Title
43194
    1CHL1    C3    1   6.211   0.164   6.101  0.3899  0.0903  0.3544
    1CHL1    H3    2   6.288   0.242   6.085  0.4225 -0.3847 -2.2648
    1CHL1    O3    3   6.216   0.105   6.226 -0.0470 -0.1606 -0.0709
    1CHL1   H3'    4   6.153   0.032   6.221  1.0418 -1.2682  1.5163
    1CHL1    C4    5   6.076   0.232   6.077 -0.7221  0.0092  0.6266
    1CHL1   H4A    6   5.999   0.155   6.097 -2.4269  1.5628  0.2773
    1CHL1   H4B    7   6.060   0.314   6.150 -1.6709 -0.1895  0.6440
    1CHL1    C5    8   6.075   0.287   5.933 -0.3195  0.4440  0.7068
    1CHL1    C6    9   6.051   0.412   5.904 -0.3944 -0.8434 -0.5523
    1CHL1    H6   10   6.032   0.484   5.984  2.8138 -0.6163  0.1410
    1CHL1    C7   11   6.046   0.471   5.770 -0.2130  0.2903 -0.1821
    1CHL1   H7A   12   5.975   0.556   5.779 -4.0328 -2.7495  1.7461
    1CHL1   H7B   13   6.147   0.515   5.755  0.2988 -1.5243 -2.7148
    1CHL1    C8   14   6.014   0.372   5.661  0.8612 -0.0893  0.0556
    1CHL1    H8   15   5.911   0.332   5.675  0.4305  0.7924 -0.4987
    1CHL1   C14   16   6.015   0.433   5.519 -0.0360 -0.2623  0.2333
    1CHL1   H14   17   6.112   0.486   5.505  0.2094 -0.6755  0.3860
    1CHL1   C15   18   5.916   0.555   5.481  0.2644  0.5919  0.2957
    1CHL1  H15A   19   5.823   0.533   5.537 -0.6468  3.0237 -0.1640
    1CHL1  H15B   20   5.953   0.651   5.524  1.8812 -0.0362  0.3961
    1CHL1   C16   21   5.898   0.549   5.331  0.6082  0.2624 -0.3746
    1CHL1  H16A   22   5.791   0.520   5.322 -0.1625  2.0165  2.0623
    1CHL1  H16B   23   5.915   0.643   5.275 -0.9034  0.5705 -0.3799
    1CHL1   C17   24   5.984   0.427   5.287  0.4140 -0.8636  0.4540
    1CHL1   H17   25   6.081   0.480   5.274  0.0236 -0.1162  0.5186
    1CHL1   C13   26   5.994   0.330   5.404  0.7245  0.0308  0.2397
    1CHL1   C18   27   5.868   0.249   5.420 -0.8085  0.6473  0.5500
    1CHL1  H18A   28   5.858   0.185   5.511 -1.9617 -1.1243 -0.7611
    1CHL1  H18B   29   5.776   0.310   5.422 -2.0854 -1.1903  0.1220
    1CHL1  H18C   30   5.863   0.171   5.342 -1.0967  1.0062  0.2088
    1CHL1   C12   31   6.113   0.231   5.411 -0.2078 -0.6540 -0.5181
    1CHL1  H12A   32   6.115   0.145   5.340 -0.3435 -2.1972  1.2547
    1CHL1  H12B   33   6.210   0.284   5.404  1.4875 -3.3163  0.8538
    1CHL1   C11   34   6.124   0.168   5.546 -0.1327 -0.1052  0.4187
    1CHL1  H11A   35   6.036   0.100   5.550  0.6114 -1.1164 -0.0884
    1CHL1  H11B   36   6.212   0.100   5.555 -0.4339 -0.5014  0.3971
    1CHL1    C9   37   6.109   0.258   5.673 -0.0252  0.4152  0.6919
    1CHL1    H9   38   6.206   0.313   5.665 -0.2458  1.0729  2.0837
    1CHL1   C10   39   6.109   0.190   5.809  0.0274 -0.1626 -0.4173
    1CHL1   C19   40   5.988   0.083   5.798 -0.8261 -0.3572  0.1736
    1CHL1  H19A   41   5.954   0.046   5.897  0.4698 -0.2373  0.6805
    1CHL1  H19B   42   5.902   0.135   5.751 -0.4789  0.9591  0.9147
    1CHL1  H19C   43   6.020  -0.002   5.734  1.4805  0.7616 -0.2918
    1CHL1    C1   44   6.234   0.111   5.849  0.4137 -1.3013  0.8115
    1CHL1   H1A   45   6.237   0.026   5.777 -2.0297 -1.1226  0.4243
    1CHL1   H1B   46   6.315   0.186   5.833  3.4357 -4.4125  0.1477
    1CHL1    C2   47   6.246   0.060   5.992  0.9136 -0.0689  0.0887
    1CHL1   H2A   48   6.351   0.026   6.009  0.9271 -0.6187 -0.9812
    1CHL1   H2B   49   6.179  -0.027   6.008  3.7336 -2.5635 -0.6801
    1CHL1   C20   50   5.938   0.374   5.150  0.3197 -0.0871  0.1235
    1CHL1   H20   51   5.846   0.317   5.175 -0.6318  1.7238  0.9705
    1CHL1   C21   52   6.050   0.288   5.098  0.4241  0.0690  0.5198
    1CHL1  H21A   53   6.062   0.190   5.149  2.0418  0.9737  1.9469
    1CHL1  H21B   54   6.140   0.349   5.121 -0.3409  0.3167  3.1033
    1CHL1  H21C   55   6.045   0.274   4.988  0.6518  0.9582  0.3868
    1CHL1   C22   56   5.885   0.486   5.050  0.5377  0.5290 -0.4418
    1CHL1  H22A   57   5.791   0.525   5.095  0.4667 -0.1557  0.0162
    1CHL1  H22B   58   5.960   0.568   5.048  3.3813 -1.8775  0.3783
    1CHL1   C23   59   5.839   0.440   4.907 -0.2940  0.7557 -0.8486
    1CHL1  H23A   60   5.794   0.525   4.851 -0.3409  0.9706 -0.4847
    1CHL1  H23B   61   5.934   0.421   4.853  0.7461  0.1126  1.1200
    1CHL1   C24   62   5.744   0.317   4.908 -0.6112 -0.5241 -0.4720
    1CHL1  H24A   63   5.786   0.234   4.970 -1.1821  0.7464  1.7190
    1CHL1  H24B   64   5.653   0.350   4.963  0.2578  1.5560 -0.1954
    1CHL1   C25   65   5.711   0.258   4.769  0.3444  0.2356  0.1149
    1CHL1   H25   66   5.687   0.343   4.702 -1.4599 -0.7202 -0.5221
    1CHL1   C26   67   5.824   0.176   4.720  0.3616  1.1317 -0.1659
    1CHL1  H26A   68   5.805   0.106   4.636  1.1691 -1.0082  1.3699
    1CHL1  H26B   69   5.912   0.238   4.692  1.0522 -0.0520 -0.6819
    1CHL1  H26C   70   5.867   0.116   4.803 -0.8369 -0.3542 -0.5792
    1CHL1   C27   71   5.585   0.176   4.789 -0.4642  0.3537  0.4370
    1CHL1  H27A   72   5.502   0.241   4.821  1.0393  0.8565  3.6842
    1CHL1  H27B   73   5.555   0.128   4.693  0.0098  1.9606 -0.5462
    1CHL1  H27C   74   5.609   0.094   4.860  0.6581  1.8437  1.8509
    2CHL1    C3   75   3.695   5.141   5.634 -0.6977 -0.1412  0.7511
    2CHL1    H3   76   3.784   5.092   5.589 -0.3617  0.4888  0.7222
    2CHL1    O3   77   3.708   5.186   5.770 -0.4167 -0.3380 -0.0638
    2CHL1   H3'   78   3.636   5.247   5.787  0.5577  0.7858  0.1788
    2CHL1    C4   79   3.665   5.272   5.558 -0.1975  1.0650  0.5364
    2CHL1   H4A   80   3.575   5.323   5.600 -2.3314 -2.6576  0.8816
    2CHL1   H4B   81   3.752   5.341   5.563  0.1968  0.8174 -1.8863
    2CHL1    C5   82   3.636   5.233   5.414  0.3122 -0.4464 -0.3588
    2CHL1    C6   83   3.713   5.274   5.304  0.0763 -0.0849 -0.3761
    2CHL1    H6   84   3.797   5.340   5.329 -0.9802  1.7921 -1.5735
    2CHL1    C7   85   3.693   5.226   5.167  0.5300 -0.0857  0.0450
    2CHL1   H7A   86   3.708   5.309   5.095  1.7982 -1.7222 -1.6826
    2CHL1   H7B   87   3.773   5.152   5.146  0.7525  0.0258  0.4894
    2CHL1    C8   88   3.550   5.167   5.139 -0.5574  0.1187 -0.0829
    2CHL1    H8   89   3.484   5.256   5.145 -0.3016  0.3801 -1.0057
    2CHL1   C14   90   3.563   5.097   5.005  0.4893  0.3349  0.6077
    2CHL1   H14   91   3.643   5.020   5.014 -0.2416 -0.4270  0.6871
    2CHL1   C15   92   3.596   5.184   4.879  0.2957  0.0757  0.4122
    2CHL1  H15A   93   3.535   5.276   4.870  1.7660  1.0963  0.6881
    2CHL1  H15B   94   3.702   5.214   4.867  0.5389 -0.8096  0.2170
    2CHL1   C16   95   3.557   5.085   4.765  0.3277 -0.4121  0.0000
    2CHL1  H16A   96   3.498   5.135   4.685  0.9841  1.8029  0.8223
    2CHL1  H16B   97   3.651   5.049   4.717  0.4975 -0.0262  0.0352
    2CHL1   C17   98   3.481   4.964   4.827 -0.2161 -0.1177  0.4792
    2CHL1   H17   99   3.564   4.892   4.846  0.4340  0.4634 -0.1174
    2CHL1   C13  100   3.437   5.022   4.963 -0.2310  0.1958 -0.8411
    2CHL1   C18  101   3.313   5.118   4.954 -0.1949 -0.1263 -0.5761
    2CHL1  H18A  102   3.223   5.054   4.949  0.7906 -1.5281 -1.0590
    2CHL1  H18B  103   3.306   5.177   5.048 -1.4035 -1.2398  0.0703
    2CHL1  H18C  104   3.319   5.183   4.865 -0.2134  0.9892  0.2214
    2CHL1   C12  105   3.409   4.917   5.069 -0.5745 -0.5122 -0.3578
    2CHL1  H12A  106   3.314   4.861   5.052 -0.0850 -0.8376 -2.2309
    2CHL1  H12B  107   3.495   4.849   5.082  1.2200  1.9398  1.3709
    2CHL1   C11  108   3.402   4.976   5.206  0.1705 -0.0873 -1.4494
    2CHL1  H11A  109   3.310   5.038   5.212 -0.2114 -0.8062  1.4411
    2CHL1  H11B  110   3.383   4.889   5.272 -2.7614  0.9658 -0.7365
    2CHL1    C9  111   3.524   5.062   5.248  0.4231  0.0032  0.1909
    2CHL1    H9  112   3.613   4.995   5.246  0.4773 -0.0897  2.5663
    2CHL1   C10  113   3.521   5.124   5.389 -0.0960 -0.3595  0.4136
    2CHL1   C19  114   3.394   5.210   5.405  0.5779 -0.5264 -0.6167
    2CHL1  H19A  115   3.389   5.260   5.504 -1.1422  0.8879 -1.3713
    2CHL1  H19B  116   3.392   5.289   5.327  0.2069  0.9612  0.8451
    2CHL1  H19C  117   3.300   5.152   5.393  1.0462 -1.1955 -1.1035
    2CHL1    C1  118   3.534   5.009   5.491  0.1697  0.6547 -0.7507
    2CHL1   H1A  119   3.440   4.950   5.499  0.5292  0.2164  0.4117
    2CHL1   H1B  120   3.611   4.938   5.456 -0.0640  0.8371 -1.6676
    2CHL1    C2  121   3.575   5.047   5.634  0.7321 -0.6421 -0.5252
    2CHL1   H2A  122   3.583   4.958   5.700  1.9072 -0.1205  0.0604
    2CHL1   H2B  123   3.490   5.100   5.682  0.7218 -0.5827 -0.6084
    2CHL1   C20  124   3.379   4.902   4.730  0.1442 -0.1384  1.1795
    2CHL1   H20  125   3.312   4.988   4.712  0.9067  0.7659  2.4890
    2CHL1   C21  126   3.295   4.781   4.782 -0.0392  0.7743 -0.4094
    2CHL1  H21A  127   3.231   4.717   4.716  0.3678 -2.1653  1.8370
    2CHL1  H21B  128   3.226   4.811   4.864  3.4602  0.6206  2.8841
    2CHL1  H21C  129   3.364   4.703   4.822  1.9692  3.4247  1.6415
    2CHL1   C22  130   3.442   4.855   4.596 -0.1862  0.0848  0.0901
    2CHL1  H22A  131   3.501   4.938   4.551  0.7713 -0.7950 -0.3102
    2CHL1  H22B  132   3.503   4.767   4.622  0.2888  0.1415 -0.7940
    2CHL1   C23  133   3.354   4.816   4.480  0.7520 -0.5195  0.5442
    2CHL1  H23A  134   3.291   4.730   4.511  0.8618 -1.1355 -0.8551
    2CHL1  H23B  135   3.282   4.898   4.459  1.2736  0.6688  3.0089
    2CHL1   C24  136   3.419   4.794   4.346 -0.1593  0.3062  0.3179
    2CHL1  H24A  137   3.461   4.893   4.317  0.2417 -0.1166 -0.5686
    2CHL1  H24B  138   3.498   4.720   4.371 -0.9342  0.4749  3.9851
    2CHL1   C25  139   3.324   4.733   4.235 -0.4690 -0.2149  0.4102
    2CHL1   H25  140   3.276   4.647   4.287  1.6141 -0.9442  1.1988
    2CHL1   C26  141   3.221   4.837   4.183  0.2137 -0.1539  0.6780
    2CHL1  H26A  142   3.160   4.795   4.100  1.3212  2.3666 -1.5701
    2CHL1  H26B  143   3.152   4.861   4.266  0.3459 -1.4887  1.2043
    2CHL1  H26C  144   3.273   4.931   4.155  1.9869 -0.7647  1.7296
    2CHL1   C27  145   3.397   4.657   4.124  0.0717 -0.7300 -0.7664
    2CHL1  H27A  146   3.464   4.728   4.070  1.5945 -3.2818 -2.4810
    2CHL1  H27B  147   3.458   4.582   4.180 -1.1172 -1.2346 -0.1098
    2CHL1  H27C  148   3.322   4.616   4.053 -0.9571  0.1914 -0.2238
    3CHL1    C3  149   2.270   5.758   6.137  0.2171  0.1764 -0.0078
    3CHL1    H3  150   2.296   5.859   6.097  0.3765  0.7575  1.4879
    3CHL1    O3  151   2.302   5.753   6.271  0.3543 -0.1455  0.0096
    3CHL1   H3'  152   2.230   5.705   6.313  0.9584  0.8065  2.2397
    3CHL1    C4  153   2.127   5.720   6.123 -0.2863  0.0353 -0.5582
    3CHL1   H4A  154   2.118   5.616   6.161 -1.5536  0.0673 -0.7307
    3CHL1   H4B  155   2.060   5.779   6.189 -2.1519 -1.1126 -1.3528
    3CHL1    C5  156   2.106   5.714   5.974 -0.4130  0.0820  0.1350
    3CHL1    C6  157   2.014   5.795   5.924  0.4801  0.5503 -0.2188
    3CHL1    H6  158   1.963   5.871   5.985  0.2100  0.3709 -0.2196
    3CHL1    C7  159   1.974   5.792   5.780  0.1779 -0.1331 -0.1188
    3CHL1   H7A  160   1.865   5.809   5.763  0.6182  5.0128  0.5473
    3CHL1   H7B  161   2.013   5.887   5.736  0.3468  0.2113  0.7605
    3CHL1    C8  162   2.011   5.659   5.702 -0.0189 -0.1807 -1.4258
    3CHL1    H8  163   1.951   5.572   5.737 -1.1090  0.9736 -0.2930
    3CHL1   C14  164   1.993   5.684   5.556 -0.3217 -0.5699 -0.2984
    3CHL1   H14  165   2.067   5.763   5.533 -0.7586  0.3834  1.4168
    3CHL1   C15  166   1.858   5.733   5.500 -0.0994  0.6477  0.7465
    3CHL1  H15A  167   1.777   5.660   5.519  2.6275 -2.3653  1.8982
    3CHL1  H15B  168   1.828   5.831   5.542 -0.4188 -0.1103  2.3614
    3CHL1   C16  169   1.886   5.723   5.351 -0.4667  0.1289 -0.1627
    3CHL1  H16A  170   1.805   5.676   5.291  1.0673 -1.1659 -1.3196
    3CHL1  H16B  171   1.915   5.823   5.312  2.8449  0.2822  2.2159
    3CHL1   C17  172   2.017   5.637   5.328  0.0961  0.1565 -0.5574
    3CHL1   H17  173   2.104   5.705   5.313  0.3338 -0.2790 -1.1827
    3CHL1   C13  174   2.038   5.569   5.463  0.0501  0.7757  0.1606
    3CHL1   C18  175   1.951   5.444   5.469  0.1081  0.6792  0.5675
    3CHL1  H18A  176   1.929   5.421   5.575 -0.2074 -0.2631  0.3110
    3CHL1  H18B  177   1.856   5.461   5.412  0.6117  0.4927 -0.3442
    3CHL1  H18C  178   2.004   5.353   5.435  1.5559  0.7614  2.4830
    3CHL1   C12  179   2.181   5.532   5.500 -0.5556 -0.1438  0.4181
    3CHL1  H12A  180   2.219   5.436   5.459 -0.2334  0.1771 -0.0422
    3CHL1  H12B  181   2.248   5.614   5.467 -1.6584  0.3761 -0.6011
    3CHL1   C11  182   2.193   5.499   5.655  0.2930 -0.0473 -0.3444
    3CHL1  H11A  183   2.138   5.408   5.687  1.2311 -0.6125 -0.3155
    3CHL1  H11B  184   2.300   5.480   5.676  0.4201 -1.2813 -1.9563
    3CHL1    C9  185   2.159   5.623   5.738 -0.1001 -0.2643 -0.1525
    3CHL1    H9  186   2.222   5.706   5.700  0.1149  0.8841  2.4311
    3CHL1   C10  187   2.185   5.610   5.888  0.1447 -0.9923 -0.1179
    3CHL1   C19  188   2.156   5.463   5.935 -0.3572 -0.5067  0.2818
    3CHL1  H19A  189   2.228   5.397   5.881 -0.0486 -2.0231  2.4316
    3CHL1  H19B  190   2.164   5.458   6.045 -1.2768 -0.6637  0.3461
    3CHL1  H19C  191   2.054   5.428   5.908 -0.7741  0.7663  0.1551
    3CHL1    C1  192   2.335   5.637   5.915  0.0339  0.4315 -0.1554
    3CHL1   H1A  193   2.400   5.552   5.886  0.7813  0.9735 -0.0955
    3CHL1   H1B  194   2.367   5.723   5.852 -0.6748 -1.1439 -2.8494
    3CHL1    C2  195   2.365   5.655   6.069  0.6993 -0.9585  0.5755
    3CHL1   H2A  196   2.474   5.676   6.070  0.5853 -0.3622  1.6161
    3CHL1   H2B  197   2.350   5.550   6.105 -0.8875 -1.8657 -2.4024
    3CHL1   C20  198   2.023   5.547   5.206 -0.1713  0.4382 -0.3202
    3CHL1   H20  199   1.946   5.468   5.219 -0.6560  1.2809  2.8240
    3CHL1   C21  200   2.163   5.499   5.183 -0.0046 -0.0414  0.5434
    3CHL1  H21A  201   2.237   5.576   5.154  0.6246 -0.9675 -0.3516
    3CHL1  H21B  202   2.162   5.420   5.105 -3.9369  0.3771 -0.0375
    3CHL1  H21C  203   2.195   5.439   5.271 -0.3543 -0.3342  0.4754
    3CHL1   C22  204   1.985   5.626   5.072  0.2043 -0.2505  0.2863
    3CHL1  H22A  205   1.884   5.671   5.075  1.1274  2.1279 -0.8500
    3CHL1  H22B  206   2.039   5.723   5.059  1.4400 -1.2196 -2.7283
    3CHL1   C23  207   1.989   5.554   4.937 -0.2645 -0.4240  0.1187
    3CHL1  H23A  208   2.085   5.508   4.905 -0.9847 -1.5196 -0.5560
    3CHL1  H23B  209   1.908   5.478   4.947 -1.5309  1.0573  1.9256
    3CHL1   C24  210   1.933   5.639   4.817 -0.1238  0.3139 -0.7520
    3CHL1  H24A  211   1.832   5.684   4.831  0.1351  0.5372  0.4966
    3CHL1  H24B  212   2.007   5.722   4.810  2.7113 -2.0992 -1.3800
    3CHL1   C25  213   1.928   5.563   4.686  0.2397 -0.0012 -0.1883
    3CHL1   H25  214   2.024   5.512   4.665  0.5981  0.6423 -0.1176
    3CHL1   C26  215   1.826   5.448   4.695 -0.0657  0.2760  0.5014
    3CHL1  H26A  216   1.836   5.394   4.599  2.2360 -0.2084  0.9715
    3CHL1  H26B  217   1.849   5.392   4.788 -1.4255  0.5392  1.0292
    3CHL1  H26C  218   1.727   5.497   4.706 -0.8496 -1.3424  1.0411
    3CHL1   C27  219   1.896   5.648   4.569 -0.5512  0.3707 -0.3429
    3CHL1  H27A  220   1.798   5.692   4.598 -1.8246 -2.2029 -0.4637
    3CHL1  H27B  221   1.980   5.718   4.551 -0.8059  1.7066  3.0788
    3CHL1  H27C  222   1.885   5.588   4.476  1.2983 -0.7460  0.1078
    4CHL1    C3  223   5.958   6.415   6.003 -0.5514 -0.4404  0.0181
    4CHL1    H3  224   6.012   6.510   6.024  1.3752 -1.8074  1.6068
    4CHL1    O3  225   5.951   6.333   6.123 -0.1076 -0.8998  0.6374
    4CHL1   H3'  226   5.861   6.302   6.136 -0.0357 -0.0977  3.9886
    4CHL1    C4  227   5.817   6.440   5.942  0.1778  0.5614 -0.1467
    4CHL1   H4A  228   5.759   6.345   5.940  0.5266  0.3389  0.1655
    4CHL1   H4B  229   5.759   6.500   6.016  0.7672 -1.1977  1.8375
    4CHL1    C5  230   5.822   6.504   5.804  0.3324 -0.7962  0.8313
    4CHL1    C6  231   5.747   6.610   5.779  0.3714 -0.0409  0.1174
    4CHL1    H6  232   5.683   6.664   5.850  0.2231 -2.3918  1.8743
    4CHL1    C7  233   5.736   6.671   5.641 -0.5820  0.0908  0.1995
    4CHL1   H7A  234   5.632   6.692   5.608  0.1816  1.4237 -1.5165
    4CHL1   H7B  235   5.791   6.768   5.647  2.2973 -1.4393  0.2776
    4CHL1    C8  236   5.799   6.584   5.529 -0.1060  0.7001  0.4504
    4CHL1    H8  237   5.742   6.493   5.499 -0.0103  1.1962 -1.3286
    4CHL1   C14  238   5.820   6.661   5.400 -0.0332  0.8092  0.0814
    4CHL1   H14  239   5.897   6.737   5.425  3.1899 -2.4777  0.9219
    4CHL1   C15  240   5.706   6.744   5.353  0.3029 -0.7528 -0.1601
    4CHL1  H15A  241   5.610   6.691   5.366 -0.6001  1.0333  0.7888
    4CHL1  H15B  242   5.701   6.849   5.390  2.0399 -1.1735  1.4036
    4CHL1   C16  243   5.737   6.759   5.200 -0.2621  0.0792 -0.4999
    4CHL1  H16A  244   5.663   6.701   5.142  2.3804 -2.3472 -1.6982
    4CHL1  H16B  245   5.737   6.865   5.167 -0.2747  0.6839  1.3452
    4CHL1   C17  246   5.878   6.687   5.182  0.0418  0.6365 -0.2126
    4CHL1   H17  247   5.945   6.769   5.217 -2.2348  1.7162  1.9625
    4CHL1   C13  248   5.885   6.582   5.292  0.1966 -0.1899  0.4115
    4CHL1   C18  249   5.793   6.466   5.253  0.6278 -0.1699 -0.2972
    4CHL1  H18A  250   5.835   6.407   5.169  2.4408 -2.9614  2.3834
    4CHL1  H18B  251   5.790   6.387   5.331 -0.3762 -2.4188 -2.4786
    4CHL1  H18C  252   5.692   6.501   5.224  1.3536  1.0350 -1.5011
    4CHL1   C12  253   6.027   6.534   5.326  0.4810  0.2825  0.3245
    4CHL1  H12A  254   6.067   6.469   5.246 -1.5640  0.5201 -0.9535
    4CHL1  H12B  255   6.094   6.623   5.329  1.0497 -0.1564  1.2805
    4CHL1   C11  256   6.033   6.466   5.461  0.4165  0.2829  0.2092
    4CHL1  H11A  257   5.991   6.366   5.437  0.1936 -0.1141  2.1252
    4CHL1  H11B  258   6.137   6.447   5.496  0.3649 -0.1274  0.1399
    4CHL1    C9  259   5.942   6.533   5.573  0.3944 -0.6236 -0.6235
    4CHL1    H9  260   5.997   6.623   5.605  0.0392 -0.6797  0.1655
    4CHL1   C10  261   5.920   6.441   5.700  0.2984  0.0173  0.5515
    4CHL1   C19  262   5.860   6.307   5.654 -0.7144  0.1175  0.1696
    4CHL1  H19A  263   5.773   6.313   5.585 -1.2326 -1.6225  0.6191
    4CHL1  H19B  264   5.924   6.240   5.592 -3.5244 -2.3968 -0.2459
    4CHL1  H19C  265   5.831   6.245   5.741  1.2317 -0.1857  0.6446
    4CHL1    C1  266   6.058   6.418   5.772 -0.3245  0.3197  0.6412
    4CHL1   H1A  267   6.124   6.354   5.709  0.9034  0.2782  1.9088
    4CHL1   H1B  268   6.098   6.519   5.795 -2.4177  2.3751 -3.5523
    4CHL1    C2  269   6.045   6.339   5.903 -0.6548  0.0990  0.7028
    4CHL1   H2A  270   6.147   6.334   5.946  0.2435  3.6323 -0.6369
    4CHL1   H2B  271   6.002   6.238   5.886 -2.7785  0.9711  0.5337
    4CHL1   C20  272   5.923   6.633   5.045  0.6226  0.5052  0.0708
    4CHL1   H20  273   5.978   6.536   5.051  0.3954  0.2219 -1.7734
    4CHL1   C21  274   6.034   6.734   4.987  0.3727  0.1273  0.2892
    4CHL1  H21A  275   6.081   6.701   4.892 -1.7397 -1.8236 -0.1853
    4CHL1  H21B  276   6.112   6.742   5.066 -0.0245 -0.4685  0.7559
    4CHL1  H21C  277   5.991   6.833   4.964 -1.0049  0.7575  4.6455
    4CHL1   C22  278   5.809   6.621   4.932 -0.7330 -0.4421 -0.7357
    4CHL1  H22A  279   5.726   6.559   4.971 -0.8817  0.3751  0.3177
    4CHL1  H22B  280   5.771   6.725   4.919  2.5765  1.3709  2.0621
    4CHL1   C23  281   5.844   6.561   4.801 -0.4353 -0.2464 -0.4144
    4CHL1  H23A  282   5.766   6.585   4.726 -0.5154  0.2474 -0.1762
    4CHL1  H23B  283   5.942   6.601   4.766 -0.6925 -0.1324 -0.9999
    4CHL1   C24  284   5.858   6.414   4.807 -0.9782 -0.2230 -0.3706
    4CHL1  H24A  285   5.952   6.386   4.860 -2.0008 -0.0238  1.6530
    4CHL1  H24B  286   5.782   6.380   4.880 -0.0304 -0.1114  0.7070
    4CHL1   C25  287   5.850   6.337   4.679  0.8731 -0.3721 -0.1599
    4CHL1   H25  288   5.748   6.369   4.648 -1.0161 -2.2483  3.5225
    4CHL1   C26  289   5.964   6.383   4.581  0.1796  0.3736  0.1369
    4CHL1  H26A  290   6.059   6.371   4.638 -0.5641 -4.5673  0.8018
    4CHL1  H26B  291   5.979   6.311   4.497  0.6734 -1.4164  1.6820
    4CHL1  H26C  292   5.944   6.483   4.538  0.1120  0.5284  0.5312
    4CHL1   C27  293   5.847   6.188   4.694 -0.0479  0.1608 -0.5909
    4CHL1  H27A  294   5.743   6.151   4.704 -0.4881  1.4755  0.0239
    4CHL1  H27B  295   5.899   6.141   4.608  0.2852 -1.5514  0.4935
    4CHL1  H27C  296   5.910   6.154   4.779  2.5356 -0.3540 -2.6085
    5CHL1    C3  297   5.028   1.304   6.334  0.0907  0.3715 -0.6637
    5CHL1    H3  298   4.988   1.406   6.316 -0.6789  0.0682 -0.7214
    5CHL1    O3  299   5.021   1.257   6.468  0.2816  0.4787 -0.5646
    5CHL1   H3'  300   5.014   1.162   6.451 -1.1179  0.7783 -1.8048
    5CHL1    C4  301   4.930   1.214   6.247  0.2104  0.5551 -0.0444
    5CHL1   H4A  302   4.961   1.109   6.267  0.8781  0.8783  0.7114
    5CHL1   H4B  303   4.828   1.213   6.291 -0.2026 -0.2080 -0.9906
    5CHL1    C5  304   4.932   1.240   6.097  0.0223 -1.2358  0.1045
    5CHL1    C6  305   4.820   1.276   6.034  0.2131  0.0779 -0.6596
    5CHL1    H6  306   4.722   1.268   6.084 -0.3650  0.7619 -1.6175
    5CHL1    C7  307   4.817   1.303   5.889  0.0774  1.0040 -0.0246
    5CHL1   H7A  308   4.735   1.244   5.842  1.8634 -0.2751 -1.7211
    5CHL1   H7B  309   4.801   1.411   5.868 -1.6431  0.5339 -1.4506
    5CHL1    C8  310   4.943   1.251   5.819 -0.2513  0.6157  0.6555
    5CHL1    H8  311   4.939   1.140   5.820  1.1082  0.5438  0.6054
    5CHL1   C14  312   4.941   1.298   5.670  0.1416  0.2446  0.6662
    5CHL1   H14  313   4.937   1.408   5.684 -1.2820  0.1610  1.0603
    5CHL1   C15  314   4.826   1.256   5.571 -0.9233  0.3461 -0.0217
    5CHL1  H15A  315   4.797   1.151   5.595  2.9141 -0.7102  0.7721
    5CHL1  H15B  316   4.734   1.314   5.592  0.1318  2.8074 -1.7710
    5CHL1   C16  317   4.884   1.277   5.435 -0.1749 -0.2207  0.5040
    5CHL1  H16A  318   4.868   1.179   5.385 -0.2664 -0.7381  1.5344
    5CHL1  H16B  319   4.839   1.357   5.371 -0.7639 -2.2770 -1.8065
    5CHL1   C17  320   5.035   1.307   5.453 -0.0456 -0.4422 -0.0424
    5CHL1   H17  321   5.052   1.417   5.462 -0.4246 -0.2513 -1.3808
    5CHL1   C13  322   5.067   1.258   5.599  0.0092 -0.2261  0.4530
    5CHL1   C18  323   5.080   1.111   5.583 -0.3824  0.1183  0.2896
    5CHL1  H18A  324   5.171   1.085   5.523 -1.2398 -0.3306 -0.8591
    5CHL1  H18B  325   5.081   1.045   5.672  2.4262  0.7295  0.8247
    5CHL1  H18C  326   5.006   1.062   5.516 -0.0143 -1.4652  0.9819
    5CHL1   C12  327   5.187   1.326   5.667  0.2405  0.4527  0.0347
    5CHL1  H12A  328   5.278   1.296   5.610  1.7411 -2.0795  3.3818
    5CHL1  H12B  329   5.174   1.436   5.666 -0.8678  0.3310  0.1773
    5CHL1   C11  330   5.199   1.273   5.809 -0.1162  0.5826  0.1081
    5CHL1  H11A  331   5.216   1.163   5.804 -0.6868  0.4584  0.7721
    5CHL1  H11B  332   5.279   1.315   5.873 -0.2184 -1.3059  1.5832
    5CHL1    C9  333   5.071   1.299   5.894  0.0987  0.4295 -0.2360
    5CHL1    H9  334   5.061   1.410   5.895  0.4989  0.4718  1.1002
    5CHL1   C10  335   5.077   1.243   6.027  0.0013 -0.2409 -0.4151
    5CHL1   C19  336   5.135   1.101   6.030 -0.5433 -0.2228  0.2910
    5CHL1  H19A  337   5.085   1.029   5.962 -0.7360 -0.8157  1.0387
    5CHL1  H19B  338   5.243   1.103   6.005 -0.5214 -1.9755  0.1295
    5CHL1  H19C  339   5.124   1.049   6.128  0.7235 -0.8702  0.1167
    5CHL1    C1  340   5.154   1.337   6.125  0.5326 -0.0136  0.0744
    5CHL1   H1A  341   5.262   1.341   6.097  1.3658 -0.2744  2.9608
    5CHL1   H1B  342   5.118   1.441   6.112  0.8192 -0.0172 -0.8555
    5CHL1    C2  343   5.164   1.297   6.277  0.2770 -0.0269  0.6102
    5CHL1   H2A  344   5.232   1.374   6.320  2.0558  0.7851 -3.2380
    5CHL1   H2B  345   5.204   1.194   6.284 -0.6940 -0.5384 -0.8951
    5CHL1   C20  346   5.115   1.254   5.332 -0.0968 -0.1779 -0.3065
    5CHL1   H20  347   5.123   1.144   5.351  0.8586  0.0938  1.0048
    5CHL1   C21  348   5.257   1.314   5.331 -0.4107 -0.8761  0.6548
    5CHL1  H21A  349   5.315   1.281   5.420  1.7485  1.0186  0.0760
    5CHL1  H21B  350   5.249   1.425   5.338 -1.8190 -0.8991 -0.3792
    5CHL1  H21C  351   5.323   1.306   5.242 -0.2205  2.8964  0.2810
    5CHL1   C22  352   5.044   1.280   5.196 -0.5293 -0.4522 -0.4201
    5CHL1  H22A  353   4.950   1.221   5.196  0.0662 -1.5005  1.5111
    5CHL1  H22B  354   5.016   1.387   5.187 -0.7379 -0.2831  1.5952
    5CHL1   C23  355   5.130   1.245   5.076  0.1634  0.7897 -0.2581
    5CHL1  H23A  356   5.209   1.321   5.059 -1.2081  2.2218 -0.5169
    5CHL1  H23B  357   5.173   1.144   5.093 -2.4261 -0.4935 -0.7654
    5CHL1   C24  358   5.054   1.220   4.948 -0.0742 -0.0931 -0.2482
    5CHL1  H24A  359   4.971   1.148   4.962 -1.7244  1.9141  0.7903
    5CHL1  H24B  360   5.002   1.313   4.915  0.2290 -0.0066 -0.4931
    5CHL1   C25  361   5.137   1.153   4.833  0.5254 -0.4710 -0.0718
    5CHL1   H25  362   5.170   1.055   4.874  0.3095 -0.6135 -0.2354
    5CHL1   C26  363   5.054   1.111   4.713 -0.1883  0.0213  0.0606
    5CHL1  H26A  364   4.973   1.185   4.695 -1.0281 -0.2756  2.2906
    5CHL1  H26B  365   5.117   1.114   4.621 -1.3381 -0.3271 -0.7583
    5CHL1  H26C  366   5.009   1.011   4.729  2.2354 -1.2733 -0.5874
    5CHL1   C27  367   5.258   1.237   4.800  1.6012 -0.2328  0.6680
    5CHL1  H27A  368   5.313   1.207   4.708  0.1147  2.5113 -1.2634
    5CHL1  H27B  369   5.210   1.335   4.776 -4.8034 -3.2479 -1.0853
    5CHL1  H27C  370   5.319   1.237   4.893 -0.0960 -0.8873  1.8364
    6CHL1    C3  371   4.774   6.570   6.172 -0.3181 -0.0894  0.2600
    6CHL1    H3  372   4.736   6.468   6.193  2.1438 -0.8571  1.3464
    6CHL1    O3  373   4.782   6.640   6.299  0.0176  0.1110 -0.5499
    6CHL1   H3'  374   4.788   6.735   6.283  2.0634  0.5477  2.2111
    6CHL1    C4  375   4.918   6.564   6.112  0.3783  0.8774  0.7168
    6CHL1   H4A  376   4.966   6.663   6.128  0.9328  0.6473  0.4918
    6CHL1   H4B  377   4.972   6.499   6.184 -0.9580  1.5826  2.4283
    6CHL1    C5  378   4.919   6.533   5.965 -0.2699 -0.8954  0.0141
    6CHL1    C6  379   4.998   6.437   5.922 -0.4708 -0.4330  0.1374
    6CHL1    H6  380   5.064   6.388   5.995  1.0553 -0.9223 -1.5075
    6CHL1    C7  381   5.011   6.392   5.778 -0.6412  0.0990 -1.1989
    6CHL1   H7A  382   5.120   6.393   5.755  0.7368  0.4230  4.1209
    6CHL1   H7B  383   4.986   6.284   5.769  1.6814 -0.9103  2.5187
    6CHL1    C8  384   4.937   6.493   5.690 -0.1789  0.4985  0.9328
    6CHL1    H8  385   5.009   6.578   5.685  1.4989 -0.9231  0.2597
    6CHL1   C14  386   4.917   6.427   5.552  0.3889  0.2184  0.5932
    6CHL1   H14  387   4.845   6.343   5.566 -0.9449  0.6787 -2.5025
    6CHL1   C15  388   5.041   6.360   5.489 -0.0687  0.3128  0.3793
    6CHL1  H15A  389   5.125   6.429   5.469 -1.2790  1.1397 -2.4619
    6CHL1  H15B  390   5.082   6.272   5.543  4.2561  1.1500 -1.1391
    6CHL1   C16  391   4.990   6.327   5.344 -0.5442  0.3573  0.5060
    6CHL1  H16A  392   5.062   6.357   5.265 -0.8967  1.7507  0.6824
    6CHL1  H16B  393   4.961   6.220   5.340  0.7308  0.0256 -0.8084
    6CHL1   C17  394   4.856   6.414   5.321 -0.3986  0.0183 -0.4156
    6CHL1   H17  395   4.781   6.332   5.328 -1.6468  1.0550 -1.2901
    6CHL1   C13  396   4.849   6.509   5.442  0.4961  0.2464  0.2751
    6CHL1   C18  397   4.937   6.639   5.418  0.0592  0.3516 -0.1507
    6CHL1  H18A  398   5.031   6.616   5.365 -1.6755 -0.5776 -3.0274
    6CHL1  H18B  399   4.881   6.702   5.346 -0.6461 -0.1624 -0.0611
    6CHL1  H18C  400   4.960   6.709   5.502  0.5535  1.8203 -1.4750
    6CHL1   C12  401   4.704   6.546   5.502 -0.8980 -0.1692  0.0967
    6CHL1  H12A  402   4.647   6.611   5.432 -2.1837 -2.0775 -0.7025
    6CHL1  H12B  403   4.655   6.447   5.494  2.3057 -1.7386 -2.2159
    6CHL1   C11  404   4.711   6.615   5.636 -0.3355 -0.1480 -0.2344
    6CHL1  H11A  405   4.761   6.712   5.617  1.9397 -0.6713  2.3563
    6CHL1  H11B  406   4.606   6.627   5.670 -1.0571 -1.9478 -1.6418
    6CHL1    C9  407   4.801   6.540   5.744  0.3391  0.1019 -0.9182
    6CHL1    H9  408   4.757   6.439   5.761  2.1504 -0.6084 -0.2508
    6CHL1   C10  409   4.818   6.609   5.878  0.5935 -0.5168  0.3772
    6CHL1   C19  410   4.858   6.759   5.862  0.4473 -0.2544 -0.2019
    6CHL1  H19A  411   4.964   6.772   5.833  0.5533  0.7731  0.6037
    6CHL1  H19B  412   4.793   6.815   5.791 -0.4377 -0.6202  0.3017
    6CHL1  H19C  413   4.867   6.799   5.965 -3.1206 -1.6144  0.7989
    6CHL1    C1  414   4.678   6.594   5.948 -0.5597 -0.5424 -0.0693
    6CHL1   H1A  415   4.594   6.643   5.895 -0.7057  0.0091  0.6656
    6CHL1   H1B  416   4.646   6.487   5.947 -4.3592  0.4735 -0.3612
    6CHL1    C2  417   4.673   6.650   6.087  0.5365  0.0474  0.0899
    6CHL1   H2A  418   4.577   6.621   6.136  1.3175 -1.8039  0.6183
    6CHL1   H2B  419   4.682   6.760   6.093 -0.9296  0.2296 -0.5802
    6CHL1   C20  420   4.845   6.480   5.184 -0.3775 -0.3055  0.5587
    6CHL1   H20  421   4.911   6.570   5.180 -1.2051  0.2718 -1.2909
    6CHL1   C21  422   4.703   6.529   5.144 -1.3034 -0.4762 -0.1008
    6CHL1  H21A  423   4.629   6.445   5.143 -1.1102 -0.6687  0.7813
    6CHL1  H21B  424   4.708   6.571   5.041  0.8763  1.1922  0.6016
    6CHL1  H21C  425   4.662   6.616   5.199 -2.1004 -0.0555 -1.3131
    6CHL1   C22  426   4.893   6.398   5.067  0.4697  0.2372  0.3644
    6CHL1  H22A  427   4.869   6.447   4.970  0.1265 -0.1465  0.2520
    6CHL1  H22B  428   5.002   6.377   5.072  0.4770 -0.0025 -0.5628
    6CHL1   C23  429   4.833   6.256   5.053 -1.1189 -0.4353  0.3344
    6CHL1  H23A  430   4.879   6.195   5.134  0.1157 -1.1702 -0.8769
    6CHL1  H23B  431   4.723   6.269   5.059 -1.2009  0.1918 -1.9532
    6CHL1   C24  432   4.879   6.183   4.925  1.0083  0.1250 -0.1585
    6CHL1  H24A  433   4.827   6.240   4.844  2.3187  1.5947 -0.0122
    6CHL1  H24B  434   4.989   6.170   4.918  1.0120 -2.6479  2.8416
    6CHL1   C25  435   4.815   6.046   4.920 -0.4167  0.0911  0.0377
    6CHL1   H25  436   4.712   6.050   4.962 -0.2605 -0.4992  0.4809
    6CHL1   C26  437   4.805   5.982   4.774 -0.5162 -0.5706 -0.7726
    6CHL1  H26A  438   4.762   5.880   4.772 -1.1019 -0.3299 -2.5491
    6CHL1  H26B  439   4.739   6.035   4.702 -2.1658 -0.4596  0.7395
    6CHL1  H26C  440   4.908   5.979   4.731  0.1573  0.0919  0.7060
    6CHL1   C27  441   4.889   5.942   5.015 -0.2117 -0.9394 -0.0905
    6CHL1  H27A  442   4.997   5.942   4.989  0.1419 -0.0568  1.2529
    6CHL1  H27B  443   4.868   5.969   5.121  3.4686  0.9034  0.3022
    6CHL1  H27C  444   4.849   5.842   4.987  0.0050 -1.2904  0.7969
    7CHL1    C3  445   2.581   5.029   6.128 -0.5374 -0.2691 -0.6847
    7CHL1    H3  446   2.539   4.927   6.119  1.8972 -1.2648 -1.5512
    7CHL1    O3  447   2.643   5.056   6.255  0.0328 -0.2209 -0.3324
    7CHL1   H3'  448   2.573   5.047   6.321  1.3438 -2.2443  0.8881
    7CHL1    C4  449   2.688   5.042   6.027 -0.6248 -0.4746  0.0498
    7CHL1   H4A  450   2.723   5.147   6.037 -0.7757 -0.3746 -0.4540
    7CHL1   H4B  451   2.773   4.973   6.047 -1.5239 -1.7642 -0.4304
    7CHL1    C5  452   2.634   5.032   5.886  0.5549 -0.9997 -0.2471
    7CHL1    C6  453   2.675   4.934   5.808 -0.3230  0.5706 -0.0474
    7CHL1    H6  454   2.738   4.852   5.845 -2.2616 -2.2911 -2.5664
    7CHL1    C7  455   2.628   4.910   5.669  0.0498 -0.3160 -0.0927
    7CHL1   H7A  456   2.719   4.901   5.605 -1.4618 -1.5268 -2.2030
    7CHL1   H7B  457   2.575   4.813   5.665  0.3184 -0.4209 -1.6240
    7CHL1    C8  458   2.544   5.026   5.606 -0.5737  0.0137 -0.1585
    7CHL1    H8  459   2.618   5.104   5.580 -1.5195  0.3866 -1.8895
    7CHL1   C14  460   2.475   4.987   5.481  0.2169 -0.4059  0.6145
    7CHL1   H14  461   2.401   4.914   5.521 -0.4394 -0.8847 -1.3881
    7CHL1   C15  462   2.558   4.927   5.369  0.4257 -0.1721  0.8366
    7CHL1  H15A  463   2.638   4.999   5.341 -0.5233 -0.3148 -2.6010
    7CHL1  H15B  464   2.602   4.827   5.385  0.1128 -0.5541 -0.6192
    7CHL1   C16  465   2.465   4.926   5.248  0.0270 -0.1398 -0.6007
    7CHL1  H16A  466   2.514   4.966   5.157  1.6985  0.3238  0.4393
    7CHL1  H16B  467   2.430   4.822   5.231 -2.3829  0.2212  1.5128
    7CHL1   C17  468   2.337   5.006   5.288 -0.1740 -0.6345 -0.0315
    7CHL1   H17  469   2.269   4.932   5.334  1.8732 -0.8761  2.8874
    7CHL1   C13  470   2.386   5.090   5.412  0.5181 -0.1505  0.0394
    7CHL1   C18  471   2.461   5.212   5.367 -0.0406 -0.4992 -0.4449
    7CHL1  H18A  472   2.397   5.299   5.344  1.3112  0.4697 -0.6406
    7CHL1  H18B  473   2.531   5.243   5.447 -0.6055 -0.4735  0.0528
    7CHL1  H18C  474   2.517   5.195   5.273 -0.3022 -0.4702 -0.6084
    7CHL1   C12  475   2.282   5.130   5.521  0.1554  0.0370  0.0231
    7CHL1  H12A  476   2.229   5.216   5.474  2.7329  1.2970 -0.7853
    7CHL1  H12B  477   2.213   5.046   5.544 -0.5026  0.9172  1.3751
    7CHL1   C11  478   2.347   5.184   5.651  0.2311  0.2712 -0.0845
    7CHL1  H11A  479   2.398   5.278   5.622  1.0820 -1.0251 -3.1071
    7CHL1  H11B  480   2.260   5.196   5.720 -1.0235 -0.7170 -1.4111
    7CHL1    C9  481   2.444   5.078   5.711 -0.2819 -0.3016 -0.7927
    7CHL1    H9  482   2.378   4.996   5.746 -0.3838 -0.5172 -1.4712
    7CHL1   C10  483   2.521   5.126   5.840  1.4091 -0.0721  0.5865
    7CHL1   C19  484   2.580   5.266   5.803 -0.1726  1.0256 -0.1708
    7CHL1  H19A  485   2.664   5.254   5.731  2.7641  0.7656  3.0219
    7CHL1  H19B  486   2.509   5.347   5.776  0.6811  1.7189 -0.3835
    7CHL1  H19C  487   2.646   5.299   5.886 -2.2263 -1.0294  2.4615
    7CHL1    C1  488   2.414   5.114   5.957 -0.3210 -0.4540 -0.2734
    7CHL1   H1A  489   2.345   5.201   5.954  0.3365  0.0679 -0.5403
    7CHL1   H1B  490   2.362   5.015   5.954 -0.6849 -0.3417  1.5901
    7CHL1    C2  491   2.470   5.129   6.104 -0.2734  0.2107  0.1486
    7CHL1   H2A  492   2.381   5.116   6.170 -1.7472  0.8037 -1.6583
    7CHL1   H2B  493   2.510   5.232   6.118 -1.4471  0.6599  0.3305
    7CHL1   C20  494   2.266   5.079   5.174 -0.7928 -0.0960  0.3851
    7CHL1   H20  495   2.324   5.165   5.136  0.7809 -0.4702  1.8292
    7CHL1   C21  496   2.137   5.136   5.225  0.3443 -1.0526 -0.3393
    7CHL1  H21A  497   2.079   5.061   5.282 -0.2811 -0.2453  0.1014
    7CHL1  H21B  498   2.070   5.164   5.141 -0.3505 -0.3040  0.4383
    7CHL1  H21C  499   2.159   5.230   5.280  0.3841 -0.6414 -1.0465
    7CHL1   C22  500   2.242   4.996   5.048  0.1893  0.6145 -0.2240
    7CHL1  H22A  501   2.327   4.934   5.013 -0.3102 -1.0700  1.3840
    7CHL1  H22B  502   2.161   4.922   5.065  0.9945 -0.2592 -0.1409
    7CHL1   C23  503   2.201   5.071   4.917 -0.1283  0.3528  0.0347
    7CHL1  H23A  504   2.103   5.117   4.941 -1.1369 -1.7664  0.1849
    7CHL1  H23B  505   2.272   5.147   4.880 -0.6261  0.7851 -0.0464
    7CHL1   C24  506   2.162   4.974   4.804  0.3375 -0.3697 -0.1378
    7CHL1  H24A  507   2.255   4.958   4.746  1.6668 -0.2439  1.8541
    7CHL1  H24B  508   2.137   4.875   4.849 -0.9638  0.9040  2.1352
    7CHL1   C25  509   2.034   5.024   4.726 -0.2079  0.0724  0.2146
    7CHL1   H25  510   1.956   5.043   4.802 -1.3856  3.6487 -1.6726
    7CHL1   C26  511   2.066   5.160   4.665  0.0977  0.1125 -0.2064
    7CHL1  H26A  512   2.132   5.159   4.576  0.2007  2.5228 -0.2338
    7CHL1  H26B  513   1.976   5.196   4.611 -0.5860 -1.2214 -0.0009
    7CHL1  H26C  514   2.109   5.233   4.736 -1.2242  0.4005  0.3345
    7CHL1   C27  515   1.987   4.925   4.626  0.1488  0.2545 -0.6363
    7CHL1  H27A  516   1.896   4.958   4.570 -0.2694 -1.1015 -0.7974
    7CHL1  H27B  517   2.072   4.903   4.558 -0.5292  2.1488 -2.1794
    7CHL1  H27C  518   1.973   4.835   4.689 -3.0301  1.7474  1.0256
    8CHL1    C3  519   3.768   3.954   5.871 -0.1810 -0.5603 -0.0501
    8CHL1    H3  520   3.745   4.062   5.857 -1.9074 -0.7187  1.1887
    8CHL1    O3  521   3.700   3.911   5.988 -0.7021 -0.2016 -0.4093
    8CHL1   H3'  522   3.750   3.950   6.061 -1.8500  1.0606 -0.2486
    8CHL1    C4  523   3.725   3.864   5.752  0.3755  0.0531 -0.0411
    8CHL1   H4A  524   3.748   3.756   5.770 -3.4715 -0.8117  0.5983
    8CHL1   H4B  525   3.616   3.872   5.733 -0.3675 -0.3927  3.3863
    8CHL1    C5  526   3.794   3.913   5.627 -0.4025  0.3987  0.3735
    8CHL1    C6  527   3.729   3.963   5.519  0.1935  0.1607 -0.5958
    8CHL1    H6  528   3.619   3.974   5.515  0.2281  0.1073 -2.2758
    8CHL1    C7  529   3.796   3.996   5.391 -0.2097  0.4008 -0.2784
    8CHL1   H7A  530   3.742   3.941   5.311 -1.4856 -0.7483  1.2882
    8CHL1   H7B  531   3.791   4.106   5.376 -0.7760  0.4357  0.1235
    8CHL1    C8  532   3.939   3.938   5.379  0.1890  0.0044  0.2657
    8CHL1    H8  533   3.926   3.828   5.364  1.2087 -0.3102  1.5302
    8CHL1   C14  534   4.006   3.998   5.255  0.2887  0.0852  0.0842
    8CHL1   H14  535   4.020   4.105   5.283 -1.3069  0.1798  0.6380
    8CHL1   C15  536   3.937   3.993   5.122 -0.3031 -0.0991 -0.0336
    8CHL1  H15A  537   3.872   3.905   5.101 -1.8686  0.9452  0.2433
    8CHL1  H15B  538   3.864   4.076   5.111 -1.2491 -0.8438  0.4672
    8CHL1   C16  539   4.049   4.002   5.015 -0.2855 -0.0922 -0.9811
    8CHL1  H16A  540   4.045   3.916   4.945  1.9668 -0.8731 -0.2542
    8CHL1  H16B  541   4.039   4.099   4.962 -0.5422  0.4740  0.0680
    8CHL1   C17  542   4.186   4.004   5.101 -0.9744  0.1014  0.5850
    8CHL1   H17  543   4.196   4.110   5.132  0.2903  0.2495 -0.2700
    8CHL1   C13  544   4.150   3.942   5.232  1.3650  0.2751  0.0524
    8CHL1   C18  545   4.140   3.787   5.200 -0.3316 -0.2633 -0.0196
    8CHL1  H18A  546   4.053   3.765   5.135  0.4553 -0.0931 -1.1624
    8CHL1  H18B  547   4.234   3.749   5.154  0.1483 -0.8059  1.3780
    8CHL1  H18C  548   4.122   3.729   5.293  1.8963 -0.8020  0.1174
    8CHL1   C12  549   4.238   3.969   5.356 -0.8346 -0.5079 -0.9087
    8CHL1  H12A  550   4.332   3.912   5.341 -0.6201 -0.8217  1.2710
    8CHL1  H12B  551   4.252   4.079   5.349  2.5215 -0.7258  0.2730
    8CHL1   C11  552   4.176   3.927   5.486  0.1797 -0.0064 -0.7438
    8CHL1  H11A  553   4.190   3.817   5.481 -1.5509 -0.4140  1.4766
    8CHL1  H11B  554   4.241   3.972   5.564  0.6765 -0.6457 -0.7801
    8CHL1    C9  555   4.020   3.964   5.502 -0.1900 -0.1850 -0.5956
    8CHL1    H9  556   4.021   4.075   5.509  0.9399 -0.1755 -0.6559
    8CHL1   C10  557   3.952   3.901   5.628  0.1143 -0.1536 -0.1094
    8CHL1   C19  558   3.986   3.754   5.631  0.0432  0.0847 -0.1870
    8CHL1  H19A  559   3.958   3.693   5.542 -0.5349 -2.6045  1.7337
    8CHL1  H19B  560   4.091   3.728   5.653 -0.3993 -0.9226  0.8479
    8CHL1  H19C  561   3.922   3.702   5.705  0.0656  0.2573 -0.0452
    8CHL1    C1  562   3.998   3.976   5.754 -0.0214 -0.0754 -0.6345
    8CHL1   H1A  563   4.106   3.954   5.767  0.0561  0.4549 -0.3651
    8CHL1   H1B  564   3.981   4.082   5.728 -0.9871  0.2204  1.0324
    8CHL1    C2  565   3.922   3.941   5.885 -0.0164 -0.3529 -0.7280
    8CHL1   H2A  566   3.949   4.016   5.962 -0.3402  2.1341 -2.8804
    8CHL1   H2B  567   3.935   3.837   5.922  1.7650  0.5098  1.2714
    8CHL1   C20  568   4.314   3.969   5.017  0.1839  0.1248 -0.6849
    8CHL1   H20  569   4.327   3.859   5.025  2.1637  0.4459  1.2468
    8CHL1   C21  570   4.438   4.041   5.077 -0.4217  0.8131  0.3501
    8CHL1  H21A  571   4.533   3.995   5.043 -0.4710  0.2459  0.9561
    8CHL1  H21B  572   4.445   4.045   5.188  1.4565 -0.4349  0.3362
    8CHL1  H21C  573   4.438   4.145   5.040  0.3070  1.4345  2.0232
    8CHL1   C22  574   4.295   4.002   4.860 -0.2892  0.6546  0.1946
    8CHL1  H22A  575   4.229   3.921   4.822  1.7167 -0.4413 -1.1474
    8CHL1  H22B  576   4.247   4.102   4.846  1.3247  1.5447  0.7129
    8CHL1   C23  577   4.425   3.990   4.777 -0.1066 -0.3872 -0.4344
    8CHL1  H23A  578   4.487   4.082   4.780 -0.0844 -0.4101 -0.0807
    8CHL1  H23B  579   4.491   3.911   4.820  0.4924 -1.3297 -2.9180
    8CHL1   C24  580   4.402   3.950   4.634  0.1125  0.4047  0.1231
    8CHL1  H24A  581   4.344   3.856   4.640 -1.0283  1.0645 -0.4008
    8CHL1  H24B  582   4.346   4.030   4.582 -0.5444 -1.4991 -2.2966
    8CHL1   C25  583   4.539   3.926   4.570  0.0760  0.6548 -0.5864
    8CHL1   H25  584   4.593   3.862   4.642  0.5045  0.5458 -0.9997
    8CHL1   C26  585   4.508   3.849   4.434  0.3447 -0.3266 -0.2153
    8CHL1  H26A  586   4.467   3.917   4.357  2.3735  2.0081  0.6490
    8CHL1  H26B  587   4.605   3.809   4.396 -0.4984 -0.9723 -1.7731
    8CHL1  H26C  588   4.451   3.755   4.451  1.2161 -0.4592  2.3954
    8CHL1   C27  589   4.622   4.057   4.548 -0.2846  0.2240 -0.0779
    8CHL1  H27A  590   4.719   4.037   4.498 -0.6638  2.1132 -1.7074
    8CHL1  H27B  591   4.567   4.142   4.502 -0.6741  1.1918  2.0631
    8CHL1  H27C  592   4.658   4.093   4.647  1.7131 -3.1854  0.5912
    9CHL1    C3  593   1.563   5.988   6.009 -0.5349 -0.4280  0.1331
    9CHL1    H3  594   1.612   5.893   5.977 -0.0678  0.0648 -0.6396
    9CHL1    O3  595   1.529   5.973   6.145  0.1083  0.0906  0.5160
    9CHL1   H3'  596   1.435   5.986   6.152  0.2533  1.3572  0.3634
    9CHL1    C4  597   1.652   6.111   5.984  0.2990  0.2054 -0.0048
    9CHL1   H4A  598   1.592   6.198   6.017 -0.7077 -0.8190  0.9675
    9CHL1   H4B  599   1.746   6.113   6.044  0.3387  0.6374 -0.0833
    9CHL1    C5  600   1.688   6.129   5.839  0.3860 -0.3589 -0.0563
    9CHL1    C6  601   1.822   6.136   5.799 -0.3099 -0.1454  0.6986
    9CHL1    H6  602   1.905   6.118   5.869  0.2058 -3.1157 -0.5404
    9CHL1    C7  603   1.851   6.185   5.656  0.9270  0.7237 -0.5898
    9CHL1   H7A  604   1.918   6.272   5.672  3.3577 -1.2420  0.5538
    9CHL1   H7B  605   1.914   6.109   5.603  0.1601 -0.1666 -0.2616
    9CHL1    C8  606   1.727   6.221   5.568 -0.1206  0.2406  0.4765
    9CHL1    H8  607   1.700   6.326   5.595  2.0947  0.6843  1.1180
    9CHL1   C14  608   1.760   6.226   5.423  0.4136  0.3456 -0.0197
    9CHL1   H14  609   1.790   6.122   5.400  0.7336  0.5338 -0.4781
    9CHL1   C15  610   1.887   6.311   5.381  0.8461  1.2618 -0.8056
    9CHL1  H15A  611   1.880   6.412   5.425  1.5546  1.1474 -0.4156
    9CHL1  H15B  612   1.982   6.260   5.410  0.9025  1.1330 -1.2081
    9CHL1   C16  613   1.870   6.318   5.230  0.3969 -0.3729 -0.2356
    9CHL1  H16A  614   1.883   6.421   5.192  0.3605 -0.1084  0.4767
    9CHL1  H16B  615   1.951   6.252   5.191  2.3182  0.9498  1.4038
    9CHL1   C17  616   1.726   6.258   5.187  0.3710 -0.0897  0.8470
    9CHL1   H17  617   1.741   6.151   5.162  1.6924  0.6243 -1.8303
    9CHL1   C13  618   1.648   6.257   5.319 -0.2959  0.7264 -0.1272
    9CHL1   C18  619   1.587   6.396   5.341 -0.0297  0.6816  0.5601
    9CHL1  H18A  620   1.566   6.405   5.450  1.0568  1.3570  0.7269
    9CHL1  H18B  621   1.653   6.479   5.309 -1.0915  1.0554 -0.6937
    9CHL1  H18C  622   1.503   6.400   5.269  0.8026  0.5245 -0.4486
    9CHL1   C12  623   1.540   6.140   5.345 -0.1397 -0.5053  0.1662
    9CHL1  H12A  624   1.461   6.161   5.270 -0.2399 -1.5255 -0.0255
    9CHL1  H12B  625   1.590   6.042   5.329  0.1509 -0.8368  2.7580
    9CHL1   C11  626   1.492   6.123   5.490  0.2372  0.5283  0.6045
    9CHL1  H11A  627   1.419   6.204   5.508 -0.8412  0.0201 -1.2259
    9CHL1  H11B  628   1.425   6.036   5.506 -0.4712  0.9528  0.0102
    9CHL1    C9  629   1.617   6.123   5.592  0.0070  0.4588 -0.0435
    9CHL1    H9  630   1.663   6.024   5.574  0.7302  1.0636 -1.8482
    9CHL1   C10  631   1.568   6.133   5.741 -0.2887  0.1748 -0.3786
    9CHL1   C19  632   1.494   6.272   5.759  0.3691  0.0254  0.2347
    9CHL1  H19A  633   1.568   6.354   5.747  1.6898 -0.9718  1.2934
    9CHL1  H19B  634   1.408   6.287   5.689  1.2867  0.9700 -0.7314
    9CHL1  H19C  635   1.458   6.277   5.864 -0.9372  2.7971 -0.2266
    9CHL1    C1  636   1.476   6.010   5.771 -0.2532  0.1203 -0.2060
    9CHL1   H1A  637   1.385   6.009   5.707 -0.9081  1.9505  0.6152
    9CHL1   H1B  638   1.539   5.920   5.757 -2.2586 -1.3331 -0.2982
    9CHL1    C2  639   1.440   6.001   5.920  0.2776 -0.8452 -0.0824
    9CHL1   H2A  640   1.389   5.902   5.928  2.6447 -2.2602 -1.2172
    9CHL1   H2B  641   1.378   6.089   5.945  0.8432 -0.4374 -0.1127
    9CHL1   C20  642   1.662   6.322   5.066 -0.9138  0.4781 -0.7053
    9CHL1   H20  643   1.629   6.427   5.080  0.4176  0.8120  0.0976
    9CHL1   C21  644   1.539   6.234   5.027 -0.2358 -0.0289 -0.2104
    9CHL1  H21A  645   1.554   6.125   5.044  2.3916  0.3249  0.0909
    9CHL1  H21B  646   1.516   6.253   4.920  0.7829 -1.7627 -0.7825
    9CHL1  H21C  647   1.455   6.257   5.096  0.9970 -1.9671  2.1031
    9CHL1   C22  648   1.751   6.328   4.934  0.3132 -0.4244  0.6874
    9CHL1  H22A  649   1.694   6.383   4.856  1.5326  0.5830  0.4667
    9CHL1  H22B  650   1.841   6.390   4.956  0.3413  0.1123 -0.8561
    9CHL1   C23  651   1.788   6.191   4.881 -0.6862 -0.5707  0.9415
    9CHL1  H23A  652   1.841   6.143   4.966  0.7460 -0.4403  0.1541
    9CHL1  H23B  653   1.707   6.121   4.851  0.9383 -2.1247 -0.0173
    9CHL1   C24  654   1.891   6.202   4.761 -0.3296 -0.0789 -0.3117
    9CHL1  H24A  655   1.964   6.283   4.781 -1.6305  2.1732 -3.8283
    9CHL1  H24B  656   1.922   6.096   4.749 -2.9251 -0.7715 -1.8484
    9CHL1   C25  657   1.837   6.233   4.619 -0.5073  0.0975 -1.1555
    9CHL1   H25  658   1.818   6.342   4.618 -1.6865 -0.1049 -1.6673
    9CHL1   C26  659   1.941   6.200   4.510 -0.0472  0.0099 -0.6387
    9CHL1  H26A  660   1.965   6.092   4.503 -1.4424 -0.3259 -0.6784
    9CHL1  H26B  661   1.898   6.230   4.412 -3.2026 -0.1777  0.5776
    9CHL1  H26C  662   2.030   6.265   4.521  0.4207 -0.6068 -0.7514
    9CHL1   C27  663   1.716   6.158   4.588  0.4205 -0.0894  0.5879
    9CHL1  H27A  664   1.725   6.047   4.595 -2.6121 -0.6173 -1.7623
    9CHL1  H27B  665   1.637   6.201   4.653 -0.6405  0.8908 -1.3027
    9CHL1  H27C  666   1.689   6.179   4.483 -0.6212 -2.6472  0.2732
   10CHL1    C3  667   1.196   6.613   5.801  0.0870 -0.6736 -0.3078
   10CHL1    H3  668   1.306   6.610   5.816 -0.0912 -1.3352  1.0704
   10CHL1    O3  669   1.124   6.597   5.923 -1.4857 -0.1555 -0.4335
   10CHL1   H3'  670   1.074   6.678   5.939  0.6620  1.3615 -0.9392
   10CHL1    C4  671   1.137   6.743   5.733 -0.8396 -0.6539  0.9738
   10CHL1   H4A  672   1.027   6.730   5.728 -0.6033 -2.5633 -0.2377
   10CHL1   H4B  673   1.160   6.828   5.800 -1.3783 -0.3906  0.8244
   10CHL1    C5  674   1.197   6.768   5.598 -0.3670 -0.0180  0.0059
   10CHL1    C6  675   1.273   6.873   5.576 -0.2461  0.1244  0.3690
   10CHL1    H6  676   1.294   6.941   5.660 -0.6621 -3.0870  3.2615
   10CHL1    C7  677   1.326   6.908   5.439  0.4655 -0.6721 -0.8295
   10CHL1   H7A  678   1.319   7.012   5.400  1.1264 -0.4038 -0.2433
   10CHL1   H7B  679   1.437   6.904   5.432  0.8412  3.2462  0.5045
   10CHL1    C8  680   1.264   6.811   5.325 -0.7361 -0.0406  0.1491
   10CHL1    H8  681   1.159   6.846   5.318 -0.7927  0.1123  1.4615
   10CHL1   C14  682   1.352   6.827   5.199  0.3354 -0.3029  0.5924
   10CHL1   H14  683   1.452   6.785   5.223  1.5934  1.0410 -1.9204
   10CHL1   C15  684   1.385   6.971   5.151 -0.5505  0.0260 -0.5394
   10CHL1  H15A  685   1.297   7.039   5.152  0.6160  1.5861  0.8202
   10CHL1  H15B  686   1.465   7.022   5.209  0.1384 -0.3582 -1.1362
   10CHL1   C16  687   1.434   6.938   5.006  0.2216 -1.3071 -0.1449
   10CHL1  H16A  688   1.398   7.011   4.930 -0.5037  0.7767  2.0668
   10CHL1  H16B  689   1.543   6.958   5.013  0.3986 -2.5704  1.0146
   10CHL1   C17  690   1.398   6.792   4.969  0.1241  0.1364  0.1784
   10CHL1   H17  691   1.489   6.733   4.991  0.6150  1.2475  1.2593
   10CHL1   C13  692   1.297   6.748   5.078  0.4963  0.1218 -0.7384
   10CHL1   C18  693   1.156   6.809   5.041  0.7365  0.4226  0.2186
   10CHL1  H18A  694   1.084   6.806   5.126  0.6081  0.2752  0.1056
   10CHL1  H18B  695   1.162   6.911   4.999  0.1862  0.1113 -0.6399
   10CHL1  H18C  696   1.113   6.749   4.958  1.9673 -0.6751  0.3444
   10CHL1   C12  697   1.296   6.598   5.115  0.0274  0.4847 -0.2738
   10CHL1  H12A  698   1.254   6.551   5.023  1.2080  1.7606 -1.4988
   10CHL1  H12B  699   1.400   6.562   5.129  0.1203  0.7610 -0.2457
   10CHL1   C11  700   1.211   6.574   5.250  0.6036 -0.9052 -0.6056
   10CHL1  H11A  701   1.105   6.590   5.222  0.7256 -1.6235 -1.5421
   10CHL1  H11B  702   1.223   6.469   5.283  0.7179 -0.1675  1.8911
   10CHL1    C9  703   1.260   6.665   5.367  0.6822 -0.2997  0.2946
   10CHL1    H9  704   1.362   6.624   5.388  0.1424 -2.6681 -1.2392
   10CHL1   C10  705   1.173   6.647   5.499  0.5782 -0.3535 -0.1036
   10CHL1   C19  706   1.026   6.661   5.460 -0.3599  0.0573  0.0872
   10CHL1  H19A  707   1.006   6.755   5.404  0.5360 -1.2309 -2.5721
   10CHL1  H19B  708   0.989   6.569   5.410  1.2894 -0.6954  0.1979
   10CHL1  H19C  709   0.962   6.656   5.551 -1.6613  0.3183 -0.7797
   10CHL1    C1  710   1.218   6.510   5.563  0.7542  0.0180  0.0127
   10CHL1   H1A  711   1.188   6.422   5.502 -0.7245 -1.0205  2.0804
   10CHL1   H1B  712   1.328   6.526   5.565  0.8519 -0.6659  0.9948
   10CHL1    C2  713   1.163   6.494   5.709  0.6348 -0.1475 -0.4997
   10CHL1   H2A  714   1.194   6.393   5.743  1.4317  0.0561 -0.5803
   10CHL1   H2B  715   1.053   6.493   5.702  0.6607  1.1573 -1.2641
   10CHL1   C20  716   1.363   6.779   4.817 -0.2121 -0.7311  0.2950
   10CHL1   H20  717   1.267   6.834   4.805 -0.2790 -0.9286 -0.1092
   10CHL1   C21  718   1.356   6.626   4.790  0.0088 -0.6356 -0.6609
   10CHL1  H21A  719   1.257   6.598   4.832 -0.3760  3.5614  1.7036
   10CHL1  H21B  720   1.433   6.567   4.846 -0.5810 -2.3017 -1.5373
   10CHL1  H21C  721   1.360   6.591   4.685 -1.4058 -1.5351 -0.4373
   10CHL1   C22  722   1.481   6.825   4.731 -0.1755  0.1413 -0.8640
   10CHL1  H22A  723   1.528   6.919   4.764  0.0754 -0.3816  0.3148
   10CHL1  H22B  724   1.555   6.742   4.724 -0.2282  0.1408 -1.4925
   10CHL1   C23  725   1.437   6.851   4.586  0.2678  0.5394 -0.6858
   10CHL1  H23A  726   1.406   6.751   4.548 -2.8729 -0.1728  3.0207
   10CHL1  H23B  727   1.349   6.917   4.574  1.1554  2.2123  1.3548
   10CHL1   C24  728   1.544   6.896   4.501  0.9540  0.3094  0.4262
   10CHL1  H24A  729   1.564   7.002   4.529  0.2757  0.5895 -0.1229
   10CHL1  H24B  730   1.634   6.833   4.516  0.0665 -1.3274 -0.8197
   10CHL1   C25  731   1.513   6.897   4.352  0.1359  0.7959 -0.0600
   10CHL1   H25  732   1.404   6.916   4.346  0.0800  0.8329  0.8164
   10CHL1   C26  733   1.599   7.002   4.285  0.4649 -0.1569  0.1090
   10CHL1  H26A  734   1.704   6.976   4.309  0.4945 -1.7611 -1.5384
   10CHL1  H26B  735   1.588   7.009   4.175  0.1973  0.3708  0.1666
   10CHL1  H26C  736   1.577   7.101   4.329  1.2691 -0.1079  0.4189
   10CHL1   C27  737   1.535   6.763   4.274  0.0598  0.0867 -0.2611
   10CHL1  H27A  738   1.523   6.773   4.164  2.0130 -1.6786 -0.6855
   10CHL1  H27B  739   1.639   6.733   4.296  0.7746  1.6250 -1.3618
   10CHL1  H27C  740   1.475   6.676   4.307  0.1633 -0.5281 -1.6226
   11CHL1    C3  741   4.253   4.756   5.995 -0.2416 -0.4968 -0.3421
   11CHL1    H3  742   4.296   4.661   5.958 -1.6221 -1.6411  0.8942
   11CHL1    O3  743   4.276   4.760   6.133 -0.4064 -0.0332  0.1654
   11CHL1   H3'  744   4.372   4.759   6.131 -0.4036 -0.1926 -1.9578
   11CHL1    C4  745   4.322   4.871   5.915 -0.7787  0.6073  0.4754
   11CHL1   H4A  746   4.303   4.972   5.956  1.5171  0.1588  2.8920
   11CHL1   H4B  747   4.432   4.871   5.932 -0.5466  0.6590 -0.8773
   11CHL1    C5  748   4.289   4.844   5.768  0.8285  0.3453 -1.1162
   11CHL1    C6  749   4.389   4.835   5.681  0.1369  0.7464  0.1174
   11CHL1    H6  750   4.492   4.842   5.718  0.8414 -1.0832 -1.3304
   11CHL1    C7  751   4.364   4.820   5.533 -0.1259 -0.3936 -0.3756
   11CHL1   H7A  752   4.432   4.889   5.478 -0.2640  0.9288  1.0244
   11CHL1   H7B  753   4.379   4.719   5.492 -2.0600 -0.7267 -0.3482
   11CHL1    C8  754   4.222   4.863   5.491  0.0095  0.0097  0.6737
   11CHL1    H8  755   4.219   4.973   5.479 -2.2804 -0.1390 -0.6921
   11CHL1   C14  756   4.195   4.811   5.353 -0.7282  0.2563  0.0694
   11CHL1   H14  757   4.197   4.702   5.371 -0.7758  0.2518  0.0497
   11CHL1   C15  758   4.297   4.835   5.241 -0.5745  0.0550 -0.5170
   11CHL1  H15A  759   4.322   4.943   5.245 -1.9355  0.3502  2.1692
   11CHL1  H15B  760   4.390   4.775   5.249 -1.1853 -0.9518 -0.7779
   11CHL1   C16  761   4.219   4.804   5.113 -0.0575 -0.8183 -0.2022
   11CHL1  H16A  762   4.221   4.901   5.059  3.6574  0.2512  1.5507
   11CHL1  H16B  763   4.268   4.723   5.054 -1.0937 -2.2914  0.8762
   11CHL1   C17  764   4.075   4.771   5.153 -0.2374  0.2017  0.5014
   11CHL1   H17  765   4.069   4.660   5.163  1.1985  0.2687  3.2062
   11CHL1   C13  766   4.058   4.836   5.293  0.9705  0.0627 -0.3606
   11CHL1   C18  767   4.033   4.985   5.268 -0.3348  0.6285  0.2136
   11CHL1  H18A  768   4.045   5.039   5.365  1.7102  0.6324 -0.0089
   11CHL1  H18B  769   4.109   5.024   5.198 -1.1903  1.2495 -0.3902
   11CHL1  H18C  770   3.937   5.017   5.223  0.2748  1.9444 -0.1831
   11CHL1   C12  771   3.949   4.779   5.392 -0.3861  0.2615 -0.0251
   11CHL1  H12A  772   3.849   4.815   5.360 -0.5094  0.0435  0.1143
   11CHL1  H12B  773   3.947   4.668   5.389 -0.7612  0.2830 -0.8634
   11CHL1   C11  774   3.970   4.816   5.538 -0.4789 -0.1763  0.7741
   11CHL1  H11A  775   3.948   4.925   5.540  0.4424  0.2237 -3.2151
   11CHL1  H11B  776   3.906   4.750   5.600 -1.5955 -0.1877 -0.3789
   11CHL1    C9  777   4.116   4.808   5.584  0.5653 -0.0909  0.5262
   11CHL1    H9  778   4.143   4.700   5.578  1.2310  0.1042 -0.2028
   11CHL1   C10  779   4.141   4.834   5.735 -0.0762 -0.4889 -0.6293
   11CHL1   C19  780   4.085   4.981   5.765 -0.0253  0.9791 -0.2313
   11CHL1  H19A  781   4.087   5.062   5.689 -2.0710  2.1503  0.8726
   11CHL1  H19B  782   3.979   4.958   5.789  0.1632  2.0253  1.7319
   11CHL1  H19C  783   4.125   5.019   5.861  0.7240 -1.8236  0.6685
   11CHL1    C1  784   4.074   4.733   5.824 -0.7277 -0.2047 -0.1793
   11CHL1   H1A  785   3.968   4.757   5.799 -0.2149  0.7657 -1.5428
   11CHL1   H1B  786   4.086   4.630   5.785 -2.0342 -0.5632  0.2943
   11CHL1    C2  787   4.103   4.750   5.972  0.1801  0.6024 -0.8617
   11CHL1   H2A  788   4.054   4.666   6.025  1.5593 -0.2116 -0.8158
   11CHL1   H2B  789   4.059   4.842   6.016  1.0318  0.9140 -0.6410
   11CHL1   C20  790   3.982   4.822   5.043  0.1027  0.3542 -0.1688
   11CHL1   H20  791   3.984   4.931   5.022  1.1555  0.2843 -0.4555
   11CHL1   C21  792   3.839   4.788   5.081 -0.4840 -0.2609 -0.8536
   11CHL1  H21A  793   3.795   4.862   5.151 -2.1608  0.9878 -3.0806
   11CHL1  H21B  794   3.843   4.683   5.118  0.5006 -1.0363 -3.0171
   11CHL1  H21C  795   3.778   4.802   4.989 -0.6463  0.4879 -0.6360
   11CHL1   C22  796   4.003   4.752   4.911  0.2738 -0.2553 -0.2869
   11CHL1  H22A  797   4.110   4.753   4.883  0.1255  1.5244 -0.8864
   11CHL1  H22B  798   3.959   4.650   4.904 -1.0438  0.1883  0.9124
   11CHL1   C23  799   3.948   4.833   4.794  0.5204 -0.5413  0.3565
   11CHL1  H23A  800   3.837   4.837   4.792  0.4501 -1.8793 -0.6778
   11CHL1  H23B  801   3.985   4.937   4.791  0.0069 -0.3514  0.4937
   11CHL1   C24  802   3.992   4.766   4.659  0.3613  0.4197  0.4891
   11CHL1  H24A  803   4.103   4.772   4.654  0.3434  0.3794 -0.0019
   11CHL1  H24B  804   3.976   4.656   4.666  2.1471  0.0653 -0.3949
   11CHL1   C25  805   3.927   4.811   4.526 -0.2546 -0.7292  0.0844
   11CHL1   H25  806   3.937   4.922   4.521  0.9535 -0.8511 -0.7341
   11CHL1   C26  807   4.005   4.762   4.402 -0.5198 -0.8220 -0.0510
   11CHL1  H26A  808   3.962   4.665   4.372  0.7523 -1.0231 -1.3582
   11CHL1  H26B  809   3.971   4.828   4.319  0.8315  1.5404  1.1432
   11CHL1  H26C  810   4.116   4.761   4.399 -0.5424 -1.8634 -1.7566
   11CHL1   C27  811   3.776   4.788   4.528 -0.2162 -0.1708  0.1413
   11CHL1  H27A  812   3.716   4.811   4.619  0.6045  1.6064  0.2673
   11CHL1  H27B  813   3.722   4.836   4.444 -0.9119  0.1589  0.7703
   11CHL1  H27C  814   3.756   4.680   4.509  1.3741 -0.2642 -1.2029
   12CHL1    C3  815   5.863   5.377   5.921 -0.8628 -0.1435  0.0461
   12CHL1    H3  816   5.842   5.472   5.868 -2.2981  0.2367  1.2333
   12CHL1    O3  817   5.883   5.403   6.056 -0.7680  0.5295 -0.3525
   12CHL1   H3'  818   5.909   5.318   6.093 -0.0439  1.1266  0.5426
   12CHL1    C4  819   5.757   5.271   5.893  0.2878  0.3167  0.9609
   12CHL1   H4A  820   5.782   5.179   5.950 -0.9631 -0.8180 -0.2351
   12CHL1   H4B  821   5.663   5.314   5.936 -0.8570 -1.0200 -0.1274
   12CHL1    C5  822   5.737   5.232   5.754  0.1237  0.2965  0.2717
   12CHL1    C6  823   5.624   5.249   5.684 -0.0745  0.1310  0.4017
   12CHL1    H6  824   5.545   5.305   5.736  0.6526  1.3039  0.2758
   12CHL1    C7  825   5.601   5.210   5.544 -0.0716 -0.4755  0.1213
   12CHL1   H7A  826   5.506   5.157   5.525  0.4555 -0.3924 -3.3666
   12CHL1   H7B  827   5.599   5.305   5.486  0.4412 -0.6314 -0.1587
   12CHL1    C8  828   5.715   5.124   5.493  0.1485  0.2702  0.2988
   12CHL1    H8  829   5.690   5.023   5.531 -3.2481  0.0132 -2.2425
   12CHL1   C14  830   5.724   5.121   5.344 -0.0279 -0.4281  0.1673
   12CHL1   H14  831   5.751   5.223   5.310 -0.4786  0.5170  2.4659
   12CHL1   C15  832   5.593   5.099   5.282  0.5017  0.6757 -0.4306
   12CHL1  H15A  833   5.524   5.021   5.319 -0.8041  1.9564 -0.0652
   12CHL1  H15B  834   5.537   5.195   5.277 -0.0496  0.5036  1.5890
   12CHL1   C16  835   5.626   5.040   5.138  0.4015  0.0226  0.4356
   12CHL1  H16A  836   5.579   4.942   5.116  1.8619 -0.4765 -0.5802
   12CHL1  H16B  837   5.575   5.106   5.065  1.9092 -0.2514 -0.9204
   12CHL1   C17  838   5.772   5.026   5.134 -0.7263 -0.8705 -0.0628
   12CHL1   H17  839   5.819   5.123   5.108 -1.3601 -1.1051 -2.3868
   12CHL1   C13  840   5.819   5.019   5.280  0.3284  0.4426  0.4306
   12CHL1   C18  841   5.798   4.873   5.329 -0.2618 -0.3169  0.1742
   12CHL1  H18A  842   5.887   4.812   5.302 -1.5819 -2.0205 -0.5338
   12CHL1  H18B  843   5.774   4.860   5.436  0.3169  0.9706  0.4757
   12CHL1  H18C  844   5.720   4.814   5.275  1.2314 -0.9593 -1.3998
   12CHL1   C12  845   5.953   5.074   5.316  0.0703  0.3597  0.0320
   12CHL1  H12A  846   6.041   5.020   5.273  0.7542  1.7033 -0.3167
   12CHL1  H12B  847   5.958   5.175   5.269  0.8010 -0.3032 -1.4096
   12CHL1   C11  848   5.966   5.084   5.467  0.9415 -0.1803  0.3102
   12CHL1  H11A  849   5.982   4.985   5.516 -1.3026 -0.4936  0.5005
   12CHL1  H11B  850   6.062   5.134   5.492  1.7310 -1.5992  0.2639
   12CHL1    C9  851   5.855   5.164   5.540 -0.5764 -0.2600  0.2405
   12CHL1    H9  852   5.860   5.270   5.507 -3.3625  0.2153  1.0826
   12CHL1   C10  853   5.870   5.181   5.696  0.2702  0.0850  0.3746
   12CHL1   C19  854   5.914   5.046   5.751 -0.6581 -0.3429 -0.1206
   12CHL1  H19A  855   6.016   5.018   5.719 -0.7499 -0.7449 -0.0672
   12CHL1  H19B  856   5.884   5.026   5.856 -0.9563  0.6033 -0.0081
   12CHL1  H19C  857   5.848   4.984   5.687 -0.7205 -2.4507  1.8615
   12CHL1    C1  858   5.982   5.292   5.720  0.2843  1.0787  0.0245
   12CHL1   H1A  859   6.078   5.259   5.675 -0.3855  1.2342 -1.5889
   12CHL1   H1B  860   5.942   5.379   5.664 -1.5112  1.9774  2.5292
   12CHL1    C2  861   6.001   5.333   5.873 -0.5018  0.2631  0.9172
   12CHL1   H2A  862   6.082   5.409   5.866  1.4976 -1.8270 -0.0368
   12CHL1   H2B  863   6.030   5.244   5.933  1.0363 -0.4922 -0.8418
   12CHL1   C20  864   5.825   4.923   5.035 -0.4897 -0.1513  0.2475
   12CHL1   H20  865   5.795   4.823   5.072 -0.7180 -0.6435 -1.2090
   12CHL1   C21  866   5.979   4.934   5.028  0.1448  0.4113  0.1179
   12CHL1  H21A  867   6.013   4.888   5.124 -2.3773 -2.2218 -0.1069
   12CHL1  H21B  868   6.015   5.039   5.022  1.7349 -0.0072  1.5051
   12CHL1  H21C  869   6.013   4.872   4.942  1.6376  0.8085  0.3932
   12CHL1   C22  870   5.764   4.938   4.891 -0.2858  0.4985 -0.2142
   12CHL1  H22A  871   5.793   4.846   4.835 -1.9418  0.2417 -0.7101
   12CHL1  H22B  872   5.654   4.925   4.905 -0.0004  0.1590  2.1663
   12CHL1   C23  873   5.810   5.063   4.818 -0.2794  0.1324 -0.6090
   12CHL1  H23A  874   5.786   5.145   4.890 -2.8638 -1.1238  0.0733
   12CHL1  H23B  875   5.918   5.065   4.790  0.2849 -1.1405  1.3079
   12CHL1   C24  876   5.735   5.088   4.687  0.2208 -0.0478 -0.4414
   12CHL1  H24A  877   5.786   5.017   4.620 -1.1948  1.0100 -2.7573
   12CHL1  H24B  878   5.631   5.052   4.706  0.9980 -3.0392 -1.3703
   12CHL1   C25  879   5.742   5.230   4.634 -0.8169  0.1130 -0.1377
   12CHL1   H25  880   5.847   5.260   4.611 -1.1307  0.6659 -0.9111
   12CHL1   C26  881   5.656   5.241   4.498  0.5964  0.1400  0.6305
   12CHL1  H26A  882   5.552   5.212   4.525  0.7999  1.5014  3.2445
   12CHL1  H26B  883   5.647   5.345   4.461 -1.1794 -0.1942  0.0295
   12CHL1  H26C  884   5.696   5.174   4.419  0.1874 -2.5744  2.5739
   12CHL1   C27  885   5.684   5.331   4.733  0.1171 -0.6023  0.2708
   12CHL1  H27A  886   5.582   5.307   4.769 -0.0898  1.2068  0.9911
   12CHL1  H27B  887   5.754   5.334   4.819 -1.2827  0.2764  1.4185
   12CHL1  H27C  888   5.679   5.431   4.686 -0.2586 -0.4616  0.6049
   13CHL1    C3  889   5.651   1.581   6.098 -0.0914 -0.0551 -0.3756
   13CHL1    H3  890   5.744   1.526   6.124  1.2670  2.5137  0.5460
   13CHL1    O3  891   5.588   1.633   6.209  0.7200  0.0440  0.5768
   13CHL1   H3'  892   5.514   1.684   6.176  2.0166  1.6835  0.0726
   13CHL1    C4  893   5.690   1.699   6.004  0.0711 -0.6914 -0.3545
   13CHL1   H4A  894   5.613   1.779   6.009  2.0535  1.3354 -0.3959
   13CHL1   H4B  895   5.773   1.752   6.057 -0.7163  0.5777 -0.3404
   13CHL1    C5  896   5.729   1.651   5.867 -0.0648  0.3682 -0.2185
   13CHL1    C6  897   5.855   1.676   5.818 -0.5199 -0.0409  0.9545
   13CHL1    H6  898   5.920   1.734   5.885  0.7958 -0.4153  0.0441
   13CHL1    C7  899   5.912   1.631   5.680 -0.3207  0.2538 -0.4001
   13CHL1   H7A  900   5.982   1.707   5.638  1.1800 -0.9134 -0.1008
   13CHL1   H7B  901   5.984   1.547   5.683 -0.9856 -0.4985 -2.8186
   13CHL1    C8  902   5.780   1.611   5.593  0.1068 -0.6143 -0.2116
   13CHL1    H8  903   5.739   1.711   5.570  0.8270 -0.3620 -0.4154
   13CHL1   C14  904   5.823   1.552   5.462 -0.8504  0.2774  0.2191
   13CHL1   H14  905   5.877   1.457   5.481 -0.7120  0.1347 -0.8686
   13CHL1   C15  906   5.934   1.631   5.380  0.7311  0.3283  0.8605
   13CHL1  H15A  907   5.904   1.737   5.383  0.1756  0.2110 -0.1723
   13CHL1  H15B  908   6.035   1.623   5.427  1.0565  0.7609  0.2433
   13CHL1   C16  909   5.920   1.574   5.235  0.0045  0.5242  0.0073
   13CHL1  H16A  910   5.907   1.661   5.167 -0.2319 -0.0298 -0.6630
   13CHL1  H16B  911   6.009   1.527   5.189  0.0615  2.4341 -1.9950
   13CHL1   C17  912   5.792   1.492   5.228 -0.1791 -0.2233 -0.0648
   13CHL1   H17  913   5.836   1.394   5.258 -0.8055 -0.2440  0.8466
   13CHL1   C13  914   5.715   1.532   5.359  0.5790 -0.3435 -0.8761
   13CHL1   C18  915   5.621   1.653   5.335 -0.3533 -0.1947  0.2736
   13CHL1  H18A  916   5.594   1.697   5.433 -0.0993  0.3373  0.1077
   13CHL1  H18B  917   5.667   1.737   5.280 -2.6719  1.7410  1.0942
   13CHL1  H18C  918   5.529   1.624   5.279  0.8970 -1.1025 -1.4059
   13CHL1   C12  919   5.631   1.419   5.422 -1.1363  0.3435 -0.1551
   13CHL1  H12A  920   5.550   1.383   5.355 -0.3353 -0.3568 -0.7740
   13CHL1  H12B  921   5.700   1.332   5.435  0.2785  1.4706  0.1298
   13CHL1   C11  922   5.577   1.457   5.561  0.3100 -0.2999 -0.6556
   13CHL1  H11A  923   5.484   1.514   5.545  1.6272  1.5841 -1.9742
   13CHL1  H11B  924   5.536   1.366   5.611  0.0351  0.4640  0.5692
   13CHL1    C9  925   5.681   1.515   5.654  0.3894 -0.1446 -0.9384
   13CHL1    H9  926   5.747   1.428   5.678  0.6441  0.2118 -0.3295
   13CHL1   C10  927   5.627   1.565   5.795  0.6614 -0.4010  0.3362
   13CHL1   C19  928   5.503   1.650   5.768  0.4682  0.2462  0.4182
   13CHL1  H19A  929   5.411   1.589   5.750 -0.1460  1.3538 -0.2649
   13CHL1  H19B  930   5.486   1.711   5.859  1.9732  1.0458  0.1997
   13CHL1  H19C  931   5.520   1.713   5.679  0.4552 -0.5050 -0.1296
   13CHL1    C1  932   5.601   1.443   5.881  0.0369  0.2672  0.1028
   13CHL1   H1A  933   5.527   1.370   5.841  0.4051  1.2147 -2.4879
   13CHL1   H1B  934   5.689   1.378   5.899 -1.6852 -1.8211  1.3953
   13CHL1    C2  935   5.552   1.479   6.025  0.2128  0.6102  0.4299
   13CHL1   H2A  936   5.529   1.381   6.072 -3.6758  1.1645 -0.0030
   13CHL1   H2B  937   5.459   1.539   6.013  0.1446  0.4119 -0.0561
   13CHL1   C20  938   5.720   1.487   5.093 -0.1047  0.7017  0.2068
   13CHL1   H20  939   5.683   1.590   5.073 -1.5966  0.0100 -0.8406
   13CHL1   C21  940   5.596   1.394   5.095 -0.0148  0.3154 -0.1213
   13CHL1  H21A  941   5.510   1.433   5.153 -0.3252 -4.1625  2.9283
   13CHL1  H21B  942   5.607   1.297   5.148 -2.8098 -0.5158 -0.8786
   13CHL1  H21C  943   5.571   1.358   4.993  1.8636 -1.8343  0.0975
   13CHL1   C22  944   5.815   1.452   4.979 -0.5813  0.5601  0.7242
   13CHL1  H22A  945   5.916   1.492   4.999 -0.4390  0.2380  0.6531
   13CHL1  H22B  946   5.829   1.342   4.978 -2.5969  0.2516  0.0953
   13CHL1   C23  947   5.777   1.504   4.843  0.4919 -0.2740  0.4297
   13CHL1  H23A  948   5.686   1.450   4.808  1.6578 -0.0461 -3.4428
   13CHL1  H23B  949   5.770   1.615   4.838 -0.9999 -0.3813 -2.0346
   13CHL1   C24  950   5.881   1.472   4.729 -0.2972 -0.2771  0.5707
   13CHL1  H24A  951   5.959   1.550   4.740 -0.2072  0.1257 -2.2381
   13CHL1  H24B  952   5.911   1.367   4.750  0.7956  0.3282  2.1819
   13CHL1   C25  953   5.818   1.501   4.593  0.8245 -0.0939  0.8086
   13CHL1   H25  954   5.798   1.610   4.582 -0.4886 -0.5113 -1.9695
   13CHL1   C26  955   5.910   1.483   4.480  0.2095 -0.3492 -0.3420
   13CHL1  H26A  956   5.956   1.382   4.487 -1.9026 -1.3105  0.4179
   13CHL1  H26B  957   5.858   1.485   4.381 -0.7409  1.1126  0.1540
   13CHL1  H26C  958   5.993   1.556   4.487  3.0919 -3.4605  0.6065
   13CHL1   C27  959   5.694   1.414   4.559  0.0502  0.0224  0.0333
   13CHL1  H27A  960   5.718   1.306   4.542  0.0285  0.0953 -0.4792
   13CHL1  H27B  961   5.618   1.426   4.639  0.6398  4.1838  0.1685
   13CHL1  H27C  962   5.638   1.444   4.467 -0.3505 -0.0683  0.2445
   14CHL1    C3  963   3.481   6.494   5.890 -0.6709 -0.0718  0.2392
   14CHL1    H3  964   3.503   6.596   5.852  1.3683 -0.7504 -0.5196
   14CHL1    O3  965   3.501   6.478   6.029 -0.6450 -0.0723 -0.0676
   14CHL1   H3'  966   3.451   6.400   6.054  0.4373 -1.1111 -1.0044
   14CHL1    C4  967   3.339   6.458   5.850 -0.1722 -0.2462 -0.1329
   14CHL1   H4A  968   3.315   6.358   5.891  1.1029 -0.5681 -0.1391
   14CHL1   H4B  969   3.273   6.531   5.902 -1.2325 -0.4323 -1.1605
   14CHL1    C5  970   3.310   6.452   5.698  0.2015 -0.5043 -0.2535
   14CHL1    C6  971   3.209   6.515   5.640  0.0028 -1.0176 -0.2473
   14CHL1    H6  972   3.141   6.578   5.700  0.0325 -0.4986 -0.7566
   14CHL1    C7  973   3.176   6.499   5.496  0.4723 -0.0204  0.4217
   14CHL1   H7A  974   3.074   6.457   5.479 -0.5786  2.4790  0.0449
   14CHL1   H7B  975   3.189   6.596   5.444  0.3486 -0.4827 -0.4819
   14CHL1    C8  976   3.261   6.399   5.416  0.1468 -0.6708  0.3801
   14CHL1    H8  977   3.225   6.297   5.440 -0.6737 -0.5488 -0.2961
   14CHL1   C14  978   3.255   6.415   5.264  0.1995  0.4197 -0.1321
   14CHL1   H14  979   3.293   6.518   5.244  0.3081  0.7358  1.5788
   14CHL1   C15  980   3.118   6.410   5.194  0.8042 -0.6753  0.9421
   14CHL1  H15A  981   3.042   6.350   5.249  0.3347  0.0936  1.1512
   14CHL1  H15B  982   3.079   6.514   5.194 -0.3816 -1.0981  0.2199
   14CHL1   C16  983   3.151   6.376   5.050 -0.0076 -0.1440 -0.8020
   14CHL1  H16A  984   3.098   6.280   5.027 -0.2355 -0.7633  2.0145
   14CHL1  H16B  985   3.126   6.456   4.978 -2.5765  1.0608  1.2681
   14CHL1   C17  986   3.303   6.342   5.039  0.7397 -0.8902  0.0104
   14CHL1   H17  987   3.358   6.438   5.025  0.2837 -0.4238  1.2573
   14CHL1   C13  988   3.346   6.312   5.188 -0.6307  0.7560  0.2439
   14CHL1   C18  989   3.318   6.160   5.203 -0.8181 -0.0425 -0.5443
   14CHL1  H18A  990   3.215   6.137   5.171 -1.4749 -0.1413  1.4981
   14CHL1  H18B  991   3.391   6.101   5.143  0.6561  1.4783 -0.3205
   14CHL1  H18C  992   3.339   6.120   5.305 -1.4839 -0.0315 -0.4030
   14CHL1   C12  993   3.496   6.337   5.221  0.3756 -0.6276 -0.7034
   14CHL1  H12A  994   3.559   6.258   5.176 -0.6259 -1.5068 -0.6174
   14CHL1  H12B  995   3.518   6.435   5.172 -0.1006 -0.4154 -0.4992
   14CHL1   C11  996   3.514   6.323   5.375  0.5565  0.1129  0.4560
   14CHL1  H11A  997   3.490   6.217   5.400 -2.0772  0.3368 -0.7871
   14CHL1  H11B  998   3.620   6.351   5.398  0.8280  0.0966 -0.7470
   14CHL1    C9  999   3.408   6.405   5.465  0.0180 -0.1914 -0.1584
   14CHL1    H9 1000   3.441   6.508   5.440 -0.7334 -0.3660 -2.0262
   14CHL1   C10 1001   3.420   6.378   5.618 -0.6221  0.0550  0.8394
   14CHL1   C19 1002   3.399   6.227   5.640  0.1158 -0.1913  0.1525
   14CHL1  H19A 1003   3.306   6.184   5.597 -0.1372  0.5694 -0.0743
   14CHL1  H19B 1004   3.495   6.177   5.613  1.4974  2.4521 -0.1267
   14CHL1  H19C 1005   3.397   6.205   5.749  0.5879  1.1968  0.4558
   14CHL1    C1 1006   3.568   6.402   5.660  0.0821  0.2068 -0.3294
   14CHL1   H1A 1007   3.631   6.322   5.615  0.8300  1.9566 -2.6119
   14CHL1   H1B 1008   3.604   6.499   5.619 -2.7652  1.4708 -0.1099
   14CHL1    C2 1009   3.578   6.407   5.813 -0.6587 -0.3661  0.0315
   14CHL1   H2A 1010   3.683   6.443   5.827 -1.4177  1.0983  2.5290
   14CHL1   H2B 1011   3.587   6.304   5.853 -1.3422 -0.1660  0.7184
   14CHL1   C20 1012   3.353   6.250   4.927  0.2639  0.2936  0.2759
   14CHL1   H20 1013   3.324   6.147   4.956 -2.6536  1.0778  0.4682
   14CHL1   C21 1014   3.508   6.243   4.896  0.4691  0.9601 -0.7442
   14CHL1  H21A 1015   3.543   6.159   4.960 -1.7507 -1.2741 -2.2596
   14CHL1  H21B 1016   3.559   6.338   4.921  1.0900  0.6738 -0.9012
   14CHL1  H21C 1017   3.541   6.208   4.796  0.5317 -1.1892 -0.0184
   14CHL1   C22 1018   3.276   6.279   4.791 -0.4858 -0.3343 -0.2209
   14CHL1  H22A 1019   3.166   6.296   4.801 -0.3780  0.6234 -0.5561
   14CHL1  H22B 1020   3.308   6.376   4.747  0.2270 -1.2501 -1.8489
   14CHL1   C23 1021   3.296   6.167   4.685 -1.5168 -0.8331  0.2116
   14CHL1  H23A 1022   3.402   6.160   4.652 -1.6045 -1.7577  0.0979
   14CHL1  H23B 1023   3.260   6.075   4.736 -1.2322 -2.0632 -1.6888
   14CHL1   C24 1024   3.230   6.186   4.550  0.2101  0.7441  0.3801
   14CHL1  H24A 1025   3.120   6.169   4.558 -0.0782  2.0304 -0.5172
   14CHL1  H24B 1026   3.239   6.294   4.526 -0.4146  0.8944  0.7792
   14CHL1   C25 1027   3.288   6.105   4.437 -0.4227 -0.7852  0.6259
   14CHL1   H25 1028   3.398   6.116   4.419 -0.5778  1.2629  0.7009
   14CHL1   C26 1029   3.271   5.959   4.460  0.2722  0.1358  0.0692
   14CHL1  H26A 1030   3.164   5.933   4.473  0.3577 -0.0066  0.5179
   14CHL1  H26B 1031   3.303   5.912   4.365 -0.4372  0.1587 -0.1833
   14CHL1  H26C 1032   3.329   5.925   4.549  2.4084 -2.9376 -2.2857
   14CHL1   C27 1033   3.220   6.133   4.300 -0.8473  0.9011 -0.6087
   14CHL1  H27A 1034   3.116   6.100   4.324  0.2934 -1.6789  1.1778
   14CHL1  H27B 1035   3.221   6.241   4.273 -2.8821  1.4014  1.0114
   14CHL1  H27C 1036   3.276   6.067   4.230 -0.6823 -0.2143  0.5418
   15CHL1    C3 1037   4.047   1.275   5.942  0.4142  0.2866 -0.0298
   15CHL1    H3 1038   4.158   1.277   5.942  0.4335  3.3427  0.3620
   15CHL1    O3 1039   3.997   1.322   6.076  0.3183 -0.2426  0.4573
   15CHL1   H3' 1040   3.902   1.315   6.067  0.5145 -0.0782 -3.4437
   15CHL1    C4 1041   4.016   1.367   5.835  0.3817 -0.0562 -0.3168
   15CHL1   H4A 1042   3.910   1.399   5.842  0.1705 -0.2875 -2.0524
   15CHL1   H4B 1043   4.060   1.464   5.868  0.2756 -0.4227  0.9640
   15CHL1    C5 1044   4.044   1.316   5.697 -0.1701 -0.1333 -0.3122
   15CHL1    C6 1045   4.115   1.397   5.608  0.2726 -0.4167  0.0213
   15CHL1    H6 1046   4.155   1.492   5.646 -0.6876  0.1321 -0.3108
   15CHL1    C7 1047   4.153   1.354   5.468 -0.8242  0.0339 -0.4036
   15CHL1   H7A 1048   4.129   1.427   5.388  0.7637  2.2348  0.9780
   15CHL1   H7B 1049   4.261   1.328   5.461 -0.2824  2.4220 -2.1997
   15CHL1    C8 1050   4.075   1.232   5.424  0.5203 -0.0622  0.1107
   15CHL1    H8 1051   3.973   1.261   5.389  0.7892  0.2434 -0.4383
   15CHL1   C14 1052   4.141   1.169   5.304 -0.1536 -0.4077  0.4908
   15CHL1   H14 1053   4.243   1.140   5.339  1.0652  1.3562 -1.3412
   15CHL1   C15 1054   4.163   1.258   5.179 -0.7318 -0.1364 -0.2724
   15CHL1  H15A 1055   4.063   1.302   5.159 -0.6029 -0.7286 -2.5621
   15CHL1  H15B 1056   4.231   1.345   5.187 -0.0615 -0.7648  1.2748
   15CHL1   C16 1057   4.213   1.166   5.060  0.3858 -0.0304 -0.5805
   15CHL1  H16A 1058   4.169   1.201   4.965 -2.2383  1.1507  0.9486
   15CHL1  H16B 1059   4.323   1.184   5.064  0.0656  2.0482  1.0412
   15CHL1   C17 1060   4.178   1.024   5.114  0.1294 -0.0552 -0.2898
   15CHL1   H17 1061   4.274   0.977   5.146 -0.5243 -1.3048 -0.0981
   15CHL1   C13 1062   4.084   1.048   5.244  0.9382  1.5414  0.1132
   15CHL1   C18 1063   3.943   1.070   5.187 -0.0790 -0.3918 -0.4881
   15CHL1  H18A 1064   3.880   1.120   5.264  0.6259 -2.7794  1.7945
   15CHL1  H18B 1065   3.941   1.120   5.088  1.8686 -1.0132 -0.8914
   15CHL1  H18C 1066   3.886   0.978   5.162 -1.4345  0.6228 -1.2869
   15CHL1   C12 1067   4.080   0.938   5.350 -0.9169 -0.0063 -0.6330
   15CHL1  H12A 1068   4.012   0.857   5.316 -1.5504  0.2153  0.0844
   15CHL1  H12B 1069   4.187   0.917   5.374 -0.1667  3.6621 -0.1706
   15CHL1   C11 1070   4.005   0.990   5.480 -0.7378  0.1818  0.1475
   15CHL1  H11A 1071   3.901   1.002   5.445 -0.0457 -1.1542 -2.6420
   15CHL1  H11B 1072   4.000   0.907   5.554 -0.0600  0.6550  0.7312
   15CHL1    C9 1073   4.073   1.126   5.535  0.3160 -0.0203 -0.4937
   15CHL1    H9 1074   4.176   1.100   5.566  0.1657 -0.0151  0.0154
   15CHL1   C10 1075   4.000   1.173   5.659 -0.6320 -0.6469  0.0367
   15CHL1   C19 1076   3.852   1.196   5.628  0.0204  0.3318  0.1967
   15CHL1  H19A 1077   3.803   1.099   5.604  2.5733 -0.9934  0.0081
   15CHL1  H19B 1078   3.799   1.234   5.718 -0.1141  1.5974 -0.3980
   15CHL1  H19C 1079   3.836   1.271   5.547  2.3269  1.0776  0.3700
   15CHL1    C1 1080   4.028   1.082   5.777  0.3567  0.3016 -0.5185
   15CHL1   H1A 1081   3.982   0.981   5.785  0.5825  0.3128  1.3301
   15CHL1   H1B 1082   4.137   1.063   5.780  0.3535  0.3574  0.0548
   15CHL1    C2 1083   3.987   1.138   5.916  0.2559  0.1290 -0.9433
   15CHL1   H2A 1084   4.018   1.072   6.000  2.7202  1.0668 -1.0263
   15CHL1   H2B 1085   3.876   1.137   5.906  0.1900 -0.0717 -0.2803
   15CHL1   C20 1086   4.125   0.931   5.007  0.0229 -0.2177  0.2054
   15CHL1   H20 1087   4.017   0.948   4.985 -0.2983 -0.3634  1.5716
   15CHL1   C21 1088   4.141   0.781   5.045 -0.6713 -0.2352 -0.4367
   15CHL1  H21A 1089   4.082   0.722   4.972  0.9515  0.0099 -2.0306
   15CHL1  H21B 1090   4.116   0.754   5.150  1.9935 -1.1376  0.0561
   15CHL1  H21C 1091   4.245   0.742   5.035 -0.8922 -1.6068  1.7614
   15CHL1   C22 1092   4.192   0.946   4.866  0.1775 -0.2468 -0.0921
   15CHL1  H22A 1093   4.163   0.868   4.793 -1.2449  0.2388 -0.0701
   15CHL1  H22B 1094   4.162   1.039   4.813 -0.6382 -0.0051  0.7603
   15CHL1   C23 1095   4.349   0.919   4.869  0.0692 -0.2887  0.5912
   15CHL1  H23A 1096   4.381   0.949   4.971  1.5045  2.0171 -0.4522
   15CHL1  H23B 1097   4.343   0.808   4.858 -3.1746 -0.0773 -0.9497
   15CHL1   C24 1098   4.422   0.977   4.752  0.1188 -0.3231  0.9734
   15CHL1  H24A 1099   4.387   0.948   4.650 -1.4754  1.7133  0.8784
   15CHL1  H24B 1100   4.396   1.085   4.758  0.1672 -0.2001 -0.6603
   15CHL1   C25 1101   4.572   0.955   4.751 -0.1003  0.4151  0.8469
   15CHL1   H25 1102   4.581   0.844   4.756 -0.3251  0.3556  0.0350
   15CHL1   C26 1103   4.637   1.009   4.623  0.2323 -0.4578  0.0643
   15CHL1  H26A 1104   4.621   1.119   4.620 -1.7475 -0.7010  0.3499
   15CHL1  H26B 1105   4.746   0.987   4.616  0.9629  2.2608  1.4599
   15CHL1  H26C 1106   4.582   0.978   4.533 -2.0487  2.1471  0.4293
   15CHL1   C27 1107   4.646   1.010   4.868 -0.4521  0.0599  0.2953
   15CHL1  H27A 1108   4.635   1.121   4.872 -1.1052 -0.0380  2.4341
   15CHL1  H27B 1109   4.609   0.964   4.961  0.7485 -1.9452 -0.1710
   15CHL1  H27C 1110   4.753   0.981   4.867 -0.4173  0.1780 -0.9395
   16CHL1    C3 1111   3.801   0.712   6.120  0.2404 -0.1333  0.3967
   16CHL1    H3 1112   3.711   0.772   6.095  0.8545  1.5262  1.9143
   16CHL1    O3 1113   3.808   0.721   6.259  0.0051 -0.1180  0.4750
   16CHL1   H3' 1114   3.733   0.669   6.288 -0.9138  0.8233 -0.1357
   16CHL1    C4 1115   3.787   0.560   6.084 -0.5385 -0.2316  0.0903
   16CHL1   H4A 1116   3.876   0.511   6.130 -1.1642  0.6214  2.3804
   16CHL1   H4B 1117   3.698   0.526   6.142 -0.7703  1.7389  0.9794
   16CHL1    C5 1118   3.771   0.540   5.937 -0.4685 -0.0624  0.0069
   16CHL1    C6 1119   3.663   0.482   5.883 -1.1290  0.7645  0.2196
   16CHL1    H6 1120   3.588   0.440   5.952 -0.4147 -0.2947  0.3711
   16CHL1    C7 1121   3.650   0.453   5.735  0.3319 -0.6623 -0.1854
   16CHL1   H7A 1122   3.611   0.352   5.715 -1.8525  0.0786  0.0863
   16CHL1   H7B 1123   3.570   0.524   5.705 -1.5747 -2.5571  0.2077
   16CHL1    C8 1124   3.777   0.476   5.651 -0.2532  0.1568 -0.1191
   16CHL1    H8 1125   3.842   0.387   5.662 -1.7268 -0.6937  2.3546
   16CHL1   C14 1126   3.744   0.495   5.504  0.0807  0.6022  0.5584
   16CHL1   H14 1127   3.692   0.593   5.498  2.2747  1.7607 -0.9640
   16CHL1   C15 1128   3.641   0.397   5.438 -0.3554  0.0979 -0.4585
   16CHL1  H15A 1129   3.657   0.292   5.471  0.8896  0.4793  0.2367
   16CHL1  H15B 1130   3.540   0.428   5.471 -0.2914 -0.2625  0.0940
   16CHL1   C16 1131   3.674   0.405   5.290 -0.2461  0.1723  0.4441
   16CHL1  H16A 1132   3.708   0.308   5.249 -1.8560 -0.1667 -0.1567
   16CHL1  H16B 1133   3.587   0.443   5.234 -0.1716 -0.7734 -0.3296
   16CHL1   C17 1134   3.785   0.512   5.284 -1.1049 -0.5274 -0.5120
   16CHL1   H17 1135   3.728   0.607   5.297 -1.1234 -0.4962 -0.8149
   16CHL1   C13 1136   3.865   0.505   5.412 -0.2419  0.0680 -0.8377
   16CHL1   C18 1137   3.955   0.384   5.401  0.8737 -0.4042 -0.1615
   16CHL1  H18A 1138   4.031   0.404   5.323  1.2156 -1.0459  0.0022
   16CHL1  H18B 1139   4.002   0.357   5.498 -1.4044  0.2195  1.2081
   16CHL1  H18C 1140   3.903   0.291   5.372  1.3678 -0.8683  0.4087
   16CHL1   C12 1141   3.945   0.625   5.454 -0.6704 -0.1025  0.0427
   16CHL1  H12A 1142   4.035   0.635   5.390 -0.2566  2.7250  0.9415
   16CHL1  H12B 1143   3.889   0.721   5.450  0.5110  0.7017  1.7663
   16CHL1   C11 1144   3.978   0.621   5.611  0.2394  0.1507 -0.0379
   16CHL1  H11A 1145   4.056   0.542   5.623  0.3488  0.3620  0.6665
   16CHL1  H11B 1146   4.021   0.720   5.638 -2.8043  2.3763 -2.5648
   16CHL1    C9 1147   3.858   0.592   5.696  0.1161  0.2667  0.4121
   16CHL1    H9 1148   3.802   0.686   5.677  0.8004  0.5705 -0.1317
   16CHL1   C10 1149   3.888   0.604   5.851  0.1956  0.0070 -0.6240
   16CHL1   C19 1150   4.012   0.516   5.893  0.1138 -0.4883 -0.4827
   16CHL1  H19A 1151   3.987   0.407   5.889  2.0279 -1.0624  1.4743
   16CHL1  H19B 1152   4.103   0.540   5.834 -0.0785 -1.3225 -1.1404
   16CHL1  H19C 1153   4.033   0.541   5.999  0.4651 -1.6384 -0.2585
   16CHL1    C1 1154   3.925   0.749   5.900 -0.1147  0.1468 -0.1985
   16CHL1   H1A 1155   4.024   0.773   5.857  0.3065 -1.0260  0.0721
   16CHL1   H1B 1156   3.847   0.812   5.854 -1.8937 -0.3669  1.9333
   16CHL1    C2 1157   3.928   0.768   6.056  0.7970 -0.0704  0.1324
   16CHL1   H2A 1158   3.945   0.874   6.086 -0.6045 -0.4795  2.6005
   16CHL1   H2B 1159   4.012   0.721   6.111  0.1582 -1.2931  0.0941
   16CHL1   C20 1160   3.861   0.533   5.152  0.4048  0.4153  0.0434
   16CHL1   H20 1161   3.953   0.591   5.175  0.1788  0.5163  0.7169
   16CHL1   C21 1162   3.778   0.632   5.073  0.7547  0.2754  0.4439
   16CHL1  H21A 1163   3.770   0.730   5.125 -1.3368  0.9967 -1.1047
   16CHL1  H21B 1164   3.679   0.583   5.057  1.5086 -1.5873  1.2530
   16CHL1  H21C 1165   3.822   0.654   4.974 -2.6957  2.3032 -0.8108
   16CHL1   C22 1166   3.894   0.408   5.068  0.8064 -0.2929 -0.4452
   16CHL1  H22A 1167   3.923   0.318   5.126 -0.6714 -0.5556 -0.0729
   16CHL1  H22B 1168   3.804   0.376   5.012  1.4419  0.5121 -2.0016
   16CHL1   C23 1169   4.001   0.436   4.960 -0.4959  0.5500 -0.7897
   16CHL1  H23A 1170   3.962   0.534   4.924 -0.0475  1.3329  0.7541
   16CHL1  H23B 1171   4.099   0.462   5.006 -1.4580 -0.0797  1.7845
   16CHL1   C24 1172   3.997   0.332   4.847 -0.6650  0.2608 -0.2207
   16CHL1  H24A 1173   4.057   0.246   4.884 -1.9579 -0.1464  1.0135
   16CHL1  H24B 1174   3.899   0.287   4.818 -1.0311 -0.0319  1.3796
   16CHL1   C25 1175   4.065   0.377   4.708  0.7372  0.4293  0.0041
   16CHL1   H25 1176   4.145   0.447   4.740 -1.0741  3.6540 -2.0188
   16CHL1   C26 1177   4.121   0.249   4.632 -0.1781 -0.7291 -0.5230
   16CHL1  H26A 1178   4.042   0.170   4.630  0.6364 -1.6378  1.1168
   16CHL1  H26B 1179   4.161   0.279   4.533  1.7252 -0.9415  0.1369
   16CHL1  H26C 1180   4.207   0.220   4.696  1.0744  0.9086 -1.4116
   16CHL1   C27 1181   3.975   0.462   4.620 -0.2793 -0.2195  0.7238
   16CHL1  H27A 1182   3.926   0.545   4.674 -1.7984 -0.2182 -0.5759
   16CHL1  H27B 1183   4.033   0.502   4.534 -1.1052 -0.1405  0.1845
   16CHL1  H27C 1184   3.891   0.411   4.567  1.3472 -1.0321 -1.1988
   17CHL1    C3 1185   5.311   2.290   6.182  0.4859  0.0168 -0.5627
   17CHL1    H3 1186   5.260   2.382   6.146  0.5822  0.1920 -0.2543
   17CHL1    O3 1187   5.288   2.282   6.324  0.3314  0.4855  0.5344
   17CHL1   H3' 1188   5.199   2.251   6.343  0.3713  0.7610  1.2109
   17CHL1    C4 1189   5.250   2.164   6.116  0.3089 -0.0013 -0.1034
   17CHL1   H4A 1190   5.302   2.075   6.157  0.5752 -0.9371 -2.3801
   17CHL1   H4B 1191   5.148   2.156   6.159  0.0921 -2.9317 -0.9349
   17CHL1    C5 1192   5.263   2.165   5.968 -0.0490 -0.3868  0.1703
   17CHL1    C6 1193   5.162   2.158   5.891  0.8452 -0.1131  0.2033
   17CHL1    H6 1194   5.060   2.143   5.929  0.1767 -0.8063 -1.7171
   17CHL1    C7 1195   5.170   2.140   5.745 -0.2023  0.7870  0.2195
   17CHL1   H7A 1196   5.105   2.059   5.704 -1.6209  1.8720  0.2662
   17CHL1   H7B 1197   5.124   2.229   5.696 -2.2964  1.2719  2.8739
   17CHL1    C8 1198   5.320   2.114   5.690  0.0134  0.0230 -0.1325
   17CHL1    H8 1199   5.345   2.008   5.708 -0.9290 -0.2706 -0.4794
   17CHL1   C14 1200   5.327   2.150   5.541  0.3012  0.0752  0.1273
   17CHL1   H14 1201   5.297   2.257   5.533 -0.8237 -0.3064 -1.2428
   17CHL1   C15 1202   5.227   2.079   5.445 -0.6823 -0.0136  0.2280
   17CHL1  H15A 1203   5.208   1.974   5.476 -0.7813  0.0817  0.4885
   17CHL1  H15B 1204   5.138   2.144   5.455  0.4206  1.5777  0.1258
   17CHL1   C16 1205   5.282   2.099   5.305  0.0860 -0.0847 -0.4716
   17CHL1  H16A 1206   5.293   1.997   5.264 -0.3574 -0.3113 -0.0358
   17CHL1  H16B 1207   5.214   2.162   5.243  0.5732  1.5549  0.5827
   17CHL1   C17 1208   5.427   2.156   5.326 -0.1165 -0.1412 -0.8290
   17CHL1   H17 1209   5.419   2.266   5.314 -2.0750 -0.1746 -0.1402
   17CHL1   C13 1210   5.463   2.128   5.474  0.7829  0.7632  0.1826
   17CHL1   C18 1211   5.510   1.975   5.495 -0.1939 -0.1441 -0.0014
   17CHL1  H18A 1212   5.498   1.944   5.601  1.6954 -3.5781 -0.6664
   17CHL1  H18B 1213   5.447   1.912   5.430 -0.7874  1.9857 -1.6068
   17CHL1  H18C 1214   5.617   1.952   5.477  0.2511  1.2492  0.6516
   17CHL1   C12 1215   5.558   2.229   5.552  0.1090 -0.2170  0.9789
   17CHL1  H12A 1216   5.663   2.227   5.516 -0.2748 -0.4476 -0.1515
   17CHL1  H12B 1217   5.522   2.333   5.536  2.0954  0.5791  1.3842
   17CHL1   C11 1218   5.559   2.200   5.697 -0.1724 -0.0960 -0.9619
   17CHL1  H11A 1219   5.610   2.105   5.724  2.3938  1.6872  0.9953
   17CHL1  H11B 1220   5.611   2.284   5.747 -0.3093 -0.6742  0.1819
   17CHL1    C9 1221   5.419   2.196   5.768  0.2473  0.4553  0.0955
   17CHL1    H9 1222   5.377   2.295   5.742 -0.9119  0.5173  1.9842
   17CHL1   C10 1223   5.409   2.172   5.920  0.0020 -0.5047 -1.0621
   17CHL1   C19 1224   5.468   2.032   5.957  0.6368 -0.7040  0.1135
   17CHL1  H19A 1225   5.572   2.021   5.919 -0.0902 -0.2538 -2.1461
   17CHL1  H19B 1226   5.472   2.019   6.068 -3.1166  2.1952  0.7863
   17CHL1  H19C 1227   5.398   1.956   5.917 -1.4193  0.3497  1.5413
   17CHL1    C1 1228   5.490   2.289   5.989  0.3566 -0.3492 -0.0236
   17CHL1   H1A 1229   5.601   2.293   5.975  0.1776  0.6289 -1.4305
   17CHL1   H1B 1230   5.450   2.383   5.944  1.6328  0.2874  0.1250
   17CHL1    C2 1231   5.461   2.302   6.140 -0.4122  0.3693 -0.0342
   17CHL1   H2A 1232   5.504   2.394   6.185 -0.4518  0.2474  0.2577
   17CHL1   H2B 1233   5.506   2.204   6.168  0.7467  0.3851 -1.7211
   17CHL1   C20 1234   5.522   2.108   5.214 -1.0717 -0.6410  0.3256
   17CHL1   H20 1235   5.528   1.998   5.233 -1.2690 -0.8328 -0.6681
   17CHL1   C21 1236   5.665   2.167   5.226 -0.4914 -0.1082  0.0474
   17CHL1  H21A 1237   5.661   2.278   5.228 -0.2790 -0.0982  2.2709
   17CHL1  H21B 1238   5.725   2.126   5.143  0.6621 -0.2696  0.9417
   17CHL1  H21C 1239   5.722   2.147   5.319 -0.0912  1.6969  0.2382
   17CHL1   C22 1240   5.467   2.131   5.073 -0.2287 -0.3447 -0.4311
   17CHL1  H22A 1241   5.361   2.098   5.073 -1.0672  2.1447 -0.5316
   17CHL1  H22B 1242   5.452   2.241   5.066 -2.3980 -0.4905  0.7703
   17CHL1   C23 1243   5.548   2.065   4.958 -0.0267  0.3566 -0.0813
   17CHL1  H23A 1244   5.533   2.126   4.866  1.8905 -0.8238 -1.2523
   17CHL1  H23B 1245   5.656   2.050   4.978 -0.1279  0.5712  0.6428
   17CHL1   C24 1246   5.492   1.916   4.943  0.1604  0.2037 -0.1233
   17CHL1  H24A 1247   5.527   1.858   5.031  0.6268  0.2156 -0.3011
   17CHL1  H24B 1248   5.382   1.928   4.953  0.1736  0.4359 -0.2521
   17CHL1   C25 1249   5.540   1.849   4.814 -0.3744 -0.3271 -0.1573
   17CHL1   H25 1250   5.500   1.916   4.734  2.5276  2.9920  0.9643
   17CHL1   C26 1251   5.692   1.856   4.784  0.1184 -0.2486  0.3893
   17CHL1  H26A 1252   5.717   1.824   4.680  1.5191  1.1278  0.2492
   17CHL1  H26B 1253   5.722   1.963   4.781 -0.5818 -0.0077  1.5397
   17CHL1  H26C 1254   5.758   1.810   4.861  0.7575 -1.2507 -0.7275
   17CHL1   C27 1255   5.482   1.703   4.812 -0.5001  0.6900  0.3617
   17CHL1  H27A 1256   5.556   1.636   4.763 -3.0007 -1.1540 -1.1862
   17CHL1  H27B 1257   5.498   1.670   4.916  0.6867 -0.3967 -0.1343
   17CHL1  H27C 1258   5.380   1.690   4.769 -0.7355 -0.3619  1.2028
   18CHL1    C3 1259   4.585   6.204   6.123 -0.7758  0.0527  0.1939
   18CHL1    H3 1260   4.532   6.298   6.095 -0.2215 -0.2529 -2.1131
   18CHL1    O3 1261   4.629   6.216   6.262 -0.1343 -0.1866  0.1532
   18CHL1   H3' 1262   4.557   6.230   6.324 -2.0625 -0.7494 -1.8282
   18CHL1    C4 1263   4.496   6.085   6.104  0.4520 -0.8256 -0.3010
   18CHL1   H4A 1264   4.550   5.991   6.129 -0.2073 -0.9171  0.8333
   18CHL1   H4B 1265   4.412   6.104   6.174  1.5786  0.8180  0.6609
   18CHL1    C5 1266   4.456   6.070   5.963  0.5378 -0.4136  0.1596
   18CHL1    C6 1267   4.323   6.061   5.936 -0.9742 -0.3994 -0.2464
   18CHL1    H6 1268   4.247   6.062   6.016 -0.6388  0.1231  0.0692
   18CHL1    C7 1269   4.267   6.056   5.798  0.4206  0.8716 -1.0865
   18CHL1   H7A 1270   4.194   5.972   5.807 -0.6569  1.9353  0.5417
   18CHL1   H7B 1271   4.209   6.146   5.770  0.9187  0.8928 -2.1145
   18CHL1    C8 1272   4.372   6.016   5.692  0.2217 -0.5656  0.0961
   18CHL1    H8 1273   4.407   5.911   5.704  2.7969 -0.0497 -1.8655
   18CHL1   C14 1274   4.322   6.016   5.549 -0.1106 -0.6855 -0.2196
   18CHL1   H14 1275   4.289   6.120   5.527  0.1585 -1.1516 -3.2653
   18CHL1   C15 1276   4.198   5.926   5.518 -0.9943 -0.9009 -1.0967
   18CHL1  H15A 1277   4.206   5.824   5.562 -1.0113  0.2664  1.7812
   18CHL1  H15B 1278   4.111   5.978   5.564 -0.8361 -0.8338 -0.8686
   18CHL1   C16 1279   4.198   5.911   5.365  0.3506  0.7098  0.0407
   18CHL1  H16A 1280   4.174   5.805   5.339  2.1300  0.2180  0.2661
   18CHL1  H16B 1281   4.114   5.976   5.334  1.5436  2.5844  0.6200
   18CHL1   C17 1282   4.330   5.973   5.317  0.2104  0.3217 -0.9148
   18CHL1   H17 1283   4.310   6.080   5.291  0.0113  0.4836 -0.1101
   18CHL1   C13 1284   4.424   5.971   5.438 -0.1043 -0.3983 -0.1703
   18CHL1   C18 1285   4.478   5.830   5.457 -0.2072 -0.1693 -0.8994
   18CHL1  H18A 1286   4.521   5.781   5.367  2.6569 -0.9070  0.7455
   18CHL1  H18B 1287   4.569   5.826   5.521 -0.4588  2.2613 -0.2661
   18CHL1  H18C 1288   4.398   5.766   5.498 -0.7412  1.4086  0.6767
   18CHL1   C12 1289   4.536   6.075   5.448  0.1000 -0.7939 -0.2063
   18CHL1  H12A 1290   4.619   6.061   5.376 -0.7653 -2.1161 -0.9798
   18CHL1  H12B 1291   4.505   6.176   5.416  0.0221 -0.4290  0.9479
   18CHL1   C11 1292   4.601   6.090   5.590 -0.0117  0.4860  0.8158
   18CHL1  H11A 1293   4.672   6.005   5.603  2.8291  2.8336  1.7905
   18CHL1  H11B 1294   4.661   6.183   5.588  0.6389  0.0648 -0.2310
   18CHL1    C9 1295   4.497   6.101   5.709 -0.5697  0.8013  0.4922
   18CHL1    H9 1296   4.453   6.203   5.702 -2.7500 -0.1460 -0.4753
   18CHL1   C10 1297   4.557   6.082   5.849 -0.5839 -0.0733 -0.2088
   18CHL1   C19 1298   4.631   5.940   5.849  0.1537 -0.3471 -0.1550
   18CHL1  H19A 1299   4.664   5.901   5.948  1.1992  0.6048 -0.1087
   18CHL1  H19B 1300   4.570   5.861   5.802 -0.8007 -0.1632  0.7249
   18CHL1  H19C 1301   4.719   5.948   5.782 -0.2794 -0.5846 -0.7560
   18CHL1    C1 1302   4.654   6.191   5.875 -0.2363  0.6324 -0.9774
   18CHL1   H1A 1303   4.736   6.207   5.801 -0.8646  1.3936 -1.5344
   18CHL1   H1B 1304   4.600   6.288   5.876 -2.2579 -0.3983  2.1675
   18CHL1    C2 1305   4.706   6.196   6.023 -0.1942  0.0492  0.2302
   18CHL1   H2A 1306   4.776   6.282   6.032  1.0643 -1.0893  1.7745
   18CHL1   H2B 1307   4.768   6.106   6.038 -1.2173 -0.9182 -1.0707
   18CHL1   C20 1308   4.376   5.906   5.183 -0.9511  0.0639  0.2758
   18CHL1   H20 1309   4.395   5.797   5.187 -3.6447 -0.4832 -0.3510
   18CHL1   C21 1310   4.499   5.989   5.127 -0.0764 -0.0973  0.0066
   18CHL1  H21A 1311   4.592   5.986   5.188 -0.5704  0.3264  0.7871
   18CHL1  H21B 1312   4.467   6.094   5.111 -0.5806 -0.6609 -3.5789
   18CHL1  H21C 1313   4.529   5.960   5.024 -0.6006 -0.4327 -0.0596
   18CHL1   C22 1314   4.265   5.921   5.072 -0.3470 -0.4670 -0.4404
   18CHL1  H22A 1315   4.173   5.901   5.131  0.2618  0.5143  0.8807
   18CHL1  H22B 1316   4.247   6.023   5.030 -1.1634  1.6531  4.3892
   18CHL1   C23 1317   4.264   5.815   4.958  0.1971  0.2465  0.2271
   18CHL1  H23A 1318   4.370   5.809   4.926  0.2016  0.4225  0.2101
   18CHL1  H23B 1319   4.225   5.721   5.003 -2.0908  0.1393 -1.7962
   18CHL1   C24 1320   4.174   5.846   4.837 -0.6895  0.7654 -0.5968
   18CHL1  H24A 1321   4.068   5.836   4.866 -0.6847 -1.7341 -1.2087
   18CHL1  H24B 1322   4.195   5.951   4.807 -0.9725  1.3265  1.0961
   18CHL1   C25 1323   4.201   5.764   4.706 -0.1847 -0.9664 -0.7471
   18CHL1   H25 1324   4.302   5.785   4.665 -0.5260  1.2714 -0.5789
   18CHL1   C26 1325   4.200   5.615   4.729 -0.2606  0.2057 -0.3558
   18CHL1  H26A 1326   4.289   5.594   4.792  1.0026  1.4164 -1.6721
   18CHL1  H26B 1327   4.107   5.585   4.783 -0.1708  2.4590  1.1851
   18CHL1  H26C 1328   4.215   5.550   4.640 -0.0966  1.5455 -1.3298
   18CHL1   C27 1329   4.099   5.816   4.599 -0.4997 -0.2104  0.2249
   18CHL1  H27A 1330   4.115   5.774   4.497 -0.8688  0.9179 -0.3068
   18CHL1  H27B 1331   3.994   5.792   4.624 -0.3792 -1.2519 -0.2183
   18CHL1  H27C 1332   4.109   5.926   4.608  2.0898 -0.5288  2.9696
   19CHL1    C3 1333   4.885   2.507   6.340  0.9118  0.0981 -0.2828
   19CHL1    H3 1334   4.802   2.577   6.363  1.7062  0.8988  0.1921
   19CHL1    O3 1335   4.945   2.447   6.453  0.9278  0.0222 -0.1216
   19CHL1   H3' 1336   4.990   2.369   6.419  0.1386 -0.4762 -0.0679
   19CHL1    C4 1337   4.812   2.392   6.267  0.7900 -0.2561  0.1214
   19CHL1   H4A 1338   4.876   2.305   6.243  0.4355 -0.0447 -1.7396
   19CHL1   H4B 1339   4.733   2.354   6.335 -0.8665 -0.5217 -1.8311
   19CHL1    C5 1340   4.751   2.451   6.140  0.3673 -0.4575 -0.5321
   19CHL1    C6 1341   4.615   2.446   6.120  0.4535 -0.2435  0.1487
   19CHL1    H6 1342   4.547   2.409   6.198 -1.8441  2.3204 -0.4962
   19CHL1    C7 1343   4.549   2.497   5.998  0.3069  0.0863  0.0901
   19CHL1   H7A 1344   4.477   2.416   5.975 -0.5891  0.0366  2.7865
   19CHL1   H7B 1345   4.503   2.594   6.025 -3.3064 -1.2562 -0.6434
   19CHL1    C8 1346   4.648   2.515   5.874 -0.7835 -0.0678 -0.5143
   19CHL1    H8 1347   4.672   2.412   5.843  0.3621  0.1215 -0.3103
   19CHL1   C14 1348   4.593   2.596   5.764  0.8768 -0.9011  0.8507
   19CHL1   H14 1349   4.563   2.691   5.812 -0.5026 -1.0808  0.3964
   19CHL1   C15 1350   4.471   2.532   5.701 -0.0438  0.0608 -0.5330
   19CHL1  H15A 1351   4.486   2.422   5.694  1.7180  0.0674  1.8239
   19CHL1  H15B 1352   4.373   2.548   5.751  0.9009  0.4679  1.2752
   19CHL1   C16 1353   4.466   2.605   5.568  0.1380  0.1109 -0.2080
   19CHL1  H16A 1354   4.463   2.526   5.491  1.3725 -1.4723  1.2811
   19CHL1  H16B 1355   4.380   2.676   5.561  0.7127  1.1324  1.9343
   19CHL1   C17 1356   4.595   2.681   5.544  0.9721 -0.0400  0.3347
   19CHL1   H17 1357   4.569   2.784   5.575  1.2133 -0.2257  1.1759
   19CHL1   C13 1358   4.696   2.626   5.649  0.0304 -0.1537 -0.4103
   19CHL1   C18 1359   4.758   2.492   5.601  0.1142  0.3288 -0.1105
   19CHL1  H18A 1360   4.684   2.413   5.577 -0.2440  0.2889  1.0921
   19CHL1  H18B 1361   4.816   2.511   5.508  1.7599  3.0741  1.3151
   19CHL1  H18C 1362   4.825   2.448   5.677 -0.7334 -0.2209  0.3349
   19CHL1   C12 1363   4.807   2.718   5.704 -0.2508  0.0229  0.3623
   19CHL1  H12A 1364   4.875   2.759   5.627  1.8613  0.5123  2.3734
   19CHL1  H12B 1365   4.749   2.810   5.729  1.5448  1.2817  0.1167
   19CHL1   C11 1366   4.885   2.650   5.827 -0.6009 -0.0165  0.3048
   19CHL1  H11A 1367   4.960   2.580   5.787 -0.2931  0.3986  0.1498
   19CHL1  H11B 1368   4.958   2.721   5.870  3.4343 -3.0763 -0.9224
   19CHL1    C9 1369   4.788   2.582   5.929 -0.3148  0.2172 -0.0428
   19CHL1    H9 1370   4.754   2.680   5.968  1.1167  0.4518  0.6787
   19CHL1   C10 1371   4.860   2.502   6.040  0.1168 -0.5542 -0.4787
   19CHL1   C19 1372   4.933   2.381   5.978 -0.0493 -0.0283  0.7872
   19CHL1  H19A 1373   4.963   2.312   6.059  0.2591 -3.3666 -1.9403
   19CHL1  H19B 1374   4.870   2.319   5.911  0.9577  0.8885 -1.1112
   19CHL1  H19C 1375   5.012   2.411   5.905 -1.2038 -0.7097 -0.8037
   19CHL1    C1 1376   4.946   2.604   6.111 -1.0846  0.3728  0.7712
   19CHL1   H1A 1377   5.041   2.629   6.058 -1.0420 -0.3929  0.4787
   19CHL1   H1B 1378   4.886   2.697   6.123 -1.8403 -0.2142  1.6973
   19CHL1    C2 1379   4.994   2.564   6.257 -0.2761  0.5877  0.7736
   19CHL1   H2A 1380   5.041   2.655   6.300  1.1420  0.9243 -1.3345
   19CHL1   H2B 1381   5.076   2.492   6.241 -2.0428 -1.1217 -1.2612
   19CHL1   C20 1382   4.636   2.686   5.392 -0.1775  0.0746  0.8038
   19CHL1   H20 1383   4.662   2.582   5.362 -2.0928 -0.8030  1.9818
   19CHL1   C21 1384   4.755   2.775   5.370 -0.7913  0.1521 -0.2545
   19CHL1  H21A 1385   4.734   2.869   5.425 -2.1275 -1.0882  1.4333
   19CHL1  H21B 1386   4.776   2.801   5.263  1.7734 -2.0864 -0.4029
   19CHL1  H21C 1387   4.851   2.736   5.410 -1.3722  0.1872  1.2091
   19CHL1   C22 1388   4.514   2.728   5.305  0.0520 -0.0791 -0.1629
   19CHL1  H22A 1389   4.423   2.669   5.329  0.2105 -0.1513  0.2780
   19CHL1  H22B 1390   4.479   2.833   5.314 -1.1432 -0.6161  2.1274
   19CHL1   C23 1391   4.542   2.703   5.157  0.5062  0.3613 -0.2713
   19CHL1  H23A 1392   4.634   2.748   5.114 -0.1450  0.2702 -1.8101
   19CHL1  H23B 1393   4.548   2.593   5.144 -0.5352  0.2125  0.3507
   19CHL1   C24 1394   4.424   2.746   5.064 -0.3008 -0.0389  0.1581
   19CHL1  H24A 1395   4.337   2.690   5.105  0.1093  1.2242  2.9971
   19CHL1  H24B 1396   4.409   2.856   5.069  2.2544  0.2968  2.2853
   19CHL1   C25 1397   4.453   2.705   4.914 -0.3362 -0.1143  0.5619
   19CHL1   H25 1398   4.474   2.596   4.912  0.6861  0.0091 -4.0009
   19CHL1   C26 1399   4.328   2.726   4.836  0.5407  0.3977 -0.2441
   19CHL1  H26A 1400   4.339   2.715   4.726  1.1008 -0.3365 -0.1212
   19CHL1  H26B 1401   4.246   2.663   4.876  0.2559  1.0832  0.2622
   19CHL1  H26C 1402   4.295   2.828   4.864  0.6273  0.5472 -0.6747
   19CHL1   C27 1403   4.572   2.774   4.851 -0.2755 -0.3018  0.2397
   19CHL1  H27A 1404   4.566   2.884   4.862  1.6169 -0.2812  1.5437
   19CHL1  H27B 1405   4.662   2.740   4.907 -0.0827 -0.0781  0.0691
   19CHL1  H27C 1406   4.598   2.750   4.745  0.1763 -0.2846  0.3442
   20CHL1    C3 1407   2.841   4.551   5.714  0.1144  0.1803  0.2448
   20CHL1    H3 1408   2.853   4.648   5.662 -3.0777  1.3724  1.4919
   20CHL1    O3 1409   2.855   4.584   5.850  0.1634 -0.2416 -0.7340
   20CHL1   H3' 1410   2.823   4.510   5.902 -1.0664  1.3656  0.9405
   20CHL1    C4 1411   2.696   4.505   5.680 -0.1979  0.3977  0.4126
   20CHL1   H4A 1412   2.678   4.414   5.741  1.8285  0.4376  1.1501
   20CHL1   H4B 1413   2.626   4.580   5.724 -1.0052 -1.2178  2.0567
   20CHL1    C5 1414   2.674   4.459   5.538  0.0677  0.0758 -0.7733
   20CHL1    C6 1415   2.584   4.508   5.459  0.9165 -0.0718  0.8186
   20CHL1    H6 1416   2.506   4.570   5.506 -1.9465 -2.3752 -0.5757
   20CHL1    C7 1417   2.564   4.464   5.314  0.1396 -0.1359 -0.7023
   20CHL1   H7A 1418   2.459   4.454   5.277  0.6626 -3.1671 -1.6276
   20CHL1   H7B 1419   2.615   4.544   5.257  2.8951 -0.5225  1.0064
   20CHL1    C8 1420   2.635   4.330   5.278  0.2705 -1.4484 -0.1284
   20CHL1    H8 1421   2.572   4.251   5.325 -1.4755 -1.0545 -1.7301
   20CHL1   C14 1422   2.637   4.309   5.130  0.3934 -0.7192  0.4794
   20CHL1   H14 1423   2.708   4.380   5.082 -0.8910  1.5034  1.6916
   20CHL1   C15 1424   2.502   4.316   5.061  1.2043 -0.3588  0.2302
   20CHL1  H15A 1425   2.435   4.266   5.134  1.9046 -0.2024  0.9940
   20CHL1  H15B 1426   2.469   4.420   5.041  0.1302 -0.7043  0.1771
   20CHL1   C16 1427   2.524   4.226   4.945 -0.6827 -0.4050 -0.0471
   20CHL1  H16A 1428   2.441   4.154   4.930 -1.4253  0.5329 -0.5243
   20CHL1  H16B 1429   2.531   4.289   4.853  0.2625 -2.4831 -1.4889
   20CHL1   C17 1430   2.661   4.156   4.953 -0.2616 -0.1460 -0.8497
   20CHL1   H17 1431   2.734   4.211   4.889 -1.0814  2.5007  0.3290
   20CHL1   C13 1432   2.697   4.170   5.104 -0.2291 -0.0647 -0.1925
   20CHL1   C18 1433   2.619   4.051   5.167 -0.0942 -0.2116 -0.3665
   20CHL1  H18A 1434   2.671   3.954   5.152 -1.8422 -0.9218 -2.1698
   20CHL1  H18B 1435   2.625   4.055   5.278  0.8617  0.7017 -0.4325
   20CHL1  H18C 1436   2.513   4.047   5.135  0.0068  3.9364 -1.8287
   20CHL1   C12 1437   2.851   4.185   5.136 -0.3853 -0.2102  0.1551
   20CHL1  H12A 1438   2.915   4.099   5.106  0.1495 -0.4246  1.7583
   20CHL1  H12B 1439   2.889   4.272   5.080 -2.2319 -1.2527 -2.9398
   20CHL1   C11 1440   2.865   4.204   5.289 -0.1734  0.4943 -0.4677
   20CHL1  H11A 1441   2.826   4.112   5.338 -1.9847  1.6621  0.3932
   20CHL1  H11B 1442   2.971   4.217   5.321 -0.0464  4.1834 -1.8941
   20CHL1    C9 1443   2.783   4.328   5.336 -0.2400  0.3719  0.6391
   20CHL1    H9 1444   2.834   4.409   5.279  1.5734 -1.4222 -0.4315
   20CHL1   C10 1445   2.782   4.356   5.485 -0.1815 -0.7225  0.3408
   20CHL1   C19 1446   2.753   4.220   5.554 -0.5260 -0.3460  0.5171
   20CHL1  H19A 1447   2.653   4.187   5.521 -0.1954  1.8402 -3.1775
   20CHL1  H19B 1448   2.831   4.146   5.526 -0.1177  0.8891 -1.8660
   20CHL1  H19C 1449   2.753   4.236   5.664 -0.3523  1.1040  0.3234
   20CHL1    C1 1450   2.920   4.409   5.523 -1.0832 -0.3376 -0.6048
   20CHL1   H1A 1451   2.990   4.324   5.506  3.5339  2.9191  0.3928
   20CHL1   H1B 1452   2.941   4.497   5.459  0.8930  1.4483  2.2390
   20CHL1    C2 1453   2.945   4.450   5.672  0.0022  0.7344  0.2874
   20CHL1   H2A 1454   3.041   4.504   5.688 -0.0388  1.3486 -1.2936
   20CHL1   H2B 1455   2.939   4.367   5.745  0.5466  1.5415  1.2662
   20CHL1   C20 1456   2.660   4.008   4.889 -0.7390 -0.2015 -0.5744
   20CHL1   H20 1457   2.585   3.941   4.936 -0.4779 -0.1950 -0.1411
   20CHL1   C21 1458   2.799   3.946   4.908  0.0094  0.0007 -0.0430
   20CHL1  H21A 1459   2.822   3.863   4.838 -0.5671  0.2351 -0.5224
   20CHL1  H21B 1460   2.804   3.903   5.010 -0.5706 -0.7781 -0.3364
   20CHL1  H21C 1461   2.874   4.026   4.894 -0.6480  0.9754  1.6695
   20CHL1   C22 1462   2.633   4.026   4.742  0.4680  0.1675  0.0078
   20CHL1  H22A 1463   2.542   4.086   4.722  0.4013 -0.6410 -2.5078
   20CHL1  H22B 1464   2.722   4.062   4.685  0.3140  0.5803  0.0227
   20CHL1   C23 1465   2.591   3.891   4.678 -0.1868  0.4564  0.5966
   20CHL1  H23A 1466   2.667   3.817   4.709 -0.4952 -0.4127 -0.6412
   20CHL1  H23B 1467   2.494   3.863   4.724 -1.9002  2.9313 -1.2394
   20CHL1   C24 1468   2.588   3.907   4.531  0.3998  0.1585  1.0313
   20CHL1  H24A 1469   2.531   3.998   4.501  1.7180  0.5536 -0.3663
   20CHL1  H24B 1470   2.686   3.909   4.479  0.4991 -1.6037  1.1129
   20CHL1   C25 1471   2.515   3.787   4.454  0.5362  0.3239  0.2670
   20CHL1   H25 1472   2.408   3.790   4.482  0.5323  1.4816  0.1901
   20CHL1   C26 1473   2.528   3.803   4.302 -0.0001  0.3108  0.5284
   20CHL1  H26A 1474   2.634   3.812   4.270  0.1173 -2.3401 -0.0338
   20CHL1  H26B 1475   2.477   3.722   4.247 -0.0882  0.7709 -0.0785
   20CHL1  H26C 1476   2.478   3.897   4.271 -0.8103 -0.4623 -0.5955
   20CHL1   C27 1477   2.570   3.648   4.486 -0.4874 -0.1776 -0.4637
   20CHL1  H27A 1478   2.522   3.570   4.425 -0.6565 -0.2391 -0.2531
   20CHL1  H27B 1479   2.681   3.645   4.478 -0.4069 -0.2986  0.5558
   20CHL1  H27C 1480   2.550   3.638   4.595  0.5397 -0.9225 -0.3308
   21CHL1    C3 1481   0.246   5.823   6.096  0.6671  0.2818  1.1246
   21CHL1    H3 1482   0.251   5.918   6.039  1.6177  0.7828  1.9950
   21CHL1    O3 1483   0.282   5.850   6.230 -0.0683 -0.0986 -0.8359
   21CHL1   H3' 1484   0.245   5.776   6.278  0.6379  0.9163  1.4041
   21CHL1    C4 1485   0.094   5.781   6.095  0.8954 -0.2009  0.1820
   21CHL1   H4A 1486   0.083   5.690   6.158  1.4288  0.9420  1.9843
   21CHL1   H4B 1487   0.036   5.863   6.143 -1.3000 -0.6133 -1.5672
   21CHL1    C5 1488   0.036   5.760   5.959 -0.0351  0.4964  0.7649
   21CHL1    C6 1489  -0.072   5.823   5.908 -0.5269 -0.3353  0.2154
   21CHL1    H6 1490  -0.132   5.886   5.975  0.6917 -1.5619  2.6078
   21CHL1    C7 1491  -0.120   5.805   5.770 -0.6102 -0.5751  0.1839
   21CHL1   H7A 1492  -0.230   5.795   5.771 -0.6005 -0.6429  0.6425
   21CHL1   H7B 1493  -0.103   5.901   5.716  0.1381 -1.6544 -1.6290
   21CHL1    C8 1494  -0.061   5.688   5.689  0.1067 -0.4018 -0.5185
   21CHL1    H8 1495  -0.108   5.593   5.722 -0.1069 -0.0287  0.2514
   21CHL1   C14 1496  -0.089   5.714   5.542  0.1002  0.4573 -0.6155
   21CHL1   H14 1497  -0.024   5.801   5.518  0.6991 -0.2380 -1.5973
   21CHL1   C15 1498  -0.230   5.752   5.495  0.0092  0.3844 -0.1610
   21CHL1  H15A 1499  -0.309   5.687   5.538  0.4888  0.1713  0.4032
   21CHL1  H15B 1500  -0.244   5.856   5.530  1.9143  0.7136 -0.2474
   21CHL1   C16 1501  -0.229   5.726   5.341  0.1890  0.6391 -0.0480
   21CHL1  H16A 1502  -0.304   5.651   5.310  0.3441 -0.4658  2.0586
   21CHL1  H16B 1503  -0.235   5.812   5.270 -1.6817  0.3224 -0.3136
   21CHL1   C17 1504  -0.087   5.665   5.310 -0.3874  0.0422  0.0870
   21CHL1   H17 1505  -0.018   5.751   5.292  2.8276 -2.1952  0.8403
   21CHL1   C13 1506  -0.042   5.608   5.446 -0.0211 -0.0758 -0.2521
   21CHL1   C18 1507  -0.108   5.462   5.476  0.4210  0.4726 -0.5422
   21CHL1  H18A 1508  -0.070   5.385   5.406 -1.1817 -1.2991  0.4386
   21CHL1  H18B 1509  -0.091   5.427   5.580 -0.5162  0.9116 -0.2330
   21CHL1  H18C 1510  -0.218   5.471   5.462  0.1422 -0.3899  0.9232
   21CHL1   C12 1511   0.113   5.588   5.466 -0.6019 -0.3654  0.1861
   21CHL1  H12A 1512   0.131   5.488   5.421 -3.2620 -1.0660  0.4997
   21CHL1  H12B 1513   0.167   5.671   5.415 -2.2854  1.9441  1.9396
   21CHL1   C11 1514   0.158   5.577   5.617 -0.4010 -0.3256 -0.0770
   21CHL1  H11A 1515   0.139   5.472   5.647 -0.2455 -0.4868 -0.5428
   21CHL1  H11B 1516   0.268   5.590   5.623 -0.5075  0.6617 -0.1192
   21CHL1    C9 1517   0.092   5.680   5.717  0.0885  0.6096  0.1423
   21CHL1    H9 1518   0.123   5.781   5.683 -2.0267  1.0210 -0.7223
   21CHL1   C10 1519   0.127   5.668   5.866 -0.3049  0.5747 -0.2079
   21CHL1   C19 1520   0.112   5.518   5.904 -0.2691 -0.2426  0.7559
   21CHL1  H19A 1521   0.126   5.503   6.013 -0.6912  1.5905  1.1030
   21CHL1  H19B 1522   0.009   5.481   5.884 -0.8896  1.2424  1.0601
   21CHL1  H19C 1523   0.192   5.458   5.855  0.3463  1.0471  0.0975
   21CHL1    C1 1524   0.273   5.712   5.880 -0.1660 -0.2751 -0.0962
   21CHL1   H1A 1525   0.344   5.644   5.828  0.6386  1.2802 -1.1038
   21CHL1   H1B 1526   0.276   5.810   5.828 -0.6441 -1.3764 -2.2938
   21CHL1    C2 1527   0.327   5.724   6.024  0.3483 -1.1753 -0.3639
   21CHL1   H2A 1528   0.434   5.753   6.027  0.1425 -0.4548  0.3080
   21CHL1   H2B 1529   0.320   5.629   6.082  2.0501 -1.0066  0.1656
   21CHL1   C20 1530  -0.076   5.572   5.187  0.0214 -0.4306  0.0223
   21CHL1   H20 1531  -0.138   5.481   5.198  0.3511 -0.7733 -0.8859
   21CHL1   C21 1532   0.073   5.543   5.149 -0.3058  0.6063  0.0306
   21CHL1  H21A 1533   0.070   5.463   5.072 -1.4176  0.4968  0.1638
   21CHL1  H21B 1534   0.133   5.505   5.235 -1.2235  0.7135  0.7373
   21CHL1  H21C 1535   0.122   5.631   5.103 -0.7544 -1.4831 -5.1226
   21CHL1   C22 1536  -0.139   5.642   5.056  0.1205  0.2128  0.1089
   21CHL1  H22A 1537  -0.249   5.652   5.072  0.1640 -1.2940  1.6441
   21CHL1  H22B 1538  -0.101   5.745   5.041 -0.4185  0.3706 -0.2105
   21CHL1   C23 1539  -0.121   5.550   4.928 -0.2900 -0.1724  0.7784
   21CHL1  H23A 1540  -0.014   5.549   4.899 -0.6755 -4.6963 -1.4584
   21CHL1  H23B 1541  -0.143   5.444   4.953 -0.7918 -0.5373 -1.0355
   21CHL1   C24 1542  -0.206   5.601   4.812 -0.1129  0.7242  0.5535
   21CHL1  H24A 1543  -0.304   5.550   4.822  1.1131 -2.3242 -1.3513
   21CHL1  H24B 1544  -0.210   5.711   4.794 -0.4549  0.5612 -0.3849
   21CHL1   C25 1545  -0.155   5.549   4.668 -0.4596 -0.4755 -0.1771
   21CHL1   H25 1546  -0.051   5.587   4.655 -0.9262  0.4951 -1.2974
   21CHL1   C26 1547  -0.149   5.399   4.660  0.2194 -0.1056 -0.3851
   21CHL1  H26A 1548  -0.252   5.358   4.668 -1.2886  3.0889 -1.7893
   21CHL1  H26B 1549  -0.115   5.370   4.559  0.7121  0.9416 -0.5307
   21CHL1  H26C 1550  -0.083   5.351   4.735  1.0392  0.5017 -0.7097
   21CHL1   C27 1551  -0.231   5.615   4.550  0.2498  0.0579 -0.2095
   21CHL1  H27A 1552  -0.340   5.592   4.557  0.0248  0.1168 -2.5412
   21CHL1  H27B 1553  -0.227   5.725   4.560  0.2848  0.0041  0.4004
   21CHL1  H27C 1554  -0.206   5.579   4.448  3.5036 -2.0703  1.2036
   22CHL1    C3 1555   2.880   6.755   5.892  0.5169  0.2386  0.1594
   22CHL1    H3 1556   2.978   6.706   5.874 -0.8331 -3.5454  2.1108
   22CHL1    O3 1557   2.867   6.763   6.032 -0.3554  0.5565  0.5698
   22CHL1   H3' 1558   2.773   6.749   6.048 -0.7722  0.6942 -1.4986
   22CHL1    C4 1559   2.867   6.889   5.820  0.5419 -0.4068  0.2526
   22CHL1   H4A 1560   2.768   6.935   5.840 -0.0587 -0.1021 -2.9268
   22CHL1   H4B 1561   2.944   6.959   5.858 -0.3794  0.3047  0.8567
   22CHL1    C5 1562   2.888   6.875   5.667  0.9904 -1.0255 -1.1505
   22CHL1    C6 1563   2.974   6.944   5.596  0.7882  0.3503 -0.4898
   22CHL1    H6 1564   3.026   7.031   5.640 -0.3239 -0.1237  1.9037
   22CHL1    C7 1565   2.980   6.928   5.450 -0.2496 -0.0340 -0.2742
   22CHL1   H7A 1566   3.003   7.023   5.397 -0.3206  1.0813  1.6044
   22CHL1   H7B 1567   3.067   6.861   5.436  0.5454  0.3564  2.2901
   22CHL1    C8 1568   2.859   6.858   5.374 -0.2202 -0.4501  0.3678
   22CHL1    H8 1569   2.777   6.931   5.355  0.5832  0.1213 -1.1201
   22CHL1   C14 1570   2.900   6.803   5.239  0.5574 -0.4542  0.1847
   22CHL1   H14 1571   2.976   6.727   5.265  0.1622 -1.6445 -1.9654
   22CHL1   C15 1572   2.962   6.902   5.139  0.4537  0.2061 -0.7529
   22CHL1  H15A 1573   2.890   6.985   5.125  0.5722  0.2822 -0.9083
   22CHL1  H15B 1574   3.060   6.944   5.168  0.3045  0.7970 -1.1031
   22CHL1   C16 1575   2.969   6.813   5.009 -0.3370  0.0984  0.2113
   22CHL1  H16A 1576   2.942   6.881   4.925  1.1029  0.7952  0.2778
   22CHL1  H16B 1577   3.074   6.788   4.985 -0.3273  0.5804 -0.2722
   22CHL1   C17 1578   2.878   6.688   5.033  0.6417 -0.6228  0.6905
   22CHL1   H17 1579   2.959   6.614   5.055  1.9092  0.4408 -0.2268
   22CHL1   C13 1580   2.794   6.723   5.160  0.5931  0.2064 -0.0594
   22CHL1   C18 1581   2.679   6.815   5.116 -0.0673 -0.3689  0.5947
   22CHL1  H18A 1582   2.624   6.866   5.198 -0.8967 -1.4458  0.7322
   22CHL1  H18B 1583   2.720   6.896   5.051 -1.1641  0.6566  1.1409
   22CHL1  H18C 1584   2.597   6.761   5.064 -1.5556 -0.6095  3.0485
   22CHL1   C12 1585   2.744   6.615   5.256 -0.0867  0.1384 -0.2002
   22CHL1  H12A 1586   2.667   6.553   5.205  0.8851  0.8960 -2.7549
   22CHL1  H12B 1587   2.834   6.554   5.280  0.0766 -1.0588 -3.3250
   22CHL1   C11 1588   2.688   6.681   5.378 -0.3336  0.6841 -0.7235
   22CHL1  H11A 1589   2.598   6.743   5.359 -1.9264 -1.4758 -0.5566
   22CHL1  H11B 1590   2.647   6.598   5.440  0.3654  0.6507 -0.3020
   22CHL1    C9 1591   2.805   6.748   5.455 -0.0479 -0.4014  0.1192
   22CHL1    H9 1592   2.892   6.680   5.465  0.7301  0.4433 -0.6484
   22CHL1   C10 1593   2.786   6.775   5.608  0.0886 -0.7612  0.0304
   22CHL1   C19 1594   2.642   6.838   5.618  0.1890 -0.3256  0.7257
   22CHL1  H19A 1595   2.567   6.758   5.599 -0.3469  0.1691  0.7200
   22CHL1  H19B 1596   2.623   6.878   5.720  0.5908  1.7820  0.0400
   22CHL1  H19C 1597   2.634   6.924   5.548 -0.8156  0.0881  1.3239
   22CHL1    C1 1598   2.798   6.641   5.678  0.0923 -0.7739 -1.2845
   22CHL1   H1A 1599   2.725   6.565   5.642 -2.1144  1.0216 -0.8127
   22CHL1   H1B 1600   2.899   6.596   5.667  0.1663 -0.5147 -1.6546
   22CHL1    C2 1601   2.785   6.653   5.834  0.6586 -0.1930  0.1523
   22CHL1   H2A 1602   2.809   6.554   5.879  1.9342 -0.3611 -0.8374
   22CHL1   H2B 1603   2.680   6.676   5.863  0.5513 -1.1741  0.5801
   22CHL1   C20 1604   2.810   6.629   4.905  1.1826  0.9140 -0.4011
   22CHL1   H20 1605   2.736   6.701   4.864 -0.2861 -0.9120 -1.1302
   22CHL1   C21 1606   2.740   6.494   4.945  0.1480  0.2372  0.4441
   22CHL1  H21A 1607   2.809   6.417   4.985  1.2804  1.2277  0.4625
   22CHL1  H21B 1608   2.687   6.448   4.859  0.0326 -0.9615  1.1269
   22CHL1  H21C 1609   2.658   6.510   5.019 -0.6423 -2.4730  0.2396
   22CHL1   C22 1610   2.916   6.616   4.792 -0.5523  0.4724 -0.1935
   22CHL1  H22A 1611   2.982   6.706   4.788 -2.0145  1.6570  1.1513
   22CHL1  H22B 1612   2.978   6.531   4.827 -1.7741 -0.0426  0.7973
   22CHL1   C23 1613   2.865   6.592   4.643  0.4394 -0.1765  0.4201
   22CHL1  H23A 1614   2.787   6.512   4.644  0.3812 -0.1560 -1.0187
   22CHL1  H23B 1615   2.816   6.689   4.622  0.7262  0.3013  1.8422
   22CHL1   C24 1616   2.980   6.562   4.541  0.1093  0.0419  0.4646
   22CHL1  H24A 1617   3.062   6.637   4.547 -1.4729  2.0881 -1.7610
   22CHL1  H24B 1618   3.017   6.466   4.583  2.8454  1.7431  2.3050
   22CHL1   C25 1619   2.935   6.562   4.398  0.2056  0.5607 -0.2778
   22CHL1   H25 1620   2.912   6.665   4.363  1.1736  0.6506 -0.6892
   22CHL1   C26 1621   3.045   6.518   4.300  0.2974 -0.0085 -0.0788
   22CHL1  H26A 1622   3.027   6.522   4.191  1.8717  0.5198 -0.3317
   22CHL1  H26B 1623   3.116   6.598   4.330 -1.2669  1.6810 -0.7193
   22CHL1  H26C 1624   3.087   6.418   4.327  1.6965  0.2244 -1.3042
   22CHL1   C27 1625   2.821   6.456   4.372 -0.0221  0.5611  0.8350
   22CHL1  H27A 1626   2.730   6.488   4.427 -1.3637 -0.1158 -0.9068
   22CHL1  H27B 1627   2.787   6.444   4.267 -2.5060 -1.0649  1.7314
   22CHL1  H27C 1628   2.860   6.355   4.396  0.9606  0.4569 -1.0025
   23CHL1    C3 1629   3.693   5.686   5.682  1.0410 -0.7225 -0.2769
   23CHL1    H3 1630   3.748   5.591   5.673 -0.1135 -1.3567 -0.9476
   23CHL1    O3 1631   3.701   5.719   5.820  0.1665  0.1519  0.1168
   23CHL1   H3' 1632   3.662   5.645   5.868  0.4319  0.0725  0.2081
   23CHL1    C4 1633   3.754   5.792   5.599 -1.2538  0.4929 -0.9145
   23CHL1   H4A 1634   3.701   5.882   5.635  1.6809  1.6804  0.8144
   23CHL1   H4B 1635   3.859   5.800   5.635 -1.3406  1.0773 -0.7808
   23CHL1    C5 1636   3.739   5.778   5.454 -0.6450  0.4617  0.0055
   23CHL1    C6 1637   3.839   5.786   5.370 -0.0755 -0.5779 -0.4491
   23CHL1    H6 1638   3.937   5.815   5.411 -0.0726 -2.6066  1.1144
   23CHL1    C7 1639   3.833   5.766   5.223  0.1967  0.1173  0.2510
   23CHL1   H7A 1640   3.877   5.857   5.175 -0.1620  0.1959  0.0690
   23CHL1   H7B 1641   3.890   5.676   5.191 -0.5981 -0.0175 -0.8560
   23CHL1    C8 1642   3.691   5.765   5.161  0.4436  0.0080 -0.4383
   23CHL1    H8 1643   3.655   5.870   5.156 -0.4886 -0.3582 -3.0793
   23CHL1   C14 1644   3.684   5.694   5.030  0.5466 -0.2343  0.1114
   23CHL1   H14 1645   3.696   5.586   5.054  0.5921 -0.8158 -2.2715
   23CHL1   C15 1646   3.792   5.733   4.927 -0.2442 -0.0289 -0.3655
   23CHL1  H15A 1647   3.792   5.844   4.925  0.4402 -0.0235 -0.0668
   23CHL1  H15B 1648   3.892   5.701   4.961 -0.3471  0.8497  0.8389
   23CHL1   C16 1649   3.737   5.689   4.794  0.1363  0.6172 -1.0331
   23CHL1  H16A 1650   3.732   5.775   4.724  1.9123 -1.3632 -3.7801
   23CHL1  H16B 1651   3.792   5.608   4.743 -2.2195 -1.6762 -0.1761
   23CHL1   C17 1652   3.590   5.637   4.822 -0.1597 -0.3116 -0.5776
   23CHL1   H17 1653   3.596   5.527   4.834 -1.5083 -0.3862 -0.4770
   23CHL1   C13 1654   3.554   5.695   4.960  0.3574  0.3118  0.4783
   23CHL1   C18 1655   3.499   5.839   4.937 -0.4616 -0.9263 -0.3819
   23CHL1  H18A 1656   3.564   5.903   4.873 -2.3086  3.1427  1.4724
   23CHL1  H18B 1657   3.399   5.832   4.889  0.3468 -0.2847 -2.2638
   23CHL1  H18C 1658   3.503   5.893   5.034  2.0730 -0.3242 -0.7317
   23CHL1   C12 1659   3.454   5.613   5.042  0.3147 -0.0309 -0.3458
   23CHL1  H12A 1660   3.354   5.620   4.995  1.1062  0.6043 -1.9960
   23CHL1  H12B 1661   3.474   5.504   5.050  0.9013  0.1653  1.3726
   23CHL1   C11 1662   3.444   5.672   5.185 -0.5450  0.4705 -0.0435
   23CHL1  H11A 1663   3.380   5.763   5.187 -1.5135 -0.1995  0.4553
   23CHL1  H11B 1664   3.386   5.603   5.250  0.2743  1.1181  1.4275
   23CHL1    C9 1665   3.587   5.691   5.255  0.5972  0.4034 -0.0956
   23CHL1    H9 1666   3.627   5.588   5.257  2.4898  1.1073  1.4647
   23CHL1   C10 1667   3.592   5.742   5.405  0.6610  0.5526 -0.3207
   23CHL1   C19 1668   3.516   5.873   5.407 -0.8123 -0.1281 -0.1111
   23CHL1  H19A 1669   3.526   5.913   5.510  0.7800 -0.0501 -0.2787
   23CHL1  H19B 1670   3.561   5.949   5.340 -1.5796  1.7039  1.3524
   23CHL1  H19C 1671   3.407   5.867   5.386 -1.0794  0.9120  0.8837
   23CHL1    C1 1672   3.532   5.626   5.496  0.4672 -0.5498  0.7333
   23CHL1   H1A 1673   3.430   5.610   5.455  1.6548 -2.6434 -1.6746
   23CHL1   H1B 1674   3.571   5.524   5.473 -3.6329 -2.0148 -0.6842
   23CHL1    C2 1675   3.539   5.653   5.645  0.1598  0.1537  0.3665
   23CHL1   H2A 1676   3.504   5.564   5.701  0.0162 -0.1427 -0.1808
   23CHL1   H2B 1677   3.461   5.729   5.665 -2.3220 -2.6160  2.1013
   23CHL1   C20 1678   3.495   5.677   4.703  0.2634  0.1864  0.2085
   23CHL1   H20 1679   3.494   5.786   4.685  2.0365  0.0558 -1.0179
   23CHL1   C21 1680   3.355   5.616   4.720 -0.1112  0.6771  0.1946
   23CHL1  H21A 1681   3.306   5.623   4.621  2.3958  1.3436 -1.0943
   23CHL1  H21B 1682   3.294   5.676   4.791  1.5201  1.9236  0.6047
   23CHL1  H21C 1683   3.373   5.509   4.741  0.3760  0.6918 -0.1450
   23CHL1   C22 1684   3.545   5.615   4.573 -0.3200 -0.8664  0.0172
   23CHL1  H22A 1685   3.656   5.618   4.564 -0.2366 -1.9757  0.4905
   23CHL1  H22B 1686   3.512   5.510   4.565  0.4216 -1.0940 -0.1743
   23CHL1   C23 1687   3.495   5.696   4.449  0.8949  0.3680 -0.1013
   23CHL1  H23A 1688   3.386   5.714   4.462  0.6885 -0.1799 -1.0543
   23CHL1  H23B 1689   3.547   5.793   4.468  2.1892 -0.6722  2.0995
   23CHL1   C24 1690   3.537   5.645   4.309 -0.3278 -0.0569 -0.1367
   23CHL1  H24A 1691   3.648   5.642   4.303 -0.0877  1.9003  2.0268
   23CHL1  H24B 1692   3.504   5.540   4.291 -0.9468  0.1421 -0.1889
   23CHL1   C25 1693   3.479   5.725   4.180 -0.0736  0.3343 -0.1396
   23CHL1   H25 1694   3.371   5.734   4.200 -0.3874  0.6408 -1.8159
   23CHL1   C26 1695   3.553   5.859   4.178 -0.5151 -0.1545 -1.1817
   23CHL1  H26A 1696   3.490   5.931   4.122 -0.6890  1.2137  0.6505
   23CHL1  H26B 1697   3.565   5.904   4.279 -0.2609  0.4485 -1.4768
   23CHL1  H26C 1698   3.654   5.836   4.138 -0.9916 -2.1230 -1.3758
   23CHL1   C27 1699   3.513   5.649   4.049  0.5478  0.0872  0.0255
   23CHL1  H27A 1700   3.498   5.705   3.954  2.1824  1.7474  0.6927
   23CHL1  H27B 1701   3.621   5.626   4.043  0.6290  0.4908 -0.1391
   23CHL1  H27C 1702   3.457   5.553   4.048  0.5312  0.0838 -1.4277
   24CHL1    C3 1703   2.137   3.978   6.235  0.2559  0.2723  0.0358
   24CHL1    H3 1704   2.238   4.014   6.204 -0.5316  2.4531 -0.2171
   24CHL1    O3 1705   2.152   3.950   6.373  0.0945 -0.1251 -0.1586
   24CHL1   H3' 1706   2.118   4.029   6.415 -0.0062  0.4612 -1.3105
   24CHL1    C4 1707   2.031   4.088   6.199 -0.0392 -0.6543 -0.1688
   24CHL1   H4A 1708   1.938   4.050   6.247 -0.1442  0.3582  0.4524
   24CHL1   H4B 1709   2.059   4.183   6.249  0.5420 -0.8957 -0.0272
   24CHL1    C5 1710   2.020   4.105   6.050  0.0320  0.6544  0.0746
   24CHL1    C6 1711   2.045   4.217   5.991  0.4034 -0.3120  0.3478
   24CHL1    H6 1712   2.065   4.308   6.051  0.6643  0.8282 -1.4076
   24CHL1    C7 1713   2.014   4.247   5.845 -0.0896 -0.0410  0.1865
   24CHL1   H7A 1714   1.991   4.354   5.823  1.3885  0.5201  1.2043
   24CHL1   H7B 1715   2.108   4.240   5.786 -0.0586  1.3622  0.0351
   24CHL1    C8 1716   1.923   4.136   5.790 -0.5094  0.2996  1.0175
   24CHL1    H8 1717   1.819   4.141   5.827 -0.2708 -0.5825  1.8392
   24CHL1   C14 1718   1.927   4.136   5.636 -0.6199 -0.6217 -0.0574
   24CHL1   H14 1719   2.035   4.135   5.607 -1.0581  1.4334 -2.0673
   24CHL1   C15 1720   1.880   4.266   5.564 -0.3352  0.4290  0.1635
   24CHL1  H15A 1721   1.794   4.301   5.625 -1.1429  3.5230 -2.5042
   24CHL1  H15B 1722   1.954   4.347   5.581  2.4022 -1.7415 -0.6770
   24CHL1   C16 1723   1.865   4.234   5.416 -0.8137 -0.0505  0.1292
   24CHL1  H16A 1724   1.766   4.270   5.379 -0.1863  1.3395 -0.2439
   24CHL1  H16B 1725   1.945   4.284   5.357 -0.7314  1.4070  1.3986
   24CHL1   C17 1726   1.868   4.077   5.409 -0.0535  0.6555  1.4948
   24CHL1   H17 1727   1.973   4.064   5.377 -0.7331  1.1115 -1.1686
   24CHL1   C13 1728   1.848   4.029   5.553 -0.7359  0.3948 -0.0598
   24CHL1   C18 1729   1.697   4.033   5.582 -0.1635  0.5590 -0.2897
   24CHL1  H18A 1730   1.677   4.027   5.691  0.2642 -1.2378 -0.2790
   24CHL1  H18B 1731   1.653   4.123   5.534  0.6360  1.5217  0.7138
   24CHL1  H18C 1732   1.648   3.942   5.542  1.4342 -1.4200  1.8969
   24CHL1   C12 1733   1.907   3.893   5.598 -0.4288  0.0630 -0.1874
   24CHL1  H12A 1734   1.848   3.810   5.554 -1.4497  0.9022 -0.4444
   24CHL1  H12B 1735   2.009   3.892   5.554  0.4266 -1.9879  1.6740
   24CHL1   C11 1736   1.907   3.877   5.749 -0.2306  0.1201  0.0547
   24CHL1  H11A 1737   1.801   3.857   5.775 -0.0826  0.2416  0.7620
   24CHL1  H11B 1738   1.950   3.778   5.776 -0.1143 -0.2781 -1.4767
   24CHL1    C9 1739   1.977   3.991   5.829  0.9215  0.2226  0.0676
   24CHL1    H9 1740   2.082   4.001   5.796  0.4272 -0.3611 -1.8452
   24CHL1   C10 1741   1.975   3.970   5.980  0.0397 -0.2729 -0.3929
   24CHL1   C19 1742   1.836   3.937   6.020  0.7393  0.5932  0.5619
   24CHL1  H19A 1743   1.803   3.835   5.989 -2.7267  1.2419  1.7012
   24CHL1  H19B 1744   1.812   3.932   6.128 -1.1205 -2.0983  0.1107
   24CHL1  H19C 1745   1.759   4.005   5.978  1.0654  0.0251 -1.0472
   24CHL1    C1 1746   2.082   3.863   6.012  0.3846  0.5776 -0.0968
   24CHL1   H1A 1747   2.046   3.763   5.978 -2.6004  1.7639 -0.6846
   24CHL1   H1B 1748   2.178   3.889   5.963  1.9874  1.3268  3.1524
   24CHL1    C2 1749   2.111   3.842   6.162 -0.5749 -0.4171  0.8239
   24CHL1   H2A 1750   2.193   3.767   6.172  0.4039  0.8474  3.2452
   24CHL1   H2B 1751   2.017   3.808   6.210 -1.1454  0.6451  0.4901
   24CHL1   C20 1752   1.777   4.024   5.290  0.7234 -0.1019 -0.1127
   24CHL1   H20 1753   1.668   4.025   5.314 -0.0810 -2.6066 -3.0123
   24CHL1   C21 1754   1.811   3.873   5.278  0.3909  0.1662  0.2967
   24CHL1  H21A 1755   1.750   3.819   5.353  0.4520  0.4566  0.5581
   24CHL1  H21B 1756   1.914   3.849   5.311 -0.4560 -2.4087  1.2621
   24CHL1  H21C 1757   1.781   3.838   5.177 -0.2761  1.7096 -0.0755
   24CHL1   C22 1758   1.797   4.119   5.168  0.5105  0.0973 -0.2963
   24CHL1  H22A 1759   1.790   4.228   5.185  0.9916  0.0743  0.0547
   24CHL1  H22B 1760   1.900   4.091   5.139  0.5052 -0.7755  0.4733
   24CHL1   C23 1761   1.693   4.093   5.054 -0.1552 -0.4089 -0.1442
   24CHL1  H23A 1762   1.712   3.992   5.012 -1.5499 -1.8529  2.4246
   24CHL1  H23B 1763   1.593   4.097   5.102  0.4218 -2.1250  1.3606
   24CHL1   C24 1764   1.705   4.195   4.942 -0.2839 -0.7675  0.2621
   24CHL1  H24A 1765   1.744   4.288   4.989 -1.0229 -1.5585  2.6025
   24CHL1  H24B 1766   1.768   4.154   4.860 -3.0199 -2.8628 -0.9774
   24CHL1   C25 1767   1.580   4.242   4.867 -0.5294 -0.6533  0.5729
   24CHL1   H25 1768   1.489   4.264   4.926 -1.4949 -1.7299 -0.4426
   24CHL1   C26 1769   1.612   4.372   4.782 -0.1090 -0.5824  0.6427
   24CHL1  H26A 1770   1.705   4.361   4.721 -0.2797  0.7653  0.1070
   24CHL1  H26B 1771   1.532   4.381   4.706  0.9247  1.2341 -0.3078
   24CHL1  H26C 1772   1.618   4.453   4.858  0.7039 -2.4139  2.6454
   24CHL1   C27 1773   1.548   4.135   4.761 -0.2361 -0.1454  0.0711
   24CHL1  H27A 1774   1.633   4.113   4.693  1.2383  1.4836  1.2787
   24CHL1  H27B 1775   1.522   4.043   4.818  0.0903 -0.5156 -0.3680
   24CHL1  H27C 1776   1.459   4.159   4.698 -0.3748 -0.9781 -0.0550
   25CHL1    C3 1777   4.921   3.727   5.863  0.0990 -0.1664 -0.3978
   25CHL1    H3 1778   4.837   3.772   5.806  0.9655 -0.7207 -2.1972
   25CHL1    O3 1779   4.894   3.736   6.001  0.4534  0.1009  0.4213
   25CHL1   H3' 1780   4.822   3.673   6.009  2.2718 -2.0034  0.9601
   25CHL1    C4 1781   4.920   3.579   5.826 -0.9863 -0.0047  0.2901
   25CHL1   H4A 1782   4.994   3.526   5.890 -1.5139 -1.2139 -0.0604
   25CHL1   H4B 1783   4.820   3.540   5.854 -1.6554  0.9344 -0.7016
   25CHL1    C5 1784   4.947   3.559   5.676 -0.1150 -0.0611 -0.3245
   25CHL1    C6 1785   4.856   3.516   5.588 -0.0745 -0.4012 -0.2129
   25CHL1    H6 1786   4.759   3.484   5.630  0.3669 -0.5440  0.7143
   25CHL1    C7 1787   4.873   3.504   5.437 -0.3457 -0.0162  0.2160
   25CHL1   H7A 1788   4.821   3.412   5.403 -0.3459 -0.3383  1.0599
   25CHL1   H7B 1789   4.826   3.595   5.393 -0.7720 -0.0083  0.6740
   25CHL1    C8 1790   5.019   3.498   5.401  0.0074 -0.3576  0.1818
   25CHL1    H8 1791   5.059   3.402   5.440  0.9487 -0.6335 -1.3513
   25CHL1   C14 1792   5.042   3.496   5.248  0.0255 -0.0730 -0.3562
   25CHL1   H14 1793   4.995   3.586   5.203  2.3250  0.6823 -1.3873
   25CHL1   C15 1794   4.980   3.394   5.161 -0.5524  0.1089  0.8258
   25CHL1  H15A 1795   4.986   3.297   5.215 -1.8919 -1.1911 -1.1944
   25CHL1  H15B 1796   4.874   3.421   5.141 -1.3676 -0.4884  3.8657
   25CHL1   C16 1797   5.055   3.408   5.030 -0.2729  0.1584 -0.6693
   25CHL1  H16A 1798   5.100   3.309   5.007 -0.4807  0.5374 -2.8823
   25CHL1  H16B 1799   4.998   3.436   4.939 -1.9075 -1.6550 -0.2759
   25CHL1   C17 1800   5.173   3.507   5.056 -0.3479  0.0285 -0.4887
   25CHL1   H17 1801   5.139   3.608   5.026  1.2528  0.6702 -0.2901
   25CHL1   C13 1802   5.187   3.505   5.208  1.0057 -0.2123  0.1462
   25CHL1   C18 1803   5.254   3.365   5.246  0.0510 -0.2532  0.1022
   25CHL1  H18A 1804   5.225   3.276   5.186  0.8187 -1.2333  1.1389
   25CHL1  H18B 1805   5.363   3.376   5.230 -0.2887  0.2988 -2.2051
   25CHL1  H18C 1806   5.254   3.345   5.356  0.3256 -0.2145  0.1081
   25CHL1   C12 1807   5.251   3.629   5.264 -0.1088 -0.1986 -0.9255
   25CHL1  H12A 1808   5.360   3.625   5.246 -0.0402  0.3103 -0.6254
   25CHL1  H12B 1809   5.204   3.725   5.234  1.0427  0.7597  0.2399
   25CHL1   C11 1810   5.248   3.623   5.428  0.4025  0.3337 -0.1637
   25CHL1  H11A 1811   5.317   3.543   5.461 -1.0623 -1.7329 -1.8256
   25CHL1  H11B 1812   5.279   3.723   5.466 -2.5035  1.3706 -0.2518
   25CHL1    C9 1813   5.096   3.612   5.477  0.0373 -0.4627 -0.8452
   25CHL1    H9 1814   5.047   3.707   5.447  0.3423  0.8887  2.5213
   25CHL1   C10 1815   5.081   3.612   5.631  0.3132  0.3816 -0.4951
   25CHL1   C19 1816   5.204   3.540   5.690  0.3471  0.0373 -0.0703
   25CHL1  H19A 1817   5.298   3.598   5.679  0.5839 -0.2380  0.4661
   25CHL1  H19B 1818   5.188   3.517   5.798 -1.2561 -0.6135 -0.4192
   25CHL1  H19C 1819   5.214   3.449   5.627 -0.2156  1.5171 -2.4181
   25CHL1    C1 1820   5.084   3.761   5.676 -0.1066 -0.3129 -0.0323
   25CHL1   H1A 1821   5.188   3.799   5.675 -0.7714  1.7010  0.9915
   25CHL1   H1B 1822   5.008   3.825   5.627 -0.9974 -1.3396 -0.0376
   25CHL1    C2 1823   5.058   3.782   5.827 -0.1799 -0.1500 -0.5044
   25CHL1   H2A 1824   5.050   3.891   5.851  0.7741 -0.4859  1.4964
   25CHL1   H2B 1825   5.139   3.734   5.887 -3.1303 -1.7176  2.5411
   25CHL1   C20 1826   5.301   3.471   4.978  0.5891 -0.2906 -0.2562
   25CHL1   H20 1827   5.356   3.394   5.035 -1.1825  0.0632  2.0680
   25CHL1   C21 1828   5.398   3.590   4.956  0.3577  0.0930  0.5514
   25CHL1  H21A 1829   5.343   3.682   4.928  0.2595 -0.3215 -0.6985
   25CHL1  H21B 1830   5.475   3.566   4.879 -1.4446 -1.8651 -0.7329
   25CHL1  H21C 1831   5.454   3.617   5.049  1.5507 -2.0225  0.5137
   25CHL1   C22 1832   5.272   3.396   4.838 -0.3807  0.4220  0.0529
   25CHL1  H22A 1833   5.251   3.288   4.855  1.4090  0.0756  0.2565
   25CHL1  H22B 1834   5.182   3.452   4.803 -0.3785  1.2370  1.2672
   25CHL1   C23 1835   5.383   3.406   4.725  0.0545  0.1404  0.8620
   25CHL1  H23A 1836   5.404   3.511   4.693 -0.6041  0.5465  1.6885
   25CHL1  H23B 1837   5.478   3.362   4.761  2.0426  2.9519 -0.5911
   25CHL1   C24 1838   5.342   3.320   4.604 -0.2157  0.3426 -0.4581
   25CHL1  H24A 1839   5.415   3.317   4.520 -0.6295  0.6627 -0.8371
   25CHL1  H24B 1840   5.343   3.214   4.637 -1.1628  0.1719 -0.9499
   25CHL1   C25 1841   5.197   3.351   4.552  0.3287  0.0268 -0.3377
   25CHL1   H25 1842   5.129   3.325   4.636  0.9685 -0.9956 -0.1193
   25CHL1   C26 1843   5.184   3.493   4.507  0.1664 -0.6408 -0.5683
   25CHL1  H26A 1844   5.077   3.509   4.483  0.0458 -1.8477 -0.9403
   25CHL1  H26B 1845   5.225   3.569   4.576 -0.5561  3.0601 -3.8911
   25CHL1  H26C 1846   5.250   3.505   4.418  0.5294  0.6853 -0.1405
   25CHL1   C27 1847   5.164   3.248   4.438  0.1338  0.0807  0.4362
   25CHL1  H27A 1848   5.057   3.266   4.415 -0.0710  0.3524  1.5482
   25CHL1  H27B 1849   5.240   3.267   4.358  0.3863  1.0821  0.8918
   25CHL1  H27C 1850   5.177   3.144   4.474  2.4279  0.9621  2.4967
   26CHL1    C3 1851   5.412   0.930   6.324 -0.1440  0.0098  0.4199
   26CHL1    H3 1852   5.335   1.004   6.292  0.7800  1.1613  0.7975
   26CHL1    O3 1853   5.394   0.899   6.462 -0.0040  0.9876  0.4004
   26CHL1   H3' 1854   5.478   0.863   6.492 -0.3056 -1.7268 -1.5309
   26CHL1    C4 1855   5.414   0.793   6.249 -0.3829 -0.2556 -0.2512
   26CHL1   H4A 1856   5.495   0.726   6.285 -0.2616 -0.2945 -0.5922
   26CHL1   H4B 1857   5.328   0.726   6.266 -0.7245  0.2552  0.0518
   26CHL1    C5 1858   5.430   0.817   6.096 -0.2763 -0.2253  0.1491
   26CHL1    C6 1859   5.329   0.788   6.014 -0.5495 -0.5326 -0.5074
   26CHL1    H6 1860   5.242   0.739   6.060 -1.3212 -0.0540 -1.4332
   26CHL1    C7 1861   5.321   0.826   5.862  0.1847  0.6211 -0.7566
   26CHL1   H7A 1862   5.278   0.739   5.808 -1.5847 -0.0209  1.5529
   26CHL1   H7B 1863   5.262   0.916   5.837  0.0273  0.3790 -1.2673
   26CHL1    C8 1864   5.463   0.862   5.813 -0.5226  0.2875 -0.6096
   26CHL1    H8 1865   5.513   0.763   5.818 -3.6886 -1.5654 -2.4033
   26CHL1   C14 1866   5.458   0.918   5.672  0.1414  0.4109 -0.1211
   26CHL1   H14 1867   5.403   1.014   5.677  1.6674  1.2688  0.8005
   26CHL1   C15 1868   5.394   0.824   5.569  0.0082 -0.0183  0.2139
   26CHL1  H15A 1869   5.422   0.716   5.571 -1.4480 -0.4110  1.4336
   26CHL1  H15B 1870   5.283   0.830   5.574 -0.2224 -2.5745 -0.5136
   26CHL1   C16 1871   5.445   0.877   5.429  0.2568  0.9373  0.0199
   26CHL1  H16A 1872   5.499   0.798   5.372 -0.0489  0.5296  0.2880
   26CHL1  H16B 1873   5.368   0.923   5.363  0.3799  2.0178  0.6174
   26CHL1   C17 1874   5.562   0.985   5.465 -0.2909 -0.0788  0.0046
   26CHL1   H17 1875   5.513   1.084   5.453  0.7786  0.4917  0.1661
   26CHL1   C13 1876   5.594   0.954   5.613 -0.3127 -0.1256 -0.8245
   26CHL1   C18 1877   5.687   0.826   5.623 -0.2181 -0.1419  0.6918
   26CHL1  H18A 1878   5.705   0.769   5.717 -0.2584  0.0420  0.8105
   26CHL1  H18B 1879   5.652   0.743   5.558 -0.5075 -0.2170  0.9417
   26CHL1  H18C 1880   5.790   0.855   5.593  0.8440 -3.1467  1.1101
   26CHL1   C12 1881   5.650   1.070   5.696 -0.2559 -0.5009  0.0640
   26CHL1  H12A 1882   5.744   1.111   5.653 -0.9890 -0.7925 -1.9463
   26CHL1  H12B 1883   5.585   1.161   5.698  0.2198 -0.1679  0.7443
   26CHL1   C11 1884   5.660   1.027   5.847  0.2353 -0.0526 -0.2375
   26CHL1  H11A 1885   5.740   0.950   5.844  0.0715 -0.1844 -1.5065
   26CHL1  H11B 1886   5.713   1.114   5.893  1.4425  0.3801 -2.2951
   26CHL1    C9 1887   5.534   0.964   5.911  0.5498  0.3360  0.5525
   26CHL1    H9 1888   5.469   1.053   5.924  1.3443  1.5584 -2.9522
   26CHL1   C10 1889   5.552   0.904   6.051  0.0092  0.5588 -0.0527
   26CHL1   C19 1890   5.678   0.814   6.060 -0.4734  0.1584 -0.3641
   26CHL1  H19A 1891   5.772   0.859   6.021 -0.2892  0.1680  0.0859
   26CHL1  H19B 1892   5.692   0.781   6.165 -0.3865  1.9494  0.2174
   26CHL1  H19C 1893   5.662   0.727   5.993 -1.0348 -0.5355  0.6477
   26CHL1    C1 1894   5.575   1.026   6.158 -0.5886 -0.1392  0.7165
   26CHL1   H1A 1895   5.681   1.058   6.149  0.1917 -2.9354 -1.5448
   26CHL1   H1B 1896   5.493   1.099   6.143 -2.4672 -1.8144  2.3614
   26CHL1    C2 1897   5.555   0.995   6.304 -0.0982  0.1605  0.0020
   26CHL1   H2A 1898   5.563   1.089   6.362  0.8465  0.7412 -1.0217
   26CHL1   H2B 1899   5.626   0.922   6.349  0.9323  2.2306  1.9869
   26CHL1   C20 1900   5.667   0.976   5.345  0.0189 -0.0916 -0.5722
   26CHL1   H20 1901   5.702   0.871   5.340  1.2789  0.2981 -0.3692
   26CHL1   C21 1902   5.795   1.050   5.374 -1.1261 -0.3297 -0.1661
   26CHL1  H21A 1903   5.785   1.161   5.367 -1.5092 -0.2382  1.5047
   26CHL1  H21B 1904   5.880   1.021   5.309 -0.9671 -1.5048  0.5403
   26CHL1  H21C 1905   5.830   1.028   5.477  2.9051 -1.0462 -1.4913
   26CHL1   C22 1906   5.597   1.007   5.216 -0.6539 -0.9489  0.8310
   26CHL1  H22A 1907   5.511   0.941   5.193 -0.5238 -1.5336  1.9400
   26CHL1  H22B 1908   5.561   1.112   5.211  1.6671 -0.1510 -1.2094
   26CHL1   C23 1909   5.687   0.992   5.089  0.4230 -0.0177 -0.1970
   26CHL1  H23A 1910   5.777   1.057   5.087  0.5548 -0.2079 -1.5437
   26CHL1  H23B 1911   5.725   0.889   5.077 -1.4624 -0.6739 -0.9721
   26CHL1   C24 1912   5.617   1.029   4.948  0.8608  0.9366 -0.2267
   26CHL1  H24A 1913   5.511   0.997   4.952  0.6294  1.5623 -1.0547
   26CHL1  H24B 1914   5.606   1.140   4.944 -0.7925  0.7610 -3.0105
   26CHL1   C25 1915   5.696   0.986   4.821 -0.6804  0.0191 -0.7014
   26CHL1   H25 1916   5.806   0.997   4.828 -0.6868 -0.4951  0.4593
   26CHL1   C26 1917   5.677   0.837   4.793  0.3120  0.3475  0.5296
   26CHL1  H26A 1918   5.730   0.811   4.699 -0.6543 -1.0340  0.3382
   26CHL1  H26B 1919   5.702   0.771   4.879  2.2519 -1.4887 -1.3500
   26CHL1  H26C 1920   5.569   0.818   4.777  0.6420 -3.1009  1.5439
   26CHL1   C27 1921   5.650   1.072   4.702  0.1361  0.4234 -0.6273
   26CHL1  H27A 1922   5.544   1.038   4.698  0.6246 -1.3161  0.4779
   26CHL1  H27B 1923   5.646   1.181   4.722 -1.6682  0.5602 -1.5153
   26CHL1  H27C 1924   5.710   1.050   4.611 -1.0507  0.2104 -1.3836
   27CHL1    C3 1925   1.892   2.657   6.351 -0.3851  0.3345 -0.3612
   27CHL1    H3 1926   1.782   2.652   6.337 -0.5770 -1.2538  1.2763
   27CHL1    O3 1927   1.918   2.666   6.491 -0.2114 -0.4069 -0.1916
   27CHL1   H3' 1928   1.994   2.613   6.519  0.6369  1.1159  0.5466
   27CHL1    C4 1929   1.958   2.529   6.299  0.6036 -0.0628 -0.5473
   27CHL1   H4A 1930   2.057   2.517   6.349 -0.1528  0.1491  1.0556
   27CHL1   H4B 1931   1.903   2.440   6.336  0.9470  0.5140  1.4574
   27CHL1    C5 1932   1.973   2.517   6.147  0.2655 -0.2430  0.6023
   27CHL1    C6 1933   1.929   2.409   6.079  0.3785 -0.3641 -0.1674
   27CHL1    H6 1934   1.875   2.331   6.133  0.3411 -0.1958  0.0375
   27CHL1    C7 1935   1.949   2.393   5.929 -0.1938  0.2183  0.6714
   27CHL1   H7A 1936   1.978   2.287   5.916 -0.7410  0.1547 -0.1373
   27CHL1   H7B 1937   1.852   2.399   5.874  0.3238 -1.1955 -0.4666
   27CHL1    C8 1938   2.038   2.496   5.857  0.1602  0.5803  0.2831
   27CHL1    H8 1939   2.143   2.470   5.882  0.6361  1.1505 -1.0183
   27CHL1   C14 1940   2.013   2.499   5.708  0.9614 -0.0792  0.1207
   27CHL1   H14 1941   1.909   2.536   5.694  1.1027  1.3198  2.2916
   27CHL1   C15 1942   2.011   2.370   5.628  0.1937  0.0349  0.6163
   27CHL1  H15A 1943   2.098   2.313   5.669 -0.9576 -0.3819  2.6401
   27CHL1  H15B 1944   1.919   2.311   5.646  0.8007 -0.6992  1.4764
   27CHL1   C16 1945   2.026   2.410   5.482 -0.1172 -0.1143 -0.3456
   27CHL1  H16A 1946   2.101   2.353   5.423  0.6584  1.4312 -0.9111
   27CHL1  H16B 1947   1.935   2.398   5.420  0.3385  1.1456 -1.3086
   27CHL1   C17 1948   2.053   2.566   5.483 -0.9604 -0.5806 -0.3924
   27CHL1   H17 1949   1.953   2.612   5.469 -1.4180  0.4414  4.3194
   27CHL1   C13 1950   2.093   2.597   5.631 -0.7139  0.0509  0.9744
   27CHL1   C18 1951   2.243   2.555   5.641  0.3602 -0.3120  0.5338
   27CHL1  H18A 1952   2.291   2.569   5.740 -0.0891 -0.5394  0.7836
   27CHL1  H18B 1953   2.266   2.451   5.609  1.2576  0.5657 -1.9414
   27CHL1  H18C 1954   2.300   2.633   5.586  1.5855 -0.4855  1.5125
   27CHL1   C12 1955   2.062   2.744   5.690  0.3708  0.3150  0.8898
   27CHL1  H12A 1956   2.114   2.826   5.637  0.4210 -0.2636  0.0205
   27CHL1  H12B 1957   1.957   2.763   5.661  0.4572 -1.8912 -1.1919
   27CHL1   C11 1958   2.086   2.750   5.840  0.3122  0.0341  0.4899
   27CHL1  H11A 1959   2.195   2.761   5.854  0.5485 -1.8785  0.4297
   27CHL1  H11B 1960   2.036   2.844   5.874  0.7896  0.0027  1.3134
   27CHL1    C9 1961   2.009   2.637   5.916 -0.2135 -0.4772  0.0306
   27CHL1    H9 1962   1.902   2.659   5.895  0.1613 -0.8226 -2.5454
   27CHL1   C10 1963   2.030   2.639   6.072  0.4301  0.3884  0.8719
   27CHL1   C19 1964   2.186   2.632   6.113  0.1955  0.0704 -0.0578
   27CHL1  H19A 1965   2.225   2.535   6.075 -0.9815 -1.4966  2.4750
   27CHL1  H19B 1966   2.239   2.719   6.067  0.2934 -0.3795 -0.8096
   27CHL1  H19C 1967   2.188   2.647   6.223  0.5686  1.7764 -0.2713
   27CHL1    C1 1968   1.960   2.766   6.128  0.0576  0.3257 -0.0269
   27CHL1   H1A 1969   2.028   2.852   6.107 -0.8223  0.7955 -0.9905
   27CHL1   H1B 1970   1.862   2.791   6.084  0.0072  2.6830  1.2417
   27CHL1    C2 1971   1.960   2.778   6.281 -0.0522 -0.4616  0.2428
   27CHL1   H2A 1972   1.905   2.868   6.316 -1.2831 -1.6715  1.5852
   27CHL1   H2B 1973   2.064   2.786   6.320  0.2288  0.1266 -0.6006
   27CHL1   C20 1974   2.150   2.605   5.368  0.0749 -0.6535  0.6876
   27CHL1   H20 1975   2.249   2.561   5.393 -0.0228 -0.4917  1.3858
   27CHL1   C21 1976   2.153   2.758   5.367  0.5768 -0.2060  0.7275
   27CHL1  H21A 1977   2.214   2.802   5.449  2.0441  2.3226 -1.5680
   27CHL1  H21B 1978   2.049   2.791   5.387  0.8805  0.1360  1.8372
   27CHL1  H21C 1979   2.194   2.807   5.276 -2.4078  0.8003 -0.1904
   27CHL1   C22 1980   2.106   2.557   5.229 -0.3560 -0.6112  0.6680
   27CHL1  H22A 1981   2.176   2.618   5.168 -0.2203 -0.7222  0.7130
   27CHL1  H22B 1982   2.127   2.450   5.210  3.6080 -0.0579  1.1332
   27CHL1   C23 1983   1.961   2.586   5.184 -0.1704  0.1434 -0.5348
   27CHL1  H23A 1984   1.896   2.520   5.246  1.1461 -2.3593 -1.6948
   27CHL1  H23B 1985   1.934   2.691   5.209 -0.3614  0.4874 -2.0777
   27CHL1   C24 1986   1.948   2.559   5.036  0.7172  0.2422  0.4392
   27CHL1  H24A 1987   2.015   2.621   4.974 -0.1939  0.3946 -0.4067
   27CHL1  H24B 1988   1.988   2.458   5.015 -0.5543 -0.5596  1.6027
   27CHL1   C25 1989   1.806   2.568   4.977  0.2307 -0.0909  0.1709
   27CHL1   H25 1990   1.736   2.519   5.048 -3.1522  2.5847 -1.0402
   27CHL1   C26 1991   1.756   2.714   4.985  0.3696  0.3010  0.2190
   27CHL1  H26A 1992   1.656   2.715   4.934  0.2474  0.4247  0.4612
   27CHL1  H26B 1993   1.745   2.747   5.090 -0.3344  2.2096 -0.4023
   27CHL1  H26C 1994   1.822   2.779   4.924 -0.4405  2.1609  1.2361
   27CHL1   C27 1995   1.792   2.508   4.833  0.0701 -0.9104 -0.7411
   27CHL1  H27A 1996   1.683   2.504   4.812  0.0632  0.8307 -1.1530
   27CHL1  H27B 1997   1.836   2.574   4.755 -1.6470  1.1824 -0.0342
   27CHL1  H27C 1998   1.816   2.400   4.827 -1.3041 -1.4461  2.0851
   28CHL1    C3 1999   0.272   0.003   6.098  0.4807 -0.9653 -0.2208
   28CHL1    H3 2000   0.191   0.074   6.070  1.9296  0.7195 -0.3119
   28CHL1    O3 2001   0.319   0.038   6.223 -0.6611  0.1996  0.2930
   28CHL1   H3' 2002   0.247   0.016   6.283  1.9470  0.4469  3.8018
   28CHL1    C4 2003   0.219  -0.140   6.097 -0.1244  0.1247 -0.1421
   28CHL1   H4A 2004   0.297  -0.210   6.134 -1.8091 -1.3681  0.7784
   28CHL1   H4B 2005   0.136  -0.153   6.169 -0.7123 -3.7660 -1.2881
   28CHL1    C5 2006   0.169  -0.177   5.958  0.1271  0.4142  0.3680
   28CHL1    C6 2007   0.044  -0.230   5.933  0.1791 -0.3666 -0.0651
   28CHL1    H6 2008  -0.022  -0.262   6.015  1.0667  1.5411  1.4597
   28CHL1    C7 2009  -0.013  -0.247   5.791 -0.5900  0.5987 -0.2774
   28CHL1   H7A 2010  -0.082  -0.334   5.796  0.7710 -0.4642  0.8467
   28CHL1   H7B 2011  -0.061  -0.148   5.776 -1.4220  0.3531  0.7059
   28CHL1    C8 2012   0.109  -0.256   5.688  0.7594  0.1236  0.6400
   28CHL1    H8 2013   0.159  -0.354   5.704  0.8208 -0.1525 -1.1046
   28CHL1   C14 2014   0.042  -0.251   5.547  0.0896  0.4388  0.7741
   28CHL1   H14 2015  -0.012  -0.154   5.544 -0.3312  0.2638  2.0109
   28CHL1   C15 2016  -0.069  -0.352   5.513  0.4385  0.0027 -0.6614
   28CHL1  H15A 2017  -0.036  -0.450   5.554 -2.0439 -0.1037  1.2958
   28CHL1  H15B 2018  -0.166  -0.323   5.559  0.4769 -2.1140  0.9376
   28CHL1   C16 2019  -0.065  -0.358   5.358 -0.2676 -0.0905  0.2097
   28CHL1  H16A 2020  -0.048  -0.461   5.320  0.7112  0.5444 -1.1476
   28CHL1  H16B 2021  -0.162  -0.320   5.320  0.5174  0.6083 -1.1802
   28CHL1   C17 2022   0.052  -0.258   5.314 -0.0869  0.0274  0.5795
   28CHL1   H17 2023   0.006  -0.157   5.322 -0.6906 -0.3211  1.6650
   28CHL1   C13 2024   0.145  -0.261   5.430 -0.0964 -0.2141 -0.6050
   28CHL1   C18 2025   0.223  -0.398   5.432 -0.1451 -0.4251  0.0468
   28CHL1  H18A 2026   0.159  -0.489   5.433  0.0862 -0.7254 -3.0975
   28CHL1  H18B 2027   0.292  -0.401   5.345 -1.8154 -0.7203 -1.3364
   28CHL1  H18C 2028   0.290  -0.406   5.520 -0.9658 -1.5193  0.5949
   28CHL1   C12 2029   0.245  -0.142   5.447 -0.6105  0.4140  0.5708
   28CHL1  H12A 2030   0.321  -0.150   5.367 -0.0043  1.7222  0.9960
   28CHL1  H12B 2031   0.189  -0.050   5.420  0.0316 -0.1619 -3.3082
   28CHL1   C11 2032   0.315  -0.147   5.584 -0.4846  0.7955 -0.2414
   28CHL1  H11A 2033   0.386  -0.232   5.597  0.1038  0.8185 -2.7389
   28CHL1  H11B 2034   0.389  -0.065   5.586  1.6800 -1.0300 -0.6536
   28CHL1    C9 2035   0.212  -0.144   5.696 -0.5783 -0.2269 -0.3120
   28CHL1    H9 2036   0.151  -0.054   5.675  2.9309  2.2446 -0.8953
   28CHL1   C10 2037   0.266  -0.137   5.842 -0.4770 -0.1353 -0.8155
   28CHL1   C19 2038   0.395  -0.223   5.868  0.0239 -0.1068  0.9497
   28CHL1  H19A 2039   0.430  -0.230   5.973 -1.8003  2.9623  1.9016
   28CHL1  H19B 2040   0.369  -0.326   5.834  1.8661 -0.6694  1.1368
   28CHL1  H19C 2041   0.477  -0.190   5.801  0.2381  1.6438  2.0170
   28CHL1    C1 2042   0.322   0.011   5.863  0.1342  0.0790 -0.9762
   28CHL1   H1A 2043   0.414   0.031   5.805  0.3165  0.2332 -0.6337
   28CHL1   H1B 2044   0.237   0.080   5.841 -1.0371 -1.2199 -0.6472
   28CHL1    C2 2045   0.377   0.032   6.001 -0.0766 -0.0113 -0.0362
   28CHL1   H2A 2046   0.408   0.138   6.014  0.2935 -0.2032  0.6493
   28CHL1   H2B 2047   0.470  -0.027   6.016  0.8477  1.5490  0.6125
   28CHL1   C20 2048   0.111  -0.277   5.173 -0.1403 -0.5420  0.2621
   28CHL1   H20 2049   0.184  -0.361   5.181 -0.8287 -1.0651  1.2641
   28CHL1   C21 2050   0.176  -0.147   5.112  0.4368 -0.8537  0.1942
   28CHL1  H21A 2051   0.226  -0.169   5.016  1.4200  0.8339  0.2695
   28CHL1  H21B 2052   0.247  -0.094   5.179  1.1991 -0.3667 -0.9658
   28CHL1  H21C 2053   0.097  -0.070   5.095  0.8882 -0.5543 -0.6235
   28CHL1   C22 2054   0.010  -0.334   5.066 -0.8628 -1.0595  0.4533
   28CHL1  H22A 2055  -0.036  -0.430   5.098  1.8523 -2.5485  0.2120
   28CHL1  H22B 2056  -0.072  -0.260   5.055 -0.7457 -1.3235 -3.3002
   28CHL1   C23 2057   0.074  -0.344   4.924  1.5129 -0.1493 -0.3517
   28CHL1  H23A 2058   0.082  -0.239   4.888  1.1616  0.2706  0.7450
   28CHL1  H23B 2059   0.174  -0.391   4.930  1.4599 -0.7266 -2.9372
   28CHL1   C24 2060  -0.023  -0.420   4.824 -1.1218 -0.0190  0.4264
   28CHL1  H24A 2061  -0.127  -0.385   4.810 -1.0297  0.9100  1.7972
   28CHL1  H24B 2062   0.035  -0.404   4.731 -0.3654  0.1428  0.9170
   28CHL1   C25 2063  -0.025  -0.576   4.849 -0.2014  0.7082 -0.6413
   28CHL1   H25 2064   0.064  -0.606   4.908 -0.8426  1.0629  0.5346
   28CHL1   C26 2065  -0.145  -0.628   4.939 -0.1222 -0.4196  0.0092
   28CHL1  H26A 2066  -0.137  -0.606   5.048  1.5150  2.9359 -0.6570
   28CHL1  H26B 2067  -0.233  -0.581   4.890  1.8376  1.4655 -1.9333
   28CHL1  H26C 2068  -0.160  -0.738   4.936  2.0305 -0.7856  0.8253
   28CHL1   C27 2069  -0.035  -0.657   4.714 -0.0335 -0.0524  0.1902
   28CHL1  H27A 2070  -0.007  -0.762   4.739 -1.5250 -0.2213  1.3075
   28CHL1  H27B 2071  -0.133  -0.652   4.662  0.5897  0.5893 -0.9745
   28CHL1  H27C 2072   0.039  -0.619   4.640 -1.0704  1.0503 -0.3158
   29CHL1    C3 2073   5.766   5.796   2.839 -0.6487  0.3596  0.0339
   29CHL1    H3 2074   5.697   5.710   2.854  1.1817 -1.0397  0.8585
   29CHL1    O3 2075   5.805   5.806   2.702 -0.1905 -0.8061 -0.0249
   29CHL1   H3' 2076   5.748   5.878   2.674 -1.7440 -2.6173 -1.9742
   29CHL1    C4 2077   5.711   5.938   2.872  0.5757 -0.0214 -0.3486
   29CHL1   H4A 2078   5.778   6.017   2.832  0.9420  0.3576  0.9577
   29CHL1   H4B 2079   5.625   5.947   2.803  0.3869 -2.3299 -0.5089
   29CHL1    C5 2080   5.683   5.956   3.018  0.2988 -0.0037 -0.5412
   29CHL1    C6 2081   5.558   5.985   3.057 -0.5813  0.1437 -0.0146
   29CHL1    H6 2082   5.479   5.996   2.981  1.7740 -0.3848 -2.7332
   29CHL1    C7 2083   5.522   6.005   3.197 -0.6104 -0.2564 -0.1093
   29CHL1   H7A 2084   5.469   6.101   3.210  1.5580  0.9718  0.2404
   29CHL1   H7B 2085   5.461   5.925   3.244  0.9425 -0.8888  0.9327
   29CHL1    C8 2086   5.650   6.016   3.292  0.4003  0.3867  0.4045
   29CHL1    H8 2087   5.678   6.123   3.275 -1.8761  1.1153  0.7860
   29CHL1   C14 2088   5.615   5.994   3.444  0.4369  0.0221 -0.2875
   29CHL1   H14 2089   5.586   5.886   3.447 -0.6910  0.3117 -0.3192
   29CHL1   C15 2090   5.495   6.072   3.500 -0.1542 -0.0705  0.2454
   29CHL1  H15A 2091   5.496   6.175   3.459  1.9846 -0.0791  0.1743
   29CHL1  H15B 2092   5.402   6.018   3.470 -0.3703 -0.2487  1.1970
   29CHL1   C16 2093   5.511   6.071   3.646 -0.5146  0.1842 -0.8021
   29CHL1  H16A 2094   5.528   6.176   3.678  2.2972 -0.1983 -0.7800
   29CHL1  H16B 2095   5.421   6.016   3.681  1.2768 -1.9375  0.7465
   29CHL1   C17 2096   5.644   5.995   3.677 -0.1715 -0.4827 -0.3018
   29CHL1   H17 2097   5.632   5.885   3.677 -1.4017 -0.3592  0.1954
   29CHL1   C13 2098   5.732   6.014   3.547 -0.1998 -0.3282 -0.5824
   29CHL1   C18 2099   5.788   6.158   3.547  0.4315 -0.0144  0.7631
   29CHL1  H18A 2100   5.708   6.231   3.570 -1.4886 -1.2857 -1.5064
   29CHL1  H18B 2101   5.879   6.179   3.607  1.4534  2.6992 -1.5623
   29CHL1  H18C 2102   5.818   6.191   3.446  2.1792  1.9305  1.8377
   29CHL1   C12 2103   5.845   5.923   3.510  0.2254  0.4369 -0.0778
   29CHL1  H12A 2104   5.929   5.932   3.582  1.4458 -3.5164 -0.7697
   29CHL1  H12B 2105   5.802   5.823   3.531 -1.6001  0.6843 -2.2720
   29CHL1   C11 2106   5.888   5.934   3.364  0.0352 -0.4976  0.2519
   29CHL1  H11A 2107   5.941   6.029   3.344 -0.6726  0.4729  2.6209
   29CHL1  H11B 2108   5.959   5.851   3.341  0.5326  0.2865 -1.1723
   29CHL1    C9 2109   5.764   5.922   3.259 -0.3210  0.1734  0.1058
   29CHL1    H9 2110   5.724   5.820   3.274 -0.4777  0.3483  0.9334
   29CHL1   C10 2111   5.805   5.935   3.109 -0.4321 -0.1469 -0.7510
   29CHL1   C19 2112   5.913   6.051   3.091  0.5956 -0.0884  0.7480
   29CHL1  H19A 2113   5.878   6.146   3.136  0.5539 -0.3362  1.2425
   29CHL1  H19B 2114   6.011   6.022   3.136  1.1814 -0.0958 -0.4753
   29CHL1  H19C 2115   5.939   6.070   2.984 -0.0369 -0.1191  0.5840
   29CHL1    C1 2116   5.866   5.795   3.072 -0.0613 -0.7861 -1.3184
   29CHL1   H1A 2117   5.956   5.778   3.135 -1.3450  0.7847  1.0888
   29CHL1   H1B 2118   5.795   5.714   3.100  0.8390 -0.7694  1.3597
   29CHL1    C2 2119   5.894   5.771   2.920  0.0264 -0.6746  0.3717
   29CHL1   H2A 2120   5.944   5.673   2.909 -0.2975 -0.6834 -1.2128
   29CHL1   H2B 2121   5.961   5.856   2.893 -1.6469  0.1747 -1.4104
   29CHL1   C20 2122   5.699   6.041   3.813  0.3649  0.3631  1.0743
   29CHL1   H20 2123   5.718   6.151   3.803  2.9176 -0.1776 -1.6637
   29CHL1   C21 2124   5.823   5.955   3.844  0.7197 -0.2918  0.0970
   29CHL1  H21A 2125   5.815   5.852   3.803 -0.6183 -0.6415  1.1986
   29CHL1  H21B 2126   5.841   5.951   3.953 -1.2899  2.2983  0.6207
   29CHL1  H21C 2127   5.921   5.991   3.804  1.2264 -0.1991  1.3603
   29CHL1   C22 2128   5.592   6.015   3.929  0.1868 -0.5846  0.6371
   29CHL1  H22A 2129   5.487   6.033   3.896  0.5046  0.7206  0.3144
   29CHL1  H22B 2130   5.597   5.907   3.956 -0.8051 -0.8931 -0.3430
   29CHL1   C23 2131   5.613   6.108   4.046 -0.0857 -0.5213 -0.2768
   29CHL1  H23A 2132   5.720   6.103   4.076 -0.1924 -0.9490  0.0431
   29CHL1  H23B 2133   5.594   6.216   4.028  3.9028  0.8912  2.6406
   29CHL1   C24 2134   5.514   6.065   4.164  0.2269 -0.1801  0.3489
   29CHL1  H24A 2135   5.412   6.063   4.120  0.3744  0.2358 -0.0175
   29CHL1  H24B 2136   5.541   5.968   4.210 -0.5177 -0.3396  0.4694
   29CHL1   C25 2137   5.512   6.178   4.273 -0.5235 -0.2096  0.1037
   29CHL1   H25 2138   5.426   6.154   4.340 -0.2583 -0.9637  0.1802
   29CHL1   C26 2139   5.647   6.195   4.349  0.5724 -0.4868  0.5362
   29CHL1  H26A 2140   5.636   6.290   4.406  0.8730  0.1500 -0.4481
   29CHL1  H26B 2141   5.677   6.119   4.424  1.4417 -0.1694  0.5301
   29CHL1  H26C 2142   5.728   6.219   4.277 -0.0042 -0.4447 -0.1009
   29CHL1   C27 2143   5.475   6.320   4.230  0.5929  0.1460 -0.0972
   29CHL1  H27A 2144   5.415   6.384   4.298 -1.6977 -1.2357 -0.7035
   29CHL1  H27B 2145   5.570   6.374   4.212 -0.3314  1.6778 -0.5721
   29CHL1  H27C 2146   5.417   6.323   4.135  0.2227  1.9328  0.1637
   30CHL1    C3 2147   6.417   1.204   2.459 -0.5396 -0.5004 -0.5737
   30CHL1    H3 2148   6.344   1.267   2.404 -0.4732 -1.1746 -1.4551
   30CHL1    O3 2149   6.440   1.080   2.391  0.4276 -0.0771 -0.7667
   30CHL1   H3' 2150   6.480   1.023   2.457 -0.1748  0.3870  0.0183
   30CHL1    C4 2151   6.551   1.279   2.472 -0.1467 -0.0021  0.2130
   30CHL1   H4A 2152   6.632   1.212   2.507  1.3852  0.7876 -1.6353
   30CHL1   H4B 2153   6.575   1.308   2.367  0.7777  2.0482  0.9457
   30CHL1    C5 2154   6.547   1.406   2.555 -0.2283  0.6727  0.7011
   30CHL1    C6 2155   6.575   1.529   2.505  0.2305  0.0573  0.3003
   30CHL1    H6 2156   6.621   1.538   2.406 -0.4216 -0.4480 -0.0542
   30CHL1    C7 2157   6.557   1.657   2.571  0.2354  0.3693  0.1189
   30CHL1   H7A 2158   6.643   1.723   2.546  2.0584 -2.6123 -2.2313
   30CHL1   H7B 2159   6.463   1.709   2.545 -1.0553 -2.0410 -0.3225
   30CHL1    C8 2160   6.537   1.628   2.723 -0.4396 -0.3082  0.7248
   30CHL1    H8 2161   6.642   1.603   2.753  0.3216  0.4016 -1.2344
   30CHL1   C14 2162   6.499   1.758   2.795 -0.3854 -0.4468  0.6620
   30CHL1   H14 2163   6.395   1.766   2.758 -0.6242  1.9152  1.6518
   30CHL1   C15 2164   6.564   1.892   2.762 -0.6905  0.4845  0.6132
   30CHL1  H15A 2165   6.672   1.876   2.741 -1.3692 -1.2965 -2.1835
   30CHL1  H15B 2166   6.519   1.951   2.680  0.1641  2.1888  1.3291
   30CHL1   C16 2167   6.530   1.982   2.883 -0.1816  0.0070 -0.0954
   30CHL1  H16A 2168   6.628   2.018   2.922  0.5260  0.2267 -1.9304
   30CHL1  H16B 2169   6.480   2.077   2.856  1.2719  1.2347  1.3059
   30CHL1   C17 2170   6.448   1.894   2.982  0.2107 -0.4297 -0.3742
   30CHL1   H17 2171   6.343   1.900   2.947 -0.4232  0.2056  1.5163
   30CHL1   C13 2172   6.494   1.751   2.948 -0.3524 -0.8206 -0.0143
   30CHL1   C18 2173   6.630   1.712   3.010 -0.0205 -0.1393  0.8886
   30CHL1  H18A 2174   6.633   1.702   3.120  2.7699 -3.6238  0.6919
   30CHL1  H18B 2175   6.666   1.616   2.967 -0.5378 -0.6559  1.5885
   30CHL1  H18C 2176   6.714   1.780   2.984 -0.1781  0.1435  1.1144
   30CHL1   C12 2177   6.382   1.644   2.968 -0.1147 -0.0156  0.1364
   30CHL1  H12A 2178   6.372   1.623   3.077 -1.3927  1.2037  0.2892
   30CHL1  H12B 2179   6.284   1.683   2.933  1.2509  2.1074 -1.5525
   30CHL1   C11 2180   6.410   1.507   2.907  0.5327  0.1010 -0.2420
   30CHL1  H11A 2181   6.498   1.470   2.965 -0.3323  1.2059  1.8718
   30CHL1  H11B 2182   6.332   1.432   2.932  0.8432  0.1784  1.0897
   30CHL1    C9 2183   6.440   1.515   2.756  0.4092  0.5067 -0.4608
   30CHL1    H9 2184   6.351   1.553   2.701  0.7233  0.9488 -0.6603
   30CHL1   C10 2185   6.482   1.385   2.693  0.4201 -0.0934 -0.0256
   30CHL1   C19 2186   6.586   1.309   2.779  0.1507 -0.0057 -0.2913
   30CHL1  H19A 2187   6.619   1.213   2.734  0.2985  0.0489 -0.3030
   30CHL1  H19B 2188   6.676   1.369   2.803  0.0657 -0.4797  1.3026
   30CHL1  H19C 2189   6.540   1.275   2.874 -2.1234 -0.1130 -1.3581
   30CHL1    C1 2190   6.353   1.307   2.679  0.0627 -0.2048 -0.2850
   30CHL1   H1A 2191   6.331   1.272   2.781  1.8362 -0.4470  0.0499
   30CHL1   H1B 2192   6.274   1.376   2.642  1.2171  0.0999 -2.3750
   30CHL1    C2 2193   6.373   1.175   2.600 -0.0087 -0.4277  0.0034
   30CHL1   H2A 2194   6.278   1.118   2.608 -0.5250  0.4815  0.5105
   30CHL1   H2B 2195   6.441   1.104   2.650  1.8622 -0.1110 -1.9152
   30CHL1   C20 2196   6.457   1.946   3.122 -0.5142  0.7215  0.0317
   30CHL1   H20 2197   6.563   1.932   3.152 -0.4243 -0.7394 -0.9066
   30CHL1   C21 2198   6.376   1.862   3.229 -0.5077  0.0640  0.2331
   30CHL1  H21A 2199   6.275   1.839   3.190 -0.0198  1.1725 -1.8444
   30CHL1  H21B 2200   6.375   1.903   3.333 -1.8214  0.5013  0.0636
   30CHL1  H21C 2201   6.432   1.767   3.238  0.8288  0.9380  1.6329
   30CHL1   C22 2202   6.414   2.096   3.129 -0.0173  0.2073  0.2302
   30CHL1  H22A 2203   6.460   2.159   3.050 -0.7501 -0.5982 -0.8697
   30CHL1  H22B 2204   6.304   2.094   3.111 -0.0364 -0.5541  0.3996
   30CHL1   C23 2205   6.449   2.162   3.262 -0.0664  0.5511 -0.1823
   30CHL1  H23A 2206   6.391   2.115   3.343 -0.9724 -2.5315 -2.4368
   30CHL1  H23B 2207   6.554   2.131   3.283 -0.7625 -1.7149  0.1852
   30CHL1   C24 2208   6.444   2.318   3.266  0.3432  0.4925  0.8565
   30CHL1  H24A 2209   6.516   2.359   3.191  1.0554 -0.9800  0.7074
   30CHL1  H24B 2210   6.340   2.335   3.231  0.2438 -2.6210 -0.7326
   30CHL1   C25 2211   6.462   2.392   3.398  0.1100 -0.1111 -0.4697
   30CHL1   H25 2212   6.403   2.343   3.478 -1.4938 -0.2508 -1.6829
   30CHL1   C26 2213   6.615   2.390   3.426 -0.5458 -0.6553 -0.0803
   30CHL1  H26A 2214   6.640   2.434   3.525 -0.4360 -3.1244  1.0606
   30CHL1  H26B 2215   6.658   2.287   3.425 -0.6280 -0.6894 -0.1788
   30CHL1  H26C 2216   6.667   2.446   3.345 -1.6810 -1.4304 -1.3928
   30CHL1   C27 2217   6.403   2.534   3.388 -0.1596  0.0785  0.0902
   30CHL1  H27A 2218   6.470   2.601   3.331 -0.0767 -0.0515  0.0347
   30CHL1  H27B 2219   6.294   2.540   3.367 -0.1702  3.1218  0.4833
   30CHL1  H27C 2220   6.409   2.570   3.494  2.0186  2.1972 -0.6549
   31CHL1    C3 2221   5.388   2.269   3.116  0.5900  0.5722 -0.4896
   31CHL1    H3 2222   5.298   2.221   3.159  1.1862 -0.1790 -0.0659
   31CHL1    O3 2223   5.375   2.265   2.975 -0.0598 -0.2761 -0.0971
   31CHL1   H3' 2224   5.459   2.298   2.942  1.8274 -3.6733  0.8136
   31CHL1    C4 2225   5.395   2.414   3.165  0.0079  0.4197  0.0142
   31CHL1   H4A 2226   5.486   2.455   3.117  1.7591 -1.9870  1.0424
   31CHL1   H4B 2227   5.307   2.475   3.138 -1.1772 -1.4889 -0.6300
   31CHL1    C5 2228   5.413   2.417   3.318  0.3550 -0.3687  0.0025
   31CHL1    C6 2229   5.331   2.490   3.390  0.4433 -0.1355 -0.1266
   31CHL1    H6 2230   5.261   2.557   3.339  1.9082 -0.4457 -2.7593
   31CHL1    C7 2231   5.341   2.496   3.542  0.4538  0.1261 -0.0781
   31CHL1   H7A 2232   5.311   2.594   3.584  1.2568  0.3972 -0.1347
   31CHL1   H7B 2233   5.255   2.434   3.577 -1.5587  1.2931 -2.5576
   31CHL1    C8 2234   5.473   2.437   3.597 -1.0103  0.0094 -0.2686
   31CHL1    H8 2235   5.551   2.512   3.571 -0.5595  0.1784  1.4406
   31CHL1   C14 2236   5.456   2.402   3.747 -0.0605  0.2509  0.2322
   31CHL1   H14 2237   5.378   2.323   3.752  1.6659 -1.6465 -0.8893
   31CHL1   C15 2238   5.409   2.524   3.830  0.1865 -0.2217 -0.0622
   31CHL1  H15A 2239   5.452   2.619   3.793 -0.0885 -0.4912 -1.0906
   31CHL1  H15B 2240   5.299   2.541   3.827 -0.3346 -2.4781  2.1820
   31CHL1   C16 2241   5.458   2.486   3.966 -0.4552 -0.0511 -0.0141
   31CHL1  H16A 2242   5.525   2.568   4.002 -2.2366  2.4990 -2.1230
   31CHL1  H16B 2243   5.378   2.469   4.041  0.2462  1.5333  1.1520
   31CHL1   C17 2244   5.541   2.354   3.956 -0.6107 -0.0688 -0.3572
   31CHL1   H17 2245   5.469   2.273   3.982  0.0837 -0.5272  0.1688
   31CHL1   C13 2246   5.580   2.343   3.806 -1.2441  0.3305 -0.1677
   31CHL1   C18 2247   5.697   2.440   3.783 -0.1330 -0.8093 -0.0073
   31CHL1  H18A 2248   5.720   2.462   3.676 -1.8862 -1.0798 -0.4683
   31CHL1  H18B 2249   5.692   2.537   3.838 -1.9503  0.1106 -1.6598
   31CHL1  H18C 2250   5.790   2.406   3.833 -0.1907  1.6849  1.9774
   31CHL1   C12 2251   5.599   2.207   3.744 -0.0496  0.2566  0.0293
   31CHL1  H12A 2252   5.683   2.150   3.788  0.6758  0.2816 -1.3037
   31CHL1  H12B 2253   5.512   2.146   3.777  1.4915 -1.6667  0.6872
   31CHL1   C11 2254   5.618   2.222   3.592  0.1825  0.6357 -0.0368
   31CHL1  H11A 2255   5.714   2.272   3.566  0.3358  0.3202 -0.0801
   31CHL1  H11B 2256   5.611   2.114   3.565 -0.5399  1.1861 -2.3032
   31CHL1    C9 2257   5.504   2.299   3.528  0.5736  0.5197  0.8454
   31CHL1    H9 2258   5.407   2.247   3.540  1.0745 -1.8658 -3.5057
   31CHL1   C10 2259   5.514   2.316   3.371 -0.1386  0.5366  0.1247
   31CHL1   C19 2260   5.653   2.377   3.338 -1.0943 -0.1677 -0.1378
   31CHL1  H19A 2261   5.733   2.302   3.354  0.3173  0.5290 -3.2572
   31CHL1  H19B 2262   5.668   2.399   3.230  1.7652 -0.9248  0.0391
   31CHL1  H19C 2263   5.674   2.468   3.398  2.1898  0.0093 -1.3946
   31CHL1    C1 2264   5.513   2.167   3.307  0.5346 -0.0589  0.0584
   31CHL1   H1A 2265   5.602   2.108   3.337 -0.0559 -0.8498  0.3177
   31CHL1   H1B 2266   5.421   2.119   3.347  0.8887 -2.9627 -2.2411
   31CHL1    C2 2267   5.501   2.172   3.162  0.9692  0.0242 -0.0733
   31CHL1   H2A 2268   5.479   2.071   3.120  0.3947  0.1136  0.0029
   31CHL1   H2B 2269   5.591   2.209   3.109  1.7537  0.9864  1.8361
   31CHL1   C20 2270   5.653   2.358   4.066  0.1609  0.1291 -0.2697
   31CHL1   H20 2271   5.730   2.435   4.044 -0.6749  1.4310  1.1401
   31CHL1   C21 2272   5.741   2.227   4.068  0.1945  0.0539 -0.0453
   31CHL1  H21A 2273   5.681   2.135   4.083  2.0473 -1.3513 -0.8935
   31CHL1  H21B 2274   5.831   2.234   4.133  0.5731 -0.6544 -0.4776
   31CHL1  H21C 2275   5.786   2.220   3.967  0.4377 -3.4540  0.2016
   31CHL1   C22 2276   5.591   2.375   4.211  0.2188  0.7431  0.5688
   31CHL1  H22A 2277   5.537   2.470   4.229 -3.0130 -0.5854 -1.2884
   31CHL1  H22B 2278   5.512   2.299   4.230  0.5646  0.0007 -0.8258
   31CHL1   C23 2279   5.696   2.372   4.322  0.3886 -0.7219 -0.3070
   31CHL1  H23A 2280   5.757   2.280   4.310  0.8275 -0.4945  0.1184
   31CHL1  H23B 2281   5.768   2.455   4.306  0.0354 -0.2158  0.6316
   31CHL1   C24 2282   5.649   2.388   4.469  0.3006 -0.1640 -0.2116
   31CHL1  H24A 2283   5.735   2.401   4.538 -0.1459 -0.2178  0.3682
   31CHL1  H24B 2284   5.588   2.481   4.474  1.3422  0.7315 -2.5788
   31CHL1   C25 2285   5.558   2.269   4.521  0.6302  0.0392 -0.7251
   31CHL1   H25 2286   5.474   2.268   4.449  0.8822 -0.3113 -1.0187
   31CHL1   C26 2287   5.635   2.139   4.508  0.1946 -0.1729 -0.4073
   31CHL1  H26A 2288   5.572   2.058   4.551  2.2821 -1.5691  0.1166
   31CHL1  H26B 2289   5.650   2.120   4.400 -2.8600 -0.0402 -0.9486
   31CHL1  H26C 2290   5.736   2.150   4.551 -0.2702 -0.7670  0.8970
   31CHL1   C27 2291   5.504   2.305   4.661  0.4690  0.4930 -0.5308
   31CHL1  H27A 2292   5.437   2.226   4.699  0.6476 -0.3761 -1.9535
   31CHL1  H27B 2293   5.578   2.323   4.742  0.3489  3.1546 -0.9019
   31CHL1  H27C 2294   5.443   2.398   4.660 -0.5066 -0.1442 -1.3309
   32CHL1    C3 2295   5.137   1.409   2.809 -0.2907 -0.2588  0.0701
   32CHL1    H3 2296   5.038   1.454   2.831  0.2997  1.6584 -0.9368
   32CHL1    O3 2297   5.153   1.408   2.665  0.7403 -0.2774 -0.3447
   32CHL1   H3' 2298   5.104   1.489   2.644 -2.3040 -1.6433  0.8355
   32CHL1    C4 2299   5.251   1.498   2.874 -0.6962  0.3848 -0.7791
   32CHL1   H4A 2300   5.354   1.483   2.833 -0.3924  0.9416 -0.2363
   32CHL1   H4B 2301   5.229   1.599   2.836 -0.3219  0.5045 -0.6853
   32CHL1    C5 2302   5.235   1.487   3.023  0.0134  0.4393 -0.5167
   32CHL1    C6 2303   5.219   1.590   3.098  0.3994  0.6252  0.2559
   32CHL1    H6 2304   5.221   1.687   3.047  0.4589  0.6625  0.3291
   32CHL1    C7 2305   5.204   1.595   3.247  0.0757 -0.1848 -0.5211
   32CHL1   H7A 2306   5.272   1.669   3.295 -1.0044  0.7740 -0.4179
   32CHL1   H7B 2307   5.102   1.630   3.275  0.7697  1.0774  0.5892
   32CHL1    C8 2308   5.241   1.461   3.314  0.4842  0.6868  1.7513
   32CHL1    H8 2309   5.352   1.467   3.323  0.5897  1.6787  0.1800
   32CHL1   C14 2310   5.182   1.449   3.456  0.4335  0.1353  0.0936
   32CHL1   H14 2311   5.074   1.429   3.436  0.2079 -0.6305  1.9175
   32CHL1   C15 2312   5.192   1.572   3.548  0.3509 -0.0605 -0.4741
   32CHL1  H15A 2313   5.297   1.606   3.550 -0.0086  1.0867 -0.6468
   32CHL1  H15B 2314   5.124   1.659   3.539  0.6554  0.2063 -0.2083
   32CHL1   C16 2315   5.158   1.506   3.685 -0.6644 -1.2174 -0.1955
   32CHL1  H16A 2316   5.240   1.533   3.754 -1.0811 -0.7595  0.1248
   32CHL1  H16B 2317   5.061   1.552   3.713 -0.0931  1.2132 -1.8691
   32CHL1   C17 2318   5.157   1.350   3.667 -0.2980 -0.0065  0.4486
   32CHL1   H17 2319   5.047   1.337   3.661 -0.2566 -0.5754  0.7832
   32CHL1   C13 2320   5.221   1.325   3.530  0.1040  0.6569 -0.5131
   32CHL1   C18 2321   5.375   1.318   3.547 -0.2026 -0.4235 -0.9024
   32CHL1  H18A 2322   5.411   1.420   3.572 -1.7012 -0.1223  0.1944
   32CHL1  H18B 2323   5.399   1.248   3.631  2.1138  1.5839  0.2629
   32CHL1  H18C 2324   5.428   1.282   3.456  0.2672  1.1295 -1.2700
   32CHL1   C12 2325   5.168   1.198   3.448  0.3479  0.1179 -0.0618
   32CHL1  H12A 2326   5.197   1.113   3.513 -0.9933  0.9765  1.7758
   32CHL1  H12B 2327   5.057   1.197   3.451  0.2137  3.5622  0.9859
   32CHL1   C11 2328   5.215   1.195   3.303  0.1772  0.0126 -0.0083
   32CHL1  H11A 2329   5.326   1.192   3.304  0.3587  2.7551 -1.4159
   32CHL1  H11B 2330   5.179   1.109   3.243  0.5467  1.7010 -2.8412
   32CHL1    C9 2331   5.191   1.337   3.239 -0.1803  0.7091  0.1992
   32CHL1    H9 2332   5.081   1.334   3.250 -0.1832  1.4927  0.4794
   32CHL1   C10 2333   5.218   1.350   3.088 -0.0180 -0.5051 -0.3193
   32CHL1   C19 2334   5.364   1.295   3.054  1.0068  0.0734 -0.0103
   32CHL1  H19A 2335   5.437   1.340   3.125  1.7279 -0.6713 -0.2715
   32CHL1  H19B 2336   5.361   1.186   3.077  0.5624 -0.0541 -0.6462
   32CHL1  H19C 2337   5.393   1.297   2.947 -0.8162  3.8696 -0.5921
   32CHL1    C1 2338   5.112   1.264   3.008  0.1833 -0.7300 -0.5231
   32CHL1   H1A 2339   5.117   1.159   3.044  2.7715 -1.1594 -1.8888
   32CHL1   H1B 2340   5.013   1.306   3.034 -0.3042 -1.4543 -1.1514
   32CHL1    C2 2341   5.137   1.264   2.856  0.5208 -0.7330 -0.7848
   32CHL1   H2A 2342   5.059   1.202   2.807  0.6487 -0.6008 -1.1527
   32CHL1   H2B 2343   5.232   1.215   2.827 -0.7446 -2.2879 -2.5585
   32CHL1   C20 2344   5.200   1.284   3.796 -0.2043  0.7394 -0.0724
   32CHL1   H20 2345   5.297   1.330   3.826  0.2191  0.7772 -1.4323
   32CHL1   C21 2346   5.215   1.128   3.777  0.4938 -0.0275  0.6483
   32CHL1  H21A 2347   5.295   1.110   3.702  0.6952  3.0551  0.0090
   32CHL1  H21B 2348   5.119   1.080   3.748 -1.1912  2.4293  1.7949
   32CHL1  H21C 2349   5.254   1.088   3.873  1.0006  1.3899  1.0538
   32CHL1   C22 2350   5.110   1.306   3.918 -0.2001 -0.5322 -0.3239
   32CHL1  H22A 2351   5.080   1.413   3.905  0.9639 -0.3059 -1.3627
   32CHL1  H22B 2352   5.026   1.234   3.914  0.1101 -0.9465  0.4377
   32CHL1   C23 2353   5.185   1.278   4.052  0.0154  0.3552  0.9906
   32CHL1  H23A 2354   5.106   1.290   4.130  1.5142 -0.6227  2.7311
   32CHL1  H23B 2355   5.225   1.176   4.039 -0.1487  0.5926 -1.8451
   32CHL1   C24 2356   5.283   1.384   4.094  0.7388 -0.4898 -0.5636
   32CHL1  H24A 2357   5.378   1.385   4.037  1.5958 -0.1966  0.8145
   32CHL1  H24B 2358   5.233   1.483   4.081  0.8200 -0.3501  0.1138
   32CHL1   C25 2359   5.314   1.372   4.250  0.4119 -0.1649  0.2737
   32CHL1   H25 2360   5.215   1.362   4.299  0.3035  0.6758  0.2383
   32CHL1   C26 2361   5.405   1.255   4.296  1.1175 -0.4037  0.3615
   32CHL1  H26A 2362   5.503   1.258   4.245  1.6075 -0.1130  1.3092
   32CHL1  H26B 2363   5.411   1.249   4.407 -0.3070 -1.0851  0.4248
   32CHL1  H26C 2364   5.350   1.163   4.265  1.3449 -0.6023  0.5422
   32CHL1   C27 2365   5.352   1.508   4.303  0.8440 -0.0750  0.2873
   32CHL1  H27A 2366   5.429   1.560   4.241 -0.4156 -1.3641 -2.5609
   32CHL1  H27B 2367   5.265   1.576   4.298  1.4252  0.6777  0.1440
   32CHL1  H27C 2368   5.372   1.505   4.412 -1.8766  2.4189  0.9965
   33CHL1    C3 2369   3.436   1.588   2.879 -0.3707  0.0189  0.2925
   33CHL1    H3 2370   3.546   1.583   2.897 -0.3215  0.4614  0.1240
   33CHL1    O3 2371   3.405   1.579   2.739 -0.1901  0.4439  0.3300
   33CHL1   H3' 2372   3.310   1.571   2.736 -0.2799  0.8377  1.4450
   33CHL1    C4 2373   3.352   1.491   2.967  0.7192 -0.2774  0.0614
   33CHL1   H4A 2374   3.244   1.518   2.959  0.4591 -0.8196  1.4715
   33CHL1   H4B 2375   3.380   1.393   2.924  2.7779 -0.3305  1.4151
   33CHL1    C5 2376   3.385   1.500   3.116  0.9542  0.4430  0.0296
   33CHL1    C6 2377   3.443   1.411   3.190 -0.0468  0.5118 -0.8661
   33CHL1    H6 2378   3.461   1.315   3.138  0.6969  0.4502 -0.5044
   33CHL1    C7 2379   3.463   1.420   3.335  0.3755 -0.2786 -0.7827
   33CHL1   H7A 2380   3.428   1.328   3.385  1.3084  0.2997  1.0409
   33CHL1   H7B 2381   3.568   1.441   3.364  0.5112 -2.1655  0.2537
   33CHL1    C8 2382   3.375   1.532   3.398  0.1201  0.0052 -0.0806
   33CHL1    H8 2383   3.271   1.495   3.387 -0.1858  1.3685 -2.3369
   33CHL1   C14 2384   3.417   1.548   3.544  0.3966  0.5824  0.4238
   33CHL1   H14 2385   3.527   1.561   3.542  0.2029  2.4367  0.2633
   33CHL1   C15 2386   3.389   1.423   3.637  0.0318 -0.6741 -0.3419
   33CHL1  H15A 2387   3.296   1.366   3.618  0.4038 -2.2210  2.0525
   33CHL1  H15B 2388   3.471   1.349   3.626 -0.6355 -1.2091 -1.9127
   33CHL1   C16 2389   3.386   1.484   3.779 -0.1609 -0.3691  0.2400
   33CHL1  H16A 2390   3.283   1.470   3.819 -0.3506 -0.9693 -0.4404
   33CHL1  H16B 2391   3.470   1.438   3.835  0.5233  0.3296 -0.1969
   33CHL1   C17 2392   3.401   1.638   3.758 -0.2365  0.4351  0.0161
   33CHL1   H17 2393   3.512   1.648   3.760 -0.2366  0.5170 -0.3815
   33CHL1   C13 2394   3.362   1.668   3.612 -0.5602  0.1151  0.0424
   33CHL1   C18 2395   3.206   1.668   3.610 -0.1713  0.3699 -0.4514
   33CHL1  H18A 2396   3.162   1.596   3.683  0.2974 -0.1881 -0.7108
   33CHL1  H18B 2397   3.174   1.767   3.649 -1.4679 -0.8036  1.6864
   33CHL1  H18C 2398   3.157   1.638   3.515 -2.9179  1.0806  0.6401
   33CHL1   C12 2399   3.423   1.796   3.540 -0.2367  0.4846 -0.1844
   33CHL1  H12A 2400   3.391   1.889   3.590 -0.6215  0.7844 -0.9701
   33CHL1  H12B 2401   3.534   1.789   3.527 -0.4359 -0.1064 -1.8596
   33CHL1   C11 2402   3.370   1.792   3.396 -0.4564  0.0474 -0.1361
   33CHL1  H11A 2403   3.260   1.805   3.403 -0.4468 -0.1318  0.3564
   33CHL1  H11B 2404   3.412   1.876   3.335 -1.3123  0.4058 -0.2494
   33CHL1    C9 2405   3.408   1.657   3.322 -1.1359  0.5711 -0.6039
   33CHL1    H9 2406   3.519   1.667   3.321 -1.0456 -0.2506 -2.2140
   33CHL1   C10 2407   3.359   1.649   3.170 -0.1167  0.0909  0.1210
   33CHL1   C19 2408   3.205   1.687   3.167 -0.5709  0.4947 -0.1141
   33CHL1  H19A 2409   3.156   1.678   3.068  1.1827  1.6426 -1.1553
   33CHL1  H19B 2410   3.152   1.634   3.248  0.5911 -0.8553 -0.1963
   33CHL1  H19C 2411   3.198   1.795   3.190  0.7384  0.5806 -0.0625
   33CHL1    C1 2412   3.441   1.743   3.075 -0.1066 -0.8308  0.0663
   33CHL1   H1A 2413   3.437   1.847   3.113  1.8682 -0.1908 -1.2947
   33CHL1   H1B 2414   3.545   1.711   3.096 -0.9967 -2.1784  2.9842
   33CHL1    C2 2415   3.413   1.732   2.922  0.2089  0.0492 -0.4084
   33CHL1   H2A 2416   3.479   1.801   2.865 -2.2545  0.8529 -2.4670
   33CHL1   H2B 2417   3.311   1.768   2.898  0.0958 -0.0534 -0.0883
   33CHL1   C20 2418   3.345   1.716   3.883 -0.3786  0.1094 -0.5129
   33CHL1   H20 2419   3.235   1.703   3.895 -0.5892  3.5340  3.4938
   33CHL1   C21 2420   3.355   1.870   3.865 -0.3227  0.0213  0.0340
   33CHL1  H21A 2421   3.459   1.884   3.830 -0.0608 -0.2709  0.6901
   33CHL1  H21B 2422   3.341   1.920   3.963 -0.7104  1.0602 -0.5300
   33CHL1  H21C 2423   3.285   1.903   3.785 -1.6435 -2.8974 -0.1725
   33CHL1   C22 2424   3.418   1.678   4.014  0.3351  0.7080  0.2010
   33CHL1  H22A 2425   3.427   1.568   4.027 -0.5854  0.6572  0.4275
   33CHL1  H22B 2426   3.523   1.713   4.005  0.9802 -1.4713 -1.5360
   33CHL1   C23 2427   3.365   1.734   4.148  0.0083 -0.5279  0.1280
   33CHL1  H23A 2428   3.450   1.718   4.217  0.2661  3.1166  0.8383
   33CHL1  H23B 2429   3.363   1.845   4.159  0.2538 -0.4921 -0.1524
   33CHL1   C24 2430   3.231   1.668   4.202 -0.1768 -0.2445  0.0270
   33CHL1  H24A 2431   3.151   1.650   4.127  0.2050 -2.1289  0.0153
   33CHL1  H24B 2432   3.264   1.569   4.239  1.4667  0.8122  1.5793
   33CHL1   C25 2433   3.167   1.744   4.323  0.3161 -0.2650  0.0323
   33CHL1   H25 2434   3.255   1.756   4.389  0.4562 -3.0430  0.5031
   33CHL1   C26 2435   3.114   1.880   4.280 -0.6268  0.2654 -0.2158
   33CHL1  H26A 2436   3.188   1.954   4.245  2.0143 -1.2075  1.8617
   33CHL1  H26B 2437   3.041   1.855   4.200  2.1880  1.0764 -3.2499
   33CHL1  H26C 2438   3.049   1.920   4.361  1.4590 -0.5358  1.9663
   33CHL1   C27 2439   3.068   1.648   4.400  0.3108 -0.2570  0.3438
   33CHL1  H27A 2440   3.108   1.555   4.444 -2.0370 -1.0995  0.8282
   33CHL1  H27B 2441   3.032   1.703   4.489 -0.1035 -2.2025  1.4349
   33CHL1  H27C 2442   2.983   1.637   4.328 -0.4051  0.5689  1.0387
   34CHL1    C3 2443   6.599   3.186   2.773 -0.0831 -0.3559  0.8303
   34CHL1    H3 2444   6.528   3.269   2.795  1.2277  0.9514  0.2961
   34CHL1    O3 2445   6.639   3.204   2.640  0.2617 -0.1557  0.2971
   34CHL1   H3' 2446   6.551   3.197   2.602  0.0962 -2.2230  0.9591
   34CHL1    C4 2447   6.725   3.204   2.861  0.1230  0.1219 -0.0956
   34CHL1   H4A 2448   6.798   3.125   2.833  0.1556  0.8782 -2.3238
   34CHL1   H4B 2449   6.780   3.295   2.829 -0.0811 -0.4124 -2.1053
   34CHL1    C5 2450   6.693   3.196   3.002  0.3325 -0.3890 -0.2077
   34CHL1    C6 2451   6.720   3.294   3.092 -0.8068  0.7355  0.5134
   34CHL1    H6 2452   6.768   3.386   3.055  1.7683 -0.3634  0.9713
   34CHL1    C7 2453   6.698   3.290   3.246  0.1198 -0.0876  0.2438
   34CHL1   H7A 2454   6.794   3.316   3.295  0.0259 -1.8748  1.4553
   34CHL1   H7B 2455   6.624   3.371   3.264 -1.3211 -0.6841 -2.4201
   34CHL1    C8 2456   6.649   3.152   3.285 -0.0382  0.1076  0.7334
   34CHL1    H8 2457   6.742   3.091   3.283 -0.5449 -0.6820 -0.1129
   34CHL1   C14 2458   6.578   3.169   3.418 -0.4753  0.8201  0.0864
   34CHL1   H14 2459   6.495   3.241   3.415  0.1258  1.5918  1.2180
   34CHL1   C15 2460   6.667   3.211   3.533 -0.5382 -0.3490  0.9901
   34CHL1  H15A 2461   6.770   3.169   3.531  1.3290  3.6277  2.5965
   34CHL1  H15B 2462   6.678   3.321   3.538  2.2136 -0.4858 -0.2509
   34CHL1   C16 2463   6.589   3.170   3.661 -1.0098 -0.6479  0.1009
   34CHL1  H16A 2464   6.659   3.118   3.730  0.3884  0.2800 -0.5743
   34CHL1  H16B 2465   6.559   3.253   3.728  0.7875 -2.2568  3.1291
   34CHL1   C17 2466   6.473   3.074   3.622  0.6235 -0.5595  0.3919
   34CHL1   H17 2467   6.375   3.125   3.614  0.2927 -1.0521  1.2107
   34CHL1   C13 2468   6.511   3.037   3.474 -0.7435  0.2555 -0.1321
   34CHL1   C18 2469   6.609   2.917   3.477 -0.7576 -0.4074 -0.3547
   34CHL1  H18A 2470   6.555   2.820   3.477 -0.5050 -0.5547  0.6124
   34CHL1  H18B 2471   6.669   2.911   3.383  0.6079 -0.9204  0.5206
   34CHL1  H18C 2472   6.689   2.922   3.554  0.7062 -1.7966 -1.7214
   34CHL1   C12 2473   6.391   3.004   3.377  0.4639  0.2034  0.9089
   34CHL1  H12A 2474   6.328   2.917   3.406 -2.6662  1.5721 -1.3117
   34CHL1  H12B 2475   6.319   3.088   3.366  0.9253  0.3754 -1.2623
   34CHL1   C11 2476   6.454   2.978   3.237 -0.0935  0.1226  0.3401
   34CHL1  H11A 2477   6.507   2.881   3.240 -2.0896 -1.0199  0.2975
   34CHL1  H11B 2478   6.376   2.969   3.159  1.3704  0.4455 -1.2240
   34CHL1    C9 2479   6.544   3.096   3.182 -0.0427 -0.6105 -0.1475
   34CHL1    H9 2480   6.466   3.175   3.171  0.5026 -0.2827 -2.0245
   34CHL1   C10 2481   6.605   3.072   3.037  1.0039 -0.5636 -0.0485
   34CHL1   C19 2482   6.709   2.959   3.038  0.2867  0.3330  0.1637
   34CHL1  H19A 2483   6.798   2.991   3.095 -1.1655  0.2792  2.6127
   34CHL1  H19B 2484   6.667   2.872   3.092  1.7373 -1.2079 -1.0773
   34CHL1  H19C 2485   6.742   2.917   2.940  1.1659 -1.1709  1.0709
   34CHL1    C1 2486   6.491   3.036   2.940 -0.0819  0.3978  0.5602
   34CHL1   H1A 2487   6.457   2.932   2.961  1.9998 -0.0365  2.1037
   34CHL1   H1B 2488   6.400   3.098   2.953 -1.0670 -1.0951  1.0055
   34CHL1    C2 2489   6.537   3.047   2.793  0.8502  0.1890  0.0914
   34CHL1   H2A 2490   6.447   3.034   2.729  0.0994 -0.4835  1.2453
   34CHL1   H2B 2491   6.612   2.968   2.770  1.4134  0.7795 -0.1229
   34CHL1   C20 2492   6.443   2.959   3.719 -0.5216  0.4259 -0.6228
   34CHL1   H20 2493   6.531   2.890   3.717 -0.9775 -0.1974  0.2858
   34CHL1   C21 2494   6.313   2.893   3.679 -0.1276 -0.0905 -0.7945
   34CHL1  H21A 2495   6.339   2.826   3.595  1.1784 -2.7157  1.5128
   34CHL1  H21B 2496   6.241   2.976   3.661 -0.3345 -0.4807 -1.8172
   34CHL1  H21C 2497   6.285   2.837   3.771  0.6394  1.1882  0.2662
   34CHL1   C22 2498   6.441   3.023   3.865  0.0273 -0.3196 -0.2037
   34CHL1  H22A 2499   6.544   3.060   3.882  0.2616 -1.8747  2.2661
   34CHL1  H22B 2500   6.371   3.109   3.867  0.2318 -0.1105  3.2210
   34CHL1   C23 2501   6.405   2.939   3.991  0.0229  0.0380  0.2405
   34CHL1  H23A 2502   6.297   2.920   3.980  0.2096 -0.2898 -1.1911
   34CHL1  H23B 2503   6.460   2.843   3.983  2.3120  1.3743 -1.2506
   34CHL1   C24 2504   6.448   3.001   4.128  0.5190  0.4158  0.5049
   34CHL1  H24A 2505   6.559   2.999   4.126  0.5668 -0.3541  2.2733
   34CHL1  H24B 2506   6.409   3.105   4.126 -0.2455  0.1296  0.5366
   34CHL1   C25 2507   6.399   2.927   4.254  0.4778 -0.8313 -0.2850
   34CHL1   H25 2508   6.288   2.937   4.261  0.8061  2.8693  2.7747
   34CHL1   C26 2509   6.424   2.775   4.246 -0.1454  0.2905  0.8343
   34CHL1  H26A 2510   6.532   2.759   4.263  0.0583  0.4741 -0.2607
   34CHL1  H26B 2511   6.362   2.733   4.329 -0.6416 -0.5470  0.0684
   34CHL1  H26C 2512   6.400   2.720   4.152  0.1198 -0.5927  1.2668
   34CHL1   C27 2513   6.444   2.995   4.383  0.1020  0.1373  0.1109
   34CHL1  H27A 2514   6.545   2.973   4.422 -0.4314 -0.5724  1.1357
   34CHL1  H27B 2515   6.432   3.105   4.371  1.2111  0.0688 -1.9992
   34CHL1  H27C 2516   6.365   2.966   4.455 -1.0928  2.9428  0.0762
   35CHL1    C3 2517   4.386   2.124   3.016  0.4688 -0.2134  0.1344
   35CHL1    H3 2518   4.421   2.230   3.014 -0.7059  0.2160 -3.2318
   35CHL1    O3 2519   4.393   2.077   2.881 -0.1553  0.5097  0.3918
   35CHL1   H3' 2520   4.358   1.988   2.892  1.5713 -0.1877  0.5793
   35CHL1    C4 2521   4.480   2.038   3.101 -0.4134  0.0357 -0.2286
   35CHL1   H4A 2522   4.482   1.928   3.088 -0.8295  0.0332 -0.2779
   35CHL1   H4B 2523   4.581   2.065   3.064 -0.3696 -1.0513 -0.9386
   35CHL1    C5 2524   4.468   2.053   3.251 -0.5064 -0.2711 -0.1460
   35CHL1    C6 2525   4.577   2.066   3.329  0.3251  0.4559  0.2311
   35CHL1    H6 2526   4.679   2.065   3.286 -0.5213 -1.2445 -1.9477
   35CHL1    C7 2527   4.570   2.062   3.482  0.3615  0.2114  0.4934
   35CHL1   H7A 2528   4.627   1.973   3.516  1.2082  0.7867  0.5920
   35CHL1   H7B 2529   4.626   2.148   3.523 -1.1149  1.6574 -0.3745
   35CHL1    C8 2530   4.433   2.046   3.543 -0.0711  0.0140  0.2770
   35CHL1    H8 2531   4.416   1.938   3.561  0.4136  0.1988  2.0512
   35CHL1   C14 2532   4.433   2.114   3.682  0.2793  0.2443  0.0436
   35CHL1   H14 2533   4.440   2.222   3.656 -1.9312  0.2586 -0.6431
   35CHL1   C15 2534   4.543   2.094   3.786 -0.5169  0.1695  0.4675
   35CHL1  H15A 2535   4.576   1.988   3.798 -0.0462  0.2587  0.0059
   35CHL1  H15B 2536   4.627   2.156   3.747 -1.6012  1.7543  0.6070
   35CHL1   C16 2537   4.482   2.129   3.920 -0.8434  0.2837 -0.2212
   35CHL1  H16A 2538   4.469   2.036   3.979  2.3566 -0.8426 -1.0551
   35CHL1  H16B 2539   4.548   2.201   3.973  1.3929 -1.1217 -0.9686
   35CHL1   C17 2540   4.339   2.174   3.889  0.3124  0.2550 -0.4142
   35CHL1   H17 2541   4.338   2.283   3.868 -0.3285  0.0329 -1.6310
   35CHL1   C13 2542   4.300   2.107   3.755 -0.2108  0.1230  0.4022
   35CHL1   C18 2543   4.266   1.961   3.785  0.5508  0.1164  0.5110
   35CHL1  H18A 2544   4.340   1.913   3.852  0.6126 -0.1502  0.2508
   35CHL1  H18B 2545   4.170   1.955   3.841  0.2113 -0.1787 -0.0985
   35CHL1  H18C 2546   4.255   1.912   3.686  1.5111 -0.8390  0.8623
   35CHL1   C12 2547   4.192   2.167   3.661  0.3315 -0.7919 -0.7522
   35CHL1  H12A 2548   4.095   2.149   3.712  0.5126  0.5889  0.1601
   35CHL1  H12B 2549   4.204   2.276   3.679 -2.2505 -0.4388 -0.8369
   35CHL1   C11 2550   4.190   2.119   3.519 -0.5745 -0.2709  0.5257
   35CHL1  H11A 2551   4.134   2.023   3.517 -0.8003 -0.1330  0.0103
   35CHL1  H11B 2552   4.126   2.192   3.464  0.5368  0.2076 -0.1634
   35CHL1    C9 2553   4.321   2.108   3.453 -0.1764 -0.7350  0.0261
   35CHL1    H9 2554   4.357   2.212   3.440  2.4589 -1.6046 -0.2807
   35CHL1   C10 2555   4.321   2.050   3.303  0.4126 -0.3435  0.3319
   35CHL1   C19 2556   4.273   1.902   3.304 -0.0976  0.0711  0.0501
   35CHL1  H19A 2557   4.349   1.836   3.352  0.7643 -1.3688 -3.0069
   35CHL1  H19B 2558   4.174   1.876   3.346  0.5424 -2.1629  0.2879
   35CHL1  H19C 2559   4.260   1.858   3.203 -0.7296  1.0828 -0.3178
   35CHL1    C1 2560   4.230   2.148   3.219 -0.0345  0.8088  0.0761
   35CHL1   H1A 2561   4.122   2.140   3.244  0.1783  0.1638  0.8115
   35CHL1   H1B 2562   4.256   2.256   3.214 -0.3248  0.8266 -1.4198
   35CHL1    C2 2563   4.241   2.117   3.066  0.5232  0.5358  0.0625
   35CHL1   H2A 2564   4.177   2.181   3.001  0.5474 -0.2112 -0.7278
   35CHL1   H2B 2565   4.201   2.017   3.038 -0.0400  0.8467 -0.2658
   35CHL1   C20 2566   4.252   2.157   4.017  0.4471 -0.1735 -0.0823
   35CHL1   H20 2567   4.230   2.049   4.025 -0.0361 -0.2737 -2.3175
   35CHL1   C21 2568   4.121   2.235   4.005 -0.9010 -1.0905 -0.1356
   35CHL1  H21A 2569   4.050   2.182   3.938  0.9162 -1.7352 -1.6229
   35CHL1  H21B 2570   4.156   2.328   3.956  0.0634 -1.3172  0.1011
   35CHL1  H21C 2571   4.070   2.260   4.101  0.7295 -1.4701  0.8661
   35CHL1   C22 2572   4.331   2.204   4.146  0.2571 -0.5589 -0.3659
   35CHL1  H22A 2573   4.412   2.128   4.151  0.8768 -0.2361 -3.5408
   35CHL1  H22B 2574   4.390   2.296   4.128 -1.2444  1.1833  2.8776
   35CHL1   C23 2575   4.264   2.209   4.285 -0.1201  0.0748 -0.2104
   35CHL1  H23A 2576   4.177   2.278   4.277 -0.5077 -0.5876 -1.9794
   35CHL1  H23B 2577   4.231   2.107   4.312  0.1735 -0.4971 -1.8980
   35CHL1   C24 2578   4.356   2.274   4.396 -1.0964  0.0511  0.4540
   35CHL1  H24A 2579   4.447   2.210   4.396  0.0895  1.6374 -0.6468
   35CHL1  H24B 2580   4.388   2.371   4.350 -0.3667  0.6759  2.1722
   35CHL1   C25 2581   4.308   2.286   4.536  0.4698 -0.2280 -0.6825
   35CHL1   H25 2582   4.303   2.178   4.560 -0.5905 -0.5245 -2.0893
   35CHL1   C26 2583   4.417   2.361   4.616 -0.2948 -0.0655  0.1984
   35CHL1  H26A 2584   4.489   2.294   4.668 -0.0292  1.6306  2.1050
   35CHL1  H26B 2585   4.476   2.418   4.540  1.6143 -0.3609  1.3792
   35CHL1  H26C 2586   4.369   2.435   4.682  1.4481  2.5735 -1.3197
   35CHL1   C27 2587   4.171   2.349   4.555  0.1179 -0.4464 -1.0408
   35CHL1  H27A 2588   4.175   2.452   4.514 -1.9205  0.4531  0.7844
   35CHL1  H27B 2589   4.089   2.294   4.504 -2.4107  1.8826  0.2117
   35CHL1  H27C 2590   4.135   2.363   4.660  1.2123 -0.5331 -0.6416
   36CHL1    C3 2591   5.203   5.849   2.477  0.3400 -0.1794  0.1411
   36CHL1    H3 2592   5.228   5.956   2.494  1.7393 -0.3930 -0.4425
   36CHL1    O3 2593   5.224   5.807   2.341  0.0940 -0.0811 -0.5840
   36CHL1   H3' 2594   5.151   5.852   2.298 -1.7723 -1.5111  0.8447
   36CHL1    C4 2595   5.290   5.764   2.575  0.1932  0.7725 -0.0450
   36CHL1   H4A 2596   5.302   5.659   2.540  0.4008  0.9111 -0.4003
   36CHL1   H4B 2597   5.395   5.800   2.573 -0.2816  2.1814 -0.9075
   36CHL1    C5 2598   5.241   5.762   2.719  0.4981 -0.3787 -0.4331
   36CHL1    C6 2599   5.331   5.784   2.820 -0.7012  0.3601  0.9831
   36CHL1    H6 2600   5.438   5.796   2.796  0.0204 -3.0727  1.8755
   36CHL1    C7 2601   5.306   5.777   2.962 -0.2266  0.0489 -0.3339
   36CHL1   H7A 2602   5.396   5.739   3.015 -0.3221 -1.8933 -1.4411
   36CHL1   H7B 2603   5.297   5.880   3.001 -2.0560 -0.4200  0.5961
   36CHL1    C8 2604   5.170   5.706   2.988 -0.2626  0.5407  0.0026
   36CHL1    H8 2605   5.191   5.597   2.979 -0.2213  0.5322  0.2140
   36CHL1   C14 2606   5.122   5.740   3.127 -0.1785  0.1425  0.2251
   36CHL1   H14 2607   5.108   5.850   3.126  0.7920  0.2715 -0.7741
   36CHL1   C15 2608   5.235   5.721   3.237 -0.0256 -0.1857  0.2866
   36CHL1  H15A 2609   5.299   5.632   3.222  0.2455  0.1931 -0.8727
   36CHL1  H15B 2610   5.299   5.812   3.229 -0.7353  0.2477 -0.6493
   36CHL1   C16 2611   5.154   5.717   3.365  0.5224 -0.2800  0.3067
   36CHL1  H16A 2612   5.166   5.619   3.416  1.8928 -0.4678 -0.3510
   36CHL1  H16B 2613   5.193   5.797   3.431  0.5970 -0.0358 -0.0270
   36CHL1   C17 2614   4.999   5.733   3.326 -0.2266 -0.0628  1.0090
   36CHL1   H17 2615   4.976   5.841   3.329  0.5449  0.1148  0.6813
   36CHL1   C13 2616   4.991   5.680   3.180 -0.3972 -0.1847  0.3464
   36CHL1   C18 2617   5.008   5.523   3.180 -0.5540 -0.6515 -0.0019
   36CHL1  H18A 2618   5.085   5.493   3.254  0.8778  3.9655  0.6812
   36CHL1  H18B 2619   4.919   5.468   3.217 -0.9560  0.2782  0.4438
   36CHL1  H18C 2620   5.032   5.481   3.080  0.8105  1.6578 -0.7279
   36CHL1   C12 2621   4.881   5.734   3.092 -0.5129  0.2330  0.1859
   36CHL1  H12A 2622   4.787   5.678   3.112 -0.4728 -0.2955 -1.0040
   36CHL1  H12B 2623   4.851   5.840   3.103  2.1076  1.2159 -1.1732
   36CHL1   C11 2624   4.917   5.709   2.942 -0.5798 -0.5776  0.3153
   36CHL1  H11A 2625   4.915   5.598   2.931 -1.3929 -0.5673  0.2854
   36CHL1  H11B 2626   4.840   5.755   2.876 -1.0460 -0.4803  0.9124
   36CHL1    C9 2627   5.059   5.761   2.898 -0.0011  0.0596  0.1099
   36CHL1    H9 2628   5.061   5.872   2.903  2.0550  0.1230 -1.0599
   36CHL1   C10 2629   5.097   5.738   2.747  0.4302 -0.3092 -0.4205
   36CHL1   C19 2630   5.067   5.592   2.712 -0.5758 -0.6857 -0.1705
   36CHL1  H19A 2631   5.108   5.561   2.614  3.9784  1.8843  0.6261
   36CHL1  H19B 2632   5.122   5.531   2.787  1.9564 -0.5043 -1.7651
   36CHL1  H19C 2633   4.958   5.581   2.728 -1.5652  3.0798 -3.0590
   36CHL1    C1 2634   5.016   5.821   2.652  0.0718 -0.4123  0.1576
   36CHL1   H1A 2635   4.911   5.785   2.659 -0.7102  1.4399 -1.3059
   36CHL1   H1B 2636   5.020   5.921   2.700 -0.9160 -0.5320  0.5175
   36CHL1    C2 2637   5.056   5.817   2.500  0.3642 -0.3682 -0.4525
   36CHL1   H2A 2638   4.984   5.884   2.446  1.7263 -1.9735 -4.6291
   36CHL1   H2B 2639   5.032   5.718   2.457 -0.4582 -1.3848  2.1567
   36CHL1   C20 2640   4.899   5.677   3.426 -0.1376  0.5246 -0.5452
   36CHL1   H20 2641   4.920   5.568   3.432  1.8839  0.9336  0.7642
   36CHL1   C21 2642   4.749   5.701   3.387 -1.1113 -0.5866 -0.0491
   36CHL1  H21A 2643   4.675   5.668   3.463 -1.0262 -1.3979 -0.3119
   36CHL1  H21B 2644   4.735   5.635   3.299  0.6342 -1.3949  0.2408
   36CHL1  H21C 2645   4.745   5.807   3.351  0.0336  0.0059  1.4867
   36CHL1   C22 2646   4.930   5.729   3.571 -0.1694  0.2242  0.2046
   36CHL1  H22A 2647   5.038   5.704   3.583 -0.5373 -1.3102  0.5296
   36CHL1  H22B 2648   4.920   5.840   3.571  1.0068  0.3740 -1.3486
   36CHL1   C23 2649   4.854   5.663   3.689 -0.1237  0.5893 -0.4493
   36CHL1  H23A 2650   4.746   5.689   3.684 -0.3074  0.0342  0.4284
   36CHL1  H23B 2651   4.859   5.553   3.684 -1.7121  0.5274 -1.1695
   36CHL1   C24 2652   4.910   5.716   3.824 -0.1853  0.3038 -0.3140
   36CHL1  H24A 2653   5.014   5.677   3.826  0.4066  1.6610 -2.0904
   36CHL1  H24B 2654   4.925   5.826   3.817  0.3608  0.5561  3.0523
   36CHL1   C25 2655   4.840   5.682   3.952 -0.4803 -0.2920  0.2215
   36CHL1   H25 2656   4.729   5.685   3.945 -0.6985 -1.1920  2.4059
   36CHL1   C26 2657   4.867   5.534   3.998  0.2401  0.2170 -0.2155
   36CHL1  H26A 2658   4.832   5.526   4.103  1.7533 -1.9101  0.1961
   36CHL1  H26B 2659   4.820   5.454   3.937  0.1695 -1.2530  1.6963
   36CHL1  H26C 2660   4.975   5.509   4.003  0.2854  0.4927  0.1836
   36CHL1   C27 2661   4.886   5.791   4.060 -0.2311  0.6729  0.1307
   36CHL1  H27A 2662   4.956   5.729   4.120  1.0706 -0.6053 -2.5232
   36CHL1  H27B 2663   4.943   5.879   4.024  1.3771 -0.1142  0.6496
   36CHL1  H27C 2664   4.804   5.835   4.120 -0.1592  2.6458 -1.1065
   37CHL1    C3 2665   2.240   4.070   2.803 -0.4088  0.0151  0.5472
   37CHL1    H3 2666   2.180   3.993   2.857  0.4136 -0.6059  0.5833
   37CHL1    O3 2667   2.262   4.015   2.674 -0.0059  0.0955  0.1185
   37CHL1   H3' 2668   2.357   4.025   2.663 -0.3881  1.9411 -2.6954
   37CHL1    C4 2669   2.163   4.203   2.797  0.4181 -0.4888 -0.3783
   37CHL1   H4A 2670   2.227   4.274   2.742  0.8117  0.3507  1.1125
   37CHL1   H4B 2671   2.071   4.187   2.738  0.6925 -1.6499 -0.5298
   37CHL1    C5 2672   2.129   4.252   2.938  0.0621  0.1094  0.0729
   37CHL1    C6 2673   2.007   4.262   2.987  0.1622  0.6454 -0.1769
   37CHL1    H6 2674   1.922   4.251   2.918  1.1574 -2.0209 -1.1200
   37CHL1    C7 2675   1.977   4.313   3.125 -0.6293  0.0447  0.1082
   37CHL1   H7A 2676   1.902   4.395   3.121 -0.2473  0.3549 -1.1238
   37CHL1   H7B 2677   1.951   4.233   3.198  1.2235 -1.0667 -0.3827
   37CHL1    C8 2678   2.105   4.380   3.188 -0.2173 -0.7388  0.2107
   37CHL1    H8 2679   2.122   4.476   3.135 -1.4494  0.0574  1.2004
   37CHL1   C14 2680   2.084   4.394   3.336 -0.4051  0.2828  0.1087
   37CHL1   H14 2681   2.058   4.290   3.363 -2.2137 -0.4299 -3.7165
   37CHL1   C15 2682   1.963   4.481   3.381 -0.3014  0.4597  0.0811
   37CHL1  H15A 2683   1.964   4.569   3.313 -0.0386 -0.9758 -1.8585
   37CHL1  H15B 2684   1.870   4.421   3.387 -0.1151 -0.3330 -3.0742
   37CHL1   C16 2685   1.998   4.518   3.528 -0.6696 -0.1008  0.5099
   37CHL1  H16A 2686   2.002   4.629   3.526 -0.4294 -0.0739  1.6460
   37CHL1  H16B 2687   1.925   4.478   3.602 -0.4487 -0.7250  0.4012
   37CHL1   C17 2688   2.143   4.456   3.561  0.4885 -0.6069  0.1361
   37CHL1   H17 2689   2.114   4.358   3.605  0.1586  0.1280  1.6325
   37CHL1   C13 2690   2.210   4.443   3.421  0.9499 -0.6320 -0.5296
   37CHL1   C18 2691   2.242   4.589   3.387 -0.2550  0.2136  0.2399
   37CHL1  H18A 2692   2.272   4.588   3.280  2.2441 -0.7998  0.8799
   37CHL1  H18B 2693   2.163   4.667   3.393  0.0314  0.5001  0.2776
   37CHL1  H18C 2694   2.332   4.630   3.437  0.2689  1.6353 -1.7178
   37CHL1   C12 2695   2.326   4.349   3.386  0.7285 -0.1142  0.2746
   37CHL1  H12A 2696   2.417   4.390   3.436  0.1551  0.5798  0.7773
   37CHL1  H12B 2697   2.283   4.254   3.425 -1.0226 -0.7954 -2.9375
   37CHL1   C11 2698   2.354   4.339   3.243  0.1572 -0.1721  0.2114
   37CHL1  H11A 2699   2.387   4.439   3.209 -1.5312  0.8840  1.5237
   37CHL1  H11B 2700   2.434   4.262   3.236  1.9608  1.7370 -3.3140
   37CHL1    C9 2701   2.227   4.293   3.164  0.2531  0.1525 -0.3422
   37CHL1    H9 2702   2.198   4.201   3.218  0.7731  0.9658  1.4191
   37CHL1   C10 2703   2.262   4.267   3.015  0.0959  0.5623  0.0054
   37CHL1   C19 2704   2.334   4.395   2.963  0.1352  0.4245  0.0680
   37CHL1  H19A 2705   2.434   4.401   3.011 -0.2173  0.6137  0.7970
   37CHL1  H19B 2706   2.361   4.369   2.858  3.1109 -0.6154  0.9868
   37CHL1  H19C 2707   2.262   4.480   2.968 -0.8309 -0.3791  0.3608
   37CHL1    C1 2708   2.359   4.143   3.012 -0.0475  0.1326  1.0362
   37CHL1   H1A 2709   2.456   4.180   3.051  0.8629  2.3287 -2.7857
   37CHL1   H1B 2710   2.325   4.057   3.073  0.3347 -0.3674  0.5532
   37CHL1    C2 2711   2.379   4.089   2.874 -0.3692  0.0793  1.4062
   37CHL1   H2A 2712   2.426   3.989   2.883  0.4189  0.0349 -1.9618
   37CHL1   H2B 2713   2.451   4.143   2.809 -0.3391 -0.7520  0.7265
   37CHL1   C20 2714   2.217   4.525   3.671 -0.4414 -0.3067 -0.3978
   37CHL1   H20 2715   2.253   4.619   3.624 -1.3687  0.1238 -0.2648
   37CHL1   C21 2716   2.337   4.439   3.702  0.0781  0.1470  0.1053
   37CHL1  H21A 2717   2.421   4.452   3.630  0.7187 -1.3018  0.5537
   37CHL1  H21B 2718   2.312   4.331   3.706  1.3455 -0.2127 -0.9351
   37CHL1  H21C 2719   2.372   4.462   3.805  0.4528 -1.4865  0.3727
   37CHL1   C22 2720   2.136   4.587   3.796 -0.7266 -0.1517 -0.3142
   37CHL1  H22A 2721   2.041   4.638   3.768 -1.5802 -1.7565 -0.4320
   37CHL1  H22B 2722   2.102   4.500   3.857 -0.6979 -0.2690 -0.4677
   37CHL1   C23 2723   2.221   4.667   3.890 -0.0172 -0.0766 -0.2402
   37CHL1  H23A 2724   2.325   4.630   3.897 -0.9486 -3.1698 -1.0680
   37CHL1  H23B 2725   2.231   4.773   3.857 -0.0319  0.4518  1.3521
   37CHL1   C24 2726   2.163   4.684   4.033  0.2050 -0.4137 -0.0417
   37CHL1  H24A 2727   2.062   4.730   4.024  0.4680  0.1163 -0.3385
   37CHL1  H24B 2728   2.153   4.584   4.080  0.8789 -0.6661 -0.4190
   37CHL1   C25 2729   2.248   4.776   4.124 -0.8013  0.6678  0.2097
   37CHL1   H25 2730   2.295   4.845   4.051 -2.3747 -0.4688 -1.9907
   37CHL1   C26 2731   2.165   4.864   4.220 -0.4473 -0.0445 -0.2871
   37CHL1  H26A 2732   2.133   4.802   4.306  2.3120 -1.0081  0.1735
   37CHL1  H26B 2733   2.233   4.944   4.256  1.2262  0.5844 -4.3467
   37CHL1  H26C 2734   2.079   4.911   4.168  1.1722 -0.2431 -3.3773
   37CHL1   C27 2735   2.354   4.690   4.195  0.1898 -0.2635  0.8761
   37CHL1  H27A 2736   2.304   4.620   4.266  1.0366  0.7584  2.5340
   37CHL1  H27B 2737   2.416   4.632   4.123  0.0426 -0.9778  1.3186
   37CHL1  H27C 2738   2.429   4.749   4.251  0.4269 -0.7037  1.0233
   38CHL1    C3 2739   2.235   1.447   3.048  0.3215 -0.1624  0.4255
   38CHL1    H3 2740   2.265   1.549   3.078 -1.2770  0.6376 -0.5765
   38CHL1    O3 2741   2.253   1.438   2.903  0.2056  0.2966 -0.1991
   38CHL1   H3' 2742   2.348   1.450   2.891  0.0579  0.2196 -1.6144
   38CHL1    C4 2743   2.330   1.344   3.121  0.4729 -0.1067  0.4472
   38CHL1   H4A 2744   2.291   1.242   3.103 -0.0671 -0.4437  3.1822
   38CHL1   H4B 2745   2.435   1.346   3.083  0.7110 -3.4520  0.6366
   38CHL1    C5 2746   2.316   1.359   3.273 -0.5643 -0.0850 -0.2649
   38CHL1    C6 2747   2.418   1.376   3.354  0.7947 -0.2333 -0.0588
   38CHL1    H6 2748   2.522   1.376   3.320 -0.0726  2.2473 -3.2992
   38CHL1    C7 2749   2.402   1.401   3.500  0.2865 -0.5333  0.2615
   38CHL1   H7A 2750   2.476   1.350   3.566  0.9521 -0.9149 -0.7588
   38CHL1   H7B 2751   2.421   1.508   3.521 -1.2175  0.1935 -1.6743
   38CHL1    C8 2752   2.261   1.354   3.557 -0.6969  0.6776  0.3382
   38CHL1    H8 2753   2.276   1.244   3.558  1.0834  0.8783 -0.2917
   38CHL1   C14 2754   2.238   1.407   3.700  0.0130  0.0429  0.2315
   38CHL1   H14 2755   2.219   1.515   3.680 -0.1176  0.4691  2.4533
   38CHL1   C15 2756   2.351   1.396   3.793 -0.4506  0.8447 -0.6654
   38CHL1  H15A 2757   2.400   1.296   3.791  1.2874  1.4657  2.8700
   38CHL1  H15B 2758   2.427   1.474   3.772 -0.6566  1.6959  1.5148
   38CHL1   C16 2759   2.288   1.407   3.940 -0.2328  0.0650  0.0341
   38CHL1  H16A 2760   2.339   1.320   3.987 -0.4638 -0.3173 -0.4053
   38CHL1  H16B 2761   2.320   1.503   3.985  1.2936  0.1807 -1.2361
   38CHL1   C17 2762   2.135   1.404   3.916  0.2635 -0.0049 -0.6768
   38CHL1   H17 2763   2.101   1.510   3.914 -3.3294 -1.0062  0.6652
   38CHL1   C13 2764   2.112   1.353   3.767  0.3256 -0.1322 -0.5183
   38CHL1   C18 2765   2.119   1.189   3.787 -0.2036  0.1168  0.5405
   38CHL1  H18A 2766   2.126   1.151   3.683 -1.0869  2.7092 -0.5524
   38CHL1  H18B 2767   2.211   1.157   3.841  0.0168  0.0466  0.1364
   38CHL1  H18C 2768   2.027   1.140   3.824  0.1343 -0.4901  0.6022
   38CHL1   C12 2769   1.989   1.392   3.682 -0.3573 -0.8946 -0.4747
   38CHL1  H12A 2770   1.895   1.358   3.732  0.1393 -0.2061  1.0051
   38CHL1  H12B 2771   1.991   1.503   3.676 -0.6647 -0.8206  0.5025
   38CHL1   C11 2772   2.012   1.369   3.532  0.5700  1.0134 -0.1859
   38CHL1  H11A 2773   1.988   1.260   3.529  1.9448  0.7023 -1.3567
   38CHL1  H11B 2774   1.935   1.415   3.467  0.8473  0.7092 -0.7358
   38CHL1    C9 2775   2.144   1.402   3.469 -0.1920  0.0327  0.6458
   38CHL1    H9 2776   2.163   1.511   3.465 -1.0356  0.2836 -4.7524
   38CHL1   C10 2777   2.167   1.355   3.326 -0.3428  0.2136 -0.5929
   38CHL1   C19 2778   2.129   1.207   3.310  0.2931  0.2278  0.4063
   38CHL1  H19A 2779   2.021   1.192   3.330 -0.2467  0.4858 -1.9758
   38CHL1  H19B 2780   2.145   1.169   3.206  1.8988 -0.2357  0.7893
   38CHL1  H19C 2781   2.186   1.149   3.385  1.2791  1.7877  0.9258
   38CHL1    C1 2782   2.068   1.438   3.234 -0.1526  0.9910  0.4707
   38CHL1   H1A 2783   1.965   1.406   3.257  0.4017 -1.8152 -0.5341
   38CHL1   H1B 2784   2.087   1.541   3.272 -0.6712  0.6506  1.7020
   38CHL1    C2 2785   2.094   1.418   3.084  0.0998  0.5211  0.2438
   38CHL1   H2A 2786   2.031   1.494   3.033 -0.1302  0.8594  1.0149
   38CHL1   H2B 2787   2.065   1.317   3.049  1.5174  0.5995 -1.3244
   38CHL1   C20 2788   2.074   1.326   4.040 -0.2612 -0.5147 -0.0382
   38CHL1   H20 2789   2.113   1.222   4.029  0.1299 -0.3368 -0.3819
   38CHL1   C21 2790   1.916   1.327   4.025 -0.0335  0.5383 -0.9148
   38CHL1  H21A 2791   1.887   1.280   3.929 -0.4019 -0.8375 -0.1664
   38CHL1  H21B 2792   1.871   1.428   4.024  3.2484  2.2499  1.7740
   38CHL1  H21C 2793   1.867   1.271   4.107 -1.5312  1.7690 -0.9401
   38CHL1   C22 2794   2.116   1.372   4.178 -0.0595 -0.3211  0.0125
   38CHL1  H22A 2795   2.226   1.368   4.186  0.0359  1.3435 -0.1484
   38CHL1  H22B 2796   2.096   1.481   4.167 -1.1724 -0.5730 -0.5897
   38CHL1   C23 2797   2.056   1.290   4.294 -0.2216 -0.9581 -0.1774
   38CHL1  H23A 2798   1.945   1.298   4.291 -0.2432  0.0946  1.8271
   38CHL1  H23B 2799   2.080   1.184   4.272 -1.3535 -1.1312 -0.6291
   38CHL1   C24 2800   2.114   1.317   4.435 -0.2708 -0.6299  0.3395
   38CHL1  H24A 2801   2.063   1.244   4.501 -0.0129  1.0306  2.4683
   38CHL1  H24B 2802   2.219   1.281   4.443  0.0705  0.1193 -0.5973
   38CHL1   C25 2803   2.105   1.465   4.489  0.2039  0.2577  0.4828
   38CHL1   H25 2804   2.155   1.522   4.408  0.8589  0.3186  0.9189
   38CHL1   C26 2805   1.958   1.508   4.508  0.2662  0.2467  0.0704
   38CHL1  H26A 2806   1.899   1.445   4.577 -1.7093  0.0992 -1.6678
   38CHL1  H26B 2807   1.945   1.610   4.549  1.0506  1.6817 -2.9688
   38CHL1  H26C 2808   1.902   1.494   4.413 -3.2899 -0.0836  2.0393
   38CHL1   C27 2809   2.188   1.481   4.617 -0.5910  1.3974  0.0244
   38CHL1  H27A 2810   2.140   1.402   4.679 -2.3869  1.4194 -1.2387
   38CHL1  H27B 2811   2.294   1.450   4.605 -1.1753 -1.5680  1.4303
   38CHL1  H27C 2812   2.179   1.578   4.672 -1.7953  1.6538 -0.5850
   39CHL1    C3 2813   4.240   6.752   2.811 -0.4817 -0.4885 -0.2969
   39CHL1    H3 2814   4.173   6.668   2.839 -3.4149  1.2831 -1.5582
   39CHL1    O3 2815   4.276   6.733   2.679  0.2378 -0.2565 -0.4153
   39CHL1   H3' 2816   4.353   6.789   2.667  0.7275 -1.3167 -2.9441
   39CHL1    C4 2817   4.171   6.887   2.821 -0.5894 -0.1911  0.3384
   39CHL1   H4A 2818   4.231   6.961   2.764  0.6910 -0.2015  1.6302
   39CHL1   H4B 2819   4.070   6.881   2.775  0.0073 -2.1747 -0.8113
   39CHL1    C5 2820   4.155   6.935   2.965 -0.6298  0.1138 -0.5128
   39CHL1    C6 2821   4.034   6.969   3.013 -0.2158  0.4464  1.6040
   39CHL1    H6 2822   3.948   6.970   2.945  0.2383  0.5668  1.0191
   39CHL1    C7 2823   4.020   7.030   3.145 -0.2496  0.2315 -0.6443
   39CHL1   H7A 2824   3.961   7.123   3.137 -0.4295  0.3440  1.3406
   39CHL1   H7B 2825   3.957   6.973   3.217 -1.6451  0.2696 -1.7838
   39CHL1    C8 2826   4.150   7.066   3.221  0.0362  1.1342  0.3531
   39CHL1    H8 2827   4.196   7.152   3.168  3.4960 -1.4792 -1.2977
   39CHL1   C14 2828   4.120   7.101   3.365  0.8047  0.5938  0.8469
   39CHL1   H14 2829   4.062   7.014   3.403  0.7479  0.6648  0.9234
   39CHL1   C15 2830   4.032   7.221   3.393  1.1785 -0.5309 -0.8489
   39CHL1  H15A 2831   4.055   7.310   3.331 -3.3689  1.7961  0.3434
   39CHL1  H15B 2832   3.926   7.193   3.375  1.5160 -0.5061 -3.2418
   39CHL1   C16 2833   4.052   7.258   3.539 -0.4401 -0.4132 -0.3497
   39CHL1  H16A 2834   4.094   7.361   3.529  1.5495 -1.2984 -1.7902
   39CHL1  H16B 2835   3.962   7.252   3.604 -0.7592 -2.0797 -0.8905
   39CHL1   C17 2836   4.167   7.165   3.589  0.3315 -1.2273  0.2961
   39CHL1   H17 2837   4.119   7.075   3.632  0.3911 -1.7079 -0.6128
   39CHL1   C13 2838   4.239   7.126   3.457  0.1281 -0.1212 -0.4586
   39CHL1   C18 2839   4.328   7.245   3.399  0.0857 -0.2598  0.1930
   39CHL1  H18A 2840   4.349   7.224   3.292 -3.0780  0.4880 -0.6818
   39CHL1  H18B 2841   4.271   7.340   3.399  1.6625  0.7355 -0.8692
   39CHL1  H18C 2842   4.423   7.251   3.457  1.1816  0.3966 -1.6040
   39CHL1   C12 2843   4.329   6.995   3.453 -0.1086 -0.2548 -0.4637
   39CHL1  H12A 2844   4.420   7.004   3.516 -0.1857  0.1695 -0.4064
   39CHL1  H12B 2845   4.264   6.910   3.485  2.5266 -3.8690 -3.8288
   39CHL1   C11 2846   4.368   6.961   3.313 -0.5755 -0.1637  1.1860
   39CHL1  H11A 2847   4.441   7.034   3.271  0.5959 -1.6776  0.4894
   39CHL1  H11B 2848   4.425   6.866   3.308 -0.9299 -0.3146 -2.4532
   39CHL1    C9 2849   4.253   6.951   3.211 -0.0232 -0.0771  0.0357
   39CHL1    H9 2850   4.194   6.864   3.247  1.1866 -0.3069  1.6106
   39CHL1   C10 2851   4.292   6.927   3.058 -0.3161 -0.6535  0.6029
   39CHL1   C19 2852   4.398   7.034   3.010  0.5175 -0.1778  0.1986
   39CHL1  H19A 2853   4.425   7.036   2.902 -0.6211 -0.6329 -0.1092
   39CHL1  H19B 2854   4.359   7.134   3.036 -2.1118 -1.1719  0.3801
   39CHL1  H19C 2855   4.487   7.010   3.072 -1.4551 -2.7166  2.2945
   39CHL1    C1 2856   4.352   6.783   3.034 -0.5538  0.7205 -0.0875
   39CHL1   H1A 2857   4.453   6.778   3.079 -0.3061 -1.9318 -0.7641
   39CHL1   H1B 2858   4.286   6.717   3.093 -0.0768 -1.6358 -2.0328
   39CHL1    C2 2859   4.369   6.739   2.889  0.0341  0.0731 -0.7851
   39CHL1   H2A 2860   4.415   6.638   2.891  1.6239  0.7733  0.2291
   39CHL1   H2B 2861   4.455   6.796   2.848  0.2793 -0.6353 -1.2813
   39CHL1   C20 2862   4.246   7.235   3.702 -0.4848 -0.3861  0.6274
   39CHL1   H20 2863   4.299   7.323   3.659  0.6890 -0.9601  0.8643
   39CHL1   C21 2864   4.357   7.138   3.750 -0.0510  0.6012 -0.3206
   39CHL1  H21A 2865   4.448   7.150   3.686  0.1293 -1.0372 -0.4315
   39CHL1  H21B 2866   4.313   7.036   3.740  1.1790  0.0868 -0.7365
   39CHL1  H21C 2867   4.396   7.137   3.854 -2.5661 -0.5168  0.6815
   39CHL1   C22 2868   4.162   7.277   3.824  0.0224 -0.0469  0.1479
   39CHL1  H22A 2869   4.231   7.327   3.895  1.0102  1.8427 -2.0150
   39CHL1  H22B 2870   4.086   7.353   3.793  0.8520  1.1099  0.8800
   39CHL1   C23 2871   4.083   7.160   3.889 -0.8016 -0.0057  0.0698
   39CHL1  H23A 2872   4.029   7.098   3.815 -0.2658 -1.0958  0.5648
   39CHL1  H23B 2873   4.153   7.090   3.940 -2.3099 -0.8794  0.9978
   39CHL1   C24 2874   3.977   7.206   3.990  1.0220 -0.1023  0.3917
   39CHL1  H24A 2875   3.913   7.281   3.939  0.7046 -0.9148 -0.4252
   39CHL1  H24B 2876   3.906   7.126   4.020  0.4574  1.3024  3.1622
   39CHL1   C25 2877   4.016   7.284   4.120  0.2424 -0.0501  0.4654
   39CHL1   H25 2878   4.075   7.372   4.087 -1.4638  0.7667 -0.5171
   39CHL1   C26 2879   3.892   7.337   4.194  0.3946  0.3675  0.0313
   39CHL1  H26A 2880   3.914   7.436   4.239  0.3902 -0.0239  0.9124
   39CHL1  H26B 2881   3.808   7.364   4.126  0.9153 -0.1959 -0.8526
   39CHL1  H26C 2882   3.867   7.267   4.276  0.0366  0.5059  0.0408
   39CHL1   C27 2883   4.097   7.192   4.212 -0.1127 -0.0087  0.1500
   39CHL1  H27A 2884   4.125   7.248   4.304  1.2629 -3.1220  1.7711
   39CHL1  H27B 2885   4.036   7.104   4.241 -0.9568  0.5289  0.0331
   39CHL1  H27C 2886   4.192   7.156   4.167  0.5307  0.0698  1.3991
   40CHL1    C3 2887   1.890   5.887   2.767  0.1106 -0.3920 -0.0499
   40CHL1    H3 2888   1.971   5.940   2.822 -0.5805  0.7694 -0.1083
   40CHL1    O3 2889   1.911   5.883   2.634 -0.3954 -0.3379  0.1339
   40CHL1   H3' 2890   1.877   5.968   2.606 -1.6630 -0.5491  0.9807
   40CHL1    C4 2891   1.874   5.741   2.820 -0.0281  0.6006 -0.5417
   40CHL1   H4A 2892   1.802   5.694   2.750 -2.2434  2.2302  0.5173
   40CHL1   H4B 2893   1.973   5.694   2.801 -1.0389 -1.1494 -1.7645
   40CHL1    C5 2894   1.825   5.723   2.962  0.3816 -0.0402 -0.1317
   40CHL1    C6 2895   1.875   5.639   3.049 -0.1086 -0.3102 -0.5094
   40CHL1    H6 2896   1.967   5.583   3.030 -0.6459 -1.1413 -0.7097
   40CHL1    C7 2897   1.810   5.606   3.182  0.0698 -0.4618 -0.6905
   40CHL1   H7A 2898   1.794   5.496   3.191 -1.9011 -0.0432  2.5375
   40CHL1   H7B 2899   1.870   5.639   3.269  0.2184 -0.3308 -0.8416
   40CHL1    C8 2900   1.682   5.683   3.216  0.4873 -0.1161  0.1339
   40CHL1    H8 2901   1.596   5.620   3.184 -0.5575  1.7680 -0.9586
   40CHL1   C14 2902   1.662   5.700   3.364 -0.6230  0.4703  0.3020
   40CHL1   H14 2903   1.748   5.764   3.394  0.0024  0.8574 -2.1691
   40CHL1   C15 2904   1.666   5.571   3.446 -0.6412 -0.1454  0.1863
   40CHL1  H15A 2905   1.607   5.489   3.400 -1.8113 -1.2207  3.3103
   40CHL1  H15B 2906   1.769   5.539   3.471  0.2341  1.1195 -1.5826
   40CHL1   C16 2907   1.594   5.616   3.571 -0.3934  0.0434 -0.4622
   40CHL1  H16A 2908   1.500   5.558   3.583 -1.6708  1.7105 -1.7601
   40CHL1  H16B 2909   1.654   5.598   3.662 -0.5966  1.1163 -0.0989
   40CHL1   C17 2910   1.573   5.770   3.557  0.2531 -0.1751  0.3967
   40CHL1   H17 2911   1.672   5.816   3.577 -0.2530  2.0134 -1.6700
   40CHL1   C13 2912   1.542   5.779   3.405 -0.1775  0.0825 -0.6441
   40CHL1   C18 2913   1.408   5.705   3.375  0.2963 -0.2191  0.4988
   40CHL1  H18A 2914   1.416   5.672   3.269  0.6644  0.7890  0.2060
   40CHL1  H18B 2915   1.381   5.608   3.421  0.0214  0.0482  0.9040
   40CHL1  H18C 2916   1.325   5.778   3.387  0.7242  0.1148  1.4949
   40CHL1   C12 2917   1.543   5.912   3.335  0.3351 -0.9644 -0.1878
   40CHL1  H12A 2918   1.451   5.967   3.361  1.6895  2.1036 -1.3979
   40CHL1  H12B 2919   1.633   5.960   3.380 -0.7425  0.3236  0.6697
   40CHL1   C11 2920   1.551   5.900   3.186 -0.6905  0.9926  0.5556
   40CHL1  H11A 2921   1.452   5.865   3.151 -0.7231  1.5828  0.0288
   40CHL1  H11B 2922   1.554   6.002   3.142  3.9533  1.1161  0.6265
   40CHL1    C9 2923   1.677   5.815   3.145 -0.5690 -0.4784  0.3880
   40CHL1    H9 2924   1.759   5.873   3.191 -0.0882 -0.7318 -0.1361
   40CHL1   C10 2925   1.707   5.814   2.994  0.7530  0.1169 -0.7846
   40CHL1   C19 2926   1.585   5.746   2.926 -0.5862  0.4993  0.4189
   40CHL1  H19A 2927   1.496   5.812   2.938 -0.7023  0.2680  0.8347
   40CHL1  H19B 2928   1.600   5.725   2.818  0.0851 -0.8246  0.7593
   40CHL1  H19C 2929   1.572   5.649   2.979 -2.2228 -1.0935 -2.6315
   40CHL1    C1 2930   1.732   5.960   2.948 -0.0021 -0.1646 -0.6439
   40CHL1   H1A 2931   1.652   6.030   2.979  0.7902  1.3548 -1.8384
   40CHL1   H1B 2932   1.821   5.996   3.005 -0.9734  0.2324  0.6711
   40CHL1    C2 2933   1.763   5.968   2.802  0.1520  0.2936  0.4477
   40CHL1   H2A 2934   1.783   6.074   2.777  1.3471 -0.5940 -2.9301
   40CHL1   H2B 2935   1.683   5.926   2.737  1.4932 -1.3584 -0.2218
   40CHL1   C20 2936   1.456   5.827   3.637 -0.1246 -0.1525  0.2517
   40CHL1   H20 2937   1.359   5.804   3.586 -0.2629  1.6362 -0.3616
   40CHL1   C21 2938   1.474   5.984   3.646 -0.5661 -0.8349  0.3674
   40CHL1  H21A 2939   1.581   6.002   3.674 -1.0444  1.8624  0.7559
   40CHL1  H21B 2940   1.409   6.021   3.728 -0.7731 -1.6558  0.5783
   40CHL1  H21C 2941   1.467   6.031   3.546  0.0332 -0.0686  0.6683
   40CHL1   C22 2942   1.427   5.773   3.777 -0.0538 -0.3990  0.1253
   40CHL1  H22A 2943   1.334   5.818   3.818  0.4374  1.0568 -0.2924
   40CHL1  H22B 2944   1.419   5.663   3.763  0.1213 -0.2423 -1.4555
   40CHL1   C23 2945   1.533   5.793   3.884  0.9585  0.5196  0.0416
   40CHL1  H23A 2946   1.605   5.708   3.880 -0.9493 -1.2203  0.6326
   40CHL1  H23B 2947   1.577   5.895   3.882 -0.8230  1.3803  1.6572
   40CHL1   C24 2948   1.468   5.765   4.022  0.0023 -0.0393  0.2248
   40CHL1  H24A 2949   1.397   5.833   4.074  0.5985 -0.3665  1.5078
   40CHL1  H24B 2950   1.391   5.689   3.999 -0.4635  1.1826 -2.6127
   40CHL1   C25 2951   1.564   5.732   4.134 -0.5214 -0.4763  0.3335
   40CHL1   H25 2952   1.652   5.679   4.093 -1.7741  0.0384 -3.3928
   40CHL1   C26 2953   1.632   5.858   4.196  0.7879 -0.2955 -0.0251
   40CHL1  H26A 2954   1.549   5.928   4.220 -1.3296 -3.2593  1.9077
   40CHL1  H26B 2955   1.690   5.830   4.287  1.2060 -0.2904 -0.2881
   40CHL1  H26C 2956   1.703   5.905   4.125 -1.1649 -0.9412 -2.5350
   40CHL1   C27 2957   1.494   5.641   4.230  0.6184 -0.0625 -0.4457
   40CHL1  H27A 2958   1.457   5.547   4.182  2.2617 -0.9119 -0.1148
   40CHL1  H27B 2959   1.573   5.620   4.304  2.7951  2.0830 -1.9944
   40CHL1  H27C 2960   1.413   5.706   4.270 -0.2193 -1.6545  0.5764
   41CHL1    C3 2961   0.790   3.727   2.681  0.4091 -0.4533  1.0209
   41CHL1    H3 2962   0.849   3.821   2.690  0.5288 -0.1539 -1.9287
   41CHL1    O3 2963   0.764   3.696   2.542  0.9207 -0.5633  0.1772
   41CHL1   H3' 2964   0.848   3.674   2.501  0.4115 -2.4798  0.0788
   41CHL1    C4 2965   0.860   3.613   2.746 -0.3053 -0.0101  0.2771
   41CHL1   H4A 2966   0.792   3.529   2.720 -3.7267  2.6528 -0.1593
   41CHL1   H4B 2967   0.945   3.576   2.685  0.0357 -0.7030  1.1484
   41CHL1    C5 2968   0.879   3.631   2.900 -0.4100  0.5652 -0.2622
   41CHL1    C6 2969   1.003   3.625   2.950  0.1702  0.5602  0.2502
   41CHL1    H6 2970   1.088   3.614   2.882  0.6111  0.0301  0.8687
   41CHL1    C7 2971   1.032   3.637   3.101  0.1673 -0.0377 -0.6335
   41CHL1   H7A 2972   1.102   3.556   3.132  0.2852 -0.3260 -1.5885
   41CHL1   H7B 2973   1.077   3.736   3.120 -1.3711  0.2762  1.6955
   41CHL1    C8 2974   0.906   3.641   3.183 -0.0481  0.3029 -0.1975
   41CHL1    H8 2975   0.876   3.533   3.186  0.9368  0.0548  1.6139
   41CHL1   C14 2976   0.932   3.691   3.322 -1.0724  0.1271  0.5156
   41CHL1   H14 2977   0.966   3.796   3.308  0.6947 -0.3633  0.8656
   41CHL1   C15 2978   1.055   3.625   3.388  0.0449  0.4584 -0.3488
   41CHL1  H15A 2979   1.038   3.516   3.375 -1.0595  0.3008  1.8540
   41CHL1  H15B 2980   1.133   3.676   3.329 -2.2194  0.4222 -3.6282
   41CHL1   C16 2981   1.042   3.668   3.536 -0.2168  0.5548  0.2393
   41CHL1  H16A 2982   1.054   3.583   3.606  1.4208  0.1299 -0.5191
   41CHL1  H16B 2983   1.118   3.742   3.570  0.2084  0.5268 -0.6305
   41CHL1   C17 2984   0.894   3.734   3.548 -0.4248  0.2428 -0.7330
   41CHL1   H17 2985   0.913   3.842   3.536 -0.1309  0.1740 -0.9093
   41CHL1   C13 2986   0.816   3.697   3.415  0.3694 -0.1485 -0.6665
   41CHL1   C18 2987   0.766   3.549   3.445  0.5027  0.4036 -0.7286
   41CHL1  H18A 2988   0.829   3.501   3.522 -1.0987  1.8236  1.5740
   41CHL1  H18B 2989   0.665   3.557   3.490 -0.0016 -0.9509 -1.5429
   41CHL1  H18C 2990   0.765   3.484   3.355  0.4429 -0.5430 -0.0504
   41CHL1   C12 2991   0.716   3.785   3.356  0.1078  0.0695  0.3225
   41CHL1  H12A 2992   0.617   3.790   3.406  0.1107  0.9885  0.2508
   41CHL1  H12B 2993   0.749   3.891   3.354  2.1425 -0.5213  0.0774
   41CHL1   C11 2994   0.670   3.740   3.212  0.2642  0.4061 -0.4997
   41CHL1  H11A 2995   0.622   3.641   3.226  1.7356 -0.4912 -1.5026
   41CHL1  H11B 2996   0.599   3.814   3.169 -0.4867 -1.6038 -2.8933
   41CHL1    C9 2997   0.789   3.721   3.115 -0.0990 -0.2861 -0.4370
   41CHL1    H9 2998   0.841   3.819   3.104 -1.4227  0.7275  1.8069
   41CHL1   C10 2999   0.753   3.666   2.978 -0.3484  0.2322  0.4256
   41CHL1   C19 3000   0.653   3.546   2.991  0.0168  0.4514  0.9338
   41CHL1  H19A 3001   0.637   3.524   2.884  1.2184  0.3873  0.7478
   41CHL1  H19B 3002   0.701   3.453   3.030  1.4779  0.4803 -0.6535
   41CHL1  H19C 3003   0.553   3.573   3.029 -1.4418 -2.9637 -0.1267
   41CHL1    C1 3004   0.682   3.775   2.901 -0.5228  0.9616  0.5745
   41CHL1   H1A 3005   0.586   3.799   2.951  0.2214  2.4271  1.3835
   41CHL1   H1B 3006   0.731   3.875   2.902 -1.8010  1.6246  1.9996
   41CHL1    C2 3007   0.654   3.743   2.751  0.4282  0.0550  0.0278
   41CHL1   H2A 3008   0.608   3.833   2.706  2.2038  0.2534 -1.4973
   41CHL1   H2B 3009   0.576   3.664   2.740 -0.4276  0.7782  0.7426
   41CHL1   C20 3010   0.813   3.719   3.677 -0.9293 -0.5293  0.1166
   41CHL1   H20 3011   0.780   3.613   3.677  2.7224 -1.9469  4.0688
   41CHL1   C21 3012   0.688   3.813   3.681  0.3116  0.5260  0.1251
   41CHL1  H21A 3013   0.610   3.785   3.608 -1.0532  1.3720  1.2216
   41CHL1  H21B 3014   0.718   3.920   3.685 -0.2441  0.6695  0.5141
   41CHL1  H21C 3015   0.642   3.795   3.780  1.8367 -1.5673  0.5253
   41CHL1   C22 3016   0.898   3.738   3.802  0.0034 -1.2084 -0.0236
   41CHL1  H22A 3017   1.008   3.727   3.784 -0.0101 -0.7511 -0.4080
   41CHL1  H22B 3018   0.877   3.843   3.830 -1.0680 -1.3060 -0.4158
   41CHL1   C23 3019   0.859   3.659   3.928  0.6801  0.3171 -0.2047
   41CHL1  H23A 3020   0.772   3.695   3.987 -1.4509 -3.1733 -0.9229
   41CHL1  H23B 3021   0.830   3.553   3.910 -0.0815  0.1220  1.9513
   41CHL1   C24 3022   0.982   3.653   4.020  0.0732  0.7126 -0.1694
   41CHL1  H24A 3023   1.072   3.631   3.957  0.0297  0.8727 -0.2889
   41CHL1  H24B 3024   0.996   3.747   4.078 -0.1899 -0.3527  1.7061
   41CHL1   C25 3025   0.975   3.538   4.122  0.2356  0.7272  0.0164
   41CHL1   H25 3026   0.934   3.454   4.061  0.5431 -0.3259  1.2199
   41CHL1   C26 3027   1.112   3.480   4.168 -0.2900 -0.8937 -0.9794
   41CHL1  H26A 3028   1.172   3.539   4.240 -0.0566 -3.2117  0.8481
   41CHL1  H26B 3029   1.098   3.377   4.209  0.2900 -0.3537  0.6648
   41CHL1  H26C 3030   1.170   3.460   4.075 -0.4670  1.5768 -1.6825
   41CHL1   C27 3031   0.872   3.573   4.236 -0.0810  0.6683  0.1514
   41CHL1  H27A 3032   0.873   3.493   4.314 -1.2587 -1.1316 -1.5905
   41CHL1  H27B 3033   0.915   3.667   4.277  2.2497 -0.9577  1.7171
   41CHL1  H27C 3034   0.765   3.575   4.206 -1.0588  0.1015  3.2167
   42CHL1    C3 3035   3.415   0.282   2.879  0.2529 -0.7355  0.5716
   42CHL1    H3 3036   3.308   0.258   2.896  0.2787 -2.2611 -1.1451
   42CHL1    O3 3037   3.413   0.340   2.748  0.0555 -0.1035 -0.0695
   42CHL1   H3' 3038   3.496   0.320   2.704  0.1137  2.1667 -1.1292
   42CHL1    C4 3039   3.457   0.395   2.968  0.1889  0.3935  0.3268
   42CHL1   H4A 3040   3.550   0.441   2.927  1.0513 -0.6722  1.0495
   42CHL1   H4B 3041   3.378   0.473   2.962 -0.2351 -0.0317  0.4089
   42CHL1    C5 3042   3.479   0.351   3.113 -0.1151 -0.5386  0.4363
   42CHL1    C6 3043   3.417   0.418   3.212 -0.3121  0.5176  0.8095
   42CHL1    H6 3044   3.357   0.509   3.196 -0.2879  0.8102  2.2658
   42CHL1    C7 3045   3.431   0.377   3.358  0.8185 -0.1835  1.0782
   42CHL1   H7A 3046   3.446   0.463   3.427  0.7731  0.9159 -0.2323
   42CHL1   H7B 3047   3.331   0.337   3.386 -0.8114  1.3626 -1.9463
   42CHL1    C8 3048   3.543   0.269   3.377 -0.3083  0.1364 -0.4917
   42CHL1    H8 3049   3.642   0.318   3.367 -0.2727  0.6903  1.9691
   42CHL1   C14 3050   3.535   0.212   3.520  0.5907 -0.1658  0.1345
   42CHL1   H14 3051   3.433   0.168   3.532  1.0805 -1.2607  0.4554
   42CHL1   C15 3052   3.561   0.317   3.634 -0.5966 -0.1505  0.6936
   42CHL1  H15A 3053   3.643   0.386   3.604 -0.9106 -0.7702 -1.8539
   42CHL1  H15B 3054   3.468   0.372   3.661 -1.8886 -1.5241 -0.7492
   42CHL1   C16 3055   3.604   0.225   3.747 -0.1053 -0.1638  0.2786
   42CHL1  H16A 3056   3.701   0.266   3.782 -0.7088  0.8723  0.7964
   42CHL1  H16B 3057   3.532   0.218   3.832  0.1853 -0.0892  0.5304
   42CHL1   C17 3058   3.623   0.082   3.693  0.1655 -0.3855 -0.4199
   42CHL1   H17 3059   3.525   0.033   3.706  0.1012 -0.0428  0.4503
   42CHL1   C13 3060   3.640   0.104   3.544  0.0492  0.2369  0.4266
   42CHL1   C18 3061   3.780   0.162   3.515 -0.3588  0.5395  0.0473
   42CHL1  H18A 3062   3.818   0.240   3.584  1.8290  0.2043 -0.7037
   42CHL1  H18B 3063   3.845   0.075   3.538 -0.6703 -0.1596 -1.5672
   42CHL1  H18C 3064   3.815   0.186   3.413  2.0939 -1.8331  0.2262
   42CHL1   C12 3065   3.604  -0.010   3.449 -0.3499  0.1338  0.0507
   42CHL1  H12A 3066   3.665  -0.101   3.468 -1.1064 -0.2175  0.9332
   42CHL1  H12B 3067   3.499  -0.046   3.455 -0.9843  1.8112 -0.3785
   42CHL1   C11 3068   3.630   0.034   3.301  0.5463  0.1519  0.1022
   42CHL1  H11A 3069   3.734   0.069   3.287  0.3358  1.1601  0.9332
   42CHL1  H11B 3070   3.602  -0.044   3.227  0.2557  1.3945 -1.1355
   42CHL1    C9 3071   3.536   0.158   3.266 -0.0908 -0.4005  0.3789
   42CHL1    H9 3072   3.431   0.124   3.275  0.1581 -1.0936  0.7390
   42CHL1   C10 3073   3.559   0.220   3.129 -0.0300  0.3158  0.3752
   42CHL1   C19 3074   3.706   0.248   3.105 -0.3013 -0.0504  0.0391
   42CHL1  H19A 3075   3.743   0.329   3.172 -1.4747  1.0549 -0.5901
   42CHL1  H19B 3076   3.764   0.154   3.116  1.7176  1.1536  0.1491
   42CHL1  H19C 3077   3.707   0.289   3.002 -0.0958  2.5247  0.9894
   42CHL1    C1 3078   3.505   0.112   3.029 -0.1309 -0.1650  0.2036
   42CHL1   H1A 3079   3.566   0.019   3.036  2.7597  1.6100 -0.0669
   42CHL1   H1B 3080   3.399   0.085   3.048  0.0565 -1.1219 -0.0504
   42CHL1    C2 3081   3.496   0.154   2.883 -0.0133  0.4970 -0.2459
   42CHL1   H2A 3082   3.464   0.071   2.816  0.1135  0.8749 -0.7820
   42CHL1   H2B 3083   3.593   0.188   2.841  0.5902  1.2108  1.6175
   42CHL1   C20 3084   3.728   0.004   3.775  0.0791 -0.2543 -0.3148
   42CHL1   H20 3085   3.833   0.043   3.771  0.7483 -1.7246  1.4278
   42CHL1   C21 3086   3.729  -0.146   3.744 -0.1098 -0.0391 -0.0704
   42CHL1  H21A 3087   3.800  -0.200   3.810 -0.6632 -0.3967  0.2465
   42CHL1  H21B 3088   3.760  -0.161   3.638  1.8292 -0.8478  0.5578
   42CHL1  H21C 3089   3.632  -0.199   3.755  0.0439 -0.6706 -1.4456
   42CHL1   C22 3090   3.690   0.015   3.926 -0.2359 -0.3299  0.6370
   42CHL1  H22A 3091   3.700   0.125   3.942  1.1669 -0.1983 -0.8554
   42CHL1  H22B 3092   3.587  -0.026   3.939 -1.0829  1.1199 -1.0667
   42CHL1   C23 3093   3.775  -0.056   4.029  0.6972  0.9328 -0.1080
   42CHL1  H23A 3094   3.744  -0.163   4.022 -0.4743  1.3464 -2.0041
   42CHL1  H23B 3095   3.879  -0.041   3.992  0.9378 -1.6772 -0.6916
   42CHL1   C24 3096   3.753   0.010   4.166  0.1253 -0.4465 -0.4619
   42CHL1  H24A 3097   3.752   0.120   4.147 -0.2560 -0.2818  0.4733
   42CHL1  H24B 3098   3.646  -0.016   4.181  0.0139  0.7971  1.1496
   42CHL1   C25 3099   3.848  -0.035   4.278  0.2329 -0.0738  0.4961
   42CHL1   H25 3100   3.948  -0.013   4.233  0.2422  1.6893  1.2981
   42CHL1   C26 3101   3.844   0.047   4.404  0.5892 -0.3961  0.0482
   42CHL1  H26A 3102   3.848   0.156   4.384 -0.2363 -0.1129  1.2856
   42CHL1  H26B 3103   3.754   0.036   4.467 -0.0197 -0.1170 -0.7574
   42CHL1  H26C 3104   3.936   0.027   4.464  0.1999  0.0352  0.8030
   42CHL1   C27 3105   3.840  -0.184   4.308 -0.2930  0.7760 -0.2491
   42CHL1  H27A 3106   3.739  -0.229   4.321  0.0902 -0.4904 -1.4243
   42CHL1  H27B 3107   3.886  -0.241   4.224 -0.9403 -0.6738  0.3354
   42CHL1  H27C 3108   3.902  -0.196   4.399 -1.3676  1.8079  0.6402
   43CHL1    C3 3109   4.635   0.692   2.912  0.1761 -0.1270 -0.0516
   43CHL1    H3 3110   4.565   0.766   2.955 -1.3831 -0.7084 -1.4888
   43CHL1    O3 3111   4.615   0.678   2.769 -0.5563  0.8949  0.0458
   43CHL1   H3' 3112   4.580   0.589   2.759 -2.6009  1.7176 -0.5042
   43CHL1    C4 3113   4.779   0.739   2.933  0.9874 -0.1075 -0.1386
   43CHL1   H4A 3114   4.851   0.671   2.883  1.6074 -1.8311  2.8605
   43CHL1   H4B 3115   4.810   0.830   2.877 -1.2519  0.8182  0.0290
   43CHL1    C5 3116   4.820   0.748   3.075 -0.2030 -0.7765  0.5113
   43CHL1    C6 3117   4.868   0.865   3.123  0.1457 -0.5678 -0.5335
   43CHL1    H6 3118   4.878   0.949   3.054 -0.0865  1.5134  1.8393
   43CHL1    C7 3119   4.918   0.899   3.267  0.1181  0.4547 -0.3389
   43CHL1   H7A 3120   5.019   0.944   3.278 -0.0210  0.4910  0.8350
   43CHL1   H7B 3121   4.826   0.949   3.304 -2.0226 -1.4464 -2.6316
   43CHL1    C8 3122   4.920   0.763   3.349 -0.8340 -0.4568 -0.4213
   43CHL1    H8 3123   5.013   0.707   3.325 -0.1336 -0.1034  1.2850
   43CHL1   C14 3124   4.919   0.784   3.500  0.2682 -0.0739  0.2952
   43CHL1   H14 3125   4.836   0.854   3.523 -0.0151 -0.5810  0.8334
   43CHL1   C15 3126   5.036   0.868   3.562  0.2527 -0.6460  0.8026
   43CHL1  H15A 3127   5.140   0.840   3.537  0.9275  0.4671  2.2980
   43CHL1  H15B 3128   5.016   0.976   3.548  2.4283 -0.3321 -0.1946
   43CHL1   C16 3129   5.010   0.845   3.713  0.0605 -0.4250  0.2406
   43CHL1  H16A 3130   5.107   0.836   3.766 -0.8789 -0.6598  1.9829
   43CHL1  H16B 3131   4.964   0.929   3.769 -1.0722 -1.1657  0.4490
   43CHL1   C17 3132   4.906   0.732   3.731 -0.0386 -0.1211 -0.3556
   43CHL1   H17 3133   4.805   0.777   3.740 -0.4033 -1.0256  0.1932
   43CHL1   C13 3134   4.899   0.659   3.598 -0.4722 -0.2454  0.2957
   43CHL1   C18 3135   5.027   0.573   3.598  0.1633 -0.5207 -0.2628
   43CHL1  H18A 3136   5.027   0.497   3.679 -0.7649  0.0907  0.3288
   43CHL1  H18B 3137   5.045   0.521   3.501  0.3364 -0.9864  0.0144
   43CHL1  H18C 3138   5.121   0.629   3.618  1.1344 -1.3760 -2.1483
   43CHL1   C12 3139   4.778   0.572   3.560 -0.4852 -0.0450 -0.1064
   43CHL1  H12A 3140   4.776   0.471   3.608  0.1105 -0.7964 -1.6104
   43CHL1  H12B 3141   4.687   0.634   3.577 -0.3147  0.3458 -0.5904
   43CHL1   C11 3142   4.784   0.541   3.409 -0.1522 -0.6021 -0.5682
   43CHL1  H11A 3143   4.876   0.479   3.400 -0.1201 -0.8417  1.0582
   43CHL1  H11B 3144   4.695   0.480   3.384 -1.0544  0.0963  0.8615
   43CHL1    C9 3145   4.803   0.664   3.313 -0.3380  0.0466 -0.1877
   43CHL1    H9 3146   4.715   0.729   3.328 -1.3422 -0.6609 -2.6024
   43CHL1   C10 3147   4.804   0.624   3.167  0.0688  0.4392  0.9245
   43CHL1   C19 3148   4.928   0.533   3.136  0.9532  0.0542 -0.4561
   43CHL1  H19A 3149   4.915   0.504   3.030  1.1353  0.3289 -0.5525
   43CHL1  H19B 3150   5.025   0.586   3.148  0.5860  0.5397  0.4847
   43CHL1  H19C 3151   4.936   0.449   3.209  3.5615  1.3575  0.9090
   43CHL1    C1 3152   4.665   0.551   3.129  0.5667 -0.4843 -0.0069
   43CHL1   H1A 3153   4.649   0.453   3.180  0.8803 -0.4185  0.2263
   43CHL1   H1B 3154   4.598   0.624   3.178  2.0911  0.7876  0.2653
   43CHL1    C2 3155   4.610   0.552   2.985 -0.5818  0.4354  0.2792
   43CHL1   H2A 3156   4.503   0.523   2.981 -0.1426 -1.1831 -0.8417
   43CHL1   H2B 3157   4.654   0.467   2.929 -4.3432 -0.3464 -1.8370
   43CHL1   C20 3158   4.930   0.656   3.869 -0.3699  0.1809 -0.5843
   43CHL1   H20 3159   5.033   0.616   3.873  0.1874  1.6344  1.2807
   43CHL1   C21 3160   4.823   0.546   3.878  0.2060  0.6334 -0.4415
   43CHL1  H21A 3161   4.723   0.594   3.882 -0.7019 -1.2346  1.0543
   43CHL1  H21B 3162   4.846   0.493   3.973 -1.6669 -0.7597 -0.6999
   43CHL1  H21C 3163   4.827   0.463   3.805 -1.9738  0.0987 -0.0205
   43CHL1   C22 3164   4.904   0.753   3.996  0.1782  0.4502  0.3652
   43CHL1  H22A 3165   4.974   0.839   3.994  0.7132  0.0067 -0.6450
   43CHL1  H22B 3166   4.803   0.797   4.011 -1.2392 -2.0698 -0.9680
   43CHL1   C23 3167   4.950   0.696   4.130  0.0479  0.4459  0.0524
   43CHL1  H23A 3168   4.906   0.594   4.140  2.3393 -0.5933  0.1985
   43CHL1  H23B 3169   5.061   0.692   4.129  0.0835 -0.2341  2.0516
   43CHL1   C24 3170   4.918   0.788   4.251  0.8449  0.9359 -0.4490
   43CHL1  H24A 3171   4.969   0.887   4.247 -0.2560  1.6314  1.3506
   43CHL1  H24B 3172   4.808   0.798   4.259  0.4359 -2.9068  1.3094
   43CHL1   C25 3173   4.985   0.744   4.377  0.4598  0.4320 -0.1699
   43CHL1   H25 3174   5.093   0.738   4.352  0.2049 -1.7563 -0.9981
   43CHL1   C26 3175   4.954   0.836   4.486 -0.3501 -0.2399 -0.2885
   43CHL1  H26A 3176   5.006   0.811   4.581 -0.1912 -0.0855 -0.3339
   43CHL1  H26B 3177   4.981   0.939   4.455 -1.6696  0.1429 -0.1952
   43CHL1  H26C 3178   4.846   0.838   4.511 -0.5910  1.7819 -1.3556
   43CHL1   C27 3179   4.932   0.603   4.414 -0.5632 -0.6016  0.3168
   43CHL1  H27A 3180   4.966   0.523   4.344  2.1817  1.5687 -1.0452
   43CHL1  H27B 3181   4.964   0.582   4.518  0.5197 -1.1418 -0.1109
   43CHL1  H27C 3182   4.822   0.617   4.416 -0.3350  1.4335  1.5351
   44CHL1    C3 3183   3.918   1.147   3.022 -0.4310 -0.4153  0.5616
   44CHL1    H3 3184   4.010   1.204   3.046  0.6170 -1.7094 -0.2500
   44CHL1    O3 3185   3.918   1.129   2.875  0.4985  0.4024 -0.6597
   44CHL1   H3' 3186   3.827   1.111   2.853  1.1396 -1.8440 -1.7631
   44CHL1    C4 3187   3.917   1.007   3.098  0.1039  0.1532 -0.1107
   44CHL1   H4A 3188   3.832   0.940   3.073  0.6946 -0.1850 -1.2694
   44CHL1   H4B 3189   4.010   0.953   3.069  1.3155  0.8886  2.1616
   44CHL1    C5 3190   3.923   1.023   3.250  0.0886  0.0020 -0.3102
   44CHL1    C6 3191   4.023   0.962   3.324  0.1736  0.0509 -0.0138
   44CHL1    H6 3192   4.087   0.887   3.275  0.4717 -1.4060  2.4394
   44CHL1    C7 3193   4.036   0.973   3.475 -0.1058  0.6201  0.1454
   44CHL1   H7A 3194   4.038   0.867   3.510 -2.9399  0.6905  0.7458
   44CHL1   H7B 3195   4.135   1.022   3.491  0.7086 -0.8227 -0.2649
   44CHL1    C8 3196   3.920   1.054   3.542  0.1615  0.1033  0.6191
   44CHL1    H8 3197   3.839   0.980   3.562  0.8062 -1.3726 -1.8663
   44CHL1   C14 3198   3.949   1.100   3.686 -0.9735  0.6891  0.1357
   44CHL1   H14 3199   4.024   1.181   3.692 -1.1473  0.9702 -1.2241
   44CHL1   C15 3200   4.008   0.990   3.784 -0.0425  0.2511 -1.0012
   44CHL1  H15A 3201   3.947   0.897   3.783 -2.8635  1.9859 -0.3889
   44CHL1  H15B 3202   4.118   0.975   3.772 -0.1375 -2.2970  0.4263
   44CHL1   C16 3203   3.989   1.049   3.918 -0.1890 -0.5027  0.0604
   44CHL1  H16A 3204   3.957   0.975   3.995 -1.1755 -0.6638 -0.4896
   44CHL1  H16B 3205   4.090   1.084   3.949 -0.1065  0.3528 -1.1152
   44CHL1   C17 3206   3.911   1.188   3.903 -0.2832 -0.3159  0.1215
   44CHL1   H17 3207   3.992   1.263   3.888 -0.1334 -0.3590  0.6886
   44CHL1   C13 3208   3.838   1.165   3.763 -0.1797 -0.5920 -0.4395
   44CHL1   C18 3209   3.714   1.069   3.777 -0.3049  0.7282  0.8564
   44CHL1  H18A 3210   3.629   1.107   3.837 -1.0854  0.4418 -0.0533
   44CHL1  H18B 3211   3.669   1.033   3.682 -0.5949 -0.3433  1.3856
   44CHL1  H18C 3212   3.747   0.976   3.829 -1.4749  0.5235  1.2663
   44CHL1   C12 3213   3.803   1.289   3.677 -0.1534 -0.1179  0.2293
   44CHL1  H12A 3214   3.725   1.359   3.716  1.1794  0.3238  2.2879
   44CHL1  H12B 3215   3.898   1.344   3.665 -1.6224  2.4523 -0.4010
   44CHL1   C11 3216   3.760   1.253   3.531  0.0923  0.5100 -0.6723
   44CHL1  H11A 3217   3.663   1.200   3.537  1.9588 -3.0598  0.2713
   44CHL1  H11B 3218   3.747   1.347   3.472 -0.3874  1.7010  1.2300
   44CHL1    C9 3219   3.871   1.164   3.459  0.4383 -0.2770  0.6145
   44CHL1    H9 3220   3.961   1.229   3.450  0.3136 -0.2573 -0.5546
   44CHL1   C10 3221   3.831   1.132   3.310 -0.0474  0.0677  0.6064
   44CHL1   C19 3222   3.692   1.070   3.313  0.1366 -0.7757  0.2740
   44CHL1  H19A 3223   3.622   1.154   3.332  1.3799  0.2706  0.3095
   44CHL1  H19B 3224   3.670   1.017   3.217  0.1346 -0.5768  0.1635
   44CHL1  H19C 3225   3.685   0.994   3.394  1.4598 -0.3267  0.8342
   44CHL1    C1 3226   3.823   1.258   3.214 -0.2716 -0.4135  0.1403
   44CHL1   H1A 3227   3.749   1.330   3.257  0.2892  1.4968 -1.8927
   44CHL1   H1B 3228   3.917   1.316   3.221  0.0054 -0.7482 -0.6544
   44CHL1    C2 3229   3.803   1.228   3.070  0.5946  0.6630  0.0422
   44CHL1   H2A 3230   3.786   1.323   3.016  0.4078  1.8242  2.0259
   44CHL1   H2B 3231   3.709   1.168   3.063  1.1498 -0.0699 -1.4535
   44CHL1   C20 3232   3.833   1.236   4.028 -0.0932 -0.4647 -0.1535
   44CHL1   H20 3233   3.762   1.156   4.059 -1.3594 -0.2035 -2.2094
   44CHL1   C21 3234   3.755   1.366   3.991 -0.0129 -0.3238 -1.1069
   44CHL1  H21A 3235   3.818   1.445   3.946 -2.5642  2.1239 -0.7214
   44CHL1  H21B 3236   3.695   1.409   4.074 -0.1220  1.2564 -1.9853
   44CHL1  H21C 3237   3.676   1.339   3.918 -2.2240  0.4608  0.8579
   44CHL1   C22 3238   3.931   1.270   4.145  0.1629  0.7292 -0.4349
   44CHL1  H22A 3239   4.009   1.192   4.161  1.0349  1.7783  0.5761
   44CHL1  H22B 3240   3.976   1.359   4.097 -2.7736  0.8150 -3.3591
   44CHL1   C23 3241   3.881   1.310   4.286  0.6082 -0.3882  1.0502
   44CHL1  H23A 3242   3.934   1.397   4.329 -0.0960  0.2417  0.6688
   44CHL1  H23B 3243   3.778   1.349   4.274  0.8182 -0.5821 -2.6740
   44CHL1   C24 3244   3.880   1.180   4.367 -0.1683 -0.2803  0.0382
   44CHL1  H24A 3245   3.827   1.208   4.460  1.9794  0.4875  1.0857
   44CHL1  H24B 3246   3.823   1.096   4.320  0.0345 -0.1340 -0.4717
   44CHL1   C25 3247   4.011   1.129   4.405  0.2445  0.3343  0.1488
   44CHL1   H25 3248   4.071   1.096   4.317  0.9639 -0.9581  1.0778
   44CHL1   C26 3249   4.085   1.237   4.494  0.1881 -0.3256  0.2608
   44CHL1  H26A 3250   4.132   1.314   4.428  0.1338  1.7105  2.4460
   44CHL1  H26B 3251   4.016   1.290   4.563  0.8089  0.6979  0.1208
   44CHL1  H26C 3252   4.167   1.194   4.554 -0.4516  1.0862  2.2446
   44CHL1   C27 3253   3.997   1.001   4.498 -0.2425  0.2604  0.3546
   44CHL1  H27A 3254   4.097   0.954   4.507 -0.2747 -0.6124 -2.7068
   44CHL1  H27B 3255   3.966   1.037   4.598  2.1684  0.9813  0.9046
   44CHL1  H27C 3256   3.926   0.921   4.466 -1.0070 -0.0467  2.6735
   45CHL1    C3 3257   4.482   3.994   2.798 -0.4251 -0.1692 -0.4852
   45CHL1    H3 3258   4.524   3.905   2.849 -2.8243 -2.3980 -2.0899
   45CHL1    O3 3259   4.495   3.983   2.654 -0.5230 -0.1028  0.2023
   45CHL1   H3' 3260   4.462   4.067   2.621  2.1099  0.3607 -1.6337
   45CHL1    C4 3261   4.332   3.990   2.831  0.4790  0.3208  0.5180
   45CHL1   H4A 3262   4.285   4.078   2.781  1.4990  0.3228 -0.4890
   45CHL1   H4B 3263   4.287   3.897   2.790  0.0732  0.7520 -0.0369
   45CHL1    C5 3264   4.309   4.012   2.979 -0.7650  0.3718 -0.2908
   45CHL1    C6 3265   4.238   3.929   3.053  0.1737  0.2368 -0.6092
   45CHL1    H6 3266   4.191   3.838   3.012 -1.7646  0.4595  0.9734
   45CHL1    C7 3267   4.203   3.951   3.198  0.3926  0.5807  0.1225
   45CHL1   H7A 3268   4.093   3.939   3.210  0.0558  1.9151 -1.3202
   45CHL1   H7B 3269   4.249   3.864   3.250 -1.2695  0.7705  2.0349
   45CHL1    C8 3270   4.236   4.078   3.262 -0.1550  0.4046  0.3286
   45CHL1    H8 3271   4.164   4.157   3.234  1.4479  3.2661  3.5521
   45CHL1   C14 3272   4.253   4.058   3.409  0.3923 -0.4070 -0.4570
   45CHL1   H14 3273   4.338   3.988   3.424  3.1524  2.5821 -1.0883
   45CHL1   C15 3274   4.136   4.001   3.491 -0.0367  0.1238 -0.0338
   45CHL1  H15A 3275   4.037   4.048   3.471  0.7272  2.6193  1.6402
   45CHL1  H15B 3276   4.130   3.890   3.494  2.0918 -0.0368  0.0121
   45CHL1   C16 3277   4.168   4.053   3.641 -0.7263 -0.3827  0.3878
   45CHL1  H16A 3278   4.072   4.092   3.681 -0.2047  0.7968  0.5281
   45CHL1  H16B 3279   4.196   3.965   3.702  2.8001  2.2561  2.9945
   45CHL1   C17 3280   4.294   4.141   3.629 -0.5289  0.2254 -0.1476
   45CHL1   H17 3281   4.382   4.075   3.642  0.9369  2.2689  0.9048
   45CHL1   C13 3282   4.299   4.186   3.485  0.2997 -0.2076  0.2647
   45CHL1   C18 3283   4.195   4.297   3.459 -0.0498 -0.6773  0.1951
   45CHL1  H18A 3284   4.199   4.338   3.355  0.6681  1.3357  0.9690
   45CHL1  H18B 3285   4.092   4.268   3.490  0.0799 -1.3156  0.0412
   45CHL1  H18C 3286   4.221   4.389   3.516  3.8604 -0.8597 -1.0176
   45CHL1   C12 3287   4.437   4.223   3.431 -0.0451 -0.2959 -0.5310
   45CHL1  H12A 3288   4.485   4.309   3.484  0.0013 -0.3595 -0.4695
   45CHL1  H12B 3289   4.515   4.145   3.445  0.3469 -0.1632 -1.8343
   45CHL1   C11 3290   4.444   4.237   3.275 -0.3744 -0.6049 -0.3527
   45CHL1  H11A 3291   4.411   4.338   3.243  0.5704 -0.6109 -1.4492
   45CHL1  H11B 3292   4.551   4.230   3.245 -0.4259 -2.6356 -0.2014
   45CHL1    C9 3293   4.378   4.128   3.201  0.5963  0.5467  0.4064
   45CHL1    H9 3294   4.449   4.047   3.227  1.1436  1.4501  1.8591
   45CHL1   C10 3295   4.377   4.144   3.041 -0.1786  0.1078  0.3119
   45CHL1   C19 3296   4.310   4.273   2.987  0.1799  0.1665  0.0948
   45CHL1  H19A 3297   4.286   4.259   2.879 -1.4353 -2.4584  0.6837
   45CHL1  H19B 3298   4.211   4.284   3.036 -0.3872 -2.4317 -0.3157
   45CHL1  H19C 3299   4.366   4.365   3.011 -1.8031  1.5499 -0.3271
   45CHL1    C1 3300   4.531   4.141   2.996  0.2306  0.1778  0.3182
   45CHL1   H1A 3301   4.590   4.225   3.038  1.8382 -1.0245  0.5285
   45CHL1   H1B 3302   4.582   4.055   3.044  2.3819 -0.1910 -2.3755
   45CHL1    C2 3303   4.549   4.126   2.845  0.1867  0.3142 -0.0063
   45CHL1   H2A 3304   4.660   4.133   2.836  0.5183 -0.7657  2.4106
   45CHL1   H2B 3305   4.497   4.206   2.788  0.1810 -0.1400 -0.6577
   45CHL1   C20 3306   4.303   4.251   3.730 -0.0688 -0.0581  0.0681
   45CHL1   H20 3307   4.370   4.328   3.685  1.6632 -0.4754  1.8237
   45CHL1   C21 3308   4.382   4.191   3.851 -0.0415  0.5174  0.4466
   45CHL1  H21A 3309   4.468   4.132   3.813 -0.4681  1.2290 -1.7997
   45CHL1  H21B 3310   4.308   4.122   3.897 -1.5878  0.5333 -1.8229
   45CHL1  H21C 3311   4.416   4.274   3.915  2.8393 -1.5270  1.7497
   45CHL1   C22 3312   4.182   4.330   3.781 -0.4052  0.3080  0.0714
   45CHL1  H22A 3313   4.102   4.332   3.704 -1.2404  1.1195  0.9183
   45CHL1  H22B 3314   4.151   4.284   3.878  3.3749 -1.8847  0.4142
   45CHL1   C23 3315   4.210   4.483   3.808  0.4160  0.8023 -0.0783
   45CHL1  H23A 3316   4.306   4.477   3.864  0.3068  0.1030  0.0460
   45CHL1  H23B 3317   4.242   4.545   3.722  2.8594  0.8876  0.8092
   45CHL1   C24 3318   4.102   4.546   3.896 -0.0891 -0.4366 -0.6135
   45CHL1  H24A 3319   4.013   4.563   3.832 -0.7591 -1.4914  0.0041
   45CHL1  H24B 3320   4.061   4.472   3.969 -1.0979 -0.2701 -0.9972
   45CHL1   C25 3321   4.127   4.681   3.964 -0.2529 -0.7201 -0.0241
   45CHL1   H25 3322   4.167   4.745   3.882 -0.2861 -0.8683 -0.1553
   45CHL1   C26 3323   3.994   4.744   4.010 -0.3269  0.5190  0.3493
   45CHL1  H26A 3324   3.946   4.667   4.074 -1.8242 -0.5899 -1.9439
   45CHL1  H26B 3325   4.010   4.836   4.070  0.6602  2.8291 -3.1424
   45CHL1  H26C 3326   3.925   4.765   3.925 -0.1077 -2.3634 -0.6776
   45CHL1   C27 3327   4.213   4.670   4.088 -0.4407 -0.5460  0.5453
   45CHL1  H27A 3328   4.240   4.764   4.140 -0.0808 -1.0093  1.2226
   45CHL1  H27B 3329   4.160   4.617   4.171 -1.7402 -0.9933 -0.5415
   45CHL1  H27C 3330   4.307   4.617   4.061 -0.7004  0.3964 -2.5709
   46CHL1    C3 3331   5.465   2.978   2.927 -0.4797  0.3149  0.2494
   46CHL1    H3 3332   5.442   3.085   2.908  0.2499  0.3633 -0.4372
   46CHL1    O3 3333   5.480   2.923   2.798  0.2523  0.6631  0.2641
   46CHL1   H3' 3334   5.495   2.829   2.808 -0.4822  0.6330  1.2773
   46CHL1    C4 3335   5.591   2.938   3.008  0.8028 -0.2886 -0.1969
   46CHL1   H4A 3336   5.595   2.827   3.005 -1.4282 -0.4737  1.5475
   46CHL1   H4B 3337   5.682   2.974   2.955  0.3273 -0.1380 -0.9328
   46CHL1    C5 3338   5.572   2.986   3.151 -0.4096 -0.6884  0.0386
   46CHL1    C6 3339   5.663   3.073   3.207 -0.3893  0.5035  0.2752
   46CHL1    H6 3340   5.752   3.102   3.150 -0.7500  0.0154 -0.5634
   46CHL1    C7 3341   5.656   3.115   3.351 -0.0132  0.3838 -0.2171
   46CHL1   H7A 3342   5.757   3.113   3.397  0.2680 -0.0505 -0.8412
   46CHL1   H7B 3343   5.613   3.217   3.363 -2.0354 -0.6629  2.5474
   46CHL1    C8 3344   5.561   3.025   3.436 -0.0418  0.1344  0.3127
   46CHL1    H8 3345   5.610   2.925   3.442  1.5947  0.8603 -0.4705
   46CHL1   C14 3346   5.543   3.090   3.572 -0.2850  0.6939 -0.0063
   46CHL1   H14 3347   5.501   3.192   3.561 -0.3341  0.8571  1.4822
   46CHL1   C15 3348   5.673   3.118   3.644  0.3319 -0.7136  0.0688
   46CHL1  H15A 3349   5.746   3.035   3.633  1.1276  0.1942 -2.0802
   46CHL1  H15B 3350   5.714   3.209   3.596 -2.2959  0.7874  0.4583
   46CHL1   C16 3351   5.626   3.133   3.790  0.3093  0.5652  0.6064
   46CHL1  H16A 3352   5.681   3.054   3.846  1.8198  1.5566  0.5973
   46CHL1  H16B 3353   5.654   3.235   3.824  1.4166  0.0245  1.3822
   46CHL1   C17 3354   5.475   3.108   3.794  0.5044 -0.1090 -0.3252
   46CHL1   H17 3355   5.436   3.204   3.754 -0.3929  0.1949  1.2150
   46CHL1   C13 3356   5.455   3.014   3.665  0.1953  0.6025 -0.0098
   46CHL1   C18 3357   5.498   2.873   3.697  0.2503  0.4522 -0.1178
   46CHL1  H18A 3358   5.528   2.807   3.613 -1.0765 -0.3729  0.0205
   46CHL1  H18B 3359   5.583   2.880   3.768 -0.6326  2.6975  0.8039
   46CHL1  H18C 3360   5.413   2.823   3.748 -0.1317  0.7266 -0.4786
   46CHL1   C12 3361   5.316   3.013   3.596 -0.7065  0.3339 -0.7379
   46CHL1  H12A 3362   5.234   2.982   3.664  1.4047 -0.7085  1.4851
   46CHL1  H12B 3363   5.292   3.119   3.571 -0.0733  0.4070 -1.0611
   46CHL1   C11 3364   5.328   2.936   3.466  0.2422  0.0616  0.4005
   46CHL1  H11A 3365   5.357   2.831   3.489 -1.1022 -0.6310 -0.9470
   46CHL1  H11B 3366   5.228   2.939   3.419  0.8124  4.1685 -0.9602
   46CHL1    C9 3367   5.424   3.001   3.364  0.1224  0.5585 -0.2405
   46CHL1    H9 3368   5.386   3.104   3.344  0.9315  1.2606  1.5709
   46CHL1   C10 3369   5.445   2.935   3.228  0.0858  0.0391  0.4344
   46CHL1   C19 3370   5.450   2.783   3.254 -0.0952 -1.0820 -0.1818
   46CHL1  H19A 3371   5.493   2.731   3.166  0.4138  1.7001 -1.6749
   46CHL1  H19B 3372   5.524   2.771   3.336  1.6927  1.5443 -1.2723
   46CHL1  H19C 3373   5.346   2.747   3.271  0.2554 -1.5050  1.2160
   46CHL1    C1 3374   5.324   2.968   3.133 -0.0204 -0.1989 -0.0545
   46CHL1   H1A 3375   5.242   2.912   3.182 -0.0252  1.8146  2.4422
   46CHL1   H1B 3376   5.301   3.076   3.139  1.4141  0.0524  1.3976
   46CHL1    C2 3377   5.338   2.915   2.991 -0.2843  0.1463  0.0779
   46CHL1   H2A 3378   5.247   2.937   2.931 -0.3549 -0.1975  0.0578
   46CHL1   H2B 3379   5.339   2.804   2.999  1.5864  0.0869 -0.4802
   46CHL1   C20 3380   5.396   3.073   3.918 -0.4958  0.3399  0.1727
   46CHL1   H20 3381   5.305   3.013   3.899 -0.7487  0.1142  1.9378
   46CHL1   C21 3382   5.358   3.208   3.982  0.2901 -0.5571  0.6106
   46CHL1  H21A 3383   5.450   3.268   3.999  0.3770 -0.4355 -0.2375
   46CHL1  H21B 3384   5.303   3.186   4.076  0.1101  0.1398  0.6752
   46CHL1  H21C 3385   5.293   3.266   3.912  1.1089  1.3228  1.3482
   46CHL1   C22 3386   5.481   2.983   4.018 -0.2868  0.2418  0.6209
   46CHL1  H22A 3387   5.518   2.898   3.957 -1.9601  0.3822 -0.6649
   46CHL1  H22B 3388   5.574   3.037   4.046  1.2593 -1.4035 -1.0599
   46CHL1   C23 3389   5.403   2.947   4.143  0.6447  0.3945 -0.2297
   46CHL1  H23A 3390   5.389   3.038   4.204 -0.2476  0.9104 -1.1633
   46CHL1  H23B 3391   5.306   2.901   4.113  2.0671 -0.2919 -4.6167
   46CHL1   C24 3392   5.474   2.850   4.244  0.0290  0.2770  0.8995
   46CHL1  H24A 3393   5.451   2.751   4.200 -1.2044  0.6378  0.6935
   46CHL1  H24B 3394   5.584   2.866   4.247  0.0262  0.4652  0.0382
   46CHL1   C25 3395   5.430   2.850   4.397 -0.4270 -0.0091  0.3984
   46CHL1   H25 3396   5.319   2.854   4.390 -0.4685 -0.7437  0.6001
   46CHL1   C26 3397   5.482   2.720   4.459  0.3942  0.0096 -0.2279
   46CHL1  H26A 3398   5.447   2.696   4.561 -1.0968 -3.3516 -1.4071
   46CHL1  H26B 3399   5.436   2.642   4.394 -2.3844 -0.4961  2.1419
   46CHL1  H26C 3400   5.591   2.700   4.448  0.0438 -2.2390  0.0128
   46CHL1   C27 3401   5.477   2.979   4.470 -0.6954  0.3687 -0.5829
   46CHL1  H27A 3402   5.444   3.068   4.413  0.4425  1.3165  0.2203
   46CHL1  H27B 3403   5.441   2.990   4.575  2.1978 -1.8879  0.7783
   46CHL1  H27C 3404   5.586   2.975   4.486 -0.8813 -3.8710  1.1991
   47CHL1    C3 3405   5.381   3.715   2.595 -0.4636 -0.1916  0.1979
   47CHL1    H3 3406   5.405   3.616   2.640  0.3333  0.3154  0.9219
   47CHL1    O3 3407   5.357   3.699   2.458  0.2562 -0.3747 -0.3476
   47CHL1   H3' 3408   5.310   3.618   2.440 -0.5609 -0.0641  0.3375
   47CHL1    C4 3409   5.264   3.780   2.668  0.0758  0.1438 -0.0295
   47CHL1   H4A 3410   5.234   3.865   2.603  1.9954  0.0959 -1.0610
   47CHL1   H4B 3411   5.179   3.709   2.663  0.3903 -0.2157 -0.2439
   47CHL1    C5 3412   5.281   3.837   2.810 -0.2444 -0.9817 -1.1728
   47CHL1    C6 3413   5.202   3.799   2.911  0.0752  0.0516 -0.3699
   47CHL1    H6 3414   5.119   3.734   2.878  0.6701 -0.0997 -1.6395
   47CHL1    C7 3415   5.219   3.833   3.051 -0.1929 -0.4133 -0.0604
   47CHL1   H7A 3416   5.127   3.890   3.076  1.2059  2.4072 -0.9482
   47CHL1   H7B 3417   5.224   3.736   3.106 -0.2064  0.9918  2.5373
   47CHL1    C8 3418   5.334   3.935   3.082 -0.9541 -0.0566  0.0295
   47CHL1    H8 3419   5.294   4.036   3.056  0.8339  0.8893  0.7412
   47CHL1   C14 3420   5.373   3.921   3.229 -0.3057  0.5396  0.5585
   47CHL1   H14 3421   5.411   3.819   3.247 -0.2494  0.7604  1.7530
   47CHL1   C15 3422   5.263   3.935   3.336 -0.2843 -0.3509 -0.6583
   47CHL1  H15A 3423   5.203   4.027   3.320  1.1546  0.5074 -1.3649
   47CHL1  H15B 3424   5.191   3.851   3.344 -1.9538  0.9224 -1.5921
   47CHL1   C16 3425   5.338   3.964   3.464  0.3714  0.4298  0.0319
   47CHL1  H16A 3426   5.301   4.058   3.509 -0.9952 -0.6526  1.2499
   47CHL1  H16B 3427   5.330   3.882   3.539  1.9610 -0.7306 -1.0044
   47CHL1   C17 3428   5.493   3.981   3.436  0.3292  0.0557  0.4351
   47CHL1   H17 3429   5.546   3.884   3.450  0.4389  0.4815  3.7024
   47CHL1   C13 3430   5.486   4.011   3.281 -0.7478  0.0337  0.6166
   47CHL1   C18 3431   5.428   4.160   3.262 -0.2047  0.2111  0.2068
   47CHL1  H18A 3432   5.334   4.174   3.319 -0.2067 -1.8701  0.8016
   47CHL1  H18B 3433   5.507   4.228   3.301  0.4401  0.2760 -1.1703
   47CHL1  H18C 3434   5.407   4.179   3.155 -0.7429  1.6808  0.5494
   47CHL1   C12 3435   5.608   3.989   3.188  0.0657 -0.7012 -0.6039
   47CHL1  H12A 3436   5.680   4.071   3.208 -0.0848  0.1858 -3.2133
   47CHL1  H12B 3437   5.653   3.891   3.214  1.4471 -0.0936 -0.5936
   47CHL1   C11 3438   5.579   3.997   3.032  0.2966 -0.8581  0.3263
   47CHL1  H11A 3439   5.561   4.103   3.007 -1.0382 -0.9599  0.7611
   47CHL1  H11B 3440   5.667   3.955   2.978 -0.8212  0.8719 -3.0946
   47CHL1    C9 3441   5.454   3.907   2.989 -0.4247 -0.0108 -0.7699
   47CHL1    H9 3442   5.477   3.802   3.019 -2.7781  0.0745  1.6771
   47CHL1   C10 3443   5.421   3.911   2.839  0.1655  0.6681 -0.5082
   47CHL1   C19 3444   5.407   4.049   2.790 -0.0106 -0.6653 -0.1587
   47CHL1  H19A 3445   5.384   4.057   2.682 -2.5739  0.3051  0.3993
   47CHL1  H19B 3446   5.320   4.094   2.842  0.4575  0.3693 -0.2455
   47CHL1  H19C 3447   5.492   4.118   2.808  0.2922 -1.3265  1.0515
   47CHL1    C1 3448   5.535   3.837   2.763 -0.2467  0.0697  0.2151
   47CHL1   H1A 3449   5.637   3.880   2.775  0.0409 -0.9589  1.8333
   47CHL1   H1B 3450   5.546   3.737   2.810  1.3136 -0.4599 -1.1544
   47CHL1    C2 3451   5.504   3.807   2.614 -0.4375 -0.0051  0.2178
   47CHL1   H2A 3452   5.600   3.774   2.570 -0.4586 -0.4773  0.5185
   47CHL1   H2B 3453   5.480   3.906   2.569  1.1267  0.4042  0.2382
   47CHL1   C20 3454   5.575   4.071   3.520 -0.0455  0.0946  0.1545
   47CHL1   H20 3455   5.538   4.175   3.504 -2.6675 -0.8400 -0.3429
   47CHL1   C21 3456   5.725   4.051   3.481  0.5011  0.6822 -0.7299
   47CHL1  H21A 3457   5.754   3.944   3.477 -1.0860  0.2780 -2.8336
   47CHL1  H21B 3458   5.788   4.098   3.559  0.3701 -0.6259  0.2022
   47CHL1  H21C 3459   5.751   4.105   3.387  0.0634  0.1963 -1.1348
   47CHL1   C22 3460   5.555   4.044   3.677 -0.0197 -0.1680 -0.3585
   47CHL1  H22A 3461   5.445   4.037   3.693 -0.0607  0.0570 -0.5439
   47CHL1  H22B 3462   5.598   3.948   3.713 -1.5470 -0.8873 -0.3689
   47CHL1   C23 3463   5.608   4.155   3.757  0.5041 -0.2471  0.0337
   47CHL1  H23A 3464   5.718   4.169   3.761  0.2861  1.6360  0.4155
   47CHL1  H23B 3465   5.561   4.250   3.722 -0.5423 -1.1364 -1.0398
   47CHL1   C24 3466   5.564   4.134   3.904  0.3272  0.2365 -0.0436
   47CHL1  H24A 3467   5.567   4.234   3.951 -3.3476  2.5099 -3.9885
   47CHL1  H24B 3468   5.459   4.099   3.903  0.7368 -1.3203  2.4482
   47CHL1   C25 3469   5.640   4.033   3.987  0.2287 -0.3843 -0.3062
   47CHL1   H25 3470   5.662   3.947   3.921  2.4412  0.0494 -0.2181
   47CHL1   C26 3471   5.780   4.092   4.036 -0.4124  0.3613 -0.1178
   47CHL1  H26A 3472   5.850   4.013   4.070 -0.0694  0.2742 -1.0115
   47CHL1  H26B 3473   5.829   4.149   3.955 -0.5963 -1.0238 -1.2420
   47CHL1  H26C 3474   5.768   4.166   4.118 -0.4945  0.6647 -0.4010
   47CHL1   C27 3475   5.558   3.993   4.105  0.7812  0.1605  0.4557
   47CHL1  H27A 3476   5.528   4.093   4.144  1.1568  0.4981 -0.0947
   47CHL1  H27B 3477   5.475   3.929   4.069  0.3772  0.6321  0.5440
   47CHL1  H27C 3478   5.625   3.937   4.173  0.4916 -1.9452 -0.9002
   48CHL1    C3 3479   2.322   0.787   2.689  0.4194  0.2477 -0.0455
   48CHL1    H3 3480   2.414   0.841   2.719  0.0657  0.8472 -0.0170
   48CHL1    O3 3481   2.313   0.771   2.547  0.6820  0.3182  0.2945
   48CHL1   H3' 3482   2.392   0.725   2.519 -0.1189 -1.6510  1.0602
   48CHL1    C4 3483   2.328   0.650   2.747  0.0743  1.0579  0.5730
   48CHL1   H4A 3484   2.242   0.585   2.719 -0.4873  1.3587  1.5595
   48CHL1   H4B 3485   2.414   0.599   2.697  0.3281  2.3311 -0.3156
   48CHL1    C5 3486   2.340   0.649   2.899  0.3024  0.6863  0.4089
   48CHL1    C6 3487   2.449   0.604   2.971 -0.4585 -0.9425  0.1022
   48CHL1    H6 3488   2.535   0.574   2.910 -1.4144 -0.8403 -1.3445
   48CHL1    C7 3489   2.468   0.620   3.121 -0.1976  0.9814  0.9475
   48CHL1   H7A 3490   2.514   0.533   3.172 -1.3593  1.6084  3.1909
   48CHL1   H7B 3491   2.534   0.709   3.126 -0.0173  1.0294 -1.3671
   48CHL1    C8 3492   2.336   0.640   3.192  0.4183  0.3599 -0.1883
   48CHL1    H8 3493   2.281   0.544   3.186  1.7357 -0.3622 -1.6207
   48CHL1   C14 3494   2.375   0.676   3.335  0.0684 -0.3731 -0.0306
   48CHL1   H14 3495   2.435   0.768   3.323  0.4927 -0.6874 -0.3861
   48CHL1   C15 3496   2.460   0.582   3.417 -0.3316 -0.2416 -0.2629
   48CHL1  H15A 3497   2.415   0.481   3.413  0.2119 -0.4982  0.0273
   48CHL1  H15B 3498   2.567   0.581   3.384  0.2519 -0.4402  1.5542
   48CHL1   C16 3499   2.453   0.637   3.557 -0.5674  0.5801 -0.3453
   48CHL1  H16A 3500   2.433   0.558   3.634 -1.6441  2.2877  1.2077
   48CHL1  H16B 3501   2.538   0.699   3.592 -1.9058  1.9873  0.5593
   48CHL1   C17 3502   2.323   0.728   3.564  1.7797  0.1387  0.6044
   48CHL1   H17 3503   2.358   0.834   3.568  1.3273  0.4018 -1.3830
   48CHL1   C13 3504   2.258   0.707   3.430  1.1208 -0.4560  0.4363
   48CHL1   C18 3505   2.170   0.581   3.437  0.2743 -0.3499  0.4533
   48CHL1  H18A 3506   2.069   0.607   3.476  0.1985 -0.2536  0.1949
   48CHL1  H18B 3507   2.153   0.541   3.335  0.4107 -3.0614  1.4174
   48CHL1  H18C 3508   2.211   0.499   3.499  0.7505 -2.0713 -1.9826
   48CHL1   C12 3509   2.182   0.831   3.363  0.1257 -0.1840  0.0167
   48CHL1  H12A 3510   2.085   0.861   3.409  0.4859  2.2019 -0.6508
   48CHL1  H12B 3511   2.248   0.919   3.351  0.4961 -0.2639  1.2351
   48CHL1   C11 3512   2.143   0.795   3.213  0.5702 -0.6430 -0.2615
   48CHL1  H11A 3513   2.058   0.724   3.218  0.4209 -0.6570 -2.2791
   48CHL1  H11B 3514   2.097   0.884   3.165 -2.0097 -0.2082  2.6915
   48CHL1    C9 3515   2.257   0.748   3.127  0.1024 -0.3988  0.1281
   48CHL1    H9 3516   2.334   0.828   3.132 -0.6428  0.2532  2.7058
   48CHL1   C10 3517   2.218   0.718   2.977 -0.6760 -1.0297  0.6398
   48CHL1   C19 3518   2.088   0.627   2.976  0.1939 -0.2671  0.2308
   48CHL1  H19A 3519   2.112   0.531   3.026 -0.9839 -1.4729 -1.4285
   48CHL1  H19B 3520   1.999   0.684   3.011 -0.3944  0.7402 -2.6323
   48CHL1  H19C 3521   2.058   0.605   2.872  0.0499 -0.5482  0.3310
   48CHL1    C1 3522   2.191   0.851   2.902 -0.0375  0.6362  0.2724
   48CHL1   H1A 3523   2.089   0.887   2.930  0.5678  0.9835  2.1706
   48CHL1   H1B 3524   2.268   0.927   2.928 -1.2985  1.9325  0.3277
   48CHL1    C2 3525   2.191   0.848   2.743 -0.5641 -0.0348 -0.3056
   48CHL1   H2A 3526   2.176   0.942   2.686  1.2597 -0.4602 -1.6148
   48CHL1   H2B 3527   2.105   0.782   2.721 -1.2714 -0.3597  3.0028
   48CHL1   C20 3528   2.230   0.715   3.691 -0.6805  0.2207  0.2454
   48CHL1   H20 3529   2.192   0.610   3.691  2.4824 -1.0545  2.2770
   48CHL1   C21 3530   2.110   0.818   3.689 -0.2719  0.5120 -0.0139
   48CHL1  H21A 3531   2.041   0.790   3.772  1.3163 -0.1708  1.1104
   48CHL1  H21B 3532   2.042   0.816   3.601 -1.9344 -1.3368  1.2379
   48CHL1  H21C 3533   2.144   0.921   3.714  0.6710  0.2990 -0.3827
   48CHL1   C22 3534   2.304   0.743   3.824  0.4856  0.4990 -0.0889
   48CHL1  H22A 3535   2.235   0.744   3.912  0.1324  0.0799 -0.3566
   48CHL1  H22B 3536   2.378   0.663   3.846 -1.0240 -0.6535  1.0677
   48CHL1   C23 3537   2.391   0.866   3.829  0.1857  0.1088 -0.1511
   48CHL1  H23A 3538   2.482   0.873   3.765  0.6173 -0.2604  0.4045
   48CHL1  H23B 3539   2.319   0.946   3.801  0.8410  0.4459 -0.9293
   48CHL1   C24 3540   2.440   0.887   3.977 -0.0339 -0.5139 -0.0050
   48CHL1  H24A 3541   2.382   0.821   4.045 -1.7585 -0.2466 -1.1660
   48CHL1  H24B 3542   2.549   0.864   3.977 -0.0368 -0.6828 -1.7964
   48CHL1   C25 3543   2.441   1.040   4.023 -0.1918  0.3990  0.1063
   48CHL1   H25 3544   2.341   1.083   4.002  0.5261  2.2521  0.3135
   48CHL1   C26 3545   2.477   1.056   4.174 -0.7749  0.0032  0.6036
   48CHL1  H26A 3546   2.395   1.001   4.226 -1.2216  0.0185 -0.0723
   48CHL1  H26B 3547   2.581   1.019   4.187  0.5354  2.2449 -2.3723
   48CHL1  H26C 3548   2.467   1.163   4.204 -1.6956 -0.2820  1.3784
   48CHL1   C27 3549   2.545   1.127   3.939  0.1655 -0.0544 -0.6546
   48CHL1  H27A 3550   2.525   1.109   3.832 -0.5182 -2.0403 -0.2347
   48CHL1  H27B 3551   2.546   1.235   3.965  0.7125  0.0546 -1.1156
   48CHL1  H27C 3552   2.644   1.076   3.945 -0.5172 -1.4596 -0.9681
   49CHL1    C3 3553   2.887   2.579   3.072  0.0481  0.1985 -0.0938
   49CHL1    H3 3554   2.848   2.475   3.070  1.7878 -0.4881  0.3711
   49CHL1    O3 3555   2.948   2.605   2.947  0.2464 -0.0638 -0.2534
   49CHL1   H3' 3556   3.021   2.664   2.964  1.9451 -0.7380 -4.1328
   49CHL1    C4 3557   2.751   2.658   3.092 -0.0270 -0.2801  0.5787
   49CHL1   H4A 3558   2.769   2.765   3.068  1.1267 -0.3954  0.9013
   49CHL1   H4B 3559   2.672   2.627   3.019 -0.6472 -2.0946  1.9309
   49CHL1    C5 3560   2.692   2.655   3.228 -0.1686  0.3678  0.6557
   49CHL1    C6 3561   2.565   2.632   3.242  0.7585  0.0224 -0.3808
   49CHL1    H6 3562   2.504   2.607   3.154  1.0505 -1.0663 -0.2824
   49CHL1    C7 3563   2.496   2.635   3.380 -0.0063  0.7098  0.1685
   49CHL1   H7A 3564   2.398   2.685   3.361 -0.8218 -1.3793 -1.6549
   49CHL1   H7B 3565   2.470   2.529   3.404 -0.0242  0.7012  0.1132
   49CHL1    C8 3566   2.595   2.698   3.481  0.4826 -1.1434 -0.0315
   49CHL1    H8 3567   2.601   2.806   3.455 -2.3749 -1.1079 -0.8800
   49CHL1   C14 3568   2.527   2.693   3.620  0.0209  0.4425  0.0813
   49CHL1   H14 3569   2.525   2.582   3.623  0.4310  0.4278 -0.0419
   49CHL1   C15 3570   2.384   2.755   3.641  0.6087 -0.2825 -0.1027
   49CHL1  H15A 3571   2.374   2.850   3.584  0.8320 -0.3926 -0.3310
   49CHL1  H15B 3572   2.299   2.687   3.619 -0.2620  1.1973 -1.5024
   49CHL1   C16 3573   2.386   2.784   3.791  0.0975  0.0405 -0.3833
   49CHL1  H16A 3574   2.379   2.894   3.810 -2.0960 -0.1402  0.0853
   49CHL1  H16B 3575   2.304   2.733   3.845 -1.9896  0.3894 -3.0446
   49CHL1   C17 3576   2.523   2.728   3.853  0.8683  0.3454 -0.7267
   49CHL1   H17 3577   2.503   2.620   3.874  2.6394  0.1293  0.0858
   49CHL1   C13 3578   2.616   2.734   3.734 -0.1593  0.2371 -0.7204
   49CHL1   C18 3579   2.648   2.885   3.711 -0.8368  0.2736 -0.1693
   49CHL1  H18A 3580   2.732   2.904   3.783 -1.2703 -1.1280  0.7416
   49CHL1  H18B 3581   2.698   2.889   3.612 -0.1258 -0.6139  0.1361
   49CHL1  H18C 3582   2.558   2.950   3.722 -0.9289  0.1129  0.0327
   49CHL1   C12 3583   2.745   2.654   3.734 -0.3079  0.5008 -0.0313
   49CHL1  H12A 3584   2.817   2.679   3.815 -0.6780 -0.1065  0.4926
   49CHL1  H12B 3585   2.714   2.549   3.754  0.6528  0.0780 -0.6459
   49CHL1   C11 3586   2.822   2.648   3.601  0.4567  0.1935 -0.0764
   49CHL1  H11A 3587   2.864   2.751   3.594 -1.3088  1.0048  0.6608
   49CHL1  H11B 3588   2.895   2.565   3.604 -0.9104 -1.0821 -0.8793
   49CHL1    C9 3589   2.731   2.633   3.474  0.1092  0.0763 -0.0330
   49CHL1    H9 3590   2.712   2.525   3.456  1.4219 -0.3954  1.2960
   49CHL1   C10 3591   2.795   2.676   3.339 -0.2928 -0.4038 -0.7081
   49CHL1   C19 3592   2.845   2.821   3.325  0.2723  0.4017 -0.3608
   49CHL1  H19A 3593   2.933   2.821   3.393 -1.9988  0.2555  2.8008
   49CHL1  H19B 3594   2.879   2.848   3.223  0.9916  1.3447  0.1061
   49CHL1  H19C 3595   2.773   2.894   3.366 -0.4460 -0.7748  0.5303
   49CHL1    C1 3596   2.917   2.580   3.317 -0.5604  0.1492  0.0496
   49CHL1   H1A 3597   2.994   2.591   3.397 -0.6815  0.5227  0.1193
   49CHL1   H1B 3598   2.884   2.474   3.319 -0.0406 -0.0101  0.3223
   49CHL1    C2 3599   2.987   2.599   3.186  0.4886 -0.4403 -0.3180
   49CHL1   H2A 3600   3.066   2.522   3.174  1.5989  0.9507 -2.8677
   49CHL1   H2B 3601   3.043   2.694   3.175 -1.0475  0.3805 -1.4434
   49CHL1   C20 3602   2.557   2.785   3.991  0.6956 -0.1412 -0.2094
   49CHL1   H20 3603   2.608   2.882   3.978  1.2419 -0.6400 -1.9883
   49CHL1   C21 3604   2.668   2.694   4.058  0.2876  0.5055 -0.0203
   49CHL1  H21A 3605   2.637   2.588   4.052  0.6531  0.3074  1.3144
   49CHL1  H21B 3606   2.685   2.714   4.166  2.1366  0.7456 -0.3309
   49CHL1  H21C 3607   2.767   2.713   4.011  0.5312  1.0081  0.6842
   49CHL1   C22 3608   2.439   2.815   4.080  0.4333 -0.0769 -0.8067
   49CHL1  H22A 3609   2.387   2.902   4.034  1.3049  1.0440  0.2444
   49CHL1  H22B 3610   2.361   2.737   4.089  0.2437  0.2511  0.8161
   49CHL1   C23 3611   2.480   2.871   4.217 -0.7581 -0.1209  0.6550
   49CHL1  H23A 3612   2.524   2.796   4.285 -1.2584 -1.3458 -0.3447
   49CHL1  H23B 3613   2.549   2.955   4.196 -0.8758  0.0513  0.9469
   49CHL1   C24 3614   2.357   2.938   4.287  0.0385  0.3387  0.0661
   49CHL1  H24A 3615   2.293   2.990   4.213  1.9771  3.3938  0.3650
   49CHL1  H24B 3616   2.291   2.859   4.327 -0.8121  0.9398 -0.1192
   49CHL1   C25 3617   2.392   3.026   4.406  0.0736 -0.1258 -0.4971
   49CHL1   H25 3618   2.476   3.095   4.386 -1.1835  0.8947 -2.5575
   49CHL1   C26 3619   2.269   3.109   4.440 -0.0542  0.0623  0.0072
   49CHL1  H26A 3620   2.296   3.187   4.515 -2.3361 -0.9042  1.9831
   49CHL1  H26B 3621   2.224   3.153   4.349  0.3757 -0.5387 -0.5047
   49CHL1  H26C 3622   2.194   3.044   4.491 -0.0727  1.0478  1.3072
   49CHL1   C27 3623   2.436   2.938   4.531 -0.0900  0.1128 -0.0302
   49CHL1  H27A 3624   2.505   2.996   4.596  1.3240  0.4428 -1.7407
   49CHL1  H27B 3625   2.356   2.896   4.595 -0.4467  0.4628 -0.2433
   49CHL1  H27C 3626   2.503   2.856   4.498 -0.2922  0.4602 -1.3863
   50CHL1    C3 3627   6.098   3.719   4.659  0.7135 -0.5343 -0.0535
   50CHL1    H3 3628   5.995   3.686   4.686  0.4519  0.9971  1.0042
   50CHL1    O3 3629   6.124   3.709   4.522  0.0572 -0.1947  0.0043
   50CHL1   H3' 3630   6.205   3.757   4.503  0.5667  0.3689  3.1863
   50CHL1    C4 3631   6.116   3.864   4.707  0.6490 -0.2022 -0.7495
   50CHL1   H4A 3632   6.209   3.898   4.657  2.3147 -1.5405  1.2688
   50CHL1   H4B 3633   6.032   3.916   4.657 -0.6209 -0.3232  1.1428
   50CHL1    C5 3634   6.106   3.887   4.858  0.1866  0.4820  0.1702
   50CHL1    C6 3635   6.020   3.975   4.908 -0.0235 -0.1116  0.1518
   50CHL1    H6 3636   5.958   4.038   4.843  0.8202  1.9690  1.2576
   50CHL1    C7 3637   6.003   3.994   5.060  0.1764 -0.4179  0.3961
   50CHL1   H7A 3638   5.998   4.102   5.083 -1.8606 -0.2507 -0.5954
   50CHL1   H7B 3639   5.907   3.945   5.088  0.5186 -0.4754  1.4969
   50CHL1    C8 3640   6.119   3.932   5.145 -0.6338 -0.1905  0.3529
   50CHL1    H8 3641   6.197   4.011   5.138 -0.7269 -0.1059  0.2533
   50CHL1   C14 3642   6.078   3.921   5.288 -0.0591 -0.1898 -0.0570
   50CHL1   H14 3643   5.991   3.852   5.287  1.4803 -2.2218 -0.0160
   50CHL1   C15 3644   6.033   4.055   5.352  0.1119  0.2208 -0.6564
   50CHL1  H15A 3645   6.107   4.136   5.335 -0.5457  1.2754  1.2366
   50CHL1  H15B 3646   5.932   4.094   5.325 -0.9288 -1.0709  1.1532
   50CHL1   C16 3647   6.054   4.030   5.500  0.1814  0.3725 -0.0426
   50CHL1  H16A 3648   6.120   4.110   5.538  0.6956 -0.2867  0.4741
   50CHL1  H16B 3649   5.958   4.027   5.556  0.2785 -0.2883  0.0921
   50CHL1   C17 3650   6.120   3.885   5.515 -0.1063  0.4571  1.0649
   50CHL1   H17 3651   6.036   3.812   5.515  0.4473 -0.3825 -2.4232
   50CHL1   C13 3652   6.186   3.861   5.382  0.1645 -0.3700  0.5101
   50CHL1   C18 3653   6.309   3.950   5.378  0.0880  0.2461  0.3432
   50CHL1  H18A 3654   6.352   3.943   5.276  1.3715  3.3603  0.5414
   50CHL1  H18B 3655   6.296   4.058   5.400  2.1646  0.3433  1.3206
   50CHL1  H18C 3656   6.385   3.905   5.445  0.2154  1.2250  0.8753
   50CHL1   C12 3657   6.213   3.719   5.345 -0.7069  0.7796  0.1693
   50CHL1  H12A 3658   6.305   3.685   5.397  1.0496  3.0165 -1.2724
   50CHL1  H12B 3659   6.133   3.650   5.379  2.2815 -1.9854  2.2688
   50CHL1   C11 3660   6.249   3.714   5.199  0.2145  0.2154  0.1457
   50CHL1  H11A 3661   6.353   3.751   5.187  0.3355 -0.3011 -0.4439
   50CHL1  H11B 3662   6.241   3.609   5.164  2.4685  0.3713 -1.0065
   50CHL1    C9 3663   6.160   3.792   5.099  0.8415 -0.3110 -1.0215
   50CHL1    H9 3664   6.062   3.741   5.109  1.4806 -1.0233  4.0739
   50CHL1   C10 3665   6.197   3.799   4.950  0.0034 -0.0341  0.5768
   50CHL1   C19 3666   6.339   3.855   4.929  0.5165  0.6977  0.1051
   50CHL1  H19A 3667   6.415   3.799   4.987  1.6129  1.5825 -0.4283
   50CHL1  H19B 3668   6.370   3.854   4.822 -1.3451 -2.2175 -0.5250
   50CHL1  H19C 3669   6.352   3.959   4.965  0.5542  0.9722 -0.6891
   50CHL1    C1 3670   6.194   3.650   4.886  1.0849 -0.7404  0.2202
   50CHL1   H1A 3671   6.263   3.577   4.934  2.7498 -1.7373 -3.3410
   50CHL1   H1B 3672   6.091   3.610   4.889  1.4007 -1.6299 -0.4134
   50CHL1    C2 3673   6.208   3.641   4.734  0.1495  0.3487 -0.4731
   50CHL1   H2A 3674   6.190   3.537   4.701 -3.3789  0.1188  1.7089
   50CHL1   H2B 3675   6.310   3.673   4.704 -0.0965  1.3213 -0.2867
   50CHL1   C20 3676   6.197   3.861   5.649  0.9768 -0.0707  0.1034
   50CHL1   H20 3677   6.282   3.929   5.667 -0.3407  1.7171 -0.2194
   50CHL1   C21 3678   6.260   3.720   5.651 -0.4697 -0.0954  0.1158
   50CHL1  H21A 3679   6.190   3.634   5.656 -1.2201  0.5598  1.1987
   50CHL1  H21B 3680   6.311   3.702   5.748  1.6539  2.5494 -0.3857
   50CHL1  H21C 3681   6.351   3.714   5.588  0.3039 -0.6114  1.2572
   50CHL1   C22 3682   6.119   3.879   5.787 -0.3044  0.1242  0.1515
   50CHL1  H22A 3683   6.185   3.838   5.867  1.7078  0.4783 -1.2582
   50CHL1  H22B 3684   6.114   3.988   5.803 -0.0092 -0.0456  1.5637
   50CHL1   C23 3685   5.977   3.814   5.803 -0.7213 -0.0428 -0.1159
   50CHL1  H23A 3686   5.921   3.862   5.720 -3.6189 -0.7121  1.3067
   50CHL1  H23B 3687   5.998   3.706   5.788 -1.6632 -0.6154  2.1840
   50CHL1   C24 3688   5.900   3.827   5.933  0.5185 -0.1972 -0.3781
   50CHL1  H24A 3689   5.961   3.790   6.018 -2.2629  0.9365  2.2939
   50CHL1  H24B 3690   5.880   3.935   5.952  1.6903  0.0115 -0.2506
   50CHL1   C25 3691   5.770   3.750   5.942  0.9556 -0.4183 -0.5822
   50CHL1   H25 3692   5.709   3.759   5.850  1.5307 -0.5066 -0.9795
   50CHL1   C26 3693   5.793   3.604   5.954 -0.0860  0.4179 -0.1116
   50CHL1  H26A 3694   5.865   3.574   5.876 -0.3232  0.0499 -0.1959
   50CHL1  H26B 3695   5.817   3.569   6.057 -3.2300  2.8470  1.6445
   50CHL1  H26C 3696   5.699   3.544   5.943 -1.2181  1.1468  3.7992
   50CHL1   C27 3697   5.675   3.804   6.060 -0.3220 -0.6960 -0.2134
   50CHL1  H27A 3698   5.678   3.915   6.051  1.4621 -0.6419  0.6955
   50CHL1  H27B 3699   5.570   3.767   6.051 -0.9388  1.3436 -2.3591
   50CHL1  H27C 3700   5.721   3.772   6.156  1.1499 -3.8013 -1.8251
   51CHL1    C3 3701   3.802   3.034   3.009 -0.4286  0.0801 -0.6500
   51CHL1    H3 3702   3.910   3.008   3.020 -0.2654  1.3357  1.1785
   51CHL1    O3 3703   3.781   3.034   2.874 -0.3703 -0.1056  0.5273
   51CHL1   H3' 3704   3.686   3.044   2.860 -0.8693 -0.4363  3.0543
   51CHL1    C4 3705   3.719   2.930   3.082 -0.1339 -0.4450 -0.1873
   51CHL1   H4A 3706   3.610   2.950   3.073  0.1730  0.8606 -1.2680
   51CHL1   H4B 3707   3.731   2.831   3.033 -2.3249 -0.6458 -0.4142
   51CHL1    C5 3708   3.735   2.939   3.233  0.9629  0.8182 -0.7401
   51CHL1    C6 3709   3.768   2.832   3.297  0.0551 -0.0338  0.3534
   51CHL1    H6 3710   3.802   2.743   3.242 -1.2022 -1.0739  1.1801
   51CHL1    C7 3711   3.789   2.830   3.447  0.1998 -0.8811  0.1920
   51CHL1   H7A 3712   3.738   2.743   3.495 -1.6584 -1.5240 -2.6902
   51CHL1   H7B 3713   3.895   2.816   3.477 -0.5997 -1.2380  3.2149
   51CHL1    C8 3714   3.732   2.955   3.516 -0.0573 -0.3010  0.1190
   51CHL1    H8 3715   3.621   2.941   3.518  0.0439 -1.1432 -0.1455
   51CHL1   C14 3716   3.791   2.968   3.657  0.6947  0.2104  0.1519
   51CHL1   H14 3717   3.901   2.980   3.652  0.8120 -1.1693 -3.6755
   51CHL1   C15 3718   3.767   2.842   3.746  0.9342 -0.0933  0.0811
   51CHL1  H15A 3719   3.661   2.811   3.744  0.9812 -0.3916  1.4027
   51CHL1  H15B 3720   3.827   2.759   3.703  0.2761  0.4703 -2.0469
   51CHL1   C16 3721   3.806   2.892   3.885 -0.2199  0.1121 -0.0929
   51CHL1  H16A 3722   3.720   2.867   3.951 -1.1671  3.1248 -0.0054
   51CHL1  H16B 3723   3.900   2.859   3.933  1.2662  3.0885 -0.7038
   51CHL1   C17 3724   3.806   3.050   3.871  0.2939  0.1697  0.1787
   51CHL1   H17 3725   3.909   3.077   3.838  0.0151 -1.8276 -2.7011
   51CHL1   C13 3726   3.729   3.079   3.736  0.8303  0.5247 -0.4084
   51CHL1   C18 3727   3.570   3.077   3.750 -0.6730 -0.3585 -0.3018
   51CHL1  H18A 3728   3.500   3.083   3.664 -2.2477  0.0745  0.9684
   51CHL1  H18B 3729   3.546   2.987   3.810 -1.5750 -0.8105 -1.3188
   51CHL1  H18C 3730   3.544   3.170   3.805  1.8327 -1.9006  3.9326
   51CHL1   C12 3731   3.783   3.206   3.665 -0.7089 -0.0490 -0.4162
   51CHL1  H12A 3732   3.761   3.293   3.730 -1.3811 -0.6656  0.2104
   51CHL1  H12B 3733   3.893   3.217   3.656 -0.5844 -1.0305 -0.2502
   51CHL1   C11 3734   3.725   3.214   3.529 -0.3635 -0.8937  0.5580
   51CHL1  H11A 3735   3.615   3.218   3.534 -0.3545 -0.0279  0.2245
   51CHL1  H11B 3736   3.751   3.308   3.475  0.6326 -1.4764 -0.0107
   51CHL1    C9 3737   3.763   3.084   3.438 -0.9543 -0.4554 -0.3396
   51CHL1    H9 3738   3.874   3.095   3.435 -0.7814 -1.1250  1.7456
   51CHL1   C10 3739   3.714   3.079   3.292  0.2367  0.2103 -0.5424
   51CHL1   C19 3740   3.567   3.116   3.289  0.6333 -0.1800 -0.0233
   51CHL1  H19A 3741   3.553   3.206   3.352  0.9652 -2.1916  3.1600
   51CHL1  H19B 3742   3.522   3.147   3.192 -0.4956 -0.1570  0.4832
   51CHL1  H19C 3743   3.505   3.032   3.326  1.7557 -0.0947  2.1956
   51CHL1    C1 3744   3.791   3.190   3.206  0.3177 -1.0352 -0.5732
   51CHL1   H1A 3745   3.747   3.283   3.248 -0.5923 -1.4047 -0.6870
   51CHL1   H1B 3746   3.899   3.188   3.232  0.6205 -0.3525 -1.7070
   51CHL1    C2 3747   3.771   3.169   3.052  0.8127  0.3968 -0.5521
   51CHL1   H2A 3748   3.842   3.239   3.003  2.5282 -2.7083 -2.8879
   51CHL1   H2B 3749   3.668   3.197   3.022 -0.9727 -4.3919  0.2007
   51CHL1   C20 3750   3.769   3.135   3.992 -0.6013  0.3539 -0.1212
   51CHL1   H20 3751   3.758   3.241   3.962 -0.9311  0.1466 -0.7535
   51CHL1   C21 3752   3.892   3.133   4.091  0.2270 -0.0009  0.5389
   51CHL1  H21A 3753   3.985   3.168   4.041 -0.7473 -1.2722 -2.4319
   51CHL1  H21B 3754   3.905   3.029   4.127  1.7370  0.2824  0.8682
   51CHL1  H21C 3755   3.866   3.198   4.176 -1.0114  0.2066  0.0288
   51CHL1   C22 3756   3.646   3.101   4.079  0.4181 -0.0183  0.3090
   51CHL1  H22A 3757   3.560   3.064   4.019 -0.5433  0.1167  1.5611
   51CHL1  H22B 3758   3.667   3.021   4.153 -0.4658  0.5498  1.1976
   51CHL1   C23 3759   3.589   3.216   4.161 -0.4396 -0.0856  0.0435
   51CHL1  H23A 3760   3.667   3.238   4.238 -0.8181 -2.4914  1.1927
   51CHL1  H23B 3761   3.574   3.307   4.100  0.1556  0.2274  0.3446
   51CHL1   C24 3762   3.458   3.178   4.240 -0.3805  0.0838  0.5764
   51CHL1  H24A 3763   3.388   3.145   4.161  2.4439  1.0953 -2.5843
   51CHL1  H24B 3764   3.480   3.101   4.317 -1.2618 -0.7610  0.0023
   51CHL1   C25 3765   3.405   3.305   4.307  0.3796  0.4144 -0.0633
   51CHL1   H25 3766   3.414   3.381   4.227  2.7589 -0.1924 -0.4365
   51CHL1   C26 3767   3.251   3.295   4.324  0.2551 -0.4501  0.1568
   51CHL1  H26A 3768   3.207   3.397   4.324  2.7789  0.7165 -0.8643
   51CHL1  H26B 3769   3.203   3.254   4.232  0.0869  2.6262 -1.2520
   51CHL1  H26C 3770   3.227   3.239   4.416  0.8048  1.7630  1.7296
   51CHL1   C27 3771   3.470   3.351   4.434  0.6432 -0.4776  0.1991
   51CHL1  H27A 3772   3.412   3.416   4.503  2.1729 -0.0494  1.1306
   51CHL1  H27B 3773   3.490   3.259   4.494 -0.5251  0.1593  1.6450
   51CHL1  H27C 3774   3.569   3.397   4.415  0.8376 -0.8023  0.4183
   52CHL1    C3 3775   3.342   4.667   2.713  0.3614  0.0058  0.9663
   52CHL1    H3 3776   3.333   4.776   2.693 -1.1220 -0.5804 -2.3468
   52CHL1    O3 3777   3.380   4.592   2.595  0.0906 -0.6706  0.5999
   52CHL1   H3' 3778   3.364   4.499   2.612  0.9878 -1.0480 -0.4920
   52CHL1    C4 3779   3.457   4.637   2.810  0.3141  0.0642  0.3324
   52CHL1   H4A 3780   3.480   4.529   2.798 -1.4679 -0.1458 -1.7446
   52CHL1   H4B 3781   3.544   4.701   2.784 -0.3070  1.4959  1.6370
   52CHL1    C5 3782   3.422   4.664   2.952 -0.9408  0.0324 -0.5307
   52CHL1    C6 3783   3.500   4.739   3.036 -0.4513  0.0150  0.7629
   52CHL1    H6 3784   3.595   4.786   3.005 -2.3683  2.3569 -2.0867
   52CHL1    C7 3785   3.462   4.768   3.176 -0.1180 -0.6425  0.6739
   52CHL1   H7A 3786   3.552   4.782   3.241 -0.1457 -0.4901  0.6796
   52CHL1   H7B 3787   3.419   4.870   3.180 -2.8279 -1.7325  1.4021
   52CHL1    C8 3788   3.363   4.670   3.231 -0.3064  0.4333 -0.0970
   52CHL1    H8 3789   3.415   4.572   3.244  0.7954  1.2889  2.5569
   52CHL1   C14 3790   3.316   4.703   3.372 -0.4123  0.2908  0.5272
   52CHL1   H14 3791   3.268   4.803   3.362  1.0683  0.9991  0.2344
   52CHL1   C15 3792   3.428   4.729   3.477  0.1472 -0.0948  0.6474
   52CHL1  H15A 3793   3.501   4.647   3.468  1.4176  1.0702 -0.0078
   52CHL1  H15B 3794   3.473   4.830   3.465 -1.1365  0.5925  1.3083
   52CHL1   C16 3795   3.347   4.733   3.607  0.4342 -0.0578  0.3788
   52CHL1  H16A 3796   3.391   4.669   3.687 -1.0917 -1.1097  0.4173
   52CHL1  H16B 3797   3.330   4.830   3.658 -2.1284  0.5934 -1.5306
   52CHL1   C17 3798   3.199   4.688   3.571  0.1719  0.3891 -0.7600
   52CHL1   H17 3799   3.148   4.785   3.551 -0.2456  0.2605 -0.3493
   52CHL1   C13 3800   3.211   4.617   3.433 -0.1730 -0.2422  0.6626
   52CHL1   C18 3801   3.268   4.470   3.450  0.3142 -0.4338  0.4029
   52CHL1  H18A 3802   3.349   4.466   3.526 -0.4681  1.0502  1.3711
   52CHL1  H18B 3803   3.184   4.405   3.484 -0.0953  1.7143  4.0405
   52CHL1  H18C 3804   3.300   4.428   3.352 -2.3354 -0.8033 -0.3876
   52CHL1   C12 3805   3.090   4.616   3.343 -0.0574 -0.3258  0.3382
   52CHL1  H12A 3806   3.009   4.553   3.386 -1.2290 -0.2021 -1.5372
   52CHL1  H12B 3807   3.042   4.715   3.331  2.7931  0.9521 -1.4483
   52CHL1   C11 3808   3.133   4.571   3.210  0.7212 -0.0761 -0.0056
   52CHL1  H11A 3809   3.160   4.463   3.204  0.0500 -0.3343  1.3729
   52CHL1  H11B 3810   3.042   4.569   3.146  0.8077  1.8214 -0.2557
   52CHL1    C9 3811   3.242   4.650   3.137 -0.3587 -0.6203  0.4645
   52CHL1    H9 3812   3.198   4.752   3.127  2.5097  0.5409 -1.5285
   52CHL1   C10 3813   3.287   4.595   2.998 -0.5710  0.2874 -0.4633
   52CHL1   C19 3814   3.318   4.442   2.999  0.4199 -0.0562 -0.3019
   52CHL1  H19A 3815   3.400   4.413   3.068  0.7395 -2.0669 -1.4551
   52CHL1  H19B 3816   3.225   4.384   3.020  1.4738 -1.7676 -0.1467
   52CHL1  H19C 3817   3.356   4.404   2.902  1.9637  0.4897  0.0570
   52CHL1    C1 3818   3.178   4.641   2.904  0.2508  0.4470  0.0476
   52CHL1   H1A 3819   3.077   4.608   2.938  0.3677 -3.1747 -2.4999
   52CHL1   H1B 3820   3.184   4.751   2.895 -0.3665  0.3773 -1.5617
   52CHL1    C2 3821   3.203   4.611   2.756 -0.5261  0.5254 -1.0119
   52CHL1   H2A 3822   3.115   4.642   2.696 -1.3905  0.3321  0.1104
   52CHL1   H2B 3823   3.197   4.500   2.745 -0.3808  0.3738  0.3149
   52CHL1   C20 3824   3.126   4.630   3.693  0.2879 -0.1545  0.1785
   52CHL1   H20 3825   3.018   4.621   3.670 -0.5684  1.0465  3.1968
   52CHL1   C21 3826   3.143   4.736   3.805 -0.5379  0.5175  0.3342
   52CHL1  H21A 3827   3.247   4.739   3.844 -0.2197 -1.8174 -0.2300
   52CHL1  H21B 3828   3.078   4.712   3.892  0.6063  0.0310  1.0629
   52CHL1  H21C 3829   3.105   4.827   3.754  2.2984  1.3358 -0.5062
   52CHL1   C22 3830   3.185   4.490   3.748  1.2687 -0.6365 -0.0484
   52CHL1  H22A 3831   3.169   4.420   3.663 -0.6248 -0.2554 -0.0373
   52CHL1  H22B 3832   3.292   4.505   3.774  1.3403  1.5617 -1.3741
   52CHL1   C23 3833   3.105   4.439   3.872 -0.4463 -0.4111  0.4807
   52CHL1  H23A 3834   3.108   4.503   3.962 -2.0403 -1.1125  1.0678
   52CHL1  H23B 3835   2.998   4.437   3.843  0.0117  0.4849 -1.4639
   52CHL1   C24 3836   3.167   4.301   3.913 -0.1841 -0.0750  0.6671
   52CHL1  H24A 3837   3.131   4.216   3.851  0.4201 -0.9007  1.4271
   52CHL1  H24B 3838   3.276   4.309   3.893 -0.5991  1.8275 -1.3062
   52CHL1   C25 3839   3.147   4.258   4.056 -0.3743  0.3857 -0.7648
   52CHL1   H25 3840   3.175   4.341   4.124 -1.3928 -0.7085  1.0766
   52CHL1   C26 3841   3.000   4.230   4.104  0.1749  0.2920  0.3517
   52CHL1  H26A 3842   2.951   4.157   4.036 -0.7469  1.7667 -0.6142
   52CHL1  H26B 3843   3.007   4.176   4.201 -1.3079  1.2525  1.0211
   52CHL1  H26C 3844   2.948   4.325   4.126 -0.6216 -0.2151  0.7159
   52CHL1   C27 3845   3.226   4.129   4.070  0.4242 -0.5119  0.2045
   52CHL1  H27A 3846   3.330   4.129   4.029 -0.2181 -0.3739 -1.4823
   52CHL1  H27B 3847   3.229   4.115   4.180  0.4382  1.3475  0.4737
   52CHL1  H27C 3848   3.164   4.049   4.024 -0.5231 -0.4966  1.4183
   53CHL1    C3 3849   4.862   4.600   2.810 -0.6911 -0.5634 -0.5039
   53CHL1    H3 3850   4.878   4.499   2.853 -0.7000  0.3870  1.9273
   53CHL1    O3 3851   4.871   4.602   2.666 -0.1749 -0.0600  0.0713
   53CHL1   H3' 3852   4.818   4.678   2.641 -0.6116 -0.5448 -0.5142
   53CHL1    C4 3853   4.728   4.662   2.857 -0.0684  0.2996  0.1366
   53CHL1   H4A 3854   4.724   4.765   2.814  0.4574 -0.7004 -2.4459
   53CHL1   H4B 3855   4.650   4.603   2.805 -1.6307  2.6221 -0.3578
   53CHL1    C5 3856   4.707   4.671   3.004  0.6632 -1.0593 -0.5294
   53CHL1    C6 3857   4.594   4.607   3.055 -0.0503 -0.2701 -0.0956
   53CHL1    H6 3858   4.519   4.576   2.981 -0.8280  2.9680 -0.8401
   53CHL1    C7 3859   4.553   4.607   3.200 -1.2420  0.3423 -0.2958
   53CHL1   H7A 3860   4.446   4.633   3.218 -0.9656 -0.1355  2.5843
   53CHL1   H7B 3861   4.564   4.508   3.250 -0.5378  1.0688  1.0738
   53CHL1    C8 3862   4.647   4.699   3.283 -0.5097  0.0372  0.0220
   53CHL1    H8 3863   4.597   4.798   3.283  1.1450  0.8959  0.3531
   53CHL1   C14 3864   4.646   4.652   3.430  0.7794 -0.4555 -0.0302
   53CHL1   H14 3865   4.690   4.551   3.423 -1.6141 -1.6462  1.1061
   53CHL1   C15 3866   4.513   4.624   3.495  0.0525 -1.3375  0.6029
   53CHL1  H15A 3867   4.432   4.697   3.480  1.1946  0.2566  1.8870
   53CHL1  H15B 3868   4.470   4.528   3.458 -2.0404 -0.5530  0.8973
   53CHL1   C16 3869   4.537   4.620   3.644  0.3099  0.0178  1.3289
   53CHL1  H16A 3870   4.477   4.696   3.699  0.2238  1.7732 -1.0204
   53CHL1  H16B 3871   4.509   4.515   3.667  0.5147  0.0811  1.8785
   53CHL1   C17 3872   4.687   4.666   3.661 -0.0691 -0.1929  0.2755
   53CHL1   H17 3873   4.749   4.574   3.660 -0.4443 -0.4440 -0.7466
   53CHL1   C13 3874   4.725   4.738   3.531  0.6055 -0.7872  0.6041
   53CHL1   C18 3875   4.656   4.879   3.536  0.3843  0.2099 -0.0372
   53CHL1  H18A 3876   4.547   4.870   3.553  0.4262  0.1968  0.2291
   53CHL1  H18B 3877   4.702   4.937   3.618 -1.7625  0.2036  1.2223
   53CHL1  H18C 3878   4.662   4.930   3.437  0.9099  0.8566  0.3211
   53CHL1   C12 3879   4.873   4.736   3.486  0.1741  0.4645 -0.0584
   53CHL1  H12A 3880   4.922   4.809   3.554 -0.8259  1.6309 -0.5420
   53CHL1  H12B 3881   4.918   4.635   3.501  1.0878  1.1675  2.5648
   53CHL1   C11 3882   4.897   4.765   3.338 -0.2465  0.1787  0.7576
   53CHL1  H11A 3883   4.872   4.874   3.330 -1.3931 -0.1917 -1.4857
   53CHL1  H11B 3884   4.999   4.740   3.303 -1.1999 -0.0562 -2.0470
   53CHL1    C9 3885   4.795   4.697   3.241 -0.1062 -0.5402 -0.1521
   53CHL1    H9 3886   4.827   4.590   3.244 -0.6054 -0.7411 -1.3591
   53CHL1   C10 3887   4.813   4.738   3.087 -0.1268 -0.3545  0.2722
   53CHL1   C19 3888   4.800   4.894   3.073  0.4062  0.0621 -0.4551
   53CHL1  H19A 3889   4.696   4.922   3.100  0.4030  0.2438 -0.6519
   53CHL1  H19B 3890   4.876   4.960   3.120 -2.4931  2.1836  1.6247
   53CHL1  H19C 3891   4.809   4.913   2.964 -1.7317  0.1479 -0.6660
   53CHL1    C1 3892   4.951   4.698   3.028  0.1379  0.3033  0.2539
   53CHL1   H1A 3893   5.029   4.766   3.069  0.1695  0.5675 -0.2404
   53CHL1   H1B 3894   4.971   4.595   3.067 -0.4379  0.7872  1.9335
   53CHL1    C2 3895   4.972   4.690   2.878 -0.2800 -0.8880 -0.9303
   53CHL1   H2A 3896   5.068   4.638   2.856 -0.7393 -2.0920 -0.2338
   53CHL1   H2B 3897   4.977   4.790   2.831 -0.1547 -1.1257 -1.4302
   53CHL1   C20 3898   4.715   4.725   3.800 -0.5487 -0.3843 -0.0420
   53CHL1   H20 3899   4.664   4.823   3.806  0.4854  0.1569  0.1802
   53CHL1   C21 3900   4.858   4.744   3.821 -0.0540  0.0456 -0.3383
   53CHL1  H21A 3901   4.918   4.655   3.794 -2.6318 -2.4024  1.4410
   53CHL1  H21B 3902   4.878   4.767   3.928 -0.6278 -1.3271  0.0873
   53CHL1  H21C 3903   4.904   4.828   3.764  2.0016 -0.2151  0.8371
   53CHL1   C22 3904   4.656   4.630   3.906  0.3323 -0.3979 -0.8313
   53CHL1  H22A 3905   4.547   4.649   3.902  0.2866 -0.8407 -2.2868
   53CHL1  H22B 3906   4.666   4.523   3.879 -0.1959  0.0809 -3.1432
   53CHL1   C23 3907   4.712   4.647   4.047  0.5563 -0.3581 -0.6158
   53CHL1  H23A 3908   4.822   4.635   4.044  0.3775 -1.9418 -1.4405
   53CHL1  H23B 3909   4.673   4.744   4.086 -1.2004 -0.2424 -2.4862
   53CHL1   C24 3910   4.665   4.527   4.134  0.1173  0.0154  0.3762
   53CHL1  H24A 3911   4.556   4.536   4.153  0.0828  1.3856 -0.3758
   53CHL1  H24B 3912   4.683   4.427   4.090 -3.2503 -0.4165 -0.2306
   53CHL1   C25 3913   4.737   4.524   4.272  0.6802 -0.1218  0.3514
   53CHL1   H25 3914   4.727   4.624   4.321  0.6733 -0.5657  1.2897
   53CHL1   C26 3915   4.677   4.410   4.359 -0.4936 -0.3368  0.1942
   53CHL1  H26A 3916   4.569   4.429   4.379 -0.2597  1.0227  0.2492
   53CHL1  H26B 3917   4.686   4.313   4.307 -1.8620 -0.1217 -0.4954
   53CHL1  H26C 3918   4.736   4.399   4.452  2.0171  0.9110 -1.1537
   53CHL1   C27 3919   4.892   4.493   4.271 -0.3445 -0.3676  0.1993
   53CHL1  H27A 3920   4.950   4.568   4.213  0.3511 -1.1457 -0.1244
   53CHL1  H27B 3921   4.921   4.503   4.378 -0.9050 -0.1175  0.3346
   53CHL1  H27C 3922   4.908   4.387   4.245 -1.5502 -0.4421 -0.2943
   54CHL1    C3 3923   3.818   4.088   2.916 -0.1232 -0.8596 -0.3028
   54CHL1    H3 3924   3.878   4.005   2.959  0.3390 -0.0062  0.7338
   54CHL1    O3 3925   3.838   4.082   2.772 -0.3878  0.0347  0.2302
   54CHL1   H3' 3926   3.852   4.176   2.757  3.3252  0.1501  2.7888
   54CHL1    C4 3927   3.673   4.070   2.966  0.2746  0.0766  0.1452
   54CHL1   H4A 3928   3.605   4.136   2.909 -0.9173 -0.8495  0.4532
   54CHL1   H4B 3929   3.638   3.966   2.946 -0.9174  0.1763  1.5246
   54CHL1    C5 3930   3.646   4.091   3.116  0.6390  0.2268  0.0785
   54CHL1    C6 3931   3.578   3.997   3.186 -0.1169  0.1452 -0.4474
   54CHL1    H6 3932   3.530   3.910   3.140 -0.9624  0.5283 -0.3295
   54CHL1    C7 3933   3.558   4.000   3.335 -0.3173 -0.2801 -0.2735
   54CHL1   H7A 3934   3.450   3.978   3.354 -0.3895 -0.6412 -1.0805
   54CHL1   H7B 3935   3.620   3.921   3.382  0.3778  0.5669  0.2715
   54CHL1    C8 3936   3.604   4.132   3.400  0.4796 -0.5370  0.3225
   54CHL1    H8 3937   3.526   4.208   3.378  2.1068  0.7982 -1.1803
   54CHL1   C14 3938   3.632   4.116   3.554 -0.6123 -0.0467 -0.1457
   54CHL1   H14 3939   3.712   4.040   3.570 -2.0087 -1.8168 -1.1610
   54CHL1   C15 3940   3.519   4.062   3.633  0.0462 -0.1062  0.2542
   54CHL1  H15A 3941   3.430   4.128   3.618 -0.5695 -0.8711  0.4355
   54CHL1  H15B 3942   3.491   3.957   3.609  0.2665 -0.3642  1.1079
   54CHL1   C16 3943   3.565   4.088   3.779  0.4045 -0.6206 -0.2938
   54CHL1  H16A 3944   3.482   4.124   3.843  0.9763  0.6970 -0.2646
   54CHL1  H16B 3945   3.608   4.000   3.830  0.3978 -1.0748 -1.0551
   54CHL1   C17 3946   3.691   4.183   3.776 -0.2233 -0.0417  0.8128
   54CHL1   H17 3947   3.789   4.130   3.779  0.6193  1.0883 -2.1078
   54CHL1   C13 3948   3.677   4.240   3.625 -0.0654 -0.2127  0.4795
   54CHL1   C18 3949   3.581   4.364   3.622  0.1176  0.7435  0.2876
   54CHL1  H18A 3950   3.631   4.456   3.660  1.2575  0.4491 -0.4708
   54CHL1  H18B 3951   3.542   4.392   3.522 -1.2046  1.4281  0.9671
   54CHL1  H18C 3952   3.494   4.332   3.684  1.2796 -3.1065  0.1522
   54CHL1   C12 3953   3.809   4.281   3.558  0.0716 -0.0261 -0.0752
   54CHL1  H12A 3954   3.849   4.374   3.604  0.1678  0.4751 -1.1597
   54CHL1  H12B 3955   3.884   4.203   3.585  0.1541  0.6993  1.9919
   54CHL1   C11 3956   3.789   4.307   3.409 -0.4512  0.2332 -0.1332
   54CHL1  H11A 3957   3.718   4.393   3.403  0.1939  0.6821 -2.0202
   54CHL1  H11B 3958   3.891   4.338   3.379 -0.0138 -0.7808  0.2534
   54CHL1    C9 3959   3.728   4.185   3.332  0.0137  0.0298  0.1399
   54CHL1    H9 3960   3.805   4.108   3.355 -1.8574 -1.8883  0.3256
   54CHL1   C10 3961   3.716   4.209   3.179  0.7656  0.2426  0.0628
   54CHL1   C19 3962   3.637   4.348   3.158 -0.9783 -0.0331  0.5005
   54CHL1  H19A 3963   3.638   4.398   3.059  0.2046  2.5452  1.7212
   54CHL1  H19B 3964   3.532   4.347   3.196 -0.8887 -1.1928  0.7344
   54CHL1  H19C 3965   3.692   4.424   3.218  0.4957 -1.5293  1.0983
   54CHL1    C1 3966   3.856   4.223   3.120 -0.5250 -0.5082 -1.0321
   54CHL1   H1A 3967   3.898   4.307   3.179 -1.4358 -0.7088 -0.0822
   54CHL1   H1B 3968   3.919   4.136   3.148 -0.9118 -0.9998 -1.6523
   54CHL1    C2 3969   3.871   4.219   2.963 -0.1224  0.1146  0.5047
   54CHL1   H2A 3970   3.977   4.218   2.931 -0.5032 -0.5960 -0.7792
   54CHL1   H2B 3971   3.824   4.306   2.912  0.8154 -0.2423 -1.0191
   54CHL1   C20 3972   3.686   4.277   3.895 -0.2558 -0.3172 -0.7259
   54CHL1   H20 3973   3.608   4.356   3.883  1.6745  2.0244  1.3149
   54CHL1   C21 3974   3.820   4.354   3.910 -0.1412  0.3235  0.1114
   54CHL1  H21A 3975   3.861   4.389   3.813 -1.6225  0.1252 -0.6232
   54CHL1  H21B 3976   3.898   4.286   3.950  0.4607  1.0248  0.1601
   54CHL1  H21C 3977   3.807   4.443   3.975  0.3959 -0.0741  0.7691
   54CHL1   C22 3978   3.652   4.211   4.027  0.2485 -0.3764 -0.0020
   54CHL1  H22A 3979   3.569   4.137   4.028 -0.5966  0.5497  0.3828
   54CHL1  H22B 3980   3.742   4.151   4.051  0.3285 -0.4257 -0.4340
   54CHL1   C23 3981   3.605   4.322   4.129  0.1424 -0.2391 -0.0995
   54CHL1  H23A 3982   3.689   4.391   4.153  0.2557 -0.4030 -0.0280
   54CHL1  H23B 3983   3.522   4.380   4.084  0.7282  1.3189  0.7403
   54CHL1   C24 3984   3.552   4.259   4.260  0.3025 -0.9839 -0.4117
   54CHL1  H24A 3985   3.480   4.177   4.242 -0.9576 -0.2536  1.0839
   54CHL1  H24B 3986   3.638   4.209   4.310 -0.9667 -0.1946  2.8100
   54CHL1   C25 3987   3.488   4.366   4.357 -0.2636  0.7262  0.2293
   54CHL1   H25 3988   3.405   4.427   4.313 -0.7878 -0.9746 -1.2727
   54CHL1   C26 3989   3.417   4.288   4.471 -0.5434 -0.1415 -0.0798
   54CHL1  H26A 3990   3.344   4.347   4.531  1.8934  2.2985  0.7063
   54CHL1  H26B 3991   3.362   4.209   4.417 -2.6961  2.2131 -1.5161
   54CHL1  H26C 3992   3.480   4.236   4.547 -0.4378  0.1247  0.0186
   54CHL1   C27 3993   3.591   4.464   4.414  0.1208  0.2258  0.8446
   54CHL1  H27A 3994   3.673   4.414   4.471  1.4998  3.7035  2.1699
   54CHL1  H27B 3995   3.640   4.525   4.335  0.1823 -1.4626 -0.4863
   54CHL1  H27C 3996   3.539   4.527   4.488  0.9024 -0.1043  1.6901
   55CHL1    C3 3997   0.716   6.020   2.798  0.7415 -0.3910  0.6420
   55CHL1    H3 3998   0.739   6.124   2.826  0.0051  0.0450 -0.3244
   55CHL1    O3 3999   0.747   6.014   2.659 -0.4873 -0.1403  0.1852
   55CHL1   H3' 4000   0.702   5.941   2.617 -1.2818  0.0229  0.7358
   55CHL1    C4 4001   0.804   5.914   2.870 -0.4282  0.5473 -0.1807
   55CHL1   H4A 4002   0.784   5.814   2.827  2.1039  0.5593 -1.5902
   55CHL1   H4B 4003   0.912   5.937   2.855  0.0623 -0.3036  1.7901
   55CHL1    C5 4004   0.781   5.918   3.020 -0.5205  0.5032 -0.1353
   55CHL1    C6 4005   0.881   5.953   3.108 -0.1046  0.5442  0.2282
   55CHL1    H6 4006   0.982   5.972   3.069  0.5014  1.7494  2.2207
   55CHL1    C7 4007   0.865   5.949   3.258 -0.7134 -0.8597 -0.3070
   55CHL1   H7A 4008   0.936   5.869   3.291 -3.2510 -2.6761  1.1592
   55CHL1   H7B 4009   0.889   6.051   3.295 -1.3875 -1.0880  0.8080
   55CHL1    C8 4010   0.724   5.907   3.304 -0.5651 -0.0076 -0.4267
   55CHL1    H8 4011   0.722   5.796   3.291  1.6106  0.1853 -3.2305
   55CHL1   C14 4012   0.700   5.944   3.449 -0.8289 -0.3047 -0.0363
   55CHL1   H14 4013   0.704   6.054   3.443 -3.4286 -0.2054 -1.6718
   55CHL1   C15 4014   0.814   5.916   3.553  0.2690  0.4662  0.0827
   55CHL1  H15A 4015   0.861   5.817   3.530  0.2564  0.6676 -0.8312
   55CHL1  H15B 4016   0.901   5.985   3.556  1.1937 -0.5617 -1.5478
   55CHL1   C16 4017   0.741   5.928   3.694 -0.5754  0.4524 -0.1001
   55CHL1  H16A 4018   0.755   5.832   3.750  0.4698 -0.4897 -1.8852
   55CHL1  H16B 4019   0.787   6.002   3.763  1.4776 -0.5572 -0.2991
   55CHL1   C17 4020   0.591   5.957   3.661  0.3983 -0.6478  0.7432
   55CHL1   H17 4021   0.577   6.066   3.646  0.6680 -0.7522 -0.3574
   55CHL1   C13 4022   0.571   5.910   3.513  0.2529  0.6504  0.4053
   55CHL1   C18 4023   0.567   5.760   3.518  0.3199 -0.0305  0.4272
   55CHL1  H18A 4024   0.606   5.709   3.428  0.4618  0.6188  0.1199
   55CHL1  H18B 4025   0.632   5.716   3.597 -0.1166 -1.8912 -0.2094
   55CHL1  H18C 4026   0.463   5.731   3.546 -0.5163  1.1851 -1.2604
   55CHL1   C12 4027   0.463   5.976   3.423  0.2324 -0.6482  0.0793
   55CHL1  H12A 4028   0.359   5.961   3.458 -0.5100  0.0003 -1.7466
   55CHL1  H12B 4029   0.484   6.085   3.435 -2.1384 -0.2236  1.0119
   55CHL1   C11 4030   0.472   5.946   3.270  0.0666  0.0640  0.9175
   55CHL1  H11A 4031   0.439   5.841   3.257 -1.8652  0.5205  1.7476
   55CHL1  H11B 4032   0.403   6.015   3.216 -1.1808 -1.0703  0.9914
   55CHL1    C9 4033   0.615   5.962   3.212  0.0761 -0.3574  0.1327
   55CHL1    H9 4034   0.636   6.071   3.208 -0.3481 -0.1900  1.7834
   55CHL1   C10 4035   0.630   5.918   3.067 -0.4832 -0.4330  0.0920
   55CHL1   C19 4036   0.576   5.774   3.048 -0.6298 -1.2394  0.3371
   55CHL1  H19A 4037   0.599   5.745   2.943  0.7988 -1.7459  0.7665
   55CHL1  H19B 4038   0.618   5.707   3.126  0.4303  1.7444  2.4782
   55CHL1  H19C 4039   0.466   5.771   3.064 -0.5945  1.1637  1.5316
   55CHL1    C1 4040   0.547   6.018   2.973 -0.5369  0.2491  0.2661
   55CHL1   H1A 4041   0.438   6.004   2.994 -0.4904  1.3079  1.2851
   55CHL1   H1B 4042   0.569   6.122   3.005  0.8871 -0.2677  1.0551
   55CHL1    C2 4043   0.576   6.000   2.824  0.2764 -0.3030  0.0760
   55CHL1   H2A 4044   0.517   6.072   2.762  1.0027  0.9457  0.7939
   55CHL1   H2B 4045   0.548   5.900   2.784 -0.0554 -1.1848  2.3901
   55CHL1   C20 4046   0.491   5.916   3.766 -0.5358 -0.5623  0.8371
   55CHL1   H20 4047   0.500   5.806   3.781 -4.8492 -0.8761  2.7891
   55CHL1   C21 4048   0.339   5.943   3.717 -0.9576 -0.4870 -0.6213
   55CHL1  H21A 4049   0.343   6.049   3.685  1.1791  0.0644  1.2324
   55CHL1  H21B 4050   0.265   5.927   3.798 -1.1130 -0.4199 -0.7499
   55CHL1  H21C 4051   0.301   5.889   3.628 -5.0455  1.5170 -0.2906
   55CHL1   C22 4052   0.520   5.982   3.899  0.0709  0.0700  0.2837
   55CHL1  H22A 4053   0.625   5.981   3.934  0.6709 -0.4867 -1.4785
   55CHL1  H22B 4054   0.498   6.090   3.892  2.0679  0.4124 -1.4496
   55CHL1   C23 4055   0.434   5.937   4.015 -0.0026 -0.0565  0.5847
   55CHL1  H23A 4056   0.327   5.949   3.990 -0.2656  0.4262  1.8608
   55CHL1  H23B 4057   0.458   5.830   4.035  0.0463 -0.3923 -1.1381
   55CHL1   C24 4058   0.479   6.005   4.143 -0.1049  0.0958 -0.0907
   55CHL1  H24A 4059   0.571   5.960   4.188 -1.8689 -1.1617  2.5415
   55CHL1  H24B 4060   0.503   6.112   4.124 -0.4641  0.2826  0.4697
   55CHL1   C25 4061   0.379   5.992   4.263  0.1203 -0.1447 -0.1116
   55CHL1   H25 4062   0.291   6.057   4.243  0.7127  0.2403 -1.6208
   55CHL1   C26 4063   0.311   5.852   4.273 -0.3956  0.0722 -0.4247
   55CHL1  H26A 4064   0.233   5.866   4.351  1.4237 -1.3699  1.7792
   55CHL1  H26B 4065   0.266   5.823   4.175 -3.3986  0.5575  0.6984
   55CHL1  H26C 4066   0.392   5.781   4.300 -2.3621 -1.3213  2.2562
   55CHL1   C27 4067   0.435   6.041   4.398  0.4217 -0.2136 -0.1782
   55CHL1  H27A 4068   0.359   6.061   4.476  0.6938 -0.1850  0.0824
   55CHL1  H27B 4069   0.502   5.964   4.443  1.5861 -1.5914 -3.9044
   55CHL1  H27C 4070   0.496   6.134   4.386  3.5437 -1.6316  2.9006
   56CHL1    C3 4071   0.262   4.116   2.850  0.5511 -0.1020  0.2114
   56CHL1    H3 4072   0.157   4.103   2.884  0.6983  0.1568  0.7729
   56CHL1    O3 4073   0.277   4.119   2.706  0.1332 -0.1298 -0.1311
   56CHL1   H3' 4074   0.370   4.128   2.682  0.1046 -1.1300 -0.6803
   56CHL1    C4 4075   0.313   4.250   2.900  0.3717 -0.0096 -0.0159
   56CHL1   H4A 4076   0.414   4.250   2.852 -0.2173  2.5543 -1.4101
   56CHL1   H4B 4077   0.258   4.329   2.844  2.1599  1.0936 -0.2849
   56CHL1    C5 4078   0.328   4.263   3.054  0.0204 -0.3244 -0.3496
   56CHL1    C6 4079   0.263   4.366   3.114 -1.1162 -0.7273  0.0087
   56CHL1    H6 4080   0.235   4.454   3.054 -0.0043 -0.8697 -0.7561
   56CHL1    C7 4081   0.265   4.375   3.267 -0.5146  0.3181 -0.2365
   56CHL1   H7A 4082   0.301   4.474   3.304 -0.1368  0.4437 -0.9079
   56CHL1   H7B 4083   0.164   4.351   3.305 -0.5247 -2.2854 -1.6407
   56CHL1    C8 4084   0.361   4.275   3.338 -0.0240  0.4329 -0.7783
   56CHL1    H8 4085   0.466   4.310   3.326  0.2095 -0.1009 -0.3301
   56CHL1   C14 4086   0.335   4.266   3.488 -0.1155  0.0252 -0.6943
   56CHL1   H14 4087   0.228   4.237   3.493 -0.1599 -0.0030 -1.6051
   56CHL1   C15 4088   0.335   4.399   3.566  0.4725 -0.6657  0.7078
   56CHL1  H15A 4089   0.422   4.464   3.546  0.5947 -0.5458  1.5549
   56CHL1  H15B 4090   0.258   4.468   3.525  2.5035  1.4039  0.2295
   56CHL1   C16 4091   0.327   4.358   3.715  0.6719  0.9265  0.2106
   56CHL1  H16A 4092   0.411   4.417   3.757  2.8417 -0.9694 -1.2104
   56CHL1  H16B 4093   0.227   4.381   3.756  0.7376  1.1716  0.2357
   56CHL1   C17 4094   0.353   4.199   3.703 -0.0316  0.4938 -0.3590
   56CHL1   H17 4095   0.258   4.142   3.701  0.1453  0.1156  0.9830
   56CHL1   C13 4096   0.413   4.172   3.567 -0.1844  0.3462 -0.4510
   56CHL1   C18 4097   0.561   4.222   3.562 -0.1442  0.1796 -0.1720
   56CHL1  H18A 4098   0.596   4.238   3.458 -2.4257  0.9642 -0.8853
   56CHL1  H18B 4099   0.563   4.322   3.609 -2.7896  0.1903  0.0749
   56CHL1  H18C 4100   0.626   4.144   3.607  0.4086 -0.8602 -2.6259
   56CHL1   C12 4101   0.384   4.037   3.502 -0.3297  0.6642 -0.2370
   56CHL1  H12A 4102   0.438   3.954   3.554  0.1502  1.2683  0.2475
   56CHL1  H12B 4103   0.277   4.012   3.519 -0.5701  2.5005  1.3890
   56CHL1   C11 4104   0.423   4.029   3.357  0.3292 -0.0670  0.2196
   56CHL1  H11A 4105   0.531   4.022   3.333  0.5939 -0.5834  1.4711
   56CHL1  H11B 4106   0.383   3.929   3.327 -1.9062  0.5940  0.8292
   56CHL1    C9 4107   0.352   4.137   3.267  0.1039  0.3768 -0.9294
   56CHL1    H9 4108   0.243   4.118   3.279  0.1113 -0.1759 -1.6424
   56CHL1   C10 4109   0.387   4.141   3.123 -0.4195 -0.0921  0.5685
   56CHL1   C19 4110   0.543   4.162   3.110  0.5932 -1.2521 -0.6413
   56CHL1  H19A 4111   0.576   4.180   3.006 -0.5064  1.8062 -0.5619
   56CHL1  H19B 4112   0.575   4.255   3.162 -0.4788 -1.5907  0.6897
   56CHL1  H19C 4113   0.606   4.077   3.145  1.8026  0.2636  1.0658
   56CHL1    C1 4114   0.350   4.001   3.060  0.3169 -0.3255 -1.0081
   56CHL1   H1A 4115   0.427   3.929   3.096  0.0101  0.4248  1.2434
   56CHL1   H1B 4116   0.254   3.965   3.103  0.6682  0.2275  0.2807
   56CHL1    C2 4117   0.350   4.003   2.908  0.3124 -0.0958  0.8426
   56CHL1   H2A 4118   0.328   3.907   2.855  0.9221 -0.8463  1.9078
   56CHL1   H2B 4119   0.456   4.023   2.882  0.7398 -1.9675  1.0106
   56CHL1   C20 4120   0.422   4.157   3.837  0.3534  0.7663  0.1882
   56CHL1   H20 4121   0.527   4.194   3.833  0.3586  0.9187  1.5060
   56CHL1   C21 4122   0.433   4.003   3.824 -0.6644  0.0868 -0.2584
   56CHL1  H21A 4123   0.427   3.948   3.921  0.0750 -0.9868 -0.7970
   56CHL1  H21B 4124   0.518   3.978   3.757 -0.4985  1.6931 -0.6822
   56CHL1  H21C 4125   0.346   3.963   3.769 -0.8606  1.2579 -0.8168
   56CHL1   C22 4126   0.360   4.200   3.971 -0.0458  0.1150  0.3876
   56CHL1  H22A 4127   0.433   4.165   4.047  0.1731 -2.6085 -0.9613
   56CHL1  H22B 4128   0.360   4.311   3.975  1.6543  0.2695 -2.0192
   56CHL1   C23 4129   0.223   4.135   3.986  0.4115  0.1373 -0.0143
   56CHL1  H23A 4130   0.162   4.158   3.896  0.1917 -2.1545 -0.5129
   56CHL1  H23B 4131   0.243   4.026   3.993 -1.4327 -0.3116 -1.2082
   56CHL1   C24 4132   0.155   4.182   4.114 -0.4270 -1.0543  0.2424
   56CHL1  H24A 4133   0.224   4.165   4.199  0.9140 -0.4478 -0.6747
   56CHL1  H24B 4134   0.147   4.293   4.101 -1.3860 -1.4219 -3.9378
   56CHL1   C25 4135   0.013   4.131   4.128  0.7419  0.6737 -0.1245
   56CHL1   H25 4136  -0.058   4.153   4.046 -0.3419 -1.1387  0.2685
   56CHL1   C26 4137   0.018   3.982   4.150 -0.1246 -0.0822 -0.4066
   56CHL1  H26A 4138  -0.078   3.935   4.179 -0.0801 -1.1621 -1.8522
   56CHL1  H26B 4139   0.048   3.916   4.066  0.4990  2.1127 -1.9954
   56CHL1  H26C 4140   0.093   3.966   4.230 -0.0568  0.3544 -0.3811
   56CHL1   C27 4141  -0.056   4.187   4.254 -0.0382  0.6148 -0.7416
   56CHL1  H27A 4142   0.018   4.178   4.335  0.9958 -1.2778 -1.8213
   56CHL1  H27B 4143  -0.094   4.290   4.238 -3.7218 -0.7587 -1.9833
   56CHL1  H27C 4144  -0.141   4.128   4.295 -0.2412  1.8714  0.7292
   57SAPC     N 4145   1.946   4.324   7.012  0.0209 -0.5525  0.4549
   57SAPC   C12 4146   1.879   4.388   6.888  0.4272  0.5281 -0.1110
   57SAPC  H12A 4147   1.852   4.489   6.917 -0.8052  0.1753  0.0123
   57SAPC  H12B 4148   1.788   4.336   6.861  1.3557 -1.7364  0.8351
   57SAPC   C13 4149   2.076   4.384   7.051 -0.1215 -0.1230  0.1064
   57SAPC  H13A 4150   2.054   4.486   7.078 -0.3963 -0.7114  2.2428
   57SAPC  H13B 4151   2.129   4.334   7.131  0.8065 -0.5671 -0.7621
   57SAPC  H13C 4152   2.138   4.382   6.962 -0.7413 -1.9085 -0.3218
   57SAPC   C14 4153   1.855   4.331   7.137  0.4719  0.0173  0.2574
   57SAPC  H14A 4154   1.870   4.255   7.212  1.3950  0.2846  0.3663
   57SAPC  H14B 4155   1.859   4.429   7.182  0.8484 -0.3634  1.0715
   57SAPC  H14C 4156   1.751   4.318   7.112 -0.0551 -0.8261  2.7116
   57SAPC   C15 4157   1.980   4.180   6.998  0.3250  0.1237  0.4189
   57SAPC  H15A 4158   2.050   4.158   6.919  0.5458  2.5087 -0.1312
   57SAPC  H15B 4159   2.020   4.142   7.091 -0.2406  0.7437  0.9327
   57SAPC  H15C 4160   1.889   4.126   6.977 -0.2863  1.2773 -0.0452
   57SAPC   C11 4161   1.966   4.429   6.768  0.6339  0.3173  0.5956
   57SAPC  H11A 4162   2.042   4.506   6.795  0.9162  0.6739 -1.0816
   57SAPC  H11B 4163   1.896   4.480   6.699  0.0617 -0.5267  0.5381
   57SAPC     P 4164   1.973   4.251   6.584  0.5210 -0.2586  0.2470
   57SAPC   O13 4165   2.078   4.151   6.541  0.1199 -0.2527  0.7367
   57SAPC   O14 4166   1.840   4.209   6.629  0.0336 -0.0238  0.2589
   57SAPC   O12 4167   2.036   4.328   6.700 -0.7896  0.4689 -0.1983
   57SAPC   O11 4168   1.959   4.362   6.478 -0.0447  0.5231  0.1599
   57SAPC    C1 4169   2.039   4.479   6.463 -0.0523  0.2647 -0.4670
   57SAPC    HA 4170   1.994   4.572   6.504  0.9362  1.2100 -1.4279
   57SAPC    HB 4171   2.133   4.461   6.519 -0.8688 -1.9358  0.3083
   57SAPC    C2 4172   2.081   4.512   6.312  0.8410  0.4486  0.0121
   57SAPC    HS 4173   2.086   4.622   6.299 -0.1022  0.3700 -1.1821
   57SAPC   O21 4174   1.990   4.457   6.206  0.3125  0.5132 -1.0027
   57SAPC   C21 4175   1.861   4.491   6.227  0.0859 -0.2393 -0.6634
   57SAPC   O22 4176   1.825   4.580   6.304 -0.4497 -0.1648  0.2549
   57SAPC   C22 4177   1.769   4.411   6.137  0.1166  0.4071 -0.1589
   57SAPC   H2R 4178   1.828   4.342   6.074  0.4532  0.2687  0.3047
   57SAPC   H2S 4179   1.719   4.349   6.214 -0.2959  0.5503 -0.3046
   57SAPC    C3 4180   2.222   4.451   6.284  0.0988  0.1416 -0.0399
   57SAPC    HX 4181   2.218   4.344   6.313  0.9826  0.4510  1.3152
   57SAPC    HY 4182   2.290   4.504   6.354  0.7179  0.0494 -0.5619
   57SAPC   O31 4183   2.270   4.467   6.148  0.5991 -0.0982  0.4852
   57SAPC   C31 4184   2.327   4.579   6.115 -0.2910 -0.1117  0.0783
   57SAPC   O32 4185   2.346   4.678   6.186 -0.0876  0.6433  0.2929
   57SAPC   C32 4186   2.373   4.568   5.970  0.6064  0.4858  1.0870
   57SAPC   H2X 4187   2.470   4.514   5.966 -0.3721 -1.2967  0.2196
   57SAPC   H2Y 4188   2.391   4.673   5.937  0.5973 -0.4218 -2.0819
   57SAPC   C23 4189   1.676   4.491   6.046 -0.2363 -0.1689 -0.4858
   57SAPC   H3R 4190   1.623   4.568   6.106  0.7422  0.1193  0.0336
   57SAPC   H3S 4191   1.592   4.426   6.014 -0.0693 -0.4151 -0.4230
   57SAPC   C24 4192   1.750   4.546   5.925  0.6054  0.2093 -0.2286
   57SAPC   H4R 4193   1.782   4.465   5.857 -0.0237 -1.3050  1.2062
   57SAPC   H4S 4194   1.841   4.598   5.964  0.3709 -0.4213  1.2245
   57SAPC   C25 4195   1.667   4.651   5.863 -0.1987  0.4706  0.0359
   57SAPC   H5R 4196   1.666   4.743   5.923  0.0502 -1.3217  2.9814
   57SAPC   C26 4197   1.595   4.635   5.750  0.4501  0.0028  0.2030
   57SAPC   H6R 4198   1.552   4.732   5.720  0.5217 -0.0251  0.0077
   57SAPC   C27 4199   1.590   4.522   5.649 -0.3245  0.1837 -0.6291
   57SAPC   H7R 4200   1.512   4.452   5.685 -0.5320 -0.5724 -2.4229
   57SAPC   H7S 4201   1.687   4.469   5.650 -1.1718 -1.4346  0.3152
   57SAPC   C28 4202   1.555   4.566   5.513  0.2321  0.3322  0.0155
   57SAPC   H8R 4203   1.584   4.665   5.475  0.4304 -0.3034 -1.5696
   57SAPC   C29 4204   1.502   4.494   5.412  0.1888  0.6431  0.2806
   57SAPC   H9R 4205   1.490   4.539   5.312  4.3268 -1.3753 -1.3503
   57SAPC  C210 4206   1.471   4.341   5.421  0.4855  0.7009  0.5671
   57SAPC  H10R 4207   1.506   4.292   5.515  1.5874  1.6082  0.6560
   57SAPC  H10S 4208   1.516   4.287   5.335  1.6956  1.6019  0.6047
   57SAPC  C211 4209   1.323   4.315   5.416 -0.0841 -0.0565 -0.2591
   57SAPC  H11R 4210   1.278   4.313   5.517  0.0951  2.4521 -0.0448
   57SAPC  C212 4211   1.242   4.285   5.308 -0.2849 -0.0783  0.0420
   57SAPC  H12R 4212   1.134   4.280   5.325 -0.3551 -0.4671 -0.5201
   57SAPC  C213 4213   1.294   4.283   5.166  0.3281  0.1589  0.4891
   57SAPC  H13R 4214   1.283   4.176   5.138 -1.9554  0.7323 -1.0487
   57SAPC  H13S 4215   1.401   4.309   5.155  0.3523  0.4355  1.3535
   57SAPC  C214 4216   1.196   4.362   5.074  0.0701  0.3791  0.8765
   57SAPC  H14R 4217   1.194   4.471   5.090  1.8554  0.6195 -0.2098
   57SAPC  C215 4218   1.111   4.307   4.983  0.0347 -0.0485 -0.0862
   57SAPC  H15R 4219   1.034   4.359   4.924  1.0247 -0.8056 -2.1824
   57SAPC  C216 4220   1.086   4.159   4.961  0.1927  0.1313 -0.1561
   57SAPC  H16R 4221   0.977   4.152   4.983  0.4223  3.0389  2.7095
   57SAPC  H16S 4222   1.134   4.086   5.031  1.1623 -1.3988 -2.3172
   57SAPC  C217 4223   1.119   4.119   4.820  0.2772 -0.0011 -0.4600
   57SAPC  H17R 4224   1.119   4.009   4.806  0.1616  0.2219 -2.6013
   57SAPC  H17S 4225   1.217   4.160   4.788  0.4760  0.0002  0.1388
   57SAPC  C218 4226   1.009   4.167   4.731  0.3681 -0.0391  0.6649
   57SAPC  H18R 4227   1.000   4.276   4.711  2.1195  0.1748  0.8841
   57SAPC  H18S 4228   0.913   4.138   4.778  0.4907 -1.6423 -0.0150
   57SAPC  C219 4229   1.026   4.085   4.601  0.1555 -0.4187 -0.1164
   57SAPC  H19R 4230   0.991   3.984   4.630 -0.4017 -1.3884 -3.7443
   57SAPC  H19S 4231   1.133   4.101   4.574  0.3221  1.5562  1.4523
   57SAPC  C220 4232   0.946   4.134   4.488 -0.0686  0.6660  0.1917
   57SAPC  H20R 4233   0.841   4.098   4.493  0.4637 -0.8341  1.3751
   57SAPC  H20S 4234   0.980   4.107   4.385  1.6795  1.5342  0.5106
   57SAPC  H20T 4235   0.949   4.245   4.492 -1.2913  0.6874  3.8099
   57SAPC   C33 4236   2.261   4.529   5.872 -0.5575 -0.5428 -0.3050
   57SAPC   H3X 4237   2.157   4.556   5.901 -0.8884 -2.0566  0.0243
   57SAPC   H3Y 4238   2.260   4.418   5.862  3.2002 -0.7089 -0.2710
   57SAPC   C34 4239   2.293   4.588   5.738  0.4697 -0.6140 -0.1620
   57SAPC   H4X 4240   2.387   4.544   5.700  0.3589 -0.2302 -0.9041
   57SAPC   H4Y 4241   2.310   4.696   5.756  2.7106 -0.7974 -0.8854
   57SAPC   C35 4242   2.188   4.545   5.631  0.0775  0.1795 -0.0557
   57SAPC   H5X 4243   2.084   4.565   5.663  0.6200  1.4207  1.0312
   57SAPC   H5Y 4244   2.186   4.434   5.624  0.6092  0.1281  0.5218
   57SAPC   C36 4245   2.215   4.613   5.497  0.7568  0.0375  0.2122
   57SAPC   H6X 4246   2.320   4.595   5.464  0.2402 -0.8503 -1.0093
   57SAPC   H6Y 4247   2.208   4.723   5.508 -0.5730  0.0109 -0.1935
   57SAPC   C37 4248   2.134   4.545   5.390  0.6037 -0.4220  0.1650
   57SAPC   H7X 4249   2.034   4.589   5.413  0.4747  0.6900 -2.1585
   57SAPC   H7Y 4250   2.131   4.435   5.400  0.9061 -0.2954  1.9751
   57SAPC   C38 4251   2.157   4.585   5.242 -0.5711 -0.3253 -0.5965
   57SAPC   H8X 4252   2.262   4.558   5.218 -1.7450 -2.5588 -4.1224
   57SAPC   H8Y 4253   2.133   4.693   5.230 -0.5919 -0.4868 -2.2360
   57SAPC   C39 4254   2.078   4.505   5.132 -0.3978 -0.4840  0.0521
   57SAPC   H9X 4255   1.968   4.511   5.120 -0.4216 -0.3234  0.3464
   57SAPC   H9Y 4256   2.104   4.398   5.142 -0.2816 -0.5413 -0.7806
   57SAPC  C310 4257   2.122   4.552   4.992 -0.3936 -0.1413 -0.1984
   57SAPC  H10X 4258   2.231   4.571   4.995 -0.4279  0.0253  0.0466
   57SAPC  H10Y 4259   2.072   4.650   4.977 -0.8724 -0.4917 -0.9395
   57SAPC  C311 4260   2.085   4.455   4.889 -0.1430 -0.4160  0.2233
   57SAPC  H11X 4261   1.980   4.421   4.907  0.3386 -2.3025 -0.3514
   57SAPC  H11Y 4262   2.148   4.364   4.895 -0.4707 -0.5931  1.2491
   57SAPC  C312 4263   2.094   4.521   4.746 -0.3393 -0.3744 -0.3095
   57SAPC  H12X 4264   2.197   4.561   4.737  0.5813 -2.2776  1.1656
   57SAPC  H12Y 4265   2.031   4.612   4.735  1.4157  1.2136  1.9052
   57SAPC  C313 4266   2.072   4.418   4.627  0.4029 -0.6132 -0.9892
   57SAPC  H13X 4267   1.978   4.364   4.649  0.6376 -0.4208  0.6045
   57SAPC  H13Y 4268   2.156   4.345   4.620 -0.0021 -1.1756 -0.1163
   57SAPC  C314 4269   2.042   4.486   4.496  0.0960 -0.2679  0.2602
   57SAPC  H14X 4270   2.113   4.562   4.457  0.7878 -0.9859  0.1202
   57SAPC  H14Y 4271   1.951   4.549   4.507 -0.7528 -1.7564  2.4358
   57SAPC  C315 4272   2.002   4.398   4.377 -0.5770  0.4615 -0.2410
   57SAPC  H15X 4273   1.977   4.470   4.297 -2.7502  4.1651  3.3986
   57SAPC  H15Y 4274   1.912   4.333   4.381 -1.0811  1.0238 -1.9149
   57SAPC  C316 4275   2.113   4.305   4.333 -0.7975 -0.3574  0.3781
   57SAPC  H16X 4276   2.174   4.257   4.413 -0.1399  1.7843  1.2525
   57SAPC  H16Y 4277   2.193   4.364   4.283 -0.0993  0.0710  1.9517
   57SAPC  C317 4278   2.051   4.200   4.245  0.1126  0.1015  0.6146
   57SAPC  H17X 4279   1.994   4.251   4.164 -1.5715 -2.4872  0.0303
   57SAPC  H17Y 4280   1.983   4.147   4.315  0.6264  0.1901  1.1902
   57SAPC  C318 4281   2.159   4.118   4.180  0.3113  0.2301 -0.0316
   57SAPC  H18X 4282   2.224   4.171   4.107  0.6104 -1.3046 -0.9139
   57SAPC  H18Y 4283   2.105   4.036   4.129  2.5183 -1.4702  0.2153
   57SAPC  H18Z 4284   2.231   4.069   4.250 -0.0943 -2.7859 -1.5887
   58SAPC     N 4285   5.519   4.422   7.062 -0.5634  0.5612 -0.1871
   58SAPC   C12 4286   5.466   4.433   6.918 -0.2976 -1.1903 -0.1557
   58SAPC  H12A 4287   5.408   4.348   6.886 -0.8271 -0.5157 -1.0507
   58SAPC  H12B 4288   5.548   4.440   6.848  0.0154 -3.2472 -0.0587
   58SAPC   C13 4289   5.407   4.408   7.164  0.8601 -0.2681  0.2272
   58SAPC  H13A 4290   5.339   4.335   7.121  0.3469  0.2307  0.1811
   58SAPC  H13B 4291   5.434   4.378   7.264  1.1992 -0.4112  0.0949
   58SAPC  H13C 4292   5.347   4.498   7.166 -0.2641 -0.9883  2.4301
   58SAPC   C14 4293   5.593   4.290   7.066 -0.4820 -0.7967 -0.1689
   58SAPC  H14A 4294   5.678   4.289   6.999 -0.6748  0.1957 -0.4412
   58SAPC  H14B 4295   5.644   4.266   7.158  1.2330  0.2546 -0.7794
   58SAPC  H14C 4296   5.527   4.210   7.036 -0.4668  0.3711 -3.8063
   58SAPC   C15 4297   5.604   4.537   7.100  0.2326 -0.2694 -0.0222
   58SAPC  H15A 4298   5.637   4.528   7.203 -1.2289  0.3952  0.5407
   58SAPC  H15B 4299   5.684   4.544   7.028 -1.8375 -1.7638 -2.6062
   58SAPC  H15C 4300   5.543   4.626   7.095  1.3044  0.4531 -0.8798
   58SAPC   C11 4301   5.383   4.560   6.882  0.2611 -0.3105 -0.1877
   58SAPC  H11A 4302   5.295   4.573   6.949  0.5561  0.4174  0.0651
   58SAPC  H11B 4303   5.340   4.545   6.780  1.8147 -0.5605 -0.8353
   58SAPC     P 4304   5.559   4.713   6.777 -0.1880 -0.0623 -0.0862
   58SAPC   O13 4305   5.598   4.852   6.800  0.7236 -0.2527 -0.0731
   58SAPC   O14 4306   5.666   4.610   6.768 -0.7186  0.8802  0.8423
   58SAPC   O12 4307   5.470   4.675   6.893  0.3109 -0.1294 -0.2173
   58SAPC   O11 4308   5.466   4.708   6.649 -0.1210  0.0740  0.0150
   58SAPC    C1 4309   5.340   4.768   6.631  0.1811  0.5513  0.5495
   58SAPC    HA 4310   5.261   4.692   6.650  0.2332  0.5497  0.7560
   58SAPC    HB 4311   5.324   4.854   6.698 -1.6353  0.3707  0.3997
   58SAPC    C2 4312   5.333   4.819   6.483 -0.3128 -0.0226 -0.2901
   58SAPC    HS 4313   5.248   4.887   6.463 -0.0515 -0.1200 -1.8979
   58SAPC   O21 4314   5.329   4.710   6.388  0.2413  0.1329 -1.1681
   58SAPC   C21 4315   5.219   4.638   6.381 -0.1651  0.2404 -0.3814
   58SAPC   O22 4316   5.122   4.656   6.448 -0.4575  0.2983 -0.4308
   58SAPC   C22 4317   5.230   4.536   6.274  1.2229 -0.2460  0.2839
   58SAPC   H2R 4318   5.305   4.458   6.298  0.8103 -0.5650  0.5325
   58SAPC   H2S 4319   5.131   4.487   6.280  1.4821 -0.9991 -1.1733
   58SAPC    C3 4320   5.459   4.903   6.466  0.1737 -0.6655  0.7392
   58SAPC    HX 4321   5.554   4.845   6.455  1.3004  1.4179 -1.7370
   58SAPC    HY 4322   5.477   4.971   6.552 -1.1156  0.0206  0.4934
   58SAPC   O31 4323   5.459   4.975   6.342 -0.0376 -0.4497  0.2746
   58SAPC   C31 4324   5.441   5.107   6.344  0.1319 -1.0350 -0.5134
   58SAPC   O32 4325   5.412   5.179   6.439  0.2773 -0.5204  0.0226
   58SAPC   C32 4326   5.487   5.170   6.215  0.5453  0.3063 -0.0785
   58SAPC   H2X 4327   5.563   5.096   6.180  1.2065  0.1194  1.6644
   58SAPC   H2Y 4328   5.538   5.266   6.238  0.5548  0.9563 -2.5280
   58SAPC   C23 4329   5.238   4.584   6.129 -0.6360  0.0875 -0.1954
   58SAPC   H3R 4330   5.338   4.627   6.109  0.0978 -0.9396  1.0989
   58SAPC   H3S 4331   5.163   4.665   6.115 -1.6820 -0.4591  1.8814
   58SAPC   C24 4332   5.203   4.469   6.027 -0.1899  0.0715  0.9481
   58SAPC   H4R 4333   5.279   4.390   6.043  1.6085  1.6427  0.4818
   58SAPC   H4S 4334   5.210   4.482   5.917  0.1120 -3.4366  0.4455
   58SAPC   C25 4335   5.064   4.421   6.057  0.6252 -0.3380  1.1479
   58SAPC   H5R 4336   5.006   4.487   6.123  1.3542  2.7888 -1.1504
   58SAPC   C26 4337   4.996   4.322   5.998 -0.2184  0.1020 -0.5707
   58SAPC   H6R 4338   4.898   4.304   6.042  0.5750 -1.4308  0.6748
   58SAPC   C27 4339   5.049   4.222   5.900  0.6109 -0.3615 -0.2118
   58SAPC   H7R 4340   5.059   4.143   5.977 -2.0832 -0.5734  0.0199
   58SAPC   H7S 4341   5.153   4.241   5.867  0.3282  0.7377 -0.5059
   58SAPC   C28 4342   4.959   4.168   5.789  0.6356  0.4779  0.4214
   58SAPC   H8R 4343   4.884   4.103   5.837  1.3726  1.0766  2.5109
   58SAPC   C29 4344   4.977   4.167   5.653  0.0879  0.3306 -1.0585
   58SAPC   H9R 4345   4.897   4.129   5.588 -2.6991  3.3113  0.3460
   58SAPC  C210 4346   5.078   4.235   5.567 -0.3980  0.0207 -0.5833
   58SAPC  H10R 4347   5.172   4.233   5.626  0.0316 -1.5682 -1.2734
   58SAPC  H10S 4348   5.056   4.344   5.564  2.0632  0.6935  1.4078
   58SAPC  C211 4349   5.102   4.169   5.438 -0.0137  0.1637  0.3696
   58SAPC  H11R 4350   5.103   4.059   5.432  1.4474  0.2200 -1.4529
   58SAPC  C212 4351   5.126   4.232   5.318  0.3899  0.6909  0.0806
   58SAPC  H12R 4352   5.154   4.167   5.234 -1.5329 -0.5572  0.3402
   58SAPC  C213 4353   5.128   4.384   5.307  0.1285  0.2427 -0.2319
   58SAPC  H13R 4354   5.205   4.429   5.372 -0.8887  2.6410 -0.5941
   58SAPC  H13S 4355   5.031   4.417   5.350  0.3836  0.4218  0.2072
   58SAPC  C214 4356   5.146   4.440   5.169 -0.3580 -0.2909 -0.0848
   58SAPC  H14R 4357   5.177   4.365   5.094  0.5034  0.3030 -0.3375
   58SAPC  C215 4358   5.152   4.572   5.139  0.7703  0.5686  0.2916
   58SAPC  H15R 4359   5.161   4.611   5.037  0.3963 -0.3894 -0.1114
   58SAPC  C216 4360   5.119   4.681   5.231  0.5098 -0.2970  0.3994
   58SAPC  H16R 4361   5.037   4.646   5.297  1.1076 -1.7563  0.4067
   58SAPC  H16S 4362   5.069   4.769   5.184  0.0587 -1.1933 -0.8824
   58SAPC  C217 4363   5.237   4.742   5.290 -0.2564  0.0895 -0.2105
   58SAPC  H17R 4364   5.322   4.755   5.220  0.3303 -0.7846  0.3287
   58SAPC  H17S 4365   5.268   4.673   5.371  2.1435  1.1398 -0.1419
   58SAPC  C218 4366   5.210   4.886   5.345  0.2491  0.5769  0.9956
   58SAPC  H18R 4367   5.188   4.961   5.266  1.1880  0.4177  0.5720
   58SAPC  H18S 4368   5.305   4.921   5.393  0.3772  2.2154 -0.3442
   58SAPC  C219 4369   5.087   4.879   5.437 -0.3488  0.2028 -0.0230
   58SAPC  H19R 4370   4.994   4.864   5.378 -0.6672  2.3602 -0.1496
   58SAPC  H19S 4371   5.098   4.979   5.483  4.9402 -0.0388 -0.1370
   58SAPC  C220 4372   5.096   4.788   5.559  0.5228  0.1205  0.6710
   58SAPC  H20R 4373   5.065   4.687   5.524  0.4106  1.2629 -3.0683
   58SAPC  H20S 4374   5.025   4.809   5.641 -1.2166 -0.6203 -0.5921
   58SAPC  H20T 4375   5.196   4.772   5.604  0.5758 -2.2567 -0.1584
   58SAPC   C33 4376   5.382   5.192   6.108  0.3867 -0.0730 -0.1566
   58SAPC   H3X 4377   5.420   5.276   6.046  1.4507  0.3812  1.0749
   58SAPC   H3Y 4378   5.287   5.226   6.155  0.6620 -0.5658  0.7818
   58SAPC   C34 4379   5.364   5.075   6.021 -0.7000  0.0180  0.0466
   58SAPC   H4X 4380   5.344   4.986   6.085  0.7003  0.7235  1.5639
   58SAPC   H4Y 4381   5.464   5.068   5.972 -0.5666 -1.9424  0.5101
   58SAPC   C35 4382   5.252   5.078   5.912 -0.0204 -0.5851  0.6097
   58SAPC   H5X 4383   5.156   5.081   5.968 -1.6077 -1.2134 -1.9328
   58SAPC   H5Y 4384   5.253   4.986   5.850 -2.7565  0.9306 -1.9572
   58SAPC   C36 4385   5.260   5.201   5.819  0.0823 -0.1029 -0.6454
   58SAPC   H6X 4386   5.367   5.227   5.802  0.3574 -0.5191  0.3817
   58SAPC   H6Y 4387   5.204   5.289   5.857  0.0536 -0.1998 -0.4623
   58SAPC   C37 4388   5.205   5.182   5.674  0.3034  0.1191 -0.5474
   58SAPC   H7X 4389   5.097   5.157   5.686  1.0236 -2.5919  0.9492
   58SAPC   H7Y 4390   5.256   5.097   5.625 -1.8048 -1.4932 -0.0761
   58SAPC   C38 4391   5.208   5.310   5.594  0.0237  0.1574 -0.0001
   58SAPC   H8X 4392   5.302   5.369   5.603  0.3168 -0.0381 -1.5784
   58SAPC   H8Y 4393   5.141   5.377   5.652  1.6775  1.0019  1.0457
   58SAPC   C39 4394   5.148   5.307   5.450  0.3213 -0.2903 -0.0598
   58SAPC   H9X 4395   5.110   5.408   5.423 -0.8747 -0.4469  0.8974
   58SAPC   H9Y 4396   5.058   5.242   5.442  0.1800  0.0850 -2.1450
   58SAPC  C310 4397   5.250   5.258   5.343 -0.2664  0.2340  0.7063
   58SAPC  H10X 4398   5.301   5.162   5.368  1.3675  1.2872  1.5336
   58SAPC  H10Y 4399   5.318   5.345   5.330  0.4667 -0.5476 -1.1293
   58SAPC  C311 4400   5.180   5.241   5.210 -0.3688  0.7551 -0.2433
   58SAPC  H11X 4401   5.141   5.342   5.183  2.4060  2.1289  0.4630
   58SAPC  H11Y 4402   5.099   5.166   5.209 -1.0552  1.4599 -1.9693
   58SAPC  C312 4403   5.283   5.204   5.098 -0.8490  0.2176 -0.8128
   58SAPC  H12X 4404   5.315   5.103   5.132 -2.3982 -0.8561 -2.3558
   58SAPC  H12Y 4405   5.373   5.268   5.107 -0.6089 -0.0291 -1.3797
   58SAPC  C313 4406   5.217   5.210   4.962 -0.7296  0.5254 -0.2273
   58SAPC  H13X 4407   5.295   5.203   4.883  0.1838  0.8591  0.6262
   58SAPC  H13Y 4408   5.178   5.311   4.936  1.0935  0.8705 -1.8706
   58SAPC  C314 4409   5.114   5.103   4.944 -0.2360  0.4414 -0.0113
   58SAPC  H14X 4410   5.026   5.125   5.007 -0.8411 -4.5660  1.3106
   58SAPC  H14Y 4411   5.155   5.010   4.988  0.6171  0.2008 -1.2784
   58SAPC  C315 4412   5.067   5.086   4.802  0.0917  0.0792 -0.1755
   58SAPC  H15X 4413   5.149   5.069   4.729 -0.6043  0.2826 -1.0215
   58SAPC  H15Y 4414   5.021   5.182   4.771 -1.0374 -0.3600  0.0703
   58SAPC  C316 4415   4.960   4.973   4.783 -0.7532 -0.0191 -0.1180
   58SAPC  H16X 4416   4.875   5.007   4.846  2.0108  0.6387  3.6145
   58SAPC  H16Y 4417   4.999   4.880   4.830 -0.8766  0.4748  0.9882
   58SAPC  C317 4418   4.915   4.968   4.640  0.5124  0.5169  0.1190
   58SAPC  H17X 4419   5.002   4.973   4.571  2.6843  0.4163  2.6601
   58SAPC  H17Y 4420   4.861   5.064   4.627 -0.2066  0.1002  0.0060
   58SAPC  C318 4421   4.828   4.850   4.617  0.5148  0.6562  0.2832
   58SAPC  H18X 4422   4.808   4.834   4.509 -2.0304  1.0046  0.6418
   58SAPC  H18Y 4423   4.724   4.863   4.654  0.4372  1.4155 -0.1780
   58SAPC  H18Z 4424   4.871   4.758   4.663 -1.3849 -0.9720 -1.0466
   59SAPC     N 4425   3.295   0.182   7.119  0.3268 -0.4460 -0.4695
   59SAPC   C12 4426   3.419   0.259   7.078  0.4755  1.0090 -1.5838
   59SAPC  H12A 4427   3.508   0.208   7.112 -0.4978 -0.6462 -1.4451
   59SAPC  H12B 4428   3.429   0.353   7.132 -2.8381  0.3472  0.4510
   59SAPC   C13 4429   3.177   0.268   7.124  0.4327  0.2519  0.1076
   59SAPC  H13A 4430   3.193   0.357   7.184 -0.0200 -0.7193  1.7427
   59SAPC  H13B 4431   3.145   0.286   7.022 -0.6616 -1.4404  0.1149
   59SAPC  H13C 4432   3.097   0.214   7.173  1.8891 -0.3442  1.9426
   59SAPC   C14 4433   3.268   0.066   7.031  0.0307 -0.6641  0.3260
   59SAPC  H14A 4434   3.174   0.017   7.054 -0.9707 -0.2986 -2.6219
   59SAPC  H14B 4435   3.260   0.106   6.932 -0.0192 -2.1845 -0.3100
   59SAPC  H14C 4436   3.349  -0.005   7.017  0.6164 -0.1768  1.1659
   59SAPC   C15 4437   3.308   0.130   7.262 -0.2963 -0.9236  0.0789
   59SAPC  H15A 4438   3.395   0.066   7.260 -0.6046 -1.3486 -1.9075
   59SAPC  H15B 4439   3.321   0.215   7.328  1.6044 -0.5130 -0.7630
   59SAPC  H15C 4440   3.224   0.069   7.293 -1.3883  0.7869  0.6049
   59SAPC   C11 4441   3.428   0.283   6.931 -0.3818 -0.3711 -0.3555
   59SAPC  H11A 4442   3.448   0.185   6.881 -1.2569 -0.9974  0.4835
   59SAPC  H11B 4443   3.515   0.349   6.911  0.4594 -0.8426  1.5236
   59SAPC     P 4444   3.302   0.362   6.711 -0.0875 -0.2872 -0.0820
   59SAPC   O13 4445   3.354   0.494   6.696 -0.4292  0.2680  0.0238
   59SAPC   O14 4446   3.367   0.252   6.633 -0.6300 -0.4262  0.1355
   59SAPC   O12 4447   3.309   0.332   6.869 -0.0369  0.0988 -0.2314
   59SAPC   O11 4448   3.155   0.367   6.678 -0.1351  0.6093  0.1908
   59SAPC    C1 4449   3.064   0.252   6.687  0.4487  0.6156 -0.2823
   59SAPC    HA 4450   3.082   0.187   6.776  1.9345 -0.5474 -1.3678
   59SAPC    HB 4451   2.956   0.275   6.700 -0.1468 -0.1612 -3.1724
   59SAPC    C2 4452   3.072   0.166   6.554 -0.6584 -0.1575 -0.6233
   59SAPC    HS 4453   3.179   0.169   6.527 -0.4367  1.5357  0.2687
   59SAPC   O21 4454   2.990   0.239   6.453 -0.5925  0.0593 -0.5971
   59SAPC   C21 4455   3.047   0.253   6.337  0.2011  0.2713  0.6069
   59SAPC   O22 4456   3.148   0.198   6.303 -0.6654  0.6465  0.2620
   59SAPC   C22 4457   2.958   0.342   6.247  0.2833  0.0305 -0.4038
   59SAPC   H2R 4458   2.862   0.352   6.303  0.8870  2.7627  0.3092
   59SAPC   H2S 4459   3.018   0.436   6.247  1.8433 -0.9304  0.2649
   59SAPC    C3 4460   3.019   0.022   6.581 -0.5043  0.0692 -0.0959
   59SAPC    HX 4461   2.921   0.026   6.635 -0.4888 -0.7310  0.0091
   59SAPC    HY 4462   3.081  -0.034   6.655  0.9445  0.7626 -0.7515
   59SAPC   O31 4463   3.001  -0.049   6.454 -0.0714 -0.2193 -0.4649
   59SAPC   C31 4464   3.107  -0.111   6.410 -0.0651 -0.2244  0.0910
   59SAPC   O32 4465   3.202  -0.142   6.477  0.0341  0.4611 -0.1093
   59SAPC   C32 4466   3.074  -0.141   6.259 -0.7753  0.1150 -0.8534
   59SAPC   H2X 4467   3.056  -0.046   6.204  0.5137  0.4213 -0.7707
   59SAPC   H2Y 4468   2.980  -0.199   6.251 -0.7731  0.1000 -0.7677
   59SAPC   C23 4469   2.942   0.295   6.104 -0.0518 -0.6373 -0.5232
   59SAPC   H3R 4470   2.923   0.186   6.111  0.7449 -0.7165  0.4506
   59SAPC   H3S 4471   3.037   0.323   6.053 -0.3807  0.6482 -0.4523
   59SAPC   C24 4472   2.814   0.362   6.038  0.1517  0.4293 -1.1193
   59SAPC   H4R 4473   2.723   0.341   6.097  0.1565 -0.6990 -1.4930
   59SAPC   H4S 4474   2.793   0.316   5.940 -0.0231 -2.1888  0.0788
   59SAPC   C25 4475   2.824   0.515   6.033  0.3483 -0.3032  0.1894
   59SAPC   H5R 4476   2.777   0.563   6.120  1.2015 -0.9536  1.0431
   59SAPC   C26 4477   2.857   0.593   5.928 -0.5646  0.5477  0.3473
   59SAPC   H6R 4478   2.846   0.703   5.924  0.1516  0.6211  0.1800
   59SAPC   C27 4479   2.916   0.540   5.800 -0.3076  0.1174  0.0648
   59SAPC   H7R 4480   2.869   0.604   5.722  1.0439 -0.1523 -1.0126
   59SAPC   H7S 4481   2.894   0.433   5.781  0.9444 -0.2337  0.4507
   59SAPC   C28 4482   3.063   0.522   5.800 -0.2101  0.4305  0.1938
   59SAPC   H8R 4483   3.113   0.502   5.896 -1.5676 -3.9437  0.2152
   59SAPC   C29 4484   3.141   0.494   5.688 -0.3419  0.1340 -0.5421
   59SAPC   H9R 4485   3.251   0.487   5.697 -0.1301 -0.6841 -2.9678
   59SAPC  C210 4486   3.094   0.499   5.549  0.1378  0.1629  0.3818
   59SAPC  H10R 4487   2.984   0.480   5.556 -0.0312  1.2402  0.8411
   59SAPC  H10S 4488   3.148   0.416   5.498 -0.1143 -0.2877  0.8306
   59SAPC  C211 4489   3.114   0.640   5.487 -0.2047 -0.1478 -0.6982
   59SAPC  H11R 4490   3.101   0.725   5.555  1.6935 -0.8479  0.6648
   59SAPC  C212 4491   3.186   0.653   5.369 -0.0490 -0.4182  0.0632
   59SAPC  H12R 4492   3.212   0.756   5.340  0.9210 -0.0495  2.0325
   59SAPC  C213 4493   3.234   0.546   5.269  0.2491 -0.0194  0.4893
   59SAPC  H13R 4494   3.301   0.468   5.310  0.2637 -0.3063 -0.0699
   59SAPC  H13S 4495   3.285   0.597   5.184  0.2705 -2.6853 -1.2049
   59SAPC  C214 4496   3.111   0.475   5.213  0.4064  0.0918 -0.0268
   59SAPC  H14R 4497   3.021   0.462   5.274 -1.1577 -1.7179 -2.5286
   59SAPC  C215 4498   3.116   0.395   5.104 -0.5784  0.2456 -0.8308
   59SAPC  H15R 4499   3.021   0.342   5.093 -0.8021  0.2599  0.7471
   59SAPC  C216 4500   3.215   0.385   4.992  0.0068 -0.1315 -0.1936
   59SAPC  H16R 4501   3.280   0.295   5.001  1.3578  0.5804 -2.0135
   59SAPC  H16S 4502   3.288   0.468   4.990 -0.6828  0.4741 -0.4357
   59SAPC  C217 4503   3.161   0.376   4.847  0.0920  0.6982 -0.1756
   59SAPC  H17R 4504   3.251   0.381   4.781 -0.3133  0.6736 -0.7321
   59SAPC  H17S 4505   3.099   0.465   4.826 -0.3009  0.8974  1.6392
   59SAPC  C218 4506   3.079   0.251   4.809 -0.5357 -0.2092  0.3489
   59SAPC  H18R 4507   2.985   0.235   4.865  0.5484  1.5467  2.8087
   59SAPC  H18S 4508   3.145   0.165   4.833  1.1450  0.3669 -1.8142
   59SAPC  C219 4509   3.051   0.243   4.657  0.1364 -0.6042  0.1160
   59SAPC  H19R 4510   3.145   0.215   4.604 -0.8943  0.5020 -2.4302
   59SAPC  H19S 4511   3.018   0.341   4.618 -2.3811 -0.9006  1.3203
   59SAPC  C220 4512   2.945   0.136   4.622 -0.1200  0.3864  0.0523
   59SAPC  H20R 4513   2.979   0.034   4.654  0.5157  0.6407  0.2062
   59SAPC  H20S 4514   2.936   0.123   4.512 -3.9688  1.0581  0.1454
   59SAPC  H20T 4515   2.843   0.139   4.665 -0.2721 -3.6174  0.3692
   59SAPC   C33 4516   3.190  -0.210   6.178 -0.5080  0.1439 -0.2728
   59SAPC   H3X 4517   3.147  -0.261   6.089  0.6226 -1.9422  0.3001
   59SAPC   H3Y 4518   3.242  -0.288   6.237 -1.0033 -0.8158 -1.0693
   59SAPC   C34 4519   3.308  -0.114   6.143  0.2362  0.6902 -0.0498
   59SAPC   H4X 4520   3.389  -0.171   6.092 -3.1796 -0.6722 -4.6116
   59SAPC   H4Y 4521   3.344  -0.070   6.238 -0.5284  0.0204  0.5588
   59SAPC   C35 4522   3.273   0.004   6.048 -0.8888  0.7981 -0.0712
   59SAPC   H5X 4523   3.184   0.055   6.090 -0.5456  0.6631  0.8445
   59SAPC   H5Y 4524   3.242  -0.054   5.958 -0.8238  2.6516 -1.3432
   59SAPC   C36 4525   3.389   0.084   6.016  0.6924 -0.6583 -0.0873
   59SAPC   H6X 4526   3.479   0.020   6.002  0.9954 -0.3845  0.5519
   59SAPC   H6Y 4527   3.408   0.150   6.103  1.1281 -0.5624 -0.2505
   59SAPC   C37 4528   3.386   0.177   5.893  0.1136 -0.2437  0.5070
   59SAPC   H7X 4529   3.483   0.231   5.882  0.8086 -1.7337 -1.3073
   59SAPC   H7Y 4530   3.298   0.244   5.886  0.6666  0.8564  3.1550
   59SAPC   C38 4531   3.360   0.075   5.774 -0.2794  0.4831  0.1370
   59SAPC   H8X 4532   3.260   0.027   5.777  0.6706 -1.5887  0.6407
   59SAPC   H8Y 4533   3.434  -0.007   5.787  0.3583  1.0770  0.3292
   59SAPC   C39 4534   3.371   0.135   5.635  0.8312  0.6021  0.7845
   59SAPC   H9X 4535   3.467   0.189   5.623  1.5304 -0.7367  0.0897
   59SAPC   H9Y 4536   3.287   0.206   5.618  0.2625  0.1014  1.4870
   59SAPC  C310 4537   3.342   0.037   5.521 -0.4961  0.2334 -0.4702
   59SAPC  H10X 4538   3.241  -0.008   5.532 -0.2541 -0.1687  0.1814
   59SAPC  H10Y 4539   3.423  -0.038   5.533  0.7965  1.5489 -0.7013
   59SAPC  C311 4540   3.360   0.088   5.383  0.1780  0.0115 -0.1612
   59SAPC  H11X 4541   3.463   0.131   5.378  0.4731 -0.6291  0.2208
   59SAPC  H11Y 4542   3.288   0.168   5.358  0.5281  1.3380  2.6712
   59SAPC  C312 4543   3.349  -0.023   5.274 -0.1442 -0.3089  0.6216
   59SAPC  H12X 4544   3.246  -0.061   5.255 -0.0892 -0.4161  0.5294
   59SAPC  H12Y 4545   3.413  -0.110   5.302 -0.5603 -1.0803 -0.7352
   59SAPC  C313 4546   3.401   0.015   5.132 -0.1771 -0.7884  0.3496
   59SAPC  H13X 4547   3.504   0.048   5.157  0.0317 -0.2543 -1.0933
   59SAPC  H13Y 4548   3.355   0.109   5.094  2.9909  1.2559  1.1744
   59SAPC  C314 4549   3.377  -0.099   5.027 -0.4183 -0.3140  0.0428
   59SAPC  H14X 4550   3.267  -0.103   5.007 -0.7550  0.5893  1.5379
   59SAPC  H14Y 4551   3.415  -0.193   5.071  2.5664  1.0027  0.4700
   59SAPC  C315 4552   3.442  -0.058   4.895 -0.1690  0.2317  0.6202
   59SAPC  H15X 4553   3.544  -0.017   4.910  0.5904 -0.6398 -1.7700
   59SAPC  H15Y 4554   3.373   0.018   4.852 -1.5839 -1.8617 -0.9751
   59SAPC  C316 4555   3.458  -0.169   4.798 -0.0017  0.1303  0.9127
   59SAPC  H16X 4556   3.373  -0.240   4.812  0.7991 -0.6298  2.1592
   59SAPC  H16Y 4557   3.547  -0.232   4.821  0.9490 -0.1234 -2.7661
   59SAPC  C317 4558   3.466  -0.130   4.650 -0.7684  0.6919 -0.0505
   59SAPC  H17X 4559   3.550  -0.062   4.624 -1.8231  1.7134 -0.9256
   59SAPC  H17Y 4560   3.375  -0.075   4.618  0.4079  2.0477 -1.2205
   59SAPC  C318 4561   3.481  -0.266   4.567  0.5252  0.5169 -0.4475
   59SAPC  H18X 4562   3.559  -0.333   4.610 -1.1164 -0.8458  0.5157
   59SAPC  H18Y 4563   3.509  -0.239   4.463 -0.9335 -1.6614 -1.4675
   59SAPC  H18Z 4564   3.389  -0.328   4.574  2.0334 -1.6931  1.2924
   60SAPC     N 4565   3.059   1.518   6.783 -0.6289 -0.1747  0.1343
   60SAPC   C12 4566   2.929   1.531   6.857 -0.4175  0.3515 -0.0034
   60SAPC  H12A 4567   2.947   1.622   6.913 -2.2449  0.0959  1.0704
   60SAPC  H12B 4568   2.907   1.446   6.920  0.5246 -1.2804 -1.7371
   60SAPC   C13 4569   3.092   1.643   6.704 -0.0939 -0.6937  0.3754
   60SAPC  H13A 4570   3.029   1.656   6.617  0.6200  0.6944  0.0566
   60SAPC  H13B 4571   3.071   1.733   6.761  3.1698 -0.4450  1.3599
   60SAPC  H13C 4572   3.194   1.653   6.672  0.7155  0.4324  3.0202
   60SAPC   C14 4573   3.175   1.494   6.879  0.2429  0.3255  0.0239
   60SAPC  H14A 4574   3.270   1.488   6.829  0.6271  0.5152  0.7153
   60SAPC  H14B 4575   3.175   1.574   6.951  2.5883  0.0335  0.4459
   60SAPC  H14C 4576   3.159   1.410   6.945 -0.5431 -0.3590 -1.0204
   60SAPC   C15 4577   3.047   1.402   6.695  0.4697 -0.1580  0.3650
   60SAPC  H15A 4578   3.035   1.318   6.761  2.2344 -0.6254  0.1371
   60SAPC  H15B 4579   2.955   1.414   6.639  1.7276  0.4570 -1.6964
   60SAPC  H15C 4580   3.127   1.382   6.625 -1.3364 -0.1871 -1.8228
   60SAPC   C11 4581   2.807   1.541   6.767  0.6116 -0.3384  1.0258
   60SAPC  H11A 4582   2.826   1.597   6.674 -1.5639 -0.7529  0.2709
   60SAPC  H11B 4583   2.729   1.611   6.806 -1.4167 -1.6171 -0.5640
   60SAPC     P 4584   2.637   1.350   6.823  0.2297 -0.3752  0.0746
   60SAPC   O13 4585   2.697   1.288   6.940  0.5601 -0.4166  0.3940
   60SAPC   O14 4586   2.525   1.445   6.849  0.2684 -0.6281 -0.6368
   60SAPC   O12 4587   2.747   1.415   6.734 -0.6223 -0.2759 -0.8728
   60SAPC   O11 4588   2.593   1.223   6.730  0.0595 -0.0414  0.4246
   60SAPC    C1 4589   2.695   1.153   6.658  0.1727  0.5027 -0.5212
   60SAPC    HA 4590   2.798   1.190   6.673  0.1578  1.5723 -2.6681
   60SAPC    HB 4591   2.688   1.051   6.702  0.0536  1.0100  0.6679
   60SAPC    C2 4592   2.671   1.130   6.503 -0.4718 -0.6079  0.5285
   60SAPC    HS 4593   2.756   1.066   6.469  0.0807  0.6466 -0.5254
   60SAPC   O21 4594   2.687   1.263   6.438  0.8883 -0.7769  0.6802
   60SAPC   C21 4595   2.810   1.312   6.425  0.2972  0.4250 -0.3355
   60SAPC   O22 4596   2.913   1.264   6.467 -0.7383 -0.8978  0.0540
   60SAPC   C22 4597   2.802   1.450   6.354  0.9022 -0.2410  0.0538
   60SAPC   H2R 4598   2.693   1.472   6.359  0.8315 -0.7218  0.6923
   60SAPC   H2S 4599   2.854   1.533   6.406  2.2902  0.2374 -1.9386
   60SAPC    C3 4600   2.545   1.058   6.464 -0.2363 -0.0508 -0.3117
   60SAPC    HX 4601   2.469   1.137   6.487  0.4067  1.1100 -1.9590
   60SAPC    HY 4602   2.532   0.973   6.533  0.3778  0.8895  1.0075
   60SAPC   O31 4603   2.530   1.011   6.323  0.6886  0.3322  0.0045
   60SAPC   C31 4604   2.450   0.912   6.293 -0.5066 -0.1043  0.2468
   60SAPC   O32 4605   2.370   0.869   6.370  0.2068  0.1375  0.5336
   60SAPC   C32 4606   2.468   0.853   6.158 -0.6183 -0.4832  0.2294
   60SAPC   H2X 4607   2.370   0.815   6.121 -0.7768  2.6753 -3.1683
   60SAPC   H2Y 4608   2.548   0.776   6.162  0.6502  0.6375 -1.7667
   60SAPC   C23 4609   2.872   1.444   6.209 -0.2615 -0.0415 -1.0282
   60SAPC   H3R 4610   2.967   1.390   6.226  0.1121  0.6993 -0.7210
   60SAPC   H3S 4611   2.878   1.553   6.187 -1.8570 -0.0322 -1.5573
   60SAPC   C24 4612   2.781   1.376   6.096 -0.4865  1.0459 -0.1969
   60SAPC   H4R 4613   2.696   1.442   6.071 -1.5240  0.4014  1.3934
   60SAPC   H4S 4614   2.736   1.281   6.134 -0.9203 -1.2761 -5.5872
   60SAPC   C25 4615   2.865   1.344   5.975 -1.2572  0.7832 -0.6690
   60SAPC   H5R 4616   2.973   1.334   5.993 -1.3558  0.5690 -0.1966
   60SAPC   C26 4617   2.826   1.341   5.843  0.3499  0.2116 -0.0000
   60SAPC   H6R 4618   2.912   1.340   5.775 -0.7736 -0.6273 -1.4800
   60SAPC   C27 4619   2.686   1.374   5.784  0.2535 -0.4291 -0.2503
   60SAPC   H7R 4620   2.618   1.393   5.870  1.0077 -1.8748  0.7158
   60SAPC   H7S 4621   2.647   1.295   5.717 -0.1072 -0.7916  0.3860
   60SAPC   C28 4622   2.711   1.501   5.702 -0.1339  0.0607 -0.1221
   60SAPC   H8R 4623   2.693   1.595   5.756  1.1603  0.4061 -0.2664
   60SAPC   C29 4624   2.775   1.502   5.579 -0.2328 -0.1772  0.4479
   60SAPC   H9R 4625   2.797   1.601   5.536 -1.7096  0.2856  0.6958
   60SAPC  C210 4626   2.814   1.378   5.500 -0.3901 -0.4571 -0.1356
   60SAPC  H10R 4627   2.804   1.287   5.564 -0.3061  0.6288  1.4680
   60SAPC  H10S 4628   2.921   1.388   5.473 -1.0528  2.6687 -2.0262
   60SAPC  C211 4629   2.732   1.360   5.372 -0.2302  0.4968 -0.2435
   60SAPC  H11R 4630   2.633   1.316   5.391  0.4303 -0.0352  2.3539
   60SAPC  C212 4631   2.772   1.390   5.249 -0.2314 -0.3623  0.1561
   60SAPC  H12R 4632   2.692   1.370   5.176  1.6907  0.5011 -2.3534
   60SAPC  C213 4633   2.898   1.456   5.192  0.4708  0.3933 -0.4644
   60SAPC  H13R 4634   2.936   1.385   5.115 -0.5943 -0.6588 -0.0576
   60SAPC  H13S 4635   2.980   1.462   5.267  1.2272  1.5312 -1.3623
   60SAPC  C214 4636   2.885   1.592   5.135  0.4779 -0.8362  0.3965
   60SAPC  H14R 4637   2.912   1.679   5.196  1.1142 -0.4175 -0.4590
   60SAPC  C215 4638   2.851   1.634   5.012 -0.0084 -0.7043  0.3319
   60SAPC  H15R 4639   2.831   1.742   5.006  1.0500 -0.4024  1.6186
   60SAPC  C216 4640   2.796   1.539   4.904 -0.8002 -0.0588  0.5656
   60SAPC  H16R 4641   2.826   1.435   4.930  0.4893  0.3021  0.5840
   60SAPC  H16S 4642   2.853   1.552   4.810  0.3021 -2.0507  0.8957
   60SAPC  C217 4643   2.647   1.533   4.887  0.8243 -0.1175 -0.0537
   60SAPC  H17R 4644   2.632   1.617   4.815  1.3928 -0.5789 -0.7144
   60SAPC  H17S 4645   2.596   1.548   4.985  1.0062  1.2205 -0.1460
   60SAPC  C218 4646   2.604   1.406   4.806  0.1716 -0.1010  0.3982
   60SAPC  H18R 4647   2.495   1.412   4.788 -0.2634 -3.2861  1.2358
   60SAPC  H18S 4648   2.613   1.317   4.871 -0.1487 -0.0341  0.5315
   60SAPC  C219 4649   2.673   1.382   4.668  0.3944 -0.3959 -0.5417
   60SAPC  H19R 4650   2.773   1.341   4.694  0.0522 -0.1207  1.3278
   60SAPC  H19S 4651   2.692   1.484   4.628  1.2445 -0.0223  0.7351
   60SAPC  C220 4652   2.587   1.297   4.579 -0.0349  0.6126 -0.2051
   60SAPC  H20R 4653   2.641   1.258   4.490 -0.6019 -0.8532  0.0660
   60SAPC  H20S 4654   2.493   1.347   4.545 -1.3967 -0.6966  1.4706
   60SAPC  H20T 4655   2.566   1.203   4.634  2.1862 -0.4298 -1.0170
   60SAPC   C33 4656   2.515   0.956   6.046 -0.0952 -0.0879 -0.2305
   60SAPC   H3X 4657   2.611   1.003   6.077 -0.1124 -0.2738  0.1124
   60SAPC   H3Y 4658   2.447   1.043   6.038 -1.4420 -1.1854 -1.0415
   60SAPC   C34 4659   2.542   0.886   5.911 -0.0787 -0.1236 -0.0444
   60SAPC   H4X 4660   2.448   0.828   5.899 -0.7684  0.2224  2.9167
   60SAPC   H4Y 4661   2.628   0.816   5.926  1.7863  2.2421  0.9938
   60SAPC   C35 4662   2.561   0.977   5.787  0.5438  0.1330 -0.1387
   60SAPC   H5X 4663   2.656   1.033   5.804 -0.0418  1.1679 -0.2159
   60SAPC   H5Y 4664   2.476   1.048   5.791  1.4404  1.1909  0.7120
   60SAPC   C36 4665   2.557   0.893   5.663 -0.8084  0.0761  0.8225
   60SAPC   H6X 4666   2.471   0.825   5.645 -0.8031  0.7315 -2.2699
   60SAPC   H6Y 4667   2.640   0.820   5.665 -0.9422 -0.2676 -1.9500
   60SAPC   C37 4668   2.578   0.983   5.538  0.5625 -0.1365  0.6921
   60SAPC   H7X 4669   2.660   1.052   5.567 -0.9548  1.0503  2.3440
   60SAPC   H7Y 4670   2.492   1.051   5.521  2.1058  1.3162 -1.8939
   60SAPC   C38 4671   2.604   0.900   5.409 -0.4099 -0.3093  0.0525
   60SAPC   H8X 4672   2.550   0.803   5.419  0.0021 -0.3704  2.4886
   60SAPC   H8Y 4673   2.714   0.889   5.404 -0.2989  0.9772 -0.6648
   60SAPC   C39 4674   2.571   0.961   5.279  0.3010 -0.3371 -0.5301
   60SAPC   H9X 4675   2.611   1.065   5.280  1.7561 -0.8748 -0.5238
   60SAPC   H9Y 4676   2.464   0.975   5.255  0.1524 -0.0759  0.2736
   60SAPC  C310 4677   2.613   0.896   5.158  0.3052 -1.0403  0.3755
   60SAPC  H10X 4678   2.573   0.793   5.161 -1.6287 -0.3169  1.4411
   60SAPC  H10Y 4679   2.724   0.888   5.162  0.2981 -1.1710  0.3229
   60SAPC  C311 4680   2.574   0.977   5.039  0.8871  0.1663 -0.4422
   60SAPC  H11X 4681   2.628   1.074   5.039  2.2016 -0.5403 -0.5224
   60SAPC  H11Y 4682   2.468   1.008   5.045  0.2114 -1.8702 -0.8146
   60SAPC  C312 4683   2.602   0.898   4.912 -0.1674 -0.0862  0.4627
   60SAPC  H12X 4684   2.569   0.794   4.933  0.9858 -1.1319 -2.3685
   60SAPC  H12Y 4685   2.712   0.887   4.897 -0.2943  0.4710 -1.1349
   60SAPC  C313 4686   2.532   0.948   4.783 -0.6146  0.4950 -0.5014
   60SAPC  H13X 4687   2.553   1.056   4.766  1.2951 -0.0096 -1.6985
   60SAPC  H13Y 4688   2.423   0.946   4.805 -0.4764 -3.0475  0.5481
   60SAPC  C314 4689   2.581   0.859   4.665  0.2889  0.2333  0.9940
   60SAPC  H14X 4690   2.584   0.755   4.706 -0.3387  0.8117  2.5829
   60SAPC  H14Y 4691   2.684   0.891   4.641 -0.7989  2.6193 -0.8898
   60SAPC  C315 4692   2.496   0.866   4.538  0.1653  0.0100 -0.4120
   60SAPC  H15X 4693   2.482   0.975   4.522  0.0774  0.3670  1.8424
   60SAPC  H15Y 4694   2.395   0.831   4.568 -0.3052  1.3849 -0.3097
   60SAPC  C316 4695   2.546   0.786   4.419 -0.2476  0.1302 -0.3971
   60SAPC  H16X 4696   2.617   0.851   4.363 -0.1175 -0.3749 -0.8164
   60SAPC  H16Y 4697   2.456   0.767   4.356 -1.1427  0.7124  0.6600
   60SAPC  C317 4698   2.613   0.653   4.454  0.0875 -0.5187 -0.0709
   60SAPC  H17X 4699   2.677   0.666   4.544 -0.7095  0.2972  0.3981
   60SAPC  H17Y 4700   2.685   0.629   4.373  2.3014 -1.1544  1.9690
   60SAPC  C318 4701   2.522   0.530   4.468  0.3603 -0.3301 -0.4664
   60SAPC  H18X 4702   2.457   0.536   4.559  0.0497  1.5524 -0.7740
   60SAPC  H18Y 4703   2.589   0.441   4.471 -0.2092 -0.8743 -2.7416
   60SAPC  H18Z 4704   2.461   0.529   4.376 -1.3195  2.0168  0.5217
   61SAPC     N 4705   1.802   3.801   6.635 -0.0444 -0.2298  0.2831
   61SAPC   C12 4706   1.874   3.687   6.562 -0.4443 -0.2011 -0.0988
   61SAPC  H12A 4707   1.870   3.592   6.614  0.2673 -0.1562  0.0550
   61SAPC  H12B 4708   1.982   3.698   6.561 -0.4127 -0.4837 -0.0466
   61SAPC   C13 4709   1.894   3.839   6.747 -0.0263 -0.5321 -0.9517
   61SAPC  H13A 4710   1.981   3.892   6.709  0.7407  0.4657  1.9207
   61SAPC  H13B 4711   1.839   3.908   6.808  0.7605 -1.2311  0.6050
   61SAPC  H13C 4712   1.939   3.756   6.800 -0.7578  0.4637  1.3225
   61SAPC   C14 4713   1.778   3.920   6.546 -0.3579 -0.7018  0.3660
   61SAPC  H14A 4714   1.874   3.965   6.526 -0.2838 -0.1610  1.7965
   61SAPC  H14B 4715   1.724   3.898   6.455 -0.6737  1.8610 -0.1408
   61SAPC  H14C 4716   1.736   4.003   6.602  1.3039  1.7663 -1.8234
   61SAPC   C15 4717   1.682   3.754   6.703  0.5128 -0.0597 -0.5635
   61SAPC  H15A 4718   1.695   3.678   6.778 -3.1976 -0.6333 -0.3208
   61SAPC  H15B 4719   1.631   3.835   6.753  0.8835  0.0764 -0.4042
   61SAPC  H15C 4720   1.617   3.713   6.627 -0.6533  1.3028 -0.3439
   61SAPC   C11 4721   1.822   3.655   6.419  0.1166  0.1867  0.0567
   61SAPC  H11A 4722   1.888   3.572   6.386 -1.6760 -1.3995  0.2425
   61SAPC  H11B 4723   1.834   3.738   6.346  0.2454  0.2089  0.1033
   61SAPC     P 4724   1.649   3.454   6.438 -0.2942  0.0347 -0.0098
   61SAPC   O13 4725   1.769   3.373   6.431 -0.8583 -0.4041  0.3921
   61SAPC   O14 4726   1.582   3.453   6.570 -0.1674 -0.5805  0.1699
   61SAPC   O12 4727   1.682   3.613   6.411 -0.2323  0.4984  0.3949
   61SAPC   O11 4728   1.540   3.413   6.330  0.2536 -0.0852  0.1116
   61SAPC    C1 4729   1.451   3.515   6.277  0.1016 -0.2609  0.0657
   61SAPC    HA 4730   1.350   3.507   6.323 -0.4270  1.2875 -0.7415
   61SAPC    HB 4731   1.482   3.619   6.301 -0.7488 -0.1559  0.7808
   61SAPC    C2 4732   1.428   3.498   6.127  0.3984  0.4033  0.3607
   61SAPC    HS 4733   1.373   3.591   6.102  1.3272  0.7404 -0.5110
   61SAPC   O21 4734   1.355   3.372   6.100 -0.0954 -0.2271  0.2916
   61SAPC   C21 4735   1.263   3.386   6.006  0.1435  0.0895  0.7517
   61SAPC   O22 4736   1.233   3.477   5.932 -0.0836  0.5651  0.1588
   61SAPC   C22 4737   1.163   3.264   6.023 -0.1409  0.6340  0.1091
   61SAPC   H2R 4738   1.133   3.276   6.129  0.9817 -1.0967  0.6527
   61SAPC   H2S 4739   1.070   3.287   5.966 -0.0575 -0.2368 -0.3814
   61SAPC    C3 4740   1.561   3.495   6.051 -0.5987  0.1558 -1.1484
   61SAPC    HX 4741   1.603   3.393   6.058  0.7324  0.7923  1.2399
   61SAPC    HY 4742   1.630   3.557   6.112  1.5108 -2.9580 -0.1327
   61SAPC   O31 4743   1.552   3.548   5.919 -0.3414  0.0969 -0.7894
   61SAPC   C31 4744   1.532   3.679   5.892 -0.1970 -0.3600 -0.0814
   61SAPC   O32 4745   1.528   3.765   5.981 -0.2291  0.3259 -0.3696
   61SAPC   C32 4746   1.524   3.696   5.740 -0.8394  0.2770  0.4975
   61SAPC   H2X 4747   1.597   3.631   5.686 -1.9500  0.8384 -1.8201
   61SAPC   H2Y 4748   1.556   3.801   5.724  1.4696 -0.2531  1.1696
   61SAPC   C23 4749   1.220   3.133   5.984  0.1045  0.3925 -0.4361
   61SAPC   H3R 4750   1.166   3.049   6.033  0.3282 -1.6452 -3.4049
   61SAPC   H3S 4751   1.325   3.120   6.019 -0.2916  0.5174  0.8189
   61SAPC   C24 4752   1.230   3.109   5.836 -0.5383  0.0303  0.2891
   61SAPC   H4R 4753   1.302   3.187   5.802 -1.0582 -0.1689 -1.3219
   61SAPC   H4S 4754   1.131   3.134   5.792 -0.5338  1.5384  1.0657
   61SAPC   C25 4755   1.270   2.966   5.800  0.2443 -0.0219  0.3023
   61SAPC   H5R 4756   1.359   2.927   5.852  1.0967  0.2617 -0.8955
   61SAPC   C26 4757   1.208   2.873   5.723  0.0795 -1.2663  0.8308
   61SAPC   H6R 4758   1.247   2.772   5.708  0.3756 -1.1071  0.5094
   61SAPC   C27 4759   1.078   2.888   5.645 -0.0262  0.1282  0.2952
   61SAPC   H7R 4760   1.105   2.890   5.537  2.0880  1.0276  0.8010
   61SAPC   H7S 4761   1.020   2.980   5.665 -1.4358 -0.7858  0.6215
   61SAPC   C28 4762   0.988   2.766   5.672  0.2723 -0.1912  0.3604
   61SAPC   H8R 4763   0.955   2.745   5.775 -0.0483 -0.9728  0.1083
   61SAPC   C29 4764   0.946   2.680   5.574 -0.4306  0.7436 -0.7102
   61SAPC   H9R 4765   0.873   2.601   5.596  0.8187  0.6393  4.5719
   61SAPC  C210 4766   0.997   2.681   5.430  0.2902  0.2213 -0.0584
   61SAPC  H10R 4767   1.105   2.653   5.436  0.4960  1.2469  3.3548
   61SAPC  H10S 4768   0.999   2.781   5.381 -2.6564  0.2058 -0.3766
   61SAPC  C211 4769   0.936   2.579   5.333 -0.5398 -0.4801 -0.1175
   61SAPC  H11R 4770   0.910   2.484   5.380 -2.1598  0.7544  1.6266
   61SAPC  C212 4771   0.922   2.587   5.197  0.8646  0.4117  0.5494
   61SAPC  H12R 4772   0.884   2.499   5.142 -0.4738 -0.4949  2.7605
   61SAPC  C213 4773   0.958   2.707   5.113  0.3064  0.6584  0.0828
   61SAPC  H13R 4774   1.063   2.740   5.128  0.5305 -0.7866  2.2078
   61SAPC  H13S 4775   0.907   2.799   5.150  0.9986  1.1146 -0.0873
   61SAPC  C214 4776   0.919   2.689   4.971  0.5238  0.7739  0.0017
   61SAPC  H14R 4777   0.854   2.601   4.956  0.1194  1.0677  0.0194
   61SAPC  C215 4778   0.970   2.746   4.860 -0.0054  0.1521  0.4397
   61SAPC  H15R 4779   0.932   2.726   4.759 -2.3305  0.4971  1.1971
   61SAPC  C216 4780   1.068   2.866   4.864 -0.0722 -0.0134 -0.0207
   61SAPC  H16R 4781   1.079   2.903   4.968 -1.6095  0.0251  0.1511
   61SAPC  H16S 4782   1.036   2.953   4.804 -0.9198  1.0301  1.8458
   61SAPC  C217 4783   1.206   2.823   4.820  0.3084 -0.7267 -0.6656
   61SAPC  H17R 4784   1.241   2.739   4.884  2.9636  1.7233  1.3602
   61SAPC  H17S 4785   1.281   2.905   4.831  0.0485  0.4494 -5.3007
   61SAPC  C218 4786   1.198   2.777   4.677  0.4349 -0.4174  1.0246
   61SAPC  H18R 4787   1.117   2.837   4.628  1.2777  0.8983  1.1764
   61SAPC  H18S 4788   1.165   2.672   4.662 -0.4370  0.2339 -2.6356
   61SAPC  C219 4789   1.322   2.807   4.590 -0.2311 -0.2077  1.1203
   61SAPC  H19R 4790   1.337   2.916   4.574 -0.7850 -0.2570  0.1968
   61SAPC  H19S 4791   1.310   2.744   4.499 -2.3420 -2.8811  3.0759
   61SAPC  C220 4792   1.455   2.763   4.660 -0.1271 -0.9332  0.4913
   61SAPC  H20R 4793   1.485   2.789   4.764  2.9954 -1.3588 -0.1994
   61SAPC  H20S 4794   1.549   2.787   4.607  1.9833 -0.9885  3.8612
   61SAPC  H20T 4795   1.444   2.652   4.664  1.6214 -1.1932 -0.7277
   61SAPC   C33 4796   1.386   3.679   5.676 -0.0368 -0.2336  0.0556
   61SAPC   H3X 4797   1.335   3.775   5.697  1.0253  0.4501 -0.3797
   61SAPC   H3Y 4798   1.327   3.598   5.723 -0.1062  0.0938  0.5405
   61SAPC   C34 4799   1.396   3.649   5.521 -0.0614 -0.5560  0.2855
   61SAPC   H4X 4800   1.295   3.618   5.485 -0.9021  1.1963  0.9957
   61SAPC   H4Y 4801   1.450   3.553   5.504 -0.6419 -0.9351  0.5313
   61SAPC   C35 4802   1.442   3.755   5.429 -0.5786 -0.0037 -0.1752
   61SAPC   H5X 4803   1.551   3.771   5.438 -0.6606  2.0007 -2.0371
   61SAPC   H5Y 4804   1.386   3.850   5.447 -3.0753 -1.3878 -0.1608
   61SAPC   C36 4805   1.429   3.723   5.282  0.2161 -0.4047  0.8611
   61SAPC   H6X 4806   1.462   3.812   5.224  1.1389 -1.1554  0.2092
   61SAPC   H6Y 4807   1.325   3.693   5.258 -0.6289  2.3237  0.7662
   61SAPC   C37 4808   1.520   3.614   5.222  0.5483  0.0828  0.1202
   61SAPC   H7X 4809   1.508   3.515   5.271  1.8064  0.3013  0.9258
   61SAPC   H7Y 4810   1.627   3.643   5.229  1.6691 -3.6073 -0.0162
   61SAPC   C38 4811   1.487   3.592   5.078  0.3116 -0.3290  0.0438
   61SAPC   H8X 4812   1.518   3.679   5.018  2.0971 -0.6193  0.4689
   61SAPC   H8Y 4813   1.380   3.563   5.081  0.0334  0.6888  2.1759
   61SAPC   C39 4814   1.565   3.476   5.018 -0.3299  0.0024  0.0042
   61SAPC   H9X 4815   1.675   3.489   5.027 -0.1403 -0.8223 -0.8854
   61SAPC   H9Y 4816   1.547   3.467   4.908 -0.6986 -0.3205  0.0903
   61SAPC  C310 4817   1.512   3.333   5.077 -0.5661 -0.2090 -0.3463
   61SAPC  H10X 4818   1.414   3.310   5.030 -1.0690 -0.5627  0.8439
   61SAPC  H10Y 4819   1.504   3.325   5.188 -1.9885 -2.0171 -0.5336
   61SAPC  C311 4820   1.607   3.214   5.055 -0.4217 -0.3815  0.7922
   61SAPC  H11X 4821   1.551   3.129   5.101  0.1179 -1.4071 -0.3804
   61SAPC  H11Y 4822   1.696   3.227   5.120  0.1193 -0.6592  0.1139
   61SAPC  C312 4823   1.653   3.186   4.904  0.3930  0.4870 -0.1611
   61SAPC  H12X 4824   1.702   3.086   4.905  2.6117  1.4280 -2.6994
   61SAPC  H12Y 4825   1.706   3.272   4.859 -0.2808  0.9568 -0.0816
   61SAPC  C313 4826   1.529   3.162   4.814  0.1644  0.3475  0.0466
   61SAPC  H13X 4827   1.474   3.258   4.824 -2.5070 -0.7847 -2.5182
   61SAPC  H13Y 4828   1.468   3.079   4.854  1.1147  0.0462  0.9081
   61SAPC  C314 4829   1.561   3.139   4.670 -1.2108 -0.0080  0.1385
   61SAPC  H14X 4830   1.587   3.033   4.653 -3.2143 -0.1935 -2.3751
   61SAPC  H14Y 4831   1.657   3.196   4.664  0.3752 -2.4189  1.3004
   61SAPC  C315 4832   1.451   3.179   4.573  1.0733 -0.3495  1.1190
   61SAPC  H15X 4833   1.438   3.289   4.566  0.0904 -0.5569 -1.3294
   61SAPC  H15Y 4834   1.355   3.132   4.606  0.9170 -0.0735  1.0620
   61SAPC  C316 4835   1.484   3.134   4.423  0.2356 -0.0204 -0.5722
   61SAPC  H16X 4836   1.491   3.025   4.408  0.2588  0.0777 -1.3235
   61SAPC  H16Y 4837   1.589   3.166   4.402 -0.0154  0.7922 -0.6431
   61SAPC  C317 4838   1.399   3.192   4.313 -0.4475  0.1995 -0.0446
   61SAPC  H17X 4839   1.405   3.303   4.315  2.1371  0.1227 -0.1442
   61SAPC  H17Y 4840   1.294   3.155   4.305 -0.3198 -0.1824  0.0453
   61SAPC  C318 4841   1.460   3.160   4.177  0.4785  0.1297 -0.7306
   61SAPC  H18X 4842   1.474   3.050   4.174  1.3653  0.1761  0.7189
   61SAPC  H18Y 4843   1.561   3.207   4.176  1.2235 -1.2278  1.6448
   61SAPC  H18Z 4844   1.401   3.204   4.093 -0.3069  1.9150  0.6837
   62SAPC     N 4845   5.602   2.741   6.954  0.4259 -0.4484 -0.9383
   62SAPC   C12 4846   5.744   2.693   6.906 -0.1325 -0.5498 -0.4851
   62SAPC  H12A 4847   5.772   2.747   6.816  2.4010 -4.2383 -2.1586
   62SAPC  H12B 4848   5.734   2.588   6.882 -1.4825 -0.4527 -0.4185
   62SAPC   C13 4849   5.504   2.687   6.855  0.2978 -0.4888  0.1775
   62SAPC  H13A 4850   5.403   2.697   6.893 -0.1566  1.9112 -1.4890
   62SAPC  H13B 4851   5.509   2.726   6.755 -0.7603 -2.6509 -0.7841
   62SAPC  H13C 4852   5.540   2.587   6.833 -0.5755 -0.4862 -1.3702
   62SAPC   C14 4853   5.571   2.685   7.097 -0.3514 -0.0442  0.7480
   62SAPC  H14A 4854   5.584   2.578   7.097 -2.5083 -0.3516  1.0578
   62SAPC  H14B 4855   5.634   2.733   7.170 -0.0030  0.5211  0.0851
   62SAPC  H14C 4856   5.465   2.694   7.117 -0.7586 -0.2787 -1.1642
   62SAPC   C15 4857   5.598   2.890   6.956 -0.1882 -0.2292  0.2059
   62SAPC  H15A 4858   5.623   2.933   6.860 -0.3629 -0.4856  0.0480
   62SAPC  H15B 4859   5.498   2.921   6.981 -0.0990 -0.4638  0.8900
   62SAPC  H15C 4860   5.667   2.925   7.032 -0.6496 -0.1452  0.5893
   62SAPC   C11 4861   5.867   2.715   7.007  0.7226 -0.3566 -0.0364
   62SAPC  H11A 4862   5.964   2.671   6.974 -0.1531 -1.9533 -0.6089
   62SAPC  H11B 4863   5.841   2.670   7.105  0.8512 -2.4163 -0.8957
   62SAPC     P 4864   5.961   2.947   6.929  0.1018  0.1340 -0.1112
   62SAPC   O13 4865   5.879   3.070   6.902 -0.7202 -0.2803  0.1390
   62SAPC   O14 4866   6.096   2.981   6.981  0.0692  0.6210 -0.2285
   62SAPC   O12 4867   5.885   2.850   7.034 -0.0237  0.4355  0.3945
   62SAPC   O11 4868   5.976   2.857   6.797  0.0563 -0.6314 -0.3934
   62SAPC    C1 4869   6.026   2.923   6.679  0.0615  0.5207 -0.5064
   62SAPC    HA 4870   6.089   3.011   6.703 -0.6065  1.1072 -0.8703
   62SAPC    HB 4871   6.100   2.855   6.630 -0.6568  0.6240 -1.7915
   62SAPC    C2 4872   5.925   2.956   6.563  0.0652 -0.6264  0.1312
   62SAPC    HS 4873   5.836   3.004   6.610  1.9144  0.4427  2.8234
   62SAPC   O21 4874   5.899   2.842   6.485 -0.0504  0.4159 -0.1694
   62SAPC   C21 4875   5.793   2.778   6.527 -0.2334 -0.2832 -0.4648
   62SAPC   O22 4876   5.723   2.809   6.621  0.1264  0.6052 -0.5466
   62SAPC   C22 4877   5.767   2.663   6.436  0.2060 -0.4406  0.3472
   62SAPC   H2R 4878   5.800   2.692   6.334 -1.8219  1.6383  0.2010
   62SAPC   H2S 4879   5.819   2.575   6.479  0.8189 -0.2375  0.0447
   62SAPC    C3 4880   5.964   3.066   6.466 -0.4940 -0.6113  0.4598
   62SAPC    HX 4881   5.968   3.162   6.521 -1.3273  0.1220 -0.7180
   62SAPC    HY 4882   5.896   3.080   6.379 -0.2797  0.5284  0.4658
   62SAPC   O31 4883   6.096   3.028   6.411  0.1567  0.2008  0.5071
   62SAPC   C31 4884   6.150   3.131   6.350 -0.0912  0.3584  0.1040
   62SAPC   O32 4885   6.105   3.239   6.341 -0.9756  0.2603  0.2597
   62SAPC   C32 4886   6.297   3.103   6.330  0.4262  0.0020 -0.2769
   62SAPC   H2X 4887   6.315   2.996   6.353 -1.4043  0.0247  1.6073
   62SAPC   H2Y 4888   6.358   3.149   6.411  1.7452 -2.1503  0.0292
   62SAPC   C23 4889   5.613   2.639   6.428  0.6928 -0.5878 -0.3620
   62SAPC   H3R 4890   5.562   2.641   6.526 -0.0812 -0.0844 -0.7656
   62SAPC   H3S 4891   5.580   2.541   6.387  0.6306 -0.9240  0.4662
   62SAPC   C24 4892   5.543   2.746   6.333  0.0627  0.1456  0.1790
   62SAPC   H4R 4893   5.596   2.741   6.235  0.8175  1.2090  0.5075
   62SAPC   H4S 4894   5.578   2.849   6.355  2.2281 -0.1216 -1.6567
   62SAPC   C25 4895   5.394   2.740   6.321 -0.0625 -0.8054 -0.3080
   62SAPC   H5R 4896   5.343   2.764   6.416  0.1330  0.9485 -0.6127
   62SAPC   C26 4897   5.322   2.724   6.207 -0.3309 -0.4350 -0.7170
   62SAPC   H6R 4898   5.213   2.734   6.219 -0.3165 -1.9020  1.1694
   62SAPC   C27 4899   5.372   2.674   6.072 -0.0330  0.1057 -0.4770
   62SAPC   H7R 4900   5.310   2.594   6.026 -1.2207  1.5085 -1.4130
   62SAPC   H7S 4901   5.474   2.628   6.074 -0.3953 -0.7940 -1.6079
   62SAPC   C28 4902   5.384   2.793   5.981 -0.0781 -0.8490  0.5484
   62SAPC   H8R 4903   5.439   2.879   6.023 -2.7921  0.9127  0.8060
   62SAPC   C29 4904   5.334   2.811   5.856  0.0262 -0.2392  0.6357
   62SAPC   H9R 4905   5.349   2.899   5.792 -0.3340 -0.7939 -0.2351
   62SAPC  C210 4906   5.253   2.708   5.784  0.5454  0.1895 -0.4054
   62SAPC  H10R 4907   5.203   2.769   5.706  1.6046  2.4398  0.5900
   62SAPC  H10S 4908   5.170   2.672   5.849  0.4644 -2.4360 -1.8006
   62SAPC  C211 4909   5.322   2.585   5.727 -0.4987 -0.5695  0.4458
   62SAPC  H11R 4910   5.423   2.573   5.768 -0.9822  4.0378  3.7101
   62SAPC  C212 4911   5.295   2.523   5.613 -0.8376 -0.3538 -0.4582
   62SAPC  H12R 4912   5.369   2.452   5.573  2.3013  3.0505 -1.2171
   62SAPC  C213 4913   5.183   2.567   5.521  0.4393  0.6531 -0.1223
   62SAPC  H13R 4914   5.226   2.633   5.442  0.8775 -0.4810 -0.8525
   62SAPC  H13S 4915   5.116   2.638   5.573  0.5885 -0.5882  1.8546
   62SAPC  C214 4916   5.099   2.460   5.465  0.7901  0.2191  0.4898
   62SAPC  H14R 4917   5.027   2.425   5.540  0.9913  0.2854  0.7156
   62SAPC  C215 4918   5.098   2.410   5.339 -0.1763  0.1590 -0.3233
   62SAPC  H15R 4919   5.028   2.332   5.307  1.2508 -2.2701  2.0777
   62SAPC  C216 4920   5.180   2.458   5.224  0.5892 -0.1947  1.1180
   62SAPC  H16R 4921   5.255   2.380   5.200  1.2629  0.7589  0.0502
   62SAPC  H16S 4922   5.225   2.558   5.239 -1.9895  0.9981  1.5588
   62SAPC  C217 4923   5.091   2.471   5.098 -0.4223 -0.1523  0.2161
   62SAPC  H17R 4924   5.005   2.540   5.117 -1.3289 -1.9765  3.5468
   62SAPC  H17S 4925   5.039   2.373   5.087 -0.9103  0.0963  0.2597
   62SAPC  C218 4926   5.167   2.502   4.962 -0.0239 -0.2650  0.2036
   62SAPC  H18R 4927   5.080   2.514   4.893 -0.6305 -5.6374 -0.3637
   62SAPC  H18S 4928   5.207   2.410   4.914  3.1742  0.1415  1.8207
   62SAPC  C219 4929   5.252   2.624   4.945  0.6180  0.3600  0.4594
   62SAPC  H19R 4930   5.336   2.639   5.015  0.2076 -0.9996  1.2739
   62SAPC  H19S 4931   5.193   2.719   4.948  0.2822  0.2809 -1.7946
   62SAPC  C220 4932   5.317   2.625   4.810 -0.0511 -0.6396  0.0204
   62SAPC  H20R 4933   5.401   2.553   4.813  0.0981 -0.5516 -1.3579
   62SAPC  H20S 4934   5.360   2.721   4.776  0.7390 -1.2370 -0.6958
   62SAPC  H20T 4935   5.246   2.592   4.731 -1.4573 -1.9022  1.7223
   62SAPC   C33 4936   6.353   3.137   6.191 -0.1691 -0.1992  0.2721
   62SAPC   H3X 4937   6.461   3.112   6.200  0.1731  1.4318  1.0058
   62SAPC   H3Y 4938   6.325   3.242   6.168  1.6325  0.7081  1.9541
   62SAPC   C34 4939   6.276   3.058   6.073  0.0155 -0.1465  0.7539
   62SAPC   H4X 4940   6.189   3.121   6.042  1.2714  1.7356  0.8862
   62SAPC   H4Y 4941   6.253   2.958   6.116 -0.4037  1.2783  4.0953
   62SAPC   C35 4942   6.357   3.029   5.942 -0.2875 -0.0454  0.2325
   62SAPC   H5X 4943   6.427   2.945   5.960 -2.0564 -1.7644 -0.5016
   62SAPC   H5Y 4944   6.410   3.121   5.910 -0.7023 -0.1578 -0.8308
   62SAPC   C36 4945   6.261   2.988   5.834  0.1363 -0.3638 -0.1775
   62SAPC   H6X 4946   6.196   3.070   5.796 -0.5930 -0.7418  0.2219
   62SAPC   H6Y 4947   6.203   2.899   5.868  0.5827 -0.3521  0.6467
   62SAPC   C37 4948   6.349   2.946   5.713  0.3308  0.1711  0.1429
   62SAPC   H7X 4949   6.424   2.874   5.753 -0.7452 -0.1007  1.7291
   62SAPC   H7Y 4950   6.411   3.030   5.675  0.2962  0.2088  0.1696
   62SAPC   C38 4951   6.272   2.861   5.613  0.1877  0.8444  0.0847
   62SAPC   H8X 4952   6.195   2.924   5.564 -1.4034 -0.8701  0.3006
   62SAPC   H8Y 4953   6.222   2.779   5.668  0.7304  1.1737  1.0917
   62SAPC   C39 4954   6.364   2.802   5.503 -0.2617  0.4574 -0.2100
   62SAPC   H9X 4955   6.435   2.731   5.552  1.3974  1.4851 -1.0447
   62SAPC   H9Y 4956   6.427   2.879   5.455  0.5961 -0.7958 -1.1590
   62SAPC  C310 4957   6.289   2.733   5.383 -0.1298 -0.1035 -0.1476
   62SAPC  H10X 4958   6.219   2.809   5.344 -1.4809 -1.5278 -0.5931
   62SAPC  H10Y 4959   6.234   2.645   5.424 -3.3244  0.3176 -3.0999
   62SAPC  C311 4960   6.372   2.716   5.255  0.8170 -0.7348 -0.6983
   62SAPC  H11X 4961   6.446   2.635   5.269  0.3337 -0.9556  0.7608
   62SAPC  H11Y 4962   6.411   2.818   5.232 -1.6515  0.6147  0.6076
   62SAPC  C312 4963   6.283   2.665   5.134 -0.1720 -0.3694  0.3066
   62SAPC  H12X 4964   6.229   2.575   5.171 -0.9220  0.3157  0.9167
   62SAPC  H12Y 4965   6.355   2.632   5.056 -1.1714 -0.9371 -0.3850
   62SAPC  C313 4966   6.189   2.768   5.070 -0.3885  0.3554 -0.1425
   62SAPC  H13X 4967   6.252   2.842   5.015  3.9224 -1.1235  2.3122
   62SAPC  H13Y 4968   6.148   2.829   5.154  0.5371  1.5281 -0.5107
   62SAPC  C314 4969   6.061   2.715   4.995 -0.2634  0.2806 -0.2273
   62SAPC  H14X 4970   6.089   2.639   4.919 -2.0222  2.1337 -2.8752
   62SAPC  H14Y 4971   6.005   2.801   4.953 -1.6863 -0.7421 -0.4935
   62SAPC  C315 4972   5.965   2.655   5.100  0.4508  0.1298  0.1303
   62SAPC  H15X 4973   5.936   2.742   5.163 -1.0038 -0.5556  0.4472
   62SAPC  H15Y 4974   6.022   2.574   5.151 -0.8061 -0.0992  1.2041
   62SAPC  C316 4975   5.838   2.604   5.031 -0.1787  0.1081  0.3424
   62SAPC  H16X 4976   5.864   2.511   4.975  0.6640  1.2839 -1.3223
   62SAPC  H16Y 4977   5.796   2.662   4.946  0.0310 -1.8058 -1.1709
   62SAPC  C317 4978   5.730   2.559   5.127 -0.4249  0.7604 -0.1862
   62SAPC  H17X 4979   5.779   2.514   5.216 -2.2705  0.5649  0.7860
   62SAPC  H17Y 4980   5.681   2.468   5.086 -2.3314  0.8305  1.7272
   62SAPC  C318 4981   5.636   2.665   5.165  0.9287 -0.2639  0.5075
   62SAPC  H18X 4982   5.588   2.718   5.079 -1.0125 -1.3440  0.8609
   62SAPC  H18Y 4983   5.691   2.733   5.233  1.1561 -0.6375  0.6985
   62SAPC  H18Z 4984   5.548   2.619   5.216 -0.4042 -0.3887 -1.7586
   63SAPC     N 4985   2.857   4.306   7.011 -0.3027  0.3765 -0.6200
   63SAPC   C12 4986   2.887   4.244   6.875  0.4059  0.3349  0.4462
   63SAPC  H12A 4987   2.880   4.137   6.876  1.7346  0.2097 -0.6601
   63SAPC  H12B 4988   2.985   4.274   6.839  0.5855  1.5790  1.8515
   63SAPC   C13 4989   2.736   4.243   7.061  0.4014 -0.4601  0.1448
   63SAPC  H13A 4990   2.705   4.273   7.159  2.0727  2.3935 -0.0998
   63SAPC  H13B 4991   2.650   4.283   7.009  0.5469  1.7784  1.5257
   63SAPC  H13C 4992   2.735   4.135   7.051  0.3788 -0.4021 -0.5470
   63SAPC   C14 4993   2.958   4.266   7.114  0.3410 -0.2250 -0.1826
   63SAPC  H14A 4994   3.045   4.329   7.104 -1.3705  1.9416 -3.1987
   63SAPC  H14B 4995   2.924   4.285   7.215  1.6903  0.6412  0.1325
   63SAPC  H14C 4996   2.974   4.159   7.104 -0.1434 -0.3183 -0.0158
   63SAPC   C15 4997   2.840   4.452   7.012 -0.5190  0.4430 -0.3470
   63SAPC  H15A 4998   2.828   4.477   7.116 -1.7198  1.3668 -0.6799
   63SAPC  H15B 4999   2.917   4.505   6.959 -1.3489  1.1003 -0.9335
   63SAPC  H15C 5000   2.743   4.477   6.971 -1.7701 -1.0679  1.5336
   63SAPC   C11 5001   2.805   4.289   6.750  0.2192 -0.1725 -0.8066
   63SAPC  H11A 5002   2.842   4.228   6.664 -0.1235  0.9413 -1.7606
   63SAPC  H11B 5003   2.829   4.394   6.722  2.4028 -0.7463 -1.2848
   63SAPC     P 5004   2.584   4.137   6.754  0.4475  0.3617 -0.3124
   63SAPC   O13 5005   2.593   4.056   6.882  0.1362 -0.0824 -0.0075
   63SAPC   O14 5006   2.447   4.165   6.707 -0.4148 -0.9030  0.1030
   63SAPC   O12 5007   2.666   4.270   6.768 -0.8411 -0.0036  0.4062
   63SAPC   O11 5008   2.643   4.054   6.637  0.5124 -0.3408  0.4134
   63SAPC    C1 5009   2.661   4.106   6.508 -0.1665  0.2528 -0.2755
   63SAPC    HA 5010   2.613   4.205   6.493  1.4253  0.6227 -3.8625
   63SAPC    HB 5011   2.768   4.122   6.486 -0.4066  1.4656 -0.6477
   63SAPC    C2 5012   2.601   4.020   6.392  0.0189  0.3603 -0.1913
   63SAPC    HS 5013   2.500   4.003   6.434  1.1311  0.7776  2.9068
   63SAPC   O21 5014   2.675   3.894   6.380 -0.2486 -0.1319  0.0807
   63SAPC   C21 5015   2.628   3.791   6.454  0.7185 -0.8458 -0.1081
   63SAPC   O22 5016   2.528   3.801   6.524  0.5813  0.2283 -0.4070
   63SAPC   C22 5017   2.720   3.676   6.451  0.7068  0.3496  0.3568
   63SAPC   H2R 5018   2.818   3.713   6.488 -0.3406  3.0719  0.6012
   63SAPC   H2S 5019   2.686   3.616   6.539 -1.0939 -1.4666 -1.4784
   63SAPC    C3 5020   2.609   4.091   6.249  0.4122 -0.2409 -0.0939
   63SAPC    HX 5021   2.715   4.108   6.222 -0.1204 -1.3460 -3.3465
   63SAPC    HY 5022   2.570   4.195   6.262  0.0644 -0.5058  1.0761
   63SAPC   O31 5023   2.535   4.022   6.143  0.0093  0.0261  0.3189
   63SAPC   C31 5024   2.551   4.098   6.033  0.0586  0.1856 -0.4120
   63SAPC   O32 5025   2.614   4.200   6.021  0.9629 -0.5988  0.2591
   63SAPC   C32 5026   2.466   4.044   5.920  0.3709  0.1219  0.7787
   63SAPC   H2X 5027   2.370   4.008   5.964  0.1656 -1.7295 -1.0855
   63SAPC   H2Y 5028   2.521   3.959   5.876  1.3191  1.9866 -1.8878
   63SAPC   C23 5029   2.717   3.607   6.312 -0.3083  0.6539  0.2832
   63SAPC   H3R 5030   2.785   3.520   6.299 -0.1252  0.9603 -0.8375
   63SAPC   H3S 5031   2.763   3.661   6.227  1.2026 -0.6274  0.2450
   63SAPC   C24 5032   2.571   3.555   6.277  0.2463  0.3763 -0.6641
   63SAPC   H4R 5033   2.513   3.522   6.365  0.4418  0.8836 -0.3440
   63SAPC   H4S 5034   2.590   3.458   6.226 -2.6474 -0.3414 -0.5965
   63SAPC   C25 5035   2.478   3.643   6.195 -0.4283  0.3173 -0.0809
   63SAPC   H5R 5036   2.430   3.709   6.268 -1.6494 -2.3286  1.6578
   63SAPC   C26 5037   2.462   3.638   6.063 -0.0578 -1.3213  0.0197
   63SAPC   H6R 5038   2.379   3.696   6.020 -1.5342 -3.4468 -0.1734
   63SAPC   C27 5039   2.540   3.545   5.971 -0.0122  0.2509  0.4116
   63SAPC   H7R 5040   2.629   3.495   6.015 -1.4289 -4.4339 -1.4860
   63SAPC   H7S 5041   2.580   3.604   5.886 -3.2955  1.9685 -0.0911
   63SAPC   C28 5042   2.458   3.429   5.931  0.0646 -0.1139  0.4690
   63SAPC   H8R 5043   2.439   3.350   6.005 -0.8196 -1.6431 -1.2787
   63SAPC   C29 5044   2.398   3.411   5.810 -0.0797 -0.2335 -0.6026
   63SAPC   H9R 5045   2.343   3.319   5.787 -1.2810  0.5931 -1.1625
   63SAPC  C210 5046   2.408   3.507   5.687 -0.2915  0.2156 -0.1328
   63SAPC  H10R 5047   2.404   3.447   5.594 -0.9499 -1.1056  0.7112
   63SAPC  H10S 5048   2.507   3.557   5.679  0.0559 -0.4489 -0.0864
   63SAPC  C211 5049   2.298   3.608   5.679 -0.1691 -0.3255 -0.0511
   63SAPC  H11R 5050   2.243   3.638   5.769  1.6771  0.7536  0.7837
   63SAPC  C212 5051   2.259   3.654   5.558  0.0961  0.5481  0.6513
   63SAPC  H12R 5052   2.186   3.736   5.548  3.0435  3.2503 -0.2012
   63SAPC  C213 5053   2.325   3.626   5.424  0.2033 -0.5065 -0.5102
   63SAPC  H13R 5054   2.256   3.674   5.351  0.0089 -1.6375 -1.0921
   63SAPC  H13S 5055   2.341   3.517   5.410 -0.0818 -1.0786  2.7977
   63SAPC  C214 5056   2.456   3.704   5.404 -0.0597  0.0088 -0.0296
   63SAPC  H14R 5057   2.487   3.771   5.485  0.8853  1.7640 -1.7512
   63SAPC  C215 5058   2.532   3.692   5.294 -0.0142 -0.6280 -0.4328
   63SAPC  H15R 5059   2.619   3.759   5.286  1.0461 -1.9473 -0.2824
   63SAPC  C216 5060   2.512   3.614   5.166  0.4099  0.5527 -0.1814
   63SAPC  H16R 5061   2.437   3.535   5.190 -0.6146  1.7029  0.5098
   63SAPC  H16S 5062   2.607   3.573   5.125  1.9005  2.3133  1.3508
   63SAPC  C217 5063   2.442   3.692   5.057  0.4718  0.0632 -0.6171
   63SAPC  H17R 5064   2.491   3.791   5.045 -0.4288  0.5161 -0.5925
   63SAPC  H17S 5065   2.336   3.705   5.085  0.7935  0.2281  0.5754
   63SAPC  C218 5066   2.451   3.624   4.917  0.8678 -0.6056  1.1598
   63SAPC  H18R 5067   2.557   3.627   4.884  0.8892  4.0345  0.8886
   63SAPC  H18S 5068   2.404   3.683   4.835  1.6169 -1.5811  0.0014
   63SAPC  C219 5069   2.404   3.476   4.922 -0.1567  0.0036 -0.5747
   63SAPC  H19R 5070   2.316   3.460   4.987 -0.5186 -0.7736 -1.2320
   63SAPC  H19S 5071   2.492   3.426   4.967 -0.7132  0.1120  0.6578
   63SAPC  C220 5072   2.383   3.406   4.789 -0.5050  0.0811 -1.1028
   63SAPC  H20R 5073   2.396   3.295   4.787  0.1242  0.1341 -0.2950
   63SAPC  H20S 5074   2.459   3.437   4.715 -0.5109 -0.3336 -1.2915
   63SAPC  H20T 5075   2.289   3.444   4.744  1.6059  3.9851 -2.6262
   63SAPC   C33 5076   2.444   4.142   5.803  0.0169  0.1958 -0.5041
   63SAPC   H3X 5077   2.529   4.211   5.783  1.6053 -1.7206 -0.6897
   63SAPC   H3Y 5078   2.364   4.217   5.823 -0.5955 -0.4640 -0.4521
   63SAPC   C34 5079   2.420   4.058   5.683  0.0095 -0.1643 -0.5718
   63SAPC   H4X 5080   2.354   3.975   5.716  0.1403 -0.7611 -1.7892
   63SAPC   H4Y 5081   2.518   4.023   5.645 -0.5113  0.5760 -2.7224
   63SAPC   C35 5082   2.343   4.131   5.570  0.3029  0.4666  0.8821
   63SAPC   H5X 5083   2.416   4.209   5.540  0.1169  0.5565  0.6605
   63SAPC   H5Y 5084   2.258   4.196   5.600 -1.8915 -0.2515 -3.0890
   63SAPC   C36 5085   2.299   4.037   5.464  0.4574  0.2538  0.1886
   63SAPC   H6X 5086   2.214   3.982   5.508 -0.2712  1.7335  0.7076
   63SAPC   H6Y 5087   2.375   3.964   5.429  1.2841  1.5504 -0.8393
   63SAPC   C37 5088   2.257   4.103   5.325  0.4229  0.0093 -0.0593
   63SAPC   H7X 5089   2.344   4.162   5.291  1.1345 -0.0992  1.4641
   63SAPC   H7Y 5090   2.173   4.175   5.339  1.4272  1.1993  0.0016
   63SAPC   C38 5091   2.211   4.009   5.219  0.6036  0.4388 -0.1161
   63SAPC   H8X 5092   2.121   3.955   5.255  0.4914  0.4014 -0.4549
   63SAPC   H8Y 5093   2.284   3.927   5.201  0.5634  0.0805  1.2565
   63SAPC   C39 5094   2.187   4.081   5.088 -0.4419  0.4917  0.3926
   63SAPC   H9X 5095   2.281   4.130   5.055  1.0979 -1.7359  1.2895
   63SAPC   H9Y 5096   2.102   4.152   5.092 -2.0068 -1.3392  0.9896
   63SAPC  C310 5097   2.141   3.985   4.975  0.8036 -0.4667  0.0312
   63SAPC  H10X 5098   2.043   3.940   5.001  2.3581 -4.2348  0.0273
   63SAPC  H10Y 5099   2.218   3.904   4.971  3.0713  1.5725 -3.8859
   63SAPC  C311 5100   2.122   4.056   4.841 -0.3838  0.3193 -0.1123
   63SAPC  H11X 5101   2.220   4.107   4.832  0.4670 -1.0825  0.8321
   63SAPC  H11Y 5102   2.054   4.142   4.858  0.6544  0.9435  0.9557
   63SAPC  C312 5103   2.077   3.974   4.726  0.1779  0.1382  0.0830
   63SAPC  H12X 5104   2.065   4.048   4.644  3.2584 -0.0690 -0.6779
   63SAPC  H12Y 5105   1.978   3.930   4.751  0.5084 -0.6315  0.0678
   63SAPC  C313 5106   2.169   3.863   4.671  0.5293  0.1511 -0.6503
   63SAPC  H13X 5107   2.195   3.803   4.760 -3.6304 -1.4144 -0.2598
   63SAPC  H13Y 5108   2.262   3.898   4.620 -0.4697  1.2623 -1.8059
   63SAPC  C314 5109   2.088   3.765   4.584 -0.5944 -0.0889  0.4006
   63SAPC  H14X 5110   2.076   3.817   4.487  1.6595  0.2124  0.2363
   63SAPC  H14Y 5111   1.988   3.737   4.626 -0.5744 -1.1355 -0.2288
   63SAPC  C315 5112   2.163   3.637   4.561  0.0851  0.4386  0.2570
   63SAPC  H15X 5113   2.166   3.569   4.648  0.1637 -0.4555 -0.4308
   63SAPC  H15Y 5114   2.267   3.670   4.542  0.0890  0.6605  0.6547
   63SAPC  C316 5115   2.107   3.549   4.448 -0.7024  0.2692 -0.5545
   63SAPC  H16X 5116   2.000   3.577   4.433 -1.7800 -1.2281  3.2189
   63SAPC  H16Y 5117   2.115   3.442   4.477  1.6147 -0.0124 -2.0271
   63SAPC  C317 5118   2.179   3.568   4.305 -0.0556  0.7299  0.4325
   63SAPC  H17X 5119   2.123   3.491   4.249 -0.6609  1.7368 -0.3848
   63SAPC  H17Y 5120   2.277   3.516   4.299 -0.8847 -0.8655  0.4056
   63SAPC  C318 5121   2.169   3.706   4.239 -0.3478  0.5132  0.5549
   63SAPC  H18X 5122   2.236   3.770   4.301  1.4685 -0.4516 -0.3224
   63SAPC  H18Y 5123   2.063   3.736   4.247 -0.9524 -1.2023 -0.6395
   63SAPC  H18Z 5124   2.205   3.688   4.135  1.0798 -0.4627  1.1918
   64SAPC     N 5125   4.111   2.900   7.196  0.6875  0.4379 -0.3366
   64SAPC   C12 5126   4.251   2.962   7.181 -0.3758  0.1173 -0.5098
   64SAPC  H12A 5127   4.313   2.882   7.143  0.3915  0.1442  0.6343
   64SAPC  H12B 5128   4.300   2.977   7.276 -2.4864  0.6862  0.5529
   64SAPC   C13 5129   4.023   2.995   7.271 -0.4433 -0.3828 -0.9855
   64SAPC  H13A 5130   3.932   2.942   7.297 -0.0024 -0.5186  0.3580
   64SAPC  H13B 5131   4.065   3.031   7.364 -1.2268 -2.4564  0.2491
   64SAPC  H13C 5132   3.997   3.083   7.214 -0.0944  0.9853  0.8654
   64SAPC   C14 5133   4.048   2.858   7.066 -0.0813 -0.2776 -0.3825
   64SAPC  H14A 5134   3.945   2.840   7.091  0.1129 -1.2178 -0.2395
   64SAPC  H14B 5135   4.038   2.940   6.997 -1.3128  0.1081  0.2182
   64SAPC  H14C 5136   4.089   2.768   7.023 -1.2907 -0.6330 -0.8374
   64SAPC   C15 5137   4.130   2.780   7.279  0.3588  0.4055  0.3286
   64SAPC  H15A 5138   4.150   2.794   7.384 -1.2614 -1.9856  1.0468
   64SAPC  H15B 5139   4.038   2.726   7.297 -0.5110  1.3027 -1.1852
   64SAPC  H15C 5140   4.194   2.707   7.231 -0.8423  0.4435 -1.4422
   64SAPC   C11 5141   4.265   3.086   7.097 -0.0408  0.1938  0.3283
   64SAPC  H11A 5142   4.314   3.164   7.160 -0.4372  1.7913 -1.2515
   64SAPC  H11B 5143   4.160   3.114   7.075 -0.8690 -1.4461  1.9612
   64SAPC     P 5144   4.478   3.055   6.958  0.5041  0.0090  0.3716
   64SAPC   O13 5145   4.523   3.186   7.007 -0.8843 -0.0579 -0.6301
   64SAPC   O14 5146   4.532   2.935   7.023  0.8816  0.2626 -1.0937
   64SAPC   O12 5147   4.326   3.057   6.967  0.1755  0.2137 -0.5279
   64SAPC   O11 5148   4.508   3.053   6.802  0.3256 -0.7104 -0.3246
   64SAPC    C1 5149   4.496   2.931   6.725 -0.1860  0.2412  0.1155
   64SAPC    HA 5150   4.420   2.864   6.771  0.8884 -1.8416 -1.0149
   64SAPC    HB 5151   4.462   2.964   6.625  0.2637 -1.2663 -0.5516
   64SAPC    C2 5152   4.630   2.864   6.699 -0.0835  0.1215  0.0299
   64SAPC    HS 5153   4.668   2.818   6.793  1.7497  1.3955 -0.0197
   64SAPC   O21 5154   4.728   2.961   6.645 -0.1728  0.5633 -0.2754
   64SAPC   C21 5155   4.851   2.921   6.625 -0.1133 -0.1115  0.3876
   64SAPC   O22 5156   4.900   2.814   6.664 -0.1326 -0.2075 -0.3839
   64SAPC   C22 5157   4.933   3.016   6.550  0.1923 -1.1459 -0.2096
   64SAPC   H2R 5158   4.880   3.111   6.524  1.7671  0.1793  1.2031
   64SAPC   H2S 5159   5.023   3.042   6.610  0.6524 -1.3881 -0.7882
   64SAPC    C3 5160   4.624   2.755   6.589 -0.0123 -0.1377 -0.2037
   64SAPC    HX 5161   4.548   2.689   6.636 -2.5370  1.6790 -1.4757
   64SAPC    HY 5162   4.711   2.691   6.566 -1.0299 -1.4008 -0.6619
   64SAPC   O31 5163   4.560   2.811   6.464 -0.2256 -0.0540 -0.9585
   64SAPC   C31 5164   4.477   2.721   6.410  0.3925 -0.2659 -0.5026
   64SAPC   O32 5165   4.430   2.619   6.455  0.3720 -0.3194  0.2436
   64SAPC   C32 5166   4.452   2.769   6.267  0.4675 -0.1785 -0.5938
   64SAPC   H2X 5167   4.376   2.697   6.228 -0.0700 -0.0449  0.1724
   64SAPC   H2Y 5168   4.544   2.775   6.205  0.3421  1.3977 -0.6504
   64SAPC   C23 5169   4.981   2.957   6.411 -0.0556 -0.6042 -0.2303
   64SAPC   H3R 5170   4.893   2.895   6.380 -2.0084  1.4013  1.0261
   64SAPC   H3S 5171   5.055   2.875   6.426 -0.9385 -1.7881 -1.9096
   64SAPC   C24 5172   5.023   3.062   6.308 -0.5492  0.4396 -0.9798
   64SAPC   H4R 5173   5.090   3.012   6.236 -0.5072  0.3407 -0.8725
   64SAPC   H4S 5174   5.085   3.134   6.365 -0.1091 -0.5059 -0.2457
   64SAPC   C25 5175   4.898   3.122   6.244  0.1632 -0.2837 -0.2669
   64SAPC   H5R 5176   4.845   3.192   6.310  2.6015  0.9341  0.5315
   64SAPC   C26 5177   4.854   3.091   6.118 -0.1095 -0.2503  0.8016
   64SAPC   H6R 5178   4.763   3.142   6.084  0.6185  0.3601 -0.2771
   64SAPC   C27 5179   4.916   2.995   6.023  0.3632 -0.3964 -0.5733
   64SAPC   H7R 5180   4.849   2.954   5.944 -0.5979 -0.1349  0.0842
   64SAPC   H7S 5181   4.947   2.912   6.089 -0.7000 -0.3679 -0.0095
   64SAPC   C28 5182   5.046   3.048   5.971 -0.8423  0.1267 -0.1971
   64SAPC   H8R 5183   5.136   3.021   6.029 -0.4140 -0.2771 -1.0314
   64SAPC   C29 5184   5.054   3.091   5.844 -0.7793  0.0070 -0.0203
   64SAPC   H9R 5185   5.151   3.136   5.818 -0.3510  0.7675  2.5783
   64SAPC  C210 5186   4.948   3.116   5.745 -0.1111 -0.9076  0.3931
   64SAPC  H10R 5187   4.877   3.194   5.780 -1.6374 -1.5394 -1.1455
   64SAPC  H10S 5188   4.883   3.027   5.730 -2.1396  0.4574  0.5513
   64SAPC  C211 5189   4.990   3.162   5.604 -0.5682 -0.2327  0.4044
   64SAPC  H11R 5190   4.932   3.247   5.567 -0.6738 -1.2551 -1.9695
   64SAPC  C212 5191   5.075   3.108   5.515  0.1515  0.1166  0.0620
   64SAPC  H12R 5192   5.109   3.172   5.432  0.9359 -1.0985 -0.5836
   64SAPC  C213 5193   5.167   2.994   5.540 -0.4838 -0.1262  0.2785
   64SAPC  H13R 5194   5.127   2.916   5.608  0.8917 -1.7206 -0.6548
   64SAPC  H13S 5195   5.264   3.021   5.586  0.2399 -2.0717  0.0061
   64SAPC  C214 5196   5.189   2.926   5.409  0.2822  0.0903  0.0672
   64SAPC  H14R 5197   5.109   2.932   5.334  0.3999 -0.5017 -0.1118
   64SAPC  C215 5198   5.305   2.867   5.371  0.1401 -0.1995 -0.1405
   64SAPC  H15R 5199   5.303   2.815   5.274 -0.7330  0.8715 -0.7162
   64SAPC  C216 5200   5.439   2.860   5.447  0.9561  0.6995  0.3199
   64SAPC  H16R 5201   5.463   2.753   5.433 -1.1227  0.1667  0.4788
   64SAPC  H16S 5202   5.417   2.867   5.556 -0.9637 -1.2736  0.1210
   64SAPC  C217 5203   5.558   2.949   5.412 -0.0655  1.1133  0.6946
   64SAPC  H17R 5204   5.537   3.058   5.415 -0.2419  1.0823  0.5965
   64SAPC  H17S 5205   5.580   2.929   5.306  0.6797  0.5079  0.9549
   64SAPC  C218 5206   5.688   2.896   5.486 -0.4092  0.2260  0.1368
   64SAPC  H18R 5207   5.684   2.786   5.470  0.4848 -0.3184  3.0575
   64SAPC  H18S 5208   5.666   2.905   5.595 -0.8774  0.7671  0.0066
   64SAPC  C219 5209   5.813   2.970   5.448  0.0720  0.0460  0.3357
   64SAPC  H19R 5210   5.795   3.078   5.469 -0.4590  0.7136 -2.8793
   64SAPC  H19S 5211   5.828   2.972   5.338  1.2607  1.0765  0.4920
   64SAPC  C220 5212   5.933   2.916   5.522  0.9957 -0.2160 -0.7303
   64SAPC  H20R 5213   5.896   2.869   5.615 -0.2548  1.8789 -0.1042
   64SAPC  H20S 5214   6.001   3.000   5.548  1.3971 -0.9767  0.7727
   64SAPC  H20T 5215   5.984   2.845   5.453 -2.5252 -1.8867 -1.8356
   64SAPC   C33 5216   4.369   2.905   6.260 -0.2272  0.0181 -0.3000
   64SAPC   H3X 5217   4.444   2.984   6.283  0.2002  1.0508 -4.3852
   64SAPC   H3Y 5218   4.286   2.900   6.333  1.1623  1.7413  1.5103
   64SAPC   C34 5219   4.323   2.934   6.120  0.2754 -0.4064 -0.7312
   64SAPC   H4X 5220   4.252   3.020   6.126  1.7023  0.7135  0.8742
   64SAPC   H4Y 5221   4.258   2.853   6.080  1.1256 -2.4022  1.7138
   64SAPC   C35 5222   4.440   2.967   6.023  0.6065  0.1373 -0.5692
   64SAPC   H5X 5223   4.512   2.883   6.029 -0.5954 -0.8326  0.5514
   64SAPC   H5Y 5224   4.500   3.055   6.058  1.9292 -1.0897  0.3565
   64SAPC   C36 5225   4.393   2.983   5.876  0.0912  0.7702  1.2246
   64SAPC   H6X 5226   4.321   3.068   5.867 -4.4520 -2.7042  0.9754
   64SAPC   H6Y 5227   4.336   2.894   5.840  2.5870 -0.3751 -0.1307
   64SAPC   C37 5228   4.503   3.032   5.786 -0.2656 -0.7838  0.2382
   64SAPC   H7X 5229   4.585   2.957   5.788  1.4607  1.0003 -0.0189
   64SAPC   H7Y 5230   4.550   3.121   5.833 -2.0906  0.1791  0.3173
   64SAPC   C38 5231   4.457   3.069   5.643  0.0914  1.5242  0.4144
   64SAPC   H8X 5232   4.386   3.155   5.652 -0.8742  0.8461 -0.4931
   64SAPC   H8Y 5233   4.404   2.984   5.595  2.6816  1.2335 -2.2125
   64SAPC   C39 5234   4.574   3.089   5.554  0.3659  0.3692  0.7741
   64SAPC   H9X 5235   4.630   2.993   5.552 -2.5467 -1.4345 -1.4500
   64SAPC   H9Y 5236   4.638   3.160   5.610  0.4142  0.5605  0.4786
   64SAPC  C310 5237   4.531   3.121   5.413 -0.4310  0.0560 -0.3437
   64SAPC  H10X 5238   4.471   3.215   5.413  1.7797  1.5617 -1.7114
   64SAPC  H10Y 5239   4.461   3.045   5.373 -1.0487  1.3770 -1.9115
   64SAPC  C311 5240   4.639   3.142   5.312 -0.8463 -0.1970  0.0242
   64SAPC  H11X 5241   4.725   3.074   5.328 -0.2770  0.9515  2.2880
   64SAPC  H11Y 5242   4.687   3.240   5.332  2.0771 -0.9048 -2.7808
   64SAPC  C312 5243   4.588   3.123   5.172  0.4366 -0.0041  0.2631
   64SAPC  H12X 5244   4.508   3.196   5.144  0.8022 -0.0876 -1.0745
   64SAPC  H12Y 5245   4.526   3.033   5.151 -0.7058  0.9527 -0.6265
   64SAPC  C313 5246   4.679   3.130   5.056 -0.3149 -0.7048  0.1819
   64SAPC  H13X 5247   4.746   3.218   5.062  1.3421 -1.9411  0.7074
   64SAPC  H13Y 5248   4.623   3.137   4.960  1.0870 -1.1998 -0.7118
   64SAPC  C314 5249   4.785   3.015   5.041 -0.3147  0.0588  1.1283
   64SAPC  H14X 5250   4.743   2.917   5.008  0.0729  0.6286 -1.2315
   64SAPC  H14Y 5251   4.841   3.004   5.136  0.4356  1.4904  0.8837
   64SAPC  C315 5252   4.888   3.046   4.927  0.1643  0.5583  0.1549
   64SAPC  H15X 5253   4.936   3.143   4.948  2.5610 -0.2887 -1.0576
   64SAPC  H15Y 5254   4.820   3.054   4.839 -0.9074  0.8427  0.9836
   64SAPC  C316 5255   4.988   2.925   4.907  0.1012 -0.0300 -0.2812
   64SAPC  H16X 5256   4.933   2.829   4.899 -0.1042 -0.3286  3.2109
   64SAPC  H16Y 5257   5.054   2.912   4.995  0.8623 -1.1426 -0.9897
   64SAPC  C317 5258   5.080   2.954   4.783  0.0503 -0.3321 -0.0004
   64SAPC  H17X 5259   5.185   2.939   4.814 -0.4817 -0.1930  2.0474
   64SAPC  H17Y 5260   5.068   3.062   4.758 -0.1110 -0.6654 -1.4619
   64SAPC  C318 5261   5.051   2.864   4.663  1.1360 -0.0908  0.1634
   64SAPC  H18X 5262   5.093   2.903   4.568 -1.5663  1.5377 -0.4727
   64SAPC  H18Y 5263   4.941   2.854   4.654  1.1642  0.1784 -0.5843
   64SAPC  H18Z 5264   5.090   2.762   4.685 -0.2433 -0.5579  0.5642
   65SAPC     N 5265   4.618   5.567   2.041 -0.0871 -0.0741  0.7699
   65SAPC   C12 5266   4.767   5.565   2.074  0.0838  0.0735  0.2117
   65SAPC  H12A 5267   4.822   5.488   2.023 -0.8772  0.7278 -1.9735
   65SAPC  H12B 5268   4.774   5.535   2.177 -2.8795 -0.4660  0.3374
   65SAPC   C13 5269   4.567   5.425   2.033  0.4328  0.5943 -0.5688
   65SAPC  H13A 5270   4.616   5.375   2.115 -0.2595  1.2813  0.2722
   65SAPC  H13B 5271   4.461   5.421   2.053  0.5636  3.0906  1.0246
   65SAPC  H13C 5272   4.604   5.372   1.947  0.0718 -1.3432  0.4186
   65SAPC   C14 5273   4.549   5.632   2.152 -0.7116  0.3146  0.0611
   65SAPC  H14A 5274   4.447   5.649   2.122 -1.4894 -1.2025  1.7115
   65SAPC  H14B 5275   4.547   5.567   2.238  2.5642  0.2392  0.2249
   65SAPC  H14C 5276   4.580   5.735   2.166  1.6782 -0.0501 -1.9419
   65SAPC   C15 5277   4.579   5.639   1.911 -0.6773  0.4283 -0.8401
   65SAPC  H15A 5278   4.612   5.594   1.819 -0.9112  1.1852 -1.3074
   65SAPC  H15B 5279   4.471   5.645   1.904 -0.5740  1.2610 -1.8351
   65SAPC  H15C 5280   4.619   5.740   1.912  0.6134 -0.0611  1.0013
   65SAPC   C11 5281   4.844   5.698   2.056 -0.7711 -0.3980  0.5184
   65SAPC  H11A 5282   4.890   5.702   1.955 -3.7315 -0.3148 -0.9324
   65SAPC  H11B 5283   4.916   5.711   2.139 -0.2650  1.6848 -0.1926
   65SAPC     P 5284   4.777   5.944   1.991  0.4579 -0.0199 -0.0234
   65SAPC   O13 5285   4.917   5.992   2.004  0.2082 -0.3079  0.7631
   65SAPC   O14 5286   4.726   5.921   1.855 -0.8652  0.5488 -0.5250
   65SAPC   O12 5287   4.762   5.814   2.076 -0.1046  0.2374  0.0728
   65SAPC   O11 5288   4.676   6.039   2.061  0.4916  0.5827 -0.0035
   65SAPC    C1 5289   4.583   6.009   2.166  0.2845 -0.4597 -0.0639
   65SAPC    HA 5290   4.487   6.065   2.154  1.4902  1.1691 -3.1823
   65SAPC    HB 5291   4.559   5.902   2.152 -0.9829  0.1482 -3.3012
   65SAPC    C2 5292   4.633   6.046   2.308  0.1679 -0.6607  0.0394
   65SAPC    HS 5293   4.725   5.985   2.325  0.5078  0.6593  4.0560
   65SAPC   O21 5294   4.529   6.012   2.399  0.0001 -0.2630 -0.2731
   65SAPC   C21 5295   4.531   5.894   2.463  0.9760  0.1429 -0.7971
   65SAPC   O22 5296   4.609   5.807   2.439  0.9215  0.0596  0.0882
   65SAPC   C22 5297   4.411   5.891   2.565 -0.1834 -0.1604  0.4753
   65SAPC   H2R 5298   4.381   5.997   2.577 -0.2829 -0.0390 -0.7027
   65SAPC   H2S 5299   4.328   5.840   2.511  1.2085 -1.1697 -0.7806
   65SAPC    C3 5300   4.666   6.201   2.324 -0.2115  0.6537  0.3588
   65SAPC    HX 5301   4.573   6.256   2.295 -1.0474 -0.7582  0.2671
   65SAPC    HY 5302   4.737   6.235   2.246 -1.5316  1.3133 -0.6080
   65SAPC   O31 5303   4.723   6.246   2.455 -0.2514  0.1707  0.2452
   65SAPC   C31 5304   4.856   6.222   2.469  0.1256  0.0363 -0.1083
   65SAPC   O32 5305   4.923   6.184   2.375  0.1334 -0.1115 -0.2861
   65SAPC   C32 5306   4.900   6.261   2.603 -0.4550  0.1084  0.3471
   65SAPC   H2X 5307   4.845   6.203   2.680 -1.1238 -1.7641 -1.4629
   65SAPC   H2Y 5308   4.878   6.366   2.631  1.2550 -0.4260  4.4589
   65SAPC   C23 5309   4.441   5.835   2.706 -0.6461 -0.4489  0.4593
   65SAPC   H3R 5310   4.472   5.729   2.695  1.0507 -0.0803  1.2980
   65SAPC   H3S 5311   4.350   5.828   2.769 -2.3099 -1.5229 -1.9416
   65SAPC   C24 5312   4.557   5.923   2.766  0.5240 -0.1919 -0.4272
   65SAPC   H4R 5313   4.648   5.916   2.703  1.1978  0.2241  0.4672
   65SAPC   H4S 5314   4.586   5.884   2.866  2.5800 -0.7353 -1.1888
   65SAPC   C25 5315   4.523   6.075   2.774 -0.4099 -0.0898 -0.4930
   65SAPC   H5R 5316   4.535   6.130   2.679  0.4758  0.5069 -0.0468
   65SAPC   C26 5317   4.499   6.139   2.889 -0.5016 -0.6082 -0.7968
   65SAPC   H6R 5318   4.465   6.242   2.875 -0.7234 -0.1388  2.3768
   65SAPC   C27 5319   4.509   6.070   3.024  0.4712 -0.2189 -0.7256
   65SAPC   H7R 5320   4.471   5.966   3.013 -0.3388  0.0898 -0.8462
   65SAPC   H7S 5321   4.440   6.131   3.086  0.4740  0.1146 -1.0472
   65SAPC   C28 5322   4.650   6.079   3.091 -0.6514 -0.0642  0.1439
   65SAPC   H8R 5323   4.737   6.074   3.024 -0.1400 -2.1599  0.9125
   65SAPC   C29 5324   4.674   6.091   3.223  0.5995 -0.3194 -0.8524
   65SAPC   H9R 5325   4.775   6.114   3.261 -0.5031  1.5764  1.2161
   65SAPC  C210 5326   4.561   6.106   3.326  0.0536 -0.5054  0.0063
   65SAPC  H10R 5327   4.457   6.095   3.287  1.0039 -1.8477 -2.3900
   65SAPC  H10S 5328   4.571   6.209   3.366 -0.5941 -0.5007  0.1691
   65SAPC  C211 5329   4.575   5.999   3.430  0.2554 -0.6145 -0.6971
   65SAPC  H11R 5330   4.551   5.898   3.395 -2.4080 -0.8586  1.5461
   65SAPC  C212 5331   4.596   6.010   3.558 -0.7863 -0.4716  0.1585
   65SAPC  H12R 5332   4.593   5.922   3.623 -2.0425 -1.2734 -0.9202
   65SAPC  C213 5333   4.609   6.143   3.628  0.0837 -0.5550  0.1925
   65SAPC  H13R 5334   4.504   6.162   3.660 -0.7636 -3.0895 -0.8460
   65SAPC  H13S 5335   4.641   6.221   3.556  1.7859  0.2569  1.7554
   65SAPC  C214 5336   4.694   6.134   3.748 -0.0625  0.1396 -0.3245
   65SAPC  H14R 5337   4.792   6.092   3.721  1.1619  1.0706  2.2709
   65SAPC  C215 5338   4.660   6.157   3.878 -0.6147 -0.5791 -0.6657
   65SAPC  H15R 5339   4.741   6.159   3.952 -1.1789  2.4749  0.0207
   65SAPC  C216 5340   4.528   6.195   3.946  0.5346  0.0150 -0.5396
   65SAPC  H16R 5341   4.467   6.105   3.967 -1.8989  1.1649 -2.2068
   65SAPC  H16S 5342   4.462   6.262   3.886 -0.9560 -0.1013  0.8835
   65SAPC  C217 5343   4.533   6.281   4.078 -0.1571  0.3028 -0.3390
   65SAPC  H17R 5344   4.430   6.315   4.102 -0.7561 -0.2915 -1.9048
   65SAPC  H17S 5345   4.599   6.370   4.070 -1.5541  1.4873  0.7057
   65SAPC  C218 5346   4.572   6.196   4.202  1.2172  0.1129 -0.3879
   65SAPC  H18R 5347   4.672   6.151   4.186  2.5005  2.2477  1.0468
   65SAPC  H18S 5348   4.504   6.110   4.217  2.2394 -0.3132  2.4005
   65SAPC  C219 5349   4.569   6.273   4.333  0.1364 -0.5567 -0.1126
   65SAPC  H19R 5350   4.617   6.369   4.305  0.6199 -1.1914 -1.5321
   65SAPC  H19S 5351   4.639   6.217   4.399  3.2485  1.5704 -1.3652
   65SAPC  C220 5352   4.432   6.287   4.406 -0.0279 -0.4918 -0.6465
   65SAPC  H20R 5353   4.431   6.376   4.472 -1.2012 -0.8805 -0.1098
   65SAPC  H20S 5354   4.410   6.195   4.466 -1.9223  0.7047  0.6115
   65SAPC  H20T 5355   4.364   6.297   4.319 -1.6387  0.5876  0.6714
   65SAPC   C33 5356   5.048   6.236   2.626 -0.5056  0.1714  0.0525
   65SAPC   H3X 5357   5.105   6.305   2.561 -0.5748  1.0960  0.9512
   65SAPC   H3Y 5358   5.076   6.130   2.608 -1.0733 -0.2631  1.5040
   65SAPC   C34 5359   5.099   6.290   2.764 -0.7129 -0.0047 -0.4561
   65SAPC   H4X 5360   5.053   6.391   2.774 -2.2628 -0.5401 -1.6007
   65SAPC   H4Y 5361   5.208   6.302   2.746 -0.7682  2.1551  0.3648
   65SAPC   C35 5362   5.074   6.203   2.889  0.7622  0.5425  0.0169
   65SAPC   H5X 5363   5.126   6.108   2.865  0.8913  1.3694 -3.5590
   65SAPC   H5Y 5364   4.964   6.194   2.900  0.8134 -0.8539 -0.4013
   65SAPC   C36 5365   5.143   6.264   3.011  0.5941 -0.3340  0.2173
   65SAPC   H6X 5366   5.096   6.364   3.018  0.2994 -0.5302  1.3733
   65SAPC   H6Y 5367   5.253   6.266   2.999  0.5032  0.8820 -0.5630
   65SAPC   C37 5368   5.101   6.179   3.134 -0.3237  0.6680 -0.1186
   65SAPC   H7X 5369   5.147   6.081   3.110  2.2944  1.9537 -0.7829
   65SAPC   H7Y 5370   4.990   6.181   3.130 -0.3757  1.2046  1.0688
   65SAPC   C38 5371   5.141   6.241   3.263  0.5484 -0.2317  1.3132
   65SAPC   H8X 5372   5.083   6.333   3.285  0.9552  0.1359  0.8630
   65SAPC   H8Y 5373   5.249   6.267   3.253  0.9530 -2.6244 -4.5831
   65SAPC   C39 5374   5.109   6.149   3.383 -0.5654 -0.1017  0.6171
   65SAPC   H9X 5375   5.186   6.069   3.383  0.0986  0.4869 -0.9740
   65SAPC   H9Y 5376   5.006   6.115   3.359  0.1507 -3.2095  1.4729
   65SAPC  C310 5377   5.116   6.216   3.514  0.0973  0.1611  0.2229
   65SAPC  H10X 5378   5.035   6.292   3.520 -1.3771 -1.2294 -1.1588
   65SAPC  H10Y 5379   5.217   6.255   3.540  0.6742 -0.7859 -0.5463
   65SAPC  C311 5380   5.083   6.119   3.627  0.1567 -0.4142 -0.5680
   65SAPC  H11X 5381   5.168   6.048   3.633  0.1805 -0.2409  2.1893
   65SAPC  H11Y 5382   4.991   6.061   3.600  0.2665 -1.0363  0.3615
   65SAPC  C312 5383   5.057   6.180   3.764  0.4302  0.5207 -0.0075
   65SAPC  H12X 5384   5.024   6.105   3.840  0.1343  0.9618  0.3013
   65SAPC  H12Y 5385   4.980   6.259   3.758 -0.1881  0.2364  2.7633
   65SAPC  C313 5386   5.181   6.236   3.831 -0.3287  0.1826  0.0113
   65SAPC  H13X 5387   5.244   6.275   3.748  1.0382  0.0926  0.9808
   65SAPC  H13Y 5388   5.238   6.153   3.878  0.4656  0.8803  0.3034
   65SAPC  C314 5389   5.143   6.337   3.941 -0.5568 -0.8047  0.5983
   65SAPC  H14X 5390   5.079   6.418   3.900  0.1925 -0.4203  0.1731
   65SAPC  H14Y 5391   5.239   6.382   3.974  1.2600 -3.5802 -0.5669
   65SAPC  C315 5392   5.064   6.279   4.062 -0.6343  0.2508 -0.1924
   65SAPC  H15X 5393   5.114   6.182   4.084 -1.0772  0.2926  1.1053
   65SAPC  H15Y 5394   4.958   6.270   4.031 -1.2825 -2.0219  2.2758
   65SAPC  C316 5395   5.070   6.360   4.198  0.3780  0.5466 -0.4445
   65SAPC  H16X 5396   5.002   6.446   4.182  0.3577  0.3877 -1.2777
   65SAPC  H16Y 5397   5.173   6.400   4.201  0.3622  0.8689 -2.4792
   65SAPC  C317 5398   5.041   6.284   4.328 -0.0185  0.2564 -0.0053
   65SAPC  H17X 5399   5.053   6.354   4.414 -1.9064  0.0931  0.4408
   65SAPC  H17Y 5400   5.110   6.197   4.322  0.7169  0.7888  0.5084
   65SAPC  C318 5401   4.906   6.209   4.329  0.4544  0.2048 -0.0423
   65SAPC  H18X 5402   4.826   6.280   4.357 -1.9272 -1.8786 -1.1872
   65SAPC  H18Y 5403   4.909   6.130   4.407  1.7756 -1.1811 -1.4007
   65SAPC  H18Z 5404   4.878   6.171   4.228  1.1785  0.7510 -0.4603
   66SAPC     N 5405   2.835   0.971   2.082  0.2904 -0.2116 -0.0595
   66SAPC   C12 5406   2.852   0.989   2.231  0.1865 -0.4122 -0.0167
   66SAPC  H12A 5407   2.911   1.078   2.248  0.2471 -0.6546  1.1569
   66SAPC  H12B 5408   2.912   0.909   2.271 -1.5705 -1.2800  1.0021
   66SAPC   C13 5409   2.959   0.981   1.998 -0.1006  0.4564  0.3492
   66SAPC  H13A 5410   3.000   1.079   2.015  0.2682  0.2021  1.0152
   66SAPC  H13B 5411   3.031   0.906   2.029 -1.1494 -0.7716 -0.0945
   66SAPC  H13C 5412   2.926   0.963   1.897 -1.4468  1.8928  0.5139
   66SAPC   C14 5413   2.795   0.830   2.063  0.2392 -0.1593 -0.3304
   66SAPC  H14A 5414   2.697   0.806   2.100  0.9976 -0.8409  1.3199
   66SAPC  H14B 5415   2.797   0.807   1.958 -0.1239 -1.6025 -0.0399
   66SAPC  H14C 5416   2.860   0.760   2.113 -2.6812 -2.2955  0.7573
   66SAPC   C15 5417   2.740   1.073   2.024 -0.0915 -0.5330 -0.6856
   66SAPC  H15A 5418   2.647   1.074   2.079  0.7018  0.0652  0.7026
   66SAPC  H15B 5419   2.781   1.173   2.019 -3.4586  1.0454  0.3076
   66SAPC  H15C 5420   2.717   1.052   1.921 -1.5933 -1.8306 -0.1311
   66SAPC   C11 5421   2.719   1.012   2.312 -0.1468  0.0848  0.0734
   66SAPC  H11A 5422   2.673   1.107   2.278  1.9726  1.0699 -0.2371
   66SAPC  H11B 5423   2.757   1.044   2.412  0.3704 -0.3499  0.0220
   66SAPC     P 5424   2.650   0.778   2.415  0.0096  0.2870  0.3443
   66SAPC   O13 5425   2.516   0.722   2.413  0.1224 -0.4322 -0.0272
   66SAPC   O14 5426   2.763   0.700   2.370 -0.3883  0.2805 -0.2563
   66SAPC   O12 5427   2.635   0.899   2.313 -0.3819  0.2180 -0.9242
   66SAPC   O11 5428   2.686   0.850   2.550  0.5419  0.2605  0.1167
   66SAPC    C1 5429   2.824   0.837   2.601 -0.1649 -0.5277 -0.1590
   66SAPC    HA 5430   2.899   0.817   2.521  1.0664 -1.0458  1.0673
   66SAPC    HB 5431   2.876   0.922   2.650 -0.4811 -0.2977 -0.2236
   66SAPC    C2 5432   2.839   0.748   2.729  0.3743  0.8642 -0.2780
   66SAPC    HS 5433   2.945   0.716   2.744 -0.2769 -0.7588  1.1670
   66SAPC   O21 5434   2.761   0.630   2.718  0.4940  0.5439  0.1157
   66SAPC   C21 5435   2.822   0.529   2.659  0.2689  0.0563 -0.9621
   66SAPC   O22 5436   2.926   0.528   2.601 -0.2179 -0.7432  0.6192
   66SAPC   C22 5437   2.740   0.397   2.690 -1.0298 -0.5736 -0.4931
   66SAPC   H2R 5438   2.632   0.409   2.669 -0.9424 -0.9614 -1.1898
   66SAPC   H2S 5439   2.781   0.332   2.610  0.5623  0.0691 -0.2287
   66SAPC    C3 5440   2.795   0.835   2.850 -0.2920  0.2391 -0.1194
   66SAPC    HX 5441   2.691   0.867   2.827 -1.2999 -0.2503  3.2379
   66SAPC    HY 5442   2.838   0.936   2.869 -0.2433  0.3452 -0.7750
   66SAPC   O31 5443   2.795   0.752   2.970  0.7509 -0.2303 -0.3922
   66SAPC   C31 5444   2.895   0.764   3.050  0.8612  0.4654  0.9223
   66SAPC   O32 5445   3.003   0.816   3.021 -0.0183  0.0695 -0.0701
   66SAPC   C32 5446   2.861   0.693   3.181 -0.4957 -0.4554 -0.2892
   66SAPC   H2X 5447   2.836   0.587   3.157 -2.0379 -0.5245  1.4195
   66SAPC   H2Y 5448   2.766   0.743   3.210  0.0728  0.9712 -0.8188
   66SAPC   C23 5449   2.759   0.328   2.828 -0.2700 -0.0528  0.2678
   66SAPC   H3R 5450   2.687   0.243   2.834 -0.9451  0.4977 -0.0156
   66SAPC   H3S 5451   2.734   0.390   2.916 -2.5550 -1.1874  0.5126
   66SAPC   C24 5452   2.897   0.266   2.842 -0.0962  0.5577  0.1688
   66SAPC   H4R 5453   2.935   0.223   2.747  1.3037  2.5055 -0.2328
   66SAPC   H4S 5454   2.892   0.182   2.914 -1.3573 -0.4065 -0.9935
   66SAPC   C25 5455   3.000   0.376   2.887 -0.1588 -0.1371 -0.5375
   66SAPC   H5R 5456   3.018   0.457   2.815  0.8144 -1.6122 -2.0452
   66SAPC   C26 5457   3.070   0.381   3.004  0.0166 -0.5812  0.4276
   66SAPC   H6R 5458   3.147   0.459   3.015  0.9590 -1.2455 -1.1525
   66SAPC   C27 5459   3.068   0.271   3.103  0.6906  0.8134 -0.7445
   66SAPC   H7R 5460   2.982   0.286   3.171 -1.1068 -0.2189 -2.6788
   66SAPC   H7S 5461   3.148   0.304   3.172  1.4089  0.3453 -1.3334
   66SAPC   C28 5462   3.086   0.123   3.069 -0.1713 -0.2725 -0.3766
   66SAPC   H8R 5463   3.100   0.103   2.962  1.9215 -3.6102  0.3512
   66SAPC   C29 5464   3.105   0.027   3.160  0.2856 -0.5829  1.0837
   66SAPC   H9R 5465   3.113  -0.077   3.124  0.7612  0.0525 -0.7388
   66SAPC  C210 5466   3.119   0.050   3.308 -0.7291  0.3423  0.1694
   66SAPC  H10R 5467   3.099   0.158   3.325 -1.1369  0.4386 -0.8502
   66SAPC  H10S 5468   3.226   0.045   3.337 -0.2517 -1.1262 -1.6635
   66SAPC  C211 5469   3.031  -0.039   3.392 -0.4294  0.6187 -0.3541
   66SAPC  H11R 5470   2.976  -0.121   3.344 -1.1865  0.0343  1.4666
   66SAPC  C212 5471   3.026  -0.028   3.521 -0.1225 -0.3088 -0.9393
   66SAPC  H12R 5472   2.954  -0.087   3.580  1.9583 -2.9660 -0.8526
   66SAPC  C213 5473   3.094   0.076   3.605 -0.7051  0.0231  0.2080
   66SAPC  H13R 5474   3.020   0.122   3.675 -0.1237  0.7287  0.3782
   66SAPC  H13S 5475   3.138   0.157   3.543 -2.5527  1.8428  1.1108
   66SAPC  C214 5476   3.216   0.022   3.673 -1.0715  0.2655 -0.5868
   66SAPC  H14R 5477   3.296  -0.023   3.612 -0.2493  0.3868  0.3764
   66SAPC  C215 5478   3.235   0.024   3.809  0.0773 -0.4555  0.3516
   66SAPC  H15R 5479   3.339   0.003   3.840  0.5479  1.2121  0.0122
   66SAPC  C216 5480   3.148   0.080   3.919 -0.4160 -0.2438 -0.3896
   66SAPC  H16R 5481   3.080  -0.001   3.953 -1.3325  0.8225  0.3866
   66SAPC  H16S 5482   3.080   0.163   3.893  1.2113  1.4557  0.5027
   66SAPC  C217 5483   3.227   0.127   4.042 -0.0333 -0.0145 -0.0592
   66SAPC  H17R 5484   3.258   0.233   4.025 -2.0780  0.7389  0.5723
   66SAPC  H17S 5485   3.308   0.057   4.072 -1.5929 -0.2937  4.2410
   66SAPC  C218 5486   3.137   0.155   4.164  0.1832 -0.4245  0.5104
   66SAPC  H18R 5487   3.079   0.064   4.190  1.7681 -0.9807  2.3897
   66SAPC  H18S 5488   3.061   0.233   4.143  1.7601  1.2926  0.9353
   66SAPC  C219 5489   3.213   0.196   4.290 -0.4133 -0.0041  0.1611
   66SAPC  H19R 5490   3.133   0.202   4.366 -0.1913 -1.7303  0.5706
   66SAPC  H19S 5491   3.262   0.293   4.269  0.3748 -0.4683 -0.1664
   66SAPC  C220 5492   3.322   0.095   4.336  0.7002 -0.1606 -0.4035
   66SAPC  H20R 5493   3.356   0.117   4.440  0.5997  1.4934 -0.6972
   66SAPC  H20S 5494   3.410   0.091   4.268  1.2158  0.5096  0.2050
   66SAPC  H20T 5495   3.281  -0.008   4.350  1.4796 -0.5235 -0.7049
   66SAPC   C33 5496   2.985   0.701   3.270  0.1430  0.0649 -0.2809
   66SAPC   H3X 5497   3.001   0.800   3.317 -1.5102  0.1892  0.0778
   66SAPC   H3Y 5498   3.071   0.674   3.205  0.0715 -2.9715  0.7020
   66SAPC   C34 5499   2.986   0.597   3.386  0.3084  0.4560  0.1743
   66SAPC   H4X 5500   2.982   0.494   3.345  0.1003 -0.0047  1.3148
   66SAPC   H4Y 5501   2.905   0.611   3.461 -0.1726  0.8858 -0.4150
   66SAPC   C35 5502   3.102   0.599   3.478 -0.5750  0.3308  0.5000
   66SAPC   H5X 5503   3.088   0.695   3.533 -0.2437 -0.2743  1.6693
   66SAPC   H5Y 5504   3.189   0.595   3.408 -0.3914  1.1657  0.6621
   66SAPC   C36 5505   3.100   0.481   3.570  0.2182 -0.0528  1.0041
   66SAPC   H6X 5506   3.120   0.388   3.514  0.7917 -0.0553  1.2062
   66SAPC   H6Y 5507   3.008   0.470   3.632 -0.4462 -1.0664 -0.1173
   66SAPC   C37 5508   3.225   0.499   3.662  0.1175  0.1120  0.4244
   66SAPC   H7X 5509   3.311   0.528   3.597  0.8881  2.1949  2.2733
   66SAPC   H7Y 5510   3.246   0.404   3.715 -1.1721 -0.5652 -0.2402
   66SAPC   C38 5511   3.208   0.602   3.773  0.3673  0.3816  0.1927
   66SAPC   H8X 5512   3.121   0.580   3.839 -0.6153 -0.2320 -1.2552
   66SAPC   H8Y 5513   3.175   0.701   3.735 -0.2313  1.9232  4.2550
   66SAPC   C39 5514   3.344   0.616   3.857 -0.2615 -0.1444 -0.2837
   66SAPC   H9X 5515   3.347   0.718   3.901 -0.6767 -0.5632  0.7468
   66SAPC   H9Y 5516   3.427   0.598   3.787  0.7844  0.1206  0.8510
   66SAPC  C310 5517   3.373   0.519   3.976  1.0261  0.1872  0.3793
   66SAPC  H10X 5518   3.337   0.424   3.929  1.0237  1.1042 -1.5800
   66SAPC  H10Y 5519   3.301   0.536   4.059 -0.0730  2.4661 -0.9621
   66SAPC  C311 5520   3.518   0.514   4.010  0.3281  0.5178 -0.0538
   66SAPC  H11X 5521   3.554   0.616   4.037  0.6355  0.3099  0.3290
   66SAPC  H11Y 5522   3.571   0.490   3.915 -0.1851 -1.1670  0.0617
   66SAPC  C312 5523   3.550   0.416   4.128  0.7255  0.2516 -0.1506
   66SAPC  H12X 5524   3.640   0.354   4.113 -1.4816 -2.8492 -1.7795
   66SAPC  H12Y 5525   3.468   0.341   4.120 -0.7958  1.6080  1.7391
   66SAPC  C313 5526   3.541   0.488   4.266  0.2483  0.6090 -0.1149
   66SAPC  H13X 5527   3.444   0.542   4.276  1.3641  2.4043  1.6645
   66SAPC  H13Y 5528   3.623   0.563   4.263  0.1224  0.7740  0.3836
   66SAPC  C314 5529   3.567   0.384   4.386 -0.3610  0.0867 -0.0709
   66SAPC  H14X 5530   3.659   0.329   4.356 -1.7288 -0.4737 -3.8029
   66SAPC  H14Y 5531   3.492   0.302   4.380 -0.0588 -0.2138  0.1779
   66SAPC  C315 5532   3.555   0.454   4.523 -0.3013  0.1110 -0.0190
   66SAPC  H15X 5533   3.476   0.531   4.539 -0.6271 -0.5453  1.6940
   66SAPC  H15Y 5534   3.652   0.503   4.547  1.5343 -3.7644  1.2346
   66SAPC  C316 5535   3.542   0.361   4.637 -0.1904 -0.1656  0.0896
   66SAPC  H16X 5536   3.608   0.274   4.615 -3.9894 -3.1654 -0.6507
   66SAPC  H16Y 5537   3.441   0.314   4.638  0.0947 -0.8950  2.7176
   66SAPC  C317 5538   3.569   0.402   4.784 -0.0446 -0.1384  0.3827
   66SAPC  H17X 5539   3.486   0.473   4.801 -1.5826 -1.4807 -1.1843
   66SAPC  H17Y 5540   3.661   0.465   4.793 -0.3209  0.7337 -2.0671
   66SAPC  C318 5541   3.556   0.295   4.893 -0.5085 -0.4331  0.1724
   66SAPC  H18X 5542   3.657   0.250   4.906  0.3984  1.3563 -0.2631
   66SAPC  H18Y 5543   3.466   0.232   4.882 -1.5925  0.8730  1.1723
   66SAPC  H18Z 5544   3.539   0.356   4.984 -0.3192 -0.0188 -0.0628
   67SAPC     N 5545   1.595   5.720   2.353  0.7583  0.4227 -0.2140
   67SAPC   C12 5546   1.746   5.717   2.375  0.2291 -0.3524  1.0236
   67SAPC  H12A 5547   1.776   5.677   2.471  1.5929  0.8871  1.1488
   67SAPC  H12B 5548   1.794   5.814   2.380 -0.8752  0.2338  0.5045
   67SAPC   C13 5549   1.538   5.584   2.373 -0.5093 -0.1323 -0.4676
   67SAPC  H13A 5550   1.586   5.521   2.300 -0.1412 -0.7238  0.2719
   67SAPC  H13B 5551   1.560   5.538   2.468  0.9518 -0.5368 -0.9743
   67SAPC  H13C 5552   1.433   5.576   2.348  0.4619 -2.4554 -4.6912
   67SAPC   C14 5553   1.533   5.804   2.460 -0.4542 -1.0467  0.1380
   67SAPC  H14A 5554   1.573   5.903   2.447 -2.3953  0.0136  1.8049
   67SAPC  H14B 5555   1.428   5.821   2.444  0.3454  2.9752 -2.1883
   67SAPC  H14C 5556   1.571   5.764   2.553 -1.2476 -1.2672  0.3693
   67SAPC   C15 5557   1.537   5.775   2.227 -0.2801 -0.1575  0.1522
   67SAPC  H15A 5558   1.610   5.843   2.185  0.5310 -2.1732 -1.9571
   67SAPC  H15B 5559   1.527   5.692   2.159  0.0280 -0.4995  0.5176
   67SAPC  H15C 5560   1.445   5.827   2.249 -1.3389 -0.9897 -2.0046
   67SAPC   C11 5561   1.826   5.638   2.268 -0.5312  0.0822  0.3422
   67SAPC  H11A 5562   1.785   5.535   2.277 -1.9032  0.5529 -0.2543
   67SAPC  H11B 5563   1.934   5.644   2.294 -0.9412  0.4051  2.1010
   67SAPC     P 5564   1.870   5.831   2.103  0.2887  0.0426 -0.0939
   67SAPC   O13 5565   1.976   5.801   2.004 -0.1596  0.0026 -0.0607
   67SAPC   O14 5566   1.769   5.930   2.054  0.0103 -0.4388 -0.2884
   67SAPC   O12 5567   1.800   5.693   2.137 -1.2425 -0.4119  0.6796
   67SAPC   O11 5568   1.927   5.880   2.240  0.1208 -0.0141 -0.0332
   67SAPC    C1 5569   2.055   5.936   2.264  0.5908  0.3012  0.1544
   67SAPC    HA 5570   2.090   5.985   2.171  2.1292 -1.9967 -0.5460
   67SAPC    HB 5571   2.058   6.007   2.350 -0.6124  0.5944 -0.0241
   67SAPC    C2 5572   2.161   5.832   2.294  0.3229 -0.3499 -0.1642
   67SAPC    HS 5573   2.163   5.770   2.202 -0.4425  2.3419 -2.1459
   67SAPC   O21 5574   2.118   5.758   2.404  0.3255 -0.3661  0.7147
   67SAPC   C21 5575   2.196   5.653   2.436  0.1370 -0.5099  0.4068
   67SAPC   O22 5576   2.268   5.599   2.360  0.2451 -0.3512 -0.4405
   67SAPC   C22 5577   2.150   5.607   2.575  0.4911 -0.5286  0.0572
   67SAPC   H2R 5578   2.101   5.689   2.632 -0.1229 -0.2275 -0.8678
   67SAPC   H2S 5579   2.080   5.522   2.563  0.7643 -0.8374  0.6269
   67SAPC    C3 5580   2.299   5.905   2.308  0.1532 -0.1716 -0.2048
   67SAPC    HX 5581   2.335   5.946   2.212 -0.8420  1.3573  0.0553
   67SAPC    HY 5582   2.383   5.840   2.341  1.7590  0.9739 -1.8827
   67SAPC   O31 5583   2.287   6.019   2.398 -0.2851 -0.5932  0.5093
   67SAPC   C31 5584   2.301   6.007   2.529  0.0952  0.6530  0.3435
   67SAPC   O32 5585   2.341   5.904   2.586  0.3541 -0.3474 -0.4877
   67SAPC   C32 5586   2.272   6.140   2.587  0.4105 -0.0594 -0.0185
   67SAPC   H2X 5587   2.333   6.218   2.536  0.5260  1.0334  1.7294
   67SAPC   H2Y 5588   2.300   6.130   2.694  0.4153  0.3325  0.0189
   67SAPC   C23 5589   2.267   5.555   2.661 -0.9148 -0.2700  1.0247
   67SAPC   H3R 5590   2.344   5.631   2.636 -0.5160  0.2689  3.5328
   67SAPC   H3S 5591   2.309   5.463   2.618  0.4501  0.6339  0.3657
   67SAPC   C24 5592   2.262   5.576   2.811  0.1277  0.1149 -0.3966
   67SAPC   H4R 5593   2.215   5.674   2.830 -0.0068  0.2193 -1.2094
   67SAPC   H4S 5594   2.365   5.592   2.850  0.4321 -0.8991 -0.7304
   67SAPC   C25 5595   2.204   5.463   2.886  0.8194  0.4652  0.8606
   67SAPC   H5R 5596   2.141   5.398   2.823  1.9718 -0.0789  0.2368
   67SAPC   C26 5597   2.222   5.447   3.021 -0.0804  0.5069  0.3976
   67SAPC   H6R 5598   2.181   5.359   3.073  2.4597 -2.2874 -1.9390
   67SAPC   C27 5599   2.289   5.544   3.115  0.2331  0.1401 -0.7114
   67SAPC   H7R 5600   2.241   5.525   3.213 -0.7099  3.3652 -0.4552
   67SAPC   H7S 5601   2.267   5.648   3.085 -2.2563 -0.3175 -0.6212
   67SAPC   C28 5602   2.442   5.521   3.133 -0.4516 -0.2309 -0.5318
   67SAPC   H8R 5603   2.471   5.423   3.092 -2.5013 -0.4749 -1.5356
   67SAPC   C29 5604   2.526   5.601   3.207 -0.4188  0.7452 -0.5198
   67SAPC   H9R 5605   2.632   5.575   3.217 -0.7969 -0.1691  1.7596
   67SAPC  C210 5606   2.499   5.728   3.272  0.4703  0.5182 -0.9364
   67SAPC  H10R 5607   2.424   5.777   3.206 -1.0554 -0.8807 -0.3025
   67SAPC  H10S 5608   2.583   5.802   3.267 -0.3044  1.7804  2.2312
   67SAPC  C211 5609   2.439   5.736   3.415 -0.2021  0.7292  0.8160
   67SAPC  H11R 5610   2.367   5.656   3.438 -0.7445  0.2063 -2.2843
   67SAPC  C212 5611   2.473   5.833   3.505 -0.2757 -0.7436 -0.6970
   67SAPC  H12R 5612   2.420   5.849   3.601  0.3244 -1.6782 -0.1922
   67SAPC  C213 5613   2.570   5.955   3.467 -0.3618  0.1055 -0.3718
   67SAPC  H13R 5614   2.542   6.003   3.371 -1.8655 -0.0022 -0.0169
   67SAPC  H13S 5615   2.666   5.910   3.434 -0.2435 -0.0161  0.1332
   67SAPC  C214 5616   2.600   6.053   3.574 -0.1586  0.4291 -0.1689
   67SAPC  H14R 5617   2.512   6.091   3.627  0.1993  0.3207  0.5081
   67SAPC  C215 5618   2.728   6.090   3.614  0.5960 -0.2793 -0.3082
   67SAPC  H15R 5619   2.730   6.167   3.693 -0.7331  1.2788 -1.7037
   67SAPC  C216 5620   2.859   6.053   3.560  0.5584 -0.2019  0.9066
   67SAPC  H16R 5621   2.847   5.944   3.547  0.2477 -0.0770  0.0867
   67SAPC  H16S 5622   2.943   6.056   3.632  1.3138  1.4112  0.0013
   67SAPC  C217 5623   2.911   6.107   3.423  0.0871 -0.3862 -0.4102
   67SAPC  H17R 5624   2.876   6.209   3.398 -1.1357 -0.9859 -1.2348
   67SAPC  H17S 5625   2.857   6.049   3.346 -0.8397  0.7443 -0.6304
   67SAPC  C218 5626   3.056   6.086   3.412 -0.0995 -0.2112  0.5582
   67SAPC  H18R 5627   3.086   5.979   3.409  0.0285 -0.1923  1.1385
   67SAPC  H18S 5628   3.114   6.123   3.499 -0.6343 -0.0337  0.8393
   67SAPC  C219 5629   3.120   6.139   3.279 -0.2167 -0.4552  0.6897
   67SAPC  H19R 5630   3.216   6.085   3.265 -0.7222 -1.1099 -0.3647
   67SAPC  H19S 5631   3.124   6.250   3.283  0.1246 -0.5012  1.7652
   67SAPC  C220 5632   3.051   6.098   3.147 -0.4998 -0.9501 -0.9032
   67SAPC  H20R 5633   3.026   5.990   3.143  0.3655 -1.1538 -0.8508
   67SAPC  H20S 5634   3.112   6.136   3.063 -1.0077  3.2737  0.3822
   67SAPC  H20T 5635   2.957   6.158   3.148  1.6803  2.7691  0.4673
   67SAPC   C33 5636   2.122   6.171   2.574  0.5961 -0.4246 -0.3724
   67SAPC   H3X 5637   2.058   6.094   2.621 -1.5145  2.1252  1.1685
   67SAPC   H3Y 5638   2.086   6.187   2.470 -3.1564 -2.9579  0.3491
   67SAPC   C34 5639   2.077   6.304   2.636 -0.5561 -0.1861 -0.3488
   67SAPC   H4X 5640   1.969   6.310   2.611 -1.0209 -0.6186  1.4482
   67SAPC   H4Y 5641   2.135   6.390   2.596  0.7882  0.0226  1.8981
   67SAPC   C35 5642   2.092   6.310   2.797  0.2096 -0.5241  0.6458
   67SAPC   H5X 5643   2.194   6.272   2.816  0.1267 -2.0476 -1.5711
   67SAPC   H5Y 5644   2.028   6.236   2.850  1.3823 -1.7045  0.4674
   67SAPC   C36 5645   2.090   6.454   2.852  0.0848  0.0518 -0.2606
   67SAPC   H6X 5646   1.989   6.495   2.834 -0.3585 -0.4525  1.0104
   67SAPC   H6Y 5647   2.165   6.527   2.814 -0.1219  0.8634  0.8678
   67SAPC   C37 5648   2.125   6.443   3.002  0.1007 -0.0535  0.1146
   67SAPC   H7X 5649   2.224   6.393   3.012 -0.0250 -0.7572 -1.8532
   67SAPC   H7Y 5650   2.039   6.386   3.044 -1.5621  0.2885 -2.6011
   67SAPC   C38 5651   2.150   6.581   3.070 -0.4269  0.1415  0.3912
   67SAPC   H8X 5652   2.080   6.653   3.023 -1.2547  0.0517  1.4577
   67SAPC   H8Y 5653   2.254   6.612   3.042  0.1249 -2.8646 -1.3240
   67SAPC   C39 5654   2.143   6.594   3.224  0.3871 -0.2944  0.5562
   67SAPC   H9X 5655   2.174   6.698   3.247  1.5489 -0.4368 -0.2902
   67SAPC   H9Y 5656   2.210   6.525   3.279  0.6759 -1.6383 -1.3694
   67SAPC  C310 5657   2.010   6.573   3.279 -0.1985 -0.1052  0.3667
   67SAPC  H10X 5658   1.982   6.466   3.279  0.1528 -0.2005  0.0156
   67SAPC  H10Y 5659   1.935   6.632   3.222  0.2737 -1.2654 -1.5402
   67SAPC  C311 5660   1.995   6.625   3.418 -0.1884 -0.6079 -0.1678
   67SAPC  H11X 5661   1.888   6.651   3.432  0.1830  0.8154  0.2643
   67SAPC  H11Y 5662   2.048   6.722   3.437  0.8984 -0.7851 -2.0915
   67SAPC  C312 5663   2.049   6.526   3.522  0.2938 -0.6521  0.0789
   67SAPC  H12X 5664   2.131   6.468   3.475  0.5854  0.0254 -0.2654
   67SAPC  H12Y 5665   1.968   6.450   3.532 -0.4268  0.2216  1.0645
   67SAPC  C313 5666   2.070   6.585   3.664  0.0014  0.5907  0.7263
   67SAPC  H13X 5667   1.968   6.591   3.707 -2.1359 -5.0915 -2.4421
   67SAPC  H13Y 5668   2.119   6.685   3.664  0.1083  0.6332 -2.1170
   67SAPC  C314 5669   2.155   6.485   3.744  0.1031  0.2885  0.2360
   67SAPC  H14X 5670   2.176   6.538   3.839 -0.0100  1.3300 -0.3048
   67SAPC  H14Y 5671   2.251   6.469   3.690 -0.8461 -0.3309 -1.3507
   67SAPC  C315 5672   2.091   6.348   3.767  0.2403 -0.6989  0.6941
   67SAPC  H15X 5673   2.084   6.300   3.667  0.6592  0.9256 -0.1387
   67SAPC  H15Y 5674   1.992   6.362   3.815  0.0205 -1.2564  0.4112
   67SAPC  C316 5675   2.162   6.242   3.846 -0.4414  0.4195 -0.1666
   67SAPC  H16X 5676   2.211   6.296   3.929 -0.6717  0.3818 -0.0034
   67SAPC  H16Y 5677   2.247   6.204   3.785 -0.6445 -2.0346  0.9766
   67SAPC  C317 5678   2.069   6.133   3.903 -0.2764 -0.2184  0.0076
   67SAPC  H17X 5679   2.128   6.043   3.934  1.8336  0.9614 -0.3853
   67SAPC  H17Y 5680   2.010   6.103   3.814  0.2014 -0.1781 -0.3275
   67SAPC  C318 5681   1.986   6.178   4.025 -0.1320 -0.0465 -0.5641
   67SAPC  H18X 5682   2.054   6.195   4.111 -1.7702 -0.9339  0.9756
   67SAPC  H18Y 5683   1.912   6.102   4.059  0.5204 -0.2273  0.4933
   67SAPC  H18Z 5684   1.927   6.269   4.001  0.2320  0.6397  1.0018
   68SAPC     N 5685   0.791   0.332   1.761 -0.1233 -0.3994 -0.0252
   68SAPC   C12 5686   0.785   0.255   1.896 -0.3710  0.0972 -0.4162
   68SAPC  H12A 5687   0.693   0.199   1.902  0.2994 -0.9240  1.0404
   68SAPC  H12B 5688   0.772   0.325   1.977 -0.7122 -0.3486 -0.0784
   68SAPC   C13 5689   0.663   0.404   1.750 -0.0254 -0.0187 -0.0485
   68SAPC  H13A 5690   0.640   0.459   1.660  0.5027 -0.2690 -0.3380
   68SAPC  H13B 5691   0.585   0.329   1.751 -1.1727  1.1248  1.4658
   68SAPC  H13C 5692   0.643   0.468   1.835  1.3740  1.6550 -0.9015
   68SAPC   C14 5693   0.902   0.428   1.764 -1.1026 -0.1650  0.2889
   68SAPC  H14A 5694   0.998   0.380   1.777  0.0993  1.5286 -1.6876
   68SAPC  H14B 5695   0.918   0.483   1.672  1.7993  1.7362  1.7944
   68SAPC  H14C 5696   0.886   0.507   1.835 -0.7454 -1.2365  1.6035
   68SAPC   C15 5697   0.799   0.234   1.641 -0.5572 -0.0814  0.1482
   68SAPC  H15A 5698   0.891   0.179   1.642 -0.9510 -0.7423  0.9144
   68SAPC  H15B 5699   0.719   0.162   1.638 -1.3174  0.7443 -2.7564
   68SAPC  H15C 5700   0.797   0.297   1.553  0.1985 -0.0578  0.1473
   68SAPC   C11 5701   0.898   0.146   1.909  0.2345 -0.1992  0.5750
   68SAPC  H11A 5702   0.889   0.071   1.828  1.0481 -1.6539  1.7744
   68SAPC  H11B 5703   0.885   0.086   2.002  0.8397  0.7552  1.3022
   68SAPC     P 5704   1.097   0.251   2.054 -0.0928 -0.0388 -0.1631
   68SAPC   O13 5705   1.237   0.205   2.044 -0.4539  0.0297  0.4370
   68SAPC   O14 5706   1.084   0.396   2.075  0.0435 -0.3627  0.6056
   68SAPC   O12 5707   1.030   0.203   1.915 -0.1971  0.3857  0.3677
   68SAPC   O11 5708   1.016   0.174   2.170 -0.0365 -0.0841 -0.4969
   68SAPC    C1 5709   0.914   0.248   2.242  0.0714 -0.4487 -0.2577
   68SAPC    HA 5710   0.967   0.337   2.283 -0.5094  0.1565 -0.7881
   68SAPC    HB 5711   0.826   0.281   2.183 -0.5175 -0.3183  0.6781
   68SAPC    C2 5712   0.854   0.164   2.358  0.3955  0.4179  0.1028
   68SAPC    HS 5713   0.788   0.236   2.412  0.0585 -1.5120  2.4400
   68SAPC   O21 5714   0.960   0.117   2.444 -0.2061  0.1982  0.3575
   68SAPC   C21 5715   1.016   0.207   2.524  0.2320 -0.4045 -0.2752
   68SAPC   O22 5716   0.955   0.312   2.557  0.3855  0.4945  0.3211
   68SAPC   C22 5717   1.146   0.153   2.584  0.2674 -0.5700  0.9029
   68SAPC   H2R 5718   1.231   0.177   2.516 -0.4120 -1.0352 -0.1318
   68SAPC   H2S 5719   1.160   0.200   2.684  1.6762  1.1865 -0.0740
   68SAPC    C3 5720   0.767   0.045   2.313 -0.2486 -0.1873  0.5010
   68SAPC    HX 5721   0.829  -0.018   2.247  0.9792  0.7446  0.7347
   68SAPC    HY 5722   0.677   0.067   2.252 -0.5684 -0.6347  0.8051
   68SAPC   O31 5723   0.713  -0.032   2.426  0.0168 -0.3591 -0.4062
   68SAPC   C31 5724   0.792  -0.121   2.482 -0.0968 -0.8350 -0.2448
   68SAPC   O32 5725   0.901  -0.165   2.442 -0.0529 -0.2566 -0.3762
   68SAPC   C32 5726   0.721  -0.182   2.602 -0.4806  0.1302  0.0973
   68SAPC   H2X 5727   0.701  -0.291   2.594 -1.3893  0.2691  0.4115
   68SAPC   H2Y 5728   0.640  -0.116   2.638 -0.4904  0.5272 -0.6376
   68SAPC   C23 5729   1.141   0.003   2.620 -0.0663 -0.3099  0.2323
   68SAPC   H3R 5730   1.107  -0.058   2.533  0.1846 -0.0089 -0.0771
   68SAPC   H3S 5731   1.058  -0.009   2.692 -1.1810  0.1099 -0.9483
   68SAPC   C24 5732   1.269  -0.035   2.696  0.2308  0.3776 -0.0204
   68SAPC   H4R 5733   1.287   0.047   2.768  0.5026 -1.6163  2.3009
   68SAPC   H4S 5734   1.354  -0.045   2.624  1.0265 -0.2454  0.9818
   68SAPC   C25 5735   1.253  -0.172   2.759 -0.2823  0.1354  0.1457
   68SAPC   H5R 5736   1.265  -0.262   2.696  0.7377  0.5814 -0.3246
   68SAPC   C26 5737   1.247  -0.197   2.898  0.2294  0.2017 -0.0420
   68SAPC   H6R 5738   1.232  -0.298   2.940  0.1707  0.2850  0.1383
   68SAPC   C27 5739   1.250  -0.092   3.007 -0.0599 -0.4753  0.3570
   68SAPC   H7R 5740   1.162  -0.025   3.012  0.3897  0.0564  1.8106
   68SAPC   H7S 5741   1.329  -0.019   2.977 -1.8224  1.0303 -0.8726
   68SAPC   C28 5742   1.288  -0.144   3.139  0.0426 -0.1746 -0.7484
   68SAPC   H8R 5743   1.395  -0.171   3.136  0.1297  0.2187 -2.6004
   68SAPC   C29 5744   1.217  -0.154   3.254 -0.0395 -0.3641  0.4058
   68SAPC   H9R 5745   1.258  -0.199   3.345  0.4359  3.0079  2.0261
   68SAPC  C210 5746   1.069  -0.120   3.265 -0.0118 -0.5826 -0.3565
   68SAPC  H10R 5747   1.032  -0.196   3.336 -0.2347  1.5098  1.9202
   68SAPC  H10S 5748   1.010  -0.128   3.171 -1.9314 -3.5686  0.9567
   68SAPC  C211 5749   1.047   0.013   3.316 -0.6267 -1.3349  0.6426
   68SAPC  H11R 5750   1.121   0.089   3.287 -1.6586  0.2610  2.0191
   68SAPC  C212 5751   0.949   0.045   3.398  0.0848  0.2513  0.1438
   68SAPC  H12R 5752   0.930   0.152   3.416  1.4820  0.6046 -0.3744
   68SAPC  C213 5753   0.849  -0.051   3.452  0.5466 -0.1918  0.2867
   68SAPC  H13R 5754   0.898  -0.117   3.527  1.1289 -0.0493  0.0356
   68SAPC  H13S 5755   0.806  -0.115   3.372  2.2543  0.7278 -1.4388
   68SAPC  C214 5756   0.738   0.033   3.518 -0.2584  0.0063  0.2542
   68SAPC  H14R 5757   0.759   0.053   3.624  1.3553  0.4308 -0.1192
   68SAPC  C215 5758   0.627   0.082   3.458  0.4005  0.0848  0.0255
   68SAPC  H15R 5759   0.557   0.145   3.515  1.8136  3.1685 -1.4349
   68SAPC  C216 5760   0.587   0.073   3.315 -0.4879 -0.6267 -0.3243
   68SAPC  H16R 5761   0.674   0.080   3.246  0.8181 -0.7239  1.2525
   68SAPC  H16S 5762   0.527   0.161   3.284 -0.1359 -0.5209 -0.7078
   68SAPC  C217 5763   0.513  -0.057   3.297 -0.3734  0.7903 -0.3363
   68SAPC  H17R 5764   0.421  -0.040   3.357  0.3080 -2.5101  1.9202
   68SAPC  H17S 5765   0.562  -0.142   3.349 -0.2373  0.8328 -0.3952
   68SAPC  C218 5766   0.493  -0.079   3.146  0.4289  0.3774  0.0928
   68SAPC  H18R 5767   0.444  -0.179   3.133 -1.4428  1.4485 -1.7386
   68SAPC  H18S 5768   0.591  -0.095   3.097 -0.1575 -1.5428 -0.5492
   68SAPC  C219 5769   0.415   0.028   3.067 -0.1435  0.3102  0.8423
   68SAPC  H19R 5770   0.474   0.120   3.084 -1.0280  1.1542 -0.4198
   68SAPC  H19S 5771   0.307   0.039   3.091 -0.2470 -0.6937  0.8929
   68SAPC  C220 5772   0.413   0.003   2.911  0.1870  0.7180  0.4488
   68SAPC  H20R 5773   0.334   0.066   2.866 -0.3698 -0.4738 -0.2783
   68SAPC  H20S 5774   0.373  -0.099   2.892  0.9455  0.3908  0.5561
   68SAPC  H20T 5775   0.514   0.017   2.866  0.8945 -1.8893  1.0400
   68SAPC   C33 5776   0.820  -0.164   2.716  0.1333 -0.1748  0.8333
   68SAPC   H3X 5777   0.859  -0.060   2.720 -1.2952  0.5201 -1.7097
   68SAPC   H3Y 5778   0.911  -0.226   2.701  0.4638  0.1759  1.3362
   68SAPC   C34 5779   0.757  -0.214   2.856  0.1864 -0.0284  0.1409
   68SAPC   H4X 5780   0.718  -0.318   2.848  1.4276 -0.7910  2.7585
   68SAPC   H4Y 5781   0.675  -0.142   2.876 -1.4990 -2.1867  1.4695
   68SAPC   C35 5782   0.861  -0.205   2.963 -0.0668 -0.1897  0.2719
   68SAPC   H5X 5783   0.818  -0.157   3.054  1.4671  1.7512  0.0277
   68SAPC   H5Y 5784   0.938  -0.134   2.926 -0.0122  0.0376  0.8070
   68SAPC   C36 5785   0.921  -0.343   2.999  0.1915  0.5265  0.3452
   68SAPC   H6X 5786   1.006  -0.331   3.068 -0.0985 -1.9154  1.2180
   68SAPC   H6Y 5787   0.950  -0.397   2.906 -0.7088 -0.0245  0.3684
   68SAPC   C37 5788   0.826  -0.445   3.067  0.7168 -0.4521 -1.2111
   68SAPC   H7X 5789   0.872  -0.537   3.109 -1.8527 -1.0364  0.5477
   68SAPC   H7Y 5790   0.753  -0.483   2.994 -1.2034 -0.4415  0.6064
   68SAPC   C38 5791   0.758  -0.375   3.188  0.5376  0.2388  0.5681
   68SAPC   H8X 5792   0.688  -0.298   3.148  1.2532  0.0505 -1.1572
   68SAPC   H8Y 5793   0.829  -0.319   3.252 -0.7570  2.9785 -0.2362
   68SAPC   C39 5794   0.679  -0.482   3.270 -0.1254 -0.5919 -0.5134
   68SAPC   H9X 5795   0.758  -0.555   3.297 -0.5340 -0.1535  2.1627
   68SAPC   H9Y 5796   0.612  -0.543   3.206 -0.7146  0.2463 -0.7170
   68SAPC  C310 5797   0.605  -0.450   3.406 -0.9465 -0.5359  0.2883
   68SAPC  H10X 5798   0.510  -0.501   3.430  0.0045 -2.4157  0.2221
   68SAPC  H10Y 5799   0.562  -0.348   3.397  0.3975 -0.0185 -0.6058
   68SAPC  C311 5800   0.695  -0.444   3.535 -0.0341  0.1029  0.5894
   68SAPC  H11X 5801   0.786  -0.383   3.519 -0.5119  0.6652 -0.0934
   68SAPC  H11Y 5802   0.734  -0.544   3.564 -0.1582  0.0029  0.4208
   68SAPC  C312 5803   0.618  -0.396   3.663 -0.4867 -0.1129  0.4425
   68SAPC  H12X 5804   0.537  -0.468   3.686 -1.1812  1.0458  1.8256
   68SAPC  H12Y 5805   0.577  -0.294   3.650  2.7382  1.7550  3.0872
   68SAPC  C313 5806   0.723  -0.370   3.777  0.3454 -0.2723 -0.6014
   68SAPC  H13X 5807   0.775  -0.276   3.747  0.4179  0.2016  0.9508
   68SAPC  H13Y 5808   0.801  -0.448   3.788 -0.9818 -1.7485 -1.3956
   68SAPC  C314 5809   0.645  -0.348   3.911 -0.3397 -0.9445  0.3749
   68SAPC  H14X 5810   0.722  -0.334   3.989 -1.5337  2.8266  1.0462
   68SAPC  H14Y 5811   0.595  -0.444   3.935 -0.4012 -0.5574  1.8498
   68SAPC  C315 5812   0.557  -0.227   3.922 -0.4897 -0.0870  0.7357
   68SAPC  H15X 5813   0.509  -0.217   4.022  0.3401  0.4823  1.0861
   68SAPC  H15Y 5814   0.480  -0.222   3.841  0.8007 -0.6682 -0.5678
   68SAPC  C316 5815   0.637  -0.092   3.910  0.1243 -0.3199  0.1744
   68SAPC  H16X 5816   0.641  -0.081   3.799 -0.8891 -0.5834  0.1014
   68SAPC  H16Y 5817   0.743  -0.100   3.943  0.2951 -0.2461 -0.3385
   68SAPC  C317 5818   0.567   0.033   3.974  0.1218  0.3578 -0.3408
   68SAPC  H17X 5819   0.523   0.010   4.073 -1.0232  3.0419 -0.1366
   68SAPC  H17Y 5820   0.477   0.048   3.911 -1.2926  1.1617  1.7554
   68SAPC  C318 5821   0.648   0.166   3.981  0.1819  0.2216 -0.4899
   68SAPC  H18X 5822   0.652   0.214   3.881 -0.3382  2.4222  0.4820
   68SAPC  H18Y 5823   0.753   0.157   4.017  0.6335 -1.6467 -2.0888
   68SAPC  H18Z 5824   0.588   0.230   4.049 -2.3201 -1.7492 -0.6971
   69SAPC     N 5825   6.309   2.221   2.068  0.7990  0.0058 -0.6229
   69SAPC   C12 5826   6.280   2.311   2.190  0.1110  0.5949 -0.7493
   69SAPC  H12A 5827   6.224   2.253   2.262  0.7952 -0.9493 -1.4325
   69SAPC  H12B 5828   6.210   2.384   2.152  0.0271  0.9463  0.0534
   69SAPC   C13 5829   6.172   2.174   2.010  1.0121  0.4132 -0.2388
   69SAPC  H13A 5830   6.189   2.099   1.934  0.2143  0.0706 -0.0905
   69SAPC  H13B 5831   6.114   2.123   2.085  0.3908  0.0836 -0.9322
   69SAPC  H13C 5832   6.123   2.263   1.972  1.3247  0.8073  0.2826
   69SAPC   C14 5833   6.382   2.295   1.961 -0.0129  0.0150  0.2209
   69SAPC  H14A 5834   6.439   2.240   1.888  0.6830  2.9514 -1.6192
   69SAPC  H14B 5835   6.321   2.365   1.907  0.6560 -1.5875 -2.8623
   69SAPC  H14C 5836   6.451   2.360   2.014 -0.0104 -0.3826  0.7147
   69SAPC   C15 5837   6.396   2.109   2.102  0.7802  0.2664  0.4589
   69SAPC  H15A 5838   6.423   2.050   2.015  2.5969  1.7282 -0.0376
   69SAPC  H15B 5839   6.491   2.142   2.142  1.1088 -2.3413  2.0971
   69SAPC  H15C 5840   6.343   2.048   2.173 -3.0326  3.2301  0.4943
   69SAPC   C11 5841   6.400   2.381   2.259 -0.0334 -0.3473 -0.3327
   69SAPC  H11A 5842   6.463   2.307   2.313  1.0181  0.3598 -0.5654
   69SAPC  H11B 5843   6.346   2.448   2.330 -1.0537 -1.5919  0.1140
   69SAPC     P 5844   6.602   2.545   2.235 -0.1263 -0.2590 -0.4664
   69SAPC   O13 5845   6.702   2.442   2.261 -0.0426 -0.0546  0.4789
   69SAPC   O14 5846   6.640   2.646   2.133  0.6531 -0.9022  0.3041
   69SAPC   O12 5847   6.475   2.467   2.177  0.0548  0.2192  0.0461
   69SAPC   O11 5848   6.544   2.618   2.364  0.0633 -0.3874  0.3027
   69SAPC    C1 5849   6.564   2.570   2.500 -0.1142  0.4111 -0.7477
   69SAPC    HA 5850   6.468   2.557   2.555  1.2950 -0.7400  1.6353
   69SAPC    HB 5851   6.613   2.470   2.510 -0.0421  0.6281  1.5135
   69SAPC    C2 5852   6.639   2.677   2.587  0.4762 -0.2201  0.4809
   69SAPC    HS 5853   6.596   2.772   2.549 -1.4129 -0.9475  0.7121
   69SAPC   O21 5854   6.779   2.657   2.545  0.2155  0.3126  0.2681
   69SAPC   C21 5855   6.867   2.760   2.568  0.0040  0.6662  0.0499
   69SAPC   O22 5856   6.836   2.870   2.603 -0.3472 -0.5024 -1.1508
   69SAPC   C22 5857   7.011   2.724   2.545  0.2708 -0.4679  0.0002
   69SAPC   H2R 5858   7.020   2.614   2.556  1.4880 -0.4494 -0.6514
   69SAPC   H2S 5859   7.047   2.752   2.444 -1.3041 -2.5529 -1.2160
   69SAPC    C3 5860   6.625   2.664   2.737 -0.1011  0.6241  0.9140
   69SAPC    HX 5861   6.688   2.734   2.795  0.9852  2.4470 -2.1932
   69SAPC    HY 5862   6.664   2.562   2.757  0.1338  0.8916  1.8416
   69SAPC   O31 5863   6.485   2.678   2.774 -0.5956  0.1398  0.2719
   69SAPC   C31 5864   6.471   2.663   2.911 -0.4071 -0.2540  0.5410
   69SAPC   O32 5865   6.558   2.653   2.988  0.0085  0.1887 -0.8686
   69SAPC   C32 5866   6.318   2.666   2.935 -0.1405  0.2220 -0.0964
   69SAPC   H2X 5867   6.275   2.582   2.876  3.0264 -1.0398 -0.8311
   69SAPC   H2Y 5868   6.272   2.764   2.912  0.9259  1.1207  1.3317
   69SAPC   C23 5869   7.102   2.797   2.651 -0.3050  0.1318 -0.3456
   69SAPC   H3R 5870   7.089   2.906   2.636  1.2187  0.3974  0.1796
   69SAPC   H3S 5871   7.204   2.769   2.617 -0.7043 -0.8760 -0.7692
   69SAPC   C24 5872   7.077   2.759   2.801 -0.7453  0.5614  1.3991
   69SAPC   H4R 5873   7.071   2.649   2.813 -6.1228  0.4093 -0.0857
   69SAPC   H4S 5874   6.975   2.797   2.822 -0.3138  0.8451  3.2080
   69SAPC   C25 5875   7.185   2.800   2.897  0.5774  0.1105 -0.3453
   69SAPC   H5R 5876   7.259   2.726   2.932 -0.4321 -0.6060  0.3022
   69SAPC   C26 5877   7.197   2.927   2.949  0.0290  0.4370 -0.1780
   69SAPC   H6R 5878   7.288   2.953   3.006  0.7361  0.2672 -1.2129
   69SAPC   C27 5879   7.103   3.043   2.922 -0.7338 -0.3141 -0.0059
   69SAPC   H7R 5880   6.997   3.009   2.923 -0.7836 -0.1483  0.2523
   69SAPC   H7S 5881   7.116   3.090   2.821  1.7210 -0.9838 -0.0766
   69SAPC   C28 5882   7.118   3.157   3.025 -0.6132 -0.2447  0.4724
   69SAPC   H8R 5883   7.147   3.249   2.972 -0.2305 -1.0959 -0.8529
   69SAPC   C29 5884   7.101   3.155   3.157 -0.1649  0.3583 -0.5297
   69SAPC   H9R 5885   7.119   3.246   3.216 -0.5798 -1.2131  2.1829
   69SAPC  C210 5886   7.067   3.042   3.251  0.3116  0.4645  0.4867
   69SAPC  H10R 5887   7.070   2.945   3.197  1.8803 -0.2364  1.7433
   69SAPC  H10S 5888   6.965   3.063   3.290 -0.3799 -1.2983 -0.2766
   69SAPC  C211 5889   7.174   3.044   3.349  0.0055 -0.1401  0.0825
   69SAPC  H11R 5890   7.250   2.968   3.327  1.4816  1.0973  0.6994
   69SAPC  C212 5891   7.185   3.115   3.465  0.4845  0.3453 -0.0687
   69SAPC  H12R 5892   7.269   3.088   3.530  0.0963 -2.7560 -0.7338
   69SAPC  C213 5893   7.095   3.225   3.521  0.3990 -0.1264 -1.0012
   69SAPC  H13R 5894   7.012   3.259   3.456  0.4373 -0.5906 -1.2949
   69SAPC  H13S 5895   7.152   3.320   3.526  0.3569  0.0091 -2.6993
   69SAPC  C214 5896   7.039   3.214   3.665  0.6085 -0.5807  0.2459
   69SAPC  H14R 5897   6.930   3.223   3.668  0.4694 -1.6965 -0.8259
   69SAPC  C215 5898   7.105   3.207   3.781  0.4456  0.4941 -0.2581
   69SAPC  H15R 5899   7.039   3.203   3.869 -0.6391  0.1357 -1.0697
   69SAPC  C216 5900   7.252   3.210   3.805  0.0942 -0.2804  0.5160
   69SAPC  H16R 5901   7.294   3.276   3.727  0.3717 -0.1460  0.7745
   69SAPC  H16S 5902   7.296   3.108   3.802  1.2879  0.2254 -2.4169
   69SAPC  C217 5903   7.296   3.278   3.939  0.5740  0.1614 -0.7175
   69SAPC  H17R 5904   7.251   3.378   3.958 -0.3209 -0.4294  0.3560
   69SAPC  H17S 5905   7.406   3.291   3.923  0.8202 -0.9169  0.0420
   69SAPC  C218 5906   7.281   3.197   4.071  0.0036  0.2959 -1.0984
   69SAPC  H18R 5907   7.333   3.103   4.042  1.1479  0.4713  0.2606
   69SAPC  H18S 5908   7.172   3.185   4.086  0.3114 -1.0811  0.2127
   69SAPC  C219 5909   7.347   3.264   4.190 -0.1917 -0.7649  0.1262
   69SAPC  H19R 5910   7.314   3.370   4.178  1.8474  0.1309  1.7444
   69SAPC  H19S 5911   7.458   3.270   4.182 -0.1560 -1.5436 -0.0352
   69SAPC  C220 5912   7.306   3.211   4.328 -0.0599  0.7688  0.6166
   69SAPC  H20R 5913   7.330   3.279   4.413 -1.6225  0.2945  1.4680
   69SAPC  H20S 5914   7.358   3.113   4.327 -5.8038 -2.6917  0.0994
   69SAPC  H20T 5915   7.197   3.195   4.326 -0.0196  0.4069  1.1645
   69SAPC   C33 5916   6.287   2.649   3.084 -0.0678  0.4679 -0.3998
   69SAPC   H3X 5917   6.323   2.737   3.141 -4.0298  1.6875  0.5035
   69SAPC   H3Y 5918   6.343   2.562   3.125 -1.2775 -0.7428 -1.2290
   69SAPC   C34 5919   6.141   2.633   3.125  0.6038 -0.7807  0.4098
   69SAPC   H4X 5920   6.133   2.597   3.230  1.6469  0.6714  1.0237
   69SAPC   H4Y 5921   6.095   2.546   3.075  0.8950 -1.6074  1.5205
   69SAPC   C35 5922   6.054   2.764   3.109  0.0786  0.1049  0.7320
   69SAPC   H5X 5923   6.076   2.802   3.007  2.6511 -0.9466  0.8174
   69SAPC   H5Y 5924   6.098   2.837   3.181  1.7624  0.5756 -0.6914
   69SAPC   C36 5925   5.899   2.748   3.125 -0.2282 -0.1133 -0.4676
   69SAPC   H6X 5926   5.854   2.681   3.048  1.0886 -0.8570 -0.6183
   69SAPC   H6Y 5927   5.857   2.851   3.118 -0.2041 -0.1908 -2.0269
   69SAPC   C37 5928   5.853   2.699   3.269 -0.7450  0.5443  0.1603
   69SAPC   H7X 5929   5.917   2.609   3.286  0.2395  0.7021 -2.2583
   69SAPC   H7Y 5930   5.748   2.663   3.278  0.4780 -3.0592  1.8065
   69SAPC   C38 5931   5.892   2.794   3.381 -0.3261  0.1802  0.1686
   69SAPC   H8X 5932   5.853   2.897   3.366 -0.2851  0.5384  2.2976
   69SAPC   H8Y 5933   6.002   2.806   3.377 -0.6067  3.3908 -0.0692
   69SAPC   C39 5934   5.847   2.744   3.513 -0.1270  0.1924 -0.2478
   69SAPC   H9X 5935   5.849   2.633   3.511  3.2738  0.0526  2.4562
   69SAPC   H9Y 5936   5.742   2.774   3.536  0.5712 -0.2930  4.7531
   69SAPC  C310 5937   5.918   2.807   3.635 -0.6313  0.2983 -0.3599
   69SAPC  H10X 5938   5.916   2.918   3.634  3.4273  0.5169 -0.9740
   69SAPC  H10Y 5939   6.025   2.783   3.617 -0.7750 -0.3781 -0.3318
   69SAPC  C311 5940   5.888   2.735   3.776  0.0195 -0.0405  0.2323
   69SAPC  H11X 5941   5.907   2.626   3.770  1.0163  0.1164  0.3089
   69SAPC  H11Y 5942   5.783   2.756   3.806 -0.6081 -2.7789  0.2106
   69SAPC  C312 5943   5.974   2.789   3.891  0.1835  0.0582  0.8725
   69SAPC  H12X 5944   5.951   2.898   3.897 -0.7017 -0.0639 -0.0113
   69SAPC  H12Y 5945   6.080   2.778   3.859  0.1655  2.5410 -0.2896
   69SAPC  C313 5946   5.951   2.722   4.022 -0.6017  0.6535 -0.0211
   69SAPC  H13X 5947   5.944   2.613   4.001  0.7220  0.2042  1.6181
   69SAPC  H13Y 5948   5.857   2.752   4.075 -0.7929  0.3056 -0.1587
   69SAPC  C314 5949   6.064   2.730   4.121 -0.7742  0.1784 -0.4749
   69SAPC  H14X 5950   6.087   2.834   4.150 -1.1244 -0.2774  1.5806
   69SAPC  H14Y 5951   6.158   2.694   4.074 -1.2006  0.7897 -1.8405
   69SAPC  C315 5952   6.036   2.646   4.247 -0.4431 -0.0142 -0.4015
   69SAPC  H15X 5953   6.135   2.653   4.297 -0.4914 -1.9667  0.0627
   69SAPC  H15Y 5954   6.020   2.540   4.220 -0.6371  0.0465 -0.5298
   69SAPC  C316 5955   5.941   2.715   4.342  0.0799  0.3904  0.6856
   69SAPC  H16X 5956   5.843   2.663   4.336 -1.2991  2.8542  0.2056
   69SAPC  H16Y 5957   5.925   2.822   4.314  1.4950  1.3101  3.1197
   69SAPC  C317 5958   5.986   2.706   4.489  0.8879  0.1308 -0.0840
   69SAPC  H17X 5959   6.066   2.780   4.506  2.2431 -0.5690 -2.7628
   69SAPC  H17Y 5960   6.047   2.617   4.515  1.0923 -0.3551 -2.0559
   69SAPC  C318 5961   5.870   2.721   4.581 -0.0102 -0.1955  0.3920
   69SAPC  H18X 5962   5.817   2.816   4.560  0.7065  0.2035  0.3563
   69SAPC  H18Y 5963   5.906   2.723   4.686 -1.6214  0.1636  0.9709
   69SAPC  H18Z 5964   5.803   2.635   4.561  1.5988 -1.2433 -0.7125
   70SAPC     N 5965   6.165   2.981   1.870 -0.5081 -0.1517  0.9221
   70SAPC   C12 5966   6.119   3.000   2.014  0.2866  0.2753  0.0972
   70SAPC  H12A 5967   6.014   2.978   2.022  0.3091  0.7222  2.1111
   70SAPC  H12B 5968   6.128   3.105   2.039  0.8124  0.6583 -1.5373
   70SAPC   C13 5969   6.311   3.033   1.860  0.4670 -0.0017 -0.1990
   70SAPC  H13A 5970   6.354   3.019   1.762  0.4426 -1.0953 -0.0701
   70SAPC  H13B 5971   6.317   3.138   1.882 -0.0660  0.4021 -1.8220
   70SAPC  H13C 5972   6.378   2.991   1.934  1.3195  2.3430  0.4329
   70SAPC   C14 5973   6.170   2.835   1.835  0.6518 -0.0670  0.4203
   70SAPC  H14A 5974   6.074   2.789   1.816  0.3463  0.6579  0.1805
   70SAPC  H14B 5975   6.240   2.817   1.755  0.4976  0.9292  0.0446
   70SAPC  H14C 5976   6.217   2.786   1.919  0.3819 -0.4493  0.3559
   70SAPC   C15 5977   6.084   3.062   1.779  0.7727  0.0491  0.6141
   70SAPC  H15A 5978   6.079   3.156   1.831  1.0356  0.2847  0.2216
   70SAPC  H15B 5979   6.138   3.075   1.687  0.5900 -0.8187  0.3761
   70SAPC  H15C 5980   5.985   3.026   1.759 -0.8449  3.3874  1.8558
   70SAPC   C11 5981   6.192   2.911   2.120  0.7230 -0.1527 -0.4841
   70SAPC  H11A 5982   6.176   2.946   2.224  1.4696 -1.3973  0.0728
   70SAPC  H11B 5983   6.302   2.918   2.107  0.6229 -0.1453 -1.3880
   70SAPC     P 5984   6.029   2.718   2.202  0.5113 -0.2860  0.0549
   70SAPC   O13 5985   5.913   2.798   2.162  0.2846 -0.2228 -0.5187
   70SAPC   O14 5986   6.019   2.575   2.184 -0.2822 -0.4328  0.0378
   70SAPC   O12 5987   6.152   2.776   2.116  0.6536  0.3694 -0.1064
   70SAPC   O11 5988   6.058   2.756   2.355  0.3990 -0.1943 -0.2688
   70SAPC    C1 5989   6.180   2.718   2.404 -0.1075  0.0008 -0.3047
   70SAPC    HA 5990   6.192   2.608   2.391 -1.1874 -0.2282  0.5103
   70SAPC    HB 5991   6.262   2.769   2.349  0.3144 -0.8942 -0.5285
   70SAPC    C2 5992   6.194   2.740   2.555  0.8439  0.2450 -0.3006
   70SAPC    HS 5993   6.287   2.705   2.604 -0.3245  0.5010  2.2862
   70SAPC   O21 5994   6.081   2.676   2.621  0.0882  0.2752  0.3466
   70SAPC   C21 5995   6.087   2.541   2.627  0.0157 -0.1730 -0.1593
   70SAPC   O22 5996   6.179   2.475   2.576  0.0541  0.1868 -0.3739
   70SAPC   C22 5997   5.979   2.495   2.716 -0.0116  0.0729  0.0098
   70SAPC   H2R 5998   5.982   2.550   2.813 -0.3215  0.0258  0.0471
   70SAPC   H2S 5999   5.883   2.524   2.668  0.1271 -0.2589 -0.4733
   70SAPC    C3 6000   6.171   2.895   2.566 -0.1028  0.3410 -0.4665
   70SAPC    HX 6001   6.071   2.915   2.523 -0.4736  1.6741  0.9522
   70SAPC    HY 6002   6.250   2.935   2.500  0.4926  0.3095  0.2075
   70SAPC   O31 6003   6.186   2.943   2.702 -0.5383  0.1878 -0.3125
   70SAPC   C31 6004   6.085   2.986   2.769  0.4177  0.2464  0.2722
   70SAPC   O32 6005   5.967   2.983   2.736  0.3962 -0.3731  0.0872
   70SAPC   C32 6006   6.134   3.056   2.899 -0.1465 -0.0609  0.8863
   70SAPC   H2X 6007   6.206   3.138   2.877 -0.3103 -0.1114  0.1342
   70SAPC   H2Y 6008   6.184   2.981   2.963 -0.4368 -0.8930  0.1462
   70SAPC   C23 6009   5.992   2.344   2.745  0.1616  0.7521  0.2324
   70SAPC   H3R 6010   6.004   2.294   2.646 -0.1728  1.0034  0.0612
   70SAPC   H3S 6011   5.896   2.315   2.792 -0.6478  2.2106 -0.4309
   70SAPC   C24 6012   6.103   2.313   2.847  0.4085  0.1906  0.1052
   70SAPC   H4R 6013   6.077   2.356   2.946  3.8017 -0.6260  1.4944
   70SAPC   H4S 6014   6.202   2.358   2.824  1.1605 -1.0249  0.8629
   70SAPC   C25 6015   6.129   2.160   2.854 -1.3891  0.1602 -0.1966
   70SAPC   H5R 6016   6.209   2.122   2.789 -0.0771 -0.1024  1.4988
   70SAPC   C26 6017   6.101   2.088   2.962  0.6304 -0.0728  0.1975
   70SAPC   H6R 6018   6.139   1.985   2.968  0.5632 -0.2149 -1.4295
   70SAPC   C27 6019   6.028   2.125   3.087  0.0076 -0.8022 -0.4537
   70SAPC   H7R 6020   5.945   2.193   3.056  0.2685 -0.6865 -0.9078
   70SAPC   H7S 6021   6.086   2.201   3.145  0.4106  0.8626 -2.8764
   70SAPC   C28 6022   5.970   2.013   3.171 -0.9672  0.1409  0.1793
   70SAPC   H8R 6023   5.911   1.937   3.118 -3.9200  2.3373  0.0191
   70SAPC   C29 6024   5.990   1.993   3.300 -0.5751 -0.0144 -0.2305
   70SAPC   H9R 6025   5.945   1.905   3.348  1.3124  0.5301  2.7838
   70SAPC  C210 6026   6.066   2.081   3.403  0.0052 -0.5411  0.0460
   70SAPC  H10R 6027   6.150   2.147   3.371  0.2904 -0.7108  0.4422
   70SAPC  H10S 6028   6.121   2.020   3.478  2.0393 -0.3553 -1.1977
   70SAPC  C211 6029   5.970   2.163   3.484 -0.4088  0.3546  0.1818
   70SAPC  H11R 6030   5.872   2.118   3.507  0.2600 -0.7485  1.0220
   70SAPC  C212 6031   5.997   2.289   3.521 -0.2990  0.1955  0.4621
   70SAPC  H12R 6032   5.920   2.335   3.585 -0.1740  0.3591  0.4956
   70SAPC  C213 6033   6.122   2.367   3.517 -0.4071  0.2370  0.6736
   70SAPC  H13R 6034   6.128   2.395   3.410 -0.9753  1.6564  0.9801
   70SAPC  H13S 6035   6.205   2.296   3.537 -0.9169 -0.5312  0.0964
   70SAPC  C214 6036   6.122   2.494   3.601  0.4209 -0.6224  0.0371
   70SAPC  H14R 6037   6.069   2.580   3.557 -1.0073 -1.6619 -0.3730
   70SAPC  C215 6038   6.160   2.506   3.729  0.3960  0.0324 -0.8438
   70SAPC  H15R 6039   6.164   2.604   3.778 -0.4294 -0.8902  1.1795
   70SAPC  C216 6040   6.226   2.392   3.806  0.0034  0.1506  0.0763
   70SAPC  H16R 6041   6.259   2.305   3.745  0.4425 -0.9684  1.8259
   70SAPC  H16S 6042   6.152   2.350   3.877 -1.3637 -2.6479 -2.7734
   70SAPC  C217 6043   6.347   2.434   3.897  0.4895  0.1681  0.2768
   70SAPC  H17R 6044   6.374   2.343   3.955 -1.0827 -1.7025 -1.7501
   70SAPC  H17S 6045   6.320   2.514   3.970  0.4954  0.6773 -0.2669
   70SAPC  C218 6046   6.470   2.475   3.816  0.7788  0.3780  0.2198
   70SAPC  H18R 6047   6.431   2.555   3.749  0.9924  0.9848  0.8058
   70SAPC  H18S 6048   6.504   2.390   3.753 -2.0391  0.2306 -1.2982
   70SAPC  C219 6049   6.588   2.531   3.896 -0.7207 -0.3330 -0.5052
   70SAPC  H19R 6050   6.564   2.624   3.952  0.8856  0.3406 -0.8623
   70SAPC  H19S 6051   6.673   2.551   3.827 -1.7446  0.4720 -1.5632
   70SAPC  C220 6052   6.639   2.430   3.996 -0.1429  0.2542 -0.5368
   70SAPC  H20R 6053   6.571   2.398   4.078  0.6510  0.4472  0.2126
   70SAPC  H20S 6054   6.721   2.472   4.057 -0.9014  1.7065 -0.4773
   70SAPC  H20T 6055   6.661   2.341   3.934 -0.4528  0.2892 -0.7012
   70SAPC   C33 6056   6.023   3.121   2.983  0.0565  0.3330 -0.2459
   70SAPC   H3X 6057   5.957   3.042   3.022  1.5299 -0.5588  0.5491
   70SAPC   H3Y 6058   5.969   3.196   2.920 -0.8480  0.1859  0.3456
   70SAPC   C34 6059   6.094   3.190   3.102 -0.1266  0.6184  0.0376
   70SAPC   H4X 6060   6.084   3.300   3.096  0.5497  0.7980  1.5652
   70SAPC   H4Y 6061   6.202   3.177   3.079 -0.9372 -0.9800 -3.6532
   70SAPC   C35 6062   6.037   3.156   3.237 -0.4556  0.0327  0.3364
   70SAPC   H5X 6063   6.063   3.049   3.250 -0.1780 -0.0077 -0.5136
   70SAPC   H5Y 6064   5.929   3.178   3.245 -0.0296  3.0472 -0.8842
   70SAPC   C36 6065   6.091   3.243   3.362  1.0720  0.3215  0.7968
   70SAPC   H6X 6066   6.040   3.341   3.355  1.1664  0.3021 -0.2883
   70SAPC   H6Y 6067   6.202   3.243   3.365  1.0813  0.8753  0.5689
   70SAPC   C37 6068   6.058   3.190   3.495  0.7866 -0.4464 -0.3255
   70SAPC   H7X 6069   5.948   3.176   3.505  0.5618  2.0386  1.5109
   70SAPC   H7Y 6070   6.106   3.090   3.508  0.1502 -0.4630  2.4570
   70SAPC   C38 6071   6.097   3.292   3.607  0.4344  0.4720  0.2469
   70SAPC   H8X 6072   6.026   3.377   3.598  0.0458 -0.0281 -1.9457
   70SAPC   H8Y 6073   6.204   3.316   3.585  0.1695  0.4289 -1.2067
   70SAPC   C39 6074   6.100   3.228   3.749 -0.4577  0.0279 -0.1677
   70SAPC   H9X 6075   6.193   3.168   3.763  0.4663  0.6810 -2.9295
   70SAPC   H9Y 6076   6.019   3.151   3.749 -0.6674  0.2484  0.3720
   70SAPC  C310 6077   6.089   3.338   3.854  0.8547  0.6733  0.5382
   70SAPC  H10X 6078   5.982   3.370   3.855  1.2191  2.0600 -0.7543
   70SAPC  H10Y 6079   6.145   3.426   3.815  1.2480  0.6911  1.1283
   70SAPC  C311 6080   6.132   3.296   3.998 -0.1548  0.6357  0.8507
   70SAPC  H11X 6081   6.119   3.368   4.081 -1.1797  1.2434  0.1855
   70SAPC  H11Y 6082   6.241   3.278   3.987  0.0189  2.3870 -0.6930
   70SAPC  C312 6083   6.059   3.170   4.037 -0.7545  0.0682 -0.2135
   70SAPC  H12X 6084   6.122   3.104   4.100  0.6730  1.0830 -0.5544
   70SAPC  H12Y 6085   6.029   3.106   3.951 -1.0743  0.6089 -0.5102
   70SAPC  C313 6086   5.922   3.209   4.106  0.0185  0.3366 -0.1138
   70SAPC  H13X 6087   5.837   3.231   4.038 -0.7939  3.3154  1.6518
   70SAPC  H13Y 6088   5.933   3.303   4.166 -0.3027 -0.3864  1.1124
   70SAPC  C314 6089   5.875   3.096   4.203 -0.1550 -0.7258 -0.0840
   70SAPC  H14X 6090   5.965   3.090   4.268 -0.0872 -0.1172 -0.1178
   70SAPC  H14Y 6091   5.842   3.003   4.152  1.0852 -1.9406  1.2430
   70SAPC  C315 6092   5.752   3.135   4.289  0.3214 -0.5424 -0.8792
   70SAPC  H15X 6093   5.720   3.044   4.344  1.3884  1.7698  4.1675
   70SAPC  H15Y 6094   5.670   3.157   4.217 -1.5061 -1.5268  0.7991
   70SAPC  C316 6095   5.769   3.248   4.400 -0.1013  0.3167 -0.4174
   70SAPC  H16X 6096   5.698   3.233   4.484 -2.1322  0.5993 -2.0155
   70SAPC  H16Y 6097   5.734   3.345   4.357 -0.9252  1.2671  2.2063
   70SAPC  C317 6098   5.918   3.269   4.450  0.0867 -0.2350  0.4289
   70SAPC  H17X 6099   5.983   3.300   4.366  2.0462  0.2953  2.0600
   70SAPC  H17Y 6100   5.960   3.178   4.499 -0.6720 -1.7595 -1.6109
   70SAPC  C318 6101   5.933   3.394   4.539  0.0159  0.3000 -0.2845
   70SAPC  H18X 6102   5.848   3.421   4.605 -0.4799  1.2248 -1.2677
   70SAPC  H18Y 6103   5.934   3.478   4.466  2.7911  1.8506  1.3737
   70SAPC  H18Z 6104   6.028   3.401   4.596  0.7265  2.3758 -1.5966
   71SAPC     N 6105   6.766   5.899   2.137  0.6018 -0.9714 -0.2458
   71SAPC   C12 6106   6.902   5.954   2.155  0.5410 -0.0928  0.4001
   71SAPC  H12A 6107   6.910   6.009   2.248  1.2794  0.6956 -0.1091
   71SAPC  H12B 6108   6.914   6.036   2.085 -0.5002  0.1480  0.4887
   71SAPC   C13 6109   6.672   6.014   2.164  0.0168 -0.4716  0.2410
   71SAPC  H13A 6110   6.684   6.100   2.101  2.2576 -0.2153  0.9491
   71SAPC  H13B 6111   6.569   5.982   2.152 -0.4785  1.0406  0.1945
   71SAPC  H13C 6112   6.694   6.048   2.264 -3.2321 -1.9533  1.6412
   71SAPC   C14 6113   6.747   5.854   1.992  0.1014  0.0434 -0.1184
   71SAPC  H14A 6114   6.649   5.813   1.978 -0.7744  1.3974  1.5962
   71SAPC  H14B 6115   6.761   5.937   1.924  1.0535  1.0446  1.2360
   71SAPC  H14C 6116   6.825   5.783   1.968 -0.6537 -0.4036 -1.3153
   71SAPC   C15 6117   6.749   5.777   2.223 -0.6028 -0.7113 -0.0533
   71SAPC  H15A 6118   6.664   5.721   2.189 -0.8983  0.1412 -0.7576
   71SAPC  H15B 6119   6.835   5.712   2.217 -0.1593 -0.2925  1.4798
   71SAPC  H15C 6120   6.741   5.806   2.326  4.9047  2.5657 -0.1455
   71SAPC   C11 6121   7.025   5.865   2.134 -0.1444 -0.3547 -0.1840
   71SAPC  H11A 6122   7.037   5.793   2.219  0.7531  0.0967  0.0876
   71SAPC  H11B 6123   7.103   5.943   2.143 -1.1444  0.5559  0.9932
   71SAPC     P 6124   7.037   5.644   1.995 -0.1989  0.5697  0.1061
   71SAPC   O13 6125   6.945   5.601   1.890  0.0867 -0.0005 -0.7895
   71SAPC   O14 6126   7.177   5.595   1.976 -0.7297 -0.7258 -0.1461
   71SAPC   O12 6127   7.029   5.799   2.005  0.1379  0.0792  0.7931
   71SAPC   O11 6128   6.989   5.593   2.133 -0.2081  0.1139  0.1192
   71SAPC    C1 6129   6.893   5.485   2.147  0.0228  0.5944 -0.0152
   71SAPC    HA 6130   6.793   5.517   2.111 -0.0490  1.6605  1.0375
   71SAPC    HB 6131   6.933   5.396   2.094  3.5622  1.0790  1.5236
   71SAPC    C2 6132   6.887   5.430   2.298  0.6840 -0.7455 -0.3649
   71SAPC    HS 6133   6.827   5.337   2.288 -2.0787  0.6117  2.1203
   71SAPC   O21 6134   6.829   5.534   2.380  0.8818 -0.0617  0.9007
   71SAPC   C21 6135   6.766   5.500   2.492 -0.3746 -0.2142  0.7325
   71SAPC   O22 6136   6.721   5.389   2.521  0.3107 -0.5750 -0.0358
   71SAPC   C22 6137   6.781   5.622   2.580 -0.1117  0.5013  0.1879
   71SAPC   H2R 6138   6.878   5.672   2.558  1.3167 -1.5538  1.5077
   71SAPC   H2S 6139   6.695   5.686   2.548 -0.8563 -0.4017  0.3267
   71SAPC    C3 6140   7.025   5.388   2.351  0.1699 -0.5812  0.1152
   71SAPC    HX 6141   7.094   5.471   2.323 -2.6170  1.2978 -1.8442
   71SAPC    HY 6142   7.062   5.300   2.295  0.9542 -1.6041  2.1408
   71SAPC   O31 6143   7.018   5.355   2.491 -0.3930  0.1944 -0.2830
   71SAPC   C31 6144   6.978   5.225   2.519 -0.3586  0.2207 -0.3774
   71SAPC   O32 6145   6.987   5.133   2.438  0.2901  0.6331 -0.9331
   71SAPC   C32 6146   6.939   5.204   2.663  0.0742 -0.1221 -0.5550
   71SAPC   H2X 6147   6.828   5.197   2.665 -0.1596  2.6451  0.0544
   71SAPC   H2Y 6148   6.985   5.280   2.730  0.6171 -1.6366  0.8483
   71SAPC   C23 6149   6.785   5.591   2.731  0.8855 -0.0482  0.8915
   71SAPC   H3R 6150   6.877   5.535   2.757  0.5476 -0.6458  0.8121
   71SAPC   H3S 6151   6.697   5.525   2.747  1.8379 -1.3178  0.9716
   71SAPC   C24 6152   6.760   5.717   2.815  0.0422  0.3061  0.2646
   71SAPC   H4R 6153   6.749   5.681   2.919 -2.5760  0.8870  0.2610
   71SAPC   H4S 6154   6.668   5.765   2.775  1.0705  1.5708 -0.6568
   71SAPC   C25 6155   6.875   5.808   2.794  0.0077 -0.1778 -0.6054
   71SAPC   H5R 6156   6.909   5.809   2.690  1.5225 -1.1438 -0.1577
   71SAPC   C26 6157   6.937   5.890   2.880  0.0702  0.3257 -0.0244
   71SAPC   H6R 6158   7.029   5.948   2.866  0.6971 -0.5692  0.3187
   71SAPC   C27 6159   6.891   5.915   3.023  1.3220 -0.2370 -0.1667
   71SAPC   H7R 6160   6.784   5.886   3.033  1.0792  1.0545  1.4837
   71SAPC   H7S 6161   6.890   6.019   3.062  3.8560 -0.0918 -0.3362
   71SAPC   C28 6162   6.963   5.832   3.133  0.4412  0.5315  0.6630
   71SAPC   H8R 6163   7.068   5.805   3.121  0.7383  2.0595 -0.5317
   71SAPC   C29 6164   6.927   5.817   3.257  1.0156 -0.1945 -0.3916
   71SAPC   H9R 6165   6.993   5.774   3.333  0.9794  1.3455  0.5643
   71SAPC  C210 6166   6.796   5.864   3.312  0.2380 -0.7078 -0.0332
   71SAPC  H10R 6167   6.725   5.860   3.226  0.6502  0.2691 -0.4294
   71SAPC  H10S 6168   6.804   5.972   3.334  1.1487 -0.7334 -0.1764
   71SAPC  C211 6169   6.732   5.786   3.428 -0.5217  0.1195  0.2738
   71SAPC  H11R 6170   6.664   5.708   3.392 -0.5267 -0.0971  0.7382
   71SAPC  C212 6171   6.749   5.811   3.557 -0.5793 -0.4754  0.5919
   71SAPC  H12R 6172   6.698   5.744   3.628 -0.5938 -1.1272 -0.0316
   71SAPC  C213 6173   6.830   5.919   3.633 -0.1553 -0.0175 -1.3374
   71SAPC  H13R 6174   6.905   5.947   3.556 -1.4890  1.4847 -2.1617
   71SAPC  H13S 6175   6.890   5.875   3.715  1.3057  1.3429 -1.6224
   71SAPC  C214 6176   6.755   6.041   3.674 -0.4401 -0.4270 -0.5991
   71SAPC  H14R 6177   6.724   6.106   3.591  0.4163 -1.1564 -1.5125
   71SAPC  C215 6178   6.716   6.077   3.801  0.6948 -0.2642  0.5087
   71SAPC  H15R 6179   6.637   6.154   3.800 -0.4064 -1.3495  0.7077
   71SAPC  C216 6180   6.741   5.998   3.929 -0.2115  0.1379  0.0971
   71SAPC  H16R 6181   6.793   5.903   3.903 -0.7684  0.0654 -0.8058
   71SAPC  H16S 6182   6.657   5.954   3.987 -1.7677  0.7933 -1.5557
   71SAPC  C217 6183   6.823   6.087   4.021  0.0631  0.9329 -0.0247
   71SAPC  H17R 6184   6.914   6.115   3.964  1.6199 -1.1981  1.2405
   71SAPC  H17S 6185   6.868   6.023   4.100  2.0525 -0.0953 -1.8931
   71SAPC  C218 6186   6.763   6.214   4.082  0.5371 -0.2972  0.2403
   71SAPC  H18R 6187   6.731   6.296   4.014 -1.2655  0.8987  2.4077
   71SAPC  H18S 6188   6.842   6.270   4.137  0.8786 -1.6732  1.1776
   71SAPC  C219 6189   6.639   6.192   4.172 -0.7514 -0.0678  0.2883
   71SAPC  H19R 6190   6.555   6.161   4.106  1.5168 -1.6494 -2.0586
   71SAPC  H19S 6191   6.617   6.287   4.225 -1.9879  0.8974 -1.8394
   71SAPC  C220 6192   6.655   6.079   4.275 -0.6988 -0.1773  0.4515
   71SAPC  H20R 6193   6.587   6.079   4.362  0.7119 -0.1096  1.6038
   71SAPC  H20S 6194   6.757   6.090   4.320 -0.7516  0.0313  0.5230
   71SAPC  H20T 6195   6.647   5.978   4.231  0.0685 -0.1777  0.2942
   71SAPC   C33 6196   6.997   5.068   2.707  0.2083 -0.3028  0.2590
   71SAPC   H3X 6197   7.107   5.074   2.689  0.3683  0.9199  1.4547
   71SAPC   H3Y 6198   6.951   4.989   2.645  1.0479  1.1581 -2.4057
   71SAPC   C34 6199   6.994   5.034   2.858  0.5216 -0.0376  0.0184
   71SAPC   H4X 6200   6.890   5.005   2.886  0.8804  0.4124  1.9725
   71SAPC   H4Y 6201   7.028   5.120   2.918 -0.0289  0.9066 -0.9808
   71SAPC   C35 6202   7.079   4.909   2.891 -0.4702 -0.1193  0.3757
   71SAPC   H5X 6203   7.185   4.928   2.865 -0.9550  2.9382  0.3400
   71SAPC   H5Y 6204   7.064   4.831   2.813 -1.4627  0.9838 -0.5616
   71SAPC   C36 6205   7.070   4.853   3.035  0.0077 -0.7363 -0.6377
   71SAPC   H6X 6206   7.147   4.775   3.054 -0.0022 -0.4593  0.6312
   71SAPC   H6Y 6207   6.966   4.816   3.047 -0.3840  1.2445  3.7810
   71SAPC   C37 6208   7.083   4.967   3.144  0.1470  0.9531  0.2855
   71SAPC   H7X 6209   7.008   5.047   3.127 -0.1684  0.8899  1.3461
   71SAPC   H7Y 6210   7.182   5.017   3.134  1.7038 -1.7267  1.1884
   71SAPC   C38 6211   7.066   4.908   3.284  0.2159  0.0078 -0.1709
   71SAPC   H8X 6212   7.056   4.798   3.274 -0.2813 -0.0845  1.1491
   71SAPC   H8Y 6213   6.968   4.937   3.328 -1.0269 -3.1249 -0.5940
   71SAPC   C39 6214   7.183   4.946   3.374  0.4024  0.1103 -0.1267
   71SAPC   H9X 6215   7.215   5.049   3.347  1.2518  0.1616  1.0398
   71SAPC   H9Y 6216   7.265   4.878   3.342  1.8199  2.2082 -1.1668
   71SAPC  C310 6217   7.177   4.908   3.526  0.1894  0.8377 -0.2525
   71SAPC  H10X 6218   7.102   4.980   3.565 -1.9841 -1.0446 -0.7016
   71SAPC  H10Y 6219   7.273   4.926   3.578 -0.1490 -1.6418  1.3854
   71SAPC  C311 6220   7.112   4.768   3.547 -0.3271  0.2835 -1.0148
   71SAPC  H11X 6221   7.168   4.686   3.496  1.9245  0.5974  0.7717
   71SAPC  H11Y 6222   7.009   4.766   3.507 -0.9174  2.1025  0.3102
   71SAPC  C312 6223   7.097   4.726   3.691  0.1638  0.1193  0.9505
   71SAPC  H12X 6224   7.046   4.627   3.699  0.8841 -0.6481 -2.4149
   71SAPC  H12Y 6225   7.018   4.790   3.736 -0.9718 -0.9751  0.5801
   71SAPC  C313 6226   7.222   4.732   3.788  0.1057  0.2495 -0.1163
   71SAPC  H13X 6227   7.237   4.841   3.801  0.4877  0.2511 -0.5558
   71SAPC  H13Y 6228   7.308   4.675   3.746 -1.8214 -1.0296 -2.5926
   71SAPC  C314 6229   7.191   4.678   3.928 -0.1029  0.1084 -0.4414
   71SAPC  H14X 6230   7.147   4.577   3.917  0.7439 -0.1727 -1.3918
   71SAPC  H14Y 6231   7.122   4.751   3.975  1.5527  2.7061 -1.8213
   71SAPC  C315 6232   7.316   4.651   4.019 -0.0294  0.0018  0.6209
   71SAPC  H15X 6233   7.383   4.737   3.998 -1.1545 -0.0102 -4.2868
   71SAPC  H15Y 6234   7.369   4.562   3.977 -2.5377 -0.5710 -1.5861
   71SAPC  C316 6235   7.284   4.629   4.166  0.3928 -0.1462 -0.6126
   71SAPC  H16X 6236   7.204   4.703   4.186  1.2764  1.2199 -1.9933
   71SAPC  H16Y 6237   7.373   4.640   4.232  0.2045 -2.1748  0.0696
   71SAPC  C317 6238   7.211   4.492   4.187  0.0507 -0.6409 -0.1694
   71SAPC  H17X 6239   7.286   4.413   4.165 -0.2518 -2.0828  3.3993
   71SAPC  H17Y 6240   7.128   4.475   4.115  0.2555 -1.4479 -0.2215
   71SAPC  C318 6241   7.148   4.474   4.322  0.4108  0.2884 -0.7638
   71SAPC  H18X 6242   7.068   4.549   4.343 -0.7712 -1.0632 -0.3294
   71SAPC  H18Y 6243   7.218   4.488   4.407  0.4053 -0.8882 -0.5527
   71SAPC  H18Z 6244   7.117   4.368   4.329 -0.6993  0.2226 -4.3957
   72SAPC     N 6245   5.628   4.823   2.179  1.1241  0.7589 -0.7018
   72SAPC   C12 6246   5.724   4.909   2.253 -0.3119  0.2330  0.2108
   72SAPC  H12A 6247   5.681   5.008   2.262 -0.2895  0.2417  0.2207
   72SAPC  H12B 6248   5.813   4.928   2.196  0.7879 -1.2777  1.3353
   72SAPC   C13 6249   5.642   4.685   2.217 -0.3549 -0.5848  0.0123
   72SAPC  H13A 6250   5.744   4.657   2.197  0.1523  1.2885 -0.2406
   72SAPC  H13B 6251   5.626   4.678   2.324  0.0832 -1.8920  0.0063
   72SAPC  H13C 6252   5.572   4.620   2.166 -1.4800 -0.4108  1.2766
   72SAPC   C14 6253   5.490   4.855   2.210  0.2782 -0.2500  0.0429
   72SAPC  H14A 6254   5.482   4.962   2.198  2.8266 -0.0191 -0.0906
   72SAPC  H14B 6255   5.416   4.806   2.148  2.9569 -0.2366 -3.4720
   72SAPC  H14C 6256   5.462   4.831   2.312  1.8867 -0.1077  0.5485
   72SAPC   C15 6257   5.659   4.829   2.035  0.0481  0.4182  0.4785
   72SAPC  H15A 6258   5.760   4.795   2.017 -0.5897 -1.6636  0.5286
   72SAPC  H15B 6259   5.597   4.759   1.980  2.4347 -1.7282  0.3341
   72SAPC  H15C 6260   5.646   4.926   1.988 -1.2591 -1.6424 -4.0729
   72SAPC   C11 6261   5.765   4.876   2.407  0.9994 -0.6600  0.2706
   72SAPC  H11A 6262   5.816   4.965   2.450 -2.2627  0.7586  1.5898
   72SAPC  H11B 6263   5.833   4.788   2.401 -0.4113 -1.7051 -1.3969
   72SAPC     P 6264   5.552   4.968   2.536 -0.3790 -0.5977 -0.4294
   72SAPC   O13 6265   5.598   5.094   2.462  0.4878 -1.1348  0.0090
   72SAPC   O14 6266   5.412   4.913   2.532  0.4417  0.0624  0.4211
   72SAPC   O12 6267   5.651   4.855   2.490 -0.2268 -0.2707 -0.0146
   72SAPC   O11 6268   5.599   4.979   2.687 -0.7315  0.1219  0.1354
   72SAPC    C1 6269   5.594   4.846   2.766 -0.0155  0.2850 -0.0113
   72SAPC    HA 6270   5.492   4.830   2.807 -0.2982 -4.6507 -1.9594
   72SAPC    HB 6271   5.617   4.750   2.715  0.8606  0.1351  0.6511
   72SAPC    C2 6272   5.689   4.859   2.887  0.4788  0.4803 -0.0021
   72SAPC    HS 6273   5.702   4.755   2.922 -2.9883  0.4256  1.6186
   72SAPC   O21 6274   5.616   4.934   2.995 -0.1790  0.0464 -0.4127
   72SAPC   C21 6275   5.660   4.906   3.120 -0.2588  0.0598 -0.8703
   72SAPC   O22 6276   5.723   4.810   3.162  0.3251  0.1001  0.1099
   72SAPC   C22 6277   5.599   5.008   3.226 -0.1516  0.0962 -0.0705
   72SAPC   H2R 6278   5.604   5.110   3.182  0.5970  1.1073  2.1798
   72SAPC   H2S 6279   5.491   4.981   3.229 -0.3855  0.7374 -1.7503
   72SAPC    C3 6280   5.826   4.925   2.841 -0.1895  0.9284 -0.0740
   72SAPC    HX 6281   5.809   5.030   2.808 -0.5212  0.2051 -2.3506
   72SAPC    HY 6282   5.857   4.874   2.747 -2.7524 -2.9019  0.8952
   72SAPC   O31 6283   5.926   4.912   2.947 -0.5774  0.0131 -0.5686
   72SAPC   C31 6284   5.985   4.792   2.962 -0.4849  0.5684  0.1909
   72SAPC   O32 6285   5.951   4.688   2.918  0.1309  0.4183 -0.3909
   72SAPC   C32 6286   6.106   4.801   3.044 -0.1628 -0.3015 -0.7783
   72SAPC   H2X 6287   6.185   4.867   3.002 -0.3978  0.1422 -0.5251
   72SAPC   H2Y 6288   6.135   4.695   3.062  0.0614  0.1464  1.8770
   72SAPC   C23 6289   5.663   5.021   3.368  0.3684 -0.5030  0.0793
   72SAPC   H3R 6290   5.773   5.034   3.358  0.4136 -0.6477  0.3907
   72SAPC   H3S 6291   5.635   4.938   3.437 -1.6194  2.1470  2.6888
   72SAPC   C24 6292   5.600   5.143   3.443  0.2523 -0.4601  0.1523
   72SAPC   H4R 6293   5.489   5.137   3.442  0.2776 -0.9658  0.3707
   72SAPC   H4S 6294   5.618   5.213   3.359 -0.7976 -1.2623 -0.7637
   72SAPC   C25 6295   5.668   5.175   3.577  0.2177  1.2245 -0.0838
   72SAPC   H5R 6296   5.773   5.208   3.572  0.5808  0.1010 -0.3218
   72SAPC   C26 6297   5.624   5.148   3.702  0.0142  0.5340  0.0748
   72SAPC   H6R 6298   5.688   5.182   3.784  2.2808  0.2882 -1.4948
   72SAPC   C27 6299   5.490   5.085   3.743 -0.0591  0.2308 -0.3830
   72SAPC   H7R 6300   5.517   4.980   3.770 -0.6919  0.2963  0.5335
   72SAPC   H7S 6301   5.428   5.078   3.651  1.0918 -0.7932 -1.1069
   72SAPC   C28 6302   5.413   5.154   3.851 -0.3144 -0.3909  0.0564
   72SAPC   H8R 6303   5.374   5.255   3.833  1.3141  0.3240  0.3472
   72SAPC   C29 6304   5.397   5.108   3.971 -0.4988 -0.1039  0.3609
   72SAPC   H9R 6305   5.330   5.169   4.034 -2.1927  1.0403 -2.3820
   72SAPC  C210 6306   5.455   4.978   4.033  0.1530  0.3099 -0.0577
   72SAPC  H10R 6307   5.537   4.934   3.972  0.0240 -0.4133  0.2756
   72SAPC  H10S 6308   5.373   4.902   4.031 -1.0182  1.5335 -1.6217
   72SAPC  C211 6309   5.524   5.002   4.170  0.1920 -0.4275  0.0726
   72SAPC  H11R 6310   5.619   5.056   4.161  1.1274 -2.0815 -0.4269
   72SAPC  C212 6311   5.472   4.977   4.293 -0.0472  0.3008  0.0437
   72SAPC  H12R 6312   5.531   4.971   4.386  0.2195 -2.1381 -0.2245
   72SAPC  C213 6313   5.339   4.901   4.309 -0.6938 -0.1323 -0.6586
   72SAPC  H13R 6314   5.268   4.899   4.223 -0.2818 -0.7624 -0.9915
   72SAPC  H13S 6315   5.292   4.945   4.399 -0.2100  0.2470 -0.5884
   72SAPC  C214 6316   5.377   4.755   4.343  0.0079  0.0084  0.3762
   72SAPC  H14R 6317   5.461   4.713   4.286  0.0269  1.6893 -0.9381
   72SAPC  C215 6318   5.343   4.689   4.454 -0.7977  0.0018 -0.1650
   72SAPC  H15R 6319   5.381   4.587   4.471  1.1700  0.7085 -0.1170
   72SAPC  C216 6320   5.267   4.742   4.570 -0.5492 -0.4658  0.3210
   72SAPC  H16R 6321   5.202   4.665   4.617 -2.6797  0.5323 -0.8857
   72SAPC  H16S 6322   5.196   4.818   4.532 -0.3260  0.0851  0.9791
   72SAPC  C217 6323   5.376   4.796   4.669 -0.2382 -0.0469  0.1964
   72SAPC  H17R 6324   5.329   4.867   4.740 -0.0084  1.8824 -1.4895
   72SAPC  H17S 6325   5.456   4.846   4.612  0.7980 -1.2151  0.5831
   72SAPC  C218 6326   5.451   4.689   4.751  0.4025 -0.2459 -0.5788
   72SAPC  H18R 6327   5.554   4.720   4.777 -0.3732  1.7720  0.2646
   72SAPC  H18S 6328   5.468   4.603   4.683  0.5525  0.8999 -2.0559
   72SAPC  C219 6329   5.387   4.645   4.880  0.8458  0.0232 -0.5176
   72SAPC  H19R 6330   5.293   4.593   4.850  0.6378 -2.1573  3.3119
   72SAPC  H19S 6331   5.361   4.724   4.954  1.0447 -1.1819  0.8861
   72SAPC  C220 6332   5.464   4.538   4.953  0.0624 -0.3038 -0.0351
   72SAPC  H20R 6333   5.413   4.509   5.047 -0.5011 -0.4486 -0.3849
   72SAPC  H20S 6334   5.563   4.584   4.974 -0.7477  1.8974 -0.8266
   72SAPC  H20T 6335   5.477   4.454   4.881 -0.3298  0.0883 -0.5690
   72SAPC   C33 6336   6.065   4.866   3.190  0.2666  0.4950 -0.1926
   72SAPC   H3X 6337   6.001   4.794   3.246  0.0442  0.3548 -0.6162
   72SAPC   H3Y 6338   6.003   4.955   3.166 -0.2720  0.4707  1.0835
   72SAPC   C34 6339   6.189   4.914   3.264 -0.1059 -0.1594  0.3530
   72SAPC   H4X 6340   6.229   5.004   3.213  1.3991  0.5215  2.5944
   72SAPC   H4Y 6341   6.264   4.833   3.260 -0.1133 -0.1843  0.6897
   72SAPC   C35 6342   6.146   4.956   3.403 -0.3705  0.7781  0.6147
   72SAPC   H5X 6343   6.100   4.876   3.465 -0.2435  1.4630  1.6101
   72SAPC   H5Y 6344   6.068   5.031   3.374 -1.6850 -1.4658 -2.1321
   72SAPC   C36 6345   6.240   5.035   3.483 -0.1397  0.7727  0.2242
   72SAPC   H6X 6346   6.265   5.130   3.432 -0.6187  0.7995  0.0408
   72SAPC   H6Y 6347   6.331   4.970   3.477 -0.8606 -0.2255 -0.1082
   72SAPC   C37 6348   6.192   5.073   3.619  0.6769  0.1195 -0.1464
   72SAPC   H7X 6349   6.146   4.986   3.670  0.0293  1.3194  1.3745
   72SAPC   H7Y 6350   6.120   5.157   3.616  1.1789  0.5742  0.3150
   72SAPC   C38 6351   6.308   5.124   3.703 -0.8110  0.1396 -0.1110
   72SAPC   H8X 6352   6.374   5.187   3.640 -0.6080 -0.8530 -0.9139
   72SAPC   H8Y 6353   6.355   5.027   3.732  2.1264  1.3829 -0.4086
   72SAPC   C39 6354   6.278   5.206   3.828  0.3465  0.4635 -0.5724
   72SAPC   H9X 6355   6.226   5.301   3.804  1.7967  1.9515  1.7011
   72SAPC   H9Y 6356   6.372   5.232   3.881  0.5045  0.4639 -0.8554
   72SAPC  C310 6357   6.184   5.129   3.928 -0.0064  0.4580  0.1949
   72SAPC  H10X 6358   6.211   5.022   3.944 -0.1945  0.4979  0.7814
   72SAPC  H10Y 6359   6.077   5.128   3.898  0.1218  0.0129 -0.2569
   72SAPC  C311 6360   6.181   5.203   4.064 -0.9590 -0.8118 -0.4212
   72SAPC  H11X 6361   6.212   5.306   4.037 -0.3477 -0.6092  0.9628
   72SAPC  H11Y 6362   6.265   5.159   4.122 -2.1836 -3.2228 -0.3840
   72SAPC  C312 6363   6.043   5.195   4.132  0.2408 -0.2879 -0.5413
   72SAPC  H12X 6364   5.985   5.232   4.045  1.3268 -0.5593 -1.3988
   72SAPC  H12Y 6365   6.035   5.254   4.226 -0.9842 -3.7601  1.7191
   72SAPC  C313 6366   5.993   5.055   4.170 -0.0555  0.1969  0.1824
   72SAPC  H13X 6367   6.005   4.991   4.080  1.4267  1.0545 -0.2670
   72SAPC  H13Y 6368   5.884   5.057   4.191 -0.2574  1.3683 -0.8851
   72SAPC  C314 6369   6.065   4.994   4.294  0.1207 -0.1345  0.7946
   72SAPC  H14X 6370   6.042   5.064   4.378 -2.2909  0.4009 -0.2140
   72SAPC  H14Y 6371   6.169   5.001   4.257  0.2119  1.2818  1.2708
   72SAPC  C315 6372   6.026   4.847   4.325 -0.2161 -0.1389 -0.0633
   72SAPC  H15X 6373   6.046   4.784   4.235 -0.5515  2.0291 -1.7565
   72SAPC  H15Y 6374   5.920   4.840   4.358 -0.1522  1.2106  0.4915
   72SAPC  C316 6375   6.121   4.798   4.438  0.2118 -1.1750  0.8898
   72SAPC  H16X 6376   6.221   4.828   4.402 -0.6152  0.3613 -0.2729
   72SAPC  H16Y 6377   6.119   4.687   4.434  3.0717 -1.2628 -0.2555
   72SAPC  C317 6378   6.095   4.869   4.572 -0.2391 -0.3502  0.1770
   72SAPC  H17X 6379   5.985   4.872   4.590 -0.3165  0.1283 -0.3437
   72SAPC  H17Y 6380   6.119   4.977   4.567 -3.0950  0.3333 -0.8588
   72SAPC  C318 6381   6.165   4.793   4.695 -1.5907 -0.1365  1.1976
   72SAPC  H18X 6382   6.273   4.781   4.671 -1.3911  1.2646  1.3056
   72SAPC  H18Y 6383   6.124   4.690   4.702 -0.1456 -1.1818 -2.9706
   72SAPC  H18Z 6384   6.152   4.847   4.791 -1.6249  0.8833  0.6329
   73SLPC     N 6385   6.401   1.318   7.064  0.3861 -0.2409  0.1345
   73SLPC   C13 6386   6.545   1.294   7.089 -0.2350 -0.3222 -0.0440
   73SLPC  H13A 6387   6.592   1.221   7.025  0.9032 -0.2200  0.6444
   73SLPC  H13B 6388   6.591   1.390   7.071  0.2171 -0.0493  2.2374
   73SLPC  H13C 6389   6.555   1.265   7.192 -0.6430  0.0631  0.1067
   73SLPC   C14 6390   6.360   1.422   7.171 -0.6593  0.1009  0.2575
   73SLPC  H14A 6391   6.258   1.455   7.181 -0.1322  2.2156 -0.7745
   73SLPC  H14B 6392   6.396   1.390   7.268  0.5221 -2.4115 -0.9115
   73SLPC  H14C 6393   6.417   1.512   7.151 -1.2825  0.4057 -0.1658
   73SLPC   C15 6394   6.310   1.199   7.078 -0.8602 -0.1048 -0.3258
   73SLPC  H15A 6395   6.207   1.221   7.056 -0.4444  1.9775 -0.3909
   73SLPC  H15B 6396   6.339   1.121   7.009  0.5044  0.6466 -0.6523
   73SLPC  H15C 6397   6.315   1.154   7.176  1.8349 -2.2278 -1.3115
   73SLPC   C12 6398   6.377   1.385   6.931  0.1017  0.7287 -0.5162
   73SLPC  H12A 6399   6.443   1.469   6.918  2.8461 -1.3365 -1.0335
   73SLPC  H12B 6400   6.274   1.418   6.928 -0.3107 -0.2472 -5.0787
   73SLPC   C11 6401   6.381   1.300   6.794 -0.1270 -0.1274 -0.0076
   73SLPC  H11A 6402   6.477   1.246   6.808 -0.5846 -1.0467 -0.3192
   73SLPC  H11B 6403   6.381   1.365   6.705 -0.4896  0.9376  0.7482
   73SLPC     P 6404   6.147   1.223   6.704  0.4492 -0.3735 -0.0511
   73SLPC   O13 6405   6.051   1.117   6.732 -0.0620 -0.5562 -0.2557
   73SLPC   O14 6406   6.097   1.353   6.759  0.5345 -0.3158  0.3519
   73SLPC   O12 6407   6.282   1.199   6.782  0.2620  0.2603  0.4246
   73SLPC   O11 6408   6.182   1.230   6.552  0.2403 -0.1766  0.1382
   73SLPC    C1 6409   6.275   1.134   6.495  0.1180 -0.3412 -0.1449
   73SLPC    HA 6410   6.346   1.104   6.575 -0.7887 -0.1359  0.7627
   73SLPC    HB 6411   6.213   1.045   6.471 -2.8152  1.5535 -0.1834
   73SLPC    C2 6412   6.346   1.198   6.368 -0.9602  0.7522  0.3606
   73SLPC    HS 6413   6.404   1.286   6.404  2.0542 -1.3479  1.0323
   73SLPC   O21 6414   6.237   1.219   6.271  0.3621  0.1295  0.2665
   73SLPC   C21 6415   6.181   1.339   6.290 -0.3199  1.0484  0.1038
   73SLPC   O22 6416   6.238   1.438   6.341 -0.9318  0.8175  0.0454
   73SLPC   C22 6417   6.045   1.339   6.233 -0.1308 -0.2150  0.5330
   73SLPC   H2R 6418   5.994   1.240   6.243  2.1102 -1.6265 -1.0516
   73SLPC   H2S 6419   5.985   1.413   6.289 -0.8455 -1.2070  1.1190
   73SLPC    C3 6420   6.457   1.101   6.307  0.0126  0.6378  0.2793
   73SLPC    HX 6421   6.415   0.999   6.288  3.4225 -0.9819  0.6426
   73SLPC    HY 6422   6.533   1.104   6.388 -0.4655  0.4274  0.7450
   73SLPC   O31 6423   6.506   1.155   6.180  0.6184  0.0172 -0.5234
   73SLPC   C31 6424   6.625   1.105   6.146  0.9958  0.3088 -0.3956
   73SLPC   O32 6425   6.685   1.030   6.218  0.2868 -0.6135  0.0083
   73SLPC   C32 6426   6.674   1.155   6.010 -0.7624 -0.0617  0.1905
   73SLPC   H2X 6427   6.768   1.099   5.988  0.7095  1.4809  2.1249
   73SLPC   H2Y 6428   6.686   1.265   6.021  0.7776  0.1526 -2.5766
   73SLPC   C23 6429   6.044   1.390   6.090 -0.1809 -0.2348  0.6653
   73SLPC   H3R 6430   6.118   1.472   6.082  0.0718 -0.2790  2.2747
   73SLPC   H3S 6431   5.946   1.434   6.061 -0.5130  1.6065  4.0096
   73SLPC   C24 6432   6.069   1.269   5.993  0.0121 -0.4754 -0.5803
   73SLPC   H4R 6433   6.008   1.181   6.023 -1.5175  1.0296  0.9350
   73SLPC   H4S 6434   6.178   1.246   5.998 -0.2621 -1.9353 -0.6464
   73SLPC   C25 6435   6.034   1.314   5.848 -0.9737  0.5276  0.0493
   73SLPC   H5R 6436   6.107   1.386   5.806  0.0006 -1.2408 -1.4549
   73SLPC   H5S 6437   5.931   1.355   5.845 -1.5298 -0.6830  1.2467
   73SLPC   C26 6438   6.030   1.192   5.754 -0.4049  0.0051  0.7895
   73SLPC   H6R 6439   5.993   1.239   5.660  0.1515  0.0129  0.5696
   73SLPC   H6S 6440   5.971   1.107   5.793  2.5444 -2.1173  0.9494
   73SLPC   C27 6441   6.176   1.146   5.721 -0.3046 -0.0605  0.2165
   73SLPC   H7R 6442   6.231   1.109   5.811  0.8217 -2.7047 -1.4291
   73SLPC   H7S 6443   6.224   1.233   5.672  0.5439 -1.5310 -1.6766
   73SLPC   C28 6444   6.169   1.033   5.615 -0.5422  0.1336  0.2068
   73SLPC   H8R 6445   6.103   1.067   5.533  1.3511 -1.2282 -2.0140
   73SLPC   H8S 6446   6.133   0.937   5.660 -0.9071  0.0606 -0.2359
   73SLPC   C29 6447   6.305   1.001   5.562  0.3695  0.1102 -0.5951
   73SLPC   H9R 6448   6.386   0.997   5.636 -0.7636  0.8186  0.7160
   73SLPC  C210 6449   6.343   1.006   5.428 -0.4370  0.6127  0.2301
   73SLPC  H10R 6450   6.444   0.967   5.408 -0.6603 -0.2520  0.6917
   73SLPC  C211 6451   6.248   1.025   5.314  0.3958  0.0414 -0.0164
   73SLPC  H11R 6452   6.158   0.960   5.322  0.8802 -0.8804 -1.6132
   73SLPC  H11S 6453   6.299   0.979   5.227 -0.0287 -0.8433  0.1881
   73SLPC  C212 6454   6.216   1.167   5.280 -0.1335  0.1232 -0.1012
   73SLPC  H12R 6455   6.219   1.231   5.370 -3.1852  0.0962  0.1317
   73SLPC  C213 6456   6.160   1.222   5.171  0.2978 -1.0021 -0.2155
   73SLPC  H13R 6457   6.146   1.331   5.168 -0.8582 -1.1178  0.2001
   73SLPC  C214 6458   6.115   1.156   5.046 -0.6082  0.2840 -0.1082
   73SLPC  H14R 6459   6.005   1.139   5.038 -0.2497 -1.8799 -1.0199
   73SLPC  H14S 6460   6.165   1.057   5.040  0.1740  0.7561 -2.0562
   73SLPC  C215 6461   6.172   1.219   4.918  0.0420  0.4954 -0.0894
   73SLPC  H15R 6462   6.282   1.205   4.929 -0.1177 -1.5937 -0.6730
   73SLPC  H15S 6463   6.151   1.327   4.901  0.4829  0.5687 -0.1797
   73SLPC  C216 6464   6.125   1.139   4.790 -0.1644 -0.1560  0.1533
   73SLPC  H16R 6465   6.186   1.164   4.701  1.4381  1.2694  1.5675
   73SLPC  H16S 6466   6.019   1.164   4.767  0.2182  2.6097  0.9949
   73SLPC  C217 6467   6.115   0.990   4.801 -0.4773  0.0061 -0.5955
   73SLPC  H17R 6468   6.038   0.957   4.873  2.2025 -1.8919  1.6341
   73SLPC  H17S 6469   6.200   0.944   4.857 -1.2421 -0.4190  0.2392
   73SLPC  C218 6470   6.100   0.920   4.664  0.0566 -0.1736 -0.9201
   73SLPC  H18R 6471   6.022   0.969   4.603  0.2201  0.7302 -0.4191
   73SLPC  H18S 6472   6.094   0.811   4.686  1.5877  0.2352  2.0672
   73SLPC  H18T 6473   6.193   0.945   4.608 -0.5525  1.6555 -1.1919
   73SLPC   C33 6474   6.585   1.137   5.883  0.2323  0.3168 -0.2209
   73SLPC   H3X 6475   6.480   1.141   5.919  0.8061 -0.8076  1.6832
   73SLPC   H3Y 6476   6.603   1.035   5.844  3.1875 -0.5998  2.9931
   73SLPC   C34 6477   6.604   1.242   5.782 -0.1954 -0.1979  0.1643
   73SLPC   H4X 6478   6.577   1.338   5.832 -0.3638 -0.3204  0.3067
   73SLPC   H4Y 6479   6.516   1.238   5.714 -1.4944  0.6188  1.7372
   73SLPC   C35 6480   6.748   1.239   5.714  0.3174  0.0853  0.1912
   73SLPC   H5X 6481   6.824   1.217   5.792 -0.5141  0.0178  1.0021
   73SLPC   H5Y 6482   6.765   1.342   5.674 -2.5420  0.0700 -1.2928
   73SLPC   C36 6483   6.765   1.140   5.599  0.1706  0.2891  0.4102
   73SLPC   H6X 6484   6.698   1.166   5.515  1.4678 -0.5799 -0.9437
   73SLPC   H6Y 6485   6.731   1.041   5.637 -2.5518  1.3223  0.8713
   73SLPC   C37 6486   6.915   1.130   5.542 -0.1627  0.6438  0.3282
   73SLPC   H7X 6487   6.909   1.044   5.472 -0.3083 -0.6458  1.8881
   73SLPC   H7Y 6488   6.991   1.107   5.619  1.0108 -1.4911 -1.3681
   73SLPC   C38 6489   6.967   1.229   5.441 -0.4670 -0.3066  0.5708
   73SLPC   H8X 6490   7.078   1.226   5.437 -0.3266  2.3843  0.5876
   73SLPC   H8Y 6491   6.949   1.333   5.475  0.3921  0.0193  0.0786
   73SLPC   C39 6492   6.909   1.217   5.303  0.2481  0.3755 -0.3731
   73SLPC   H9X 6493   6.801   1.193   5.299  0.7010 -1.8543 -0.4826
   73SLPC   H9Y 6494   6.954   1.124   5.264 -0.2037  0.7213 -1.8017
   73SLPC  C310 6495   6.961   1.316   5.196 -0.6945  0.6722 -0.3359
   73SLPC  H10X 6496   7.068   1.302   5.173 -0.7519 -0.5456  0.0965
   73SLPC  H10Y 6497   6.946   1.416   5.243  1.0725  1.4986 -1.4388
   73SLPC  C311 6498   6.867   1.306   5.079  0.0290 -0.7806 -0.3161
   73SLPC  H11X 6499   6.860   1.199   5.049  0.8959 -0.9939  0.2180
   73SLPC  H11Y 6500   6.919   1.356   4.995 -1.0141 -1.2553 -1.2714
   73SLPC  C312 6501   6.744   1.385   5.100  0.7877  0.0062 -0.4371
   73SLPC  H12X 6502   6.772   1.491   5.118  1.9139 -0.8380  3.9436
   73SLPC  H12Y 6503   6.690   1.352   5.191  2.9811  0.7890  1.2657
   73SLPC  C313 6504   6.654   1.383   4.972  0.4811 -0.2052  0.0914
   73SLPC  H13X 6505   6.556   1.429   4.996 -0.3502 -0.2968 -2.8340
   73SLPC  H13Y 6506   6.638   1.273   4.966 -0.7174 -0.0008 -0.7482
   73SLPC  C314 6507   6.720   1.437   4.851  0.7914 -0.0491  0.4577
   73SLPC  H14X 6508   6.805   1.368   4.833  2.3980  1.7654  0.8832
   73SLPC  H14Y 6509   6.767   1.536   4.865  3.9786 -1.4314  0.4946
   73SLPC  C315 6510   6.625   1.421   4.720  0.8411  0.2155 -0.8580
   73SLPC  H15X 6511   6.558   1.336   4.745  0.1403  1.4793  1.9321
   73SLPC  H15Y 6512   6.703   1.414   4.641  0.8026  0.7240 -0.9416
   73SLPC  C316 6513   6.554   1.551   4.688  0.0180  0.0132 -0.3069
   73SLPC  H16X 6514   6.628   1.629   4.662 -0.2477 -0.6395 -3.3857
   73SLPC  H16Y 6515   6.499   1.586   4.778  0.1429  0.4807 -0.4118
   73SLPC  C317 6516   6.444   1.544   4.576 -0.1949  0.2226  0.2859
   73SLPC  H17X 6517   6.485   1.487   4.490 -0.1541  1.1613 -0.3245
   73SLPC  H17Y 6518   6.424   1.647   4.542 -1.3308  0.2795  1.0845
   73SLPC  C318 6519   6.318   1.470   4.624  0.0319  0.1636 -0.1783
   73SLPC  H18X 6520   6.283   1.517   4.718 -0.3743  1.0243 -0.7471
   73SLPC  H18Y 6521   6.344   1.363   4.639  0.3501  0.2506 -0.0989
   73SLPC  H18Z 6522   6.244   1.483   4.542  0.7478  2.2550 -0.5470
   74SLPC     N 6523   4.414   4.184   6.651 -0.0332 -0.4731 -0.3291
   74SLPC   C13 6524   4.289   4.099   6.660 -0.3419 -0.0004  0.2137
   74SLPC  H13A 6525   4.225   4.114   6.574  1.5231 -1.0627 -1.4583
   74SLPC  H13B 6526   4.311   3.993   6.670 -3.5196 -0.7306  0.4147
   74SLPC  H13C 6527   4.230   4.115   6.749  1.0237 -0.6219  1.2716
   74SLPC   C14 6528   4.506   4.146   6.759  0.1891 -0.2469  0.3348
   74SLPC  H14A 6529   4.449   4.149   6.850 -1.5104 -0.9438 -0.6575
   74SLPC  H14B 6530   4.552   4.048   6.759 -0.7421 -0.7046  1.6060
   74SLPC  H14C 6531   4.586   4.217   6.773  0.6698 -0.7098 -0.0462
   74SLPC   C15 6532   4.379   4.331   6.672  0.0282 -0.3473  0.0063
   74SLPC  H15A 6533   4.462   4.400   6.661  1.5415 -1.8828  1.3734
   74SLPC  H15B 6534   4.318   4.365   6.589  1.0433  1.5346 -0.0305
   74SLPC  H15C 6535   4.325   4.356   6.762 -0.8317  2.9730 -1.2536
   74SLPC   C12 6536   4.478   4.160   6.518  0.7016  0.3093  0.3256
   74SLPC  H12A 6537   4.548   4.242   6.508  1.7587 -0.4519  1.3190
   74SLPC  H12B 6538   4.402   4.183   6.444  1.2797  0.8555 -0.1050
   74SLPC   C11 6539   4.525   4.019   6.487 -0.5255  0.2323 -0.0717
   74SLPC  H11A 6540   4.552   4.014   6.379 -0.6566  1.3130 -0.1619
   74SLPC  H11B 6541   4.447   3.944   6.512  0.8613 -0.9979  0.7323
   74SLPC     P 6542   4.791   4.006   6.514 -0.2817 -0.3508 -0.4954
   74SLPC   O13 6543   4.804   4.133   6.437 -0.3127  0.6869  0.4194
   74SLPC   O14 6544   4.887   3.985   6.624  0.2497  0.5010 -0.0948
   74SLPC   O12 6545   4.639   3.986   6.562 -0.0274 -0.0844 -0.5590
   74SLPC   O11 6546   4.805   3.890   6.409  0.3661  0.2586  0.0466
   74SLPC    C1 6547   4.804   3.755   6.448 -0.8547  0.1206 -0.4865
   74SLPC    HA 6548   4.907   3.719   6.469 -1.3125 -1.2330 -0.4944
   74SLPC    HB 6549   4.742   3.737   6.539 -1.3285 -1.3248 -1.0745
   74SLPC    C2 6550   4.718   3.658   6.355  0.0420 -0.8754 -0.4547
   74SLPC    HS 6551   4.678   3.577   6.421 -0.5817  1.0091  1.6156
   74SLPC   O21 6552   4.808   3.598   6.260  0.1278  0.3209 -0.0746
   74SLPC   C21 6553   4.915   3.535   6.303 -0.1983 -0.0153  0.4105
   74SLPC   O22 6554   4.929   3.487   6.414  0.1073  0.1600  0.1643
   74SLPC   C22 6555   5.031   3.521   6.200  0.2096 -0.6857  0.4170
   74SLPC   H2R 6556   4.994   3.446   6.127  1.0405 -1.9920  1.3114
   74SLPC   H2S 6557   5.045   3.621   6.154  0.9100 -0.5714  0.8598
   74SLPC    C3 6558   4.602   3.725   6.277  0.5037 -0.7447  0.4516
   74SLPC    HX 6559   4.639   3.796   6.200  0.1091 -0.6369  0.3633
   74SLPC    HY 6560   4.534   3.795   6.331  1.1099  2.0584 -2.1799
   74SLPC   O31 6561   4.501   3.639   6.207 -0.0328 -0.2787 -0.4707
   74SLPC   C31 6562   4.540   3.604   6.083  0.6098  0.4417  0.3643
   74SLPC   O32 6563   4.652   3.620   6.038 -0.5042 -0.6739  0.2354
   74SLPC   C32 6564   4.420   3.544   6.005  0.1762  0.0322  0.3953
   74SLPC   H2X 6565   4.331   3.590   6.054  0.7324  0.0637  1.4140
   74SLPC   H2Y 6566   4.418   3.435   6.024 -0.7634 -0.0328 -0.0517
   74SLPC   C23 6567   5.166   3.478   6.260  0.2597  0.1998 -0.1937
   74SLPC   H3R 6568   5.152   3.403   6.341  4.5722 -0.2302  0.4030
   74SLPC   H3S 6569   5.211   3.565   6.312  3.4989 -1.3386 -0.1472
   74SLPC   C24 6570   5.265   3.414   6.161  0.5110 -0.2482  0.3357
   74SLPC   H4R 6571   5.227   3.322   6.111 -2.6558  0.9472  0.3426
   74SLPC   H4S 6572   5.357   3.383   6.215  1.8542  2.3126 -0.3167
   74SLPC   C25 6573   5.315   3.511   6.049  0.0802 -0.4900  0.1994
   74SLPC   H5R 6574   5.355   3.603   6.096 -1.0778  0.5670 -0.8205
   74SLPC   H5S 6575   5.221   3.537   5.995  0.0554  2.8889  1.6551
   74SLPC   C26 6576   5.424   3.438   5.962  0.2641 -0.2330 -0.5442
   74SLPC   H6R 6577   5.525   3.433   6.009  0.0669 -1.8436 -0.2559
   74SLPC   H6S 6578   5.436   3.496   5.868 -0.0946 -1.3449 -1.2890
   74SLPC   C27 6579   5.388   3.300   5.909  0.3493  0.0068  0.1124
   74SLPC   H7R 6580   5.283   3.296   5.874  0.4750 -0.4539 -0.2230
   74SLPC   H7S 6581   5.404   3.226   5.991  2.3145  0.2044 -0.0409
   74SLPC   C28 6582   5.485   3.244   5.793 -0.1585  0.2211 -0.4685
   74SLPC   H8R 6583   5.470   3.134   5.797 -1.3477  0.3954  1.2837
   74SLPC   H8S 6584   5.587   3.242   5.836 -0.6633 -0.6166  0.7577
   74SLPC   C29 6585   5.475   3.308   5.660 -0.0949  0.6654  0.2368
   74SLPC   H9R 6586   5.381   3.286   5.608  1.1508 -2.1459 -1.0000
   74SLPC  C210 6587   5.568   3.382   5.594  0.3976  0.3180  0.2290
   74SLPC  H10R 6588   5.531   3.443   5.511 -1.4355  0.1692  0.9063
   74SLPC  C211 6589   5.702   3.413   5.656 -0.2251  0.2160 -0.0632
   74SLPC  H11R 6590   5.763   3.329   5.618 -1.3685  0.3963 -2.5155
   74SLPC  H11S 6591   5.700   3.403   5.767  1.6010  0.9893  0.0743
   74SLPC  C212 6592   5.761   3.541   5.605 -0.0349 -0.2675  0.5586
   74SLPC  H12R 6593   5.733   3.625   5.671 -1.2439  0.5744 -0.9627
   74SLPC  C213 6594   5.832   3.556   5.493 -0.0165  0.2203 -0.1653
   74SLPC  H13R 6595   5.858   3.659   5.463  0.3876  0.3868  0.7267
   74SLPC  C214 6596   5.871   3.441   5.404 -0.0598 -0.1781 -0.0060
   74SLPC  H14R 6597   5.792   3.365   5.386 -1.1321  0.8617  0.1651
   74SLPC  H14S 6598   5.960   3.381   5.434  1.5057  1.8048 -0.4827
   74SLPC  C215 6599   5.886   3.508   5.264 -0.1500  0.4455 -0.5604
   74SLPC  H15R 6600   5.947   3.428   5.217  1.3040  0.4913  1.1265
   74SLPC  H15S 6601   5.944   3.602   5.267  0.3565  0.1360  2.1072
   74SLPC  C216 6602   5.753   3.516   5.184  0.4010 -0.1645  0.5917
   74SLPC  H16R 6603   5.678   3.576   5.241 -0.1573 -0.2999  0.0164
   74SLPC  H16S 6604   5.697   3.421   5.175  0.7642 -0.1982 -3.2316
   74SLPC  C217 6605   5.777   3.582   5.050  0.3507  0.8503 -0.0103
   74SLPC  H17R 6606   5.852   3.664   5.062  1.0804  0.2870 -0.5995
   74SLPC  H17S 6607   5.683   3.631   5.017  0.0583  1.2362  1.3265
   74SLPC  C218 6608   5.834   3.485   4.943  0.2688 -0.0020 -0.0157
   74SLPC  H18R 6609   5.869   3.539   4.852 -1.5996  0.9217 -0.2273
   74SLPC  H18S 6610   5.759   3.408   4.916  0.8018 -1.1698  1.6857
   74SLPC  H18T 6611   5.909   3.417   4.989 -1.6486 -3.0018 -1.0552
   74SLPC   C33 6612   4.423   3.560   5.853 -0.3612 -0.2219  0.0951
   74SLPC   H3X 6613   4.531   3.547   5.829 -0.0068 -1.2667  2.0997
   74SLPC   H3Y 6614   4.385   3.662   5.830 -0.2687  0.0205  0.9856
   74SLPC   C34 6615   4.335   3.472   5.768 -0.1191  0.1578 -0.1986
   74SLPC   H4X 6616   4.227   3.500   5.767  0.2114  1.5583  0.7888
   74SLPC   H4Y 6617   4.343   3.369   5.808 -0.5194 -0.3189 -1.3035
   74SLPC   C35 6618   4.395   3.459   5.626 -0.0509 -0.1477  0.9076
   74SLPC   H5X 6619   4.369   3.367   5.570  1.2028  0.5360 -0.9048
   74SLPC   H5Y 6620   4.506   3.468   5.632  0.0549 -1.5470  1.3062
   74SLPC   C36 6621   4.363   3.583   5.531  0.3766  0.4474 -0.2672
   74SLPC   H6X 6622   4.365   3.664   5.606  0.5412 -1.0292  1.3846
   74SLPC   H6Y 6623   4.264   3.572   5.482 -0.1795  0.6972  0.7704
   74SLPC   C37 6624   4.471   3.615   5.421 -0.7267 -0.0637  0.0474
   74SLPC   H7X 6625   4.561   3.650   5.477  0.2176 -1.0955 -0.7990
   74SLPC   H7Y 6626   4.435   3.695   5.353 -1.4684 -0.1071  0.3828
   74SLPC   C38 6627   4.510   3.495   5.330  0.8987  0.1145  0.7851
   74SLPC   H8X 6628   4.454   3.406   5.367  0.8761 -0.4177 -0.4829
   74SLPC   H8Y 6629   4.615   3.459   5.333  1.4462  1.6587  1.6990
   74SLPC   C39 6630   4.461   3.515   5.181 -0.5866 -0.2905 -0.7591
   74SLPC   H9X 6631   4.369   3.577   5.174 -1.5360 -1.7338 -1.4361
   74SLPC   H9Y 6632   4.443   3.415   5.138 -0.7389 -1.1027  1.1040
   74SLPC  C310 6633   4.565   3.564   5.090  0.5230  0.2409 -0.3748
   74SLPC  H10X 6634   4.665   3.517   5.103 -0.5456 -2.4395 -1.1912
   74SLPC  H10Y 6635   4.571   3.672   5.113 -0.8924 -0.2088  2.5391
   74SLPC  C311 6636   4.531   3.547   4.941  0.0461  0.0698 -0.4784
   74SLPC  H11X 6637   4.580   3.454   4.904 -0.7745 -0.6725  0.2732
   74SLPC  H11Y 6638   4.585   3.627   4.885 -0.9553  0.5939 -0.7202
   74SLPC  C312 6639   4.385   3.543   4.908  0.1045 -0.0914 -0.0120
   74SLPC  H12X 6640   4.339   3.629   4.962 -1.4824 -0.9461  0.0692
   74SLPC  H12Y 6641   4.335   3.450   4.941  0.3231  0.1787  1.1250
   74SLPC  C313 6642   4.359   3.578   4.762  0.0207  0.2442  0.5004
   74SLPC  H13X 6643   4.420   3.508   4.700  0.1447  0.8737 -0.0984
   74SLPC  H13Y 6644   4.403   3.676   4.733  0.2464 -0.1520 -0.5476
   74SLPC  C314 6645   4.211   3.566   4.715  0.4623  0.2262  0.1122
   74SLPC  H14X 6646   4.142   3.640   4.761 -0.0674 -0.5372  0.5719
   74SLPC  H14Y 6647   4.178   3.466   4.751 -0.8060 -0.0475 -1.6700
   74SLPC  C315 6648   4.194   3.577   4.565  0.4783 -1.2000  0.7326
   74SLPC  H15X 6649   4.258   3.500   4.517 -0.3738 -0.8342 -1.0635
   74SLPC  H15Y 6650   4.229   3.677   4.532  1.1632 -1.3564  0.9685
   74SLPC  C316 6651   4.052   3.547   4.531 -0.5289 -0.8999 -0.2507
   74SLPC  H16X 6652   3.995   3.641   4.547  1.1650  0.7098 -2.9680
   74SLPC  H16Y 6653   4.011   3.460   4.587 -3.1745  0.2784 -0.2057
   74SLPC  C317 6654   4.043   3.506   4.387  0.0612 -0.1297  0.8279
   74SLPC  H17X 6655   4.105   3.414   4.378  1.9992  1.0304  1.6119
   74SLPC  H17Y 6656   4.090   3.579   4.317 -0.6151 -0.8133 -0.3707
   74SLPC  C318 6657   3.900   3.485   4.333 -0.6365  0.2090  0.3316
   74SLPC  H18X 6658   3.837   3.411   4.387 -0.4484 -0.5820 -0.5068
   74SLPC  H18Y 6659   3.915   3.434   4.236 -0.2832 -1.4812  1.2334
   74SLPC  H18Z 6660   3.845   3.581   4.323  0.2914  0.5108 -2.8991
   75SLPC     N 6661   2.483   5.243   7.673 -0.7022 -0.5288  0.3542
   75SLPC   C13 6662   2.343   5.298   7.702  0.1489  0.7972 -0.0194
   75SLPC  H13A 6663   2.285   5.310   7.612  0.2059 -1.2033 -0.3592
   75SLPC  H13B 6664   2.295   5.226   7.766 -3.1485  1.4112 -1.6356
   75SLPC  H13C 6665   2.358   5.388   7.761  3.7824 -0.0285  0.5783
   75SLPC   C14 6666   2.567   5.246   7.802  0.6240  0.0113  0.1329
   75SLPC  H14A 6667   2.658   5.189   7.791  1.0729  1.0049 -1.6183
   75SLPC  H14B 6668   2.593   5.347   7.830 -3.0715  0.7013  1.6601
   75SLPC  H14C 6669   2.509   5.215   7.888 -1.4024  3.3907  0.1482
   75SLPC   C15 6670   2.552   5.333   7.569 -0.3608 -0.5529  1.0031
   75SLPC  H15A 6671   2.487   5.355   7.485  1.9129  2.2045 -0.2177
   75SLPC  H15B 6672   2.571   5.429   7.615  2.7139 -0.7104  0.2632
   75SLPC  H15C 6673   2.644   5.290   7.535  0.1197  1.1090  0.0697
   75SLPC   C12 6674   2.472   5.103   7.613 -0.0365 -1.0565 -0.4776
   75SLPC  H12A 6675   2.450   5.042   7.699  0.0692  0.7820  0.9384
   75SLPC  H12B 6676   2.572   5.074   7.584  1.4156  0.5245  2.4497
   75SLPC   C11 6677   2.372   5.090   7.497 -0.4634 -0.3027  0.7195
   75SLPC  H11A 6678   2.272   5.116   7.538 -0.2969  0.6104  0.5639
   75SLPC  H11B 6679   2.366   4.985   7.460  2.2625 -0.1005 -0.5311
   75SLPC     P 6680   2.315   5.258   7.297  0.2123  0.1232  0.0649
   75SLPC   O13 6681   2.276   5.367   7.385  0.0608  0.1715 -0.4699
   75SLPC   O14 6682   2.379   5.291   7.168 -0.2950  0.4824  0.3097
   75SLPC   O12 6683   2.410   5.163   7.384 -0.5863  0.2252 -0.1110
   75SLPC   O11 6684   2.189   5.170   7.277  0.0582 -0.0793 -0.1353
   75SLPC    C1 6685   2.198   5.057   7.183  0.2286 -0.7198 -1.3696
   75SLPC    HA 6686   2.296   5.051   7.130  2.0605 -0.7023  1.7916
   75SLPC    HB 6687   2.194   4.961   7.239 -1.4677 -0.1677 -0.4900
   75SLPC    C2 6688   2.079   5.066   7.091  0.6270  0.2616  0.2268
   75SLPC    HS 6689   1.983   5.069   7.148 -0.6356 -1.3043 -1.6851
   75SLPC   O21 6690   2.084   4.951   6.999  0.3032  0.0779 -0.1434
   75SLPC   C21 6691   1.963   4.922   6.933  0.4124 -0.4535 -0.6084
   75SLPC   O22 6692   1.857   4.969   6.968 -0.1339 -0.1802  0.2205
   75SLPC   C22 6693   1.989   4.827   6.810  0.1673 -0.0770 -0.3725
   75SLPC   H2R 6694   2.100   4.825   6.798  0.3465  0.1207  1.0274
   75SLPC   H2S 6695   1.981   4.725   6.855  3.7174 -0.8885 -1.2476
   75SLPC    C3 6696   2.077   5.197   7.010  0.6302 -0.5015  0.4199
   75SLPC    HX 6697   2.182   5.213   6.979 -0.1805  3.1507 -0.9623
   75SLPC    HY 6698   2.057   5.277   7.085  0.1454  0.9554 -1.2013
   75SLPC   O31 6699   1.989   5.212   6.900  0.3702 -0.2177  0.1130
   75SLPC   C31 6700   2.025   5.269   6.791  0.5474 -0.5569 -0.3883
   75SLPC   O32 6701   2.139   5.302   6.753 -0.0263  0.2541  0.4743
   75SLPC   C32 6702   1.897   5.291   6.708  0.2775  0.2311  0.1424
   75SLPC   H2X 6703   1.844   5.374   6.758 -0.9370 -0.1129 -0.5361
   75SLPC   H2Y 6704   1.832   5.201   6.706  0.8413 -0.1790 -0.6804
   75SLPC   C23 6705   1.899   4.852   6.693 -0.4676  0.6901 -0.6616
   75SLPC   H3R 6706   1.806   4.906   6.719  0.3480  1.6855  0.2407
   75SLPC   H3S 6707   1.874   4.755   6.644 -1.2928  0.0952  0.8946
   75SLPC   C24 6708   1.965   4.951   6.589  0.7346  0.5594  0.1607
   75SLPC   H4R 6709   2.072   4.925   6.575  0.7159 -0.5154  1.7389
   75SLPC   H4S 6710   1.961   5.051   6.638  1.2912  0.1073  1.1712
   75SLPC   C25 6711   1.893   4.928   6.454 -0.1019  0.3962  0.0895
   75SLPC   H5R 6712   1.792   4.973   6.462  0.1935  0.9925  0.4690
   75SLPC   H5S 6713   1.884   4.818   6.441 -0.0015 -0.1081  3.4582
   75SLPC   C26 6714   1.974   4.988   6.333 -0.3022  0.1888 -0.7433
   75SLPC   H6R 6715   2.077   4.946   6.330  0.1244  1.2114 -0.9180
   75SLPC   H6S 6716   1.983   5.097   6.353  2.1170 -0.5006  2.9500
   75SLPC   C27 6717   1.902   4.977   6.199  0.1208 -0.3126  0.1373
   75SLPC   H7R 6718   1.889   5.072   6.144  0.4055 -0.4117 -0.1027
   75SLPC   H7S 6719   1.798   4.946   6.223  0.7329 -1.0782  1.9602
   75SLPC   C28 6720   1.942   4.861   6.097 -0.2686  0.6531  0.1995
   75SLPC   H8R 6721   1.846   4.853   6.042 -0.4750  0.1869  0.6117
   75SLPC   H8S 6722   1.965   4.770   6.157  1.6213 -0.8349 -2.6103
   75SLPC   C29 6723   2.057   4.874   6.003 -0.3341 -0.4848  0.0787
   75SLPC   H9R 6724   2.151   4.844   6.051  0.1738  0.4711 -0.2929
   75SLPC  C210 6725   2.048   4.911   5.875 -0.4057  0.1128  0.5955
   75SLPC  H10R 6726   2.133   4.891   5.808 -0.1781 -2.6884  1.5728
   75SLPC  C211 6727   1.924   4.956   5.802 -0.6200  0.4632  0.5715
   75SLPC  H11R 6728   1.861   5.029   5.857 -3.0627  0.4642 -2.0352
   75SLPC  H11S 6729   1.863   4.865   5.786 -0.7635  0.6756 -0.1431
   75SLPC  C212 6730   1.950   5.018   5.674  0.7180 -0.8797 -0.0382
   75SLPC  H12R 6731   2.007   5.111   5.682 -1.7408  0.8700 -1.5177
   75SLPC  C213 6732   1.924   4.974   5.546  0.4156  0.0362 -0.4760
   75SLPC  H13R 6733   1.940   5.042   5.462 -2.0153 -1.1924 -2.0422
   75SLPC  C214 6734   1.848   4.847   5.500 -0.2621 -0.2138  0.0303
   75SLPC  H14R 6735   1.738   4.863   5.512 -0.0538  1.8664 -0.4824
   75SLPC  H14S 6736   1.887   4.760   5.557  3.2025  1.0701 -0.1772
   75SLPC  C215 6737   1.880   4.833   5.353  0.0835  0.0638 -0.9553
   75SLPC  H15R 6738   1.852   4.732   5.318 -1.7576  0.4999 -0.8403
   75SLPC  H15S 6739   1.989   4.836   5.332  0.4056 -0.1960  0.5037
   75SLPC  C216 6740   1.802   4.929   5.264  1.1651 -0.4792  0.2584
   75SLPC  H16R 6741   1.816   5.036   5.290 -0.5989  0.0328 -0.6960
   75SLPC  H16S 6742   1.691   4.925   5.263  0.8356  3.8299  0.9171
   75SLPC  C217 6743   1.836   4.925   5.112  0.3441 -0.2254  0.3112
   75SLPC  H17R 6744   1.936   4.884   5.088 -0.3075 -1.7772  0.1089
   75SLPC  H17S 6745   1.828   5.029   5.075  2.1147  0.0158  0.5241
   75SLPC  C218 6746   1.736   4.844   5.030  0.3347 -0.5203 -0.2622
   75SLPC  H18R 6747   1.772   4.844   4.925  2.3770 -0.0480  0.3979
   75SLPC  H18S 6748   1.631   4.880   5.036  0.7551  0.7080 -0.1212
   75SLPC  H18T 6749   1.730   4.739   5.067  0.1990 -0.1216  0.8919
   75SLPC   C33 6750   1.928   5.337   6.565  0.7808 -0.2700 -0.2600
   75SLPC   H3X 6751   1.991   5.262   6.512  0.0433 -1.6955  0.8200
   75SLPC   H3Y 6752   1.991   5.428   6.575  0.2820 -0.0184  0.6360
   75SLPC   C34 6753   1.802   5.352   6.478  0.3733  0.4748 -0.0226
   75SLPC   H4X 6754   1.730   5.396   6.550  4.0452  0.7639  3.8483
   75SLPC   H4Y 6755   1.761   5.252   6.452  0.9078 -0.1389  1.3758
   75SLPC   C35 6756   1.815   5.443   6.349 -0.0831  0.0708  0.0117
   75SLPC   H5X 6757   1.864   5.385   6.267  0.0602  0.4093 -0.1483
   75SLPC   H5Y 6758   1.881   5.532   6.364  0.7467  0.1580 -3.3111
   75SLPC   C36 6759   1.674   5.488   6.300  1.0148  0.3025  0.0019
   75SLPC   H6X 6760   1.628   5.538   6.387 -2.1818 -0.8424 -0.8957
   75SLPC   H6Y 6761   1.606   5.404   6.272  0.1886  0.6388  0.9463
   75SLPC   C37 6762   1.688   5.575   6.174 -0.1793 -1.1691  0.1413
   75SLPC   H7X 6763   1.755   5.662   6.183 -1.3805 -0.2883  0.9238
   75SLPC   H7Y 6764   1.591   5.623   6.147  1.6519  3.0364  0.4357
   75SLPC   C38 6765   1.726   5.489   6.050 -0.1564  0.7508  0.2822
   75SLPC   H8X 6766   1.678   5.389   6.065  0.0823  0.7713  1.2183
   75SLPC   H8Y 6767   1.833   5.468   6.030 -0.3151  1.6454 -1.6867
   75SLPC   C39 6768   1.677   5.549   5.913  0.2153 -0.0838 -0.1167
   75SLPC   H9X 6769   1.732   5.489   5.838  1.5719 -0.5704  1.2291
   75SLPC   H9Y 6770   1.723   5.650   5.911 -1.7115  0.8341  0.2135
   75SLPC  C310 6771   1.524   5.540   5.887 -0.1425  0.0577 -0.3404
   75SLPC  H10X 6772   1.471   5.596   5.967  1.7559  0.4662  0.6994
   75SLPC  H10Y 6773   1.492   5.434   5.884  2.3733 -0.9098  2.4185
   75SLPC  C311 6774   1.470   5.600   5.752 -0.6233  1.6976 -0.8075
   75SLPC  H11X 6775   1.537   5.561   5.673 -0.6556  0.3322 -0.1869
   75SLPC  H11Y 6776   1.492   5.709   5.760 -0.8969  1.6826  0.3985
   75SLPC  C312 6777   1.325   5.568   5.736  0.0351  0.0557 -0.3300
   75SLPC  H12X 6778   1.259   5.611   5.814 -1.7559 -2.9176 -0.0545
   75SLPC  H12Y 6779   1.304   5.460   5.721  2.7386 -0.8265  1.5215
   75SLPC  C313 6780   1.274   5.627   5.603 -0.5858 -0.1232  0.6778
   75SLPC  H13X 6781   1.340   5.614   5.514 -1.8179  1.0060 -0.4295
   75SLPC  H13Y 6782   1.272   5.737   5.613 -0.1809  0.3165 -2.8585
   75SLPC  C314 6783   1.130   5.576   5.582 -0.2707  0.6435 -0.0928
   75SLPC  H14X 6784   1.073   5.585   5.677 -0.9955  0.5112 -0.5033
   75SLPC  H14Y 6785   1.137   5.469   5.553  1.3303  1.4988 -3.3410
   75SLPC  C315 6786   1.062   5.661   5.468  0.0304 -0.2157 -0.4107
   75SLPC  H15X 6787   1.109   5.762   5.474  1.0436 -0.6439 -0.9244
   75SLPC  H15Y 6788   0.952   5.670   5.481  0.0876 -0.7832  0.5442
   75SLPC  C316 6789   1.086   5.613   5.329  0.1318  0.0395  0.7622
   75SLPC  H16X 6790   1.015   5.532   5.307  0.8600 -0.8352  1.5406
   75SLPC  H16Y 6791   1.186   5.563   5.325 -0.5471 -1.3053 -0.0287
   75SLPC  C317 6792   1.086   5.736   5.228  0.9245 -0.7841 -0.5466
   75SLPC  H17X 6793   1.153   5.819   5.257 -2.3767  1.2117  2.2001
   75SLPC  H17Y 6794   0.989   5.788   5.238  0.4982 -1.8433  1.5383
   75SLPC  C318 6795   1.096   5.701   5.081  0.1148  0.7866 -0.2556
   75SLPC  H18X 6796   1.017   5.634   5.043  0.6253 -0.6859  1.1447
   75SLPC  H18Y 6797   1.197   5.656   5.070  2.6585  5.7331 -0.1360
   75SLPC  H18Z 6798   1.094   5.789   5.013  0.5373 -0.5640 -2.0981
   76SLPC     N 6799   2.234   6.187   6.767 -0.1154  0.2034 -0.2487
   76SLPC   C13 6800   2.232   6.334   6.735 -0.0904  0.4491 -0.2971
   76SLPC  H13A 6801   2.329   6.381   6.744 -0.1360  0.5631 -0.3906
   76SLPC  H13B 6802   2.205   6.339   6.630 -0.8138  1.9261 -0.0688
   76SLPC  H13C 6803   2.149   6.372   6.792 -1.5023 -1.1944 -1.1663
   76SLPC   C14 6804   2.094   6.146   6.806  0.0257 -0.3437 -0.5306
   76SLPC  H14A 6805   2.086   6.039   6.815 -1.7648 -0.3878 -2.0852
   76SLPC  H14B 6806   2.080   6.198   6.900  0.6493 -0.3914 -0.4015
   76SLPC  H14C 6807   2.012   6.176   6.743 -0.5865  1.2642  0.9515
   76SLPC   C15 6808   2.328   6.179   6.884 -0.0968 -0.5172 -0.7939
   76SLPC  H15A 6809   2.345   6.077   6.914  1.3450  0.0302  0.4181
   76SLPC  H15B 6810   2.428   6.209   6.857 -0.1273 -1.2510 -1.7522
   76SLPC  H15C 6811   2.295   6.236   6.970  2.2180  1.0907 -0.8875
   76SLPC   C12 6812   2.291   6.112   6.650 -0.0730  0.0527  0.6045
   76SLPC  H12A 6813   2.298   6.010   6.686 -0.0918  0.6340  2.3644
   76SLPC  H12B 6814   2.389   6.153   6.634 -0.4050  1.1282  1.2115
   76SLPC   C11 6815   2.217   6.126   6.515 -0.3190 -0.1637 -0.8463
   76SLPC  H11A 6816   2.108   6.108   6.528 -1.0663  4.1908  0.4823
   76SLPC  H11B 6817   2.261   6.044   6.454 -0.4036  0.1281 -1.2989
   76SLPC     P 6818   2.147   6.325   6.352  0.4503 -0.0982 -0.1953
   76SLPC   O13 6819   2.004   6.309   6.385  0.2721  0.6238 -0.3426
   76SLPC   O14 6820   2.199   6.461   6.343  0.6654  0.0680  0.1694
   76SLPC   O12 6821   2.241   6.250   6.458 -0.8788 -0.1272  0.2997
   76SLPC   O11 6822   2.171   6.236   6.225  0.3258 -0.0071 -0.2035
   76SLPC    C1 6823   2.306   6.195   6.189 -0.2900 -0.6608  0.2925
   76SLPC    HA 6824   2.366   6.162   6.276  1.3530  1.2838 -0.0194
   76SLPC    HB 6825   2.292   6.107   6.124 -2.8462  0.3039 -0.6044
   76SLPC    C2 6826   2.386   6.308   6.108  0.2232  0.2553  0.2073
   76SLPC    HS 6827   2.423   6.385   6.179 -0.5963 -0.6548  1.6606
   76SLPC   O21 6828   2.297   6.371   6.014  0.5539  0.1685 -0.4369
   76SLPC   C21 6829   2.344   6.483   5.963  0.0304 -0.1279 -0.3641
   76SLPC   O22 6830   2.448   6.535   6.010  0.4494 -0.0101 -0.2131
   76SLPC   C22 6831   2.255   6.537   5.846 -0.4193  0.1008  0.1252
   76SLPC   H2R 6832   2.162   6.477   5.842  0.3547 -1.3271  2.1646
   76SLPC   H2S 6833   2.249   6.646   5.866 -0.7829 -0.1133  1.2522
   76SLPC    C3 6834   2.517   6.251   6.049 -0.5108  0.5946  1.0261
   76SLPC    HX 6835   2.572   6.224   6.142  0.7768 -0.8068 -0.1018
   76SLPC    HY 6836   2.588   6.319   5.998  0.9287 -0.4720  1.5534
   76SLPC   O31 6837   2.495   6.129   5.975  0.4094 -0.3829  0.0680
   76SLPC   C31 6838   2.460   6.143   5.847 -0.2455  0.3708  0.3731
   76SLPC   O32 6839   2.474   6.243   5.782  0.1594  0.4644  0.2025
   76SLPC   C32 6840   2.413   6.011   5.795  0.3213  0.3196  0.4862
   76SLPC   H2X 6841   2.314   6.001   5.845 -0.8339  1.3786 -1.4640
   76SLPC   H2Y 6842   2.475   5.931   5.841 -0.1786  0.7463  1.9750
   76SLPC   C23 6843   2.335   6.526   5.711 -0.0605  0.0449 -0.9141
   76SLPC   H3R 6844   2.366   6.420   5.698 -0.1425 -0.1454  0.3651
   76SLPC   H3S 6845   2.426   6.590   5.706 -1.8991  2.8166 -1.5674
   76SLPC   C24 6846   2.241   6.566   5.596  0.2214  0.0253  0.7928
   76SLPC   H4R 6847   2.214   6.674   5.594 -0.3824 -0.1319  0.2285
   76SLPC   H4S 6848   2.146   6.508   5.596 -0.1722  0.6562  0.6610
   76SLPC   C25 6849   2.318   6.543   5.464  0.0417  0.5677  0.4303
   76SLPC   H5R 6850   2.350   6.436   5.462 -1.3747  0.1312 -1.5129
   76SLPC   H5S 6851   2.412   6.602   5.459  1.2971 -1.2757  0.9662
   76SLPC   C26 6852   2.237   6.546   5.333 -0.2085  0.0518 -0.8665
   76SLPC   H6R 6853   2.197   6.648   5.319 -0.0568  0.0417 -1.3878
   76SLPC   H6S 6854   2.154   6.473   5.322  0.5909 -0.7661 -1.6955
   76SLPC   C27 6855   2.330   6.536   5.211  0.2878 -0.0150 -0.4877
   76SLPC   H7R 6856   2.383   6.440   5.229  0.7822  0.6298  1.9532
   76SLPC   H7S 6857   2.404   6.619   5.212 -0.1325  0.3728  0.6170
   76SLPC   C28 6858   2.246   6.535   5.085 -0.4309  0.6781  0.6457
   76SLPC   H8R 6859   2.219   6.638   5.053  0.2133  1.3953  2.2865
   76SLPC   H8S 6860   2.157   6.470   5.101  0.8115 -1.4329 -0.5859
   76SLPC   C29 6861   2.325   6.457   4.980  0.1646 -0.2553  0.4674
   76SLPC   H9R 6862   2.360   6.365   5.030 -0.5378  0.1866  1.8043
   76SLPC  C210 6863   2.364   6.485   4.858 -0.2075 -0.0394 -0.1203
   76SLPC  H10R 6864   2.408   6.402   4.801 -0.8130  1.0970 -2.3598
   76SLPC  C211 6865   2.329   6.610   4.776 -0.3281 -0.0126 -0.3312
   76SLPC  H11R 6866   2.275   6.691   4.829 -1.1410 -0.5899 -0.2546
   76SLPC  H11S 6867   2.255   6.580   4.698  0.7508 -0.7873 -1.0905
   76SLPC  C212 6868   2.452   6.657   4.697  0.5163 -0.1731  0.4109
   76SLPC  H12R 6869   2.518   6.720   4.758 -1.3436  0.5528  1.7619
   76SLPC  C213 6870   2.471   6.651   4.564 -0.2702  0.2338  0.2190
   76SLPC  H13R 6871   2.558   6.694   4.513  0.9903 -1.6089  0.7116
   76SLPC  C214 6872   2.385   6.586   4.459  0.7612  0.1050  0.8600
   76SLPC  H14R 6873   2.303   6.653   4.425  0.5636 -0.9002 -0.7667
   76SLPC  H14S 6874   2.326   6.507   4.510  0.5480  0.0183  0.4830
   76SLPC  C215 6875   2.470   6.526   4.347 -0.5475 -0.4209  0.1056
   76SLPC  H15R 6876   2.532   6.446   4.391 -0.9099  0.3292  2.0864
   76SLPC  H15S 6877   2.534   6.604   4.301 -2.3534  1.2082  0.2292
   76SLPC  C216 6878   2.391   6.459   4.234  0.5277 -0.5933 -0.7890
   76SLPC  H16R 6879   2.343   6.533   4.166 -0.9352 -0.1990  0.6265
   76SLPC  H16S 6880   2.313   6.397   4.284 -0.2036  0.4134 -0.6537
   76SLPC  C217 6881   2.477   6.372   4.141 -0.3154 -0.0511 -0.4312
   76SLPC  H17R 6882   2.403   6.322   4.075 -0.3668 -1.8704  0.9125
   76SLPC  H17S 6883   2.538   6.302   4.203 -0.6889  0.3190  0.3701
   76SLPC  C218 6884   2.566   6.455   4.050  0.6190  0.1275  0.0250
   76SLPC  H18R 6885   2.503   6.533   4.003 -2.2107 -1.1691  1.4072
   76SLPC  H18S 6886   2.618   6.401   3.969  0.5554  1.3258 -0.8386
   76SLPC  H18T 6887   2.648   6.505   4.107  0.3017  1.7930 -0.9317
   76SLPC   C33 6888   2.409   6.003   5.646  0.0443  0.2829  0.2300
   76SLPC   H3X 6889   2.443   5.900   5.622  0.0407  0.3466 -0.0438
   76SLPC   H3Y 6890   2.484   6.069   5.600  0.0824  1.8542  2.3876
   76SLPC   C34 6891   2.268   6.026   5.577 -0.2562 -0.2345 -1.0741
   76SLPC   H4X 6892   2.239   6.130   5.604  1.9443  0.1585 -0.0442
   76SLPC   H4Y 6893   2.187   5.976   5.634 -0.0949  1.0563  0.3650
   76SLPC   C35 6894   2.271   6.000   5.426  0.0656  0.4222  0.2043
   76SLPC   H5X 6895   2.284   5.891   5.406 -3.2850  0.3074 -2.1628
   76SLPC   H5Y 6896   2.358   6.051   5.381  0.0861  0.3735  0.1880
   76SLPC   C36 6897   2.144   6.045   5.353  0.5609 -0.8200  0.1144
   76SLPC   H6X 6898   2.139   6.156   5.356 -3.2190 -0.8243  4.2213
   76SLPC   H6Y 6899   2.053   6.015   5.409 -0.9079  1.3314 -0.9697
   76SLPC   C37 6900   2.113   6.009   5.210 -0.0984  0.5364  0.1422
   76SLPC   H7X 6901   2.017   6.060   5.185 -1.2843 -0.3803  2.4736
   76SLPC   H7Y 6902   2.090   5.901   5.196 -0.7370  0.6078  0.6055
   76SLPC   C38 6903   2.221   6.068   5.113  0.3203 -0.5240  0.0530
   76SLPC   H8X 6904   2.323   6.042   5.146  1.1816  0.3934 -1.7540
   76SLPC   H8Y 6905   2.214   6.179   5.120  1.1866 -0.3584 -1.3186
   76SLPC   C39 6906   2.202   6.024   4.965  0.2136 -0.0130 -0.4229
   76SLPC   H9X 6907   2.121   6.094   4.936  1.3421  1.0655 -1.0464
   76SLPC   H9Y 6908   2.178   5.916   4.951 -0.0637 -0.0401  0.1984
   76SLPC  C310 6909   2.312   6.069   4.876 -0.2517  0.5518 -0.2696
   76SLPC  H10X 6910   2.408   6.024   4.910 -0.9649  1.3712  3.2080
   76SLPC  H10Y 6911   2.328   6.178   4.866 -3.7302  0.9978 -2.6820
   76SLPC  C311 6912   2.283   6.021   4.724 -0.1489 -0.7438 -0.4140
   76SLPC  H11X 6913   2.179   6.054   4.704  0.7540  2.2613 -0.5939
   76SLPC  H11Y 6914   2.289   5.911   4.738  1.7311 -0.4732  1.5009
   76SLPC  C312 6915   2.384   6.076   4.625  0.9448  0.4813 -0.7636
   76SLPC  H12X 6916   2.477   6.016   4.633  1.4506  1.4466  1.5363
   76SLPC  H12Y 6917   2.401   6.186   4.637 -0.6299  0.7288 -0.5818
   76SLPC  C313 6918   2.330   6.075   4.478  0.1275 -0.5127  0.0479
   76SLPC  H13X 6919   2.412   6.107   4.410 -1.2560  0.4595 -1.2099
   76SLPC  H13Y 6920   2.248   6.146   4.458  0.6734 -0.3415 -1.7293
   76SLPC  C314 6921   2.288   5.937   4.425 -0.3022  0.4604  0.0762
   76SLPC  H14X 6922   2.212   5.906   4.500  0.5591  3.0243  2.1678
   76SLPC  H14Y 6923   2.368   5.860   4.433  2.1505  2.9392  0.8340
   76SLPC  C315 6924   2.249   5.927   4.277 -0.0680  0.2059  0.6363
   76SLPC  H15X 6925   2.323   5.977   4.213 -0.7235  0.4251  0.0407
   76SLPC  H15Y 6926   2.155   5.987   4.272  1.5622  2.9593  1.2947
   76SLPC  C316 6927   2.229   5.791   4.204  0.2627 -0.4949 -0.1153
   76SLPC  H16X 6928   2.242   5.809   4.095  1.7873 -1.9192 -0.1996
   76SLPC  H16Y 6929   2.130   5.744   4.228  0.6352 -1.3534 -0.2160
   76SLPC  C317 6930   2.343   5.697   4.220  0.1725 -0.2562 -0.0279
   76SLPC  H17X 6931   2.341   5.659   4.325  0.3091 -0.2379 -0.0177
   76SLPC  H17Y 6932   2.436   5.757   4.207  1.3621 -1.7324  1.1600
   76SLPC  C318 6933   2.338   5.578   4.129 -0.0051  0.4198  0.1642
   76SLPC  H18X 6934   2.322   5.612   4.024 -0.5356  0.5769  0.2931
   76SLPC  H18Y 6935   2.252   5.510   4.146  1.2387 -1.8184 -1.8300
   76SLPC  H18Z 6936   2.433   5.521   4.145 -0.0027  0.3247 -0.1714
   77SLPC     N 6937   1.430   6.794   6.706 -0.3888  0.5145  0.1987
   77SLPC   C13 6938   1.580   6.780   6.706 -0.6291  0.1655 -0.1460
   77SLPC  H13A 6939   1.636   6.859   6.659 -0.7781  0.1211 -0.3996
   77SLPC  H13B 6940   1.609   6.768   6.810 -2.3131 -2.2806  0.1481
   77SLPC  H13C 6941   1.601   6.688   6.654  1.8375  0.2661  0.5710
   77SLPC   C14 6942   1.401   6.923   6.780 -0.4755 -0.4149 -0.1415
   77SLPC  H14A 6943   1.438   6.931   6.881  1.0907  0.4175 -0.7492
   77SLPC  H14B 6944   1.443   7.006   6.725  0.5799 -0.0972  1.0880
   77SLPC  H14C 6945   1.296   6.949   6.786 -0.7891 -1.7193  0.2697
   77SLPC   C15 6946   1.363   6.684   6.773  1.0241 -0.0101  1.1018
   77SLPC  H15A 6947   1.375   6.586   6.729 -0.0021  0.0418  0.6978
   77SLPC  H15B 6948   1.380   6.670   6.879 -1.3311  1.4597  1.7379
   77SLPC  H15C 6949   1.257   6.703   6.773  1.2067  1.1167 -0.1552
   77SLPC   C12 6950   1.389   6.800   6.557 -0.0393 -0.1379  0.1836
   77SLPC  H12A 6951   1.407   6.703   6.514 -1.8462 -0.8881  0.9950
   77SLPC  H12B 6952   1.458   6.865   6.506  1.5771 -0.5387  1.7481
   77SLPC   C11 6953   1.244   6.828   6.520  0.2409 -0.1923 -0.3581
   77SLPC  H11A 6954   1.236   6.841   6.410 -1.2490  1.5242 -0.0804
   77SLPC  H11B 6955   1.229   6.926   6.568  1.5316 -0.5384  0.8113
   77SLPC     P 6956   1.105   6.606   6.488 -0.3943  0.0526  0.3281
   77SLPC   O13 6957   1.219   6.539   6.419 -0.1755 -0.1900  0.0529
   77SLPC   O14 6958   1.029   6.521   6.581 -0.1198  0.0838 -0.0405
   77SLPC   O12 6959   1.153   6.730   6.574  0.2208 -0.3431  0.4634
   77SLPC   O11 6960   1.005   6.660   6.383  0.6061 -0.2062 -0.0660
   77SLPC    C1 6961   0.862   6.650   6.394  0.0615 -0.5113 -0.1057
   77SLPC    HA 6962   0.830   6.549   6.426  3.1477 -1.1759  1.2530
   77SLPC    HB 6963   0.826   6.711   6.479  0.5034 -3.4212  2.3304
   77SLPC    C2 6964   0.789   6.705   6.266 -0.1996 -0.9748  0.3791
   77SLPC    HS 6965   0.680   6.717   6.286 -0.0155  0.7301  0.4627
   77SLPC   O21 6966   0.806   6.619   6.157 -0.1710 -0.0255  0.9123
   77SLPC   C21 6967   0.740   6.504   6.168  0.1429  0.5700  0.5087
   77SLPC   O22 6968   0.659   6.474   6.254  0.1726 -0.2117 -0.0914
   77SLPC   C22 6969   0.785   6.411   6.051 -0.1882 -0.0687  0.0538
   77SLPC   H2R 6970   0.896   6.412   6.058 -0.1144  2.5856 -0.3939
   77SLPC   H2S 6971   0.757   6.306   6.074 -1.3009  0.3479  0.6572
   77SLPC    C3 6972   0.850   6.837   6.216 -0.0924  0.3970  0.4152
   77SLPC    HX 6973   0.956   6.807   6.196 -0.9051 -3.1930  0.8580
   77SLPC    HY 6974   0.852   6.918   6.292  0.0777  0.2240  0.5969
   77SLPC   O31 6975   0.775   6.878   6.097 -0.4999  0.0772 -0.0731
   77SLPC   C31 6976   0.833   6.865   5.980  0.0971  0.1401  0.7205
   77SLPC   O32 6977   0.942   6.826   5.953  0.4041  0.2684 -0.2377
   77SLPC   C32 6978   0.723   6.889   5.871 -0.1948 -0.0492 -0.0871
   77SLPC   H2X 6979   0.663   6.982   5.882  2.7689  1.8557  0.9582
   77SLPC   H2Y 6980   0.654   6.803   5.887 -0.8108  0.1043 -1.7233
   77SLPC   C23 6981   0.727   6.458   5.919  0.2656 -0.2859 -0.5671
   77SLPC   H3R 6982   0.761   6.563   5.904  0.4063  0.1519  2.2546
   77SLPC   H3S 6983   0.617   6.447   5.921  0.0965  0.8730  2.4600
   77SLPC   C24 6984   0.777   6.371   5.803 -0.0879  0.5398  0.3278
   77SLPC   H4R 6985   0.734   6.268   5.807 -1.3715  1.0302 -0.3027
   77SLPC   H4S 6986   0.886   6.351   5.812  0.2980 -0.1381 -3.8294
   77SLPC   C25 6987   0.743   6.444   5.674  0.1827  0.4657  0.0813
   77SLPC   H5R 6988   0.838   6.488   5.635  0.8910 -0.0461  1.1991
   77SLPC   H5S 6989   0.673   6.529   5.686 -1.3575 -0.8410  0.6395
   77SLPC   C26 6990   0.688   6.362   5.559 -0.0253  1.1591 -0.4434
   77SLPC   H6R 6991   0.585   6.333   5.588  0.1213  0.3385 -0.7133
   77SLPC   H6S 6992   0.746   6.268   5.542  1.0753  2.0327 -1.8018
   77SLPC   C27 6993   0.679   6.440   5.427  0.6581 -0.2289 -0.1156
   77SLPC   H7R 6994   0.786   6.456   5.398  0.9644 -2.3533 -0.3100
   77SLPC   H7S 6995   0.648   6.540   5.464  1.5329 -0.1112  0.3161
   77SLPC   C28 6996   0.580   6.392   5.322  0.2373 -0.9512  0.8386
   77SLPC   H8R 6997   0.564   6.479   5.254 -0.3623 -2.2391 -0.7171
   77SLPC   H8S 6998   0.485   6.375   5.377 -1.9061 -1.9119 -2.8305
   77SLPC   C29 6999   0.619   6.273   5.243  0.2637 -0.5815  0.1433
   77SLPC   H9R 7000   0.718   6.230   5.266  1.0854  1.1967  0.0589
   77SLPC  C210 7001   0.544   6.215   5.144  0.6530  0.3069 -0.6636
   77SLPC  H10R 7002   0.587   6.127   5.093 -0.9457 -1.7756  1.3659
   77SLPC  C211 7003   0.407   6.266   5.099  0.2825  0.2880 -0.2705
   77SLPC  H11R 7004   0.397   6.371   5.131  1.5036  0.8721 -1.6817
   77SLPC  H11S 7005   0.321   6.206   5.138 -0.1887  0.8444 -0.4407
   77SLPC  C212 7006   0.395   6.248   4.951  0.5877  0.0073  0.2296
   77SLPC  H12R 7007   0.357   6.148   4.927 -2.2189  0.4932  2.0924
   77SLPC  C213 7008   0.403   6.344   4.851  0.5135 -0.5906 -0.0149
   77SLPC  H13R 7009   0.400   6.305   4.748 -1.6514 -0.4776 -0.0319
   77SLPC  C214 7010   0.447   6.491   4.872  0.3641 -0.4535  0.5430
   77SLPC  H14R 7011   0.413   6.524   4.973 -1.1666 -0.5217  0.0710
   77SLPC  H14S 7012   0.386   6.552   4.803 -2.0316 -1.3571  1.7032
   77SLPC  C215 7013   0.602   6.499   4.865 -0.0104  0.0045 -0.7273
   77SLPC  H15R 7014   0.636   6.472   4.763  0.5293  1.3568 -0.9265
   77SLPC  H15S 7015   0.647   6.422   4.932  0.1337 -0.8479 -1.7746
   77SLPC  C216 7016   0.638   6.643   4.899 -0.0364  0.2625  0.7692
   77SLPC  H16R 7017   0.591   6.682   4.992 -0.0164 -0.9055  1.2911
   77SLPC  H16S 7018   0.600   6.709   4.819  3.9997  0.8538 -0.9048
   77SLPC  C217 7019   0.791   6.662   4.927  0.5427 -0.0892  0.0213
   77SLPC  H17R 7020   0.816   6.769   4.949  1.8332 -0.5408  0.8796
   77SLPC  H17S 7021   0.855   6.634   4.840  0.6940  1.1952 -0.3061
   77SLPC  C218 7022   0.840   6.591   5.048 -0.7443  0.4535 -0.1428
   77SLPC  H18R 7023   0.841   6.482   5.023  0.6676  0.1953  0.8613
   77SLPC  H18S 7024   0.783   6.609   5.142 -1.1514 -2.0074  0.1522
   77SLPC  H18T 7025   0.948   6.616   5.062 -0.5642 -0.0461 -0.6093
   77SLPC   C33 7026   0.778   6.893   5.728  0.2580 -0.1736  0.3114
   77SLPC   H3X 7027   0.837   6.805   5.694 -1.1516 -0.6637 -1.0061
   77SLPC   H3Y 7028   0.841   6.983   5.709 -0.0922 -0.1749 -0.9565
   77SLPC   C34 7029   0.653   6.903   5.626 -0.4309 -0.5733  0.1182
   77SLPC   H4X 7030   0.590   6.992   5.645 -2.3273 -2.3273  2.6540
   77SLPC   H4Y 7031   0.583   6.821   5.654 -1.2199 -0.7799 -2.1707
   77SLPC   C35 7032   0.695   6.890   5.481  0.5130  0.0522  0.3350
   77SLPC   H5X 7033   0.758   6.799   5.465 -2.5478 -2.1780  0.0201
   77SLPC   H5Y 7034   0.748   6.978   5.439 -1.2559 -0.3241 -3.0726
   77SLPC   C36 7035   0.576   6.889   5.388 -0.1251 -0.5589  0.0146
   77SLPC   H6X 7036   0.495   6.958   5.422 -0.1937  0.2303 -1.6573
   77SLPC   H6Y 7037   0.526   6.790   5.401  0.5734 -0.9334 -0.1126
   77SLPC   C37 7038   0.595   6.927   5.239 -0.3794  0.6700 -0.2830
   77SLPC   H7X 7039   0.676   6.865   5.196 -0.9774 -1.5639  1.5951
   77SLPC   H7Y 7040   0.639   7.029   5.233  2.3360 -0.4693 -1.6109
   77SLPC   C38 7041   0.468   6.910   5.162  0.0085 -0.6947  0.8187
   77SLPC   H8X 7042   0.385   6.966   5.212  0.5073 -0.5012  1.4355
   77SLPC   H8Y 7043   0.453   6.801   5.149  0.4826 -0.5184 -1.6028
   77SLPC   C39 7044   0.483   6.976   5.021  0.1537  0.2972  0.8295
   77SLPC   H9X 7045   0.569   6.922   4.975  0.4521  0.5339  1.0992
   77SLPC   H9Y 7046   0.505   7.085   5.027 -0.1136  0.5637 -1.8493
   77SLPC  C310 7047   0.362   6.961   4.925  0.2850  0.5001 -0.7930
   77SLPC  H10X 7048   0.269   7.007   4.965  0.9626 -1.3442  3.4177
   77SLPC  H10Y 7049   0.348   6.853   4.906 -0.0432  0.3647  0.1609
   77SLPC  C311 7050   0.392   7.042   4.799  0.4324  0.2065  0.2612
   77SLPC  H11X 7051   0.447   6.973   4.731 -1.5233 -0.3561 -0.8284
   77SLPC  H11Y 7052   0.461   7.124   4.829  0.0062  1.2222 -1.3859
   77SLPC  C312 7053   0.267   7.096   4.727  0.4964 -0.1936 -0.8592
   77SLPC  H12X 7054   0.298   7.143   4.631  3.2255  1.1309  0.5770
   77SLPC  H12Y 7055   0.240   7.180   4.795  2.1841 -0.0678 -0.2939
   77SLPC  C313 7056   0.155   6.989   4.719  0.0310  0.2523 -0.0378
   77SLPC  H13X 7057   0.131   6.951   4.821  0.9840 -0.7721 -0.1667
   77SLPC  H13Y 7058   0.206   6.911   4.657 -0.7167  1.6125 -2.4907
   77SLPC  C314 7059   0.032   7.038   4.649 -0.0773  0.1875  0.3903
   77SLPC  H14X 7060   0.057   7.107   4.566 -1.9618  1.0794  0.5351
   77SLPC  H14Y 7061  -0.030   7.101   4.716  0.6021  0.7353  0.5173
   77SLPC  C315 7062  -0.051   6.918   4.594  0.0397  0.1082 -0.7756
   77SLPC  H15X 7063  -0.056   6.840   4.673  1.6884 -0.8874 -1.6253
   77SLPC  H15Y 7064   0.018   6.876   4.518  0.2423 -0.3846 -0.3244
   77SLPC  C316 7065  -0.190   6.957   4.533 -0.6434  0.3751 -0.5567
   77SLPC  H16X 7066  -0.252   7.002   4.613 -0.9610 -2.6296  1.0306
   77SLPC  H16Y 7067  -0.244   6.862   4.513 -1.2059  0.4906  0.3537
   77SLPC  C317 7068  -0.169   7.043   4.413  0.4165  0.2286  0.3250
   77SLPC  H17X 7069  -0.108   6.986   4.340  3.4680  2.9631  0.4998
   77SLPC  H17Y 7070  -0.103   7.129   4.436  0.0361  0.7523 -0.4698
   77SLPC  C318 7071  -0.298   7.102   4.335  0.0885  0.0569  0.0817
   77SLPC  H18X 7072  -0.351   7.172   4.402  0.0453 -0.4217  0.5507
   77SLPC  H18Y 7073  -0.368   7.020   4.308 -0.9399  1.0524 -0.3257
   77SLPC  H18Z 7074  -0.275   7.157   4.241  1.4034 -0.7928 -0.1194
   78SLPC     N 7075   5.346   3.820   7.276  0.0270 -0.4612 -0.4326
   78SLPC   C13 7076   5.431   3.804   7.402 -0.1293 -0.5033  0.5843
   78SLPC  H13A 7077   5.480   3.708   7.411 -2.5567 -1.7550  1.2767
   78SLPC  H13B 7078   5.509   3.879   7.400 -0.1187 -0.5202 -1.6045
   78SLPC  H13C 7079   5.377   3.814   7.495 -0.6272 -2.3579  0.5340
   78SLPC   C14 7080   5.306   3.964   7.275  0.0150 -0.1658 -0.2152
   78SLPC  H14A 7081   5.242   3.986   7.359 -0.3660  0.8733 -0.7569
   78SLPC  H14B 7082   5.391   4.029   7.283 -0.4296  0.5450 -1.1282
   78SLPC  H14C 7083   5.253   3.994   7.186 -0.2099  1.8317  0.5446
   78SLPC   C15 7084   5.226   3.731   7.294  0.3153 -0.3929 -0.3722
   78SLPC  H15A 7085   5.248   3.637   7.343  1.1375 -1.0454 -1.9119
   78SLPC  H15B 7086   5.157   3.780   7.362  0.2223  2.7531 -2.4952
   78SLPC  H15C 7087   5.179   3.709   7.200 -1.9998 -1.0274  0.8704
   78SLPC   C12 7088   5.429   3.789   7.153 -0.1381  0.0326  0.8751
   78SLPC  H12A 7089   5.483   3.697   7.170  1.8304  1.0529  0.4426
   78SLPC  H12B 7090   5.507   3.863   7.152 -2.6943  2.8950 -0.3661
   78SLPC   C11 7091   5.365   3.790   7.012 -0.8634  0.3601 -0.5239
   78SLPC  H11A 7092   5.296   3.704   7.017 -1.5196  0.8423 -1.1271
   78SLPC  H11B 7093   5.430   3.761   6.927  1.2165  0.1558  1.0430
   78SLPC     P 7094   5.332   4.020   6.881  0.1671 -0.0315 -0.0508
   78SLPC   O13 7095   5.219   4.114   6.896 -0.2416 -0.0408  0.2756
   78SLPC   O14 7096   5.469   4.071   6.909 -0.0440  0.1779 -0.0745
   78SLPC   O12 7097   5.288   3.905   6.977  0.9199  0.5817  0.0693
   78SLPC   O11 7098   5.332   3.952   6.729  0.3815 -0.6974 -0.3583
   78SLPC    C1 7099   5.217   3.874   6.694 -0.6165 -0.2174  0.8259
   78SLPC    HA 7100   5.223   3.783   6.757  0.9041  0.6171  1.9632
   78SLPC    HB 7101   5.129   3.940   6.707 -0.5025  0.4572 -1.4313
   78SLPC    C2 7102   5.229   3.825   6.544  0.6826 -0.1446 -0.5623
   78SLPC    HS 7103   5.160   3.739   6.528 -0.6794  0.6723  0.6616
   78SLPC   O21 7104   5.369   3.775   6.527  0.3183  0.0534 -0.1939
   78SLPC   C21 7105   5.400   3.662   6.595  0.2727 -0.1777 -0.4594
   78SLPC   O22 7106   5.316   3.593   6.655 -0.4484 -0.4801  0.2154
   78SLPC   C22 7107   5.553   3.650   6.610 -0.8853  0.1239 -0.2314
   78SLPC   H2R 7108   5.609   3.732   6.560 -0.0482 -0.4688 -0.2787
   78SLPC   H2S 7109   5.558   3.655   6.720  0.3764 -1.3643 -0.1972
   78SLPC    C3 7110   5.198   3.941   6.450  0.3675  0.2932 -0.3113
   78SLPC    HX 7111   5.253   4.030   6.487  0.3351  0.5043 -0.7645
   78SLPC    HY 7112   5.094   3.978   6.447  0.1600 -0.2919 -0.4839
   78SLPC   O31 7113   5.244   3.903   6.315 -1.0117  0.3231 -0.2839
   78SLPC   C31 7114   5.215   3.993   6.222 -0.1027  0.4724 -0.2266
   78SLPC   O32 7115   5.157   4.096   6.248 -0.1713  0.6123 -1.4302
   78SLPC   C32 7116   5.240   3.942   6.083 -0.0835 -0.7136 -0.6438
   78SLPC   H2X 7117   5.138   3.948   6.039 -0.2623  0.9282 -0.0828
   78SLPC   H2Y 7118   5.268   3.835   6.092 -2.1732 -1.3135 -0.6867
   78SLPC   C23 7119   5.608   3.509   6.566 -0.3378  0.1626 -0.2170
   78SLPC   H3R 7120   5.560   3.432   6.631  1.5107  0.1869  1.2607
   78SLPC   H3S 7121   5.714   3.490   6.592 -0.6861 -2.6361 -0.5126
   78SLPC   C24 7122   5.578   3.481   6.424 -0.3303 -0.2073  0.1371
   78SLPC   H4R 7123   5.605   3.559   6.351 -1.4257  0.6119  0.5793
   78SLPC   H4S 7124   5.468   3.472   6.413 -0.4565 -0.8945  1.6308
   78SLPC   C25 7125   5.645   3.346   6.375 -0.7952  0.0462 -0.0764
   78SLPC   H5R 7126   5.617   3.258   6.436 -2.3408  1.1211  0.8361
   78SLPC   H5S 7127   5.754   3.357   6.396 -0.9267 -1.0107  1.2858
   78SLPC   C26 7128   5.637   3.304   6.226  0.4937  0.6198  0.2243
   78SLPC   H6R 7129   5.675   3.390   6.167 -0.8544  1.1574  0.0885
   78SLPC   H6S 7130   5.539   3.273   6.183  1.8366 -2.9365 -0.6471
   78SLPC   C27 7131   5.736   3.192   6.192  0.0915  0.1593 -0.1058
   78SLPC   H7R 7132   5.708   3.103   6.252  0.0764  0.8246  0.9111
   78SLPC   H7S 7133   5.833   3.227   6.232 -0.8422 -0.2337  2.7962
   78SLPC   C28 7134   5.743   3.153   6.049  0.7916  1.0270  0.6815
   78SLPC   H8R 7135   5.747   3.253   6.000 -1.5275  1.3968  1.1469
   78SLPC   H8S 7136   5.649   3.104   6.016  2.1282 -1.0430 -0.2929
   78SLPC   C29 7137   5.867   3.070   6.016  0.2933 -0.1669  0.0061
   78SLPC   H9R 7138   5.949   3.138   5.990 -0.5787  0.7276 -0.5068
   78SLPC  C210 7139   5.872   2.942   5.989 -0.1883  0.0656 -0.0064
   78SLPC  H10R 7140   5.963   2.887   5.960 -1.2061 -1.9646  0.4243
   78SLPC  C211 7141   5.757   2.849   5.996  0.0118 -0.1375 -0.0102
   78SLPC  H11R 7142   5.721   2.833   5.892 -1.4389 -1.4272  0.6425
   78SLPC  H11S 7143   5.678   2.893   6.060  0.0075  1.6406 -1.1713
   78SLPC  C212 7144   5.814   2.730   6.062  0.6102 -0.6002  0.6010
   78SLPC  H12R 7145   5.860   2.754   6.159  0.9771  0.7284  0.1192
   78SLPC  C213 7146   5.805   2.604   6.010 -0.3500  0.1191  0.2610
   78SLPC  H13R 7147   5.857   2.522   6.062 -3.1536 -2.6834 -1.0139
   78SLPC  C214 7148   5.735   2.562   5.882  0.2278 -0.3355 -0.0210
   78SLPC  H14R 7149   5.626   2.569   5.900  0.2223 -2.1630  0.9264
   78SLPC  H14S 7150   5.744   2.452   5.869 -1.7246 -0.9616  3.0551
   78SLPC  C215 7151   5.787   2.627   5.750  0.2356 -0.3700  0.5398
   78SLPC  H15R 7152   5.874   2.694   5.764  1.2264 -1.0443 -1.9095
   78SLPC  H15S 7153   5.709   2.691   5.704  2.7450  2.6364  0.1791
   78SLPC  C216 7154   5.822   2.508   5.656 -0.3851 -0.8292 -0.0845
   78SLPC  H16R 7155   5.735   2.454   5.612 -0.1405 -0.2196 -1.3868
   78SLPC  H16S 7156   5.879   2.436   5.718 -0.4181 -1.2049 -0.4799
   78SLPC  C217 7157   5.911   2.558   5.540  0.5523 -0.6094  0.0561
   78SLPC  H17R 7158   5.975   2.644   5.569 -1.1939  0.5358  0.7420
   78SLPC  H17S 7159   5.841   2.606   5.467 -0.2978  0.3190  1.4196
   78SLPC  C218 7160   5.986   2.448   5.464  0.3105  0.1212 -0.0911
   78SLPC  H18R 7161   6.068   2.402   5.523 -1.3202 -0.1163  2.0800
   78SLPC  H18S 7162   6.030   2.498   5.375 -1.1712 -1.5261 -1.8253
   78SLPC  H18T 7163   5.913   2.370   5.436 -0.9385  1.4309 -0.5926
   78SLPC   C33 7164   5.360   4.016   6.016  0.1294 -1.1577 -0.1981
   78SLPC   H3X 7165   5.453   3.998   6.074 -1.0497 -1.5459  1.6313
   78SLPC   H3Y 7166   5.354   4.127   6.016  3.7583 -0.8456 -0.9848
   78SLPC   C34 7167   5.366   3.965   5.872 -0.8628  0.5731  0.5100
   78SLPC   H4X 7168   5.269   3.978   5.820 -2.1352 -1.2860  2.2482
   78SLPC   H4Y 7169   5.378   3.855   5.884  0.7160  0.5189 -1.2037
   78SLPC   C35 7170   5.483   4.016   5.784 -0.1955  0.4717  0.2124
   78SLPC   H5X 7171   5.577   4.002   5.841 -0.9707  0.2874  1.4781
   78SLPC   H5Y 7172   5.457   4.123   5.768 -0.1719  0.7047  1.5968
   78SLPC   C36 7173   5.481   3.938   5.650 -0.0839  0.0450 -0.6437
   78SLPC   H6X 7174   5.401   3.978   5.584  0.1092 -1.6945 -2.0079
   78SLPC   H6Y 7175   5.456   3.829   5.657 -0.1039 -0.0442 -1.8803
   78SLPC   C37 7176   5.609   3.961   5.570 -0.5376  0.4642  0.5099
   78SLPC   H7X 7177   5.692   3.912   5.626 -1.2383  0.3352  1.4577
   78SLPC   H7Y 7178   5.625   4.069   5.549  0.6630 -0.1191 -2.0195
   78SLPC   C38 7179   5.614   3.887   5.430  0.3856  0.2677 -0.4044
   78SLPC   H8X 7180   5.560   3.792   5.449  0.7162  0.3606  1.1427
   78SLPC   H8Y 7181   5.719   3.854   5.414  0.0749 -0.1059 -1.8020
   78SLPC   C39 7182   5.580   3.972   5.308  0.4107 -0.7001  0.1206
   78SLPC   H9X 7183   5.646   4.061   5.298  0.9357 -0.9197  1.3808
   78SLPC   H9Y 7184   5.474   4.000   5.322 -0.0329 -2.1092 -0.2741
   78SLPC  C310 7185   5.579   3.888   5.178  0.4217 -0.1417 -0.4353
   78SLPC  H10X 7186   5.530   3.791   5.197 -1.7179  1.0036  0.2694
   78SLPC  H10Y 7187   5.685   3.873   5.150  0.5340 -1.3218  0.5770
   78SLPC  C311 7188   5.505   3.966   5.064 -0.0765 -0.0746  0.4745
   78SLPC  H11X 7189   5.534   4.073   5.074 -1.2681  0.4154 -1.0303
   78SLPC  H11Y 7190   5.394   3.970   5.060 -0.0203  0.8928 -0.5933
   78SLPC  C312 7191   5.541   3.924   4.917 -0.0540  0.0855  0.3312
   78SLPC  H12X 7192   5.447   3.917   4.857 -0.2655  2.9930  0.1494
   78SLPC  H12Y 7193   5.589   3.825   4.910  2.5537  1.2833  0.1667
   78SLPC  C313 7194   5.653   4.013   4.847  0.3526 -0.0740 -0.1552
   78SLPC  H13X 7195   5.754   3.992   4.889  1.3364 -0.1479 -2.3984
   78SLPC  H13Y 7196   5.625   4.120   4.861  0.9811  0.1791 -0.7798
   78SLPC  C314 7197   5.667   3.975   4.699  0.4273 -0.1602 -0.0497
   78SLPC  H14X 7198   5.764   4.018   4.666  1.0749 -1.5807 -0.0899
   78SLPC  H14Y 7199   5.582   4.012   4.637  0.4961 -0.8984 -0.6026
   78SLPC  C315 7200   5.681   3.827   4.674  0.0937 -0.3905 -0.3801
   78SLPC  H15X 7201   5.581   3.791   4.707 -0.3548  0.8888 -0.2854
   78SLPC  H15Y 7202   5.759   3.775   4.734  0.5435  0.3614 -0.2931
   78SLPC  C316 7203   5.704   3.808   4.526 -0.5736 -0.1265  0.0187
   78SLPC  H16X 7204   5.811   3.821   4.500 -0.3722 -2.2299 -0.4458
   78SLPC  H16Y 7205   5.659   3.891   4.467  2.6282  0.5770 -1.6435
   78SLPC  C317 7206   5.645   3.680   4.475 -0.4529 -0.2636 -0.4230
   78SLPC  H17X 7207   5.568   3.641   4.544  0.6053 -3.1116 -0.7238
   78SLPC  H17Y 7208   5.724   3.601   4.477 -1.2020 -1.0347  1.7153
   78SLPC  C318 7209   5.590   3.683   4.331  0.1788 -0.6138 -0.2636
   78SLPC  H18X 7210   5.571   3.579   4.296 -0.2532 -0.0432 -1.8239
   78SLPC  H18Y 7211   5.650   3.731   4.251  2.1202 -1.8347  0.3581
   78SLPC  H18Z 7212   5.492   3.734   4.336  0.5446  0.1396 -0.7000
   79SLPC     N 7213   5.599   5.740   6.930 -0.2037  0.0513  0.1311
   79SLPC   C13 7214   5.647   5.687   7.058  0.1334  0.1904 -0.4478
   79SLPC  H13A 7215   5.743   5.639   7.043  0.6897  1.2006 -0.1929
   79SLPC  H13B 7216   5.658   5.769   7.127 -1.9705  0.6074 -0.5666
   79SLPC  H13C 7217   5.589   5.609   7.105  1.6330 -0.2485  0.7823
   79SLPC   C14 7218   5.565   5.622   6.837 -0.6706  0.1826 -0.8300
   79SLPC  H14A 7219   5.563   5.666   6.738 -0.9431 -0.5471 -1.1557
   79SLPC  H14B 7220   5.638   5.545   6.855  0.1394  0.6127 -2.1613
   79SLPC  H14C 7221   5.468   5.577   6.850 -2.2096  2.5498 -3.0659
   79SLPC   C15 7222   5.697   5.813   6.857 -0.1291  0.6645 -0.4607
   79SLPC  H15A 7223   5.749   5.891   6.912  1.5920 -0.2507 -0.7379
   79SLPC  H15B 7224   5.771   5.746   6.817 -2.2544 -0.5289 -2.6096
   79SLPC  H15C 7225   5.657   5.862   6.769 -0.1471 -0.1568 -0.9121
   79SLPC   C12 7226   5.470   5.815   6.953 -0.1642  0.1304  0.2773
   79SLPC  H12A 7227   5.489   5.902   7.014 -0.7447 -0.5283  1.4408
   79SLPC  H12B 7228   5.418   5.749   7.022  2.6077 -1.2059  1.2724
   79SLPC   C11 7229   5.375   5.858   6.835  0.2438 -0.1314 -0.7126
   79SLPC  H11A 7230   5.278   5.896   6.873  0.7621  1.9953 -1.4058
   79SLPC  H11B 7231   5.353   5.762   6.783  4.4358 -1.8941  0.2851
   79SLPC     P 7232   5.448   6.109   6.811  0.2908 -0.1226 -0.7282
   79SLPC   O13 7233   5.453   6.094   6.964  0.0834 -0.7392  0.8001
   79SLPC   O14 7234   5.558   6.182   6.747  0.2239  0.1682 -0.4797
   79SLPC   O12 7235   5.438   5.958   6.752  0.1931  0.4659  0.0666
   79SLPC   O11 7236   5.313   6.177   6.767 -0.2626 -0.2333  0.2107
   79SLPC    C1 7237   5.291   6.229   6.635  0.1197 -0.2758 -0.0759
   79SLPC    HA 7238   5.197   6.287   6.625  0.2213 -0.1116 -0.0981
   79SLPC    HB 7239   5.375   6.301   6.619  0.6334  0.1370  3.5550
   79SLPC    C2 7240   5.291   6.126   6.524  0.1803 -0.2812 -0.0329
   79SLPC    HS 7241   5.385   6.067   6.523  1.9928  2.3332 -3.2320
   79SLPC   O21 7242   5.273   6.203   6.398 -0.1032 -0.8247  0.0839
   79SLPC   C21 7243   5.374   6.204   6.317  0.2089  0.2498 -0.2772
   79SLPC   O22 7244   5.491   6.179   6.353  0.6042  0.0015  0.4708
   79SLPC   C22 7245   5.333   6.257   6.176 -0.4837 -0.3111 -0.2003
   79SLPC   H2R 7246   5.260   6.338   6.199  0.2598 -0.1507  1.8276
   79SLPC   H2S 7247   5.414   6.313   6.125 -0.0949  0.1743  0.9285
   79SLPC    C3 7248   5.165   6.032   6.537 -0.5063 -0.7937  0.2608
   79SLPC    HX 7249   5.076   6.089   6.505 -0.8932 -1.2604  0.4919
   79SLPC    HY 7250   5.158   6.010   6.646 -3.1672 -0.2226  0.2727
   79SLPC   O31 7251   5.184   5.914   6.452  0.1425 -0.4289 -0.4708
   79SLPC   C31 7252   5.082   5.873   6.380 -0.0497 -0.3088 -0.2963
   79SLPC   O32 7253   4.975   5.933   6.369 -0.0472 -0.4023  0.1213
   79SLPC   C32 7254   5.129   5.757   6.291 -0.4300  0.4018  0.0060
   79SLPC   H2X 7255   5.126   5.662   6.348  0.5594  0.9695  1.0363
   79SLPC   H2Y 7256   5.229   5.789   6.254 -0.4563  0.4264 -0.0436
   79SLPC   C23 7257   5.265   6.153   6.102  1.0492  0.0912 -0.5271
   79SLPC   H3R 7258   5.200   6.202   6.027  1.8813 -0.0805 -1.3788
   79SLPC   H3S 7259   5.194   6.089   6.158 -0.2204 -1.8680 -4.0475
   79SLPC   C24 7260   5.360   6.066   6.031  0.9701 -0.0657  0.0525
   79SLPC   H4R 7261   5.303   5.991   5.972 -0.8956  1.1988  0.1472
   79SLPC   H4S 7262   5.427   6.020   6.106 -0.4759  0.2318  1.5961
   79SLPC   C25 7263   5.448   6.140   5.931 -0.0607  0.1353 -0.4408
   79SLPC   H5R 7264   5.515   6.066   5.881 -2.7639 -2.8134  0.0080
   79SLPC   H5S 7265   5.510   6.216   5.983  0.7773 -1.0997  0.4267
   79SLPC   C26 7266   5.368   6.209   5.820 -0.6737  0.3022 -0.8900
   79SLPC   H6R 7267   5.313   6.295   5.864  1.7478  0.7899  1.5107
   79SLPC   H6S 7268   5.298   6.130   5.786 -0.2371  0.2541 -1.6850
   79SLPC   C27 7269   5.459   6.256   5.707  0.3635 -0.0213 -0.9214
   79SLPC   H7R 7270   5.522   6.175   5.664  1.3064 -0.5853  1.3976
   79SLPC   H7S 7271   5.520   6.340   5.745 -0.1196  0.0460 -0.2725
   79SLPC   C28 7272   5.372   6.317   5.599  0.3593  0.1265  0.1765
   79SLPC   H8R 7273   5.309   6.400   5.638 -0.5444 -1.0772  1.3868
   79SLPC   H8S 7274   5.307   6.238   5.555 -0.4731  1.0092 -0.2149
   79SLPC   C29 7275   5.464   6.371   5.493 -0.0712 -0.1552  0.1615
   79SLPC   H9R 7276   5.530   6.454   5.524  0.6756 -0.5841 -0.2706
   79SLPC  C210 7277   5.448   6.351   5.360  0.3041  0.0826 -0.3584
   79SLPC  H10R 7278   5.525   6.392   5.293 -0.2601  2.4942  0.3978
   79SLPC  C211 7279   5.338   6.271   5.285 -0.0462 -0.3787 -0.7312
   79SLPC  H11R 7280   5.292   6.360   5.237 -2.5329  0.1897  2.3657
   79SLPC  H11S 7281   5.268   6.226   5.359 -1.3310  0.5774 -1.3134
   79SLPC  C212 7282   5.383   6.166   5.183 -0.2054  0.6907  0.2215
   79SLPC  H12R 7283   5.445   6.083   5.221 -0.8427  0.7200  1.3929
   79SLPC  C213 7284   5.372   6.162   5.049  0.0633  0.0191 -0.4970
   79SLPC  H13R 7285   5.417   6.082   4.988  0.1898 -0.1508 -0.1814
   79SLPC  C214 7286   5.296   6.258   4.974  0.3618  0.4209  0.8319
   79SLPC  H14R 7287   5.219   6.308   5.036 -0.0879  0.0755  0.5576
   79SLPC  H14S 7288   5.240   6.196   4.900  0.9905  0.2823  0.4615
   79SLPC  C215 7289   5.364   6.353   4.876 -0.3414  0.7940 -0.0736
   79SLPC  H15R 7290   5.415   6.433   4.934  0.2369  0.1892  0.2635
   79SLPC  H15S 7291   5.296   6.406   4.806 -0.2607  1.0094  0.0090
   79SLPC  C216 7292   5.476   6.289   4.789  0.6168 -0.2715  0.1036
   79SLPC  H16R 7293   5.557   6.255   4.857 -0.4246 -1.4243  0.8105
   79SLPC  H16S 7294   5.513   6.367   4.719 -1.0637  1.0921  0.6711
   79SLPC  C217 7295   5.429   6.175   4.701 -0.0524  0.3207  0.1964
   79SLPC  H17R 7296   5.396   6.089   4.763 -2.3436 -0.3132 -1.7361
   79SLPC  H17S 7297   5.510   6.142   4.632  0.5449  0.3992  0.8481
   79SLPC  C218 7298   5.307   6.213   4.609 -0.1028 -0.7923  0.0935
   79SLPC  H18R 7299   5.216   6.257   4.657 -0.6264 -1.5862 -0.1521
   79SLPC  H18S 7300   5.268   6.126   4.553 -1.3548  1.1681 -2.3049
   79SLPC  H18T 7301   5.353   6.279   4.532 -0.8720  1.8204  1.7104
   79SLPC   C33 7302   5.035   5.730   6.162  0.2609  0.1383  0.4429
   79SLPC   H3X 7303   4.931   5.701   6.189 -0.3666  1.3597 -0.5632
   79SLPC   H3Y 7304   5.084   5.647   6.107 -0.4472  0.1142 -0.1644
   79SLPC   C34 7305   5.048   5.842   6.063  0.6585  0.2988 -0.5641
   79SLPC   H4X 7306   5.156   5.864   6.050  0.5292  1.2472 -0.1047
   79SLPC   H4Y 7307   4.986   5.923   6.108  0.8213  0.5804 -0.8367
   79SLPC   C35 7308   4.990   5.808   5.925 -0.2543  0.0502  0.1133
   79SLPC   H5X 7309   4.883   5.782   5.933 -0.8679  1.7537 -1.7253
   79SLPC   H5Y 7310   5.035   5.711   5.894  1.0571 -0.4034  3.1220
   79SLPC   C36 7311   5.010   5.920   5.831 -0.2639  1.0297  0.4812
   79SLPC   H6X 7312   5.114   5.959   5.838 -0.4667  1.5479  0.6854
   79SLPC   H6Y 7313   4.934   5.997   5.857 -1.5071  0.5522 -1.5439
   79SLPC   C37 7314   5.008   5.870   5.686  0.6575 -0.2507  0.6522
   79SLPC   H7X 7315   4.902   5.841   5.665  0.4216  1.3796 -0.6304
   79SLPC   H7Y 7316   5.076   5.784   5.669 -0.1541 -0.5467 -1.4328
   79SLPC   C38 7317   5.042   5.984   5.595  0.4345  0.1300 -0.3819
   79SLPC   H8X 7318   5.134   6.038   5.625 -0.8388  1.2575  1.7313
   79SLPC   H8Y 7319   4.967   6.066   5.600  2.7280  2.3010  0.8438
   79SLPC   C39 7320   5.038   5.938   5.445 -0.3477  0.3514  0.6965
   79SLPC   H9X 7321   5.069   6.027   5.387 -0.7045 -1.1214 -1.8985
   79SLPC   H9Y 7322   4.935   5.932   5.404  0.0357  1.6547 -0.5491
   79SLPC  C310 7323   5.140   5.824   5.413  0.0043 -1.0283 -0.4404
   79SLPC  H10X 7324   5.133   5.739   5.484 -2.3481 -0.5489 -0.0358
   79SLPC  H10Y 7325   5.245   5.859   5.408  1.3081 -4.4479  0.2909
   79SLPC  C311 7326   5.119   5.766   5.273 -0.1861 -0.1630  0.1242
   79SLPC  H11X 7327   5.123   5.861   5.217 -2.4817  0.9632  1.7181
   79SLPC  H11Y 7328   5.015   5.728   5.266 -1.1241  1.8225  2.0610
   79SLPC  C312 7329   5.217   5.656   5.230 -0.8590  0.5417  0.1221
   79SLPC  H12X 7330   5.187   5.632   5.126 -1.3605  1.2867  0.0914
   79SLPC  H12Y 7331   5.193   5.565   5.289  0.3087  0.0784 -0.0842
   79SLPC  C313 7332   5.368   5.696   5.223 -0.0927  0.0520  0.0273
   79SLPC  H13X 7333   5.400   5.710   5.329  0.6170 -1.2741  0.0015
   79SLPC  H13Y 7334   5.379   5.794   5.171 -1.1084 -0.6121 -1.4841
   79SLPC  C314 7335   5.446   5.583   5.157 -0.2600  0.2762 -0.0207
   79SLPC  H14X 7336   5.436   5.583   5.046  2.6222  0.5984 -0.3590
   79SLPC  H14Y 7337   5.411   5.488   5.203  0.9634 -0.0319  0.3082
   79SLPC  C315 7338   5.594   5.599   5.189  0.6101  0.2204  0.0808
   79SLPC  H15X 7339   5.615   5.661   5.279 -2.3382  1.3468  0.0743
   79SLPC  H15Y 7340   5.644   5.640   5.099 -0.7342  0.3812 -0.6135
   79SLPC  C316 7341   5.672   5.462   5.221 -0.5585 -0.4075 -0.5951
   79SLPC  H16X 7342   5.672   5.400   5.129  0.5628 -0.7571 -0.3723
   79SLPC  H16Y 7343   5.617   5.414   5.305 -3.5487  1.5761 -1.2379
   79SLPC  C317 7344   5.818   5.491   5.266 -0.1351 -0.5878  0.0226
   79SLPC  H17X 7345   5.873   5.410   5.318  0.4013  1.0392  2.1795
   79SLPC  H17Y 7346   5.810   5.579   5.334  3.3561 -0.2608  0.1991
   79SLPC  C318 7347   5.912   5.550   5.151  0.4795 -0.1003  0.2906
   79SLPC  H18X 7348   5.947   5.653   5.173  0.5291 -0.5548  2.6443
   79SLPC  H18Y 7349   5.854   5.543   5.057  0.0550  0.6091  0.4888
   79SLPC  H18Z 7350   6.007   5.494   5.142  1.4867  1.3098  1.5351
   80SLPC     N 7351   0.544   0.172   6.571  0.0141 -0.2409  0.8816
   80SLPC   C13 7352   0.507   0.077   6.458 -0.5777 -0.5777  0.1690
   80SLPC  H13A 7353   0.458   0.129   6.376  1.5676 -0.1749 -0.9266
   80SLPC  H13B 7354   0.588   0.014   6.425 -0.6815 -1.8985  2.2806
   80SLPC  H13C 7355   0.439  -0.002   6.488  0.5743 -1.3796  0.7638
   80SLPC   C14 7356   0.639   0.122   6.666 -0.4787 -0.4993 -0.0323
   80SLPC  H14A 7357   0.614   0.174   6.757 -1.3548  1.0062 -1.0921
   80SLPC  H14B 7358   0.625   0.017   6.689 -0.1171 -0.2234  1.5645
   80SLPC  H14C 7359   0.742   0.126   6.632  0.5971 -0.5513  2.9639
   80SLPC   C15 7360   0.421   0.180   6.654  0.3868  0.0698 -0.3528
   80SLPC  H15A 7361   0.331   0.224   6.614 -0.1543 -0.8423 -0.1541
   80SLPC  H15B 7362   0.388   0.080   6.679 -0.8595  1.0674  2.2876
   80SLPC  H15C 7363   0.434   0.235   6.746 -0.3114 -0.4755  0.0810
   80SLPC   C12 7364   0.578   0.314   6.528  0.3537 -0.4088  0.1160
   80SLPC  H12A 7365   0.620   0.363   6.614 -1.5437  0.2249  0.7217
   80SLPC  H12B 7366   0.487   0.362   6.494  0.0232 -0.1455  1.3261
   80SLPC   C11 7367   0.686   0.329   6.413  0.6805  0.1070  0.4759
   80SLPC  H11A 7368   0.688   0.436   6.386 -2.3487  0.4163  1.1284
   80SLPC  H11B 7369   0.656   0.262   6.329  1.3985 -0.3523  0.5728
   80SLPC     P 7370   0.908   0.369   6.549 -0.1377 -0.1789  0.0373
   80SLPC   O13 7371   0.831   0.467   6.628 -0.4662  0.1097  0.4177
   80SLPC   O14 7372   0.977   0.271   6.629 -0.5674 -0.4661 -0.0273
   80SLPC   O12 7373   0.819   0.282   6.453 -0.6309  0.1016  0.2768
   80SLPC   O11 7374   1.003   0.457   6.457 -0.4716  0.1801  0.3548
   80SLPC    C1 7375   1.057   0.392   6.340  0.3285 -0.8121 -0.1449
   80SLPC    HA 7376   1.158   0.433   6.320  0.2822 -0.7499 -0.2520
   80SLPC    HB 7377   1.060   0.282   6.351 -0.8467 -0.9253 -0.7542
   80SLPC    C2 7378   0.975   0.428   6.208 -0.4254  0.1381 -0.8140
   80SLPC    HS 7379   0.872   0.391   6.221 -0.1283 -0.6829 -0.7068
   80SLPC   O21 7380   1.049   0.383   6.088  0.3805  0.4614  0.3262
   80SLPC   C21 7381   0.970   0.352   6.001 -0.7969  0.9101  0.1229
   80SLPC   O22 7382   0.849   0.355   6.000  0.3004 -0.1324 -0.3044
   80SLPC   C22 7383   1.043   0.311   5.874 -0.2250  0.3493 -0.3421
   80SLPC   H2R 7384   1.150   0.340   5.879 -0.0229 -0.5209  0.7741
   80SLPC   H2S 7385   1.043   0.200   5.875 -1.9243  0.3102  0.5142
   80SLPC    C3 7386   0.962   0.581   6.212  0.1038 -0.9006  0.5381
   80SLPC    HX 7387   1.065   0.619   6.225 -0.2816  0.4903 -0.2174
   80SLPC    HY 7388   0.894   0.604   6.296  1.6257  1.4642  1.2274
   80SLPC   O31 7389   0.917   0.632   6.081 -0.2561 -0.1545 -0.1724
   80SLPC   C31 7390   0.788   0.665   6.077  0.4823  0.0868 -0.2642
   80SLPC   O32 7391   0.704   0.637   6.162 -0.3658  0.4884  0.0291
   80SLPC   C32 7392   0.744   0.742   5.947  0.0249  0.1760  0.9608
   80SLPC   H2X 7393   0.812   0.830   5.948  2.0504 -1.2836  2.8123
   80SLPC   H2Y 7394   0.641   0.781   5.940  0.1899  0.3073 -1.2765
   80SLPC   C23 7395   0.976   0.374   5.746 -0.1917 -0.2217 -0.2101
   80SLPC   H3R 7396   1.002   0.482   5.748  0.8673 -0.3946 -2.1538
   80SLPC   H3S 7397   0.866   0.361   5.746 -0.0842 -1.2098  0.1673
   80SLPC   C24 7398   1.036   0.308   5.620  0.1969 -0.3121  0.2380
   80SLPC   H4R 7399   1.020   0.198   5.612  0.9162 -0.3807 -0.3401
   80SLPC   H4S 7400   1.146   0.310   5.633  0.1125  0.8381  0.9209
   80SLPC   C25 7401   0.983   0.362   5.491  0.0087 -0.4325 -0.3150
   80SLPC   H5R 7402   1.001   0.472   5.494 -0.9012 -0.1660 -2.6974
   80SLPC   H5S 7403   0.874   0.341   5.485  0.2273 -1.8346  0.2559
   80SLPC   C26 7404   1.048   0.318   5.360 -0.2386  0.6457  0.7770
   80SLPC   H6R 7405   1.047   0.207   5.359 -1.1248  0.6105 -1.9866
   80SLPC   H6S 7406   1.157   0.342   5.368 -0.1810  0.2635  1.2396
   80SLPC   C27 7407   0.969   0.367   5.242 -0.6318  0.3437 -1.0351
   80SLPC   H7R 7408   0.960   0.475   5.264  1.9974  0.6732 -1.2685
   80SLPC   H7S 7409   0.866   0.323   5.243 -1.1397  1.4401 -2.2442
   80SLPC   C28 7410   1.040   0.365   5.106  0.4318 -0.7588 -0.1888
   80SLPC   H8R 7411   1.045   0.261   5.069  0.1323 -0.8073 -0.1012
   80SLPC   H8S 7412   1.139   0.413   5.121 -0.8493  2.0681  0.0388
   80SLPC   C29 7413   0.975   0.461   5.011 -0.7134 -0.6399  0.4279
   80SLPC   H9R 7414   0.974   0.567   5.041 -4.1702 -0.6349  0.6711
   80SLPC  C210 7415   0.917   0.428   4.898  0.1162  0.0142 -1.0211
   80SLPC  H10R 7416   0.878   0.509   4.835 -0.6053 -0.3304 -1.0223
   80SLPC  C211 7417   0.895   0.293   4.839  0.3668  0.2877 -0.0340
   80SLPC  H11R 7418   0.798   0.294   4.786 -0.1932  1.2330  0.9807
   80SLPC  H11S 7419   0.880   0.219   4.920 -0.2293  0.2008 -0.2227
   80SLPC  C212 7420   1.012   0.229   4.768  0.1381  0.2586 -0.1993
   80SLPC  H12R 7421   1.112   0.247   4.810  0.0863  0.0401  0.0115
   80SLPC  C213 7422   1.009   0.149   4.657  0.1932 -0.4073  0.5504
   80SLPC  H13R 7423   1.103   0.111   4.613  0.0266  0.6348 -0.7713
   80SLPC  C214 7424   0.883   0.115   4.576  0.0039  0.3253 -0.0043
   80SLPC  H14R 7425   0.884   0.158   4.473 -0.1685 -1.4746 -0.7856
   80SLPC  H14S 7426   0.788   0.155   4.617 -0.7490  2.5101 -3.4028
   80SLPC  C215 7427   0.866  -0.036   4.564  0.6098  0.0411  0.3674
   80SLPC  H15R 7428   0.874  -0.085   4.663  0.6998  0.0935  0.3872
   80SLPC  H15S 7429   0.948  -0.074   4.499 -1.5031 -1.0642 -1.7720
   80SLPC  C216 7430   0.725  -0.064   4.505  1.6534 -0.1636 -0.3983
   80SLPC  H16R 7431   0.735  -0.019   4.404  0.5701 -0.5079 -0.6743
   80SLPC  H16S 7432   0.650  -0.002   4.560  0.6949 -0.1255 -1.7132
   80SLPC  C217 7433   0.695  -0.213   4.501 -0.2245  0.0731  0.6635
   80SLPC  H17R 7434   0.672  -0.253   4.603 -0.5017  0.2929  0.6881
   80SLPC  H17S 7435   0.777  -0.274   4.458  0.0482  0.9479 -0.0827
   80SLPC  C218 7436   0.571  -0.242   4.418 -0.6994 -0.3392  0.4500
   80SLPC  H18R 7437   0.582  -0.234   4.308 -0.5502 -1.6779  0.3567
   80SLPC  H18S 7438   0.498  -0.161   4.441 -0.9428 -0.9970  2.1282
   80SLPC  H18T 7439   0.531  -0.343   4.439  0.9159 -1.8355 -2.9391
   80SLPC   C33 7440   0.796   0.662   5.819 -0.2897 -0.8398  0.2439
   80SLPC   H3X 7441   0.725   0.579   5.800 -1.0308 -0.3897  0.9515
   80SLPC   H3Y 7442   0.900   0.633   5.843  0.0336  0.6983  0.8156
   80SLPC   C34 7443   0.788   0.747   5.696  0.3008  0.0854  0.4694
   80SLPC   H4X 7444   0.827   0.851   5.702 -0.3012  0.3534 -0.1798
   80SLPC   H4Y 7445   0.684   0.763   5.660  0.9849  0.2624 -1.5606
   80SLPC   C35 7446   0.851   0.672   5.581 -0.3113 -0.4655 -0.3480
   80SLPC   H5X 7447   0.781   0.587   5.568 -0.2099 -0.2164 -3.1978
   80SLPC   H5Y 7448   0.953   0.646   5.617 -0.8950  0.6824  2.3876
   80SLPC   C36 7449   0.857   0.748   5.441  0.2196 -0.3544  0.5239
   80SLPC   H6X 7450   0.757   0.737   5.394  0.4891 -0.5143 -0.0077
   80SLPC   H6Y 7451   0.931   0.689   5.383 -0.0538 -0.3130  0.1360
   80SLPC   C37 7452   0.891   0.896   5.443  0.7664 -0.3017  0.3042
   80SLPC   H7X 7453   0.974   0.905   5.516  1.0284 -1.4390  0.1665
   80SLPC   H7Y 7454   0.798   0.954   5.461 -0.1838 -1.6713 -0.1066
   80SLPC   C38 7455   0.948   0.954   5.309 -0.3109 -0.4010 -0.1708
   80SLPC   H8X 7456   1.056   0.930   5.294 -0.6316 -0.7771 -2.2247
   80SLPC   H8Y 7457   0.927   1.063   5.311 -2.2959 -0.7427 -0.7865
   80SLPC   C39 7458   0.873   0.902   5.181 -0.7929  0.3390 -0.1413
   80SLPC   H9X 7459   0.766   0.878   5.201 -0.8310  1.2537  0.8058
   80SLPC   H9Y 7460   0.918   0.804   5.154 -1.9241  0.3703 -2.4415
   80SLPC  C310 7461   0.894   0.978   5.052 -0.6308 -0.0165 -0.1346
   80SLPC  H10X 7462   1.003   0.993   5.040 -0.0085 -1.2761  3.2030
   80SLPC  H10Y 7463   0.846   1.079   5.050 -2.4800 -0.8019 -2.9548
   80SLPC  C311 7464   0.840   0.923   4.925  0.4029  0.0773 -0.6785
   80SLPC  H11X 7465   0.729   0.914   4.937  0.4962  0.4767  0.6841
   80SLPC  H11Y 7466   0.870   0.817   4.913 -0.5892 -0.3305  0.2335
   80SLPC  C312 7467   0.885   0.995   4.805  1.2459 -0.2351  0.3551
   80SLPC  H12X 7468   0.992   0.979   4.782  1.5745  1.3395  0.6309
   80SLPC  H12Y 7469   0.880   1.104   4.828  2.7310  0.1263 -0.9207
   80SLPC  C313 7470   0.812   0.976   4.669 -0.0779 -0.3003  0.6013
   80SLPC  H13X 7471   0.806   0.866   4.657  0.9532 -0.1313 -2.0911
   80SLPC  H13Y 7472   0.884   1.009   4.591 -1.6660 -2.8373 -2.0926
   80SLPC  C314 7473   0.672   1.036   4.663 -0.2762 -0.5863 -0.4924
   80SLPC  H14X 7474   0.674   1.134   4.717  1.0965 -1.4684  1.1404
   80SLPC  H14Y 7475   0.610   0.977   4.734 -1.2909  1.1109  0.0991
   80SLPC  C315 7476   0.608   1.057   4.523 -0.2045  0.0181 -0.1283
   80SLPC  H15X 7477   0.618   0.960   4.469 -1.0700  0.6644 -1.5028
   80SLPC  H15Y 7478   0.653   1.150   4.481  0.5760  0.1436  0.9524
   80SLPC  C316 7479   0.458   1.092   4.525  0.5922  0.3932 -0.4141
   80SLPC  H16X 7480   0.432   1.179   4.589 -0.6182 -1.1726  1.3453
   80SLPC  H16Y 7481   0.406   1.006   4.572  1.8299 -0.7706 -1.0950
   80SLPC  C317 7482   0.387   1.101   4.386  0.2212  0.5184  0.3197
   80SLPC  H17X 7483   0.408   1.003   4.338  1.5945  2.0194 -2.3795
   80SLPC  H17Y 7484   0.439   1.182   4.330 -0.0964  0.7487  0.3539
   80SLPC  C318 7485   0.240   1.143   4.389 -0.2000 -0.1113 -0.0409
   80SLPC  H18X 7486   0.223   1.248   4.421  1.0153  0.0442  0.1402
   80SLPC  H18Y 7487   0.170   1.076   4.443 -0.4195  0.5154  0.4675
   80SLPC  H18Z 7488   0.205   1.141   4.283 -1.4842 -0.9685  0.3761
   81SLPC     N 7489   1.899   0.341   1.787 -0.0552  0.4530  0.4328
   81SLPC   C13 7490   2.014   0.328   1.686  0.1908  0.6485  0.0557
   81SLPC  H13A 7491   2.094   0.273   1.733 -0.2392  1.3355  1.6575
   81SLPC  H13B 7492   1.980   0.269   1.602 -1.5655  1.0731  0.4304
   81SLPC  H13C 7493   2.043   0.426   1.652  1.7248  1.0573  2.3410
   81SLPC   C14 7494   1.779   0.392   1.707 -0.4965  0.7106  0.1164
   81SLPC  H14A 7495   1.803   0.474   1.641  0.7512 -1.5856 -2.4209
   81SLPC  H14B 7496   1.757   0.308   1.644  0.6429  0.7991 -0.4160
   81SLPC  H14C 7497   1.691   0.409   1.768 -0.8172  1.2765 -0.4919
   81SLPC   C15 7498   1.943   0.453   1.877  0.8945  0.9035 -0.2999
   81SLPC  H15A 7499   2.042   0.425   1.911  1.2438 -0.9783 -2.6055
   81SLPC  H15B 7500   1.954   0.551   1.834 -1.8497  1.3835 -0.0935
   81SLPC  H15C 7501   1.875   0.457   1.961  1.3670 -1.4865  0.2670
   81SLPC   C12 7502   1.863   0.210   1.859 -0.0005 -0.5610 -0.3516
   81SLPC  H12A 7503   1.835   0.140   1.781  0.7258  0.3016 -1.4261
   81SLPC  H12B 7504   1.776   0.228   1.921 -1.6451 -1.0803 -2.3650
   81SLPC   C11 7505   1.974   0.133   1.944 -0.2010 -0.5715  1.0145
   81SLPC  H11A 7506   1.927   0.046   1.994  2.7417 -0.5390  4.2451
   81SLPC  H11B 7507   2.028   0.200   2.015  0.4712 -0.2270  0.2091
   81SLPC     P 7508   2.148  -0.040   1.862 -0.4655 -0.3116  0.4019
   81SLPC   O13 7509   2.047  -0.147   1.852  0.2333 -0.3319  0.4083
   81SLPC   O14 7510   2.271  -0.060   1.775  0.0121 -0.1450 -0.2059
   81SLPC   O12 7511   2.078   0.096   1.857 -0.0880 -0.7170  0.5204
   81SLPC   O11 7512   2.208  -0.034   2.006  0.1006  0.0728  0.1888
   81SLPC    C1 7513   2.205  -0.144   2.094  0.5599  0.4493 -0.1222
   81SLPC    HA 7514   2.176  -0.240   2.047  3.7541  0.0758 -1.5496
   81SLPC    HB 7515   2.304  -0.166   2.140  0.6609 -2.3862 -1.4875
   81SLPC    C2 7516   2.097  -0.119   2.210 -0.1472  1.0803  0.3572
   81SLPC    HS 7517   1.999  -0.095   2.162  1.6862  2.9527 -2.8397
   81SLPC   O21 7518   2.140  -0.006   2.282  0.4792  0.0333  0.0963
   81SLPC   C21 7519   2.046   0.063   2.343  0.0294  0.1297  0.4202
   81SLPC   O22 7520   1.926   0.050   2.332  0.3190 -0.2306  0.5132
   81SLPC   C22 7521   2.104   0.171   2.434 -0.5023 -0.1168  0.7809
   81SLPC   H2R 7522   2.206   0.142   2.469 -0.4375  1.5017  2.0290
   81SLPC   H2S 7523   2.102   0.269   2.383 -0.9412 -0.8625 -0.6798
   81SLPC    C3 7524   2.089  -0.243   2.309  0.1107  0.3878  0.5797
   81SLPC    HX 7525   2.188  -0.245   2.360 -0.1453  1.3928  1.1366
   81SLPC    HY 7526   2.072  -0.331   2.243 -0.8403  1.3854 -0.5275
   81SLPC   O31 7527   1.991  -0.223   2.415 -0.0281 -0.1155 -0.1890
   81SLPC   C31 7528   1.885  -0.314   2.415  0.6169  0.0988 -0.2603
   81SLPC   O32 7529   1.864  -0.403   2.334 -0.0039  0.3722 -0.0738
   81SLPC   C32 7530   1.810  -0.296   2.542 -0.2477 -0.1976 -0.2455
   81SLPC   H2X 7531   1.771  -0.192   2.545 -0.2419 -0.1341 -1.8400
   81SLPC   H2Y 7532   1.875  -0.330   2.626 -0.6577  0.2316  0.2498
   81SLPC   C23 7533   2.014   0.191   2.564 -0.6177  0.3530 -0.7379
   81SLPC   H3R 7534   1.971   0.092   2.589  1.6225 -0.7981 -1.1025
   81SLPC   H3S 7535   1.933   0.265   2.550  1.3901  2.5570 -1.4502
   81SLPC   C24 7536   2.089   0.221   2.687 -0.0737 -0.3518 -0.0174
   81SLPC   H4R 7537   2.130   0.324   2.677 -2.0823  0.6473  1.3198
   81SLPC   H4S 7538   2.168   0.144   2.703  0.7836  0.5642  0.2897
   81SLPC   C25 7539   2.004   0.223   2.809  0.2871  0.2817  0.8097
   81SLPC   H5R 7540   1.936   0.136   2.798 -0.4688  0.8180  1.1779
   81SLPC   H5S 7541   1.935   0.310   2.804 -1.8935 -1.3011  1.6452
   81SLPC   C26 7542   2.083   0.207   2.941  0.3838  0.7352  0.5516
   81SLPC   H6R 7543   2.131   0.306   2.960  3.7414 -0.8100  0.8761
   81SLPC   H6S 7544   2.172   0.145   2.917  1.5356  2.0527  1.2294
   81SLPC   C27 7545   2.004   0.154   3.061 -0.4798 -0.1512  0.0804
   81SLPC   H7R 7546   1.963   0.053   3.038  0.3455 -1.0941  2.4602
   81SLPC   H7S 7547   1.933   0.225   3.109 -0.9294 -0.5648  0.0282
   81SLPC   C28 7548   2.116   0.113   3.162  0.6005 -0.2898 -0.6847
   81SLPC   H8R 7549   2.194   0.040   3.133  1.0724  0.3978 -1.1929
   81SLPC   H8S 7550   2.057   0.057   3.238 -1.6527 -1.1067 -2.8902
   81SLPC   C29 7551   2.196   0.224   3.225 -0.3902 -0.0029 -0.4250
   81SLPC   H9R 7552   2.217   0.309   3.158 -1.3186 -0.9861 -2.0360
   81SLPC  C210 7553   2.235   0.228   3.351 -0.2127 -0.1302  0.2264
   81SLPC  H10R 7554   2.282   0.319   3.390  0.4065 -0.5700  0.5045
   81SLPC  C211 7555   2.203   0.125   3.452 -0.9961  0.5868 -0.0250
   81SLPC  H11R 7556   2.254   0.029   3.429 -0.5714  0.7898  0.0651
   81SLPC  H11S 7557   2.093   0.110   3.449 -1.0929  1.2155 -3.2894
   81SLPC  C212 7558   2.251   0.165   3.590  0.3308 -0.3330 -0.1117
   81SLPC  H12R 7559   2.358   0.142   3.607  0.4144  1.3420  2.1858
   81SLPC  C213 7560   2.185   0.225   3.688 -0.5186  0.3008 -0.7372
   81SLPC  H13R 7561   2.242   0.250   3.779  0.0851 -0.0701 -1.0020
   81SLPC  C214 7562   2.048   0.279   3.681 -0.9572 -0.0105 -0.5942
   81SLPC  H14R 7563   2.007   0.278   3.578 -0.1348 -0.3437 -0.9190
   81SLPC  H14S 7564   2.046   0.386   3.712 -3.5517 -0.3034  0.5063
   81SLPC  C215 7565   1.943   0.240   3.792 -0.6104  0.0945 -0.3400
   81SLPC  H15R 7566   1.848   0.296   3.775 -1.3825 -1.3252 -0.8960
   81SLPC  H15S 7567   1.983   0.263   3.893 -1.2570  0.7465 -0.2216
   81SLPC  C216 7568   1.913   0.089   3.784 -0.2129 -0.5606  0.8583
   81SLPC  H16R 7569   2.003   0.041   3.828  0.7243  0.8495  0.5235
   81SLPC  H16S 7570   1.905   0.041   3.684  1.1992 -1.1262  0.9874
   81SLPC  C217 7571   1.794   0.049   3.857  0.2561  0.3604  0.0755
   81SLPC  H17R 7572   1.699   0.102   3.834 -0.9092 -1.5014  0.4174
   81SLPC  H17S 7573   1.801   0.092   3.959  2.6962  1.9943 -0.6780
   81SLPC  C218 7574   1.760  -0.101   3.866  0.3920  0.2050  0.4172
   81SLPC  H18R 7575   1.678  -0.119   3.938  0.9246  0.7481  1.1890
   81SLPC  H18S 7576   1.842  -0.158   3.915  0.9963 -1.2198 -2.0842
   81SLPC  H18T 7577   1.733  -0.152   3.772 -0.4914  3.3690 -1.1840
   81SLPC   C33 7578   1.681  -0.388   2.543  0.0023  1.0160  0.2913
   81SLPC   H3X 7579   1.701  -0.497   2.551 -3.6548  0.3259  2.2130
   81SLPC   H3Y 7580   1.620  -0.352   2.458 -1.2981  0.2932  0.8961
   81SLPC   C34 7581   1.601  -0.370   2.676  0.3172 -0.9817  0.1219
   81SLPC   H4X 7582   1.491  -0.388   2.678 -0.0633  1.0770 -0.1024
   81SLPC   H4Y 7583   1.612  -0.260   2.685 -1.3190 -0.5064 -2.6143
   81SLPC   C35 7584   1.651  -0.438   2.800  0.1671 -0.4091  0.0582
   81SLPC   H5X 7585   1.759  -0.457   2.816 -0.3698 -2.1996  2.0201
   81SLPC   H5Y 7586   1.602  -0.538   2.804 -0.4096 -0.1175  0.5345
   81SLPC   C36 7587   1.611  -0.367   2.932 -0.3311  0.1487  0.4202
   81SLPC   H6X 7588   1.504  -0.339   2.922 -1.2809 -3.0876  0.3298
   81SLPC   H6Y 7589   1.672  -0.277   2.956  0.3786 -0.0748 -0.5075
   81SLPC   C37 7590   1.623  -0.467   3.050  0.1525  0.4849  0.3816
   81SLPC   H7X 7591   1.721  -0.518   3.056 -0.3087 -0.6322 -1.0595
   81SLPC   H7Y 7592   1.558  -0.556   3.033 -0.3632  0.9130  0.0683
   81SLPC   C38 7593   1.581  -0.397   3.180  0.2560  0.5205 -0.1320
   81SLPC   H8X 7594   1.476  -0.367   3.163 -0.8827 -2.8168  0.2013
   81SLPC   H8Y 7595   1.649  -0.310   3.189  0.1778  0.7104 -1.3151
   81SLPC   C39 7596   1.580  -0.495   3.303  0.3970 -0.0492 -0.4491
   81SLPC   H9X 7597   1.677  -0.549   3.295  0.2739 -0.3082 -0.2049
   81SLPC   H9Y 7598   1.493  -0.564   3.306 -0.4995  0.9938 -1.4863
   81SLPC  C310 7599   1.567  -0.427   3.439  0.3428 -0.0236  0.3187
   81SLPC  H10X 7600   1.467  -0.382   3.453  1.1209  1.7324  0.5544
   81SLPC  H10Y 7601   1.622  -0.330   3.442  1.3035 -0.5489  0.0737
   81SLPC  C311 7602   1.599  -0.517   3.554  0.1761 -0.1991  0.1843
   81SLPC  H11X 7603   1.709  -0.532   3.559  0.4767  1.4742 -0.5863
   81SLPC  H11Y 7604   1.547  -0.614   3.541 -0.8530  0.6325 -2.7060
   81SLPC  C312 7605   1.548  -0.465   3.689  0.3361  0.2712 -0.5733
   81SLPC  H12X 7606   1.437  -0.468   3.680  0.2653  1.0984 -0.0949
   81SLPC  H12Y 7607   1.584  -0.362   3.706  2.2724 -0.4241 -0.1968
   81SLPC  C313 7608   1.602  -0.551   3.807 -0.4927 -0.5994 -0.5907
   81SLPC  H13X 7609   1.708  -0.579   3.793 -0.7386 -1.1265 -1.4468
   81SLPC  H13Y 7610   1.545  -0.646   3.807 -0.9784 -0.5350  3.7824
   81SLPC  C314 7611   1.588  -0.484   3.935  0.2067  0.0392 -1.1318
   81SLPC  H14X 7612   1.501  -0.414   3.931 -1.4376 -1.8250  0.1171
   81SLPC  H14Y 7613   1.678  -0.423   3.954  0.3310 -0.8656  1.4706
   81SLPC  C315 7614   1.594  -0.580   4.050 -0.1264  0.4101 -0.2869
   81SLPC  H15X 7615   1.702  -0.605   4.065 -0.0435  0.4656 -0.7715
   81SLPC  H15Y 7616   1.544  -0.677   4.029  1.2593 -0.7949  1.6556
   81SLPC  C316 7617   1.531  -0.530   4.183 -0.3942 -0.3600 -0.0322
   81SLPC  H16X 7618   1.539  -0.419   4.190 -0.3765 -0.3651  0.0288
   81SLPC  H16Y 7619   1.592  -0.571   4.266  0.8877 -1.5385 -1.4869
   81SLPC  C317 7620   1.382  -0.575   4.183 -0.3426 -0.5525  0.2832
   81SLPC  H17X 7621   1.389  -0.686   4.176 -1.2419 -0.6115  0.1741
   81SLPC  H17Y 7622   1.325  -0.543   4.093 -1.4851 -0.3130  1.0746
   81SLPC  C318 7623   1.307  -0.537   4.310 -0.6366 -0.9084  0.3560
   81SLPC  H18X 7624   1.210  -0.591   4.316 -2.1747  1.2879 -2.3771
   81SLPC  H18Y 7625   1.292  -0.428   4.318 -0.0354 -0.7657 -0.3182
   81SLPC  H18Z 7626   1.377  -0.573   4.389  0.1369  0.0568  0.1291
   82SLPC     N 7627   3.052   1.714   2.312 -0.1752 -0.6586  0.0183
   82SLPC   C13 7628   2.984   1.838   2.281  0.1573  0.4670  0.6300
   82SLPC  H13A 7629   2.959   1.896   2.368 -1.0306 -0.3332  0.8575
   82SLPC  H13B 7630   3.052   1.898   2.222 -2.9325  2.0821 -1.5510
   82SLPC  H13C 7631   2.895   1.811   2.226  1.7073  0.4904 -2.0484
   82SLPC   C14 7632   3.182   1.742   2.381 -0.2420 -0.6460 -0.7090
   82SLPC  H14A 7633   3.254   1.788   2.315 -1.2405 -0.7600 -1.9088
   82SLPC  H14B 7634   3.176   1.809   2.466  2.2199 -2.1904  0.8083
   82SLPC  H14C 7635   3.217   1.646   2.414 -2.4849 -0.7589  1.6509
   82SLPC   C15 7636   3.074   1.636   2.189 -0.2792 -0.3784  0.4049
   82SLPC  H15A 7637   2.979   1.604   2.151 -1.0876  0.7926  1.3471
   82SLPC  H15B 7638   3.121   1.696   2.112 -0.0234  1.3733  1.8519
   82SLPC  H15C 7639   3.133   1.549   2.215  3.3901  2.0723  1.0672
   82SLPC   C12 7640   2.969   1.634   2.409  0.6275 -0.6019  0.5048
   82SLPC  H12A 7641   2.971   1.678   2.508 -0.6404  1.6368 -0.3952
   82SLPC  H12B 7642   3.014   1.539   2.432  0.2330 -0.6486  1.1357
   82SLPC   C11 7643   2.815   1.620   2.378  0.8406  0.3407 -0.3962
   82SLPC  H11A 7644   2.752   1.711   2.374  1.2016  0.6554  0.7202
   82SLPC  H11B 7645   2.777   1.561   2.464  1.1952  0.1175 -0.3907
   82SLPC     P 7646   2.777   1.388   2.257  0.7944 -0.6779 -0.4810
   82SLPC   O13 7647   2.665   1.346   2.176 -0.8277 -0.1996  0.2250
   82SLPC   O14 7648   2.908   1.327   2.226 -0.0264 -0.3312 -0.0754
   82SLPC   O12 7649   2.796   1.548   2.257  1.2224  0.5405  0.1396
   82SLPC   O11 7650   2.741   1.350   2.406 -0.5835 -0.0345 -0.6197
   82SLPC    C1 7651   2.605   1.322   2.451 -0.0961 -0.8801  0.1989
   82SLPC    HA 7652   2.551   1.414   2.420 -0.3931 -1.3524 -0.7005
   82SLPC    HB 7653   2.561   1.231   2.405  0.8520 -0.9675 -0.5489
   82SLPC    C2 7654   2.581   1.335   2.611 -0.8545  0.2939 -0.7182
   82SLPC    HS 7655   2.470   1.341   2.610 -0.9058 -0.3609 -0.0296
   82SLPC   O21 7656   2.643   1.453   2.661  0.2070  0.3624  1.2976
   82SLPC   C21 7657   2.592   1.495   2.769 -0.3596  0.2952  0.4231
   82SLPC   O22 7658   2.499   1.451   2.833  0.0644  0.0428 -0.4983
   82SLPC   C22 7659   2.683   1.613   2.811  0.3751 -0.0363 -0.0442
   82SLPC   H2R 7660   2.767   1.572   2.872  0.3552  1.0420  0.7421
   82SLPC   H2S 7661   2.725   1.649   2.715  2.6968 -2.3495 -0.0282
   82SLPC    C3 7662   2.636   1.211   2.675 -0.7462 -0.1685 -0.1581
   82SLPC    HX 7663   2.734   1.182   2.632 -0.3310  0.6766  0.1873
   82SLPC    HY 7664   2.574   1.122   2.650 -0.0739  0.2104 -3.6814
   82SLPC   O31 7665   2.672   1.222   2.815 -0.0094 -0.6421 -0.0877
   82SLPC   C31 7666   2.584   1.176   2.905 -0.7937 -0.6691  0.5414
   82SLPC   O32 7667   2.469   1.147   2.876 -0.8581 -0.4652  0.2401
   82SLPC   C32 7668   2.647   1.174   3.046  0.3754 -1.0849  0.2140
   82SLPC   H2X 7669   2.642   1.280   3.077 -0.4226 -0.6442 -1.3003
   82SLPC   H2Y 7670   2.756   1.161   3.028  1.1112  2.6749  1.2294
   82SLPC   C23 7671   2.616   1.727   2.884  0.7688 -0.1335 -0.0133
   82SLPC   H3R 7672   2.520   1.761   2.839 -0.2083 -0.0980  1.9936
   82SLPC   H3S 7673   2.687   1.812   2.874  0.4790 -0.0227 -1.3029
   82SLPC   C24 7674   2.604   1.687   3.034 -0.6561 -0.0028  0.1143
   82SLPC   H4R 7675   2.564   1.584   3.042  1.3252 -0.7556  1.1446
   82SLPC   H4S 7676   2.526   1.754   3.074 -0.0846  0.4572  0.4807
   82SLPC   C25 7677   2.722   1.717   3.127 -0.0515 -0.3808  0.8436
   82SLPC   H5R 7678   2.768   1.815   3.101  1.5283 -1.4169 -0.4874
   82SLPC   H5S 7679   2.791   1.631   3.121 -1.4974 -1.5133 -1.5723
   82SLPC   C26 7680   2.680   1.735   3.268 -0.0967 -0.2100  0.2193
   82SLPC   H6R 7681   2.607   1.656   3.298  0.2903 -0.6082  0.1254
   82SLPC   H6S 7682   2.633   1.835   3.269 -1.1084 -0.6722  0.1990
   82SLPC   C27 7683   2.797   1.743   3.360  1.0850 -0.3941 -0.5237
   82SLPC   H7R 7684   2.868   1.814   3.313  2.2518 -1.3768 -0.2825
   82SLPC   H7S 7685   2.858   1.651   3.372  1.4636  0.0843  1.6170
   82SLPC   C28 7686   2.770   1.814   3.491  0.0854  0.3867 -0.0807
   82SLPC   H8R 7687   2.707   1.906   3.489 -0.7295 -0.1668 -2.1028
   82SLPC   H8S 7688   2.863   1.840   3.546 -0.0631  0.3204  0.2070
   82SLPC   C29 7689   2.689   1.719   3.573  0.4694 -0.1141 -0.4650
   82SLPC   H9R 7690   2.672   1.627   3.516  1.3300 -0.2559 -0.5081
   82SLPC  C210 7691   2.652   1.736   3.705 -0.8356 -0.8057 -0.4802
   82SLPC  H10R 7692   2.567   1.681   3.748 -1.5944  0.6882  0.0147
   82SLPC  C211 7693   2.668   1.863   3.783 -0.0145  0.3036  0.3738
   82SLPC  H11R 7694   2.588   1.875   3.859 -1.5230  2.3131 -1.4118
   82SLPC  H11S 7695   2.657   1.952   3.717 -0.4289 -0.8031 -1.0941
   82SLPC  C212 7696   2.797   1.870   3.865  0.0667 -0.1882  0.6691
   82SLPC  H12R 7697   2.865   1.785   3.851 -1.5611 -1.3634 -0.4968
   82SLPC  C213 7698   2.832   1.976   3.940  0.4543  0.3992 -0.3469
   82SLPC  H13R 7699   2.930   1.969   3.990 -0.0409 -1.9301  0.4135
   82SLPC  C214 7700   2.739   2.094   3.955 -0.8273  0.1602  0.4151
   82SLPC  H14R 7701   2.632   2.068   3.968 -0.2372 -2.9493 -0.3541
   82SLPC  H14S 7702   2.762   2.156   3.866  2.6396 -2.0404 -0.4424
   82SLPC  C215 7703   2.767   2.192   4.071  0.6095 -0.3772  0.1041
   82SLPC  H15R 7704   2.714   2.288   4.056  0.0484 -0.8072 -0.7852
   82SLPC  H15S 7705   2.875   2.213   4.079  0.6676 -1.0630  1.3367
   82SLPC  C216 7706   2.717   2.133   4.209 -0.5659  0.2368 -0.2790
   82SLPC  H16R 7707   2.780   2.044   4.229 -0.4076 -0.1281 -2.2202
   82SLPC  H16S 7708   2.614   2.091   4.204 -0.7776  0.6189  0.7232
   82SLPC  C217 7709   2.717   2.233   4.329 -0.0203 -0.8374 -0.0227
   82SLPC  H17R 7710   2.711   2.180   4.426  1.6508 -0.1414  0.4997
   82SLPC  H17S 7711   2.631   2.302   4.314 -0.2055 -1.2290 -0.8341
   82SLPC  C218 7712   2.851   2.315   4.337  0.7528  0.2952 -0.3095
   82SLPC  H18R 7713   2.940   2.248   4.330  1.2231  0.7066  1.3330
   82SLPC  H18S 7714   2.845   2.368   4.435  0.7070  3.0628 -1.7250
   82SLPC  H18T 7715   2.848   2.382   4.249 -1.5704  2.5544  1.3211
   82SLPC   C33 7716   2.592   1.071   3.147  0.7676  0.7944 -0.2074
   82SLPC   H3X 7717   2.585   0.971   3.098  0.0667  1.4477 -1.4853
   82SLPC   H3Y 7718   2.490   1.094   3.184  1.0233 -0.3548  1.3342
   82SLPC   C34 7719   2.672   1.063   3.274  0.8512  0.1687  0.6840
   82SLPC   H4X 7720   2.667   1.166   3.315 -1.6710  0.6107 -0.5163
   82SLPC   H4Y 7721   2.774   1.030   3.246  1.3882  1.4566  1.0715
   82SLPC   C35 7722   2.610   0.971   3.378  0.0257  0.2929 -0.1780
   82SLPC   H5X 7723   2.622   0.868   3.338 -0.7544  0.9346 -2.2303
   82SLPC   H5Y 7724   2.502   0.995   3.393  0.3640  1.3340  0.6879
   82SLPC   C36 7725   2.676   0.976   3.511  0.3748  0.0373  0.9990
   82SLPC   H6X 7726   2.611   0.905   3.566  0.9769  0.1480  1.8830
   82SLPC   H6Y 7727   2.668   1.073   3.565  1.5513  0.1026  1.0840
   82SLPC   C37 7728   2.821   0.939   3.516 -0.2269 -0.2278  0.0904
   82SLPC   H7X 7729   2.883   1.016   3.465  1.1747 -1.3065  0.1105
   82SLPC   H7Y 7730   2.831   0.846   3.457 -1.0001  1.5553 -3.0529
   82SLPC   C38 7731   2.872   0.915   3.665  0.5674  0.1126  0.1724
   82SLPC   H8X 7732   2.847   1.001   3.730  2.1017  0.5283  0.2566
   82SLPC   H8Y 7733   2.983   0.913   3.663  0.6442  1.1879  1.8558
   82SLPC   C39 7734   2.828   0.787   3.741  0.5941 -0.1284  0.0899
   82SLPC   H9X 7735   2.891   0.707   3.696  0.7238  0.7988 -1.4725
   82SLPC   H9Y 7736   2.718   0.778   3.724  0.2817 -0.4886  2.0548
   82SLPC  C310 7737   2.862   0.783   3.886 -0.9812 -0.1578 -0.3806
   82SLPC  H10X 7738   2.814   0.866   3.942  1.5718  1.6634 -0.7152
   82SLPC  H10Y 7739   2.967   0.811   3.905 -1.7572  2.8306 -0.0340
   82SLPC  C311 7740   2.819   0.654   3.944  0.2025 -0.2131 -0.1458
   82SLPC  H11X 7741   2.861   0.567   3.889  1.8639  1.5468 -1.8263
   82SLPC  H11Y 7742   2.708   0.651   3.938  0.1271 -1.4058  1.3726
   82SLPC  C312 7743   2.853   0.622   4.094  0.1796 -0.3281  1.3651
   82SLPC  H12X 7744   2.809   0.524   4.124  0.0354 -0.4483  0.7843
   82SLPC  H12Y 7745   2.807   0.702   4.155  0.2321 -0.4215  1.5280
   82SLPC  C313 7746   3.007   0.620   4.115  0.5983 -0.1873  0.3730
   82SLPC  H13X 7747   3.048   0.716   4.077  1.7394  0.6421  3.3805
   82SLPC  H13Y 7748   3.048   0.536   4.054 -1.1049  0.5587 -1.9604
   82SLPC  C314 7749   3.040   0.621   4.263  0.2930  0.7772  0.2367
   82SLPC  H14X 7750   3.016   0.522   4.306  0.5040  0.8832  0.5994
   82SLPC  H14Y 7751   2.985   0.705   4.311 -0.3449 -0.7132  2.2292
   82SLPC  C315 7752   3.191   0.629   4.286  0.3040 -0.0155 -0.1564
   82SLPC  H15X 7753   3.234   0.714   4.228  0.2729  0.5389  0.6136
   82SLPC  H15Y 7754   3.234   0.535   4.246 -2.1228 -1.5751  0.6966
   82SLPC  C316 7755   3.228   0.635   4.439 -0.9842  0.0640 -0.7843
   82SLPC  H16X 7756   3.334   0.661   4.458 -1.9933  1.9370  3.3181
   82SLPC  H16Y 7757   3.206   0.538   4.490  1.2672 -0.5798 -0.9468
   82SLPC  C317 7758   3.171   0.746   4.527 -0.6297 -0.2169 -0.3628
   82SLPC  H17X 7759   3.060   0.735   4.524 -0.7862 -0.8895  3.6207
   82SLPC  H17Y 7760   3.205   0.848   4.498  0.2622  0.0357  1.4775
   82SLPC  C318 7761   3.207   0.736   4.673  0.3859 -1.0933 -0.6997
   82SLPC  H18X 7762   3.161   0.821   4.728  0.0982 -1.0274 -1.0421
   82SLPC  H18Y 7763   3.316   0.719   4.688  0.5789  0.9086  0.5904
   82SLPC  H18Z 7764   3.157   0.645   4.711 -2.0251  0.8860  1.2986
   83SLPC     N 7765   5.326   4.126   1.862  0.1187  0.7075 -0.9030
   83SLPC   C13 7766   5.290   4.068   1.730  0.2995  0.0092  0.1665
   83SLPC  H13A 7767   5.213   4.126   1.682 -1.5190 -0.7313  2.0802
   83SLPC  H13B 7768   5.379   4.057   1.670  1.3440  0.6157  1.5394
   83SLPC  H13C 7769   5.244   3.971   1.734 -1.1005  0.5616 -1.3755
   83SLPC   C14 7770   5.410   4.244   1.841 -0.3396  1.1516 -0.1608
   83SLPC  H14A 7771   5.353   4.304   1.772 -2.4366 -1.0496 -0.4613
   83SLPC  H14B 7772   5.445   4.289   1.933  1.0711  1.6401 -0.9041
   83SLPC  H14C 7773   5.495   4.213   1.781 -1.5743 -0.6535 -1.0511
   83SLPC   C15 7774   5.419   4.027   1.930  0.1192  0.4132 -0.1294
   83SLPC  H15A 7775   5.447   4.081   2.020 -1.8928  1.0926  0.1210
   83SLPC  H15B 7776   5.367   3.938   1.962 -2.4767  1.7122 -0.4868
   83SLPC  H15C 7777   5.510   4.002   1.877  0.1501 -0.4282  0.3049
   83SLPC   C12 7778   5.201   4.162   1.938 -0.2685  0.2610 -0.5959
   83SLPC  H12A 7779   5.127   4.084   1.941  0.3996 -0.3788 -0.6551
   83SLPC  H12B 7780   5.140   4.236   1.887  0.9281  1.1360 -0.8035
   83SLPC   C11 7781   5.207   4.227   2.084 -0.5077 -0.3304  0.4606
   83SLPC  H11A 7782   5.298   4.194   2.140 -0.3394 -0.5666  0.0511
   83SLPC  H11B 7783   5.125   4.186   2.146 -0.9891 -0.9310 -0.5604
   83SLPC     P 7784   5.325   4.468   2.129 -0.1170  0.1003 -0.0243
   83SLPC   O13 7785   5.461   4.413   2.089  0.2646  0.4893  0.5197
   83SLPC   O14 7786   5.289   4.601   2.078 -0.0318 -0.0019 -0.5982
   83SLPC   O12 7787   5.210   4.370   2.076  0.4003  0.3904 -0.1314
   83SLPC   O11 7788   5.322   4.464   2.285 -0.0062  0.1959  0.0068
   83SLPC    C1 7789   5.416   4.367   2.348  0.2785  0.2613 -0.3555
   83SLPC    HA 7790   5.424   4.276   2.284  1.7588 -0.4278  0.7574
   83SLPC    HB 7791   5.518   4.410   2.342  0.4473 -0.1081 -0.1095
   83SLPC    C2 7792   5.381   4.335   2.495 -0.3085  0.1935  0.6568
   83SLPC    HS 7793   5.449   4.256   2.532 -0.1522 -0.8605 -1.6883
   83SLPC   O21 7794   5.239   4.291   2.505 -0.2441 -0.0788  0.2324
   83SLPC   C21 7795   5.199   4.183   2.438 -0.1816 -0.0585 -0.4658
   83SLPC   O22 7796   5.262   4.108   2.368  0.3317 -0.6665 -0.8391
   83SLPC   C22 7797   5.051   4.175   2.455  0.2243  0.6414 -0.2755
   83SLPC   H2R 7798   5.012   4.272   2.492 -0.4485  0.3782 -0.2831
   83SLPC   H2S 7799   5.009   4.154   2.355  1.6827 -1.8038 -0.4443
   83SLPC    C3 7800   5.397   4.466   2.573 -0.4624  0.0892 -0.3837
   83SLPC    HX 7801   5.307   4.522   2.541 -0.0221  0.0987 -1.6443
   83SLPC    HY 7802   5.489   4.510   2.530 -0.6137 -1.1429 -2.0407
   83SLPC   O31 7803   5.406   4.437   2.715 -0.3473 -0.2867 -0.9459
   83SLPC   C31 7804   5.374   4.539   2.797 -0.0650  0.5921  0.0411
   83SLPC   O32 7805   5.322   4.642   2.762  0.3379  0.1754  0.1704
   83SLPC   C32 7806   5.389   4.496   2.943  0.0353 -0.2898  0.8027
   83SLPC   H2X 7807   5.497   4.469   2.949  0.2666 -1.1414 -3.5175
   83SLPC   H2Y 7808   5.321   4.409   2.948  0.2573 -0.5682 -0.4956
   83SLPC   C23 7809   4.999   4.060   2.547 -0.4220 -0.1811 -0.5348
   83SLPC   H3R 7810   5.040   3.965   2.505 -1.8347  0.5424 -3.9078
   83SLPC   H3S 7811   4.888   4.065   2.538 -0.2931 -0.1813 -2.8435
   83SLPC   C24 7812   5.038   4.059   2.696  0.9661 -0.0010 -0.3795
   83SLPC   H4R 7813   5.147   4.079   2.706  1.1997 -0.8533 -1.1489
   83SLPC   H4S 7814   5.002   3.968   2.748  0.0598  1.4709  1.6964
   83SLPC   C25 7815   4.989   4.180   2.785  0.2743  0.4956 -0.3016
   83SLPC   H5R 7816   4.878   4.182   2.786  0.2162 -0.6387  1.9246
   83SLPC   H5S 7817   5.034   4.276   2.754  2.2275 -0.7930 -1.7193
   83SLPC   C26 7818   5.034   4.158   2.932 -0.3068 -0.2142 -0.4507
   83SLPC   H6R 7819   5.143   4.159   2.954 -0.5990  0.8068  1.1718
   83SLPC   H6S 7820   4.993   4.063   2.973 -0.4013  0.4849  1.1649
   83SLPC   C27 7821   4.993   4.268   3.043 -0.3451 -0.3115 -0.1241
   83SLPC   H7R 7822   4.885   4.279   3.062 -0.0637 -1.6479  2.8638
   83SLPC   H7S 7823   5.037   4.362   3.003 -3.0833  0.9173 -0.4514
   83SLPC   C28 7824   5.060   4.236   3.180 -0.1789  0.1387  0.0320
   83SLPC   H8R 7825   5.169   4.249   3.166 -0.1418  0.2585  0.4172
   83SLPC   H8S 7826   5.042   4.130   3.205  1.6624 -0.1059  0.4200
   83SLPC   C29 7827   5.021   4.339   3.289 -0.0581  0.3671  0.6247
   83SLPC   H9R 7828   5.042   4.444   3.265  2.2641 -0.6054 -2.2114
   83SLPC  C210 7829   4.967   4.322   3.410  0.1156  0.4170 -0.6049
   83SLPC  H10R 7830   4.952   4.416   3.466  1.0281 -0.8576  1.9477
   83SLPC  C211 7831   4.956   4.192   3.484 -0.4618  0.1390  0.3993
   83SLPC  H11R 7832   5.025   4.203   3.570  2.5582  0.8297 -1.9476
   83SLPC  H11S 7833   4.988   4.112   3.415 -4.0004  0.4206 -1.8594
   83SLPC  C212 7834   4.811   4.156   3.523  0.2833  0.5055  0.2474
   83SLPC  H12R 7835   4.755   4.101   3.446 -1.2318  1.5265  0.5914
   83SLPC  C213 7836   4.741   4.192   3.640 -0.2466  0.2716  1.2742
   83SLPC  H13R 7837   4.634   4.170   3.653 -0.6102  0.2569 -1.2526
   83SLPC  C214 7838   4.787   4.288   3.746  0.0657  0.3186  0.1512
   83SLPC  H14R 7839   4.711   4.369   3.760  0.3106  0.4166  0.9765
   83SLPC  H14S 7840   4.885   4.333   3.720 -0.6310  2.6668  1.2573
   83SLPC  C215 7841   4.832   4.229   3.883  0.3855 -0.2854 -0.4757
   83SLPC  H15R 7842   4.880   4.311   3.941 -0.1680  0.6243 -1.2780
   83SLPC  H15S 7843   4.904   4.148   3.856  1.5565  0.6569 -0.2584
   83SLPC  C216 7844   4.707   4.181   3.957  0.4054  0.1653 -0.3272
   83SLPC  H16R 7845   4.676   4.105   3.883 -2.4965  1.1419 -0.2556
   83SLPC  H16S 7846   4.630   4.262   3.951  1.5663  1.3889  0.5338
   83SLPC  C217 7847   4.727   4.127   4.099 -0.2016 -0.6338  0.2083
   83SLPC  H17R 7848   4.772   4.212   4.155 -1.9228 -0.4581  1.3818
   83SLPC  H17S 7849   4.804   4.051   4.075  0.7076  0.9747 -2.4147
   83SLPC  C218 7850   4.598   4.079   4.169 -0.2674 -0.9939  0.6141
   83SLPC  H18R 7851   4.567   3.984   4.120  0.0467 -0.3322 -0.9361
   83SLPC  H18S 7852   4.516   4.153   4.178  0.5899  0.0658 -0.0464
   83SLPC  H18T 7853   4.638   4.063   4.271 -0.1263 -0.8993  0.5739
   83SLPC   C33 7854   5.357   4.608   3.044  0.6604 -0.5148  0.5832
   83SLPC   H3X 7855   5.254   4.647   3.033  0.6196 -0.2620  1.7359
   83SLPC   H3Y 7856   5.406   4.704   3.019 -0.7056  0.1937  0.5400
   83SLPC   C34 7857   5.378   4.584   3.190 -0.3797 -0.5637  0.1617
   83SLPC   H4X 7858   5.488   4.574   3.196 -0.4174 -0.7675  0.5712
   83SLPC   H4Y 7859   5.335   4.487   3.221  1.1742 -2.8983 -4.1691
   83SLPC   C35 7860   5.334   4.704   3.280  0.6023 -0.4141  0.1127
   83SLPC   H5X 7861   5.224   4.715   3.291  0.3907 -2.1980  0.0506
   83SLPC   H5Y 7862   5.378   4.791   3.225  0.2501 -0.9077 -0.9750
   83SLPC   C36 7863   5.378   4.701   3.434  0.3466  0.3030  0.4385
   83SLPC   H6X 7864   5.365   4.802   3.478 -2.7971  0.3164 -0.2576
   83SLPC   H6Y 7865   5.485   4.673   3.440  0.2774 -0.5756 -1.5672
   83SLPC   C37 7866   5.289   4.593   3.499 -0.3393  0.0501 -0.0266
   83SLPC   H7X 7867   5.290   4.502   3.435  0.1777 -1.3713  1.9234
   83SLPC   H7Y 7868   5.187   4.637   3.509  0.3487  1.1394  3.2000
   83SLPC   C38 7869   5.334   4.555   3.639 -0.2227  0.6520 -0.0669
   83SLPC   H8X 7870   5.352   4.651   3.692 -1.6592  0.5303  0.7197
   83SLPC   H8Y 7871   5.433   4.505   3.641 -1.2534 -1.5569  2.1192
   83SLPC   C39 7872   5.226   4.475   3.715 -0.2607 -0.2037 -0.1322
   83SLPC   H9X 7873   5.207   4.375   3.671 -1.4460  0.8578 -2.2029
   83SLPC   H9Y 7874   5.126   4.513   3.684 -1.3127 -2.6060  0.0712
   83SLPC  C310 7875   5.255   4.466   3.866  0.4244  1.0871  0.2765
   83SLPC  H10X 7876   5.231   4.559   3.921 -2.9679 -1.3789  3.4219
   83SLPC  H10Y 7877   5.362   4.439   3.882  0.3935  0.5311 -0.4050
   83SLPC  C311 7878   5.183   4.347   3.930 -0.0785  0.0386 -0.7201
   83SLPC  H11X 7879   5.189   4.254   3.869 -0.9998 -0.9129  0.5875
   83SLPC  H11Y 7880   5.075   4.372   3.942 -0.0919 -0.6990  0.9863
   83SLPC  C312 7881   5.224   4.331   4.068 -0.1570  0.3190  0.6258
   83SLPC  H12X 7882   5.189   4.423   4.119  3.9818  0.9718  2.6877
   83SLPC  H12Y 7883   5.334   4.325   4.076 -0.0627  0.6394 -0.3036
   83SLPC  C313 7884   5.189   4.189   4.114 -0.4181  0.2412  0.1837
   83SLPC  H13X 7885   5.242   4.120   4.046 -0.6358 -1.3600  1.5677
   83SLPC  H13Y 7886   5.081   4.181   4.089 -0.5346  0.8690  0.4688
   83SLPC  C314 7887   5.236   4.163   4.258 -0.0250 -0.6071  0.2244
   83SLPC  H14X 7888   5.179   4.223   4.332  0.9952  0.3629  0.2372
   83SLPC  H14Y 7889   5.340   4.195   4.280 -0.2043  1.2837 -1.4054
   83SLPC  C315 7890   5.233   4.010   4.294  0.4590  0.2886 -0.3803
   83SLPC  H15X 7891   5.327   3.984   4.346  0.3806  2.0834  0.7431
   83SLPC  H15Y 7892   5.236   3.962   4.194 -0.5792  0.4777 -0.5146
   83SLPC  C316 7893   5.100   3.967   4.355 -0.1561  0.5815  0.1372
   83SLPC  H16X 7894   5.019   4.026   4.307  0.1635  1.4550  0.6436
   83SLPC  H16Y 7895   5.100   4.004   4.460 -3.1384 -0.1261  0.4577
   83SLPC  C317 7896   5.066   3.819   4.350 -0.8362  0.7970 -0.0278
   83SLPC  H17X 7897   5.143   3.772   4.416  0.5726  1.4113 -1.1772
   83SLPC  H17Y 7898   5.087   3.778   4.249 -0.2014  0.9764  0.0227
   83SLPC  C318 7899   4.918   3.774   4.371 -0.5415  0.0986 -0.1965
   83SLPC  H18X 7900   4.865   3.832   4.450  0.7422  1.4022 -0.2451
   83SLPC  H18Y 7901   4.941   3.671   4.405  0.5470  0.5702  0.5583
   83SLPC  H18Z 7902   4.860   3.791   4.278  1.3979  1.9014 -1.1521
   84SLPC     N 7903   2.972   5.507   2.119  0.3698 -0.9200 -0.6035
   84SLPC   C13 7904   2.989   5.361   2.095  0.2197 -0.1353  0.7213
   84SLPC  H13A 7905   3.033   5.354   1.997 -0.2833 -0.5743  0.5234
   84SLPC  H13B 7906   3.055   5.310   2.164 -0.5083 -0.2084  1.3910
   84SLPC  H13C 7907   2.895   5.309   2.102 -1.1981  1.8811 -1.7279
   84SLPC   C14 7908   2.927   5.535   2.256 -0.7402  0.8432  1.0424
   84SLPC  H14A 7909   2.852   5.458   2.270 -0.2605 -0.4642 -2.5500
   84SLPC  H14B 7910   3.009   5.528   2.325  0.8035  1.4723 -0.6482
   84SLPC  H14C 7911   2.883   5.633   2.267 -0.1627  1.1280  0.8340
   84SLPC   C15 7912   2.872   5.568   2.026 -0.5987  0.7460  0.0688
   84SLPC  H15A 7913   2.779   5.520   2.051 -0.2562  0.9315  1.8190
   84SLPC  H15B 7914   2.851   5.672   2.044 -0.1384  1.4926 -3.0918
   84SLPC  H15C 7915   2.903   5.565   1.922  0.2202 -1.4891  0.3075
   84SLPC   C12 7916   3.107   5.578   2.087 -0.3096 -0.1043 -0.2523
   84SLPC  H12A 7917   3.175   5.545   2.164 -1.7365 -1.6167  0.4182
   84SLPC  H12B 7918   3.091   5.685   2.087 -2.9062 -0.3711 -2.6996
   84SLPC   C11 7919   3.182   5.552   1.951  0.4488 -0.5411 -0.0137
   84SLPC  H11A 7920   3.199   5.444   1.928 -1.4821 -0.8419 -0.1893
   84SLPC  H11B 7921   3.281   5.601   1.964 -0.7657  1.9742  0.2182
   84SLPC     P 7922   3.117   5.775   1.812  0.0944 -0.1075 -0.0520
   84SLPC   O13 7923   3.245   5.775   1.733  0.1709 -0.1576  0.0487
   84SLPC   O14 7924   2.997   5.825   1.749 -0.1544  0.3419  0.0315
   84SLPC   O12 7925   3.103   5.618   1.849  0.0602 -0.5756 -0.0824
   84SLPC   O11 7926   3.130   5.854   1.952 -0.3580  0.2518  0.1675
   84SLPC    C1 7927   3.234   5.944   1.974 -0.7552 -0.2572 -1.1063
   84SLPC    HA 7928   3.328   5.885   1.981  0.1679  1.3411  1.3310
   84SLPC    HB 7929   3.244   6.029   1.903  0.2776  2.3719  1.9383
   84SLPC    C2 7930   3.215   6.025   2.106 -0.5700 -0.3098  0.5180
   84SLPC    HS 7931   3.295   6.102   2.109 -2.1510  1.3658  1.5283
   84SLPC   O21 7932   3.211   5.926   2.214 -0.1026 -0.1497 -0.0832
   84SLPC   C21 7933   3.318   5.926   2.278 -0.0263  0.1877  0.2528
   84SLPC   O22 7934   3.420   5.990   2.252  0.1251 -0.1411  0.2585
   84SLPC   C22 7935   3.303   5.844   2.408 -0.3889  0.2470  0.3789
   84SLPC   H2R 7936   3.204   5.793   2.408 -0.6881  0.8199  0.2853
   84SLPC   H2S 7937   3.387   5.772   2.408 -1.1963 -0.8658 -2.8244
   84SLPC    C3 7938   3.081   6.103   2.098  0.4577 -0.5273 -0.6548
   84SLPC    HX 7939   2.996   6.035   2.079 -0.7426  0.1029  2.0024
   84SLPC    HY 7940   3.088   6.174   2.013 -0.2485  1.4053  0.8105
   84SLPC   O31 7941   3.065   6.175   2.229  0.5478  0.7661 -0.0122
   84SLPC   C31 7942   3.145   6.276   2.231  0.3282 -0.5665 -0.2973
   84SLPC   O32 7943   3.232   6.309   2.148  0.3400  0.0464 -0.2301
   84SLPC   C32 7944   3.120   6.347   2.358 -0.3303  0.4036 -0.2481
   84SLPC   H2X 7945   3.088   6.278   2.440  0.4117 -3.5890 -3.0339
   84SLPC   H2Y 7946   3.036   6.418   2.344 -2.4031 -1.7981  0.3104
   84SLPC   C23 7947   3.311   5.936   2.538  0.4094 -1.4631  0.2425
   84SLPC   H3R 7948   3.382   6.017   2.510 -0.4049 -0.9962 -0.4817
   84SLPC   H3S 7949   3.363   5.892   2.626  1.8327  0.5400  0.4688
   84SLPC   C24 7950   3.170   5.989   2.578  0.4063  0.4475 -0.1125
   84SLPC   H4R 7951   3.113   5.903   2.618  0.3761  0.7200  0.4511
   84SLPC   H4S 7952   3.107   6.032   2.498 -0.5894  0.3246  0.5848
   84SLPC   C25 7953   3.178   6.087   2.692 -0.6305  0.3110  0.2520
   84SLPC   H5R 7954   3.226   6.181   2.656 -0.1081  0.1571  0.5362
   84SLPC   H5S 7955   3.234   6.047   2.779  0.0951 -1.7727 -1.1194
   84SLPC   C26 7956   3.035   6.133   2.732  0.2721 -0.7442  0.3407
   84SLPC   H6R 7957   2.982   6.165   2.641  1.6925  0.3047 -0.1567
   84SLPC   H6S 7958   3.049   6.215   2.806 -1.6524 -0.2259  0.1702
   84SLPC   C27 7959   2.943   6.019   2.796  0.0590 -0.1212 -0.3299
   84SLPC   H7R 7960   3.008   5.952   2.856 -0.5051 -0.5414 -0.1788
   84SLPC   H7S 7961   2.905   5.946   2.721  0.2439 -0.1270 -0.4185
   84SLPC   C28 7962   2.830   6.080   2.880  0.2034 -0.3006 -0.2290
   84SLPC   H8R 7963   2.754   6.122   2.811  0.3532  0.9083  0.3241
   84SLPC   H8S 7964   2.866   6.164   2.943 -1.8239 -0.3373  1.0917
   84SLPC   C29 7965   2.781   5.969   2.964  0.1748 -0.0460 -0.5016
   84SLPC   H9R 7966   2.831   5.871   2.958 -1.4670 -1.1546  2.3037
   84SLPC  C210 7967   2.662   5.968   3.025 -0.3384 -0.1973 -0.8149
   84SLPC  H10R 7968   2.622   5.884   3.084 -0.2582  0.2993 -0.0364
   84SLPC  C211 7969   2.574   6.089   3.023 -0.4276  0.3110 -0.2652
   84SLPC  H11R 7970   2.618   6.179   2.975  0.0835 -0.1219 -0.6238
   84SLPC  H11S 7971   2.547   6.119   3.126 -0.4729  2.7196 -0.9258
   84SLPC  C212 7972   2.446   6.045   2.944  0.0906 -0.5174 -0.6540
   84SLPC  H12R 7973   2.456   5.998   2.845 -1.7868 -1.2173 -0.5501
   84SLPC  C213 7974   2.314   6.056   2.996  0.1735  0.9878 -0.1489
   84SLPC  H13R 7975   2.232   6.031   2.928 -0.0111 -1.8800  1.0272
   84SLPC  C214 7976   2.279   6.101   3.136 -0.6737 -0.8262  0.2693
   84SLPC  H14R 7977   2.226   6.198   3.145  4.2483  2.1525  0.8814
   84SLPC  H14S 7978   2.366   6.110   3.204  0.9479 -0.2210 -1.7880
   84SLPC  C215 7979   2.187   5.990   3.201  0.1343 -0.1427  0.4248
   84SLPC  H15R 7980   2.229   5.889   3.184 -1.3562 -0.6560 -0.4120
   84SLPC  H15S 7981   2.094   5.986   3.141 -0.4549 -1.3301  1.3712
   84SLPC  C216 7982   2.139   6.014   3.346 -0.3610  0.2368 -0.2348
   84SLPC  H16R 7983   2.180   6.108   3.388 -0.8042  1.1020 -1.6590
   84SLPC  H16S 7984   2.177   5.925   3.400 -2.0431 -1.6021 -1.8966
   84SLPC  C217 7985   1.988   6.024   3.349  0.1084 -0.1820 -0.5697
   84SLPC  H17R 7986   1.949   5.925   3.315  0.4323 -0.2951 -0.6205
   84SLPC  H17S 7987   1.956   6.105   3.281 -1.7141  0.0651  0.5262
   84SLPC  C218 7988   1.936   6.046   3.494  0.1566  0.1305  0.1353
   84SLPC  H18R 7989   1.960   5.957   3.556 -0.8681 -1.4061 -1.5768
   84SLPC  H18S 7990   1.825   6.047   3.486  0.2749 -0.3289 -2.5703
   84SLPC  H18T 7991   1.964   6.146   3.534  2.9363 -0.0221 -1.2171
   84SLPC   C33 7992   3.248   6.434   2.398  0.2937 -0.2687 -0.1996
   84SLPC   H3X 7993   3.227   6.497   2.487  1.3864 -0.2977  0.1030
   84SLPC   H3Y 7994   3.262   6.508   2.316  0.3097  0.0555  0.0937
   84SLPC   C34 7995   3.371   6.349   2.426  0.4731 -0.4249  0.3891
   84SLPC   H4X 7996   3.391   6.281   2.341 -1.9146  0.0192 -0.6097
   84SLPC   H4Y 7997   3.339   6.283   2.510 -1.0423 -1.3661 -0.8834
   84SLPC   C35 7998   3.503   6.422   2.461  0.5354 -0.2814  0.4901
   84SLPC   H5X 7999   3.516   6.490   2.374  1.4345  0.1700  0.9663
   84SLPC   H5Y 8000   3.588   6.351   2.470  0.6165 -0.2879 -0.2623
   84SLPC   C36 8001   3.497   6.521   2.585  0.1399 -0.5160 -0.0896
   84SLPC   H6X 8002   3.405   6.583   2.578  0.8608  0.4401 -1.7832
   84SLPC   H6Y 8003   3.587   6.584   2.578 -0.0256 -0.3703 -1.0834
   84SLPC   C37 8004   3.506   6.447   2.721  0.4216  0.3756 -0.0293
   84SLPC   H7X 8005   3.606   6.400   2.732  0.3293  0.0853 -0.3881
   84SLPC   H7Y 8006   3.437   6.359   2.720  0.0892  0.6314  0.0300
   84SLPC   C38 8007   3.457   6.533   2.828  1.2601 -0.1114  0.0471
   84SLPC   H8X 8008   3.365   6.582   2.791  1.2360 -0.6389 -0.6020
   84SLPC   H8Y 8009   3.540   6.603   2.851  1.0914  0.2595 -0.4636
   84SLPC   C39 8010   3.437   6.447   2.963 -0.0446 -0.2642  0.1549
   84SLPC   H9X 8011   3.536   6.421   3.008 -0.4512 -0.7668  0.7850
   84SLPC   H9Y 8012   3.372   6.358   2.950 -1.7989  0.6845  1.9003
   84SLPC  C310 8013   3.367   6.526   3.079 -0.9344 -0.8233 -0.2009
   84SLPC  H10X 8014   3.269   6.548   3.032 -0.8648  0.6798  0.2901
   84SLPC  H10Y 8015   3.434   6.615   3.085 -0.3393 -1.1201 -1.9296
   84SLPC  C311 8016   3.376   6.436   3.204 -0.0621  0.8071  0.2329
   84SLPC  H11X 8017   3.482   6.420   3.232  0.3292 -1.2320 -2.0384
   84SLPC  H11Y 8018   3.335   6.338   3.172  0.2379  0.6710  0.2607
   84SLPC  C312 8019   3.284   6.489   3.321 -0.1905 -0.0201  0.6046
   84SLPC  H12X 8020   3.178   6.481   3.289  0.2216 -0.8108 -0.6325
   84SLPC  H12Y 8021   3.286   6.600   3.330  3.5917  0.2513 -1.2858
   84SLPC  C313 8022   3.309   6.429   3.463  0.5422 -0.1366 -1.1999
   84SLPC  H13X 8023   3.407   6.461   3.505  1.9392 -0.5591 -3.9253
   84SLPC  H13Y 8024   3.312   6.319   3.452 -2.7497 -0.5080  0.2948
   84SLPC  C314 8025   3.191   6.454   3.557  0.1362  0.0036  0.7599
   84SLPC  H14X 8026   3.099   6.429   3.499  0.7361 -2.2892  0.6923
   84SLPC  H14Y 8027   3.180   6.561   3.585  0.1217  1.0588 -2.8137
   84SLPC  C315 8028   3.190   6.366   3.682  0.4939 -0.2257 -0.7093
   84SLPC  H15X 8029   3.272   6.399   3.749  1.2852 -1.3095 -1.1212
   84SLPC  H15Y 8030   3.197   6.258   3.657 -3.2408 -0.8089  0.1286
   84SLPC  C316 8031   3.064   6.387   3.774 -0.2509  0.3064 -0.7047
   84SLPC  H16X 8032   2.973   6.344   3.729  0.3155 -2.5964  0.6835
   84SLPC  H16Y 8033   3.049   6.495   3.798  1.9165  0.6582 -0.7288
   84SLPC  C317 8034   3.082   6.312   3.911 -0.5708 -0.2300 -0.1354
   84SLPC  H17X 8035   3.013   6.362   3.982 -0.2484  0.6017 -0.3985
   84SLPC  H17Y 8036   3.185   6.316   3.952 -0.5809 -1.7294  0.1094
   84SLPC  C318 8037   3.032   6.169   3.903  0.3533  1.0989  0.1745
   84SLPC  H18X 8038   2.926   6.170   3.872  1.2541 -3.3158 -4.2621
   84SLPC  H18Y 8039   3.027   6.117   4.001 -2.8442 -1.3128 -1.0926
   84SLPC  H18Z 8040   3.075   6.109   3.821 -0.8894 -2.0521  1.6497
   85SLPC     N 8041   3.853   3.027   2.200 -0.5982 -0.9450  0.5075
   85SLPC   C13 8042   3.881   2.886   2.161  0.1818  0.4314 -0.1653
   85SLPC  H13A 8043   3.971   2.846   2.204 -0.1906  0.2243  0.4332
   85SLPC  H13B 8044   3.795   2.829   2.191  0.8441 -0.0547  0.8537
   85SLPC  H13C 8045   3.883   2.872   2.054  0.8296  2.1282 -0.4070
   85SLPC   C14 8046   3.721   3.055   2.144  0.2918  0.4027  0.3959
   85SLPC  H14A 8047   3.698   3.160   2.157 -0.8614  0.1940  0.1865
   85SLPC  H14B 8048   3.711   3.032   2.039 -0.3246  0.1515  0.5058
   85SLPC  H14C 8049   3.641   3.008   2.199  0.9455  1.5325  2.4465
   85SLPC   C15 8050   3.949   3.104   2.122  1.0777 -0.0887 -0.3581
   85SLPC  H15A 8051   4.051   3.071   2.134  0.7051 -1.6312 -1.1683
   85SLPC  H15B 8052   3.927   3.092   2.017  0.0897 -0.5967 -0.1075
   85SLPC  H15C 8053   3.953   3.206   2.157 -0.6303 -0.2708  0.4580
   85SLPC   C12 8054   3.853   3.062   2.349 -0.2576 -0.5420 -0.5093
   85SLPC  H12A 8055   3.783   2.996   2.398 -0.6202  1.8483  2.4113
   85SLPC  H12B 8056   3.806   3.158   2.364 -2.1508 -1.4355 -0.3942
   85SLPC   C11 8057   3.990   3.066   2.419  0.2203  0.9901 -0.1677
   85SLPC  H11A 8058   4.020   2.959   2.413  0.3023  1.0947 -2.9751
   85SLPC  H11B 8059   3.962   3.085   2.525 -1.7917 -1.3554 -0.1878
   85SLPC     P 8060   4.087   3.301   2.402  0.4582  0.0158 -0.2393
   85SLPC   O13 8061   4.162   3.374   2.298 -0.0102  0.7959 -0.1807
   85SLPC   O14 8062   3.946   3.345   2.417 -1.3423 -0.2863 -0.6492
   85SLPC   O12 8063   4.092   3.149   2.360 -0.4961  0.5567 -0.0441
   85SLPC   O11 8064   4.149   3.305   2.551  0.2799  0.5582  0.4727
   85SLPC    C1 8065   4.276   3.247   2.567 -0.1025  0.9129  0.3549
   85SLPC    HA 8066   4.264   3.137   2.556  1.4050  0.7096  0.5217
   85SLPC    HB 8067   4.343   3.290   2.490  0.5430 -0.7134 -0.0299
   85SLPC    C2 8068   4.345   3.276   2.706 -0.4632 -0.7071  0.4002
   85SLPC    HS 8069   4.448   3.234   2.699  0.3677  1.4588 -1.6383
   85SLPC   O21 8070   4.268   3.212   2.809 -0.9199 -0.0389 -0.3543
   85SLPC   C21 8071   4.277   3.084   2.811 -0.2532 -0.8586  0.1740
   85SLPC   O22 8072   4.327   3.011   2.729 -0.3164 -0.3658 -0.2310
   85SLPC   C22 8073   4.196   3.045   2.938  0.6340  0.2887  0.6785
   85SLPC   H2R 8074   4.114   3.116   2.962 -2.4844 -3.0770  0.8031
   85SLPC   H2S 8075   4.137   2.959   2.900  2.7742 -0.4498 -1.1866
   85SLPC    C3 8076   4.368   3.431   2.728  0.1469  0.1705  0.2914
   85SLPC    HX 8077   4.270   3.469   2.692 -0.8846 -1.5187  1.2094
   85SLPC    HY 8078   4.447   3.474   2.661 -0.5211  2.6398  0.9766
   85SLPC   O31 8079   4.403   3.461   2.869  0.6562  0.3788  0.3813
   85SLPC   C31 8080   4.304   3.519   2.938 -0.1423  0.5067 -0.6362
   85SLPC   O32 8081   4.190   3.541   2.906 -0.0286 -0.0838 -0.2374
   85SLPC   C32 8082   4.365   3.573   3.062  0.3192  0.4628 -0.9922
   85SLPC   H2X 8083   4.355   3.680   3.037  0.7173  0.6273 -0.4677
   85SLPC   H2Y 8084   4.467   3.538   3.091  0.8248  1.4513 -1.5319
   85SLPC   C23 8085   4.280   3.003   3.060 -0.7844 -0.7761  0.0037
   85SLPC   H3R 8086   4.338   3.092   3.091  0.9888 -1.5895 -0.8414
   85SLPC   H3S 8087   4.361   2.929   3.040  0.2922  0.1773  0.7364
   85SLPC   C24 8088   4.207   2.921   3.172  0.3579 -0.1447 -0.0566
   85SLPC   H4R 8089   4.168   2.827   3.127  1.2967  0.1613 -1.5847
   85SLPC   H4S 8090   4.118   2.984   3.192 -0.4586 -0.3416 -2.6378
   85SLPC   C25 8091   4.290   2.894   3.292 -0.3136  0.0876 -0.5822
   85SLPC   H5R 8092   4.257   2.792   3.320  3.5077 -1.1978 -0.2843
   85SLPC   H5S 8093   4.398   2.896   3.268 -0.7684 -0.4210 -2.8746
   85SLPC   C26 8094   4.256   2.998   3.398  0.0180 -0.2463 -0.9487
   85SLPC   H6R 8095   4.149   3.028   3.406  0.2334  1.0809 -2.5825
   85SLPC   H6S 8096   4.314   3.091   3.378  0.4775 -0.2004  0.4984
   85SLPC   C27 8097   4.294   2.959   3.545 -0.0521 -0.2613  0.2642
   85SLPC   H7R 8098   4.401   2.947   3.570  0.0337  0.2079  0.1147
   85SLPC   H7S 8099   4.260   2.854   3.561 -1.0095 -0.1746 -1.0458
   85SLPC   C28 8100   4.235   3.053   3.660 -0.2320 -0.3578  0.0581
   85SLPC   H8R 8101   4.134   3.079   3.622  1.0325  0.4534 -3.0610
   85SLPC   H8S 8102   4.289   3.151   3.652 -0.6822 -0.1402 -0.3547
   85SLPC   C29 8103   4.246   3.000   3.799  0.3864 -0.6931 -0.1300
   85SLPC   H9R 8104   4.172   2.922   3.821 -1.1773  1.1054  1.3691
   85SLPC  C210 8105   4.341   3.014   3.891  0.1565 -0.9531 -0.0185
   85SLPC  H10R 8106   4.317   2.978   3.992  0.9563  1.0886  0.9660
   85SLPC  C211 8107   4.457   3.108   3.879 -0.3944 -0.1530  0.2815
   85SLPC  H11R 8108   4.479   3.135   3.985 -0.9047  2.4511 -0.2160
   85SLPC  H11S 8109   4.423   3.201   3.829  0.2939  0.0296  0.1508
   85SLPC  C212 8110   4.578   3.058   3.801 -0.0807  0.7739  0.2291
   85SLPC  H12R 8111   4.567   3.062   3.691  0.6986  2.4589  0.1793
   85SLPC  C213 8112   4.683   2.993   3.853 -0.6624  0.0835 -0.5229
   85SLPC  H13R 8113   4.771   2.965   3.794 -0.7122  0.7672 -0.9181
   85SLPC  C214 8114   4.715   2.948   3.995  0.7053  0.4116 -0.2894
   85SLPC  H14R 8115   4.798   2.875   3.981 -0.1601 -0.8705  0.9594
   85SLPC  H14S 8116   4.631   2.892   4.043  0.4594  0.1943 -0.9575
   85SLPC  C215 8117   4.758   3.063   4.083 -0.0736 -0.0808  0.5906
   85SLPC  H15R 8118   4.690   3.149   4.068 -0.5597 -0.4424  0.7087
   85SLPC  H15S 8119   4.856   3.102   4.046 -1.2113  2.5455  0.1670
   85SLPC  C216 8120   4.770   3.016   4.231 -1.0047 -0.3762  0.0443
   85SLPC  H16R 8121   4.825   2.920   4.230 -0.2992  0.0261 -0.5510
   85SLPC  H16S 8122   4.667   2.997   4.269 -0.6378 -0.4444  1.0426
   85SLPC  C217 8123   4.841   3.116   4.318  0.1404 -0.4192  0.1005
   85SLPC  H17R 8124   4.769   3.201   4.315  0.6750  0.0671  0.8220
   85SLPC  H17S 8125   4.939   3.147   4.277  0.2532  2.3810  2.1752
   85SLPC  C218 8126   4.851   3.064   4.462 -1.4395  0.6305  0.2832
   85SLPC  H18R 8127   4.747   3.053   4.500 -1.9118  3.2414 -0.0948
   85SLPC  H18S 8128   4.904   3.133   4.531 -2.1334  0.1541  1.3291
   85SLPC  H18T 8129   4.906   2.968   4.455 -0.6085  1.1651 -0.6709
   85SLPC   C33 8130   4.261   3.547   3.177  0.6776 -0.3305 -0.1779
   85SLPC   H3X 8131   4.167   3.606   3.166 -0.1165 -0.9654  2.5267
   85SLPC   H3Y 8132   4.302   3.601   3.264 -0.1749  1.5053 -0.8535
   85SLPC   C34 8133   4.232   3.397   3.198 -0.1468 -0.2104 -0.5479
   85SLPC   H4X 8134   4.316   3.330   3.226 -0.6408 -0.0152  1.5037
   85SLPC   H4Y 8135   4.185   3.355   3.106 -1.5838  2.4744 -1.1429
   85SLPC   C35 8136   4.146   3.370   3.317  0.2430 -0.0381 -0.3382
   85SLPC   H5X 8137   4.126   3.262   3.335 -1.4858  0.4574  0.8837
   85SLPC   H5Y 8138   4.047   3.415   3.297 -0.9436 -2.3728 -0.0300
   85SLPC   C36 8139   4.206   3.426   3.446  0.0623 -0.2534  0.2018
   85SLPC   H6X 8140   4.209   3.537   3.448 -0.1545 -0.2338 -0.4678
   85SLPC   H6Y 8141   4.311   3.390   3.454  0.4387  1.0418  1.4967
   85SLPC   C37 8142   4.141   3.386   3.576  0.3758  0.3711  0.0946
   85SLPC   H7X 8143   4.132   3.275   3.569  0.2846  0.0329  3.6232
   85SLPC   H7Y 8144   4.034   3.413   3.571  0.9634  2.8992 -0.0800
   85SLPC   C38 8145   4.200   3.433   3.713 -0.8700 -0.2314 -0.5311
   85SLPC   H8X 8146   4.205   3.544   3.710  3.1932 -0.2753 -2.2054
   85SLPC   H8Y 8147   4.304   3.402   3.738 -1.3265 -0.4913  1.1260
   85SLPC   C39 8148   4.113   3.379   3.827 -0.0579  0.0735  0.4257
   85SLPC   H9X 8149   4.139   3.271   3.824  0.3590  0.1820 -0.0863
   85SLPC   H9Y 8150   4.005   3.400   3.810 -0.2279  1.6946  2.9337
   85SLPC  C310 8151   4.155   3.429   3.967  0.3262 -0.3794  0.8133
   85SLPC  H10X 8152   4.076   3.403   4.042  1.4449 -1.7170  1.5696
   85SLPC  H10Y 8153   4.153   3.540   3.965 -1.5505 -0.3270  2.4024
   85SLPC  C311 8154   4.289   3.373   4.019 -0.0122  0.0413 -0.8037
   85SLPC  H11X 8155   4.373   3.399   3.950 -0.0410 -1.5944 -1.4974
   85SLPC  H11Y 8156   4.276   3.264   4.036 -1.4697  0.6520  2.7849
   85SLPC  C312 8157   4.321   3.423   4.157  0.5228  0.5057  0.3182
   85SLPC  H12X 8158   4.265   3.355   4.225 -0.2074 -0.5337 -1.2719
   85SLPC  H12Y 8159   4.260   3.515   4.174 -1.3818 -0.9041  1.4754
   85SLPC  C313 8160   4.468   3.416   4.195 -0.2491 -0.3898 -0.7175
   85SLPC  H13X 8161   4.518   3.488   4.126 -4.1928  3.2104 -0.2436
   85SLPC  H13Y 8162   4.515   3.315   4.185 -0.3364 -0.5356  0.2669
   85SLPC  C314 8163   4.490   3.478   4.338 -0.0597  0.3867  0.1939
   85SLPC  H14X 8164   4.448   3.395   4.398  3.6357 -2.3115 -0.5826
   85SLPC  H14Y 8165   4.432   3.572   4.351 -2.8136 -1.1225 -0.3931
   85SLPC  C315 8166   4.640   3.500   4.379  0.2002  0.3654 -0.1051
   85SLPC  H15X 8167   4.663   3.607   4.359  1.3168 -0.2110 -2.3104
   85SLPC  H15Y 8168   4.704   3.437   4.313  0.1600  1.0605 -0.8209
   85SLPC  C316 8169   4.663   3.463   4.521  0.5784  0.3541 -0.3711
   85SLPC  H16X 8170   4.642   3.356   4.541  2.6145  0.1867  1.2618
   85SLPC  H16Y 8171   4.589   3.515   4.586 -0.7432 -1.5653 -0.2515
   85SLPC  C317 8172   4.803   3.490   4.573 -0.4689  0.4314  0.1546
   85SLPC  H17X 8173   4.831   3.597   4.567  1.6462 -0.1195 -0.9584
   85SLPC  H17Y 8174   4.873   3.441   4.502  0.8838  2.6190 -0.1278
   85SLPC  C318 8175   4.827   3.442   4.711 -0.4520  0.3780 -0.4317
   85SLPC  H18X 8176   4.793   3.516   4.787  1.7208  0.1281  0.8522
   85SLPC  H18Y 8177   4.932   3.414   4.733 -1.0373 -0.2965  1.7495
   85SLPC  H18Z 8178   4.770   3.348   4.733 -0.2973  0.0976 -1.1837
   86SLPC     N 8179   2.181   1.314   2.216 -0.8699  0.2423  0.4067
   86SLPC   C13 8180   2.048   1.258   2.203 -0.0594  0.3994  0.0935
   86SLPC  H13A 8181   1.979   1.340   2.193 -2.0218 -1.3864 -2.2712
   86SLPC  H13B 8182   2.037   1.201   2.112 -0.9041  1.9978 -0.8451
   86SLPC  H13C 8183   2.022   1.199   2.290  0.4084  0.3223  0.1825
   86SLPC   C14 8184   2.209   1.390   2.088  0.5649  0.5079  0.1318
   86SLPC  H14A 8185   2.210   1.330   1.998 -3.2699  1.8618 -0.9949
   86SLPC  H14B 8186   2.128   1.461   2.085 -1.7144 -1.9207  0.1269
   86SLPC  H14C 8187   2.299   1.450   2.083 -0.6937  2.5897  1.0740
   86SLPC   C15 8188   2.276   1.200   2.233  0.3930 -0.0533  0.0280
   86SLPC  H15A 8189   2.247   1.128   2.307 -1.5283 -0.4855 -1.0832
   86SLPC  H15B 8190   2.279   1.142   2.142  0.2193 -2.7175  1.6452
   86SLPC  H15C 8191   2.379   1.232   2.240  0.1306  0.5891  1.2456
   86SLPC   C12 8192   2.197   1.402   2.340  0.2198 -0.1898 -0.8893
   86SLPC  H12A 8193   2.140   1.494   2.334 -0.6473 -0.7391 -1.4006
   86SLPC  H12B 8194   2.299   1.436   2.343  0.2942 -0.0185 -3.3853
   86SLPC   C11 8195   2.168   1.334   2.479  1.1302  0.8966 -0.2071
   86SLPC  H11A 8196   2.213   1.397   2.559  1.7596  0.0984  0.0810
   86SLPC  H11B 8197   2.224   1.240   2.498 -0.3382  0.6095  3.6586
   86SLPC     P 8198   1.925   1.432   2.501 -0.2932 -0.0016 -0.1158
   86SLPC   O13 8199   1.986   1.559   2.445 -0.2115  0.4795  0.2954
   86SLPC   O14 8200   1.801   1.390   2.430  0.8126 -0.3743 -0.1421
   86SLPC   O12 8201   2.029   1.319   2.506 -0.3175 -0.3117 -0.4484
   86SLPC   O11 8202   1.897   1.460   2.658  0.8304 -0.0850  0.5971
   86SLPC    C1 8203   1.853   1.352   2.747  0.3733 -0.6762 -0.2747
   86SLPC    HA 8204   1.898   1.255   2.715  0.4700 -0.4315 -0.9015
   86SLPC    HB 8205   1.883   1.368   2.852  0.3685 -2.8505  0.1152
   86SLPC    C2 8206   1.692   1.341   2.744  0.3829  0.2900 -0.2747
   86SLPC    HS 8207   1.658   1.367   2.642  3.0508 -0.0604 -1.3492
   86SLPC   O21 8208   1.636   1.412   2.853 -0.3966  0.5019 -0.0945
   86SLPC   C21 8209   1.504   1.431   2.852 -0.4020 -0.0856 -0.1552
   86SLPC   O22 8210   1.426   1.399   2.763 -0.5888 -0.6515  0.7150
   86SLPC   C22 8211   1.460   1.504   2.980  0.2994  0.3871  0.3514
   86SLPC   H2R 8212   1.523   1.594   2.994  0.2047  0.5661 -0.3519
   86SLPC   H2S 8213   1.354   1.530   2.959 -0.2662 -0.3136  2.1557
   86SLPC    C3 8214   1.661   1.192   2.759  0.3788  0.7018 -0.0080
   86SLPC    HX 8215   1.699   1.144   2.667 -0.2723 -0.7106  0.4166
   86SLPC    HY 8216   1.551   1.172   2.765  0.1567  1.7351 -0.4801
   86SLPC   O31 8217   1.731   1.126   2.863 -0.2076 -0.1276 -0.0326
   86SLPC   C31 8218   1.666   1.107   2.984  0.1400  0.1704  0.8177
   86SLPC   O32 8219   1.543   1.120   3.000  0.1766 -0.0037  0.0195
   86SLPC   C32 8220   1.760   1.066   3.096  0.5519 -0.1211  0.1139
   86SLPC   H2X 8221   1.818   1.158   3.119  1.3298  0.6496 -4.0620
   86SLPC   H2Y 8222   1.818   0.972   3.078  0.3974 -0.2084  0.0714
   86SLPC   C23 8223   1.467   1.419   3.109 -0.4552  0.5191  0.0399
   86SLPC   H3R 8224   1.575   1.394   3.121 -0.1054  2.1815  0.6738
   86SLPC   H3S 8225   1.409   1.326   3.093 -0.0560  0.2644  0.0561
   86SLPC   C24 8226   1.411   1.498   3.232 -0.7159  0.1799  0.3025
   86SLPC   H4R 8227   1.303   1.519   3.217 -1.0054 -2.9777 -3.7183
   86SLPC   H4S 8228   1.469   1.592   3.243 -0.9119  0.6608 -2.2194
   86SLPC   C25 8229   1.436   1.419   3.356  0.4531  0.3514 -0.0167
   86SLPC   H5R 8230   1.542   1.390   3.375 -0.2002 -2.3433 -0.1253
   86SLPC   H5S 8231   1.385   1.323   3.338  1.0663  0.3834 -2.1802
   86SLPC   C26 8232   1.384   1.476   3.494 -0.3137 -0.1294  0.1676
   86SLPC   H6R 8233   1.273   1.470   3.494 -0.5905  3.2480 -0.7048
   86SLPC   H6S 8234   1.395   1.586   3.490  2.2821 -0.2671  1.2798
   86SLPC   C27 8235   1.444   1.414   3.618 -0.1232  0.2081 -0.4788
   86SLPC   H7R 8236   1.404   1.446   3.716 -0.1364 -3.9346  1.0727
   86SLPC   H7S 8237   1.554   1.426   3.613 -0.0859  0.3566  0.6052
   86SLPC   C28 8238   1.412   1.265   3.617  0.0713  0.9528 -0.1637
   86SLPC   H8R 8239   1.457   1.209   3.702 -0.8531 -0.1319 -0.3642
   86SLPC   H8S 8240   1.466   1.210   3.537  0.2850  0.4191  0.3398
   86SLPC   C29 8241   1.261   1.230   3.627 -0.0407  0.1400 -0.2591
   86SLPC   H9R 8242   1.190   1.267   3.551 -1.3301  0.4920  1.0662
   86SLPC  C210 8243   1.194   1.152   3.715  0.1836 -0.2631 -0.4826
   86SLPC  H10R 8244   1.084   1.147   3.706  0.3024 -0.1604 -2.1406
   86SLPC  C211 8245   1.265   1.067   3.823  0.3991 -0.2390  0.2117
   86SLPC  H11R 8246   1.363   1.028   3.788  0.1712 -0.6817  0.0569
   86SLPC  H11S 8247   1.196   0.982   3.845 -1.3214  0.6233 -1.6291
   86SLPC  C212 8248   1.282   1.154   3.946 -0.1528  0.1130 -0.6294
   86SLPC  H12R 8249   1.292   1.263   3.932  0.2310  0.0278 -1.0132
   86SLPC  C213 8250   1.295   1.096   4.071 -0.5499  0.1134  0.4396
   86SLPC  H13R 8251   1.295   1.156   4.163  1.7887  0.4498  0.2852
   86SLPC  C214 8252   1.264   0.958   4.104  0.4629  0.2976 -0.3262
   86SLPC  H14R 8253   1.350   0.915   4.161  1.3213  0.1078 -1.7165
   86SLPC  H14S 8254   1.234   0.897   4.016 -0.8548  0.8123 -0.2545
   86SLPC  C215 8255   1.139   0.942   4.194  0.4137  0.4347 -0.4304
   86SLPC  H15R 8256   1.148   0.995   4.291  1.8357 -0.9533  0.2436
   86SLPC  H15S 8257   1.125   0.838   4.229 -0.1804 -0.4998 -3.1919
   86SLPC  C216 8258   1.013   0.983   4.124 -0.4156  0.1202  0.5746
   86SLPC  H16R 8259   1.021   0.946   4.020  0.9698 -1.4301  1.1907
   86SLPC  H16S 8260   1.010   1.094   4.118  2.1684  0.2146 -0.4898
   86SLPC  C217 8261   0.894   0.926   4.192  0.4569 -0.2253  0.7967
   86SLPC  H17R 8262   0.893   0.957   4.298  0.5725  1.7270  0.2617
   86SLPC  H17S 8263   0.893   0.816   4.180 -1.2400 -0.0784 -0.9138
   86SLPC  C218 8264   0.765   0.977   4.130 -0.2820 -0.0574  0.6834
   86SLPC  H18R 8265   0.668   0.954   4.180 -0.3217 -0.9935  0.2010
   86SLPC  H18S 8266   0.755   0.932   4.029 -0.7547 -0.8247  1.0654
   86SLPC  H18T 8267   0.774   1.088   4.121 -0.7251 -0.0879 -0.3739
   86SLPC   C33 8268   1.676   1.042   3.231 -0.1939 -0.4925 -1.0619
   86SLPC   H3X 8269   1.606   0.958   3.212  0.3663 -1.2600  0.1416
   86SLPC   H3Y 8270   1.627   1.141   3.248  1.6296  0.4575 -1.0573
   86SLPC   C34 8271   1.759   1.016   3.359  0.0609 -0.0845  0.2970
   86SLPC   H4X 8272   1.818   1.104   3.392 -2.3301  1.6757  0.1862
   86SLPC   H4Y 8273   1.827   0.935   3.326 -1.4690 -2.1638  2.0328
   86SLPC   C35 8274   1.674   0.976   3.478 -0.3360 -0.6039  0.2062
   86SLPC   H5X 8275   1.626   0.876   3.476 -3.2447  0.6750 -2.1114
   86SLPC   H5Y 8276   1.590   1.046   3.494 -1.4842 -2.6449  4.2814
   86SLPC   C36 8277   1.761   0.977   3.608  0.2360  0.4025 -0.3927
   86SLPC   H6X 8278   1.801   1.078   3.632 -1.3977  0.3316  3.0850
   86SLPC   H6Y 8279   1.850   0.911   3.597  0.2554 -0.1346  2.4346
   86SLPC   C37 8280   1.677   0.933   3.731 -0.4488 -0.0356  0.0771
   86SLPC   H7X 8281   1.696   0.824   3.730  2.5514  0.3514 -3.2871
   86SLPC   H7Y 8282   1.570   0.964   3.735 -0.3633  0.4325 -0.9562
   86SLPC   C38 8283   1.743   0.973   3.859  0.1228  0.0598  0.6270
   86SLPC   H8X 8284   1.733   1.082   3.882  1.1907  0.5157 -0.9088
   86SLPC   H8Y 8285   1.852   0.965   3.838 -0.3522  0.0649 -2.2332
   86SLPC   C39 8286   1.700   0.891   3.979  0.3739 -0.0978  0.1472
   86SLPC   H9X 8287   1.698   0.782   3.956 -1.9651 -0.0118 -0.3483
   86SLPC   H9Y 8288   1.592   0.918   3.984  0.6968  1.3908 -0.5556
   86SLPC  C310 8289   1.770   0.936   4.104 -0.0943  0.7112 -0.2656
   86SLPC  H10X 8290   1.744   1.044   4.112 -2.7127  0.0667  1.2601
   86SLPC  H10Y 8291   1.880   0.927   4.094 -0.1455 -0.5847  0.1320
   86SLPC  C311 8292   1.710   0.857   4.226  0.1673 -0.8336  0.1481
   86SLPC  H11X 8293   1.730   0.748   4.219 -1.4875 -1.1146 -0.7616
   86SLPC  H11Y 8294   1.600   0.859   4.214  0.0029 -2.6140  1.0117
   86SLPC  C312 8295   1.754   0.908   4.366 -0.6299 -1.2027 -0.3971
   86SLPC  H12X 8296   1.862   0.880   4.371 -0.2055  0.4413  3.1639
   86SLPC  H12Y 8297   1.707   0.858   4.453 -0.7170  1.0325  0.9057
   86SLPC  C313 8298   1.745   1.061   4.388 -0.5822  0.0057 -0.0388
   86SLPC  H13X 8299   1.820   1.110   4.321 -1.1581  0.3368 -0.4473
   86SLPC  H13Y 8300   1.769   1.098   4.490  0.9115 -0.1056 -0.3251
   86SLPC  C314 8301   1.607   1.111   4.362  0.0388  0.5745 -0.3814
   86SLPC  H14X 8302   1.570   1.070   4.265  0.4698 -4.4334  1.2802
   86SLPC  H14Y 8303   1.607   1.221   4.349  1.1467  0.8773  1.8129
   86SLPC  C315 8304   1.507   1.080   4.478 -0.3584  0.4097  0.6141
   86SLPC  H15X 8305   1.579   1.070   4.562  1.6870 -0.0186 -1.1019
   86SLPC  H15Y 8306   1.463   0.980   4.462  0.0967  0.3046 -0.0040
   86SLPC  C316 8307   1.396   1.187   4.498 -0.0733 -0.4945  0.5626
   86SLPC  H16X 8308   1.312   1.188   4.425  0.0395  0.2156  0.4279
   86SLPC  H16Y 8309   1.436   1.290   4.508  1.7789 -1.1897  0.6405
   86SLPC  C317 8310   1.319   1.168   4.633 -0.7090  0.3007 -1.0985
   86SLPC  H17X 8311   1.384   1.199   4.718 -1.2739  0.4971 -0.7347
   86SLPC  H17Y 8312   1.298   1.059   4.641  0.2987  0.1525 -0.2398
   86SLPC  C318 8313   1.183   1.235   4.650 -0.4488  0.1612  0.0542
   86SLPC  H18X 8314   1.113   1.223   4.565 -0.2705 -0.0397 -0.0654
   86SLPC  H18Y 8315   1.205   1.344   4.641  1.2051 -0.2280 -1.0612
   86SLPC  H18Z 8316   1.126   1.191   4.735  0.8021 -0.6608  0.4960
   87SLPC     N 8317   3.855   5.689   1.910  0.6509 -0.3881  0.1024
   87SLPC   C13 8318   3.925   5.808   1.878  0.6203 -0.5343  0.2139
   87SLPC  H13A 8319   3.875   5.899   1.908 -2.0329 -1.6055 -0.6576
   87SLPC  H13B 8320   4.027   5.818   1.912  0.3374 -0.5843  1.1148
   87SLPC  H13C 8321   3.933   5.823   1.772 -0.6954 -1.6847 -0.0685
   87SLPC   C14 8322   3.934   5.577   1.849 -0.0686 -0.9959 -0.0896
   87SLPC  H14A 8323   4.016   5.556   1.916 -0.3834 -0.8186  0.3504
   87SLPC  H14B 8324   3.880   5.483   1.844 -1.3111 -0.2572 -0.7913
   87SLPC  H14C 8325   3.965   5.596   1.747 -0.3020  2.3638  0.3659
   87SLPC   C15 8326   3.717   5.702   1.846 -0.0050 -0.1069  0.2345
   87SLPC  H15A 8327   3.654   5.765   1.908  0.2679 -0.9242  1.3804
   87SLPC  H15B 8328   3.710   5.729   1.742 -3.4997 -2.9306 -0.4761
   87SLPC  H15C 8329   3.666   5.607   1.849  0.2792 -0.2842 -0.5914
   87SLPC   C12 8330   3.846   5.676   2.062  0.3080 -0.0089 -0.9558
   87SLPC  H12A 8331   3.799   5.582   2.087  1.7355 -0.6757 -0.6429
   87SLPC  H12B 8332   3.795   5.760   2.105 -1.4402  0.3094 -3.4570
   87SLPC   C11 8333   3.985   5.658   2.137 -0.5298  0.9132  0.6345
   87SLPC  H11A 8334   3.975   5.678   2.246 -1.5847  0.0006  0.7307
   87SLPC  H11B 8335   4.034   5.753   2.108 -0.3230  1.6408  3.0920
   87SLPC     P 8336   4.002   5.399   2.160  0.0377 -0.2571  0.1787
   87SLPC   O13 8337   3.857   5.386   2.120 -0.2720  0.4828 -0.7348
   87SLPC   O14 8338   4.094   5.289   2.117  0.2338 -0.6227  0.1255
   87SLPC   O12 8339   4.060   5.538   2.103  0.0591  0.0960  0.4475
   87SLPC   O11 8340   4.013   5.425   2.316 -0.3136  0.2393 -0.7212
   87SLPC    C1 8341   4.101   5.358   2.401  0.4300  0.6057 -0.4740
   87SLPC    HA 8342   4.208   5.361   2.370  0.9430  0.7263  1.2099
   87SLPC    HB 8343   4.101   5.399   2.504  0.9561  1.0047 -0.6244
   87SLPC    C2 8344   4.050   5.209   2.438 -0.6949 -0.0733 -0.4431
   87SLPC    HS 8345   4.054   5.149   2.345 -0.5140  0.7585 -0.9826
   87SLPC   O21 8346   3.914   5.219   2.494 -0.1036  0.0889  0.0011
   87SLPC   C21 8347   3.826   5.142   2.441  0.4164 -0.7163 -0.2754
   87SLPC   O22 8348   3.844   5.073   2.345 -0.0016  0.5446 -0.7542
   87SLPC   C22 8349   3.700   5.150   2.532  0.1268  0.2848 -0.5191
   87SLPC   H2R 8350   3.692   5.240   2.596  0.2495 -0.7067  0.9443
   87SLPC   H2S 8351   3.611   5.146   2.466  1.1364  3.0245 -2.2668
   87SLPC    C3 8352   4.149   5.157   2.549 -0.0758  0.6100 -0.2910
   87SLPC    HX 8353   4.250   5.151   2.502 -0.2479  1.8984 -0.8702
   87SLPC    HY 8354   4.126   5.053   2.578  0.9172 -0.0929 -1.8805
   87SLPC   O31 8355   4.132   5.236   2.660 -0.6485  0.3747 -0.6609
   87SLPC   C31 8356   4.239   5.302   2.706 -0.1719 -0.0462  0.5153
   87SLPC   O32 8357   4.351   5.285   2.655  0.3600  0.0222  0.1200
   87SLPC   C32 8358   4.203   5.409   2.804 -0.4932  0.1984 -0.2413
   87SLPC   H2X 8359   4.126   5.367   2.872 -0.6882  1.0693  0.0818
   87SLPC   H2Y 8360   4.143   5.481   2.744 -1.2095  0.2450  0.5219
   87SLPC   C23 8361   3.689   5.028   2.630  0.6528 -0.1754  0.1054
   87SLPC   H3R 8362   3.788   5.030   2.679  1.9174  1.9318 -2.2848
   87SLPC   H3S 8363   3.683   4.933   2.572 -1.0721  1.9924 -3.7049
   87SLPC   C24 8364   3.567   5.036   2.723  0.1232 -0.0887  0.0226
   87SLPC   H4R 8365   3.544   4.941   2.776  1.9617 -0.8090 -0.4034
   87SLPC   H4S 8366   3.481   5.048   2.654 -0.9248 -0.4921  1.2265
   87SLPC   C25 8367   3.567   5.156   2.822  0.5542  0.0867 -0.3563
   87SLPC   H5R 8368   3.553   5.252   2.769  0.1564  0.9793  1.3241
   87SLPC   H5S 8369   3.660   5.157   2.884 -1.3630  2.5779  2.7401
   87SLPC   C26 8370   3.470   5.145   2.944  0.1671  0.1026  1.0287
   87SLPC   H6R 8371   3.485   5.051   3.000 -1.8273  0.0118  1.5050
   87SLPC   H6S 8372   3.368   5.131   2.902  0.4740  1.2982 -0.1910
   87SLPC   C27 8373   3.469   5.257   3.048  0.1217  0.4466  0.0597
   87SLPC   H7R 8374   3.424   5.344   2.996  0.5746 -0.0812 -1.2515
   87SLPC   H7S 8375   3.577   5.271   3.071 -0.1050 -1.3354  2.6701
   87SLPC   C28 8376   3.397   5.219   3.181 -0.0460  0.3856 -0.7875
   87SLPC   H8R 8377   3.441   5.126   3.222  0.7721  0.5702 -1.2125
   87SLPC   H8S 8378   3.288   5.206   3.169 -0.0016 -0.5901 -0.2085
   87SLPC   C29 8379   3.423   5.344   3.263  0.1295  0.4966  0.0953
   87SLPC   H9R 8380   3.465   5.424   3.201  0.8185  1.8212  2.1769
   87SLPC  C210 8381   3.410   5.360   3.397 -0.6838  0.3058 -0.5404
   87SLPC  H10R 8382   3.439   5.454   3.447  0.0038 -0.3268  0.2810
   87SLPC  C211 8383   3.355   5.250   3.490 -0.1402  0.0454  0.8832
   87SLPC  H11R 8384   3.443   5.202   3.537  1.5724  0.7155 -1.5002
   87SLPC  H11S 8385   3.299   5.170   3.437  2.0700  0.1141 -1.7554
   87SLPC  C212 8386   3.274   5.315   3.606 -0.6093 -0.6002  0.4981
   87SLPC  H12R 8387   3.175   5.354   3.575 -0.4955 -0.3941  0.3861
   87SLPC  C213 8388   3.311   5.327   3.731 -0.4845  0.2642 -0.4324
   87SLPC  H13R 8389   3.241   5.380   3.798  1.3994  3.7804 -1.0182
   87SLPC  C214 8390   3.430   5.268   3.807 -0.3290  0.4940 -0.7569
   87SLPC  H14R 8391   3.484   5.353   3.855  0.6135 -0.3969 -0.2027
   87SLPC  H14S 8392   3.514   5.219   3.753 -0.0223 -1.9148  1.7199
   87SLPC  C215 8393   3.369   5.173   3.916  0.6270 -0.0170 -0.3324
   87SLPC  H15R 8394   3.325   5.088   3.858  1.6947  1.5747 -3.7532
   87SLPC  H15S 8395   3.293   5.227   3.977 -1.8036 -2.1912 -1.2182
   87SLPC  C216 8396   3.482   5.130   4.009  0.3222 -0.1175  0.3589
   87SLPC  H16R 8397   3.434   5.108   4.107  0.5928 -0.0732  0.5012
   87SLPC  H16S 8398   3.550   5.215   4.029 -0.0656 -0.0937  1.7158
   87SLPC  C217 8399   3.550   4.999   3.962  0.4588 -0.0591 -0.1580
   87SLPC  H17R 8400   3.590   5.026   3.863  2.7059  0.5621  0.8610
   87SLPC  H17S 8401   3.478   4.915   3.950  0.3717 -0.1005  0.5666
   87SLPC  C218 8402   3.673   4.948   4.036  0.3016 -0.1062  0.0398
   87SLPC  H18R 8403   3.741   5.035   4.038 -1.0996  1.0860 -1.1985
   87SLPC  H18S 8404   3.725   4.862   3.989  1.0808 -0.4462  1.4625
   87SLPC  H18T 8405   3.645   4.913   4.138  0.7467 -1.7242 -0.3733
   87SLPC   C33 8406   4.324   5.454   2.879 -0.2465 -0.5333  0.3119
   87SLPC   H3X 8407   4.391   5.517   2.817 -1.4604  1.5604  0.9950
   87SLPC   H3Y 8408   4.386   5.367   2.910 -1.2805 -2.2118 -2.0865
   87SLPC   C34 8409   4.283   5.533   3.012  0.4576 -0.3204  0.2639
   87SLPC   H4X 8410   4.224   5.463   3.075 -0.6196 -0.2590 -0.6423
   87SLPC   H4Y 8411   4.213   5.613   2.979 -0.7980 -0.4964  2.3535
   87SLPC   C35 8412   4.409   5.583   3.080 -0.8166  0.3906 -1.1150
   87SLPC   H5X 8413   4.472   5.628   3.000 -1.1907  0.8463 -1.1562
   87SLPC   H5Y 8414   4.462   5.494   3.121 -0.4459  1.5654  1.1064
   87SLPC   C36 8415   4.389   5.687   3.194 -0.5184  0.3368 -0.1643
   87SLPC   H6X 8416   4.330   5.770   3.149 -1.5892 -2.1685 -3.7943
   87SLPC   H6Y 8417   4.488   5.734   3.210 -0.8872  0.9213  0.5000
   87SLPC   C37 8418   4.338   5.630   3.330  0.2998  0.0983  0.0250
   87SLPC   H7X 8419   4.231   5.605   3.314  0.5002 -0.7190 -0.0590
   87SLPC   H7Y 8420   4.342   5.705   3.412  0.2051 -0.2532  0.3487
   87SLPC   C38 8421   4.409   5.505   3.379  0.2457 -0.0370  0.5068
   87SLPC   H8X 8422   4.515   5.528   3.401  1.1973 -0.8868 -2.6503
   87SLPC   H8Y 8423   4.399   5.433   3.295  0.2541  0.8778 -0.2871
   87SLPC   C39 8424   4.340   5.455   3.506  1.2616  0.9223 -1.0411
   87SLPC   H9X 8425   4.370   5.348   3.511  2.6968  1.1660 -3.0241
   87SLPC   H9Y 8426   4.231   5.439   3.492  1.7296 -3.5659 -1.2061
   87SLPC  C310 8427   4.386   5.539   3.627  0.0281 -0.1463 -0.7596
   87SLPC  H10X 8428   4.381   5.649   3.611  0.1521  0.0869  0.6483
   87SLPC  H10Y 8429   4.496   5.528   3.644  0.0135 -0.1269 -0.6474
   87SLPC  C311 8430   4.301   5.512   3.749  0.4433  0.7151 -0.1655
   87SLPC  H11X 8431   4.330   5.415   3.793  0.6911  0.7847 -0.1757
   87SLPC  H11Y 8432   4.198   5.503   3.707  0.9552  0.8248 -1.4797
   87SLPC  C312 8433   4.300   5.628   3.848  0.6664 -0.2028  0.1957
   87SLPC  H12X 8434   4.195   5.626   3.884  0.3918 -0.0866 -0.5848
   87SLPC  H12Y 8435   4.314   5.727   3.798  0.5042 -0.3138 -0.0701
   87SLPC  C313 8436   4.395   5.618   3.966  0.2667  0.4117 -0.4450
   87SLPC  H13X 8437   4.497   5.626   3.924  0.9018  2.1263  1.2737
   87SLPC  H13Y 8438   4.393   5.519   4.015  1.9123  1.0480  1.0055
   87SLPC  C314 8439   4.371   5.722   4.074  0.2760 -0.2976 -0.1083
   87SLPC  H14X 8440   4.269   5.706   4.115  0.5105 -0.0737  0.5740
   87SLPC  H14Y 8441   4.367   5.821   4.024  0.3717  0.1195  0.6893
   87SLPC  C315 8442   4.476   5.716   4.186  0.0846 -0.0515 -0.2885
   87SLPC  H15X 8443   4.570   5.754   4.142  0.4540 -0.1906  0.3641
   87SLPC  H15Y 8444   4.493   5.610   4.215 -0.8431 -0.9018 -2.5967
   87SLPC  C316 8445   4.431   5.807   4.302  0.2485 -0.2705 -0.2465
   87SLPC  H16X 8446   4.322   5.809   4.322  0.2079  1.7928 -0.3966
   87SLPC  H16Y 8447   4.445   5.915   4.278  3.8282 -0.5789 -0.0996
   87SLPC  C317 8448   4.495   5.776   4.435  0.7612 -0.0054  0.0899
   87SLPC  H17X 8449   4.472   5.672   4.466 -3.1146  0.4973 -0.6521
   87SLPC  H17Y 8450   4.439   5.845   4.501 -0.4457 -2.2811  1.5437
   87SLPC  C318 8451   4.643   5.824   4.435  1.1380  0.1153  0.3316
   87SLPC  H18X 8452   4.664   5.843   4.542  0.7133 -1.9735  0.8346
   87SLPC  H18Y 8453   4.641   5.921   4.381  2.4931  0.9000  1.6210
   87SLPC  H18Z 8454   4.713   5.751   4.389  0.0856 -0.1447 -0.9466
   88SLPC     N 8455   3.816   3.904   2.201 -0.4479  0.6285 -0.4196
   88SLPC   C13 8456   3.733   4.004   2.130  0.2902  0.2239 -0.6339
   88SLPC  H13A 8457   3.652   4.035   2.195  0.4463 -3.2626  1.4797
   88SLPC  H13B 8458   3.794   4.090   2.104  0.2292  0.1234 -1.1034
   88SLPC  H13C 8459   3.690   3.962   2.041 -2.5774 -0.8260  1.1037
   88SLPC   C14 8460   3.937   3.873   2.118 -0.0169 -1.1508 -0.2917
   88SLPC  H14A 8461   4.002   3.959   2.118 -1.5473  0.0708 -1.7288
   88SLPC  H14B 8462   3.996   3.791   2.155 -0.4211 -1.5151 -0.4428
   88SLPC  H14C 8463   3.913   3.851   2.015 -0.0307 -0.3887 -0.4574
   88SLPC   C15 8464   3.740   3.774   2.201 -0.1164  0.2671 -0.8875
   88SLPC  H15A 8465   3.640   3.779   2.239  0.2836 -0.9580  0.4086
   88SLPC  H15B 8466   3.739   3.731   2.102 -1.0603  1.0478 -1.2237
   88SLPC  H15C 8467   3.791   3.704   2.266 -0.0823  0.6429 -0.5098
   88SLPC   C12 8468   3.855   3.951   2.339  0.1690 -0.2586 -0.3480
   88SLPC  H12A 8469   3.911   4.043   2.332  3.4188 -2.1298 -1.1815
   88SLPC  H12B 8470   3.934   3.889   2.379 -0.3277 -0.2178  0.7497
   88SLPC   C11 8471   3.746   3.976   2.450  0.1495 -0.0420  0.5867
   88SLPC  H11A 8472   3.796   4.007   2.545  1.1766 -1.1025  0.4226
   88SLPC  H11B 8473   3.696   3.879   2.470 -0.8734  0.0675 -1.2408
   88SLPC     P 8474   3.487   4.038   2.429  0.4666 -0.6194 -0.1879
   88SLPC   O13 8475   3.404   4.158   2.409  0.2426 -0.2677  0.3044
   88SLPC   O14 8476   3.445   3.918   2.355 -0.7761 -0.6388 -0.0352
   88SLPC   O12 8477   3.644   4.065   2.406 -0.4684  0.1073  0.1186
   88SLPC   O11 8478   3.480   4.010   2.584  0.6155 -0.4417 -0.2817
   88SLPC    C1 8479   3.376   3.920   2.632 -0.2387  0.0218  0.7746
   88SLPC    HA 8480   3.280   3.974   2.648 -0.4176 -0.9700  3.6226
   88SLPC    HB 8481   3.359   3.839   2.559 -1.4909 -0.3540  1.4570
   88SLPC    C2 8482   3.410   3.839   2.764 -0.7464  0.7523  0.2674
   88SLPC    HS 8483   3.345   3.750   2.767 -0.0378  0.1390 -1.3800
   88SLPC   O21 8484   3.390   3.912   2.882 -0.0094 -0.0672 -0.2408
   88SLPC   C21 8485   3.265   3.933   2.916 -0.3280  0.1929  0.5009
   88SLPC   O22 8486   3.165   3.881   2.863 -0.4096  0.4591 -0.1079
   88SLPC   C22 8487   3.262   4.047   3.019  0.7191  0.2783  0.5586
   88SLPC   H2R 8488   3.367   4.080   3.030  1.5144 -2.0623  0.3686
   88SLPC   H2S 8489   3.210   4.138   2.982  0.2842 -0.2195 -0.0621
   88SLPC    C3 8490   3.553   3.782   2.748  0.0746  0.2797  0.1176
   88SLPC    HX 8491   3.617   3.873   2.759 -0.9719  0.7801  2.9300
   88SLPC    HY 8492   3.555   3.729   2.651  1.7683  0.0793  0.2318
   88SLPC   O31 8493   3.595   3.697   2.854 -0.1382  0.2535  0.4867
   88SLPC   C31 8494   3.716   3.641   2.842  0.1859  0.8073  0.5367
   88SLPC   O32 8495   3.777   3.634   2.736  0.2681  0.1021 -0.0817
   88SLPC   C32 8496   3.759   3.584   2.977  0.1400  0.0748 -0.0231
   88SLPC   H2X 8497   3.779   3.477   2.955 -2.9571 -0.0162 -3.2957
   88SLPC   H2Y 8498   3.668   3.591   3.040  0.5116 -1.3886  0.6993
   88SLPC   C23 8499   3.198   4.000   3.155  0.3387 -0.0484  0.4910
   88SLPC   H3R 8500   3.252   3.918   3.207  0.5088 -0.1234  0.1936
   88SLPC   H3S 8501   3.099   3.962   3.121 -0.6252  1.2820  1.6492
   88SLPC   C24 8502   3.178   4.130   3.246  0.0845  0.7681  1.0725
   88SLPC   H4R 8503   3.127   4.208   3.186  0.8226  1.1890  0.9854
   88SLPC   H4S 8504   3.279   4.171   3.267  0.7012  0.3710 -0.9149
   88SLPC   C25 8505   3.101   4.105   3.373 -0.4686 -0.8287 -0.3323
   88SLPC   H5R 8506   3.019   4.032   3.357 -0.6526 -0.6282 -0.3099
   88SLPC   H5S 8507   3.055   4.199   3.410 -0.4500 -0.4406 -1.2825
   88SLPC   C26 8508   3.183   4.041   3.484  0.6594 -0.3082  0.7057
   88SLPC   H6R 8509   3.267   4.106   3.515  1.4070 -0.2140 -1.4042
   88SLPC   H6S 8510   3.231   3.949   3.444  0.0604 -0.7418  0.9601
   88SLPC   C27 8511   3.100   4.004   3.607 -0.2518 -0.6868 -0.4250
   88SLPC   H7R 8512   3.015   3.935   3.587 -1.7699  1.2026 -0.8400
   88SLPC   H7S 8513   3.043   4.096   3.630 -0.4307 -1.1397  1.0471
   88SLPC   C28 8514   3.182   3.954   3.730  0.0979  0.0001  0.2165
   88SLPC   H8R 8515   3.112   3.987   3.810  1.0782  1.8491  0.3678
   88SLPC   H8S 8516   3.273   4.018   3.738 -1.2478  1.8320  1.9211
   88SLPC   C29 8517   3.204   3.803   3.745  0.0155  1.2901  0.5925
   88SLPC   H9R 8518   3.221   3.756   3.648 -0.9146 -1.0119  1.4626
   88SLPC  C210 8519   3.198   3.732   3.857  0.5495  0.6971 -0.4198
   88SLPC  H10R 8520   3.216   3.623   3.849  0.6679  0.6621  0.2405
   88SLPC  C211 8521   3.167   3.773   3.994  0.2453 -0.4604  0.3930
   88SLPC  H11R 8522   3.073   3.831   3.986  0.2080 -0.7444 -2.2945
   88SLPC  H11S 8523   3.239   3.844   4.040  0.4808  1.5836 -2.8453
   88SLPC  C212 8524   3.157   3.656   4.085  0.5723  0.4026  0.5572
   88SLPC  H12R 8525   3.253   3.602   4.089  2.3326  3.0283 -1.9844
   88SLPC  C213 8526   3.052   3.620   4.161  0.6429  0.5443  0.4625
   88SLPC  H13R 8527   3.068   3.532   4.224  4.7509  2.5086  2.5341
   88SLPC  C214 8528   2.914   3.685   4.176  1.0978  1.0732 -0.1062
   88SLPC  H14R 8529   2.915   3.791   4.144  0.8317  2.2392  3.2837
   88SLPC  H14S 8530   2.879   3.678   4.281  0.0249 -1.3902 -0.5527
   88SLPC  C215 8531   2.801   3.606   4.096  0.2466 -0.0330  0.5222
   88SLPC  H15R 8532   2.844   3.593   3.994  2.1828 -1.2062  1.4392
   88SLPC  H15S 8533   2.710   3.669   4.092  2.1669  2.8821 -0.6273
   88SLPC  C216 8534   2.761   3.471   4.163 -0.2248 -0.5099  0.0596
   88SLPC  H16R 8535   2.717   3.490   4.263 -3.1847 -0.0774 -1.2169
   88SLPC  H16S 8536   2.858   3.420   4.178 -0.0918 -0.5711 -0.9734
   88SLPC  C217 8537   2.658   3.388   4.082 -0.0306  0.5801 -0.1416
   88SLPC  H17R 8538   2.718   3.317   4.021  2.9565  2.3349  0.5540
   88SLPC  H17S 8539   2.609   3.465   4.018 -0.1236  0.4236 -0.2608
   88SLPC  C218 8540   2.554   3.312   4.168  0.2852 -0.5569 -0.0149
   88SLPC  H18R 8541   2.612   3.251   4.240 -0.1949  0.5323  1.3265
   88SLPC  H18S 8542   2.488   3.249   4.104 -1.0797  0.8106 -0.0025
   88SLPC  H18T 8543   2.495   3.388   4.222  0.7125 -0.3830  0.2143
   88SLPC   C33 8544   3.881   3.659   3.042  0.2494  0.6485 -0.4615
   88SLPC   H3X 8545   3.909   3.738   2.970 -1.1661  1.0892 -0.5618
   88SLPC   H3Y 8546   3.956   3.577   3.053 -2.1153 -1.3462  2.8430
   88SLPC   C34 8547   3.861   3.728   3.180 -0.6709 -0.1101 -0.0228
   88SLPC   H4X 8548   3.803   3.822   3.166 -0.2930  0.2319  0.6639
   88SLPC   H4Y 8549   3.963   3.756   3.213 -0.2269 -1.8827  0.2046
   88SLPC   C35 8550   3.822   3.636   3.294  0.6360  0.6161  0.0780
   88SLPC   H5X 8551   3.896   3.553   3.291 -0.9707 -0.8301 -1.1987
   88SLPC   H5Y 8552   3.715   3.607   3.290  1.2656 -2.0851  0.9851
   88SLPC   C36 8553   3.837   3.716   3.425  0.3647  0.6142  0.0395
   88SLPC   H6X 8554   3.762   3.797   3.423 -0.0280  0.2716  0.6632
   88SLPC   H6Y 8555   3.939   3.757   3.438  1.2566 -1.7501  1.2659
   88SLPC   C37 8556   3.808   3.634   3.555 -0.6232 -0.3682  0.2147
   88SLPC   H7X 8557   3.871   3.543   3.550  0.1879  0.2352 -4.3355
   88SLPC   H7Y 8558   3.701   3.607   3.554 -0.6984 -0.1515  1.2173
   88SLPC   C38 8559   3.828   3.726   3.677  0.7894 -0.1482  0.1177
   88SLPC   H8X 8560   3.761   3.814   3.667 -0.5573 -1.2725 -1.2389
   88SLPC   H8Y 8561   3.934   3.759   3.676  0.4361  1.0842  1.0318
   88SLPC   C39 8562   3.794   3.649   3.814  0.5285  0.4139  1.1144
   88SLPC   H9X 8563   3.890   3.602   3.842  1.1650  0.3152 -1.0113
   88SLPC   H9Y 8564   3.714   3.579   3.781  0.2575  1.5775 -0.9392
   88SLPC  C310 8565   3.746   3.742   3.926  0.6719  0.2620 -0.3576
   88SLPC  H10X 8566   3.671   3.811   3.880  1.4758  0.1292 -1.9391
   88SLPC  H10Y 8567   3.831   3.803   3.964  0.3313 -0.8727  2.4740
   88SLPC  C311 8568   3.695   3.675   4.059 -0.3675 -0.0565  0.2901
   88SLPC  H11X 8569   3.781   3.626   4.111 -0.3988 -1.6094 -1.0505
   88SLPC  H11Y 8570   3.615   3.601   4.038  0.1113 -0.0541 -1.7407
   88SLPC  C312 8571   3.632   3.774   4.160 -0.0633 -0.4316 -0.0266
   88SLPC  H12X 8572   3.572   3.853   4.109  2.7637  0.9565 -1.4979
   88SLPC  H12Y 8573   3.712   3.836   4.207 -1.5149  0.3666  1.5038
   88SLPC  C313 8574   3.554   3.701   4.270  0.2765  0.4314  0.2247
   88SLPC  H13X 8575   3.628   3.635   4.320 -0.0124 -1.4693 -1.7167
   88SLPC  H13Y 8576   3.474   3.638   4.225 -0.3712  1.2091  0.2737
   88SLPC  C314 8577   3.479   3.792   4.372 -0.4454  0.4475 -0.1339
   88SLPC  H14X 8578   3.433   3.719   4.443  1.1035 -1.1649 -0.7162
   88SLPC  H14Y 8579   3.398   3.846   4.318 -1.4283 -0.7791  0.0455
   88SLPC  C315 8580   3.573   3.903   4.429  0.2508  0.1484  0.7800
   88SLPC  H15X 8581   3.511   3.968   4.494 -2.6217 -0.5592 -1.0454
   88SLPC  H15Y 8582   3.611   3.975   4.353  0.4238  2.3922  2.8602
   88SLPC  C316 8583   3.698   3.850   4.501  0.3894 -0.7961  0.5561
   88SLPC  H16X 8584   3.757   3.778   4.441  3.2424  0.8956  1.1596
   88SLPC  H16Y 8585   3.661   3.804   4.595  2.2709  1.4683  2.5426
   88SLPC  C317 8586   3.801   3.964   4.543 -0.5856 -0.0697 -0.3958
   88SLPC  H17X 8587   3.762   4.043   4.611  3.5814  2.2637 -0.3566
   88SLPC  H17Y 8588   3.834   4.016   4.450  1.2005  1.3305  0.9372
   88SLPC  C318 8589   3.929   3.924   4.601 -0.7708  0.9880 -0.2563
   88SLPC  H18X 8590   3.998   4.011   4.604 -0.5451  0.7925  0.4872
   88SLPC  H18Y 8591   3.985   3.847   4.545  1.1568  2.5871 -0.6427
   88SLPC  H18Z 8592   3.900   3.893   4.704 -1.3291  0.3981 -0.5826
   89SAPE     N 8593   6.207   5.380   6.659 -0.4827  0.2685 -0.3632
   89SAPE   HN1 8594   6.302   5.339   6.667 -0.9647 -1.0884 -1.2453
   89SAPE   HN2 8595   6.139   5.333   6.723 -1.0405  2.0129  0.3740
   89SAPE   HN3 8596   6.170   5.375   6.562 -2.0811  2.5318  0.0636
   89SAPE   C12 8597   6.202   5.522   6.706  0.0137 -0.0227 -0.2971
   89SAPE  H12A 8598   6.286   5.544   6.775 -1.5769  1.7943  1.1878
   89SAPE  H12B 8599   6.102   5.532   6.753 -0.1829  1.5745 -1.0267
   89SAPE   C11 8600   6.202   5.618   6.587 -0.5664  0.0735  0.1190
   89SAPE  H11A 8601   6.127   5.575   6.517  0.2638 -1.9202  0.3849
   89SAPE  H11B 8602   6.296   5.611   6.528  1.3139  2.6844  2.5772
   89SAPE     P 8603   6.030   5.800   6.644  0.0536  0.2419 -0.2177
   89SAPE   O13 8604   5.954   5.698   6.723 -1.3182 -0.4613  0.3126
   89SAPE   O14 8605   6.048   5.933   6.707 -0.5965  0.1850 -0.4202
   89SAPE   O12 8606   6.181   5.751   6.621  0.1302 -0.2662  0.3125
   89SAPE   O11 8607   5.971   5.826   6.499 -0.3811  0.3501 -0.1017
   89SAPE    C1 8608   6.059   5.858   6.388 -0.7833  0.3340  0.2424
   89SAPE    HA 8609   6.124   5.944   6.413 -3.5973  1.9499  2.5616
   89SAPE    HB 8610   6.113   5.764   6.360 -1.3648  0.1005 -0.1112
   89SAPE    C2 8611   5.979   5.903   6.266 -1.4168 -0.3346 -0.4861
   89SAPE    HS 8612   5.912   5.988   6.296  0.7678  0.8219  1.4392
   89SAPE   O21 8613   5.907   5.790   6.221  0.0887  0.6494 -0.2118
   89SAPE   C21 8614   5.782   5.815   6.178 -0.3745  0.3495 -0.8126
   89SAPE   O22 8615   5.737   5.927   6.166 -0.2507  0.3812  0.0888
   89SAPE   C22 8616   5.706   5.691   6.151  0.4815 -0.2283  0.2306
   89SAPE   H2R 8617   5.748   5.647   6.058 -0.9732 -1.3521  0.0660
   89SAPE   H2S 8618   5.713   5.609   6.226  0.4911 -1.0573 -0.6519
   89SAPE    C3 8619   6.071   5.960   6.151  0.0687 -0.4034 -0.1065
   89SAPE    HX 8620   6.125   6.046   6.195 -0.7417  0.8377 -1.4396
   89SAPE    HY 8621   6.010   6.006   6.071 -0.1480  0.0655  0.3267
   89SAPE   O31 8622   6.177   5.876   6.099  0.5668  0.3651 -0.5336
   89SAPE   C31 8623   6.145   5.801   5.989  0.1440  0.4929  0.7629
   89SAPE   O32 8624   6.043   5.809   5.927  0.5912 -0.3059  0.0057
   89SAPE   C32 8625   6.272   5.715   5.940  0.3312 -0.3037  0.5686
   89SAPE   H2X 8626   6.267   5.610   5.977 -0.6774 -0.4116  0.1767
   89SAPE   H2Y 8627   6.363   5.754   5.990  0.8913 -1.8087  0.7987
   89SAPE   C23 8628   5.554   5.717   6.110  0.0717 -0.2168 -0.4405
   89SAPE   H3R 8629   5.537   5.801   6.040 -1.1666  0.3625  0.5241
   89SAPE   H3S 8630   5.506   5.732   6.209  1.4394 -1.3137  0.4385
   89SAPE   C24 8631   5.490   5.589   6.044 -0.7130 -0.0841 -0.3629
   89SAPE   H4R 8632   5.498   5.514   6.125  1.4576  0.9071  0.3967
   89SAPE   H4S 8633   5.558   5.555   5.963 -1.1574 -1.0641 -0.3382
   89SAPE   C25 8634   5.353   5.598   5.978 -0.3508 -0.3444  0.1079
   89SAPE   H5R 8635   5.272   5.553   6.037 -1.2902  1.1431 -0.0100
   89SAPE   C26 8636   5.315   5.662   5.863  0.6613  0.0333  0.4925
   89SAPE   H6R 8637   5.209   5.659   5.835  0.9108 -1.1615 -0.4508
   89SAPE   C27 8638   5.413   5.723   5.765 -0.1058 -0.3704  0.1154
   89SAPE   H7R 8639   5.456   5.810   5.818 -0.2420 -0.2363  0.0064
   89SAPE   H7S 8640   5.346   5.761   5.685  0.2831 -0.3098 -0.1819
   89SAPE   C28 8641   5.514   5.634   5.690  0.3940  0.0223  0.2415
   89SAPE   H8R 8642   5.479   5.552   5.625 -1.1601  0.3602  0.6242
   89SAPE   C29 8643   5.645   5.659   5.680  0.2839 -0.2094  0.6020
   89SAPE   H9R 8644   5.703   5.580   5.630 -0.1971  0.1494 -0.5453
   89SAPE  C210 8645   5.724   5.778   5.740  0.3299  0.4334  0.3848
   89SAPE  H10R 8646   5.763   5.743   5.838 -0.7766  0.9789  1.0421
   89SAPE  H10S 8647   5.648   5.856   5.761 -0.1144  0.3014 -0.6794
   89SAPE  C211 8648   5.843   5.830   5.659 -0.3208  0.6101 -0.4398
   89SAPE  H11R 8649   5.941   5.823   5.709 -0.4778  1.4940  0.0244
   89SAPE  C212 8650   5.848   5.897   5.544  0.3433 -0.1002 -1.3785
   89SAPE  H12R 8651   5.951   5.901   5.507  0.7744  0.6563 -0.1364
   89SAPE  C213 8652   5.734   5.936   5.461  0.0267 -0.3396  0.0862
   89SAPE  H13R 8653   5.636   5.933   5.513 -0.9380 -0.2976 -1.6616
   89SAPE  H13S 8654   5.722   5.855   5.385  2.2919 -0.4025 -0.2743
   89SAPE  C214 8655   5.767   6.061   5.390 -1.1573  0.0017 -0.4265
   89SAPE  H14R 8656   5.812   6.142   5.450  0.0086 -0.9711  0.0365
   89SAPE  C215 8657   5.769   6.075   5.257  0.4673 -0.3485 -0.3099
   89SAPE  H15R 8658   5.795   6.172   5.212  0.6336 -1.3752 -2.5132
   89SAPE  C216 8659   5.728   5.968   5.159  0.7195  0.1444  0.5699
   89SAPE  H16R 8660   5.632   5.920   5.189  0.9673  0.1546  1.3945
   89SAPE  H16S 8661   5.807   5.891   5.175  0.0359 -0.5396  0.7201
   89SAPE  C217 8662   5.727   6.021   5.012 -0.5758  0.9838  0.2706
   89SAPE  H17R 8663   5.835   6.036   4.992  0.6576 -1.4823  4.0421
   89SAPE  H17S 8664   5.668   6.115   5.001 -2.0089 -0.0193 -0.9850
   89SAPE  C218 8665   5.679   5.927   4.899 -0.6006  0.8675 -0.7004
   89SAPE  H18R 8666   5.691   5.976   4.800  4.3992  0.7439 -0.3963
   89SAPE  H18S 8667   5.578   5.889   4.926 -0.2302 -1.0667 -1.8345
   89SAPE  C219 8668   5.775   5.807   4.878 -0.2303  0.3426 -0.2037
   89SAPE  H19R 8669   5.723   5.723   4.928  1.9034 -0.8403  0.1520
   89SAPE  H19S 8670   5.871   5.824   4.932  1.3748 -2.3980 -1.9615
   89SAPE  C220 8671   5.801   5.762   4.739  0.5151 -0.0272  0.3896
   89SAPE  H20R 8672   5.875   5.833   4.697  1.4264  0.5599  2.8211
   89SAPE  H20S 8673   5.703   5.748   4.687  0.4864  0.4051  0.3306
   89SAPE  H20T 8674   5.838   5.657   4.744  1.7844  0.4020  0.1225
   89SAPE   C33 8675   6.294   5.709   5.791  0.7408  0.1351  0.5402
   89SAPE   H3X 8676   6.391   5.656   5.777  0.6502  0.4603 -1.7740
   89SAPE   H3Y 8677   6.308   5.810   5.748  1.1344 -0.8923 -1.9079
   89SAPE   C34 8678   6.187   5.642   5.704  0.0977 -0.0447 -0.1139
   89SAPE   H4X 8679   6.085   5.677   5.730 -0.8255 -1.2319 -1.9330
   89SAPE   H4Y 8680   6.201   5.537   5.738 -0.2284  0.1017  0.4954
   89SAPE   C35 8681   6.213   5.661   5.549  0.4550 -0.0257 -0.0387
   89SAPE   H5X 8682   6.116   5.625   5.508 -1.2464  2.0278  1.9508
   89SAPE   H5Y 8683   6.298   5.596   5.518  1.2241  0.1704  1.5642
   89SAPE   C36 8684   6.246   5.794   5.491  0.2826 -0.1275  0.5649
   89SAPE   H6X 8685   6.345   5.836   5.517 -0.2495  1.7706 -0.2800
   89SAPE   H6Y 8686   6.178   5.865   5.543  0.8271  0.0884  0.9889
   89SAPE   C37 8687   6.221   5.794   5.340  0.6199 -0.4845  0.7950
   89SAPE   H7X 8688   6.116   5.763   5.322  0.9460  0.2259 -3.0583
   89SAPE   H7Y 8689   6.291   5.726   5.288 -0.9642  0.1025 -2.3059
   89SAPE   C38 8690   6.223   5.935   5.269  0.6798  0.1226 -0.6647
   89SAPE   H8X 8691   6.324   5.979   5.284  0.0136  0.8690  2.2638
   89SAPE   H8Y 8692   6.155   6.008   5.318  1.2281 -0.3799  0.9141
   89SAPE   C39 8693   6.186   5.929   5.120 -0.0028  0.8413 -0.4495
   89SAPE   H9X 8694   6.084   5.886   5.111  0.4086 -0.4161  0.6048
   89SAPE   H9Y 8695   6.252   5.854   5.072  0.8296  0.5919  1.0338
   89SAPE  C310 8696   6.200   6.066   5.057  0.7743  0.4126 -0.2963
   89SAPE  H10X 8697   6.307   6.094   5.040  0.8213  0.5016  0.1350
   89SAPE  H10Y 8698   6.146   6.143   5.116 -0.2692  0.9780 -1.9163
   89SAPE  C311 8699   6.140   6.060   4.912 -0.1175  1.0694 -0.8970
   89SAPE  H11X 8700   6.124   6.163   4.874  0.2261  2.1548  1.7462
   89SAPE  H11Y 8701   6.038   6.020   4.926  0.3442 -0.1067 -0.7733
   89SAPE  C312 8702   6.215   5.965   4.814  0.0766 -0.4846 -1.1124
   89SAPE  H12X 8703   6.194   5.860   4.843  1.0243 -0.5347 -0.5947
   89SAPE  H12Y 8704   6.321   5.992   4.834 -0.7105  1.6009  0.5866
   89SAPE  C313 8705   6.181   5.993   4.667  0.0402  0.3226 -0.2046
   89SAPE  H13X 8706   6.074   6.001   4.641  0.8880  0.1476 -4.4992
   89SAPE  H13Y 8707   6.209   5.897   4.619  0.1112  1.1458 -1.8739
   89SAPE  C314 8708   6.258   6.110   4.602  0.1357  0.4316 -0.6367
   89SAPE  H14X 8709   6.369   6.115   4.616  0.4678  0.1849 -2.8033
   89SAPE  H14Y 8710   6.217   6.204   4.645  1.2902  1.2746 -1.3151
   89SAPE  C315 8711   6.211   6.104   4.454 -0.2049  0.3680  0.0584
   89SAPE  H15X 8712   6.100   6.093   4.447  0.0058 -0.9505 -2.1366
   89SAPE  H15Y 8713   6.255   6.018   4.399 -2.9514 -1.6583  0.7840
   89SAPE  C316 8714   6.236   6.233   4.371  0.1134  0.2741 -0.1258
   89SAPE  H16X 8715   6.343   6.265   4.366 -0.6293  2.8980 -0.5838
   89SAPE  H16Y 8716   6.177   6.318   4.410 -1.6102 -0.7288 -0.4302
   89SAPE  C317 8717   6.189   6.209   4.219 -0.4003  1.1064  0.7209
   89SAPE  H17X 8718   6.221   6.115   4.170  1.2757  0.0281  3.6167
   89SAPE  H17Y 8719   6.223   6.293   4.155  1.8573  0.0664  0.4494
   89SAPE  C318 8720   6.042   6.208   4.196 -0.3724  0.4026  0.3240
   89SAPE  H18X 8721   6.027   6.225   4.087  0.6201  2.4280  0.4746
   89SAPE  H18Y 8722   5.988   6.292   4.244  0.3487  1.3522 -0.5036
   89SAPE  H18Z 8723   5.994   6.113   4.230 -1.8433  1.0317  0.1190
   90SAPE     N 8724   1.424   4.888   6.500 -0.3538  0.2215  0.2197
   90SAPE   HN1 8725   1.432   4.973   6.441  0.4332 -0.4216 -0.6232
   90SAPE   HN2 8726   1.475   4.815   6.447  0.7953  0.1873  1.3086
   90SAPE   HN3 8727   1.326   4.867   6.528  0.0161  0.5493  1.9154
   90SAPE   C12 8728   1.515   4.912   6.617  1.0582  0.0969 -0.1795
   90SAPE  H12A 8729   1.601   4.843   6.612  0.9007 -0.2467  1.2863
   90SAPE  H12B 8730   1.452   4.895   6.707 -0.7616  1.1088 -1.2049
   90SAPE   C11 8731   1.557   5.059   6.625  0.2516 -0.1027  0.2648
   90SAPE  H11A 8732   1.573   5.097   6.522 -1.2182  0.7369  0.3156
   90SAPE  H11B 8733   1.651   5.073   6.681  0.1063 -0.6239  0.6482
   90SAPE     P 8734   1.334   5.207   6.645 -0.2029 -0.1906 -0.1579
   90SAPE   O13 8735   1.224   5.174   6.742  0.0671 -0.0317 -0.0799
   90SAPE   O14 8736   1.367   5.349   6.628 -0.6136  0.0049  0.0402
   90SAPE   O12 8737   1.466   5.137   6.696 -0.2448 -0.0862 -0.0001
   90SAPE   O11 8738   1.304   5.137   6.507  0.5143 -0.5406  0.7788
   90SAPE    C1 8739   1.188   5.179   6.439  0.8610  0.0617 -0.0643
   90SAPE    HA 8740   1.104   5.136   6.498  2.0080 -1.7119  0.3398
   90SAPE    HB 8741   1.181   5.290   6.450 -0.4967 -0.1643  1.9221
   90SAPE    C2 8742   1.176   5.119   6.292 -0.1536  0.3035  0.9618
   90SAPE    HS 8743   1.192   5.010   6.278  0.1810  0.4534  0.1543
   90SAPE   O21 8744   1.255   5.197   6.200  0.1219 -0.3979 -0.0953
   90SAPE   C21 8745   1.381   5.150   6.190  0.1744 -0.1385  0.5073
   90SAPE   O22 8746   1.429   5.058   6.248 -0.3948 -0.1738 -0.5886
   90SAPE   C22 8747   1.446   5.239   6.082 -0.4829  0.6172 -0.4591
   90SAPE   H2R 8748   1.367   5.297   6.030  0.0149 -0.3224 -2.3427
   90SAPE   H2S 8749   1.504   5.318   6.133  1.8130 -1.1365 -0.1999
   90SAPE    C3 8750   1.028   5.140   6.248 -0.0287 -0.6560  0.1751
   90SAPE    HX 8751   1.009   5.247   6.274 -0.7692 -1.5554  3.9017
   90SAPE    HY 8752   0.953   5.080   6.304 -1.0916 -1.5485 -2.0854
   90SAPE   O31 8753   1.012   5.102   6.108 -0.3633  0.1229  0.2754
   90SAPE   C31 8754   1.007   5.201   6.024  0.1602  0.3427 -0.3096
   90SAPE   O32 8755   1.013   5.320   6.058  0.6221  0.6591  0.4130
   90SAPE   C32 8756   1.028   5.144   5.887 -0.5067 -1.3998 -0.3300
   90SAPE   H2X 8757   0.963   5.056   5.869 -0.5714 -1.1235 -1.5417
   90SAPE   H2Y 8758   1.134   5.116   5.872  0.4163  1.0498  0.9519
   90SAPE   C23 8759   1.542   5.167   5.992  0.3435 -0.4441  0.0170
   90SAPE   H3R 8760   1.604   5.095   6.050  1.6027  0.8341  0.3258
   90SAPE   H3S 8761   1.614   5.241   5.952 -1.2927  1.5526  0.6327
   90SAPE   C24 8762   1.464   5.087   5.878 -0.5810  0.7830  0.2022
   90SAPE   H4R 8763   1.385   5.158   5.845 -1.1946 -0.1379 -0.3331
   90SAPE   H4S 8764   1.415   5.001   5.928  0.2349  0.4876  0.5076
   90SAPE   C25 8765   1.555   5.039   5.767 -0.0886  0.6684 -0.3943
   90SAPE   H5R 8766   1.592   4.936   5.782 -3.3789 -0.6462 -0.5347
   90SAPE   C26 8767   1.591   5.109   5.656  0.0108 -0.1088  0.6063
   90SAPE   H6R 8768   1.645   5.055   5.577 -1.8316 -0.7825 -0.2551
   90SAPE   C27 8769   1.572   5.257   5.628 -0.0001 -0.1504 -0.6744
   90SAPE   H7R 8770   1.669   5.311   5.621  0.3139 -0.4105  1.2758
   90SAPE   H7S 8771   1.519   5.294   5.718 -0.5198 -1.6212 -0.3448
   90SAPE   C28 8772   1.482   5.293   5.509 -0.0160  0.0876 -0.1004
   90SAPE   H8R 8773   1.382   5.320   5.545  0.5953  0.0053  1.7674
   90SAPE   C29 8774   1.506   5.309   5.377 -0.2309  0.0817 -0.1911
   90SAPE   H9R 8775   1.425   5.329   5.305  0.6198  3.1883 -0.4394
   90SAPE  C210 8776   1.636   5.310   5.304 -0.0053 -0.3197  0.4720
   90SAPE  H10R 8777   1.722   5.266   5.360  1.2951  1.9011  0.3556
   90SAPE  H10S 8778   1.668   5.416   5.297  0.0969 -0.4350 -1.1648
   90SAPE  C211 8779   1.631   5.255   5.164 -0.4624 -0.6365  0.5829
   90SAPE  H11R 8780   1.644   5.146   5.160 -2.8703 -0.9508 -0.3491
   90SAPE  C212 8781   1.632   5.335   5.049  0.2100 -0.5148 -0.7116
   90SAPE  H12R 8782   1.637   5.291   4.948 -0.3523 -0.0700 -0.9375
   90SAPE  C213 8783   1.629   5.490   5.043  0.7599  0.0290  0.1623
   90SAPE  H13R 8784   1.645   5.521   4.938 -0.8450 -0.3721 -0.2256
   90SAPE  H13S 8785   1.716   5.518   5.106  0.5016  1.1695  0.0264
   90SAPE  C214 8786   1.495   5.544   5.097  0.6053 -1.0167  0.1277
   90SAPE  H14R 8787   1.417   5.469   5.119  0.8084 -0.7426  1.9241
   90SAPE  C215 8788   1.468   5.678   5.120 -0.5751  0.6094 -0.4481
   90SAPE  H15R 8789   1.385   5.703   5.188  0.7555  3.1373  0.3534
   90SAPE  C216 8790   1.566   5.788   5.082 -0.3544  0.0711 -0.2379
   90SAPE  H16R 8791   1.669   5.757   5.056 -0.3402  0.7705 -1.0738
   90SAPE  H16S 8792   1.595   5.850   5.170  0.3637 -0.4713 -0.0817
   90SAPE  C217 8793   1.505   5.881   4.976 -0.4421 -1.0252  0.1228
   90SAPE  H17R 8794   1.591   5.937   4.932  1.1637 -3.5079 -0.0498
   90SAPE  H17S 8795   1.438   5.949   5.032 -0.9244 -1.5552  0.1853
   90SAPE  C218 8796   1.441   5.808   4.861 -0.1920 -0.0457  0.5159
   90SAPE  H18R 8797   1.347   5.760   4.896  0.6214 -4.1426 -2.2352
   90SAPE  H18S 8798   1.509   5.730   4.820  0.7195  0.9055  0.1763
   90SAPE  C219 8799   1.394   5.906   4.759 -0.4916 -0.7789  0.2931
   90SAPE  H19R 8800   1.490   5.955   4.732  1.0266 -3.3172  0.6634
   90SAPE  H19S 8801   1.322   5.979   4.801 -1.6967 -1.1055 -1.1432
   90SAPE  C220 8802   1.328   5.842   4.634  0.8107  0.1027  0.5663
   90SAPE  H20R 8803   1.324   5.925   4.560  0.1275  0.7461  1.3061
   90SAPE  H20S 8804   1.225   5.807   4.657  1.7665 -2.7732  0.8678
   90SAPE  H20T 8805   1.378   5.759   4.579  0.5759  1.2616 -1.5095
   90SAPE   C33 8806   1.011   5.262   5.779 -0.0748  0.1343  0.5352
   90SAPE   H3X 8807   1.103   5.324   5.784  1.9749 -2.7454  1.4019
   90SAPE   H3Y 8808   0.928   5.328   5.812  1.2695  1.9763  0.3876
   90SAPE   C34 8809   1.017   5.209   5.636  0.0409  0.2132  0.3854
   90SAPE   H4X 8810   0.995   5.287   5.560  0.4548 -0.5822 -0.5869
   90SAPE   H4Y 8811   0.935   5.136   5.621 -0.0762  0.8183 -2.5712
   90SAPE   C35 8812   1.140   5.129   5.612  0.2716 -0.5728 -1.2852
   90SAPE   H5X 8813   1.123   5.029   5.655 -2.9271  0.2751 -0.2972
   90SAPE   H5Y 8814   1.219   5.180   5.670 -0.7998 -1.1317  0.7613
   90SAPE   C36 8815   1.184   5.131   5.467 -0.3999  1.0199  0.9691
   90SAPE   H6X 8816   1.282   5.080   5.457 -1.1017  0.1259 -3.6855
   90SAPE   H6Y 8817   1.202   5.237   5.440  1.6966  0.9420  1.9017
   90SAPE   C37 8818   1.076   5.073   5.382 -0.2991 -0.3908 -0.5488
   90SAPE   H7X 8819   0.984   5.135   5.391 -0.8476 -1.4625  2.0533
   90SAPE   H7Y 8820   1.042   4.982   5.435 -1.2252  0.5209  0.4813
   90SAPE   C38 8821   1.107   5.062   5.233 -0.8773  0.5076  0.4098
   90SAPE   H8X 8822   1.123   5.166   5.200 -1.0750  0.0460 -1.2146
   90SAPE   H8Y 8823   1.020   5.020   5.178 -1.4234  1.2477  0.6965
   90SAPE   C39 8824   1.235   4.986   5.185 -1.0371  0.1386 -0.3092
   90SAPE   H9X 8825   1.332   5.021   5.225 -0.3610 -0.4044 -1.4267
   90SAPE   H9Y 8826   1.238   5.002   5.075 -1.4315 -0.7262 -0.4560
   90SAPE  C310 8827   1.220   4.840   5.215 -0.7870  0.8682  0.3288
   90SAPE  H10X 8828   1.118   4.797   5.218 -0.4620  0.0857  0.3615
   90SAPE  H10Y 8829   1.238   4.839   5.325 -2.6461 -2.1876  0.7209
   90SAPE  C311 8830   1.318   4.747   5.139 -0.1465 -0.0522 -0.3705
   90SAPE  H11X 8831   1.314   4.647   5.187  0.6839  0.5387  1.0085
   90SAPE  H11Y 8832   1.418   4.792   5.157  0.2138 -0.4755 -1.2300
   90SAPE  C312 8833   1.285   4.737   4.990  0.1935  0.5799 -0.1306
   90SAPE  H12X 8834   1.313   4.837   4.950 -0.8874  0.2667 -1.7677
   90SAPE  H12Y 8835   1.177   4.716   4.975 -0.0013  0.8213  0.8710
   90SAPE  C313 8836   1.369   4.632   4.916 -0.1517 -0.3740  0.2600
   90SAPE  H13X 8837   1.366   4.539   4.977  0.9507  0.2816  1.3827
   90SAPE  H13Y 8838   1.476   4.662   4.913 -0.1806 -0.2976 -2.6837
   90SAPE  C314 8839   1.312   4.608   4.778  0.1234 -0.8419 -0.2004
   90SAPE  H14X 8840   1.226   4.539   4.771  1.9567 -3.1720 -0.7233
   90SAPE  H14Y 8841   1.393   4.545   4.737  0.9291 -1.8394  2.7162
   90SAPE  C315 8842   1.285   4.727   4.687 -0.3861  0.7309  0.2803
   90SAPE  H15X 8843   1.381   4.783   4.683 -1.3948  2.8369  2.8807
   90SAPE  H15Y 8844   1.229   4.801   4.747 -0.0889 -0.2155  1.7663
   90SAPE  C316 8845   1.221   4.696   4.552  0.1478 -1.2326 -0.1625
   90SAPE  H16X 8846   1.205   4.792   4.499  2.8168 -2.2325 -3.0293
   90SAPE  H16Y 8847   1.126   4.639   4.558  0.6998 -2.1385  0.3826
   90SAPE  C317 8848   1.303   4.610   4.458  0.0314 -0.2492 -0.0849
   90SAPE  H17X 8849   1.287   4.504   4.485  1.6624 -0.5213 -0.0958
   90SAPE  H17Y 8850   1.410   4.633   4.474 -0.6040  1.7007  2.0166
   90SAPE  C318 8851   1.282   4.634   4.310  0.6179  0.4096 -0.3384
   90SAPE  H18X 8852   1.174   4.627   4.283  0.7961  0.7295 -1.1672
   90SAPE  H18Y 8853   1.327   4.549   4.253 -0.9625  0.5358 -1.8960
   90SAPE  H18Z 8854   1.325   4.732   4.282 -0.1598  0.6293 -0.8258
   91SAPE     N 8855   6.038   6.185   6.655  0.0555 -0.6682 -0.2846
   91SAPE   HN1 8856   5.996   6.190   6.560 -1.0787  0.7707  0.2452
   91SAPE   HN2 8857   6.057   6.084   6.672 -1.9915 -1.5534 -2.7331
   91SAPE   HN3 8858   5.965   6.211   6.724  0.0335 -1.4644  0.0096
   91SAPE   C12 8859   6.162   6.282   6.658  0.0909  0.7216  0.1220
   91SAPE  H12A 8860   6.223   6.267   6.567 -0.2105 -0.3302  0.0785
   91SAPE  H12B 8861   6.223   6.252   6.746  2.4527  4.6300  0.0709
   91SAPE   C11 8862   6.116   6.424   6.686 -0.0273  0.3157 -0.1699
   91SAPE  H11A 8863   6.211   6.482   6.693  0.6849 -0.5248 -2.1439
   91SAPE  H11B 8864   6.056   6.422   6.780 -1.0337  2.5826 -0.6925
   91SAPE     P 8865   5.968   6.626   6.601  0.1329 -0.2264 -0.4277
   91SAPE   O13 8866   5.975   6.664   6.743 -0.6249 -0.0835  0.1328
   91SAPE   O14 8867   6.011   6.723   6.495  0.5242 -0.0776 -0.1059
   91SAPE   O12 8868   6.044   6.491   6.579 -0.2192  0.1469  0.4279
   91SAPE   O11 8869   5.818   6.589   6.560  0.1899 -0.7746 -0.7803
   91SAPE    C1 8870   5.788   6.523   6.430 -0.2445 -0.1309 -0.0505
   91SAPE    HA 8871   5.864   6.553   6.355  1.7820  1.2462  2.3738
   91SAPE    HB 8872   5.802   6.414   6.442 -2.1289 -0.2302  2.0432
   91SAPE    C2 8873   5.656   6.560   6.378 -0.0418 -0.3603  0.0852
   91SAPE    HS 8874   5.651   6.516   6.276 -0.0766 -1.8882  0.7207
   91SAPE   O21 8875   5.633   6.702   6.368 -0.2472 -0.9955  0.0370
   91SAPE   C21 8876   5.707   6.774   6.278 -0.2454  0.4026  0.6320
   91SAPE   O22 8877   5.772   6.722   6.191  0.0028  0.0567 -0.0272
   91SAPE   C22 8878   5.703   6.920   6.316 -0.4040  0.1039 -0.0584
   91SAPE   H2R 8879   5.647   6.931   6.411  0.5551 -3.6042  1.1355
   91SAPE   H2S 8880   5.809   6.945   6.339 -0.3565 -1.3035  1.4803
   91SAPE    C3 8881   5.540   6.493   6.458  0.3579  0.2130  0.6332
   91SAPE    HX 8882   5.540   6.528   6.564 -1.4866  1.7051  0.1779
   91SAPE    HY 8883   5.565   6.385   6.455  0.7658  0.3282 -1.5470
   91SAPE   O31 8884   5.409   6.505   6.398 -0.1312 -0.3791 -0.0835
   91SAPE   C31 8885   5.342   6.615   6.422 -0.3724  0.1067 -0.4167
   91SAPE   O32 8886   5.388   6.708   6.492  0.2424 -0.3035  0.6089
   91SAPE   C32 8887   5.216   6.609   6.344 -0.8044  0.4766 -0.8509
   91SAPE   H2X 8888   5.145   6.573   6.421  2.3136  0.9866  2.5622
   91SAPE   H2Y 8889   5.226   6.534   6.263  1.5371  0.1352 -0.3331
   91SAPE   C23 8890   5.643   7.015   6.206  1.0425  0.6565  0.1285
   91SAPE   H3R 8891   5.538   6.983   6.191  1.4199 -0.5649 -0.0563
   91SAPE   H3S 8892   5.691   6.978   6.113 -2.5018 -4.1275 -0.1757
   91SAPE   C24 8893   5.656   7.161   6.229  0.5581 -0.3614  0.8022
   91SAPE   H4R 8894   5.758   7.198   6.202 -0.8193  3.3332 -0.0278
   91SAPE   H4S 8895   5.647   7.191   6.336  1.5153  1.8313  0.3374
   91SAPE   C25 8896   5.548   7.246   6.156 -0.0729 -0.3556  0.1310
   91SAPE   H5R 8897   5.461   7.266   6.220  0.6986  0.7745  0.8641
   91SAPE   C26 8898   5.542   7.283   6.024 -0.1520 -0.4618 -0.2229
   91SAPE   H6R 8899   5.462   7.347   5.986 -1.7141 -2.9098 -1.3265
   91SAPE   C27 8900   5.653   7.270   5.926 -0.2716 -0.3875  0.8409
   91SAPE   H7R 8901   5.757   7.276   5.964 -0.2296 -0.2391  0.7004
   91SAPE   H7S 8902   5.650   7.364   5.868 -1.0111 -0.6764  0.3972
   91SAPE   C28 8903   5.652   7.141   5.846  0.0047 -0.7463 -0.3056
   91SAPE   H8R 8904   5.698   7.057   5.900  0.5092  1.6046  3.3306
   91SAPE   C29 8905   5.624   7.141   5.712  0.2007  0.5027  0.3243
   91SAPE   H9R 8906   5.628   7.044   5.659  2.3789  0.9782 -0.4557
   91SAPE  C210 8907   5.561   7.250   5.635 -0.1354  0.1524 -0.4244
   91SAPE  H10R 8908   5.638   7.264   5.556  0.2132  0.3989 -0.0424
   91SAPE  H10S 8909   5.550   7.341   5.698 -0.8873 -0.3328  0.1609
   91SAPE  C211 8910   5.426   7.219   5.579  0.1611 -0.7968  0.1768
   91SAPE  H11R 8911   5.351   7.186   5.653 -1.1294  0.7175 -0.3889
   91SAPE  C212 8912   5.393   7.237   5.450  0.7561 -0.2469 -0.2758
   91SAPE  H12R 8913   5.290   7.207   5.424  0.8235 -0.9903  0.2597
   91SAPE  C213 8914   5.478   7.280   5.335 -0.1510 -0.3148  0.2355
   91SAPE  H13R 8915   5.584   7.261   5.361 -0.8376 -1.7809  2.2551
   91SAPE  H13S 8916   5.483   7.390   5.321  1.9385 -0.6372 -2.2900
   91SAPE  C214 8917   5.441   7.208   5.211  0.8008 -0.7322  0.3786
   91SAPE  H14R 8918   5.441   7.098   5.216  0.2644 -0.8978 -1.9897
   91SAPE  C215 8919   5.403   7.266   5.092 -0.3065 -0.0279  0.3775
   91SAPE  H15R 8920   5.390   7.202   5.004 -0.3067  0.3797  0.0778
   91SAPE  C216 8921   5.391   7.414   5.063 -0.4534  0.0894  0.7983
   91SAPE  H16R 8922   5.457   7.476   5.128  0.0230 -1.3530  1.7449
   91SAPE  H16S 8923   5.289   7.457   5.057 -0.1512  0.5826 -1.7576
   91SAPE  C217 8924   5.440   7.447   4.923 -0.2885  0.1042  0.2598
   91SAPE  H17R 8925   5.549   7.426   4.915  0.0382  1.6873  0.1242
   91SAPE  H17S 8926   5.431   7.557   4.906 -0.7948 -0.1695 -1.4032
   91SAPE  C218 8927   5.380   7.384   4.798 -0.1579  0.6061 -0.3078
   91SAPE  H18R 8928   5.395   7.274   4.802 -2.5635  0.2154 -0.3239
   91SAPE  H18S 8929   5.425   7.422   4.705  2.1772 -0.2198  0.4285
   91SAPE  C219 8930   5.227   7.390   4.798  0.4832 -0.4028  0.6170
   91SAPE  H19R 8931   5.179   7.338   4.883  0.6383  0.2253  1.0912
   91SAPE  H19S 8932   5.187   7.325   4.717 -3.0336  0.9774  1.0842
   91SAPE  C220 8933   5.181   7.535   4.790  0.3973  0.6626 -0.3097
   91SAPE  H20R 8934   5.227   7.595   4.709  1.2109  0.2338 -0.1824
   91SAPE  H20S 8935   5.206   7.587   4.884  1.1133 -0.9566  0.4472
   91SAPE  H20T 8936   5.075   7.546   4.760  0.4562  1.6612 -0.1833
   91SAPE   C33 8937   5.176   6.746   6.296  0.4114  0.8598  0.1361
   91SAPE   H3X 8938   5.153   6.805   6.387  1.4047  0.8002  0.4382
   91SAPE   H3Y 8939   5.077   6.750   6.245  0.7200 -1.0147 -0.7062
   91SAPE   C34 8940   5.273   6.802   6.190 -0.0993 -0.3268 -0.3510
   91SAPE   H4X 8941   5.376   6.787   6.228 -0.0069  0.4860 -0.2619
   91SAPE   H4Y 8942   5.263   6.911   6.174 -2.1201 -0.5439 -0.9523
   91SAPE   C35 8943   5.267   6.732   6.056 -0.1241  0.4780  0.5306
   91SAPE   H5X 8944   5.164   6.719   6.016  0.7082  0.8606 -1.8593
   91SAPE   H5Y 8945   5.313   6.632   6.073 -2.0066 -0.1422  2.4432
   91SAPE   C36 8946   5.343   6.802   5.945  0.0806  0.1843  0.1975
   91SAPE   H6X 8947   5.451   6.786   5.965 -0.5533 -1.6037  2.7019
   91SAPE   H6Y 8948   5.316   6.909   5.940  0.6623  0.2853 -1.8274
   91SAPE   C37 8949   5.303   6.739   5.807  0.2036  0.1525 -0.9040
   91SAPE   H7X 8950   5.197   6.705   5.816 -0.1860  1.0425 -1.8433
   91SAPE   H7Y 8951   5.368   6.650   5.802  1.5919  1.1862 -2.0094
   91SAPE   C38 8952   5.334   6.822   5.678 -0.1472 -0.1785  0.6091
   91SAPE   H8X 8953   5.437   6.864   5.685 -0.3968  0.5145  0.1379
   91SAPE   H8Y 8954   5.272   6.912   5.695  0.0830 -0.2058  1.6774
   91SAPE   C39 8955   5.321   6.737   5.552  0.5227 -0.9578 -0.2418
   91SAPE   H9X 8956   5.218   6.697   5.549 -0.3787  1.2679 -1.0840
   91SAPE   H9Y 8957   5.399   6.658   5.551  1.1925 -0.3706  1.7238
   91SAPE  C310 8958   5.351   6.825   5.424  0.1678  0.2239  1.4555
   91SAPE  H10X 8959   5.453   6.870   5.416 -0.4126  1.2046 -2.5091
   91SAPE  H10Y 8960   5.282   6.912   5.421  1.3001  1.1211  0.0524
   91SAPE  C311 8961   5.335   6.750   5.292 -0.1955 -0.2326 -0.0820
   91SAPE  H11X 8962   5.234   6.704   5.291 -1.2057  1.8528  1.4181
   91SAPE  H11Y 8963   5.412   6.670   5.280  1.5885  1.3403  0.5329
   91SAPE  C312 8964   5.364   6.844   5.172  0.4874  0.2640  0.8489
   91SAPE  H12X 8965   5.466   6.884   5.191 -0.3386  2.4545  1.0198
   91SAPE  H12Y 8966   5.291   6.927   5.183  1.9834  2.0552 -1.5380
   91SAPE  C313 8967   5.340   6.782   5.035  0.8531  0.2769  0.1450
   91SAPE  H13X 8968   5.418   6.717   4.991  0.3272 -1.6151  1.8529
   91SAPE  H13Y 8969   5.335   6.865   4.961  1.8282 -0.5482 -0.8704
   91SAPE  C314 8970   5.207   6.706   5.018  0.4918 -0.3203 -0.0507
   91SAPE  H14X 8971   5.132   6.776   5.059 -1.1211 -2.1953  0.3492
   91SAPE  H14Y 8972   5.214   6.613   5.079 -2.5671  1.5333  3.5952
   91SAPE  C315 8973   5.181   6.688   4.874  0.1915  0.6551  0.3029
   91SAPE  H15X 8974   5.267   6.641   4.823  0.5093  1.9293 -0.3752
   91SAPE  H15Y 8975   5.162   6.785   4.824 -0.8299  1.4471  2.1405
   91SAPE  C316 8976   5.050   6.608   4.850 -0.0083  0.3030 -0.5432
   91SAPE  H16X 8977   4.969   6.672   4.892  0.3949  0.3134  0.2322
   91SAPE  H16Y 8978   5.062   6.513   4.906 -0.3352  0.3286 -0.4280
   91SAPE  C317 8979   5.027   6.575   4.704 -0.4724 -0.9239 -0.2334
   91SAPE  H17X 8980   5.120   6.534   4.660 -0.0615  0.5183 -0.7733
   91SAPE  H17Y 8981   5.006   6.665   4.642  1.5008 -1.8506 -2.3569
   91SAPE  C318 8982   4.914   6.471   4.690 -0.7067 -0.2580 -0.6746
   91SAPE  H18X 8983   4.952   6.384   4.747  1.5558  1.1235  0.0400
   91SAPE  H18Y 8984   4.899   6.436   4.586 -1.0423 -2.1330 -0.0353
   91SAPE  H18Z 8985   4.815   6.515   4.717 -0.8177 -1.4087  0.9469
   92SAPE     N 8986   4.699   0.201   6.962  0.4992 -0.5470 -0.7115
   92SAPE   HN1 8987   4.657   0.127   7.023 -0.3625  0.8335  0.4263
   92SAPE   HN2 8988   4.632   0.215   6.884 -0.3329 -0.2928  0.0244
   92SAPE   HN3 8989   4.789   0.170   6.921  1.1933  1.1120 -0.5182
   92SAPE   C12 8990   4.714   0.322   7.051 -0.7310 -0.5947  0.4295
   92SAPE  H12A 8991   4.819   0.328   7.087 -1.0001  2.8004  0.9855
   92SAPE  H12B 8992   4.654   0.325   7.144  0.9270  0.6470  1.5206
   92SAPE   C11 8993   4.691   0.455   6.972  0.6529 -1.1712 -0.0295
   92SAPE  H11A 8994   4.714   0.534   7.047  0.2025  2.5085 -3.4283
   92SAPE  H11B 8995   4.581   0.465   6.957  0.6768  1.8923  1.0904
   92SAPE     P 8996   4.907   0.505   6.843 -0.1887 -0.1823 -0.5796
   92SAPE   O13 8997   4.929   0.650   6.855 -0.6500  0.8562 -0.0430
   92SAPE   O14 8998   4.969   0.423   6.947  0.6808  0.1392 -0.4134
   92SAPE   O12 8999   4.748   0.475   6.845 -0.6993  0.0035 -0.3466
   92SAPE   O11 9000   4.965   0.456   6.702  0.0193  0.6440 -0.0581
   92SAPE    C1 9001   4.896   0.375   6.609 -0.2888  0.0691  0.7221
   92SAPE    HA 9002   4.954   0.281   6.600  0.3786  0.4806  0.6646
   92SAPE    HB 9003   4.791   0.349   6.636 -0.3371  0.0556  0.5254
   92SAPE    C2 9004   4.885   0.447   6.469  0.2117  0.7532 -0.2069
   92SAPE    HS 9005   4.810   0.394   6.406 -1.2336  1.0234  1.2093
   92SAPE   O21 9006   5.015   0.458   6.402 -0.0321  0.3406 -0.1524
   92SAPE   C21 9007   5.076   0.345   6.358  0.8487 -0.1933  0.1529
   92SAPE   O22 9008   5.033   0.229   6.375  0.0993 -0.0865 -0.4285
   92SAPE   C22 9009   5.205   0.372   6.279  1.0846 -0.0051 -1.0754
   92SAPE   H2R 9010   5.268   0.411   6.362 -0.8686 -0.6266  0.7932
   92SAPE   H2S 9011   5.241   0.274   6.243  0.1766 -0.8664  0.2482
   92SAPE    C3 9012   4.822   0.586   6.485  0.0333 -0.4377 -0.3638
   92SAPE    HX 9013   4.885   0.652   6.549 -2.9410  0.6441  1.7073
   92SAPE    HY 9014   4.731   0.576   6.549  0.3650  2.7175  0.8035
   92SAPE   O31 9015   4.779   0.644   6.365  0.0537 -0.2248  0.2779
   92SAPE   C31 9016   4.874   0.726   6.315  0.9653 -0.6142  0.2955
   92SAPE   O32 9017   4.982   0.751   6.363  0.3339 -0.1176  0.1064
   92SAPE   C32 9018   4.818   0.784   6.189 -0.0306  0.5821 -0.1423
   92SAPE   H2X 9019   4.855   0.888   6.193  1.3328  0.0746  1.9976
   92SAPE   H2Y 9020   4.709   0.769   6.173 -0.0715  0.5510  0.1573
   92SAPE   C23 9021   5.189   0.480   6.169  0.2772  0.7393  0.4454
   92SAPE   H3R 9022   5.285   0.482   6.113  0.0058 -0.1940 -0.0735
   92SAPE   H3S 9023   5.172   0.579   6.216 -0.9843  2.0409 -2.4802
   92SAPE   C24 9024   5.074   0.448   6.069  0.2473  0.4215  0.2023
   92SAPE   H4R 9025   5.080   0.531   5.995  1.5050  0.3529  0.2151
   92SAPE   H4S 9026   4.979   0.462   6.126 -1.0518 -2.0349 -1.1921
   92SAPE   C25 9027   5.076   0.310   6.003 -0.4639 -0.2239  0.9731
   92SAPE   H5R 9028   5.176   0.266   6.007  0.7775  2.4644  1.9160
   92SAPE   C26 9029   4.974   0.246   5.946 -0.1623  0.5750 -0.7768
   92SAPE   H6R 9030   4.985   0.147   5.900  1.0588 -0.0815  0.8412
   92SAPE   C27 9031   4.833   0.297   5.943 -0.5004  0.0562  0.4589
   92SAPE   H7R 9032   4.788   0.285   5.842  1.4772  2.1470 -0.7662
   92SAPE   H7S 9033   4.842   0.405   5.965 -0.0835 -0.2535  1.9161
   92SAPE   C28 9034   4.755   0.247   6.060 -1.2352  0.5528 -0.4183
   92SAPE   H8R 9035   4.809   0.255   6.156  0.3612  1.6091 -1.3424
   92SAPE   C29 9036   4.631   0.187   6.079 -0.2781 -0.0654  0.3595
   92SAPE   H9R 9037   4.598   0.164   6.182 -0.4097  0.7653  0.5086
   92SAPE  C210 9038   4.535   0.167   5.966 -0.4230 -0.3536 -0.6565
   92SAPE  H10R 9039   4.575   0.079   5.911 -1.1681 -1.5665  0.6607
   92SAPE  H10S 9040   4.532   0.257   5.900 -0.6162 -0.7700 -1.2215
   92SAPE  C211 9041   4.394   0.142   6.004  0.0988 -0.6120  0.2005
   92SAPE  H11R 9042   4.390   0.114   6.110 -0.5016  2.5641  1.1239
   92SAPE  C212 9043   4.280   0.159   5.937 -0.0886 -0.5545  0.1292
   92SAPE  H12R 9044   4.190   0.126   5.991 -1.5354  0.4030 -1.5738
   92SAPE  C213 9045   4.258   0.207   5.793 -0.1826  0.3859  0.0426
   92SAPE  H13R 9046   4.356   0.199   5.741  0.6547  1.6610  1.3418
   92SAPE  H13S 9047   4.241   0.316   5.788  3.2178  1.0492  0.6487
   92SAPE  C214 9048   4.157   0.129   5.719  0.2856 -0.5307  0.1916
   92SAPE  H14R 9049   4.078   0.076   5.775 -2.7325  2.4148 -0.9501
   92SAPE  C215 9050   4.152   0.105   5.593 -0.0409  0.1169 -0.2293
   92SAPE  H15R 9051   4.082   0.027   5.560  0.8898 -1.2001  0.7974
   92SAPE  C216 9052   4.239   0.168   5.485  0.3095  0.8337  0.1574
   92SAPE  H16R 9053   4.298   0.257   5.516  0.7119  0.7945 -0.4812
   92SAPE  H16S 9054   4.184   0.212   5.400  0.7960  1.4632  0.1626
   92SAPE  C217 9055   4.330   0.062   5.422  0.2657  0.2237  0.0235
   92SAPE  H17R 9056   4.388   0.097   5.334  0.5149 -0.2331  0.0034
   92SAPE  H17S 9057   4.267  -0.020   5.380  1.2048 -0.5069  0.0167
   92SAPE  C218 9058   4.439   0.005   5.514  0.8187  0.4332 -0.0733
   92SAPE  H18R 9059   4.470  -0.097   5.485 -0.1548  0.5083 -1.4737
   92SAPE  H18S 9060   4.381  -0.021   5.605 -1.7181  1.8310 -1.2043
   92SAPE  C219 9061   4.555   0.101   5.539  1.0134 -1.2041  0.0772
   92SAPE  H19R 9062   4.607   0.059   5.627 -0.7371 -0.7991  1.3715
   92SAPE  H19S 9063   4.525   0.206   5.559  2.0525 -1.0979  1.1842
   92SAPE  C220 9064   4.645   0.086   5.417  0.1929  0.1919 -0.0332
   92SAPE  H20R 9065   4.747   0.126   5.433  0.4258 -0.5112  0.3017
   92SAPE  H20S 9066   4.601   0.123   5.322 -1.6328 -2.1373 -0.1938
   92SAPE  H20T 9067   4.670  -0.022   5.409  1.9663  0.5248  0.5789
   92SAPE   C33 9068   4.883   0.738   6.061 -0.1719  0.5481 -0.4638
   92SAPE   H3X 9069   4.864   0.631   6.034  0.1524 -0.5023  2.9599
   92SAPE   H3Y 9070   4.993   0.744   6.047 -0.2849  1.0390 -1.1619
   92SAPE   C34 9071   4.826   0.829   5.946 -0.7949  0.8498 -0.4325
   92SAPE   H4X 9072   4.867   0.932   5.949 -0.0656  0.5494  0.8481
   92SAPE   H4Y 9073   4.720   0.848   5.973 -0.4879  1.0258  0.7015
   92SAPE   C35 9074   4.838   0.750   5.817  0.3218 -0.3912 -0.0625
   92SAPE   H5X 9075   4.772   0.795   5.740  0.3079 -0.8552 -0.3271
   92SAPE   H5Y 9076   4.806   0.644   5.833 -0.5873  0.0313  1.1030
   92SAPE   C36 9077   4.978   0.751   5.757  0.3003 -0.0098 -0.9066
   92SAPE   H6X 9078   5.048   0.689   5.816 -2.4567 -1.9986  0.5111
   92SAPE   H6Y 9079   4.999   0.859   5.744 -2.4159  0.3659 -2.9445
   92SAPE   C37 9080   4.986   0.689   5.618 -0.4186 -0.6159  0.2109
   92SAPE   H7X 9081   5.088   0.706   5.577 -0.0045 -3.2856 -0.0187
   92SAPE   H7Y 9082   4.906   0.736   5.558  0.8101  1.1922 -0.1026
   92SAPE   C38 9083   4.966   0.534   5.634  0.4036  0.0795  1.2061
   92SAPE   H8X 9084   4.867   0.502   5.673  0.4899 -0.2755  1.1394
   92SAPE   H8Y 9085   5.035   0.493   5.710  0.0647  0.4984  1.7434
   92SAPE   C39 9086   4.980   0.465   5.495  0.0955 -0.0192 -0.2966
   92SAPE   H9X 9087   5.067   0.506   5.440 -1.4417  2.7348 -0.8392
   92SAPE   H9Y 9088   4.894   0.491   5.430  0.5285 -2.0235 -1.7468
   92SAPE  C310 9089   4.973   0.314   5.508  0.6164  0.2094  0.5328
   92SAPE  H10X 9090   4.868   0.294   5.540 -0.3626 -1.4471 -3.1999
   92SAPE  H10Y 9091   5.031   0.273   5.594 -1.0802 -0.0748  1.5865
   92SAPE  C311 9092   5.005   0.228   5.380 -0.3234  0.1414  0.6227
   92SAPE  H11X 9093   5.002   0.121   5.409 -1.9321  0.5385  2.0838
   92SAPE  H11Y 9094   5.111   0.250   5.355 -0.6040  0.6196 -0.1780
   92SAPE  C312 9095   4.918   0.275   5.256 -0.2775  0.0462 -0.9333
   92SAPE  H12X 9096   4.905   0.385   5.256 -0.8647  0.0953  2.6473
   92SAPE  H12Y 9097   4.817   0.230   5.270 -0.3749  0.8012  1.0970
   92SAPE  C313 9098   4.973   0.212   5.131  0.9264  0.0986 -0.1666
   92SAPE  H13X 9099   4.921   0.115   5.122 -1.9587  1.5789 -0.8294
   92SAPE  H13Y 9100   5.083   0.203   5.140  0.9516  0.6882  0.2380
   92SAPE  C314 9101   4.943   0.298   5.013  0.1382 -0.6208  1.4025
   92SAPE  H14X 9102   4.987   0.399   5.024 -0.4415 -0.2623  0.5217
   92SAPE  H14Y 9103   4.833   0.297   5.001  0.3343 -2.2083 -1.1007
   92SAPE  C315 9104   4.981   0.238   4.875  0.4242  0.7371 -0.0199
   92SAPE  H15X 9105   4.957   0.129   4.868 -0.6188  1.0474 -2.1165
   92SAPE  H15Y 9106   5.091   0.231   4.873  0.3774 -2.0403  1.6422
   92SAPE  C316 9107   4.925   0.314   4.757 -0.3804  0.3348  0.1843
   92SAPE  H16X 9108   4.970   0.415   4.769  0.8395 -0.3160  1.3580
   92SAPE  H16Y 9109   4.814   0.318   4.771 -0.5396 -2.2345  0.1679
   92SAPE  C317 9110   4.970   0.253   4.617  0.6457 -0.1825 -0.0647
   92SAPE  H17X 9111   5.072   0.214   4.632  0.7867 -0.1683 -0.9318
   92SAPE  H17Y 9112   4.960   0.328   4.535  0.3289  0.3407  0.4441
   92SAPE  C318 9113   4.888   0.127   4.573 -0.7311  0.4397  0.0823
   92SAPE  H18X 9114   4.791   0.164   4.533  0.7443  3.9031 -0.6458
   92SAPE  H18Y 9115   4.876   0.059   4.661 -2.0997  1.2631  0.5664
   92SAPE  H18Z 9116   4.939   0.075   4.490  0.3224 -0.2757  1.1371
   93SAPE     N 9117   3.414   6.464   6.576  0.0894 -0.1549  0.3524
   93SAPE   HN1 9118   3.379   6.551   6.532  1.9459  0.1415 -0.6176
   93SAPE   HN2 9119   3.447   6.491   6.671  2.4207  0.1880 -0.4975
   93SAPE   HN3 9120   3.492   6.431   6.516 -0.2116 -0.1935 -0.0208
   93SAPE   C12 9121   3.307   6.352   6.584 -0.0387 -0.7795 -0.2124
   93SAPE  H12A 9122   3.358   6.265   6.630 -2.2032 -2.2569 -0.4425
   93SAPE  H12B 9123   3.282   6.319   6.481 -1.6545  1.2814 -0.5609
   93SAPE   C11 9124   3.184   6.386   6.669 -0.5694 -0.5596 -0.0877
   93SAPE  H11A 9125   3.131   6.472   6.623 -1.7783 -0.3101  1.6444
   93SAPE  H11B 9126   3.231   6.420   6.763  1.4852 -0.6556 -1.0393
   93SAPE     P 9127   3.025   6.212   6.786 -0.3425 -0.1127 -0.3474
   93SAPE   O13 9128   3.112   6.114   6.860  0.6567 -0.6037  0.2059
   93SAPE   O14 9129   2.965   6.318   6.872 -0.3253  0.2609  0.1159
   93SAPE   O12 9130   3.103   6.276   6.668  0.6745 -0.4724  0.5740
   93SAPE   O11 9131   2.908   6.133   6.710  0.5608  0.2909  0.4734
   93SAPE    C1 9132   2.813   6.215   6.631  0.1587 -0.3709  0.7084
   93SAPE    HA 9133   2.711   6.183   6.659  0.5898 -2.3727  0.2141
   93SAPE    HB 9134   2.818   6.323   6.656 -0.0194 -0.7005  2.2653
   93SAPE    C2 9135   2.824   6.191   6.478 -0.6108  0.2902 -0.0764
   93SAPE    HS 9136   2.738   6.246   6.434 -0.0025  0.9493 -0.4706
   93SAPE   O21 9137   2.830   6.052   6.433  0.4985  0.4808  0.0715
   93SAPE   C21 9138   2.716   5.987   6.441  0.1564 -0.3185 -0.5519
   93SAPE   O22 9139   2.610   6.035   6.469  0.9542  0.4820  0.0322
   93SAPE   C22 9140   2.731   5.843   6.395 -0.0779 -0.1124  0.3644
   93SAPE   H2R 9141   2.839   5.820   6.384  0.0612  0.1140  1.1564
   93SAPE   H2S 9142   2.708   5.791   6.490  2.2141  0.9201  1.5716
   93SAPE    C3 9143   2.946   6.270   6.416 -0.0082 -0.1725  0.4296
   93SAPE    HX 9144   3.040   6.212   6.419  0.0382 -0.0806  1.6355
   93SAPE    HY 9145   2.961   6.367   6.469  1.4071 -0.9235  1.4840
   93SAPE   O31 9146   2.907   6.308   6.279 -0.3542 -0.4352  0.1311
   93SAPE   C31 9147   2.966   6.249   6.172  0.6913 -0.5732  0.0120
   93SAPE   O32 9148   3.041   6.152   6.184  0.1350  0.2336  0.5055
   93SAPE   C32 9149   2.932   6.335   6.055 -0.0994  0.5055  0.2488
   93SAPE   H2X 9150   2.980   6.434   6.074 -0.2382  0.4418  0.9496
   93SAPE   H2Y 9151   2.823   6.356   6.058 -0.7822 -2.5087 -0.4449
   93SAPE   C23 9152   2.643   5.818   6.274 -1.2513  0.2089 -0.0079
   93SAPE   H3R 9153   2.537   5.844   6.293 -1.3026 -0.1030  0.1355
   93SAPE   H3S 9154   2.654   5.711   6.249 -2.4508  0.1438 -0.3390
   93SAPE   C24 9155   2.687   5.888   6.143 -0.2207 -0.9456 -0.1074
   93SAPE   H4R 9156   2.687   5.999   6.149  3.0870 -0.8541 -0.4509
   93SAPE   H4S 9157   2.618   5.860   6.061  0.4501 -0.9761 -0.6632
   93SAPE   C25 9158   2.830   5.844   6.112 -0.6890 -0.1590  0.1099
   93SAPE   H5R 9159   2.903   5.859   6.192 -1.3315  3.1496  0.2106
   93SAPE   C26 9160   2.865   5.767   6.001  0.4354 -0.1445  0.0304
   93SAPE   H6R 9161   2.969   5.748   5.972  0.2212  0.6473 -1.3423
   93SAPE   C27 9162   2.776   5.729   5.884  0.1485  0.4330  0.2920
   93SAPE   H7R 9163   2.678   5.702   5.929  0.2747 -0.3053  0.1396
   93SAPE   H7S 9164   2.813   5.630   5.850 -2.0636 -0.9831  1.6810
   93SAPE   C28 9165   2.763   5.831   5.775  0.0617 -0.4007  0.3702
   93SAPE   H8R 9166   2.782   5.937   5.797  1.5380 -0.4439 -0.5674
   93SAPE   C29 9167   2.743   5.800   5.642 -0.1331 -0.3369  0.9157
   93SAPE   H9R 9168   2.751   5.884   5.572 -1.2730 -1.0931 -0.1464
   93SAPE  C210 9169   2.726   5.661   5.579 -0.7483 -0.0159  0.2587
   93SAPE  H10R 9170   2.762   5.583   5.651  3.0194 -1.0102 -2.3582
   93SAPE  H10S 9171   2.805   5.641   5.503  0.7681 -2.1498  2.2303
   93SAPE  C211 9172   2.589   5.630   5.521 -0.1916 -0.5383  0.0002
   93SAPE  H11R 9173   2.531   5.555   5.577 -1.5897  0.5829  0.1186
   93SAPE  C212 9174   2.537   5.678   5.410 -0.5217  0.8977  0.2462
   93SAPE  H12R 9175   2.434   5.648   5.386 -0.4452 -0.8501  1.8720
   93SAPE  C213 9176   2.609   5.764   5.305  0.5617 -0.1662  0.7928
   93SAPE  H13R 9177   2.684   5.703   5.250 -0.0809 -0.0298 -0.2492
   93SAPE  H13S 9178   2.658   5.848   5.360  0.4702  0.7790 -0.5390
   93SAPE  C214 9179   2.512   5.823   5.205  0.0331 -0.7987 -0.1599
   93SAPE  H14R 9180   2.478   5.926   5.225 -0.8804 -1.2193  0.4883
   93SAPE  C215 9181   2.481   5.767   5.087  0.0898 -0.5625 -0.7742
   93SAPE  H15R 9182   2.413   5.827   5.025  0.3313  0.8116  0.2490
   93SAPE  C216 9183   2.522   5.628   5.043  0.5109  0.0966  0.5708
   93SAPE  H16R 9184   2.514   5.560   5.130  0.9598 -1.1899 -0.3508
   93SAPE  H16S 9185   2.633   5.629   5.031  0.3457  1.2603 -1.3190
   93SAPE  C217 9186   2.447   5.579   4.911  0.2179 -0.3667 -1.6662
   93SAPE  H17R 9187   2.344   5.559   4.946  1.1153 -0.4399  1.1783
   93SAPE  H17S 9188   2.495   5.479   4.898 -2.0928 -1.5651 -1.5222
   93SAPE  C218 9189   2.475   5.652   4.787  0.3888 -0.6955  0.6462
   93SAPE  H18R 9190   2.581   5.685   4.793  0.0130  2.0514 -3.5014
   93SAPE  H18S 9191   2.429   5.754   4.787  3.1724  0.6502  0.4195
   93SAPE  C219 9192   2.443   5.580   4.657  0.7516 -0.0177  0.2798
   93SAPE  H19R 9193   2.521   5.506   4.628 -1.3480 -2.2739  0.0597
   93SAPE  H19S 9194   2.428   5.662   4.584 -0.7395 -2.1119 -1.9384
   93SAPE  C220 9195   2.311   5.508   4.662  0.3141 -0.0121  0.1893
   93SAPE  H20R 9196   2.313   5.435   4.746  1.0696 -3.3494 -2.5357
   93SAPE  H20S 9197   2.286   5.454   4.568  2.2033  2.1509 -1.6734
   93SAPE  H20T 9198   2.229   5.583   4.670  0.3233  0.0540 -0.3387
   93SAPE   C33 9199   2.990   6.286   5.917 -0.5862 -0.4987 -0.3236
   93SAPE   H3X 9200   3.067   6.207   5.931 -1.2328 -1.8826 -3.6215
   93SAPE   H3Y 9201   3.028   6.374   5.863 -1.5883  0.9566  1.2211
   93SAPE   C34 9202   2.869   6.233   5.839  0.5657  0.2980 -0.3861
   93SAPE   H4X 9203   2.794   6.315   5.848  1.2368  1.0476 -1.2898
   93SAPE   H4Y 9204   2.834   6.142   5.892  1.7068  1.0619  1.7706
   93SAPE   C35 9205   2.900   6.187   5.693  0.2935  0.4125 -0.1362
   93SAPE   H5X 9206   2.930   6.080   5.690  0.7638  0.5140  0.6611
   93SAPE   H5Y 9207   2.982   6.248   5.650  1.5928 -0.1969  1.3935
   93SAPE   C36 9208   2.782   6.205   5.589 -0.3617 -0.3528  0.5165
   93SAPE   H6X 9209   2.748   6.310   5.577 -0.1801 -0.4313 -0.8376
   93SAPE   H6Y 9210   2.691   6.152   5.624  0.7171 -4.7799 -2.5161
   93SAPE   C37 9211   2.820   6.156   5.446 -0.2306  0.4438  0.2372
   93SAPE   H7X 9212   2.856   6.051   5.454  0.3607  0.7046  1.1178
   93SAPE   H7Y 9213   2.898   6.223   5.406 -1.0811  0.9616 -0.5831
   93SAPE   C38 9214   2.709   6.168   5.345 -0.1239 -0.2823  0.1658
   93SAPE   H8X 9215   2.659   6.267   5.352  1.0901  0.5304 -1.7889
   93SAPE   H8Y 9216   2.633   6.091   5.370 -1.1040  0.3496 -0.7401
   93SAPE   C39 9217   2.764   6.144   5.207  0.2805 -0.5498  0.1845
   93SAPE   H9X 9218   2.790   6.037   5.218  0.1136 -0.4596  1.7222
   93SAPE   H9Y 9219   2.856   6.202   5.188  1.8154 -2.0232  2.5395
   93SAPE  C310 9220   2.664   6.159   5.093 -0.7487  0.4425 -0.3670
   93SAPE  H10X 9221   2.670   6.267   5.070  0.0278  0.0109 -2.3035
   93SAPE  H10Y 9222   2.565   6.131   5.135  0.1066 -4.1790 -0.9208
   93SAPE  C311 9223   2.697   6.077   4.970 -0.6181  0.9200 -0.2028
   93SAPE  H11X 9224   2.616   6.095   4.896 -2.5627 -2.3077  0.9784
   93SAPE  H11Y 9225   2.691   5.969   4.992  1.2760  0.9588  0.6720
   93SAPE  C312 9226   2.835   6.112   4.911 -0.5963  1.0242 -0.1379
   93SAPE  H12X 9227   2.908   6.081   4.989 -0.6820  0.9958 -0.0690
   93SAPE  H12Y 9228   2.838   6.222   4.898 -0.0946  1.3994  2.6072
   93SAPE  C313 9229   2.868   6.046   4.776  0.9321  0.4241  0.4982
   93SAPE  H13X 9230   2.793   5.965   4.768 -0.8422  1.9395  1.1567
   93SAPE  H13Y 9231   2.971   6.005   4.778  1.2565  1.1502 -0.6171
   93SAPE  C314 9232   2.844   6.146   4.659  0.2179  0.7737 -0.1905
   93SAPE  H14X 9233   2.919   6.228   4.666  1.1950  0.0087 -1.3133
   93SAPE  H14Y 9234   2.742   6.189   4.660 -0.3058 -0.3518 -1.4649
   93SAPE  C315 9235   2.865   6.085   4.523 -1.0782  0.2378 -0.4944
   93SAPE  H15X 9236   2.943   6.006   4.512 -1.1914  0.3027 -2.0548
   93SAPE  H15Y 9237   2.895   6.176   4.466  2.6704 -0.2130  0.4873
   93SAPE  C316 9238   2.752   6.012   4.453  0.7678 -0.0420  0.2716
   93SAPE  H16X 9239   2.658   6.069   4.464  0.8030  0.0858 -0.0749
   93SAPE  H16Y 9240   2.732   5.913   4.500 -1.4785 -0.2378 -0.9559
   93SAPE  C317 9241   2.775   6.010   4.301 -1.8421  0.8787 -0.6256
   93SAPE  H17X 9242   2.855   5.936   4.279 -1.8489  1.3280 -2.3319
   93SAPE  H17Y 9243   2.808   6.112   4.273 -0.9769  0.1561 -2.3880
   93SAPE  C318 9244   2.653   5.977   4.217 -0.0594  0.3724 -0.1502
   93SAPE  H18X 9245   2.672   5.997   4.109 -1.5763  0.2953 -0.4475
   93SAPE  H18Y 9246   2.573   6.041   4.258  0.0018  0.1811  0.2702
   93SAPE  H18Z 9247   2.630   5.870   4.237 -1.2346  0.7760  0.7303
   94SAPE     N 9248   1.699   2.751   6.673 -0.1454  0.0931 -0.6247
   94SAPE   HN1 9249   1.640   2.711   6.749 -0.4918  0.3338 -0.7603
   94SAPE   HN2 9250   1.783   2.690   6.664  0.0209  0.0059  1.2430
   94SAPE   HN3 9251   1.723   2.845   6.708  1.4913 -0.4614 -0.1954
   94SAPE   C12 9252   1.612   2.738   6.550  0.0873 -0.4620  0.1461
   94SAPE  H12A 9253   1.617   2.631   6.522  2.4041 -0.0355 -1.3247
   94SAPE  H12B 9254   1.660   2.793   6.467 -0.7799  1.8389  1.0474
   94SAPE   C11 9255   1.473   2.792   6.575  0.7730 -0.2574  0.0856
   94SAPE  H11A 9256   1.408   2.770   6.487 -2.0460  1.6914  1.5213
   94SAPE  H11B 9257   1.489   2.901   6.583  1.1799 -0.4454  2.5759
   94SAPE     P 9258   1.383   2.573   6.693  0.0515  0.1959 -0.2186
   94SAPE   O13 9259   1.498   2.489   6.743  0.2208  0.3230  0.0122
   94SAPE   O14 9260   1.255   2.563   6.766  0.3160  0.3278  0.3307
   94SAPE   O12 9261   1.428   2.731   6.694 -0.2098  0.0151  0.8913
   94SAPE   O11 9262   1.356   2.531   6.541 -0.4875 -0.4354 -0.0199
   94SAPE    C1 9263   1.337   2.390   6.513  0.1496 -0.0840 -0.2684
   94SAPE    HA 9264   1.422   2.324   6.541 -1.0527 -1.1248  1.0736
   94SAPE    HB 9265   1.256   2.352   6.579  0.6169 -1.1931 -0.3105
   94SAPE    C2 9266   1.312   2.361   6.360  0.4354  0.5022  0.2855
   94SAPE    HS 9267   1.370   2.267   6.342  1.0654  0.2773  3.0643
   94SAPE   O21 9268   1.342   2.474   6.280 -0.4106  0.4557 -0.1061
   94SAPE   C21 9269   1.473   2.486   6.247 -0.8703  0.5294 -0.2876
   94SAPE   O22 9270   1.563   2.410   6.279 -0.1448 -0.1342 -0.1005
   94SAPE   C22 9271   1.491   2.611   6.152 -0.3873 -0.2139  0.1284
   94SAPE   H2R 9272   1.412   2.687   6.170  1.0077  0.8173  2.3974
   94SAPE   H2S 9273   1.593   2.654   6.164  1.6733 -4.3502 -0.6151
   94SAPE    C3 9274   1.166   2.326   6.339  0.1976  0.5196  0.1558
   94SAPE    HX 9275   1.112   2.422   6.353 -1.4160 -0.7327  3.5425
   94SAPE    HY 9276   1.122   2.257   6.414 -0.1581 -0.3690 -0.8321
   94SAPE   O31 9277   1.148   2.272   6.206  0.3286  0.0142  0.5059
   94SAPE   C31 9278   1.166   2.143   6.198  0.8555  0.0406  0.4626
   94SAPE   O32 9279   1.209   2.071   6.285  0.2829  0.0587 -0.2005
   94SAPE   C32 9280   1.092   2.089   6.072  0.1661 -0.2489  0.0039
   94SAPE   H2X 9281   1.081   2.172   5.999 -0.9623 -1.4876 -1.2864
   94SAPE   H2Y 9282   0.985   2.076   6.096 -0.0591  2.2273  0.5967
   94SAPE   C23 9283   1.475   2.568   6.003 -0.6849  0.2286 -0.6546
   94SAPE   H3R 9284   1.378   2.514   6.008 -0.5835  0.1260  0.3167
   94SAPE   H3S 9285   1.545   2.488   5.972 -1.1707 -0.3801 -0.1955
   94SAPE   C24 9286   1.457   2.680   5.898 -0.2033 -0.9291  0.7905
   94SAPE   H4R 9287   1.372   2.744   5.930  0.8366  0.7877  0.2703
   94SAPE   H4S 9288   1.418   2.630   5.807  0.0758  2.2722 -1.2526
   94SAPE   C25 9289   1.582   2.769   5.880  0.4026 -0.8073 -0.3760
   94SAPE   H5R 9290   1.613   2.798   5.982 -1.2223  1.2673 -0.4036
   94SAPE   C26 9291   1.640   2.838   5.777  0.2423  0.3670 -0.8839
   94SAPE   H6R 9292   1.720   2.911   5.798  0.6060 -0.0551 -0.7951
   94SAPE   C27 9293   1.601   2.811   5.637 -0.2779  0.1367  0.4534
   94SAPE   H7R 9294   1.507   2.751   5.644  0.1198 -0.4346  1.1782
   94SAPE   H7S 9295   1.681   2.751   5.590 -1.0367  0.9563 -2.0025
   94SAPE   C28 9296   1.573   2.942   5.565 -0.5188 -0.7983 -0.2311
   94SAPE   H8R 9297   1.480   2.989   5.598  1.1294  1.3380  1.7130
   94SAPE   C29 9298   1.628   2.976   5.447  0.0493 -0.0321  0.0125
   94SAPE   H9R 9299   1.612   3.079   5.411  2.5716  1.0837  1.8005
   94SAPE  C210 9300   1.741   2.918   5.368  0.6162  0.2907  0.0630
   94SAPE  H10R 9301   1.703   2.898   5.265 -1.7164 -0.2932  0.9850
   94SAPE  H10S 9302   1.770   2.821   5.413  1.3013  0.2059 -0.5412
   94SAPE  C211 9303   1.867   3.005   5.370  0.1278 -0.1070  0.5658
   94SAPE  H11R 9304   1.895   3.039   5.470  0.3767 -1.9667  1.1747
   94SAPE  C212 9305   1.943   3.043   5.259 -0.0475  0.0344  0.0828
   94SAPE  H12R 9306   2.019   3.121   5.276 -0.0146 -0.0182  0.1741
   94SAPE  C213 9307   1.914   3.002   5.112  0.0206 -0.1316  0.2295
   94SAPE  H13R 9308   1.889   3.092   5.052 -1.4192 -0.3529  0.4718
   94SAPE  H13S 9309   1.841   2.920   5.099  1.0912 -2.0301  4.4036
   94SAPE  C214 9310   2.034   2.942   5.052 -0.5538  0.0071 -0.1812
   94SAPE  H14R 9311   2.093   2.876   5.117 -0.5659  1.1707  1.0344
   94SAPE  C215 9312   2.088   2.965   4.932 -0.2348  0.1878 -0.4148
   94SAPE  H15R 9313   2.185   2.919   4.906 -0.6487 -0.6322 -0.5467
   94SAPE  C216 9314   2.031   3.058   4.824 -0.3677  0.1088  0.2344
   94SAPE  H16R 9315   2.107   3.094   4.752 -2.8898 -0.4776 -2.9099
   94SAPE  H16S 9316   1.994   3.150   4.873  0.4177  1.3719 -1.4600
   94SAPE  C217 9317   1.930   2.981   4.750  0.2623 -0.0164  0.3359
   94SAPE  H17R 9318   1.879   3.040   4.671 -2.0602 -1.9930  0.2168
   94SAPE  H17S 9319   1.847   2.932   4.805  0.1625 -0.0335  0.1722
   94SAPE  C218 9320   1.989   2.863   4.665  0.4196 -0.1822  0.5105
   94SAPE  H18R 9321   1.996   2.766   4.719 -2.0015 -1.5007 -1.3395
   94SAPE  H18S 9322   2.093   2.891   4.639  0.5469 -1.2857 -0.2243
   94SAPE  C219 9323   1.900   2.832   4.543  0.1562  0.0954  0.0903
   94SAPE  H19R 9324   1.889   2.923   4.480  0.8534  0.3956  0.3945
   94SAPE  H19S 9325   1.799   2.798   4.573 -0.1150 -0.1158 -1.0103
   94SAPE  C220 9326   1.959   2.718   4.451 -0.9331 -0.1558  0.0557
   94SAPE  H20R 9327   1.937   2.622   4.501 -0.6904  0.0898  0.6386
   94SAPE  H20S 9328   2.066   2.740   4.430 -1.0183 -1.0386 -1.4543
   94SAPE  H20T 9329   1.904   2.723   4.354 -1.6781  1.7090  0.5359
   94SAPE   C33 9330   1.151   1.956   6.022 -0.1809  0.2910 -0.2242
   94SAPE   H3X 9331   1.089   1.898   5.950 -0.3276  0.4519 -0.2289
   94SAPE   H3Y 9332   1.170   1.876   6.097  0.6574  1.8046  1.2243
   94SAPE   C34 9333   1.291   1.986   5.960 -0.3236 -0.1569 -0.1133
   94SAPE   H4X 9334   1.348   1.892   5.941 -1.1138 -0.9303  1.2292
   94SAPE   H4Y 9335   1.352   2.040   6.035 -0.1101 -0.9733  0.3114
   94SAPE   C35 9336   1.272   2.077   5.838 -0.1612  0.0355 -0.0792
   94SAPE   H5X 9337   1.228   2.178   5.855 -0.4269  0.5602 -3.2968
   94SAPE   H5Y 9338   1.192   2.033   5.776  3.6907 -2.4016 -3.8558
   94SAPE   C36 9339   1.399   2.088   5.755 -0.8523 -0.1413  0.5936
   94SAPE   H6X 9340   1.433   1.988   5.722 -0.6782  0.2554 -0.4782
   94SAPE   H6Y 9341   1.485   2.127   5.813 -0.6635 -0.6146  0.6266
   94SAPE   C37 9342   1.373   2.183   5.638 -0.2136  0.1490  0.2616
   94SAPE   H7X 9343   1.361   2.281   5.688  0.7827  0.3737  0.0839
   94SAPE   H7Y 9344   1.287   2.152   5.575 -0.3434  0.9433  0.0399
   94SAPE   C38 9345   1.496   2.180   5.536  0.3905  0.2065 -0.0765
   94SAPE   H8X 9346   1.534   2.081   5.504  2.2165  0.5424  0.8922
   94SAPE   H8Y 9347   1.583   2.230   5.583  0.5729  1.4320 -1.6581
   94SAPE   C39 9348   1.470   2.264   5.410  0.0870 -0.7503  0.3855
   94SAPE   H9X 9349   1.392   2.221   5.343 -0.4205  1.1578 -0.3311
   94SAPE   H9Y 9350   1.570   2.267   5.362 -0.1996  1.6409 -0.1724
   94SAPE  C310 9351   1.438   2.412   5.428 -0.0313  0.0533 -0.1242
   94SAPE  H10X 9352   1.507   2.467   5.496  0.3070  0.2239 -0.6004
   94SAPE  H10Y 9353   1.337   2.423   5.474  0.6085 -0.5490  1.4688
   94SAPE  C311 9354   1.448   2.505   5.302  0.9261  0.1286 -0.1262
   94SAPE  H11X 9355   1.362   2.478   5.238 -0.1621  2.7921  0.0661
   94SAPE  H11Y 9356   1.545   2.487   5.251  1.2049  3.4485 -1.0063
   94SAPE  C312 9357   1.432   2.650   5.325  0.0066 -0.1159  0.2196
   94SAPE  H12X 9358   1.534   2.690   5.346 -1.1312  3.5891 -0.6459
   94SAPE  H12Y 9359   1.376   2.682   5.415 -0.9839  0.7727 -0.6922
   94SAPE  C313 9360   1.382   2.729   5.203 -0.3551 -0.1968  0.2247
   94SAPE  H13X 9361   1.278   2.694   5.186  0.2842 -1.5115 -1.1830
   94SAPE  H13Y 9362   1.439   2.713   5.110 -0.1257 -0.0627  0.3421
   94SAPE  C314 9363   1.385   2.882   5.209 -0.0975 -0.6058  0.1011
   94SAPE  H14X 9364   1.338   2.908   5.112  1.3902 -0.2745 -0.5504
   94SAPE  H14Y 9365   1.487   2.926   5.205 -0.3502  0.1851  1.5025
   94SAPE  C315 9366   1.305   2.945   5.323  0.0406 -0.4021  0.2811
   94SAPE  H15X 9367   1.360   2.920   5.416 -1.2319 -0.4522  1.0416
   94SAPE  H15Y 9368   1.201   2.907   5.327 -1.0785  2.4973  2.4130
   94SAPE  C316 9369   1.300   3.098   5.324  0.1025 -0.4745 -0.2808
   94SAPE  H16X 9370   1.236   3.137   5.242 -1.0440 -0.7348  0.4579
   94SAPE  H16Y 9371   1.402   3.140   5.310  0.6386 -1.6472  0.0337
   94SAPE  C317 9372   1.248   3.159   5.459 -0.0788 -0.4255  0.3888
   94SAPE  H17X 9373   1.329   3.158   5.535  0.5854  3.7578 -0.0501
   94SAPE  H17Y 9374   1.161   3.096   5.489 -0.6535 -1.2475 -2.6471
   94SAPE  C318 9375   1.221   3.309   5.440 -0.0879 -0.1157  0.1531
   94SAPE  H18X 9376   1.207   3.361   5.538  0.5811 -0.3307  0.3661
   94SAPE  H18Y 9377   1.143   3.341   5.368  0.8222  0.6745 -0.4905
   94SAPE  H18Z 9378   1.316   3.350   5.400  0.2242  0.3067  1.2901
   95SAPE     N 9379   4.746   6.588   6.951 -0.3869  0.5479  0.4775
   95SAPE   HN1 9380   4.843   6.600   6.915 -0.6095 -2.2938 -1.3968
   95SAPE   HN2 9381   4.716   6.669   7.009 -0.5221  1.1704 -0.4485
   95SAPE   HN3 9382   4.756   6.507   7.017 -2.5525  1.2459  1.7526
   95SAPE   C12 9383   4.652   6.546   6.842  0.7098  0.7213 -0.6102
   95SAPE  H12A 9384   4.574   6.475   6.877 -0.0173  0.5366 -2.5014
   95SAPE  H12B 9385   4.710   6.495   6.762  0.5398 -0.1031 -0.2151
   95SAPE   C11 9386   4.577   6.669   6.786  0.6012  0.4112 -0.2185
   95SAPE  H11A 9387   4.493   6.699   6.853  0.1887 -1.6572  0.2673
   95SAPE  H11B 9388   4.529   6.633   6.692  0.2281 -0.3168  0.2386
   95SAPE     P 9389   4.616   6.893   6.660  0.1164 -0.0700 -0.4110
   95SAPE   O13 9390   4.550   6.989   6.747  0.8330  0.2029 -0.6275
   95SAPE   O14 9391   4.724   6.948   6.578  0.3351  0.1708 -0.0359
   95SAPE   O12 9392   4.662   6.775   6.751 -0.2371  0.2720 -0.0669
   95SAPE   O11 9393   4.510   6.833   6.570  0.0652 -0.1954  0.5953
   95SAPE    C1 9394   4.461   6.912   6.462 -0.5044  0.4534 -0.4992
   95SAPE    HA 9395   4.476   7.021   6.478 -1.9598  0.5087  0.6959
   95SAPE    HB 9396   4.523   6.895   6.372  0.8258 -0.6128  0.5793
   95SAPE    C2 9397   4.309   6.891   6.435 -0.4265 -0.0377 -0.0670
   95SAPE    HS 9398   4.259   6.839   6.519 -0.3004  0.1228  0.1091
   95SAPE   O21 9399   4.305   6.821   6.310  0.2426 -0.3130 -0.0217
   95SAPE   C21 9400   4.201   6.747   6.281  0.3665 -0.8883  0.2161
   95SAPE   O22 9401   4.100   6.740   6.353 -0.0326  0.1054 -0.3931
   95SAPE   C22 9402   4.223   6.662   6.161  0.2728  0.3254 -1.3257
   95SAPE   H2R 9403   4.240   6.735   6.079  0.1584  2.0400  0.1265
   95SAPE   H2S 9404   4.313   6.596   6.170  0.5512  0.8385 -0.0716
   95SAPE    C3 9405   4.242   7.030   6.408 -0.0004  0.4039 -0.2053
   95SAPE    HX 9406   4.246   7.082   6.506 -0.4909 -0.5279  0.3116
   95SAPE    HY 9407   4.139   7.005   6.375 -0.2915 -1.6237  2.0123
   95SAPE   O31 9408   4.313   7.103   6.305 -0.4636 -0.2382 -0.1387
   95SAPE   C31 9409   4.275   7.225   6.281  0.8627 -0.0319  0.1722
   95SAPE   O32 9410   4.178   7.284   6.339  0.3372  0.0715  0.2455
   95SAPE   C32 9411   4.374   7.301   6.192 -0.2788  0.3816 -0.0350
   95SAPE   H2X 9412   4.415   7.227   6.120  3.6920 -0.3790  2.6147
   95SAPE   H2Y 9413   4.469   7.320   6.248  0.3662  1.0509 -1.3067
   95SAPE   C23 9414   4.103   6.575   6.114  0.4147  0.5694 -0.9307
   95SAPE   H3R 9415   4.011   6.636   6.126  1.2746  1.6196  0.9491
   95SAPE   H3S 9416   4.094   6.481   6.172 -1.1026 -0.5564 -2.8896
   95SAPE   C24 9417   4.114   6.530   5.967  0.4296 -0.2862 -0.4720
   95SAPE   H4R 9418   4.115   6.622   5.903  0.3667 -1.9276 -2.9648
   95SAPE   H4S 9419   4.024   6.482   5.925 -0.7216  0.6310  0.8821
   95SAPE   C25 9420   4.229   6.428   5.943  0.2580  0.3179  0.3120
   95SAPE   H5R 9421   4.238   6.351   6.020 -0.9580  0.3425  0.4961
   95SAPE   C26 9422   4.318   6.436   5.838 -0.2057  0.3526  0.0602
   95SAPE   H6R 9423   4.396   6.358   5.834 -0.3044  0.3034 -2.5348
   95SAPE   C27 9424   4.318   6.528   5.715  0.3253 -0.5866 -0.2082
   95SAPE   H7R 9425   4.415   6.528   5.662  0.1041  2.7344 -0.8224
   95SAPE   H7S 9426   4.314   6.634   5.750 -0.3875 -0.4010 -0.8232
   95SAPE   C28 9427   4.207   6.495   5.617 -0.2806  0.1521 -0.4195
   95SAPE   H8R 9428   4.110   6.484   5.666  0.7602 -0.2009  1.6720
   95SAPE   C29 9429   4.212   6.472   5.485 -0.4797 -0.4600 -0.1276
   95SAPE   H9R 9430   4.115   6.442   5.444 -1.3488  1.8976  0.0453
   95SAPE  C210 9431   4.331   6.486   5.397  0.3970 -1.1481  0.4297
   95SAPE  H10R 9432   4.428   6.460   5.445 -0.3313 -3.9989  0.5465
   95SAPE  H10S 9433   4.337   6.596   5.381 -0.4758 -1.2115 -0.4212
   95SAPE  C211 9434   4.327   6.403   5.268 -0.8007 -0.2512 -0.1046
   95SAPE  H11R 9435   4.373   6.303   5.263 -0.3918 -0.0363 -0.7948
   95SAPE  C212 9436   4.269   6.441   5.154 -0.6334  0.1153  0.6675
   95SAPE  H12R 9437   4.292   6.384   5.063  1.3938  2.0996 -0.1594
   95SAPE  C213 9438   4.181   6.563   5.133  0.0514  0.2297 -0.0502
   95SAPE  H13R 9439   4.152   6.615   5.227  0.0556 -0.1480  0.1619
   95SAPE  H13S 9440   4.089   6.526   5.083 -1.8728 -1.8548  4.4864
   95SAPE  C214 9441   4.261   6.663   5.051 -0.3296  0.9041 -0.3341
   95SAPE  H14R 9442   4.328   6.734   5.100  2.9934 -2.1112 -0.1205
   95SAPE  C215 9443   4.236   6.672   4.917 -0.2074  0.6160  0.0736
   95SAPE  H15R 9444   4.294   6.742   4.855  0.0422 -0.0275 -0.4249
   95SAPE  C216 9445   4.158   6.583   4.823 -0.5902 -0.4036 -0.0374
   95SAPE  H16R 9446   4.074   6.635   4.772  1.1458  3.4162  0.6943
   95SAPE  H16S 9447   4.116   6.501   4.886 -0.9596 -0.9214 -0.9295
   95SAPE  C217 9448   4.243   6.510   4.714 -0.5573  0.2820 -0.0349
   95SAPE  H17R 9449   4.289   6.594   4.657  1.2018  0.3262  1.3332
   95SAPE  H17S 9450   4.179   6.440   4.657 -1.7953  0.7240  0.7683
   95SAPE  C218 9451   4.365   6.442   4.775  0.1417  0.3156 -0.7494
   95SAPE  H18R 9452   4.403   6.500   4.861 -1.5939 -0.0063  0.2806
   95SAPE  H18S 9453   4.447   6.424   4.701 -0.2769 -3.7871 -0.4629
   95SAPE  C219 9454   4.332   6.297   4.811  0.0083  0.6089  0.0895
   95SAPE  H19R 9455   4.274   6.257   4.726  0.6275  1.5912 -0.8177
   95SAPE  H19S 9456   4.254   6.298   4.890 -1.0232 -0.0682 -0.8898
   95SAPE  C220 9457   4.452   6.216   4.842  0.3581 -0.2034 -0.2154
   95SAPE  H20R 9458   4.432   6.111   4.870 -0.3662 -0.3749 -1.3008
   95SAPE  H20S 9459   4.504   6.264   4.928  0.0660 -0.0122 -0.1474
   95SAPE  H20T 9460   4.527   6.213   4.760  2.4439 -0.1782  1.5849
   95SAPE   C33 9461   4.326   7.433   6.133 -0.2109  0.7098  0.1078
   95SAPE   H3X 9462   4.287   7.485   6.223  1.9184  0.4724  1.2382
   95SAPE   H3Y 9463   4.246   7.427   6.056 -0.3641  0.8206  0.2578
   95SAPE   C34 9464   4.447   7.513   6.076 -0.3230 -0.3375 -0.7688
   95SAPE   H4X 9465   4.528   7.532   6.150  0.4373 -0.9152 -1.4431
   95SAPE   H4Y 9466   4.403   7.611   6.047 -0.9105 -0.4197 -0.1900
   95SAPE   C35 9467   4.513   7.444   5.951  0.3426  0.2422 -0.2057
   95SAPE   H5X 9468   4.532   7.337   5.973 -0.3638  0.2648  0.5621
   95SAPE   H5Y 9469   4.609   7.498   5.934  1.4521 -0.9975  1.6851
   95SAPE   C36 9470   4.430   7.454   5.815 -0.4629  0.1404 -0.3385
   95SAPE   H6X 9471   4.413   7.563   5.806  1.1371  0.6190  1.6888
   95SAPE   H6Y 9472   4.331   7.404   5.818  0.0016 -0.7915 -0.1021
   95SAPE   C37 9473   4.497   7.383   5.690 -0.0060 -0.4307  0.0941
   95SAPE   H7X 9474   4.520   7.278   5.717 -1.1008 -0.9170 -0.8237
   95SAPE   H7Y 9475   4.589   7.443   5.675 -0.8409  0.7783 -0.3742
   95SAPE   C38 9476   4.406   7.390   5.563  0.3210  0.3208  0.6351
   95SAPE   H8X 9477   4.366   7.488   5.529  1.1499 -0.0246 -1.5176
   95SAPE   H8Y 9478   4.316   7.334   5.597 -1.6417  1.6896 -1.9013
   95SAPE   C39 9479   4.480   7.333   5.438 -0.2884  0.1103  0.2936
   95SAPE   H9X 9480   4.494   7.223   5.448 -3.3896 -0.4270 -0.1960
   95SAPE   H9Y 9481   4.574   7.390   5.432 -0.3427  0.2938  1.0536
   95SAPE  C310 9482   4.394   7.338   5.314 -0.4119  0.3752 -0.4056
   95SAPE  H10X 9483   4.368   7.445   5.299  0.8322  1.2940  3.1559
   95SAPE  H10Y 9484   4.307   7.276   5.343  0.9300 -0.6494  1.6254
   95SAPE  C311 9485   4.460   7.290   5.185  1.1449 -0.0601 -0.6052
   95SAPE  H11X 9486   4.519   7.199   5.210  1.6510  0.7165  1.1795
   95SAPE  H11Y 9487   4.529   7.369   5.150  0.2110  0.8577 -0.4257
   95SAPE  C312 9488   4.362   7.258   5.071 -0.2904  0.5580  0.0534
   95SAPE  H12X 9489   4.291   7.344   5.068  1.2545  1.9278  0.8290
   95SAPE  H12Y 9490   4.309   7.165   5.099  1.4112 -0.3914  0.2417
   95SAPE  C313 9491   4.444   7.230   4.941  0.2112  0.1816 -0.8756
   95SAPE  H13X 9492   4.490   7.330   4.921  1.7162 -0.0526  1.1179
   95SAPE  H13Y 9493   4.369   7.215   4.861 -1.7773 -0.6757  1.0640
   95SAPE  C314 9494   4.542   7.119   4.945  0.0007 -0.5489  0.1115
   95SAPE  H14X 9495   4.615   7.143   5.026 -1.8067 -0.4809  1.7928
   95SAPE  H14Y 9496   4.588   7.120   4.844  0.8334  0.5134  0.4776
   95SAPE  C315 9497   4.487   6.980   4.984 -0.1213  0.0762  0.5130
   95SAPE  H15X 9498   4.410   6.953   4.908  0.4852 -0.4839  0.0858
   95SAPE  H15Y 9499   4.430   6.980   5.080 -2.8955  2.3113 -0.9756
   95SAPE  C316 9500   4.602   6.875   4.990  1.0567  0.4158 -0.6229
   95SAPE  H16X 9501   4.555   6.778   5.019  1.6464 -0.5627 -2.7229
   95SAPE  H16Y 9502   4.673   6.905   5.070 -0.9407  2.5448  0.4803
   95SAPE  C317 9503   4.674   6.852   4.858  0.3317  0.7646  0.4251
   95SAPE  H17X 9504   4.755   6.777   4.871 -0.5110 -0.3958 -0.6537
   95SAPE  H17Y 9505   4.722   6.948   4.830  0.3212  1.3817  2.3932
   95SAPE  C318 9506   4.582   6.809   4.743 -0.5123  0.0933 -0.0726
   95SAPE  H18X 9507   4.640   6.824   4.648 -0.9889 -2.5332 -0.8482
   95SAPE  H18Y 9508   4.508   6.892   4.745  0.8707  1.3922  0.0752
   95SAPE  H18Z 9509   4.533   6.712   4.764 -1.2465  0.3968 -0.3419
   96SAPE     N 9510   0.182   1.648   6.549 -0.4465 -0.2453  0.5511
   96SAPE   HN1 9511   0.082   1.663   6.524  0.0717  3.3451  0.0118
   96SAPE   HN2 9512   0.235   1.698   6.475 -0.1919  0.3221  1.1109
   96SAPE   HN3 9513   0.202   1.549   6.527 -0.4454  0.0131 -0.6882
   96SAPE   C12 9514   0.218   1.670   6.691 -0.1270 -0.0915  0.0975
   96SAPE  H12A 9515   0.236   1.779   6.700  2.4907 -0.3850 -0.6511
   96SAPE  H12B 9516   0.312   1.614   6.710  0.4173  0.7492 -0.0674
   96SAPE   C11 9517   0.105   1.631   6.785 -0.3192  0.1560  0.1199
   96SAPE  H11A 9518   0.024   1.706   6.766  0.2565  0.3702 -1.6902
   96SAPE  H11B 9519   0.133   1.640   6.892 -2.2279 -1.3720  0.8082
   96SAPE     P 9520  -0.085   1.457   6.717  0.2306 -0.3869 -0.1425
   96SAPE   O13 9521  -0.086   1.309   6.694  0.3256  0.3144 -0.6735
   96SAPE   O14 9522  -0.188   1.511   6.812  0.1950 -0.2026 -0.0515
   96SAPE   O12 9523   0.066   1.494   6.760 -0.2818 -0.0890 -0.7753
   96SAPE   O11 9524  -0.101   1.533   6.581  0.0606 -0.4729  0.5722
   96SAPE    C1 9525  -0.187   1.489   6.476  0.4727  0.6162 -0.3568
   96SAPE    HA 9526  -0.165   1.385   6.443  0.3909  0.8245 -1.0831
   96SAPE    HB 9527  -0.290   1.501   6.514  0.0182 -3.3929  0.0560
   96SAPE    C2 9528  -0.150   1.570   6.358  0.3970 -0.5087 -0.7525
   96SAPE    HS 9529  -0.208   1.540   6.269  1.0895 -3.1029 -0.4092
   96SAPE   O21 9530  -0.008   1.565   6.322  0.5452  0.1611  0.3066
   96SAPE   C21 9531   0.023   1.455   6.255  0.0314 -0.2191 -0.0263
   96SAPE   O22 9532  -0.052   1.362   6.234 -0.4049 -0.4958 -0.3502
   96SAPE   C22 9533   0.164   1.474   6.201  0.4581 -0.3207 -0.8703
   96SAPE   H2R 9534   0.184   1.582   6.182  0.9615 -0.7468 -3.0798
   96SAPE   H2S 9535   0.233   1.450   6.285 -1.5545 -2.0973  0.3516
   96SAPE    C3 9536  -0.177   1.721   6.384  0.6871 -0.6781 -0.0190
   96SAPE    HX 9537  -0.136   1.754   6.482  1.3554 -3.0389  0.5555
   96SAPE    HY 9538  -0.287   1.725   6.399  0.7290  0.6449  0.0698
   96SAPE   O31 9539  -0.144   1.807   6.276 -0.0715 -0.4374  0.9066
   96SAPE   C31 9540  -0.018   1.852   6.289  0.1461  0.5875  0.8504
   96SAPE   O32 9541   0.057   1.837   6.384  0.1328 -0.0788 -0.5292
   96SAPE   C32 9542   0.001   1.944   6.173 -0.4949 -0.2067 -0.2310
   96SAPE   H2X 9543   0.041   2.042   6.207  2.2335 -0.6740 -1.7753
   96SAPE   H2Y 9544  -0.097   1.954   6.122  0.1922 -0.9933 -1.7839
   96SAPE   C23 9545   0.178   1.399   6.073 -0.2648  0.5866 -0.3325
   96SAPE   H3R 9546   0.118   1.441   5.990  0.4402  2.5981  0.1225
   96SAPE   H3S 9547   0.160   1.291   6.092  0.5917  0.5072  0.1158
   96SAPE   C24 9548   0.328   1.396   6.012 -0.0586 -0.7617 -0.3209
   96SAPE   H4R 9549   0.333   1.317   5.934  1.8402 -1.8495  0.7885
   96SAPE   H4S 9550   0.381   1.353   6.101 -0.5159 -1.1564 -0.2330
   96SAPE   C25 9551   0.372   1.539   5.967 -0.0975 -0.5145 -0.5937
   96SAPE   H5R 9552   0.407   1.598   6.052 -0.5484 -0.6474 -0.3091
   96SAPE   C26 9553   0.357   1.583   5.840  0.4495  0.0089  0.2409
   96SAPE   H6R 9554   0.380   1.689   5.824 -0.0583 -0.0995 -1.4343
   96SAPE   C27 9555   0.282   1.518   5.726  0.0266  0.4942 -0.0710
   96SAPE   H7R 9556   0.208   1.593   5.690 -0.3666  0.8229  1.3567
   96SAPE   H7S 9557   0.231   1.425   5.757  1.0477 -0.3708 -0.9084
   96SAPE   C28 9558   0.376   1.480   5.619 -0.5104  0.0194 -0.3654
   96SAPE   H8R 9559   0.451   1.407   5.654 -1.2616 -0.3684  0.4701
   96SAPE   C29 9560   0.402   1.533   5.498  0.1889  0.4075  0.0695
   96SAPE   H9R 9561   0.476   1.488   5.430  0.9894  0.4807  0.8642
   96SAPE  C210 9562   0.347   1.659   5.440 -0.3902  0.2143 -0.0029
   96SAPE  H10R 9563   0.287   1.701   5.524  0.4909 -0.5653  1.0426
   96SAPE  H10S 9564   0.264   1.646   5.367  0.4447 -1.9825 -0.6380
   96SAPE  C211 9565   0.439   1.747   5.365  0.6793  0.6058  0.2756
   96SAPE  H11R 9566   0.487   1.822   5.431  0.1084  1.2045  0.0238
   96SAPE  C212 9567   0.479   1.727   5.237 -0.1450 -1.0245  0.3692
   96SAPE  H12R 9568   0.531   1.806   5.181 -1.5209  0.8590  1.6408
   96SAPE  C213 9569   0.426   1.617   5.147 -0.1791  0.0967  0.4058
   96SAPE  H13R 9570   0.438   1.519   5.197 -1.2445 -0.5675 -0.5801
   96SAPE  H13S 9571   0.492   1.609   5.058 -1.8086 -1.4355 -0.7382
   96SAPE  C214 9572   0.289   1.639   5.089  0.0978  0.3043  0.1991
   96SAPE  H14R 9573   0.211   1.633   5.166  0.1159  2.7704  0.5054
   96SAPE  C215 9574   0.256   1.670   4.963 -1.1119  0.4986  0.3218
   96SAPE  H15R 9575   0.150   1.663   4.935 -0.8557  0.2350 -0.6313
   96SAPE  C216 9576   0.356   1.676   4.849  0.1581  1.0498  0.1748
   96SAPE  H16R 9577   0.440   1.741   4.880  1.0056 -0.1440  0.4740
   96SAPE  H16S 9578   0.321   1.736   4.763  2.7717  0.7078 -1.2079
   96SAPE  C217 9579   0.405   1.541   4.794  0.1855  0.1396  0.1602
   96SAPE  H17R 9580   0.449   1.481   4.876  3.5621 -0.5838 -1.9593
   96SAPE  H17S 9581   0.472   1.554   4.706 -0.8132 -1.8345 -0.9576
   96SAPE  C218 9582   0.292   1.454   4.729 -0.2006  0.8529 -0.3938
   96SAPE  H18R 9583   0.229   1.421   4.814  1.7049 -0.1382  0.6925
   96SAPE  H18S 9584   0.336   1.361   4.687  0.1269  0.8393 -0.0298
   96SAPE  C219 9585   0.196   1.516   4.631 -0.7442 -0.3745 -0.4645
   96SAPE  H19R 9586   0.138   1.599   4.677 -0.5853 -0.6322  0.2144
   96SAPE  H19S 9587   0.120   1.441   4.600 -1.3892  0.0268  0.1175
   96SAPE  C220 9588   0.274   1.565   4.509 -0.8970  0.1708 -0.3791
   96SAPE  H20R 9589   0.219   1.615   4.427 -0.0319  2.2761  0.2675
   96SAPE  H20S 9590   0.334   1.479   4.472 -2.1725 -0.4863 -0.9674
   96SAPE  H20T 9591   0.357   1.634   4.535 -0.3942 -0.5538 -0.0109
   96SAPE   C33 9592   0.112   1.895   6.081  1.0549  0.3632  0.7149
   96SAPE   H3X 9593   0.104   1.787   6.060 -1.8095  0.8514 -1.3411
   96SAPE   H3Y 9594   0.213   1.913   6.125  1.3900 -0.6272  0.3786
   96SAPE   C34 9595   0.122   1.964   5.945  0.6997 -0.1787  0.1310
   96SAPE   H4X 9596   0.211   1.925   5.891  1.3251  0.1243  0.9186
   96SAPE   H4Y 9597   0.140   2.071   5.970 -1.6298  0.5913 -1.1328
   96SAPE   C35 9598   0.008   1.948   5.847 -0.2889 -0.1377 -0.0689
   96SAPE   H5X 9599   0.010   2.034   5.778 -0.6084 -0.7852 -0.9058
   96SAPE   H5Y 9600  -0.097   1.938   5.882 -0.3404  0.7281  0.0363
   96SAPE   C36 9601   0.032   1.843   5.736  0.0571  0.0368  0.0238
   96SAPE   H6X 9602   0.039   1.745   5.788  1.1846 -0.4731 -1.0357
   96SAPE   H6Y 9603   0.132   1.843   5.688 -0.5949  3.9998 -1.6704
   96SAPE   C37 9604  -0.073   1.850   5.624  0.5666 -0.5244  0.3891
   96SAPE   H7X 9605  -0.063   1.939   5.558 -1.5910 -0.9985 -0.6846
   96SAPE   H7Y 9606  -0.166   1.856   5.684  0.1280  0.1322 -0.3330
   96SAPE   C38 9607  -0.078   1.727   5.532 -0.8436  1.0493  0.5154
   96SAPE   H8X 9608  -0.108   1.633   5.582 -0.3791  0.2952 -0.5969
   96SAPE   H8Y 9609   0.025   1.700   5.502 -2.0065 -0.9242 -2.0120
   96SAPE   C39 9610  -0.170   1.741   5.409  0.1306  0.3718  0.6917
   96SAPE   H9X 9611  -0.265   1.786   5.443 -1.1694  0.1619 -2.3285
   96SAPE   H9Y 9612  -0.200   1.638   5.380 -0.3406  0.5341  0.5869
   96SAPE  C310 9613  -0.095   1.796   5.284  1.0280 -0.2303 -0.0079
   96SAPE  H10X 9614   0.003   1.745   5.277  1.3644  0.2068  1.1892
   96SAPE  H10Y 9615  -0.059   1.897   5.310 -0.2357  0.1184  0.4778
   96SAPE  C311 9616  -0.175   1.800   5.153 -0.1099  0.2647  0.0610
   96SAPE  H11X 9617  -0.266   1.863   5.162 -1.4402 -1.3546 -1.2022
   96SAPE  H11Y 9618  -0.187   1.694   5.120  0.9465 -0.3321  1.4786
   96SAPE  C312 9619  -0.084   1.849   5.036 -0.1674 -0.6261  0.0380
   96SAPE  H12X 9620   0.004   1.781   5.035 -3.2630 -5.0134 -0.1552
   96SAPE  H12Y 9621  -0.051   1.951   5.067 -1.6038 -0.1704  0.1474
   96SAPE  C313 9622  -0.151   1.857   4.899  0.7698 -0.8816 -0.0092
   96SAPE  H13X 9623  -0.219   1.944   4.886 -1.1386 -2.1913  0.7397
   96SAPE  H13Y 9624  -0.208   1.762   4.898 -1.7002  0.5290 -1.5723
   96SAPE  C314 9625  -0.055   1.879   4.782  0.5468 -0.5055  0.1110
   96SAPE  H14X 9626  -0.098   1.848   4.684 -1.6582  2.3984  0.0366
   96SAPE  H14Y 9627   0.018   1.797   4.801  0.1685 -0.3370  2.7226
   96SAPE  C315 9628   0.013   2.013   4.769 -0.3169 -0.0625  0.3998
   96SAPE  H15X 9629   0.042   2.030   4.875  0.2851  0.0527  0.2188
   96SAPE  H15Y 9630  -0.060   2.091   4.739 -1.1094 -1.9020 -2.9346
   96SAPE  C316 9631   0.138   2.002   4.677 -0.0114 -0.2185 -0.3644
   96SAPE  H16X 9632   0.216   1.942   4.728  0.3917 -0.3277 -1.0867
   96SAPE  H16Y 9633   0.180   2.102   4.656 -2.5968  0.5910 -2.3608
   96SAPE  C317 9634   0.114   1.949   4.538  0.0507  0.2469  0.7718
   96SAPE  H17X 9635   0.042   2.011   4.481 -0.3518 -0.9378 -0.0744
   96SAPE  H17Y 9636   0.067   1.848   4.547 -0.8923  0.7451  1.5958
   96SAPE  C318 9637   0.239   1.924   4.453 -0.1462  0.0212 -0.1068
   96SAPE  H18X 9638   0.215   1.841   4.383  2.0040 -1.9847  1.3769
   96SAPE  H18Y 9639   0.321   1.887   4.519 -1.6373 -2.7888  0.3294
   96SAPE  H18Z 9640   0.282   2.013   4.404 -0.1503 -0.6957 -1.4459
   97SAPE     N 9641   3.600   1.819   6.892 -0.8959  0.1501 -0.4029
   97SAPE   HN1 9642   3.690   1.767   6.890 -2.4460 -2.7857 -0.7133
   97SAPE   HN2 9643   3.582   1.844   6.991  1.6222  1.1653 -0.1290
   97SAPE   HN3 9644   3.528   1.754   6.854  0.0365 -0.5224 -1.0738
   97SAPE   C12 9645   3.620   1.941   6.808 -0.2161  0.2166  0.6091
   97SAPE  H12A 9646   3.693   1.929   6.724 -2.4157 -0.3792 -1.3384
   97SAPE  H12B 9647   3.656   2.019   6.877  0.8741  0.7925 -0.5706
   97SAPE   C11 9648   3.487   1.982   6.752 -0.3202  0.7755 -0.3555
   97SAPE  H11A 9649   3.451   1.897   6.690  1.4113  0.4718 -1.0184
   97SAPE  H11B 9650   3.510   2.063   6.679  2.6161  1.0128  0.6844
   97SAPE     P 9651   3.370   2.162   6.897 -0.1822 -0.0858 -0.2810
   97SAPE   O13 9652   3.288   2.173   7.022  0.3977 -0.3646  0.4767
   97SAPE   O14 9653   3.501   2.228   6.896 -0.3089  0.5258  0.3177
   97SAPE   O12 9654   3.387   2.014   6.842  0.6138  0.3317 -0.6530
   97SAPE   O11 9655   3.291   2.231   6.777 -0.0530  0.3853 -0.0942
   97SAPE    C1 9656   3.177   2.167   6.731  0.3850 -0.1624  0.7242
   97SAPE    HA 9657   3.150   2.077   6.790 -0.1420  0.2559  1.1320
   97SAPE    HB 9658   3.094   2.240   6.733  0.8675  0.3835  1.8500
   97SAPE    C2 9659   3.187   2.134   6.581  0.1023  0.3822 -0.0285
   97SAPE    HS 9660   3.272   2.064   6.591 -1.7482 -2.1214 -0.7287
   97SAPE   O21 9661   3.210   2.251   6.504 -0.0981  0.1159 -0.1376
   97SAPE   C21 9662   3.322   2.250   6.441 -0.1332 -1.3268 -0.2834
   97SAPE   O22 9663   3.392   2.153   6.413  0.0811  0.1348  0.5832
   97SAPE   C22 9664   3.349   2.391   6.398 -0.7218  0.8520  0.1907
   97SAPE   H2R 9665   3.275   2.456   6.449 -1.6978 -1.9941  2.7582
   97SAPE   H2S 9666   3.450   2.424   6.429 -0.3378  0.6244 -0.7913
   97SAPE    C3 9667   3.068   2.049   6.534  0.7334  0.0550 -0.4575
   97SAPE    HX 9668   2.977   2.110   6.552  1.3615  1.1834 -0.9926
   97SAPE    HY 9669   3.055   1.966   6.606 -0.1570  1.6693  1.3369
   97SAPE   O31 9670   3.080   2.014   6.394 -0.0334 -0.3791  0.2964
   97SAPE   C31 9671   3.151   1.902   6.371  0.4420  0.1653 -0.4248
   97SAPE   O32 9672   3.189   1.830   6.460 -0.1783  0.5149  0.5236
   97SAPE   C32 9673   3.175   1.877   6.222 -0.2237 -0.4272  0.5582
   97SAPE   H2X 9674   3.281   1.858   6.196 -1.0465 -2.8346 -1.5014
   97SAPE   H2Y 9675   3.143   1.968   6.166  1.1112 -0.2090  0.1178
   97SAPE   C23 9676   3.342   2.405   6.239  0.3595  0.0358  0.1259
   97SAPE   H3R 9677   3.235   2.391   6.213  0.6224 -0.0954 -0.9247
   97SAPE   H3S 9678   3.395   2.318   6.196  1.3482  0.1583  1.0556
   97SAPE   C24 9679   3.392   2.533   6.176 -0.1676 -0.4597  0.5340
   97SAPE   H4R 9680   3.356   2.619   6.236  0.0221  1.0721 -1.4420
   97SAPE   H4S 9681   3.352   2.551   6.073 -0.4089 -1.8835  0.3618
   97SAPE   C25 9682   3.545   2.534   6.178 -0.6757 -0.2699  0.4587
   97SAPE   H5R 9683   3.587   2.552   6.278  2.2090  1.2094 -0.9078
   97SAPE   C26 9684   3.628   2.545   6.070  0.0255 -0.5500  0.0625
   97SAPE   H6R 9685   3.730   2.517   6.099  0.1029 -0.3605 -0.0304
   97SAPE   C27 9686   3.594   2.535   5.919 -0.9666  0.2978  0.0061
   97SAPE   H7R 9687   3.549   2.434   5.913  1.4505 -0.9562  1.1450
   97SAPE   H7S 9688   3.687   2.525   5.859 -1.3261  0.7373 -0.6284
   97SAPE   C28 9689   3.516   2.651   5.868 -0.3481 -0.1839  0.2443
   97SAPE   H8R 9690   3.508   2.729   5.945 -1.0895 -0.2922  0.2842
   97SAPE   C29 9691   3.448   2.646   5.755  0.3656 -0.4476  0.0914
   97SAPE   H9R 9692   3.380   2.731   5.736  1.2218  1.4758  4.4248
   97SAPE  C210 9693   3.440   2.522   5.659 -0.1718 -0.7998 -0.3152
   97SAPE  H10R 9694   3.416   2.433   5.720 -0.1582 -0.9242 -0.4918
   97SAPE  H10S 9695   3.532   2.501   5.601 -0.0981  0.4339 -0.6912
   97SAPE  C211 9696   3.333   2.560   5.554 -0.7408 -0.6162 -0.1520
   97SAPE  H11R 9697   3.236   2.510   5.569 -0.7287 -0.2956  1.0894
   97SAPE  C212 9698   3.352   2.636   5.447 -0.1448  0.3922 -0.6173
   97SAPE  H12R 9699   3.254   2.659   5.404 -1.0614  1.7160  1.9641
   97SAPE  C213 9700   3.483   2.695   5.398  0.0031 -0.7270  0.3074
   97SAPE  H13R 9701   3.569   2.666   5.463  1.6373  0.6154 -1.1637
   97SAPE  H13S 9702   3.472   2.804   5.411 -2.0816 -0.5475 -2.2319
   97SAPE  C214 9703   3.525   2.678   5.260 -0.2474 -0.0192  0.3010
   97SAPE  H14R 9704   3.610   2.611   5.241  1.4868  1.9352  0.8456
   97SAPE  C215 9705   3.480   2.751   5.152  0.4572  0.2501 -0.2103
   97SAPE  H15R 9706   3.517   2.724   5.052  2.6647  2.6546 -0.1614
   97SAPE  C216 9707   3.380   2.861   5.151 -0.6658 -0.0588  0.2029
   97SAPE  H16R 9708   3.424   2.958   5.119  0.7064 -0.4120  0.9864
   97SAPE  H16S 9709   3.355   2.891   5.255 -0.1466  0.4981  0.1721
   97SAPE  C217 9710   3.256   2.830   5.074  0.2699 -0.4675  0.0956
   97SAPE  H17R 9711   3.176   2.776   5.129 -0.3097 -0.2570 -0.5254
   97SAPE  H17S 9712   3.284   2.761   4.991 -2.0329 -1.9890  0.4963
   97SAPE  C218 9713   3.193   2.952   5.015  0.1208  0.0979 -0.0561
   97SAPE  H18R 9714   3.110   2.923   4.946 -1.1731 -0.2609  1.5919
   97SAPE  H18S 9715   3.260   3.014   4.952  0.1307  0.1348 -0.0096
   97SAPE  C219 9716   3.138   3.051   5.122  0.0321 -0.3718  0.1941
   97SAPE  H19R 9717   3.224   3.052   5.191  0.8217 -0.9935 -0.7461
   97SAPE  H19S 9718   3.051   3.010   5.179 -1.8396  1.3167 -1.3056
   97SAPE  C220 9719   3.108   3.196   5.075  0.5045  1.3200  0.1355
   97SAPE  H20R 9720   3.062   3.195   4.974 -0.2630  2.1049  0.4635
   97SAPE  H20S 9721   3.197   3.255   5.045  1.1195  1.1967  1.6312
   97SAPE  H20T 9722   3.041   3.249   5.147 -2.2108 -1.6481  0.0625
   97SAPE   C33 9723   3.094   1.753   6.175  0.8311  0.6683  0.6949
   97SAPE   H3X 9724   2.996   1.740   6.224 -0.3811  2.3461 -1.1162
   97SAPE   H3Y 9725   3.153   1.662   6.197 -0.2479 -0.1237  0.3570
   97SAPE   C34 9726   3.067   1.758   6.023 -0.2053  0.0877 -0.3250
   97SAPE   H4X 9727   3.003   1.842   5.989 -0.6487 -0.8368 -1.8940
   97SAPE   H4Y 9728   3.011   1.668   5.990 -1.2507  0.4641  0.3634
   97SAPE   C35 9729   3.193   1.771   5.940  0.2637 -0.2236 -0.2357
   97SAPE   H5X 9730   3.274   1.702   5.970  1.2099  1.5301  1.4535
   97SAPE   H5Y 9731   3.239   1.872   5.943  2.9594 -1.3967  1.6104
   97SAPE   C36 9732   3.170   1.735   5.792 -0.0839 -0.3848 -0.0811
   97SAPE   H6X 9733   3.079   1.789   5.757 -0.6792 -0.8410  0.7282
   97SAPE   H6Y 9734   3.144   1.627   5.789 -0.5009 -0.2899  0.1504
   97SAPE   C37 9735   3.291   1.770   5.705  0.7559 -0.2789 -0.8753
   97SAPE   H7X 9736   3.290   1.690   5.629  0.2317 -1.6367  0.5196
   97SAPE   H7Y 9737   3.384   1.783   5.765  1.0814  0.6706 -1.5648
   97SAPE   C38 9738   3.280   1.910   5.648 -0.1069  0.4156  0.4034
   97SAPE   H8X 9739   3.292   1.988   5.726  0.5419  0.0666  0.6611
   97SAPE   H8Y 9740   3.175   1.922   5.612  0.4939  0.9536 -1.2692
   97SAPE   C39 9741   3.368   1.931   5.522  0.1906  0.4504  0.1530
   97SAPE   H9X 9742   3.474   1.898   5.525  0.7165  2.0501  0.1932
   97SAPE   H9Y 9743   3.374   2.039   5.497  0.7491  0.3060 -0.3710
   97SAPE  C310 9744   3.310   1.856   5.399  0.4692 -0.0423  0.5820
   97SAPE  H10X 9745   3.205   1.888   5.381  0.7834  0.3268 -0.7032
   97SAPE  H10Y 9746   3.311   1.746   5.419  0.3695  0.2029  2.0204
   97SAPE  C311 9747   3.377   1.893   5.263  0.3689 -0.0433  0.3801
   97SAPE  H11X 9748   3.484   1.866   5.263  0.6290  0.7014  3.0541
   97SAPE  H11Y 9749   3.369   2.001   5.237  0.3431 -0.4520 -1.5021
   97SAPE  C312 9750   3.285   1.824   5.155  0.4477  0.1909 -0.1480
   97SAPE  H12X 9751   3.179   1.847   5.179  0.6584  0.2352  0.7756
   97SAPE  H12Y 9752   3.289   1.714   5.172  1.7668  0.3097  0.4585
   97SAPE  C313 9753   3.310   1.857   5.010 -0.4416 -0.4557  0.1132
   97SAPE  H13X 9754   3.371   1.950   5.005  0.4303 -1.0815 -2.1955
   97SAPE  H13Y 9755   3.216   1.878   4.954  0.0884  0.9183 -0.3040
   97SAPE  C314 9756   3.406   1.764   4.936  0.0454  0.8941  0.1003
   97SAPE  H14X 9757   3.371   1.659   4.943  0.4181  0.8635  2.0553
   97SAPE  H14Y 9758   3.502   1.784   4.987  0.2620  1.3755 -0.4813
   97SAPE  C315 9759   3.425   1.796   4.787 -0.2230 -0.1892  0.2547
   97SAPE  H15X 9760   3.482   1.891   4.775  0.8565 -1.1703 -3.6883
   97SAPE  H15Y 9761   3.326   1.802   4.737 -0.6341 -1.2731  0.9038
   97SAPE  C316 9762   3.507   1.691   4.711  0.3980 -0.6496 -0.3799
   97SAPE  H16X 9763   3.453   1.595   4.696  1.2048 -0.7745 -3.2111
   97SAPE  H16Y 9764   3.597   1.675   4.773 -0.3709  0.5708  1.1282
   97SAPE  C317 9765   3.536   1.727   4.562 -0.1246  0.1599  0.5035
   97SAPE  H17X 9766   3.602   1.817   4.564 -0.7200  0.6514 -0.9280
   97SAPE  H17Y 9767   3.437   1.752   4.520 -1.1564 -2.0204  1.4983
   97SAPE  C318 9768   3.597   1.611   4.480 -0.0015 -0.1395  0.1370
   97SAPE  H18X 9769   3.520   1.533   4.460  0.9205 -1.0209 -0.0776
   97SAPE  H18Y 9770   3.690   1.571   4.527  0.7286  0.3681 -0.8296
   97SAPE  H18Z 9771   3.630   1.645   4.380 -1.6779  2.1113  0.2980
   98SAPE     N 9772   4.113   5.166   6.274  0.1840  0.0934  0.2697
   98SAPE   HN1 9773   4.029   5.140   6.329  0.1928  0.5354  0.4949
   98SAPE   HN2 9774   4.157   5.243   6.328 -0.3021  0.3443  0.3111
   98SAPE   HN3 9775   4.092   5.213   6.183 -0.4744  0.9829  0.8737
   98SAPE   C12 9776   4.226   5.060   6.277  0.1300 -0.2931  0.2729
   98SAPE  H12A 9777   4.244   5.040   6.170  0.3961  0.8646  0.0855
   98SAPE  H12B 9778   4.183   4.964   6.313  3.2070 -1.4784  1.1506
   98SAPE   C11 9779   4.353   5.120   6.342 -0.0261 -0.1417 -0.0086
   98SAPE  H11A 9780   4.401   5.185   6.266  2.3732 -2.1540 -0.3203
   98SAPE  H11B 9781   4.431   5.042   6.353 -0.5275 -0.8064 -1.0326
   98SAPE     P 9782   4.305   5.340   6.487  0.1050  0.1740  0.1155
   98SAPE   O13 9783   4.155   5.355   6.460 -0.4134  0.2526  0.2562
   98SAPE   O14 9784   4.357   5.402   6.610 -0.0374 -0.2461 -0.2534
   98SAPE   O12 9785   4.326   5.187   6.470  0.6277 -0.4779 -0.1750
   98SAPE   O11 9786   4.373   5.404   6.363  0.1129 -0.2441 -0.0416
   98SAPE    C1 9787   4.354   5.535   6.304  0.5003  0.0675  0.0476
   98SAPE    HA 9788   4.295   5.591   6.380 -1.4637 -2.7516  0.7966
   98SAPE    HB 9789   4.456   5.578   6.291 -0.1773  1.6610 -0.1221
   98SAPE    C2 9790   4.284   5.520   6.167  0.3856  0.2749 -0.2116
   98SAPE    HS 9791   4.192   5.459   6.180  1.8051 -1.3120  3.6531
   98SAPE   O21 9792   4.381   5.478   6.074  0.3330  0.2505  0.1422
   98SAPE   C21 9793   4.370   5.351   6.035 -0.0085 -0.3381  0.0134
   98SAPE   O22 9794   4.278   5.281   6.075 -0.4982 -0.2883 -0.6112
   98SAPE   C22 9795   4.473   5.311   5.929  0.0070  0.0450 -0.0638
   98SAPE   H2R 9796   4.468   5.399   5.861  0.5749 -0.0110 -0.1875
   98SAPE   H2S 9797   4.576   5.293   5.967  1.1339 -1.0363 -3.2779
   98SAPE    C3 9798   4.245   5.664   6.117 -0.3690 -0.4343 -0.1978
   98SAPE    HX 9799   4.345   5.713   6.114 -0.1836 -0.8457 -2.5458
   98SAPE    HY 9800   4.173   5.721   6.178 -1.3315 -1.7069 -0.1162
   98SAPE   O31 9801   4.201   5.655   5.975 -0.2135  0.7534  0.6027
   98SAPE   C31 9802   4.092   5.595   5.947 -0.3669  0.1198  0.3763
   98SAPE   O32 9803   4.016   5.554   6.034 -0.8777  0.3014  0.4737
   98SAPE   C32 9804   4.063   5.600   5.800 -0.7146 -0.5449  0.7817
   98SAPE   H2X 9805   4.141   5.662   5.751 -1.5643 -0.5914 -0.6897
   98SAPE   H2Y 9806   3.970   5.657   5.778  0.5889  1.0464 -0.9529
   98SAPE   C23 9807   4.442   5.188   5.842  0.1647 -0.4061  0.3915
   98SAPE   H3R 9808   4.334   5.184   5.820  0.2298 -0.8881  0.1206
   98SAPE   H3S 9809   4.453   5.102   5.912 -1.1434  0.2799  1.4786
   98SAPE   C24 9810   4.521   5.182   5.713 -0.7222 -0.2982 -0.7076
   98SAPE   H4R 9811   4.508   5.275   5.652 -2.5106  0.4602  0.7534
   98SAPE   H4S 9812   4.486   5.108   5.638 -0.7031 -0.3598 -0.6552
   98SAPE   C25 9813   4.669   5.148   5.747 -0.0816 -0.0231  0.6173
   98SAPE   H5R 9814   4.702   5.185   5.845 -1.2488  0.5053  0.8288
   98SAPE   C26 9815   4.757   5.085   5.669 -0.1310  0.6652 -0.3430
   98SAPE   H6R 9816   4.859   5.073   5.710  0.3306  0.8789 -1.4062
   98SAPE   C27 9817   4.742   5.013   5.534  0.0208 -0.4929 -0.6161
   98SAPE   H7R 9818   4.633   5.005   5.513 -0.3635  1.8386  0.2009
   98SAPE   H7S 9819   4.774   4.907   5.547 -0.0692 -0.5702 -1.0176
   98SAPE   C28 9820   4.808   5.070   5.411  0.1730 -0.0707  0.7174
   98SAPE   H8R 9821   4.901   5.126   5.428 -0.5682  1.2125  0.7031
   98SAPE   C29 9822   4.764   5.046   5.288  0.5400  0.6094 -0.6184
   98SAPE   H9R 9823   4.815   5.094   5.203 -0.8231  1.0186 -1.2410
   98SAPE  C210 9824   4.644   4.960   5.255 -0.0778  0.1203  0.1366
   98SAPE  H10R 9825   4.567   5.034   5.225 -0.4780 -0.3126  0.0724
   98SAPE  H10S 9826   4.598   4.901   5.337 -0.0874 -0.0872 -0.0173
   98SAPE  C211 9827   4.657   4.857   5.144 -0.1948 -0.0104  0.1779
   98SAPE  H11R 9828   4.711   4.765   5.168 -0.2454 -0.0639  0.0892
   98SAPE  C212 9829   4.590   4.856   5.027  0.1201  0.3848 -0.5624
   98SAPE  H12R 9830   4.611   4.766   4.967 -1.1824 -1.5275  1.6831
   98SAPE  C213 9831   4.503   4.967   4.968 -0.4994  0.3027  0.2460
   98SAPE  H13R 9832   4.450   5.024   5.047  1.2218  2.0943  0.1750
   98SAPE  H13S 9833   4.438   4.910   4.897  2.5262 -1.1941 -1.5352
   98SAPE  C214 9834   4.591   5.072   4.896  0.1081  0.0079  0.0045
   98SAPE  H14R 9835   4.693   5.086   4.935  0.3880  2.3334 -1.3725
   98SAPE  C215 9836   4.553   5.152   4.795 -0.3851 -0.0832  0.0356
   98SAPE  H15R 9837   4.625   5.222   4.751 -0.6383 -0.5083 -1.0982
   98SAPE  C216 9838   4.415   5.157   4.727 -0.3311  0.2608  0.1300
   98SAPE  H16R 9839   4.367   5.258   4.733 -1.8267 -0.5003  1.8468
   98SAPE  H16S 9840   4.347   5.106   4.798  0.2840  1.4728  1.6518
   98SAPE  C217 9841   4.396   5.108   4.578  0.6338 -0.0510  0.6979
   98SAPE  H17R 9842   4.450   5.177   4.510 -0.5166  1.0998  0.9113
   98SAPE  H17S 9843   4.286   5.110   4.558  0.7972 -1.7845 -0.6084
   98SAPE  C218 9844   4.413   4.954   4.561  0.4741 -0.0744 -0.2557
   98SAPE  H18R 9845   4.348   4.904   4.636 -0.4408  3.3436  1.4642
   98SAPE  H18S 9846   4.514   4.929   4.598  0.0989 -1.4055 -0.0865
   98SAPE  C219 9847   4.402   4.897   4.423  0.1774  0.3399  0.2993
   98SAPE  H19R 9848   4.471   4.951   4.356 -1.0471  1.8603  0.2054
   98SAPE  H19S 9849   4.307   4.913   4.368  0.7532  2.2576 -0.2087
   98SAPE  C220 9850   4.425   4.741   4.421 -0.4644 -0.3969  0.4231
   98SAPE  H20R 9851   4.402   4.694   4.323  0.1594  0.0230  0.0692
   98SAPE  H20S 9852   4.352   4.690   4.487  2.0635 -0.7691  3.1312
   98SAPE  H20T 9853   4.527   4.717   4.456 -0.7727  1.2814  2.7843
   98SAPE   C33 9854   4.049   5.462   5.729 -0.4726  0.3981  0.3324
   98SAPE   H3X 9855   3.962   5.415   5.779  0.0300 -0.1211  0.7278
   98SAPE   H3Y 9856   4.144   5.405   5.741  1.0508  2.6417 -0.2493
   98SAPE   C34 9857   4.032   5.458   5.577 -0.3400  0.6298  0.1902
   98SAPE   H4X 9858   4.087   5.547   5.540  0.8057  0.9938  2.6246
   98SAPE   H4Y 9859   3.922   5.469   5.560 -0.1479  1.2797 -0.6728
   98SAPE   C35 9860   4.067   5.325   5.508 -0.6461  0.1457 -0.5594
   98SAPE   H5X 9861   4.011   5.323   5.412 -1.7944 -2.9997  0.0677
   98SAPE   H5Y 9862   4.032   5.240   5.569  1.9725 -0.8052 -0.2255
   98SAPE   C36 9863   4.216   5.302   5.493  0.3594 -0.0596 -0.7923
   98SAPE   H6X 9864   4.237   5.205   5.442  4.9688  0.6684 -0.7033
   98SAPE   H6Y 9865   4.261   5.280   5.592  0.9433  0.7760 -0.8628
   98SAPE   C37 9866   4.296   5.413   5.417 -0.2651 -0.0157 -0.0176
   98SAPE   H7X 9867   4.344   5.472   5.499 -1.3762 -2.7163  2.7508
   98SAPE   H7Y 9868   4.231   5.477   5.354 -0.5871 -1.2337 -0.9404
   98SAPE   C38 9869   4.398   5.353   5.312  0.1010  0.1450  0.1608
   98SAPE   H8X 9870   4.461   5.277   5.362 -1.1109 -0.8220  0.2701
   98SAPE   H8Y 9871   4.455   5.447   5.294 -1.0451  0.9173  0.3910
   98SAPE   C39 9872   4.344   5.297   5.183  0.2375 -0.3130 -0.5341
   98SAPE   H9X 9873   4.267   5.219   5.205  0.6245 -0.1415  1.6886
   98SAPE   H9Y 9874   4.425   5.251   5.123 -1.7291 -1.5600 -2.4122
   98SAPE  C310 9875   4.278   5.401   5.093  0.3356 -0.3351  0.4278
   98SAPE  H10X 9876   4.352   5.482   5.075  1.2995 -1.7013 -2.1395
   98SAPE  H10Y 9877   4.193   5.450   5.145 -0.4210 -0.9099 -0.2493
   98SAPE  C311 9878   4.236   5.341   4.965 -0.4025  0.1143 -1.0728
   98SAPE  H11X 9879   4.278   5.239   4.960 -0.6273 -0.2205  2.1739
   98SAPE  H11Y 9880   4.257   5.402   4.874 -2.2834 -1.5717 -2.7369
   98SAPE  C312 9881   4.085   5.320   4.977 -0.0282  0.8625 -0.2327
   98SAPE  H12X 9882   4.033   5.418   4.967 -1.7609  0.0780  0.5448
   98SAPE  H12Y 9883   4.066   5.265   5.072  0.3825 -0.4118 -0.8628
   98SAPE  C313 9884   4.029   5.217   4.880  0.3151  0.2067  0.4331
   98SAPE  H13X 9885   3.926   5.179   4.898 -1.0488  2.3273 -2.1812
   98SAPE  H13Y 9886   4.103   5.134   4.881 -0.6360 -0.6583  1.6307
   98SAPE  C314 9887   4.028   5.272   4.730 -0.0476 -0.2915 -0.2826
   98SAPE  H14X 9888   4.137   5.274   4.707  0.0807  3.1002  0.1106
   98SAPE  H14Y 9889   3.988   5.375   4.743 -1.7798 -1.1436  1.6311
   98SAPE  C315 9890   3.937   5.197   4.634 -0.0757  0.7822 -0.2771
   98SAPE  H15X 9891   3.888   5.117   4.693 -0.9679  2.0620  0.7758
   98SAPE  H15Y 9892   4.001   5.138   4.565 -2.1947 -1.4907 -0.4141
   98SAPE  C316 9893   3.853   5.280   4.551  0.8609 -0.7239 -0.3220
   98SAPE  H16X 9894   3.897   5.361   4.489 -2.1208  0.1914 -1.4246
   98SAPE  H16Y 9895   3.789   5.335   4.623  0.0360  0.6040 -1.9976
   98SAPE  C317 9896   3.762   5.204   4.447  0.2745 -0.4052 -0.3765
   98SAPE  H17X 9897   3.687   5.153   4.510  1.2937 -1.7506 -0.1898
   98SAPE  H17Y 9898   3.811   5.120   4.393 -0.3487 -2.6063  2.2787
   98SAPE  C318 9899   3.696   5.292   4.350  0.9390 -1.0724  0.5539
   98SAPE  H18X 9900   3.774   5.355   4.302  0.9707 -0.4932  1.3341
   98SAPE  H18Y 9901   3.632   5.367   4.402 -0.4119 -0.8631 -1.3159
   98SAPE  H18Z 9902   3.634   5.245   4.271  1.1411  1.1622 -1.0252
   99SAPE     N 9903   1.900   1.012   6.952 -0.0570  0.3030  0.2143
   99SAPE   HN1 9904   1.820   1.079   6.953 -0.3723 -0.0293 -0.8884
   99SAPE   HN2 9905   1.865   0.914   6.946 -0.3087  0.2705  1.7906
   99SAPE   HN3 9906   1.949   1.018   7.043 -2.7364 -1.0993  1.8888
   99SAPE   C12 9907   1.975   1.043   6.825  0.8808  0.7821  0.8520
   99SAPE  H12A 9908   1.909   1.028   6.737  2.0016  1.1731 -0.0683
   99SAPE  H12B 9909   2.055   0.968   6.811  0.3433  0.2217  0.7409
   99SAPE   C11 9910   2.019   1.190   6.817  0.1276 -0.5966 -0.1585
   99SAPE  H11A 9911   2.078   1.199   6.724  1.7649  1.1355  0.9674
   99SAPE  H11B 9912   2.093   1.206   6.899  2.4913 -2.5563 -1.7534
   99SAPE     P 9913   1.939   1.433   6.821  0.3305 -0.2499 -0.1442
   99SAPE   O13 9914   1.831   1.500   6.750  0.2877  0.0205  0.2573
   99SAPE   O14 9915   1.935   1.458   6.970 -0.0786  0.1713  0.2842
   99SAPE   O12 9916   1.909   1.277   6.813  0.0582 -0.1719 -0.6784
   99SAPE   O11 9917   2.076   1.463   6.753  0.2999 -0.5527 -0.5836
   99SAPE    C1 9918   2.099   1.551   6.648  0.5737 -0.2473  0.0697
   99SAPE    HA 9919   2.012   1.617   6.626  1.5359  0.2349 -2.6235
   99SAPE    HB 9920   2.182   1.618   6.680  0.2600 -0.7648  2.1216
   99SAPE    C2 9921   2.133   1.465   6.518 -0.7363 -0.1581 -1.0764
   99SAPE    HS 9922   2.151   1.548   6.446  0.1385  0.6207  0.0059
   99SAPE   O21 9923   2.014   1.397   6.485  0.6333 -0.2010 -0.1769
   99SAPE   C21 9924   1.923   1.465   6.426 -0.3340 -0.2690 -0.0563
   99SAPE   O22 9925   1.931   1.583   6.390 -0.4490  0.3394  0.4226
   99SAPE   C22 9926   1.804   1.384   6.390  0.3526  0.6930 -0.2644
   99SAPE   H2R 9927   1.828   1.276   6.395 -1.1301  0.2538 -2.0093
   99SAPE   H2S 9928   1.720   1.403   6.460 -0.8237 -0.0918 -1.4347
   99SAPE    C3 9929   2.246   1.367   6.536 -0.9965  0.7463  0.2382
   99SAPE    HX 9930   2.207   1.276   6.587 -1.5356  1.2598  0.7495
   99SAPE    HY 9931   2.320   1.404   6.610  0.6050 -2.4839  0.4222
   99SAPE   O31 9932   2.306   1.318   6.410  0.7560 -0.0344  0.1206
   99SAPE   C31 9933   2.392   1.402   6.362  0.1447 -0.3359 -0.7897
   99SAPE   O32 9934   2.419   1.511   6.409  0.3691  0.1559  0.0786
   99SAPE   C32 9935   2.439   1.363   6.221 -0.5760  0.7140  0.0472
   99SAPE   H2X 9936   2.463   1.255   6.232 -1.3337  0.5135 -0.1984
   99SAPE   H2Y 9937   2.540   1.401   6.196  0.1901 -1.0249  0.3575
   99SAPE   C23 9938   1.748   1.404   6.250 -0.9595 -0.0211  0.2294
   99SAPE   H3R 9939   1.818   1.361   6.176 -1.9008  0.2252 -0.8328
   99SAPE   H3S 9940   1.740   1.514   6.233 -2.5495 -0.0980  0.3616
   99SAPE   C24 9941   1.614   1.346   6.229 -0.3934  0.1315  0.9986
   99SAPE   H4R 9942   1.592   1.333   6.121  0.7913 -1.2033  0.8971
   99SAPE   H4S 9943   1.532   1.416   6.258 -0.9727 -0.0460 -0.1981
   99SAPE   C25 9944   1.584   1.212   6.288  0.7946 -0.1055 -0.1102
   99SAPE   H5R 9945   1.535   1.222   6.386  0.7431 -0.3942 -0.1054
   99SAPE   C26 9946   1.608   1.092   6.240  0.5391 -0.5619  0.1307
   99SAPE   H6R 9947   1.562   1.002   6.283 -1.8717 -0.1679 -1.4208
   99SAPE   C27 9948   1.687   1.068   6.114 -0.0621  0.6995 -0.2708
   99SAPE   H7R 9949   1.779   1.006   6.122  0.4511  1.4198 -0.4917
   99SAPE   H7S 9950   1.718   1.164   6.066  2.1624 -0.8138 -2.0781
   99SAPE   C28 9951   1.604   0.984   6.024  0.4197  0.4533  0.0829
   99SAPE   H8R 9952   1.507   0.943   6.056 -0.0287  0.4742 -1.1658
   99SAPE   C29 9953   1.626   0.969   5.892  0.7685  0.4263 -0.0941
   99SAPE   H9R 9954   1.561   0.905   5.832  1.3620 -0.8289  0.5748
   99SAPE  C210 9955   1.734   1.038   5.823  0.0566  0.0696  0.3307
   99SAPE  H10R 9956   1.805   0.961   5.788 -0.1234 -1.2687  2.6732
   99SAPE  H10S 9957   1.798   1.096   5.893 -0.1414  0.8502 -0.1227
   99SAPE  C211 9958   1.684   1.139   5.721  0.1137  1.1292  0.4522
   99SAPE  H11R 9959   1.665   1.237   5.766  1.1633  1.5284  0.0579
   99SAPE  C212 9960   1.666   1.103   5.591 -0.4078  0.4272  0.0786
   99SAPE  H12R 9961   1.625   1.172   5.515 -0.8309 -0.8265 -0.8667
   99SAPE  C213 9962   1.688   0.966   5.526  0.2171 -0.2375 -0.3659
   99SAPE  H13R 9963   1.609   0.956   5.449 -0.6445  0.9163  0.3397
   99SAPE  H13S 9964   1.679   0.878   5.593  0.1253  1.1530  1.5377
   99SAPE  C214 9965   1.829   0.961   5.471 -0.8892  0.4647 -0.1312
   99SAPE  H14R 9966   1.907   0.929   5.541 -2.1247 -2.3927  0.0528
   99SAPE  C215 9967   1.853   1.001   5.347  0.3581 -0.4308 -0.6476
   99SAPE  H15R 9968   1.956   0.985   5.312  0.0456 -0.4025 -1.6192
   99SAPE  C216 9969   1.748   1.052   5.243  0.3793  0.3280  0.2655
   99SAPE  H16R 9970   1.745   1.161   5.221  0.4514  0.0721 -1.0723
   99SAPE  H16S 9971   1.642   1.018   5.249 -0.1827  0.1753 -5.4653
   99SAPE  C217 9972   1.781   0.991   5.105 -0.0138 -0.3923  0.5725
   99SAPE  H17R 9973   1.782   0.881   5.121 -3.0337 -0.8495 -1.5963
   99SAPE  H17S 9974   1.887   1.018   5.085 -0.5470  0.6948 -0.9545
   99SAPE  C218 9975   1.673   1.016   4.996 -0.1899 -0.0071 -0.0764
   99SAPE  H18R 9976   1.666   1.126   4.987  0.2087  0.0034 -0.3135
   99SAPE  H18S 9977   1.571   0.978   5.018 -0.5813  1.2585  0.3467
   99SAPE  C219 9978   1.721   0.970   4.855  0.3754 -0.3076 -0.0375
   99SAPE  H19R 9979   1.801   1.038   4.819 -0.4298  0.8559  0.3022
   99SAPE  H19S 9980   1.633   0.993   4.790  0.1733  1.0266  0.6749
   99SAPE  C220 9981   1.769   0.822   4.833 -0.9305 -0.0845  1.0122
   99SAPE  H20R 9982   1.810   0.807   4.731 -0.5736 -0.8098  1.2522
   99SAPE  H20S 9983   1.688   0.747   4.847 -1.8793  0.8241  0.5161
   99SAPE  H20T 9984   1.848   0.791   4.905 -1.3325 -1.2576  0.9681
   99SAPE   C33 9985   2.341   1.385   6.112 -0.0731 -0.3946  0.0333
   99SAPE   H3X 9986   2.273   1.298   6.099  0.7856 -1.0600 -0.0706
   99SAPE   H3Y 9987   2.403   1.386   6.020 -0.9709  0.4096 -0.5878
   99SAPE   C34 9988   2.267   1.518   6.118 -0.8719  0.1993  0.2952
   99SAPE   H4X 9989   2.340   1.602   6.128 -0.6947  0.1636 -0.6262
   99SAPE   H4Y 9990   2.195   1.524   6.202 -2.3350 -0.6415 -0.8552
   99SAPE   C35 9991   2.178   1.562   6.000 -0.4981  0.0744  0.6122
   99SAPE   H5X 9992   2.164   1.670   6.021  0.5005  0.3880 -0.2562
   99SAPE   H5Y 9993   2.081   1.508   6.006 -2.8044  3.7403 -0.0812
   99SAPE   C36 9994   2.248   1.557   5.855 -0.5055 -0.0630 -0.1328
   99SAPE   H6X 9995   2.264   1.453   5.818  0.2549  0.3904 -1.1394
   99SAPE   H6Y 9996   2.349   1.603   5.868  0.5579 -2.0464 -0.8614
   99SAPE   C37 9997   2.168   1.647   5.760 -0.5707 -0.0613 -0.3065
   99SAPE   H7X 9998   2.172   1.754   5.787  1.2784  0.2290 -1.5909
   99SAPE   H7Y 9999   2.066   1.603   5.771 -0.5022 -0.1869 -0.1592
   99SAPE   C3810000   2.215   1.636   5.615  0.4616  0.1171 -0.1483
   99SAPE   H8X10001   2.144   1.685   5.545  2.3438  0.4503 -1.9057
   99SAPE   H8Y10002   2.220   1.532   5.576  2.1166  0.5574 -1.2273
   99SAPE   C3910003   2.354   1.698   5.601  0.5047  0.9064  0.7998
   99SAPE   H9X10004   2.435   1.628   5.629  0.8371  0.0938 -1.8832
   99SAPE   H9Y10005   2.358   1.779   5.677  1.9925  0.6728  0.9895
   99SAPE  C31010006   2.378   1.755   5.455 -0.0432 -0.2681 -0.5280
   99SAPE  H10X10007   2.467   1.822   5.454  1.4267 -2.1333 -1.0776
   99SAPE  H10Y10008   2.290   1.810   5.417 -0.4978 -0.2109  0.5547
   99SAPE  C31110009   2.409   1.643   5.347  0.0446  0.3225  0.2243
   99SAPE  H11X10010   2.309   1.607   5.315 -0.4295  2.3265 -0.7237
   99SAPE  H11Y10011   2.458   1.557   5.397 -1.1577 -0.1905  0.5736
   99SAPE  C31210012   2.495   1.688   5.220  0.0547  0.2799  0.2264
   99SAPE  H12X10013   2.503   1.595   5.159  1.2987 -0.1667  1.0211
   99SAPE  H12Y10014   2.602   1.700   5.247  0.1795  0.4550 -0.3590
   99SAPE  C31310015   2.429   1.807   5.149  0.3566 -0.3310 -0.2453
   99SAPE  H13X10016   2.461   1.897   5.206 -1.7065 -0.4700  1.2467
   99SAPE  H13Y10017   2.319   1.806   5.165  0.0181  1.2074 -2.0982
   99SAPE  C31410018   2.456   1.824   4.999  0.1663  0.2764  0.1167
   99SAPE  H14X10019   2.416   1.735   4.946 -0.4502 -0.5841  1.9330
   99SAPE  H14Y10020   2.565   1.826   4.979 -0.0903  1.5377 -1.2896
   99SAPE  C31510021   2.396   1.946   4.942 -0.4092 -1.0864  0.4904
   99SAPE  H15X10022   2.456   2.032   4.978 -0.6084 -0.8199  0.1845
   99SAPE  H15Y10023   2.290   1.951   4.973 -0.1165 -0.1219  1.4090
   99SAPE  C31610024   2.379   1.940   4.779 -0.7599 -0.4113 -0.4808
   99SAPE  H16X10025   2.339   2.040   4.753 -0.2286  0.1712  0.8302
   99SAPE  H16Y10026   2.318   1.850   4.754 -0.9663 -0.2239 -0.6487
   99SAPE  C31710027   2.508   1.926   4.703  0.1917  0.1835 -0.0802
   99SAPE  H17X10028   2.494   1.935   4.593  3.3227  1.3708 -0.4767
   99SAPE  H17Y10029   2.547   1.824   4.724 -0.1967 -0.0833 -0.5973
   99SAPE  C31810030   2.618   2.032   4.725  0.5763  0.1707 -1.0571
   99SAPE  H18X10031   2.629   2.041   4.835 -1.0823  3.5962 -1.0334
   99SAPE  H18Y10032   2.584   2.133   4.692  1.2122  0.3799 -1.0828
   99SAPE  H18Z10033   2.713   2.004   4.675  1.9218  1.0300  0.9161
  100SAPE     N10034   1.287   6.284   6.455 -0.1116  0.2054 -0.0043
  100SAPE   HN110035   1.247   6.379   6.439  1.4991  0.8220 -0.5716
  100SAPE   HN210036   1.210   6.216   6.471  1.0917 -1.1742  0.1359
  100SAPE   HN310037   1.348   6.297   6.537  0.9465  1.7452 -0.9795
  100SAPE   C1210038   1.367   6.252   6.336 -0.3353  0.1794 -1.2034
  100SAPE  H12A10039   1.299   6.239   6.249  0.4473 -1.5495 -1.6024
  100SAPE  H12B10040   1.406   6.148   6.347 -4.4666 -1.4846 -0.0763
  100SAPE   C1110041   1.487   6.343   6.313 -0.4584  0.6694 -0.4867
  100SAPE  H11A10042   1.445   6.444   6.294  0.5511  1.2000  0.0466
  100SAPE  H11B10043   1.540   6.317   6.220 -0.9876 -1.1005 -0.3253
  100SAPE     P10044   1.598   6.445   6.534  0.1319 -0.3953  0.0050
  100SAPE   O1310045   1.476   6.423   6.614 -0.8228  0.4655  1.0619
  100SAPE   O1410046   1.727   6.447   6.605 -0.3314 -0.0873 -0.6569
  100SAPE   O1210047   1.592   6.340   6.418  0.0983 -0.6123  0.1203
  100SAPE   O1110048   1.586   6.588   6.467 -0.1282  0.1459 -0.3197
  100SAPE    C110049   1.699   6.661   6.422 -0.0118 -0.2627 -0.1290
  100SAPE    HA10050   1.698   6.767   6.458  2.6972 -0.9190  2.1880
  100SAPE    HB10051   1.794   6.613   6.451 -0.0167 -1.1304 -1.4885
  100SAPE    C210052   1.710   6.665   6.269 -0.5558 -0.0318 -0.9523
  100SAPE    HS10053   1.762   6.759   6.239  0.8645 -1.1124 -2.0312
  100SAPE   O2110054   1.581   6.660   6.204  0.1844  0.8316 -0.1318
  100SAPE   C2110055   1.492   6.752   6.238  0.4590  0.2563  0.2402
  100SAPE   O2210056   1.506   6.843   6.316  0.0462 -0.5458  0.0725
  100SAPE   C2210057   1.369   6.733   6.149 -0.0350 -0.2432 -0.0035
  100SAPE   H2R10058   1.403   6.667   6.066 -2.1093 -0.7561 -0.5055
  100SAPE   H2S10059   1.288   6.689   6.212  0.9347 -1.3719  0.4785
  100SAPE    C310060   1.787   6.549   6.211 -0.3713 -0.3069 -0.1355
  100SAPE    HX10061   1.760   6.457   6.267  4.2198 -1.1524  1.1887
  100SAPE    HY10062   1.892   6.550   6.249 -0.1402 -1.3365 -0.7118
  100SAPE   O3110063   1.773   6.518   6.070 -0.4298  0.6334 -0.0277
  100SAPE   C3110064   1.862   6.574   5.989 -0.2637  0.0762 -0.7553
  100SAPE   O3210065   1.971   6.614   6.029 -0.0856  0.0470  0.4511
  100SAPE   C3210066   1.816   6.577   5.851 -0.9148  0.4590  0.0094
  100SAPE   H2X10067   1.791   6.474   5.815 -1.4336  0.6994 -0.3368
  100SAPE   H2Y10068   1.899   6.608   5.785 -0.3084 -1.0409  0.0268
  100SAPE   C2310069   1.316   6.871   6.086  0.0960 -0.1797 -0.6132
  100SAPE   H3R10070   1.300   6.954   6.158 -1.1577 -0.3583 -0.6639
  100SAPE   H3S10071   1.211   6.853   6.054 -0.1900 -1.5645  0.9528
  100SAPE   C2410072   1.390   6.918   5.960 -0.0216 -0.1958 -0.3423
  100SAPE   H4R10073   1.329   6.995   5.909 -0.9733 -1.6637 -1.5044
  100SAPE   H4S10074   1.394   6.825   5.899  0.3720 -1.0790  0.9729
  100SAPE   C2510075   1.531   6.963   5.990 -0.8947  0.1142  0.2798
  100SAPE   H5R10076   1.584   6.909   6.069 -0.5940  0.0971  0.0704
  100SAPE   C2610077   1.602   7.044   5.910 -0.2435  0.6214 -0.7425
  100SAPE   H6R10078   1.706   7.064   5.940 -0.5500  2.6538 -0.8903
  100SAPE   C2710079   1.570   7.100   5.780 -0.3844 -0.0980  0.3944
  100SAPE   H7R10080   1.569   7.211   5.783 -0.0755 -0.1156  1.6336
  100SAPE   H7S10081   1.474   7.060   5.742 -0.3474  1.4674 -1.4943
  100SAPE   C2810082   1.678   7.073   5.681  0.1810 -0.0372 -0.3055
  100SAPE   H8R10083   1.738   6.990   5.720 -2.8074 -1.4228  1.7052
  100SAPE   C2910084   1.686   7.122   5.552  0.2999 -0.4121 -0.1615
  100SAPE   H9R10085   1.772   7.103   5.486  0.5024  0.5318 -0.1815
  100SAPE  C21010086   1.606   7.234   5.487 -0.0086  0.0260 -0.3715
  100SAPE  H10R10087   1.514   7.249   5.548  0.6539 -0.8240  0.8699
  100SAPE  H10S10088   1.560   7.192   5.395  0.1341  0.1090 -0.4810
  100SAPE  C21110089   1.681   7.366   5.458  0.5369  0.4271 -0.4710
  100SAPE  H11R10090   1.665   7.436   5.541  1.7341  0.7437 -0.4780
  100SAPE  C21210091   1.756   7.402   5.354  0.1960  0.1685  0.4937
  100SAPE  H12R10092   1.794   7.505   5.356  1.7329 -0.3348  3.6637
  100SAPE  C21310093   1.810   7.312   5.246 -0.5886  0.2353  0.2677
  100SAPE  H13R10094   1.743   7.231   5.210 -1.1858  1.1845 -0.8487
  100SAPE  H13S10095   1.896   7.252   5.284 -1.2040  0.8152  2.7618
  100SAPE  C21410096   1.852   7.389   5.120 -0.3307  0.3093 -1.0449
  100SAPE  H14R10097   1.871   7.497   5.130  1.7131  0.0037 -1.2344
  100SAPE  C21510098   1.878   7.331   5.002 -0.6363 -0.3963 -0.4261
  100SAPE  H15R10099   1.911   7.394   4.919  0.3378 -0.0694  0.1982
  100SAPE  C21610100   1.859   7.187   4.967 -0.0777 -0.7383 -0.2254
  100SAPE  H16R10101   1.799   7.132   5.042  0.7320 -1.7327 -0.2794
  100SAPE  H16S10102   1.958   7.135   4.964  0.8354  0.9105 -0.0797
  100SAPE  C21710103   1.786   7.171   4.830 -0.0948  0.0288  0.4179
  100SAPE  H17R10104   1.735   7.263   4.796  0.5883 -0.2835 -1.5428
  100SAPE  H17S10105   1.706   7.094   4.837  1.3864 -1.5163  1.1495
  100SAPE  C21810106   1.895   7.143   4.728  0.2655  0.1999  0.7963
  100SAPE  H18R10107   1.954   7.057   4.766 -0.9219 -0.5843  0.9198
  100SAPE  H18S10108   1.965   7.229   4.721  2.9230 -1.8532  0.0670
  100SAPE  C21910109   1.845   7.130   4.580  0.9403  0.1250  0.1735
  100SAPE  H19R10110   1.785   7.037   4.574  3.2896 -1.4879  0.0933
  100SAPE  H19S10111   1.933   7.105   4.517 -0.0037  0.0632 -1.1559
  100SAPE  C22010112   1.784   7.262   4.516 -0.0965 -0.4140 -0.5775
  100SAPE  H20R10113   1.853   7.348   4.520 -2.5181  1.5757  0.9393
  100SAPE  H20S10114   1.702   7.306   4.576  0.8101 -0.9591  1.1297
  100SAPE  H20T10115   1.746   7.242   4.413 -2.7683 -1.6872  0.5522
  100SAPE   C3310116   1.697   6.668   5.834 -0.8205  0.3757  0.4258
  100SAPE   H3X10117   1.721   6.769   5.874 -1.2780  0.3317  0.8181
  100SAPE   H3Y10118   1.613   6.621   5.888 -1.2484 -0.8130 -1.1898
  100SAPE   C3410119   1.652   6.685   5.687 -0.3740 -0.2752 -0.6705
  100SAPE   H4X10120   1.587   6.775   5.679 -1.8572 -1.4621 -3.2439
  100SAPE   H4Y10121   1.591   6.598   5.656 -0.3197  0.6515 -3.6524
  100SAPE   C3510122   1.763   6.702   5.584 -0.5567  0.0034 -0.8113
  100SAPE   H5X10123   1.805   6.600   5.579 -0.3692 -0.2027  2.6108
  100SAPE   H5Y10124   1.842   6.765   5.631 -2.0964 -0.5623  2.8543
  100SAPE   C3610125   1.715   6.743   5.443 -0.3672  0.9182 -0.8457
  100SAPE   H6X10126   1.691   6.851   5.439 -1.2721  0.7676  0.0801
  100SAPE   H6Y10127   1.621   6.688   5.422 -0.7306  1.1158  0.1920
  100SAPE   C3710128   1.823   6.712   5.333  0.1414  0.7952  0.1662
  100SAPE   H7X10129   1.824   6.601   5.327 -0.0227  0.7327  1.1699
  100SAPE   H7Y10130   1.921   6.749   5.369  0.2225  0.6100  0.1414
  100SAPE   C3810131   1.781   6.759   5.198  0.2069  0.6710 -0.0987
  100SAPE   H8X10132   1.771   6.869   5.211  0.7622  0.5949  1.1438
  100SAPE   H8Y10133   1.686   6.707   5.173 -0.5551  1.3077  1.3629
  100SAPE   C3910134   1.881   6.713   5.089 -0.1748 -0.0449 -0.1585
  100SAPE   H9X10135   1.887   6.602   5.087  1.8398  0.0447 -0.3570
  100SAPE   H9Y10136   1.979   6.752   5.123 -0.4499 -0.4205  1.1464
  100SAPE  C31010137   1.834   6.757   4.946 -0.6163 -0.5579  0.1107
  100SAPE  H10X10138   1.842   6.866   4.928 -0.3494 -0.6394 -0.2762
  100SAPE  H10Y10139   1.733   6.719   4.919 -0.3522 -0.4975 -0.9898
  100SAPE  C31110140   1.926   6.692   4.835 -0.4047  0.3415  0.1023
  100SAPE  H11X10141   1.910   6.585   4.858 -1.5952  0.0427 -1.9122
  100SAPE  H11Y10142   2.034   6.717   4.845 -0.5525  0.5004  1.5398
  100SAPE  C31210143   1.872   6.726   4.699 -0.2809 -0.8148  0.1779
  100SAPE  H12X10144   1.881   6.836   4.685  2.1935 -1.0935 -1.0968
  100SAPE  H12Y10145   1.765   6.701   4.691 -0.5062 -0.3646  1.5017
  100SAPE  C31310146   1.932   6.637   4.585  0.5358  0.3469 -0.1062
  100SAPE  H13X10147   1.908   6.530   4.600  1.2233  0.4262  1.8498
  100SAPE  H13Y10148   2.042   6.644   4.601  0.3065  0.9677  1.3334
  100SAPE  C31410149   1.902   6.673   4.439  0.6512 -0.0150 -0.5409
  100SAPE  H14X10150   1.795   6.695   4.420  0.5508  0.9579  0.9980
  100SAPE  H14Y10151   1.918   6.581   4.379  0.8008  1.0285 -2.1351
  100SAPE  C31510152   1.992   6.773   4.367 -0.1563 -0.3716  0.0087
  100SAPE  H15X10153   2.097   6.736   4.374  0.5439  1.6919  1.6561
  100SAPE  H15Y10154   1.993   6.870   4.420 -0.3551 -0.7838  0.7905
  100SAPE  C31610155   1.944   6.789   4.225 -1.0075  0.4310 -0.1655
  100SAPE  H16X10156   1.840   6.828   4.219 -1.2691 -0.3828 -1.2945
  100SAPE  H16Y10157   1.944   6.685   4.188  0.6275 -0.5879  2.4494
  100SAPE  C31710158   2.039   6.886   4.159 -0.0731  0.7937 -0.5336
  100SAPE  H17X10159   2.024   6.884   4.049  0.3555  2.4028 -0.6599
  100SAPE  H17Y10160   2.146   6.868   4.182 -0.4901 -2.4928 -0.7908
  100SAPE  C31810161   1.994   7.024   4.194 -0.3702 -0.2506  0.1171
  100SAPE  H18X10162   1.883   7.025   4.204 -0.4247  1.4802 -0.2433
  100SAPE  H18Y10163   2.021   7.098   4.116 -0.3936  0.1129  0.4510
  100SAPE  H18Z10164   2.027   7.052   4.297 -0.5439  1.4031 -0.2520
  101SAPE     N10165   5.769   4.153   6.607  0.5525 -0.1860  0.2281
  101SAPE   HN110166   5.855   4.141   6.664  0.8194  0.8324  0.0673
  101SAPE   HN210167   5.714   4.231   6.648  0.9121  0.9296 -1.2828
  101SAPE   HN310168   5.707   4.069   6.604 -0.7157  0.7376 -0.3528
  101SAPE   C1210169   5.807   4.201   6.460  0.4055 -0.1545  0.2098
  101SAPE  H12A10170   5.869   4.289   6.485  2.2468 -1.1858 -0.5347
  101SAPE  H12B10171   5.708   4.216   6.411  0.8005 -0.3202 -0.6537
  101SAPE   C1110172   5.876   4.084   6.387  0.6962 -0.5941  0.7077
  101SAPE  H11A10173   5.904   4.110   6.283  3.2225 -0.9926  1.2297
  101SAPE  H11B10174   5.802   4.002   6.380  0.4064 -0.4220  1.5640
  101SAPE     P10175   6.134   4.095   6.446  0.4812  0.3600  0.1289
  101SAPE   O1310176   6.121   4.240   6.469 -0.2717  0.2550 -0.9712
  101SAPE   O1410177   6.219   4.014   6.535 -0.7363 -0.3454  0.5282
  101SAPE   O1210178   5.987   4.034   6.461  0.0538 -0.4021  0.3069
  101SAPE   O1110179   6.172   4.069   6.294  0.3702 -0.0583 -0.2637
  101SAPE    C110180   6.175   3.937   6.241 -0.0058 -0.1672 -0.4308
  101SAPE    HA10181   6.203   3.869   6.324 -0.3224  1.0616  0.7150
  101SAPE    HB10182   6.079   3.902   6.197  1.0995 -1.8462 -1.6090
  101SAPE    C210183   6.295   3.922   6.141  0.6472 -0.4189 -0.0378
  101SAPE    HS10184   6.266   3.981   6.051  1.5094  0.6568  0.3739
  101SAPE   O2110185   6.301   3.778   6.096 -0.5210 -0.9680 -0.0827
  101SAPE   C2110186   6.315   3.679   6.183  0.0323 -0.1695  0.2199
  101SAPE   O2210187   6.345   3.696   6.301 -0.5404 -0.0607 -0.3395
  101SAPE   C2210188   6.297   3.544   6.117 -0.1510  0.6723  0.2572
  101SAPE   H2R10189   6.391   3.524   6.062  1.9373  3.8123  2.3534
  101SAPE   H2S10190   6.298   3.454   6.183 -0.0651  0.0621 -0.5544
  101SAPE    C310191   6.426   3.978   6.201 -0.4946 -0.1859  0.0572
  101SAPE    HX10192   6.457   3.920   6.290 -1.7134 -0.6576  0.1978
  101SAPE    HY10193   6.403   4.078   6.246 -1.0131 -0.9781  1.6369
  101SAPE   O3110194   6.525   3.997   6.093  0.2858  0.4548  0.0146
  101SAPE   C3110195   6.585   3.881   6.055 -0.2561  0.2783 -0.2713
  101SAPE   O3210196   6.584   3.781   6.117 -0.2605 -0.2017 -0.6636
  101SAPE   C3210197   6.646   3.881   5.913 -0.2336  0.0859  0.1204
  101SAPE   H2X10198   6.739   3.941   5.918 -1.9316  3.0256 -0.8645
  101SAPE   H2Y10199   6.566   3.935   5.858 -2.0716  0.1685  2.7014
  101SAPE   C2310200   6.173   3.516   6.031 -0.6630 -1.5052  0.3132
  101SAPE   H3R10201   6.114   3.599   5.987  2.9022  1.0881 -0.0040
  101SAPE   H3S10202   6.104   3.460   6.098  0.5033 -1.5961  1.4943
  101SAPE   C2410203   6.211   3.415   5.918  0.0616 -0.5435 -0.4711
  101SAPE   H4R10204   6.259   3.326   5.966  0.2124  0.7430  1.8762
  101SAPE   H4S10205   6.291   3.463   5.858 -1.3435  1.4265 -0.8634
  101SAPE   C2510206   6.102   3.374   5.822 -0.5407  0.3015  0.1731
  101SAPE   H5R10207   5.997   3.380   5.854 -1.5087 -1.9221 -2.2306
  101SAPE   C2610208   6.126   3.328   5.694  0.1816 -0.2004 -1.2260
  101SAPE   H6R10209   6.033   3.306   5.638 -0.6800  0.4753 -0.0922
  101SAPE   C2710210   6.258   3.311   5.620  0.3838 -0.6177 -1.2986
  101SAPE   H7R10211   6.280   3.202   5.616  2.7688 -0.1725 -1.7455
  101SAPE   H7S10212   6.342   3.346   5.684 -0.6746  3.1096 -1.7349
  101SAPE   C2810213   6.255   3.380   5.494 -0.5349 -0.6922  0.1987
  101SAPE   H8R10214   6.282   3.486   5.509  0.4299 -1.0958  1.5057
  101SAPE   C2910215   6.225   3.337   5.370  0.9306 -0.2817 -0.9190
  101SAPE   H9R10216   6.233   3.411   5.289 -2.2161  0.4798 -0.6754
  101SAPE  C21010217   6.178   3.203   5.332  0.6882  0.7914 -0.5488
  101SAPE  H10R10218   6.068   3.211   5.324  0.8415  1.5628 -2.4701
  101SAPE  H10S10219   6.195   3.121   5.404 -0.3880  2.2306  1.4470
  101SAPE  C21110220   6.235   3.155   5.199  0.4240  0.5340  0.0811
  101SAPE  H11R10221   6.344   3.142   5.210  0.2568 -1.5179 -0.3114
  101SAPE  C21210222   6.171   3.126   5.085 -0.3505  0.1025 -0.3443
  101SAPE  H12R10223   6.225   3.082   4.999 -1.5993 -1.2653 -0.4753
  101SAPE  C21310224   6.019   3.144   5.069 -0.1785 -0.0017 -0.2450
  101SAPE  H13R10225   5.993   3.251   5.074  1.1453  0.5862 -3.4740
  101SAPE  H13S10226   5.964   3.104   5.157  0.7775  1.5759  1.1241
  101SAPE  C21410227   5.979   3.093   4.934 -0.8043 -0.1511  0.0218
  101SAPE  H14R10228   6.035   3.130   4.846  0.3812  0.2174  0.8964
  101SAPE  C21510229   5.862   3.032   4.916 -0.3638  0.8930  0.1469
  101SAPE  H15R10230   5.832   3.009   4.813 -2.2537 -0.0653  0.8801
  101SAPE  C21610231   5.773   2.981   5.025 -0.7067  0.5866  0.7159
  101SAPE  H16R10232   5.836   2.928   5.099  1.1602 -1.4548 -2.1179
  101SAPE  H16S10233   5.710   2.902   4.978  1.2647 -1.8413  1.9380
  101SAPE  C21710234   5.678   3.090   5.070 -0.0161 -0.5270  0.0188
  101SAPE  H17R10235   5.733   3.178   5.109  0.9263 -2.1896  2.7143
  101SAPE  H17S10236   5.607   3.061   5.150 -0.1562 -0.1336  0.0397
  101SAPE  C21810237   5.579   3.136   4.961  0.1014  0.3303 -0.2344
  101SAPE  H18R10238   5.637   3.162   4.870  1.0472 -0.6389  0.0796
  101SAPE  H18S10239   5.529   3.229   4.995  1.6333  1.6803 -1.4908
  101SAPE  C21910240   5.468   3.028   4.935  0.7571 -0.5934 -0.0843
  101SAPE  H19R10241   5.522   2.940   4.895  2.3564 -0.2068  1.1260
  101SAPE  H19S10242   5.415   3.087   4.858  1.1754 -0.5384 -0.3341
  101SAPE  C22010243   5.373   2.986   5.048 -0.5973  0.1076  0.3297
  101SAPE  H20R10244   5.408   2.898   5.105 -0.5601 -0.9183 -1.2078
  101SAPE  H20S10245   5.278   2.953   5.001 -0.5119 -1.7274  1.3620
  101SAPE  H20T10246   5.361   3.066   5.124 -1.2100  2.4416 -2.0526
  101SAPE   C3310247   6.671   3.740   5.863 -0.3882  0.0849  0.4666
  101SAPE   H3X10248   6.578   3.679   5.860 -0.8756  0.8407 -1.5250
  101SAPE   H3Y10249   6.734   3.691   5.940 -1.1377  0.0765  1.0933
  101SAPE   C3410250   6.754   3.730   5.732 -0.0090 -0.5459  0.4735
  101SAPE   H4X10251   6.752   3.627   5.692  2.1621 -0.6333  0.4562
  101SAPE   H4Y10252   6.863   3.740   5.751  0.5083 -0.0246 -2.2511
  101SAPE   C3510253   6.710   3.830   5.622  0.5238 -0.4880  0.4418
  101SAPE   H5X10254   6.758   3.930   5.632  0.5907 -0.0226 -3.2333
  101SAPE   H5Y10255   6.600   3.827   5.608  0.2940  4.2474 -0.2199
  101SAPE   C3610256   6.773   3.780   5.482  0.1411 -0.1361 -0.7174
  101SAPE   H6X10257   6.872   3.732   5.488  1.4823  2.4194 -1.0874
  101SAPE   H6Y10258   6.792   3.873   5.425 -2.7675 -0.8974 -3.2408
  101SAPE   C3710259   6.673   3.711   5.386 -0.4393 -0.1288 -0.4336
  101SAPE   H7X10260   6.595   3.786   5.362 -1.0369 -0.2894  0.8704
  101SAPE   H7Y10261   6.621   3.629   5.440 -2.4382  1.6278  0.4914
  101SAPE   C3810262   6.741   3.674   5.252  0.5959  0.0905  0.2300
  101SAPE   H8X10263   6.794   3.578   5.268 -0.5423 -0.5713  0.0405
  101SAPE   H8Y10264   6.809   3.755   5.216 -0.3792  1.4974  1.4309
  101SAPE   C3910265   6.649   3.652   5.131  0.6502 -0.1275 -0.3186
  101SAPE   H9X10266   6.582   3.741   5.130 -0.8376 -1.0669  2.5826
  101SAPE   H9Y10267   6.570   3.575   5.151  1.1917 -0.2690  1.4459
  101SAPE  C31010268   6.712   3.615   4.995 -0.6819  0.1576  0.2069
  101SAPE  H10X10269   6.770   3.524   5.022  0.4403  0.7409 -0.1813
  101SAPE  H10Y10270   6.793   3.681   4.959 -0.5634 -0.0680  0.0578
  101SAPE  C31110271   6.608   3.601   4.881  0.1974 -0.6288 -0.6527
  101SAPE  H11X10272   6.555   3.698   4.867 -2.0129 -1.3640  1.7811
  101SAPE  H11Y10273   6.541   3.532   4.935  1.4898 -0.4689  1.2684
  101SAPE  C31210274   6.660   3.546   4.756 -0.6235 -0.0607  0.9254
  101SAPE  H12X10275   6.732   3.465   4.780  1.1594  0.8969 -0.9293
  101SAPE  H12Y10276   6.721   3.623   4.704  1.1647  0.1352  3.1137
  101SAPE  C31310277   6.550   3.490   4.668 -0.0722 -0.4980 -0.9076
  101SAPE  H13X10278   6.481   3.567   4.627 -2.1477 -3.1803 -2.8925
  101SAPE  H13Y10279   6.477   3.433   4.729  0.9055 -0.2305  0.5435
  101SAPE  C31410280   6.605   3.402   4.551  1.0254  0.6082 -0.5093
  101SAPE  H14X10281   6.518   3.348   4.508  1.4111 -1.7903  1.5063
  101SAPE  H14Y10282   6.679   3.333   4.595  0.7385  1.3021  1.1525
  101SAPE  C31510283   6.673   3.492   4.452 -0.3612  0.1011  0.1220
  101SAPE  H15X10284   6.761   3.543   4.497 -0.6835  0.1779  0.6736
  101SAPE  H15Y10285   6.609   3.573   4.411  0.1597  1.4656  1.8858
  101SAPE  C31610286   6.726   3.416   4.336 -0.3765  0.1272  0.2056
  101SAPE  H16X10287   6.634   3.378   4.287 -0.6556  1.7801 -0.6224
  101SAPE  H16Y10288   6.791   3.335   4.375  0.9930  1.9150  1.8206
  101SAPE  C31710289   6.811   3.501   4.237  0.0004 -0.7673 -0.3877
  101SAPE  H17X10290   6.918   3.507   4.266  0.0888 -0.0263 -0.8452
  101SAPE  H17Y10291   6.775   3.605   4.228  2.7835  0.2448 -1.0985
  101SAPE  C31810292   6.814   3.440   4.096  1.1782  0.1916  0.4135
  101SAPE  H18X10293   6.831   3.330   4.097 -1.0301 -0.2281 -1.1057
  101SAPE  H18Y10294   6.891   3.487   4.031 -1.3145  2.2419 -1.2409
  101SAPE  H18Z10295   6.720   3.465   4.043  1.3679 -1.0397 -0.5377
  102SAPE     N10296   0.506   4.406   6.618 -1.0804 -0.3227 -0.2386
  102SAPE   HN110297   0.515   4.308   6.652 -1.2743 -0.5711 -0.8689
  102SAPE   HN210298   0.496   4.466   6.702 -2.4217  0.6331 -1.0339
  102SAPE   HN310299   0.417   4.426   6.568 -0.0734  1.2101 -1.5205
  102SAPE   C1210300   0.620   4.456   6.531 -0.0659  1.1616 -0.1950
  102SAPE  H12A10301   0.633   4.562   6.563  1.8139  0.2852  2.2683
  102SAPE  H12B10302   0.594   4.460   6.423  1.8053 -0.5008 -0.7630
  102SAPE   C1110303   0.742   4.356   6.543  0.4241  0.1706 -0.7782
  102SAPE  H11A10304   0.836   4.397   6.500  1.4538 -0.3884  0.8364
  102SAPE  H11B10305   0.712   4.267   6.484  1.0603  0.0252 -0.8911
  102SAPE     P10306   0.905   4.354   6.753 -0.1602  0.0485 -0.2757
  102SAPE   O1310307   0.913   4.499   6.773  0.1200 -0.2773 -0.2978
  102SAPE   O1410308   0.933   4.270   6.872  0.5128  0.1959 -0.4281
  102SAPE   O1210309   0.767   4.319   6.681  0.0584  0.4587  0.1834
  102SAPE   O1110310   1.012   4.312   6.648 -0.4741 -0.3648 -0.3055
  102SAPE    C110311   1.022   4.174   6.616  0.1697  0.3831  0.0538
  102SAPE    HA10312   1.051   4.114   6.705 -2.7388  0.4954  1.1845
  102SAPE    HB10313   0.925   4.138   6.577  0.2983 -1.8544  1.5838
  102SAPE    C210314   1.138   4.155   6.510 -0.1745 -0.3057  0.8870
  102SAPE    HS10315   1.225   4.186   6.572 -1.8761  1.6120  2.4446
  102SAPE   O2110316   1.113   4.241   6.394 -0.2189 -0.4288 -0.0320
  102SAPE   C2110317   1.161   4.364   6.392 -0.0249  0.6782  0.4901
  102SAPE   O2210318   1.233   4.410   6.474  0.1208 -0.5980 -0.2441
  102SAPE   C2210319   1.115   4.431   6.265  0.0660  0.0350 -0.8914
  102SAPE   H2R10320   1.200   4.447   6.195  0.7711 -0.2768 -0.1371
  102SAPE   H2S10321   1.045   4.363   6.213  0.6033 -1.8243  0.6684
  102SAPE    C310322   1.156   4.004   6.460  0.4743 -0.2708 -0.0388
  102SAPE    HX10323   1.059   3.964   6.424  1.0294 -1.5078 -0.2243
  102SAPE    HY10324   1.180   3.938   6.546  1.5675 -1.8105 -1.4714
  102SAPE   O3110325   1.250   3.993   6.355  0.2837  0.2012 -0.0139
  102SAPE   C3110326   1.374   4.026   6.381  0.1471  0.3207  0.4669
  102SAPE   O3210327   1.421   4.056   6.492  0.5786  0.0647  0.7747
  102SAPE   C3210328   1.464   4.016   6.250  0.1817 -0.4884 -0.1214
  102SAPE   H2X10329   1.464   3.913   6.208 -0.0866  0.8111 -3.5670
  102SAPE   H2Y10330   1.565   4.046   6.284  0.1616  1.6936 -1.8111
  102SAPE   C2310331   1.041   4.553   6.311  0.5631 -0.7472 -0.6797
  102SAPE   H3R10332   1.104   4.640   6.282  0.3048 -1.0936 -2.4135
  102SAPE   H3S10333   1.022   4.554   6.421 -1.3217 -0.4192 -0.9780
  102SAPE   C2410334   0.907   4.589   6.246 -0.2262  0.1655  0.3794
  102SAPE   H4R10335   0.842   4.500   6.262  0.5087 -0.5370 -0.4326
  102SAPE   H4S10336   0.907   4.592   6.135 -2.8992  1.5468  0.3444
  102SAPE   C2510337   0.825   4.703   6.294  0.1933  0.1833 -0.3643
  102SAPE   H5R10338   0.786   4.692   6.396  1.4732 -0.2311  0.1042
  102SAPE   C2610339   0.776   4.799   6.218  0.2200  0.1839  0.0840
  102SAPE   H6R10340   0.727   4.881   6.272 -0.1212 -0.3146  0.5361
  102SAPE   C2710341   0.813   4.827   6.073  0.2578 -0.6205 -0.2875
  102SAPE   H7R10342   0.791   4.731   6.020  0.1812 -0.4439 -0.5805
  102SAPE   H7S10343   0.921   4.852   6.063  0.0770 -0.0186 -0.7833
  102SAPE   C2810344   0.727   4.941   6.019 -0.0881  0.0026 -0.1229
  102SAPE   H8R10345   0.722   5.037   6.074 -0.3337 -0.1973  0.2072
  102SAPE   C2910346   0.686   4.946   5.891  0.4175  0.1514 -0.0606
  102SAPE   H9R10347   0.624   5.029   5.855  0.8572  1.1109  1.2985
  102SAPE  C21010348   0.711   4.846   5.787  0.7837 -0.1335 -0.4367
  102SAPE  H10R10349   0.621   4.780   5.782  1.0906 -0.7063  1.0187
  102SAPE  H10S10350   0.801   4.784   5.807  1.1931  0.5119 -0.2548
  102SAPE  C21110351   0.730   4.909   5.651 -0.0352  0.4482  0.3417
  102SAPE  H11R10352   0.708   5.016   5.650  1.9067  0.8929  0.3377
  102SAPE  C21210353   0.782   4.853   5.536  0.2922  0.7852 -0.7045
  102SAPE  H12R10354   0.786   4.900   5.437  0.7472  1.7816 -0.2347
  102SAPE  C21310355   0.820   4.705   5.533  0.5709 -0.9236 -0.1535
  102SAPE  H13R10356   0.744   4.658   5.466 -1.4338  1.0830  0.6099
  102SAPE  H13S10357   0.814   4.664   5.636 -0.7609 -0.7430 -0.1494
  102SAPE  C21410358   0.955   4.687   5.469 -0.5484 -0.1653 -0.1138
  102SAPE  H14R10359   0.976   4.730   5.370  1.4846  1.1524  0.8414
  102SAPE  C21510360   1.057   4.610   5.519 -0.6209  0.6284  0.4842
  102SAPE  H15R10361   1.153   4.615   5.465 -2.2175 -0.9476 -2.8046
  102SAPE  C21610362   1.057   4.545   5.651 -0.2215 -0.0694 -0.6060
  102SAPE  H16R10363   1.081   4.438   5.633  1.9202 -0.0235  1.4727
  102SAPE  H16S10364   0.960   4.552   5.706  1.6877 -0.4173  3.1168
  102SAPE  C21710365   1.156   4.597   5.755 -0.9847 -0.0904 -0.0701
  102SAPE  H17R10366   1.263   4.586   5.728 -1.6367 -2.3787 -1.9822
  102SAPE  H17S10367   1.146   4.528   5.842 -1.2373 -2.4212 -1.8658
  102SAPE  C21810368   1.129   4.738   5.794 -0.5574 -0.2011 -0.4840
  102SAPE  H18R10369   1.046   4.747   5.868 -0.0254 -0.8127  0.1931
  102SAPE  H18S10370   1.084   4.793   5.708  0.1021  1.3001  0.1019
  102SAPE  C21910371   1.241   4.812   5.857  0.1438  0.3159  0.3150
  102SAPE  H19R10372   1.206   4.914   5.882 -1.7373  0.0537 -1.0155
  102SAPE  H19S10373   1.318   4.827   5.778  0.7767  0.9790  1.0417
  102SAPE  C22010374   1.302   4.756   5.986  0.4334 -0.0366  0.8392
  102SAPE  H20R10375   1.342   4.654   5.967  0.5408 -0.1399  1.6024
  102SAPE  H20S10376   1.226   4.744   6.066 -1.3346 -0.9907 -0.8667
  102SAPE  H20T10377   1.391   4.814   6.017  0.6141  1.0739 -1.5244
  102SAPE   C3310378   1.410   4.106   6.142 -0.7309  0.1389  0.1595
  102SAPE   H3X10379   1.398   4.209   6.184 -0.7663 -0.0635  0.6520
  102SAPE   H3Y10380   1.311   4.069   6.108  0.5790 -2.8222 -0.7152
  102SAPE   C3410381   1.492   4.093   6.015 -0.0782  0.1102  0.2431
  102SAPE   H4X10382   1.527   3.992   5.985  0.7617 -0.0520  1.6828
  102SAPE   H4Y10383   1.587   4.147   6.034  1.7781 -1.5726 -3.2585
  102SAPE   C3510384   1.417   4.153   5.889 -0.1673 -0.6499 -0.3830
  102SAPE   H5X10385   1.476   4.177   5.798 -0.7176 -0.4905 -0.7046
  102SAPE   H5Y10386   1.389   4.251   5.935  2.9756  0.4101 -0.4541
  102SAPE   C3610387   1.294   4.072   5.830 -0.7268 -0.2403 -0.9639
  102SAPE   H6X10388   1.205   4.075   5.896 -0.2800 -2.3675 -0.1593
  102SAPE   H6Y10389   1.335   3.969   5.826 -1.9681 -0.7836 -0.3016
  102SAPE   C3710390   1.238   4.106   5.690 -0.2335 -0.4640  0.1941
  102SAPE   H7X10391   1.320   4.100   5.616 -1.8941  1.3538 -1.9333
  102SAPE   H7Y10392   1.202   4.211   5.692  1.0078 -0.0324  1.6519
  102SAPE   C3810393   1.128   4.015   5.635  0.5801 -0.4569 -0.5046
  102SAPE   H8X10394   1.048   4.043   5.707  1.4001 -1.2802  0.7769
  102SAPE   H8Y10395   1.164   3.909   5.641  1.7621  0.0005  1.7629
  102SAPE   C3910396   1.076   4.047   5.493  0.1480 -0.0742  0.7783
  102SAPE   H9X10397   1.152   4.047   5.411 -1.9202 -2.6917 -1.3413
  102SAPE   H9Y10398   1.039   4.150   5.510 -0.2666 -0.3331  1.4729
  102SAPE  C31010399   0.972   3.950   5.441 -0.3270  0.0849  0.3528
  102SAPE  H10X10400   0.879   3.945   5.501 -1.0956  2.0874 -0.5906
  102SAPE  H10Y10401   1.014   3.848   5.445  0.2186  0.0904 -2.8114
  102SAPE  C31110402   0.954   3.976   5.289  0.0272  0.1335 -0.1636
  102SAPE  H11X10403   1.047   3.947   5.236  0.7210  3.5522 -1.0410
  102SAPE  H11Y10404   0.943   4.085   5.269 -0.0523 -0.1234 -1.6110
  102SAPE  C31210405   0.847   3.883   5.236 -0.0576  0.4114 -0.0182
  102SAPE  H12X10406   0.744   3.890   5.278 -1.0958 -1.3214 -2.0366
  102SAPE  H12Y10407   0.875   3.778   5.259 -1.9829  0.2139  1.7881
  102SAPE  C31310408   0.825   3.895   5.088 -0.4403  0.2603  0.0712
  102SAPE  H13X10409   0.904   3.841   5.031 -1.3930 -0.9801 -0.1187
  102SAPE  H13Y10410   0.812   3.998   5.049  0.7776  0.5042  0.2635
  102SAPE  C31410411   0.699   3.825   5.034  0.3169  0.2635 -0.4507
  102SAPE  H14X10412   0.616   3.894   5.061  1.4792  2.2453 -1.6810
  102SAPE  H14Y10413   0.689   3.736   5.100  0.0924  0.4826 -0.1855
  102SAPE  C31510414   0.689   3.781   4.891 -0.4854  0.6320  0.0882
  102SAPE  H15X10415   0.634   3.686   4.874 -0.4412  0.4864  0.7434
  102SAPE  H15Y10416   0.792   3.755   4.860  0.2180  1.0842  1.9227
  102SAPE  C31610417   0.648   3.884   4.788  0.2560  0.3120 -0.1519
  102SAPE  H16X10418   0.721   3.966   4.774 -0.9013  1.3454 -0.2991
  102SAPE  H16Y10419   0.554   3.938   4.811  1.7487  3.7329 -1.4421
  102SAPE  C31710420   0.626   3.822   4.641  0.2559  0.1485  0.2475
  102SAPE  H17X10421   0.579   3.894   4.570  0.2432  0.2027  0.3096
  102SAPE  H17Y10422   0.570   3.727   4.656  0.1076  0.3067  0.7124
  102SAPE  C31810423   0.763   3.778   4.582  0.4679 -0.6442 -0.0006
  102SAPE  H18X10424   0.758   3.723   4.486  3.1862  0.3896 -0.8346
  102SAPE  H18Y10425   0.817   3.712   4.653  0.1564  0.5136  1.3689
  102SAPE  H18Z10426   0.826   3.864   4.553 -3.1680  2.5013  0.5912
  103SAPE     N10427   3.452   2.124   2.208 -0.1934 -0.2407  0.0188
  103SAPE   HN110428   3.530   2.064   2.242  0.5817  1.7364  1.9169
  103SAPE   HN210429   3.363   2.076   2.183  0.1321  0.4182 -2.6480
  103SAPE   HN310430   3.480   2.162   2.116  1.5550  2.3478  1.4885
  103SAPE   C1210431   3.425   2.239   2.310 -0.1744  1.0401 -0.0550
  103SAPE  H12A10432   3.343   2.306   2.276 -0.8505  0.5712  0.6198
  103SAPE  H12B10433   3.519   2.297   2.312  0.2439  0.4222  2.8005
  103SAPE   C1110434   3.391   2.184   2.446 -0.0840  0.5794 -0.7210
  103SAPE  H11A10435   3.387   2.271   2.514  2.2179  0.7007 -0.6638
  103SAPE  H11B10436   3.466   2.114   2.489 -0.9616  0.1171  0.0868
  103SAPE     P10437   3.138   2.157   2.527  0.0550  0.2762 -0.0829
  103SAPE   O1310438   3.094   2.291   2.487  0.1296  0.1821  0.6019
  103SAPE   O1410439   3.040   2.052   2.516  0.3466  0.0220 -0.5464
  103SAPE   O1210440   3.269   2.113   2.441 -0.1111 -0.3607  0.6800
  103SAPE   O1110441   3.189   2.172   2.671  0.5077  1.1320 -0.3863
  103SAPE    C110442   3.233   2.059   2.751  0.3392 -0.1331  0.2886
  103SAPE    HA10443   3.144   1.996   2.767 -1.3824  2.1666  0.2745
  103SAPE    HB10444   3.314   2.004   2.698 -0.0757  0.4391 -0.9777
  103SAPE    C210445   3.285   2.115   2.888  0.4573 -0.4963  1.1136
  103SAPE    HS10446   3.323   2.027   2.944 -1.9942 -2.0191  0.5775
  103SAPE   O2110447   3.172   2.174   2.959 -0.3031 -0.2666 -0.0899
  103SAPE   C2110448   3.087   2.094   3.021  0.0155 -0.0926  0.1344
  103SAPE   O2210449   3.092   1.973   3.012 -0.1246 -0.4732  0.0454
  103SAPE   C2210450   2.998   2.184   3.106 -0.5379  0.0084  0.3236
  103SAPE   H2R10451   3.053   2.280   3.118 -2.2685  1.5186 -2.7338
  103SAPE   H2S10452   2.900   2.208   3.059  0.1327  1.1738 -0.5086
  103SAPE    C310453   3.401   2.213   2.869  0.4172  0.2143  0.2566
  103SAPE    HX10454   3.353   2.310   2.843 -0.9082 -0.7668 -1.0822
  103SAPE    HY10455   3.456   2.195   2.775  1.0355  0.0414  0.6430
  103SAPE   O3110456   3.463   2.239   2.995 -0.0731 -0.2416 -0.6335
  103SAPE   C3110457   3.567   2.157   3.009  0.9502 -0.1827 -0.1738
  103SAPE   O3210458   3.605   2.076   2.929 -0.2831 -0.6501 -0.2317
  103SAPE   C3210459   3.634   2.200   3.133  0.2742 -0.3992  0.0650
  103SAPE   H2X10460   3.641   2.310   3.136  0.4064 -0.4179  0.6256
  103SAPE   H2Y10461   3.742   2.173   3.130  0.8719  1.7082  0.9617
  103SAPE   C2310462   2.974   2.114   3.242  0.4978 -0.5333  0.1105
  103SAPE   H3R10463   2.946   2.007   3.226 -0.0159 -0.5991  1.3484
  103SAPE   H3S10464   2.897   2.177   3.292 -1.5935 -2.2570 -0.7740
  103SAPE   C2410465   3.094   2.123   3.332  0.0777  0.2690  0.0867
  103SAPE   H4R10466   3.119   2.230   3.349 -2.7211  1.2774 -1.4818
  103SAPE   H4S10467   3.184   2.088   3.278 -0.1227 -0.1769  0.0371
  103SAPE   C2510468   3.080   2.046   3.462  0.1356 -0.0420  0.2044
  103SAPE   H5R10469   3.109   1.940   3.464 -0.0493 -0.0829  1.9335
  103SAPE   C2610470   3.045   2.109   3.573  0.2413 -0.1296  0.0207
  103SAPE   H6R10471   3.051   2.047   3.663 -0.5034 -1.6479 -0.9276
  103SAPE   C2710472   3.025   2.257   3.586  0.0585  0.2561  0.2590
  103SAPE   H7R10473   2.943   2.290   3.517  0.4327  1.1699  0.2449
  103SAPE   H7S10474   3.120   2.299   3.547  0.1470  1.3577  1.6125
  103SAPE   C2810475   2.979   2.296   3.726 -0.3021  1.0942 -0.3297
  103SAPE   H8R10476   2.870   2.311   3.723 -0.2176  1.6724 -2.2976
  103SAPE   C2910477   3.058   2.343   3.829  0.3100 -0.1665  0.2368
  103SAPE   H9R10478   3.017   2.374   3.927  0.3862  0.7849 -0.0207
  103SAPE  C21010479   3.205   2.319   3.837 -0.3057 -0.6067  0.4201
  103SAPE  H10R10480   3.235   2.422   3.864 -2.4909 -0.1248  1.1644
  103SAPE  H10S10481   3.245   2.277   3.742  0.1114 -1.3335  0.9069
  103SAPE  C21110482   3.234   2.217   3.948  0.0846  0.4475  1.2083
  103SAPE  H11R10483   3.226   2.113   3.914  3.2601  0.8416 -1.3133
  103SAPE  C21210484   3.274   2.233   4.077  0.3342  0.1865  0.3338
  103SAPE  H12R10485   3.291   2.142   4.136 -2.5371 -0.4333  0.3581
  103SAPE  C21310486   3.302   2.361   4.146 -0.6782  0.4103  0.3447
  103SAPE  H13R10487   3.344   2.432   4.071 -3.0980  1.5871  0.0163
  103SAPE  H13S10488   3.381   2.339   4.221 -1.5673 -0.6319  1.0008
  103SAPE  C21410489   3.180   2.424   4.209 -0.4906  0.2496  0.9076
  103SAPE  H14R10490   3.083   2.372   4.206 -1.0210  1.1639  1.8099
  103SAPE  C21510491   3.178   2.529   4.293  0.0352  0.1699  0.0106
  103SAPE  H15R10492   3.083   2.556   4.342 -0.4015 -0.9137 -0.2117
  103SAPE  C21610493   3.300   2.609   4.323 -0.1460 -0.8087  0.1542
  103SAPE  H16R10494   3.314   2.700   4.259 -0.4156  0.2720  1.5871
  103SAPE  H16S10495   3.395   2.553   4.312  1.9559  2.5148 -0.0651
  103SAPE  C21710496   3.315   2.664   4.469  0.2821 -0.7277  0.3072
  103SAPE  H17R10497   3.422   2.691   4.477 -0.0416  0.7634  0.0660
  103SAPE  H17S10498   3.293   2.574   4.530 -1.4502 -2.0906 -2.1324
  103SAPE  C21810499   3.229   2.794   4.495 -0.7185  0.3312 -0.4213
  103SAPE  H18R10500   3.124   2.756   4.498 -0.6254  0.1338  1.3748
  103SAPE  H18S10501   3.239   2.866   4.411 -0.0658  0.6875 -0.0471
  103SAPE  C21910502   3.258   2.860   4.638  0.5500 -0.3473  0.1743
  103SAPE  H19R10503   3.366   2.880   4.650  0.2175  1.8775  0.0413
  103SAPE  H19S10504   3.239   2.802   4.730  1.0666 -0.6327  0.1030
  103SAPE  C22010505   3.191   2.998   4.643 -0.2532 -0.8153  0.0316
  103SAPE  H20R10506   3.193   3.032   4.749  1.5737 -1.7867  0.3587
  103SAPE  H20S10507   3.082   2.991   4.623 -0.3116 -0.4169  0.1993
  103SAPE  H20T10508   3.223   3.077   4.572  0.6034 -0.5645  0.6870
  103SAPE   C3310509   3.555   2.136   3.255 -0.2426 -0.3959 -0.1741
  103SAPE   H3X10510   3.587   2.030   3.268 -1.9001 -0.9916 -0.7273
  103SAPE   H3Y10511   3.445   2.133   3.242 -0.0307 -1.8110 -2.0788
  103SAPE   C3410512   3.599   2.205   3.389 -0.3899  0.6740  0.3433
  103SAPE   H4X10513   3.593   2.314   3.371 -0.1722  0.7311  0.6140
  103SAPE   H4Y10514   3.704   2.173   3.406 -1.3972 -2.1619  1.9625
  103SAPE   C3510515   3.517   2.174   3.511  0.6474 -0.4953 -1.1974
  103SAPE   H5X10516   3.509   2.064   3.522  2.5099 -0.5911 -0.4069
  103SAPE   H5Y10517   3.416   2.215   3.487  1.2561  0.3331 -2.4364
  103SAPE   C3610518   3.568   2.247   3.636  0.0698 -0.2182  0.3340
  103SAPE   H6X10519   3.487   2.229   3.710  0.4530  2.3036  1.4708
  103SAPE   H6Y10520   3.588   2.355   3.618  0.2769  0.2407  2.9740
  103SAPE   C3710521   3.698   2.190   3.694  0.4238 -0.5724 -0.4483
  103SAPE   H7X10522   3.791   2.221   3.642  0.4434  1.0139  0.4802
  103SAPE   H7Y10523   3.689   2.079   3.693 -2.0219 -0.4961  1.8458
  103SAPE   C3810524   3.713   2.232   3.844 -0.0220 -0.1981 -0.5605
  103SAPE   H8X10525   3.799   2.172   3.880 -0.0771 -1.6095 -2.6101
  103SAPE   H8Y10526   3.616   2.193   3.883 -0.3562  1.1760  0.0336
  103SAPE   C3910527   3.743   2.380   3.864  0.0277 -0.6316  0.0882
  103SAPE   H9X10528   3.655   2.429   3.817 -0.3846 -1.1804  0.2811
  103SAPE   H9Y10529   3.834   2.424   3.818 -1.5254  2.8617 -0.0454
  103SAPE  C31010530   3.744   2.413   4.019  0.1465 -1.1144  0.8626
  103SAPE  H10X10531   3.830   2.368   4.073 -0.7587 -2.2338  1.4368
  103SAPE  H10Y10532   3.655   2.365   4.065 -0.4050  0.4060  1.4493
  103SAPE  C31110533   3.747   2.564   4.061 -0.0136  0.3984 -0.5714
  103SAPE  H11X10534   3.649   2.610   4.033 -0.8988  0.3230  2.0370
  103SAPE  H11Y10535   3.840   2.609   4.020  0.9919 -0.3808  0.7787
  103SAPE  C31210536   3.761   2.592   4.217  0.1055  0.5343  0.3804
  103SAPE  H12X10537   3.856   2.545   4.251  0.9228 -1.0281 -3.5582
  103SAPE  H12Y10538   3.679   2.541   4.271  0.9293 -0.7352  0.4900
  103SAPE  C31310539   3.744   2.746   4.248  0.3000 -0.5496  0.0053
  103SAPE  H13X10540   3.660   2.786   4.187  0.8014 -0.0245 -0.3504
  103SAPE  H13Y10541   3.830   2.801   4.204 -0.5720  1.0284  0.1991
  103SAPE  C31410542   3.722   2.770   4.390 -0.0842  0.5689 -0.8941
  103SAPE  H14X10543   3.813   2.754   4.453  0.4289  2.7345 -0.9946
  103SAPE  H14Y10544   3.651   2.694   4.427  1.3362 -0.5817 -0.4148
  103SAPE  C31510545   3.662   2.908   4.421 -0.6991 -0.0626 -0.4998
  103SAPE  H15X10546   3.553   2.894   4.405 -0.4394 -0.2434 -2.2969
  103SAPE  H15Y10547   3.702   2.981   4.348  0.9980 -1.0690 -0.6245
  103SAPE  C31610548   3.696   2.944   4.567 -0.2674 -0.0627  0.1002
  103SAPE  H16X10549   3.697   2.855   4.634 -0.0766 -2.4135 -2.8570
  103SAPE  H16Y10550   3.612   3.005   4.607 -0.7559 -0.3905 -0.4150
  103SAPE  C31710551   3.828   3.010   4.594 -0.6116 -0.8653  0.8246
  103SAPE  H17X10552   3.915   2.965   4.543  0.1631  0.3524  1.0304
  103SAPE  H17Y10553   3.864   3.013   4.699  0.3188  0.0927  0.4998
  103SAPE  C31810554   3.828   3.154   4.548 -0.6945 -0.2408 -0.0463
  103SAPE  H18X10555   3.931   3.194   4.535 -0.9338  0.7555  0.9297
  103SAPE  H18Y10556   3.776   3.226   4.616  0.1948 -0.0580  0.4519
  103SAPE  H18Z10557   3.790   3.171   4.445 -2.3789  1.4640  0.7958
  104SAPE     N10558   3.958   0.477   2.061 -0.4630 -0.3123  0.4345
  104SAPE   HN110559   4.003   0.553   2.004  0.0850  1.0431  2.5593
  104SAPE   HN210560   4.003   0.387   2.035  0.5407  0.4747 -0.6938
  104SAPE   HN310561   3.865   0.461   2.017 -0.2108 -0.9293  0.1256
  104SAPE   C1210562   3.943   0.506   2.209  0.2267 -0.5049  0.2965
  104SAPE  H12A10563   3.914   0.613   2.216 -2.7612 -1.1460 -1.0206
  104SAPE  H12B10564   4.045   0.498   2.252 -0.0601 -2.5234  0.6996
  104SAPE   C1110565   3.835   0.412   2.265 -0.3091 -0.2273 -0.2202
  104SAPE  H11A10566   3.810   0.442   2.369 -0.7063 -2.9450  0.5507
  104SAPE  H11B10567   3.871   0.306   2.268 -1.7301 -0.7395 -0.3442
  104SAPE     P10568   3.584   0.362   2.240  0.4192 -0.1101 -0.0138
  104SAPE   O1310569   3.527   0.445   2.350  0.0865 -0.6993  0.3318
  104SAPE   O1410570   3.495   0.334   2.125  0.9217  0.1255  0.2153
  104SAPE   O1210571   3.716   0.431   2.189  0.2971 -0.0409 -0.7416
  104SAPE   O1110572   3.631   0.225   2.299  0.5255  0.2369 -0.2438
  104SAPE    C110573   3.677   0.117   2.219  0.0279 -0.5606 -0.7059
  104SAPE    HA10574   3.596   0.091   2.148 -1.6478  0.6053  0.7110
  104SAPE    HB10575   3.762   0.143   2.152  0.2296  0.9879  0.0957
  104SAPE    C210576   3.704  -0.000   2.317  0.2432 -0.1080 -0.4738
  104SAPE    HS10577   3.713  -0.097   2.262 -0.3627 -0.5725  0.2211
  104SAPE   O2110578   3.607  -0.003   2.424  0.4895 -0.0470 -0.2885
  104SAPE   C2110579   3.487  -0.016   2.390 -0.1830 -0.0959 -0.0777
  104SAPE   O2210580   3.442  -0.065   2.288  0.2126  0.2713 -0.5340
  104SAPE   C2210581   3.390   0.048   2.489  0.3635  0.3484  0.0159
  104SAPE   H2R10582   3.425   0.009   2.588 -0.1569 -0.6759 -0.1906
  104SAPE   H2S10583   3.412   0.157   2.485  0.2398  0.3398 -1.4790
  104SAPE    C310584   3.852   0.009   2.377  0.8592  0.0907  0.5348
  104SAPE    HX10585   3.871   0.112   2.412 -1.4913  0.2362  1.5736
  104SAPE    HY10586   3.928   0.005   2.295  1.1040 -0.4666  0.7841
  104SAPE   O3110587   3.885  -0.081   2.478  0.4594 -0.3687 -0.1411
  104SAPE   C3110588   3.844  -0.043   2.603  0.3155  0.4088 -0.2736
  104SAPE   O3210589   3.820   0.069   2.643  0.0892 -0.1347 -0.1534
  104SAPE   C3210590   3.847  -0.165   2.699  0.8345  0.2586 -0.2185
  104SAPE   H2X10591   3.956  -0.189   2.697  1.0160  1.0212 -2.7097
  104SAPE   H2Y10592   3.792  -0.247   2.648  1.1934  0.1884 -0.4971
  104SAPE   C2310593   3.242   0.009   2.470  0.0696 -0.3020  0.4860
  104SAPE   H3R10594   3.236  -0.102   2.469 -1.3508 -0.2326 -0.3505
  104SAPE   H3S10595   3.212   0.058   2.375 -2.5098 -1.2969  0.7056
  104SAPE   C2410596   3.157   0.058   2.590  1.5066  0.1434 -0.0930
  104SAPE   H4R10597   3.159   0.169   2.587  2.2220  0.1299 -0.3700
  104SAPE   H4S10598   3.213   0.027   2.680  2.2717 -0.2518 -0.6909
  104SAPE   C2510599   3.015   0.004   2.574  0.0669 -0.0107 -0.4236
  104SAPE   H5R10600   2.958   0.040   2.488 -0.6327 -1.0821 -0.4267
  104SAPE   C2610601   2.954  -0.077   2.671  0.0840 -0.0882 -0.3963
  104SAPE   H6R10602   2.853  -0.108   2.640 -0.6987  2.1635 -0.3135
  104SAPE   C2710603   3.011  -0.138   2.802 -0.2718  0.1423  0.6583
  104SAPE   H7R10604   2.934  -0.107   2.876 -1.7692 -2.8335  0.4988
  104SAPE   H7S10605   3.112  -0.106   2.835  0.4172 -0.7034 -0.5742
  104SAPE   C2810606   3.001  -0.290   2.792  0.3067  0.7592 -0.1370
  104SAPE   H8R10607   3.043  -0.331   2.699 -1.6118 -1.2049 -0.2112
  104SAPE   C2910608   2.937  -0.374   2.875  0.0242 -0.2060  0.1310
  104SAPE   H9R10609   2.937  -0.480   2.849  1.6130  0.0922 -1.2783
  104SAPE  C21010610   2.866  -0.346   3.006  0.7217 -0.0280 -0.1646
  104SAPE  H10R10611   2.761  -0.380   2.995  0.3286  1.2037 -0.3642
  104SAPE  H10S10612   2.855  -0.237   3.021  1.7273 -0.0084  0.5030
  104SAPE  C21110613   2.930  -0.397   3.130  0.6929  0.1003  0.3386
  104SAPE  H11R10614   3.037  -0.420   3.124  1.1644  1.8954  1.3429
  104SAPE  C21210615   2.865  -0.390   3.251 -0.3312  0.2544 -0.4402
  104SAPE  H12R10616   2.915  -0.436   3.337  0.2797 -0.5084 -1.1835
  104SAPE  C21310617   2.723  -0.353   3.260  0.0595 -0.3961 -0.7537
  104SAPE  H13R10618   2.661  -0.351   3.168 -1.1969  2.5840  0.0122
  104SAPE  H13S10619   2.729  -0.244   3.282  4.1563 -0.6072  0.0009
  104SAPE  C21410620   2.646  -0.415   3.377 -0.0359  0.4242 -0.4693
  104SAPE  H14R10621   2.672  -0.518   3.405  0.4164  0.5847 -0.2866
  104SAPE  C21510622   2.557  -0.346   3.457 -0.3359  0.0452  0.1637
  104SAPE  H15R10623   2.494  -0.399   3.530 -1.4092 -0.3372 -0.9943
  104SAPE  C21610624   2.515  -0.202   3.461 -0.0224  0.2735  1.1248
  104SAPE  H16R10625   2.408  -0.191   3.430  0.0523  0.5750  0.9666
  104SAPE  H16S10626   2.570  -0.141   3.386 -0.8330  0.1928  0.4484
  104SAPE  C21710627   2.546  -0.121   3.588  0.7245 -0.1161  0.2961
  104SAPE  H17R10628   2.549  -0.013   3.563 -0.8715  0.0159  0.5731
  104SAPE  H17S10629   2.650  -0.138   3.624  1.8030 -2.0080 -3.2384
  104SAPE  C21810630   2.446  -0.132   3.708  0.2454  0.0490  0.4089
  104SAPE  H18R10631   2.459  -0.239   3.737  2.4538 -0.5131 -2.1779
  104SAPE  H18S10632   2.347  -0.108   3.664 -0.5869 -3.8425 -0.1866
  104SAPE  C21910633   2.476  -0.028   3.823  0.0344  0.5448  0.4153
  104SAPE  H19R10634   2.475   0.076   3.785  0.0289  0.2037 -0.5297
  104SAPE  H19S10635   2.580  -0.052   3.856  0.6718 -0.3586 -1.9986
  104SAPE  C22010636   2.370  -0.027   3.934  0.8547 -0.5188  0.2182
  104SAPE  H20R10637   2.366  -0.124   3.987  2.1397 -0.1561  1.0178
  104SAPE  H20S10638   2.269  -0.012   3.890  0.4328  0.0743  1.3466
  104SAPE  H20T10639   2.381   0.061   4.001  0.6522 -0.7419  0.5463
  104SAPE   C3310640   3.800  -0.127   2.841 -0.6660 -0.2983  0.4227
  104SAPE   H3X10641   3.693  -0.101   2.856 -0.2757  1.2040  0.7107
  104SAPE   H3Y10642   3.865  -0.050   2.887  1.5860  0.2834 -3.3551
  104SAPE   C3410643   3.823  -0.266   2.919 -0.2499  0.5258 -0.1033
  104SAPE   H4X10644   3.933  -0.278   2.917 -0.3439 -0.7082  0.9009
  104SAPE   H4Y10645   3.769  -0.352   2.874 -0.0884  0.2277  0.2676
  104SAPE   C3510646   3.794  -0.245   3.067  0.3888 -0.3347 -0.4903
  104SAPE   H5X10647   3.689  -0.212   3.078  1.2853  2.1455  1.5682
  104SAPE   H5Y10648   3.863  -0.167   3.105  0.7468 -0.1764 -1.4314
  104SAPE   C3610649   3.818  -0.368   3.151 -0.0501  0.2947 -0.0230
  104SAPE   H6X10650   3.925  -0.396   3.149 -0.4993 -1.4875 -0.7989
  104SAPE   H6Y10651   3.760  -0.456   3.115 -1.3273  1.1248 -0.0487
  104SAPE   C3710652   3.787  -0.355   3.300 -0.4883  0.1326 -0.0619
  104SAPE   H7X10653   3.738  -0.448   3.334  1.4443 -1.1278 -0.5865
  104SAPE   H7Y10654   3.720  -0.268   3.320  0.3086  0.4922  1.1496
  104SAPE   C3810655   3.918  -0.343   3.390  0.3716  0.3066  0.1616
  104SAPE   H8X10656   3.986  -0.431   3.382 -0.1622 -0.1390  0.4320
  104SAPE   H8Y10657   3.887  -0.342   3.497 -0.8850 -0.3953 -0.1750
  104SAPE   C3910658   4.000  -0.221   3.364  0.1100  0.1609  0.0167
  104SAPE   H9X10659   3.930  -0.135   3.377  0.5130  0.8948 -2.2057
  104SAPE   H9Y10660   4.029  -0.216   3.257 -0.5530  0.2773 -0.1614
  104SAPE  C31010661   4.123  -0.197   3.450  0.0464  0.5230  0.3817
  104SAPE  H10X10662   4.189  -0.121   3.403 -1.7637  0.9650 -1.6083
  104SAPE  H10Y10663   4.194  -0.282   3.457 -0.6779 -0.0749  0.5875
  104SAPE  C31110664   4.089  -0.145   3.592 -0.5508  0.1569 -0.4181
  104SAPE  H11X10665   4.020  -0.221   3.636  0.6514 -0.5870  0.2312
  104SAPE  H11Y10666   4.039  -0.046   3.584  0.2673  0.6013 -0.0943
  104SAPE  C31210667   4.212  -0.135   3.671  0.3646 -0.4034 -0.2331
  104SAPE  H12X10668   4.288  -0.069   3.623 -0.8131  2.1548  1.2492
  104SAPE  H12Y10669   4.278  -0.224   3.674  0.0684 -0.6328 -0.4592
  104SAPE  C31310670   4.185  -0.096   3.814  0.0717  0.1549 -0.2659
  104SAPE  H13X10671   4.102  -0.163   3.843 -0.7203  0.2713 -2.0815
  104SAPE  H13Y10672   4.139   0.004   3.826  0.0235  0.2329 -1.0048
  104SAPE  C31410673   4.314  -0.096   3.898  0.1884  0.3165 -0.0643
  104SAPE  H14X10674   4.400  -0.041   3.854  0.7192 -0.4097  0.0523
  104SAPE  H14Y10675   4.342  -0.203   3.897  0.5108  0.3974 -1.3091
  104SAPE  C31510676   4.298  -0.047   4.047  0.6051 -0.4202  0.1440
  104SAPE  H15X10677   4.259   0.057   4.040 -3.6606 -1.8160  0.1324
  104SAPE  H15Y10678   4.400  -0.060   4.089  1.6944  0.1206 -2.1877
  104SAPE  C31610679   4.194  -0.125   4.134  0.3245  0.5122  0.2096
  104SAPE  H16X10680   4.186  -0.222   4.081 -1.9958  1.1298 -0.6986
  104SAPE  H16Y10681   4.095  -0.076   4.119  0.6907  0.9731 -0.8165
  104SAPE  C31710682   4.238  -0.134   4.280  0.9411 -0.4873  0.2283
  104SAPE  H17X10683   4.338  -0.182   4.295  0.9309 -0.6210 -0.1440
  104SAPE  H17Y10684   4.165  -0.194   4.339  0.2337  1.8056  1.8563
  104SAPE  C31810685   4.236  -0.000   4.350 -0.6404 -0.0583  0.5403
  104SAPE  H18X10686   4.249  -0.018   4.459  0.1852 -0.0092  0.4623
  104SAPE  H18Y10687   4.152   0.069   4.330  0.6226  1.5565  0.5603
  104SAPE  H18Z10688   4.323   0.062   4.321  0.1346 -0.8571  1.0855
  105SAPE     N10689   3.905   6.214   1.780 -0.9263  0.4289 -0.3347
  105SAPE   HN110690   3.891   6.174   1.876  1.0143  0.5825  0.0697
  105SAPE   HN210691   3.854   6.304   1.777 -2.2099 -0.2993 -0.9407
  105SAPE   HN310692   3.868   6.145   1.712  2.3520 -2.3832  0.4311
  105SAPE   C1210693   4.051   6.221   1.735  0.8267  0.4340 -0.0091
  105SAPE  H12A10694   4.111   6.278   1.809 -0.5219  0.2762  1.2551
  105SAPE  H12B10695   4.048   6.286   1.645  0.1081  2.0318  1.1210
  105SAPE   C1110696   4.109   6.082   1.719 -0.0428 -0.3013  0.4238
  105SAPE  H11A10697   4.205   6.089   1.663 -0.1843 -1.3664  0.0162
  105SAPE  H11B10698   4.048   6.029   1.643  1.4950 -2.1260  0.3821
  105SAPE     P10699   4.222   6.033   1.944  0.4422  0.2896  0.0703
  105SAPE   O1310700   4.234   5.918   2.038  0.2824  0.3736 -0.3296
  105SAPE   O1410701   4.343   6.084   1.880 -0.3110  0.3816  0.0206
  105SAPE   O1210702   4.122   5.991   1.831 -0.2381  0.0862 -0.4082
  105SAPE   O1110703   4.143   6.146   2.018 -0.1868  0.0521  0.2900
  105SAPE    C110704   4.202   6.225   2.125 -0.3496 -0.4007 -0.5039
  105SAPE    HA10705   4.306   6.203   2.157 -0.2848  1.2669  0.5635
  105SAPE    HB10706   4.197   6.331   2.091  0.8400 -0.3752 -0.6652
  105SAPE    C210707   4.111   6.206   2.255 -0.6523 -0.4305  0.5482
  105SAPE    HS10708   4.008   6.222   2.219 -0.8123 -1.5427  0.4778
  105SAPE   O2110709   4.162   6.293   2.351 -0.3104  0.2822 -0.4450
  105SAPE   C2110710   4.077   6.347   2.437  0.6360 -0.5449  0.3449
  105SAPE   O2210711   3.959   6.325   2.436  0.4037  0.0252  0.9856
  105SAPE   C2210712   4.148   6.445   2.530 -0.3510  0.1796 -0.5797
  105SAPE   H2R10713   4.230   6.492   2.472 -0.8764  1.2519 -0.4793
  105SAPE   H2S10714   4.071   6.518   2.563 -0.7599 -0.8520  0.9000
  105SAPE    C310715   4.107   6.062   2.309 -0.1864 -0.9626 -0.4781
  105SAPE    HX10716   4.206   6.050   2.358 -1.7013  0.3556  3.2990
  105SAPE    HY10717   4.106   5.992   2.223  0.4235 -0.9734 -0.4811
  105SAPE   O3110718   4.007   6.035   2.408  0.0868 -0.7014  0.3217
  105SAPE   C3110719   3.898   5.976   2.370  0.9522  0.3213 -0.6432
  105SAPE   O3210720   3.865   5.934   2.261  0.8684  0.2331  0.6655
  105SAPE   C3210721   3.805   5.965   2.495  0.2275  0.0636  0.6258
  105SAPE   H2X10722   3.868   5.948   2.585 -0.5113  0.1724  1.1736
  105SAPE   H2Y10723   3.726   5.888   2.482 -2.0385  2.3714 -0.1568
  105SAPE   C2310724   4.209   6.374   2.655 -0.5089 -0.5065 -0.0377
  105SAPE   H3R10725   4.262   6.464   2.692  0.4723 -0.9970 -0.2313
  105SAPE   H3S10726   4.276   6.289   2.634 -1.8493 -1.6151  0.0071
  105SAPE   C2410727   4.102   6.312   2.752 -0.1842  0.2102 -0.0807
  105SAPE   H4R10728   4.006   6.366   2.756 -0.7513 -0.5200 -2.2948
  105SAPE   H4S10729   4.145   6.316   2.854  0.3387  0.6224 -0.3079
  105SAPE   C2510730   4.069   6.172   2.706  0.2867  0.4773 -0.2401
  105SAPE   H5R10731   4.022   6.160   2.607  1.1290  0.2212 -0.6256
  105SAPE   C2610732   4.086   6.064   2.788 -0.9814 -0.5460  0.4759
  105SAPE   H6R10733   4.071   5.961   2.753 -2.2112 -0.9270  1.9804
  105SAPE   C2710734   4.140   6.072   2.929  0.5145  0.1134  0.0825
  105SAPE   H7R10735   4.216   6.152   2.944 -2.4535  2.9873  0.9751
  105SAPE   H7S10736   4.189   5.974   2.948  0.5758  0.4792  2.0130
  105SAPE   C2810737   4.024   6.090   3.018 -0.3820 -0.4437  0.0550
  105SAPE   H8R10738   3.929   6.125   2.974 -0.5593 -1.3248 -0.2923
  105SAPE   C2910739   4.007   6.071   3.149 -0.1602  0.9046  0.1339
  105SAPE   H9R10740   3.908   6.088   3.194 -0.2928  1.0131 -0.1939
  105SAPE  C21010741   4.109   6.003   3.235  0.2016  0.2354 -0.0610
  105SAPE  H10R10742   4.168   6.073   3.298  5.4066 -3.2452 -0.3554
  105SAPE  H10S10743   4.187   5.953   3.172  1.2022 -1.3919  2.3123
  105SAPE  C21110744   4.048   5.897   3.330 -0.1620 -0.1070 -0.0204
  105SAPE  H11R10745   4.010   5.810   3.275  2.0481  0.3150 -2.4381
  105SAPE  C21210746   4.028   5.911   3.466  0.5227  0.5693 -0.1939
  105SAPE  H12R10747   3.989   5.823   3.519  1.4532  0.7747  0.8762
  105SAPE  C21310748   4.058   6.018   3.563 -0.5405  0.2973 -0.1802
  105SAPE  H13R10749   3.966   6.072   3.594  0.4475  2.5517 -0.9847
  105SAPE  H13S10750   4.110   6.101   3.511 -1.5762 -0.4276 -2.5040
  105SAPE  C21410751   4.134   5.979   3.682 -0.0227  0.0293 -0.7053
  105SAPE  H14R10752   4.242   5.984   3.664  0.0357  1.7903 -0.0562
  105SAPE  C21510753   4.087   5.933   3.801 -0.5082 -0.1238  0.3873
  105SAPE  H15R10754   4.159   5.897   3.877  1.0467  1.0551 -0.4675
  105SAPE  C21610755   3.938   5.922   3.838 -0.4850 -0.3047 -0.2396
  105SAPE  H16R10756   3.880   5.882   3.752  1.3646 -0.5092 -1.4415
  105SAPE  H16S10757   3.894   6.020   3.865 -0.6595 -0.7236  1.0472
  105SAPE  C21710758   3.919   5.829   3.959  0.7162 -0.0191  0.5969
  105SAPE  H17R10759   3.955   5.727   3.931 -0.3228 -0.4538  0.7741
  105SAPE  H17S10760   3.810   5.815   3.975  0.6871 -2.0633 -0.8512
  105SAPE  C21810761   3.983   5.888   4.082 -0.1573 -0.0735  0.3702
  105SAPE  H18R10762   3.966   5.996   4.101  0.2677  0.1213 -0.3318
  105SAPE  H18S10763   4.094   5.883   4.073 -0.1065 -1.1344  1.2646
  105SAPE  C21910764   3.959   5.804   4.206  0.0632  0.6739  0.3408
  105SAPE  H19R10765   3.856   5.820   4.244  0.5711  2.8002  1.0121
  105SAPE  H19S10766   4.020   5.844   4.290  1.5552 -0.0924 -0.3244
  105SAPE  C22010767   3.987   5.650   4.198  0.3553  0.6994  0.1819
  105SAPE  H20R10768   3.949   5.609   4.294 -0.2842  0.7805 -0.0317
  105SAPE  H20S10769   4.094   5.621   4.201 -0.5917 -3.3664  2.4772
  105SAPE  H20T10770   3.936   5.592   4.118 -0.3764  0.1694  1.0129
  105SAPE   C3310771   3.719   6.096   2.518  0.4444 -0.3933 -0.2374
  105SAPE   H3X10772   3.663   6.124   2.426 -1.0171  0.5763  0.9095
  105SAPE   H3Y10773   3.769   6.188   2.555 -1.7078  0.5361  0.5065
  105SAPE   C3410774   3.613   6.071   2.631  0.0559 -0.4301 -0.0201
  105SAPE   H4X10775   3.582   5.965   2.620 -0.7449 -0.2028 -0.0060
  105SAPE   H4Y10776   3.531   6.146   2.629  0.9566  0.7230  2.2628
  105SAPE   C3510777   3.673   6.082   2.776  0.0989 -0.8127  0.1795
  105SAPE   H5X10778   3.689   6.190   2.793 -1.7103 -0.4838 -0.0225
  105SAPE   H5Y10779   3.774   6.036   2.782  0.3705 -0.1814  0.5163
  105SAPE   C3610780   3.578   6.025   2.883 -0.2003  0.6023  0.5012
  105SAPE   H6X10781   3.568   5.914   2.875 -1.4984  0.7904 -0.8989
  105SAPE   H6Y10782   3.476   6.066   2.868 -0.9256 -0.9721  0.9092
  105SAPE   C3710783   3.620   6.075   3.018  1.0701  0.4473 -0.1488
  105SAPE   H7X10784   3.632   6.185   3.015  2.1044  0.3325 -1.9209
  105SAPE   H7Y10785   3.723   6.040   3.040  1.3711  1.3441 -0.0792
  105SAPE   C3810786   3.530   6.040   3.137 -0.3121 -0.3735 -1.3530
  105SAPE   H8X10787   3.514   5.930   3.133 -2.8207 -0.0385 -2.6469
  105SAPE   H8Y10788   3.434   6.094   3.119 -0.8542 -0.5699  0.6332
  105SAPE   C3910789   3.595   6.074   3.279  0.5246 -0.0178  0.0646
  105SAPE   H9X10790   3.589   6.184   3.298 -1.2845  0.1039 -1.0004
  105SAPE   H9Y10791   3.702   6.045   3.271  0.6807  1.0446 -3.3372
  105SAPE  C31010792   3.525   6.002   3.396 -0.3219  0.0030 -0.3580
  105SAPE  H10X10793   3.548   5.894   3.406  1.1356  0.1263 -1.8021
  105SAPE  H10Y10794   3.415   6.014   3.392 -0.1154  2.4656 -0.6257
  105SAPE  C31110795   3.575   6.073   3.527 -0.7173  0.2796 -0.5084
  105SAPE  H11X10796   3.548   6.181   3.535  1.8273  1.1032 -1.7783
  105SAPE  H11Y10797   3.685   6.062   3.532 -0.8966 -0.9349  3.1218
  105SAPE  C31210798   3.522   6.001   3.650  0.2357 -0.0136 -0.5283
  105SAPE  H12X10799   3.537   5.891   3.645 -1.3281 -0.3875  1.2866
  105SAPE  H12Y10800   3.411   6.013   3.646  0.0436 -0.1650  2.2291
  105SAPE  C31310801   3.586   6.053   3.779  0.0678 -0.5059 -0.2964
  105SAPE  H13X10802   3.689   6.092   3.761  1.7860 -2.5829  3.7177
  105SAPE  H13Y10803   3.591   5.967   3.849 -0.2194 -1.8203 -1.8226
  105SAPE  C31410804   3.492   6.166   3.841 -0.2836 -0.2156 -0.3696
  105SAPE  H14X10805   3.394   6.121   3.868 -0.2558 -0.1042 -0.0774
  105SAPE  H14Y10806   3.460   6.239   3.764 -2.6043  1.4849  2.0394
  105SAPE  C31510807   3.556   6.229   3.972  0.7001 -0.0465 -0.1765
  105SAPE  H15X10808   3.653   6.280   3.955  0.3390  1.3023  1.5531
  105SAPE  H15Y10809   3.569   6.151   4.050 -2.9251 -2.0444 -1.3362
  105SAPE  C31610810   3.455   6.329   4.026  0.4211  0.3091 -0.4676
  105SAPE  H16X10811   3.362   6.281   4.064  0.9858  0.6787  1.4728
  105SAPE  H16Y10812   3.429   6.390   3.938 -1.1598 -0.6913 -0.7414
  105SAPE  C31710813   3.507   6.432   4.127 -0.2985  0.1092  0.1896
  105SAPE  H17X10814   3.616   6.445   4.114 -0.2162 -0.4930  0.2113
  105SAPE  H17Y10815   3.492   6.398   4.232 -1.0624 -0.5945 -0.1244
  105SAPE  C31810816   3.441   6.574   4.112 -0.1255  0.4822 -0.3423
  105SAPE  H18X10817   3.499   6.641   4.179  1.5863 -0.0974 -1.1589
  105SAPE  H18Y10818   3.336   6.572   4.147  0.8514 -0.3087  2.8680
  105SAPE  H18Z10819   3.448   6.614   4.008 -0.3727  2.2462  0.2904
  106SAPE     N10820   0.696   1.935   2.151  0.1639 -0.0359 -0.5275
  106SAPE   HN110821   0.653   2.024   2.118 -1.7490 -0.8541 -0.3453
  106SAPE   HN210822   0.798   1.932   2.131 -0.0265  0.7436 -1.7249
  106SAPE   HN310823   0.670   1.851   2.095 -1.4585  1.3064 -1.8732
  106SAPE   C1210824   0.671   1.908   2.301  0.2978 -0.4104 -0.7932
  106SAPE  H12A10825   0.563   1.929   2.308  0.6608  1.2954  0.1672
  106SAPE  H12B10826   0.718   1.992   2.357 -0.3156  0.5899 -1.7527
  106SAPE   C1110827   0.728   1.775   2.354 -0.0931  0.1652  0.1164
  106SAPE  H11A10828   0.665   1.695   2.311  1.0753 -0.2194 -0.9058
  106SAPE  H11B10829   0.712   1.774   2.464 -0.5982 -1.0586  0.0501
  106SAPE     P10830   0.942   1.618   2.311 -0.0290 -0.3920 -0.1453
  106SAPE   O1310831   0.937   1.569   2.170  0.0016 -0.5100 -0.4397
  106SAPE   O1410832   1.073   1.613   2.378 -0.3690 -0.1069  0.7200
  106SAPE   O1210833   0.863   1.751   2.315 -0.4553 -0.0526  0.1520
  106SAPE   O1110834   0.848   1.527   2.400  0.9539 -0.5283 -1.1507
  106SAPE    C110835   0.886   1.501   2.535  0.4056  0.1751 -0.3643
  106SAPE    HA10836   0.892   1.392   2.556 -0.3453  0.4583  1.5950
  106SAPE    HB10837   0.983   1.538   2.575 -0.3722  1.6481  0.2352
  106SAPE    C210838   0.778   1.548   2.635  0.5951  0.4969 -0.4328
  106SAPE    HS10839   0.774   1.659   2.632 -3.4235  0.6216  2.0979
  106SAPE   O2110840   0.811   1.506   2.767 -0.1818 -0.4358  0.0688
  106SAPE   C2110841   0.893   1.592   2.832  0.4198  0.0874 -1.0825
  106SAPE   O2210842   0.935   1.699   2.788  0.5999  0.2466  0.3230
  106SAPE   C2210843   0.935   1.544   2.973  0.2651  0.4477 -0.7782
  106SAPE   H2R10844   0.849   1.484   3.009 -0.6545  1.0448 -1.9447
  106SAPE   H2S10845   1.020   1.474   2.958  0.4776  0.7876 -1.2120
  106SAPE    C310846   0.631   1.498   2.601 -0.3340 -0.0132 -0.3562
  106SAPE    HX10847   0.634   1.387   2.596 -0.3841 -0.0877  0.8409
  106SAPE    HY10848   0.612   1.558   2.510  1.0556  2.0346  0.6093
  106SAPE   O3110849   0.539   1.528   2.707  0.6363 -0.1187 -0.3502
  106SAPE   C3110850   0.496   1.646   2.728  0.3763 -0.2754  0.7153
  106SAPE   O3210851   0.491   1.734   2.638  0.1552 -0.3677  0.5154
  106SAPE   C3210852   0.447   1.671   2.868 -0.1203  0.4816 -0.8306
  106SAPE   H2X10853   0.533   1.647   2.934 -2.1201  0.7794  2.1246
  106SAPE   H2Y10854   0.377   1.588   2.892  1.4956 -0.5329  0.6390
  106SAPE   C2310855   0.970   1.654   3.075 -0.5686  0.4676 -0.3014
  106SAPE   H3R10856   1.044   1.722   3.028 -0.3023  0.2122 -0.2546
  106SAPE   H3S10857   1.028   1.609   3.158 -2.1246 -0.0845  0.5358
  106SAPE   C2410858   0.845   1.727   3.135 -0.2353 -0.2616 -0.1610
  106SAPE   H4R10859   0.808   1.799   3.060 -1.9819 -0.3372  0.5674
  106SAPE   H4S10860   0.884   1.792   3.216  3.6039  0.1304 -2.1197
  106SAPE   C2510861   0.742   1.635   3.188 -0.2196 -0.3249  0.1787
  106SAPE   H5R10862   0.646   1.636   3.133  1.1025  1.1872 -2.2905
  106SAPE   C2610863   0.743   1.568   3.308  0.2371  1.0109 -0.2088
  106SAPE   H6R10864   0.659   1.498   3.324  1.1079 -0.2276 -0.8527
  106SAPE   C2710865   0.842   1.568   3.421 -0.1224  0.6649  0.0339
  106SAPE   H7R10866   0.818   1.647   3.496  3.1219  0.1607  1.7808
  106SAPE   H7S10867   0.947   1.589   3.392  0.6070 -2.1754  0.2733
  106SAPE   C2810868   0.847   1.430   3.487  0.2980 -0.4569  0.5346
  106SAPE   H8R10869   0.822   1.343   3.423 -0.2794  1.0187 -1.3507
  106SAPE   C2910870   0.882   1.407   3.612 -0.2764 -0.2855 -0.5228
  106SAPE   H9R10871   0.872   1.301   3.639  2.0922 -0.5553 -0.5303
  106SAPE  C21010872   0.926   1.513   3.716 -0.4326 -0.3539  0.8312
  106SAPE  H10R10873   0.836   1.546   3.772 -1.9649  1.7577 -2.4948
  106SAPE  H10S10874   0.951   1.609   3.665  1.5764 -0.9097  0.6914
  106SAPE  C21110875   1.047   1.477   3.793  0.0059 -0.1582  0.5767
  106SAPE  H11R10876   1.140   1.461   3.735 -0.0768 -3.3545  1.1368
  106SAPE  C21210877   1.055   1.464   3.927 -0.2189  1.0395  0.3903
  106SAPE  H12R10878   1.152   1.434   3.969 -0.2215 -2.7066 -1.7966
  106SAPE  C21310879   0.939   1.473   4.022  0.2664 -0.7057 -0.1351
  106SAPE  H13R10880   0.886   1.378   4.044 -0.2229  0.1650  3.1217
  106SAPE  H13S10881   0.862   1.542   3.981 -0.2812 -0.9104  0.5280
  106SAPE  C21410882   0.973   1.535   4.161  0.1071 -0.0428 -0.1800
  106SAPE  H14R10883   0.996   1.456   4.234  0.1603 -0.0824 -0.2398
  106SAPE  C21510884   0.985   1.665   4.199  0.0274 -0.2074 -0.3109
  106SAPE  H15R10885   1.007   1.685   4.305 -0.0265  1.8875 -0.6623
  106SAPE  C21610886   0.949   1.784   4.115 -0.6540 -0.3784 -0.2019
  106SAPE  H16R10887   0.956   1.761   4.007 -0.8871  1.7333 -0.6964
  106SAPE  H16S10888   1.014   1.870   4.142 -1.3773 -0.4520  2.0308
  106SAPE  C21710889   0.812   1.834   4.148  0.3181 -0.5039 -0.2648
  106SAPE  H17R10890   0.827   1.880   4.248  1.6366  0.3954 -0.8543
  106SAPE  H17S10891   0.740   1.751   4.164 -0.8847  0.8932  2.0973
  106SAPE  C21810892   0.743   1.937   4.050  0.0330  0.3424  0.0813
  106SAPE  H18R10893   0.747   1.887   3.951  1.7901  1.8798 -0.6839
  106SAPE  H18S10894   0.815   2.021   4.034  1.6982 -0.6503  1.8482
  106SAPE  C21910895   0.599   1.968   4.069 -0.2871 -0.8938 -0.0526
  106SAPE  H19R10896   0.580   2.035   3.983  0.3710  0.1394  0.5830
  106SAPE  H19S10897   0.587   2.016   4.169  1.8571 -0.3089 -0.0280
  106SAPE  C22010898   0.501   1.842   4.060 -0.7665  0.3314 -0.1030
  106SAPE  H20R10899   0.398   1.878   4.080 -0.3963  0.3131  1.9927
  106SAPE  H20S10900   0.523   1.772   4.144 -0.4904  1.3731  0.7082
  106SAPE  H20T10901   0.513   1.795   3.959 -2.5550 -0.2097 -0.1059
  106SAPE   C3310902   0.394   1.809   2.888  0.5355 -0.0319 -0.3852
  106SAPE   H3X10903   0.308   1.837   2.824 -1.6497  1.2587  2.8266
  106SAPE   H3Y10904   0.455   1.893   2.850 -2.5551  2.3323 -0.5059
  106SAPE   C3410905   0.338   1.847   3.034 -0.1512  0.1081  0.5624
  106SAPE   H4X10906   0.291   1.948   3.024  1.1678  0.8274  1.2651
  106SAPE   H4Y10907   0.417   1.866   3.111  0.7268 -0.2338 -0.2298
  106SAPE   C3510908   0.241   1.740   3.098  0.3668  0.2372  0.6079
  106SAPE   H5X10909   0.296   1.644   3.099 -1.9316 -1.1531  1.6060
  106SAPE   H5Y10910   0.155   1.745   3.027  1.2990  0.0707 -0.5681
  106SAPE   C3610911   0.192   1.778   3.245  0.7383 -0.2109  0.7870
  106SAPE   H6X10912   0.281   1.781   3.311 -0.7827 -2.6126  3.1391
  106SAPE   H6Y10913   0.129   1.697   3.287  0.5045 -2.1046 -2.7748
  106SAPE   C3710914   0.118   1.915   3.261  0.2919  0.3696 -0.2222
  106SAPE   H7X10915   0.033   1.937   3.193  1.3639  0.3889 -1.6082
  106SAPE   H7Y10916   0.192   1.998   3.252  0.3312  0.6651  2.2562
  106SAPE   C3810917   0.068   1.930   3.414  0.3556  0.5838 -0.0848
  106SAPE   H8X10918   0.147   1.910   3.489 -0.3919 -0.3883  0.4609
  106SAPE   H8Y10919  -0.015   1.857   3.420  1.1551 -0.3010  0.4202
  106SAPE   C3910920   0.014   2.071   3.441 -0.1224 -0.0830 -0.0505
  106SAPE   H9X10921  -0.060   2.099   3.363  1.5692  1.0354 -1.3412
  106SAPE   H9Y10922   0.104   2.134   3.423 -1.9391  3.8190  2.8304
  106SAPE  C31010923  -0.022   2.098   3.588 -0.0122  0.2670 -0.0419
  106SAPE  H10X10924  -0.024   2.208   3.601  0.5758 -0.0092  3.1399
  106SAPE  H10Y10925   0.070   2.059   3.638 -0.1288  0.7065  0.5172
  106SAPE  C31110926  -0.149   2.027   3.608  0.7776 -0.6050  0.2023
  106SAPE  H11X10927  -0.129   1.918   3.615  2.5938 -0.3113  0.2252
  106SAPE  H11Y10928  -0.215   2.030   3.519 -0.9663 -1.3460  1.4299
  106SAPE  C31210929  -0.227   2.064   3.735  0.5858  0.0865 -0.0814
  106SAPE  H12X10930  -0.254   2.172   3.745  0.8197  0.4241 -2.4629
  106SAPE  H12Y10931  -0.156   2.034   3.815  0.8809  1.3296  0.1536
  106SAPE  C31310932  -0.358   1.981   3.742  0.4018 -1.0788 -0.2943
  106SAPE  H13X10933  -0.342   1.876   3.708  0.0038 -1.4981  0.7847
  106SAPE  H13Y10934  -0.422   2.028   3.664  1.8508 -1.7129 -1.9484
  106SAPE  C31410935  -0.442   1.989   3.877 -0.2412 -0.2089 -0.1306
  106SAPE  H14X10936  -0.536   1.930   3.881 -0.0376 -0.4896  3.1579
  106SAPE  H14Y10937  -0.474   2.095   3.879  2.9747  0.9060 -1.0215
  106SAPE  C31510938  -0.367   1.954   4.000 -0.4789 -0.4621 -0.0543
  106SAPE  H15X10939  -0.270   2.007   4.006 -0.8034  0.0952  0.5103
  106SAPE  H15Y10940  -0.356   1.844   4.002  0.1982 -0.3860  1.0728
  106SAPE  C31610941  -0.437   1.992   4.129 -0.3051 -0.4303 -0.0728
  106SAPE  H16X10942  -0.495   1.909   4.174  0.3733  0.1782  2.0362
  106SAPE  H16Y10943  -0.501   2.078   4.100 -0.3048 -0.7144 -0.9483
  106SAPE  C31710944  -0.341   2.031   4.237 -0.2696 -0.5249 -0.0474
  106SAPE  H17X10945  -0.399   2.083   4.316 -0.9529  1.0207 -1.4941
  106SAPE  H17Y10946  -0.267   2.103   4.195  0.6180 -1.9248 -0.9928
  106SAPE  C31810947  -0.253   1.920   4.291  0.1248  0.5177  0.1693
  106SAPE  H18X10948  -0.181   1.965   4.362 -1.2912  0.9117  1.4090
  106SAPE  H18Y10949  -0.207   1.862   4.208 -0.8289 -0.9951  0.6410
  106SAPE  H18Z10950  -0.310   1.837   4.338 -0.5348  0.2823 -0.9849
  107SAPE     N10951   1.279   1.603   2.554 -0.2191 -0.5844  0.1137
  107SAPE   HN110952   1.265   1.680   2.623  0.8749  2.0611 -2.3846
  107SAPE   HN210953   1.210   1.631   2.480  3.4940  0.4091 -3.3232
  107SAPE   HN310954   1.242   1.517   2.598 -1.2131 -0.1092  0.2431
  107SAPE   C1210955   1.412   1.590   2.495 -0.4327 -0.4337  0.4510
  107SAPE  H12A10956   1.407   1.594   2.384 -0.0058  2.1919  0.4692
  107SAPE  H12B10957   1.443   1.487   2.521  0.4272 -0.2542  0.1843
  107SAPE   C1110958   1.510   1.697   2.522 -0.3373  0.5073  0.1733
  107SAPE  H11A10959   1.604   1.666   2.472 -0.4928  1.0659 -0.4845
  107SAPE  H11B10960   1.519   1.722   2.630 -1.2174 -0.1153  0.4055
  107SAPE     P10961   1.558   1.935   2.425 -0.0129 -0.0450 -0.1406
  107SAPE   O1310962   1.679   1.901   2.345  0.3244  0.2743  0.1495
  107SAPE   O1410963   1.474   2.039   2.366 -0.5563  0.3708 -0.0614
  107SAPE   O1210964   1.463   1.809   2.457 -0.1624  0.0788  0.8240
  107SAPE   O1110965   1.607   1.976   2.570  0.1478 -0.1045 -0.1844
  107SAPE    C110966   1.502   2.021   2.657 -0.4219 -0.0832  0.8136
  107SAPE    HA10967   1.503   2.132   2.646  0.5979 -0.1662 -0.1324
  107SAPE    HB10968   1.402   1.977   2.638 -1.0499  1.2749  0.8631
  107SAPE    C210969   1.532   1.987   2.803  0.3495 -0.6841 -0.0682
  107SAPE    HS10970   1.532   1.879   2.829  0.1017 -0.8108 -0.5951
  107SAPE   O2110971   1.428   2.056   2.874  0.6047 -0.2767  0.0721
  107SAPE   C2110972   1.386   2.005   2.994 -0.3632  0.1140 -0.4405
  107SAPE   O2210973   1.429   1.904   3.045 -0.3285  0.4133 -0.4759
  107SAPE   C2210974   1.266   2.088   3.050  0.3642 -0.8831  0.9203
  107SAPE   H2R10975   1.301   2.177   3.106 -0.6128  1.6658 -2.2394
  107SAPE   H2S10976   1.212   2.122   2.960  1.2339  2.4870  1.5402
  107SAPE    C310977   1.670   2.038   2.851 -0.3414 -0.7614  0.2174
  107SAPE    HX10978   1.677   2.147   2.828  1.0615 -1.3287 -2.3710
  107SAPE    HY10979   1.746   1.986   2.790 -1.0970 -0.6298 -0.8530
  107SAPE   O3110980   1.679   2.015   2.993 -0.0879  0.4195 -0.3851
  107SAPE   C3110981   1.732   1.895   3.032  0.2050  0.5807 -0.2615
  107SAPE   O3210982   1.784   1.812   2.961  0.4519 -0.1481  0.0692
  107SAPE   C3210983   1.713   1.878   3.186 -0.0146 -0.1548  0.0706
  107SAPE   H2X10984   1.604   1.890   3.205 -0.2073  0.3776 -1.2491
  107SAPE   H2Y10985   1.769   1.960   3.235  1.3405  0.0619 -1.7339
  107SAPE   C2310986   1.162   2.015   3.133  0.5673  0.0189 -0.2701
  107SAPE   H3R10987   1.159   1.909   3.100  1.3347  0.3009 -1.3112
  107SAPE   H3S10988   1.061   2.057   3.117 -0.4166 -1.7707  0.8765
  107SAPE   C2410989   1.200   2.012   3.288  0.2880  0.0090 -0.1240
  107SAPE   H4R10990   1.106   1.988   3.340  0.2289  1.0886  0.2970
  107SAPE   H4S10991   1.224   2.111   3.333 -0.0492 -0.3624  0.8839
  107SAPE   C2510992   1.296   1.904   3.329  0.2443 -0.0087  0.2583
  107SAPE   H5R10993   1.331   1.849   3.240 -3.5390 -0.0355 -1.4042
  107SAPE   C2610994   1.334   1.861   3.453  0.1210 -0.0947  0.0746
  107SAPE   H6R10995   1.417   1.789   3.455  0.6553  0.5054 -0.0520
  107SAPE   C2710996   1.278   1.925   3.581 -0.2831  0.1541  0.0031
  107SAPE   H7R10997   1.235   2.026   3.561  2.4336  1.1117 -1.6976
  107SAPE   H7S10998   1.356   1.934   3.660 -0.3498  0.3875  0.0448
  107SAPE   C2810999   1.174   1.827   3.628 -0.3015  0.3476  0.0321
  107SAPE   H8R11000   1.199   1.722   3.610  1.7544  0.7266  0.4120
  107SAPE   C2911001   1.060   1.857   3.686 -0.3576 -0.2770  0.2899
  107SAPE   H9R11002   0.996   1.777   3.726 -0.1194  0.3967  2.1300
  107SAPE  C21011003   1.013   1.998   3.724 -0.1008 -0.3519  0.5873
  107SAPE  H10R11004   1.083   2.074   3.682 -0.2715  0.0662  1.0417
  107SAPE  H10S11005   1.029   2.001   3.834  0.5894 -0.1580  0.4880
  107SAPE  C21111006   0.878   2.032   3.673 -0.0956  0.5495 -0.0908
  107SAPE  H11R11007   0.850   1.977   3.582 -0.1667  1.2197 -0.4785
  107SAPE  C21211008   0.811   2.135   3.721  0.1713  0.5145  0.1745
  107SAPE  H12R11009   0.712   2.160   3.680 -1.2846  0.2056  3.1950
  107SAPE  C21311010   0.862   2.226   3.832  0.4905 -0.3761  0.1200
  107SAPE  H13R11011   0.931   2.305   3.794 -0.2997  1.0165  1.4771
  107SAPE  H13S11012   0.931   2.179   3.906  0.1808  0.5247  1.0016
  107SAPE  C21411013   0.744   2.301   3.894 -0.8199 -0.3724  0.0505
  107SAPE  H14R11014   0.684   2.363   3.825 -0.7738  0.3814  0.6693
  107SAPE  C21511015   0.729   2.337   4.023  0.4553  0.0646  0.1535
  107SAPE  H15R11016   0.648   2.409   4.042  0.8648  1.1939 -1.9961
  107SAPE  C21611017   0.825   2.306   4.138 -0.3106  0.5985  0.8719
  107SAPE  H16R11018   0.896   2.230   4.100 -1.1576  0.2299 -0.0025
  107SAPE  H16S11019   0.765   2.247   4.211 -1.6336 -1.5796 -1.7839
  107SAPE  C21711020   0.888   2.432   4.197 -0.2412  0.4392  0.4952
  107SAPE  H17R11021   0.816   2.507   4.236 -0.4419  0.7254 -0.3969
  107SAPE  H17S11022   0.941   2.482   4.113 -1.6933 -1.0803 -1.4353
  107SAPE  C21811023   0.988   2.391   4.299  0.5467  0.6713 -0.5825
  107SAPE  H18R11024   1.064   2.321   4.257  1.0901 -0.1985  1.6882
  107SAPE  H18S11025   0.936   2.328   4.375  0.7669  1.2008  0.0120
  107SAPE  C21911026   1.080   2.496   4.354  0.6431 -0.1480 -0.4164
  107SAPE  H19R11027   1.011   2.571   4.397  1.3251  0.8840 -1.0588
  107SAPE  H19S11028   1.126   2.556   4.272  0.4509  0.4318 -0.1110
  107SAPE  C22011029   1.185   2.447   4.453  0.4603 -0.4023  0.1767
  107SAPE  H20R11030   1.276   2.511   4.447 -1.0309  1.7410 -0.7235
  107SAPE  H20S11031   1.218   2.344   4.429  1.2218 -0.1463  0.0784
  107SAPE  H20T11032   1.140   2.431   4.553  0.3161  0.6822  0.2984
  107SAPE   C3311033   1.774   1.745   3.232  0.8434  0.0137 -0.5626
  107SAPE   H3X11034   1.885   1.755   3.231  0.9563 -0.9867 -2.4828
  107SAPE   H3Y11035   1.734   1.659   3.174 -2.7272  0.7982  0.4905
  107SAPE   C3411036   1.732   1.712   3.378  0.1257  0.4228  0.2368
  107SAPE   H4X11037   1.774   1.610   3.391  0.7072 -0.1253 -4.2855
  107SAPE   H4Y11038   1.622   1.725   3.369  0.3503  1.4634 -1.7315
  107SAPE   C3511039   1.788   1.810   3.484  0.0086 -0.1563  0.7283
  107SAPE   H5X11040   1.769   1.915   3.454 -0.1292 -0.6114 -0.9351
  107SAPE   H5Y11041   1.898   1.798   3.481 -0.2020 -3.0890 -3.0924
  107SAPE   C3611042   1.739   1.778   3.622  0.5721 -0.7961  0.0008
  107SAPE   H6X11043   1.769   1.672   3.635 -0.9663 -1.1756  0.6567
  107SAPE   H6Y11044   1.629   1.785   3.639  0.9369  2.1867  2.0386
  107SAPE   C3711045   1.799   1.855   3.738 -0.6054  0.1355  0.1398
  107SAPE   H7X11046   1.758   1.958   3.734 -1.3500 -0.1809 -1.5573
  107SAPE   H7Y11047   1.906   1.877   3.721 -0.7609  1.3925  0.7024
  107SAPE   C3811048   1.766   1.811   3.883  0.7361  0.3363  0.1526
  107SAPE   H8X11049   1.824   1.719   3.904 -0.3883 -0.4912 -0.3359
  107SAPE   H8Y11050   1.657   1.792   3.890  0.9415 -1.8787 -1.6358
  107SAPE   C3911051   1.804   1.929   3.974 -1.0397  0.4185  0.2046
  107SAPE   H9X11052   1.742   2.020   3.956 -2.3359 -0.5851 -0.6266
  107SAPE   H9Y11053   1.910   1.945   3.946 -1.5730  0.2917 -2.0958
  107SAPE  C31011054   1.789   1.890   4.122  0.1391  0.5893 -0.1666
  107SAPE  H10X11055   1.825   1.785   4.113  1.1484  0.9487 -0.5056
  107SAPE  H10Y11056   1.682   1.909   4.140 -0.1271 -0.4703 -0.5343
  107SAPE  C31111057   1.871   1.965   4.229 -0.2432  0.1513  0.0786
  107SAPE  H11X11058   1.976   1.955   4.196  0.2099 -0.8136  1.7419
  107SAPE  H11Y11059   1.863   1.913   4.327 -0.4343 -3.5612 -1.7598
  107SAPE  C31211060   1.846   2.117   4.235  0.0283 -0.8205 -0.1331
  107SAPE  H12X11061   1.900   2.171   4.155  0.0023  1.1326  1.0856
  107SAPE  H12Y11062   1.885   2.158   4.331  1.2071  0.0852 -0.9816
  107SAPE  C31311063   1.697   2.156   4.213 -0.8688 -0.1362 -0.5123
  107SAPE  H13X11064   1.627   2.090   4.267 -0.2885 -0.6164 -0.3287
  107SAPE  H13Y11065   1.668   2.153   4.106 -0.6951 -0.6685 -0.5473
  107SAPE  C31411066   1.664   2.309   4.260  0.7650  0.2082  0.2604
  107SAPE  H14X11067   1.693   2.312   4.367  2.9470 -0.7364 -0.2584
  107SAPE  H14Y11068   1.554   2.313   4.247  0.8270 -0.5545 -0.6413
  107SAPE  C31511069   1.733   2.408   4.177  0.8235  0.5098 -0.4411
  107SAPE  H15X11070   1.707   2.414   4.069  2.0380 -3.0912 -1.0411
  107SAPE  H15Y11071   1.836   2.373   4.159  0.0065 -2.2926 -0.1637
  107SAPE  C31611072   1.715   2.553   4.236 -0.6281  0.4080 -0.4693
  107SAPE  H16X11073   1.779   2.620   4.176 -0.2996  1.0520  0.5763
  107SAPE  H16Y11074   1.741   2.550   4.344 -2.2051 -0.1567 -0.0744
  107SAPE  C31711075   1.579   2.619   4.228  0.3054 -0.2392  0.4295
  107SAPE  H17X11076   1.499   2.557   4.274 -1.1640  0.8295 -0.5978
  107SAPE  H17Y11077   1.549   2.626   4.121  1.9400 -2.2228 -0.2298
  107SAPE  C31811078   1.591   2.761   4.293  0.0589 -0.2517  1.0576
  107SAPE  H18X11079   1.502   2.827   4.287  1.0701  1.0542 -0.2901
  107SAPE  H18Y11080   1.673   2.817   4.243  1.4015 -1.3001  2.0190
  107SAPE  H18Z11081   1.620   2.738   4.398  3.2033 -3.2631 -0.2874
  108SAPE     N11082   1.893   1.799   2.474 -0.3284  0.4703 -0.0188
  108SAPE   HN111083   1.855   1.803   2.571 -1.6742  0.0324 -0.5016
  108SAPE   HN211084   1.823   1.836   2.407 -1.8631  0.2711  1.4043
  108SAPE   HN311085   1.930   1.704   2.453  0.5118  0.9510 -0.7919
  108SAPE   C1211086   2.017   1.892   2.479 -0.8192  0.2646  0.3202
  108SAPE  H12A11087   2.062   1.880   2.378  1.3144 -4.2133  1.5626
  108SAPE  H12B11088   2.090   1.855   2.554 -0.5094  1.4709  0.6431
  108SAPE   C1111089   1.987   2.040   2.505 -0.5730  0.2506 -0.4610
  108SAPE  H11A11090   2.079   2.098   2.528 -0.5416 -0.7037  2.1528
  108SAPE  H11B11091   1.925   2.044   2.597  0.4580  0.4812  0.2534
  108SAPE     P11092   1.916   2.238   2.343  0.1184 -0.1235  0.1411
  108SAPE   O1311093   2.020   2.229   2.241 -0.4572 -0.1449  0.6728
  108SAPE   O1411094   1.781   2.273   2.283 -0.9246 -0.0178  0.2765
  108SAPE   O1211095   1.902   2.094   2.402 -0.2530  0.4407 -0.7201
  108SAPE   O1111096   1.948   2.339   2.454  0.0229  0.7821 -0.0477
  108SAPE    C111097   1.869   2.335   2.575 -0.3050 -0.6683 -0.8877
  108SAPE    HA11098   1.809   2.245   2.601  1.6373 -1.6325  0.5341
  108SAPE    HB11099   1.945   2.341   2.655 -0.8261 -3.0445 -0.1345
  108SAPE    C211100   1.775   2.456   2.594 -0.1700  0.2185  0.1190
  108SAPE    HS11101   1.719   2.466   2.498 -1.2725  0.3674  0.7572
  108SAPE   O2111102   1.855   2.573   2.617  0.4405  0.0956 -0.1887
  108SAPE   C2111103   1.802   2.691   2.573  0.3579  0.1151 -0.0439
  108SAPE   O2211104   1.695   2.697   2.522  0.3409 -0.3988  0.7580
  108SAPE   C2211105   1.887   2.806   2.614  0.5245  0.1651 -0.2034
  108SAPE   H2R11106   1.979   2.809   2.552  0.2481 -0.3035 -0.6530
  108SAPE   H2S11107   1.821   2.894   2.601 -2.2856 -1.6831  0.4941
  108SAPE    C311108   1.662   2.431   2.695 -0.4343  0.3187 -0.1756
  108SAPE    HX11109   1.626   2.328   2.673 -2.4984  0.3668  2.4130
  108SAPE    HY11110   1.582   2.505   2.677 -0.6769  0.0370 -0.2722
  108SAPE   O3111111   1.706   2.432   2.828 -0.2732 -0.7098 -0.2451
  108SAPE   C3111112   1.600   2.439   2.918 -0.1431  0.2320 -1.0917
  108SAPE   O3211113   1.485   2.434   2.888 -0.4455 -0.8791 -0.2069
  108SAPE   C3211114   1.652   2.433   3.059  0.0507 -0.3534 -0.6881
  108SAPE   H2X11115   1.713   2.524   3.075 -0.5317 -0.0241 -0.3172
  108SAPE   H2Y11116   1.716   2.344   3.079  1.6873  1.2166  1.5413
  108SAPE   C2311117   1.932   2.821   2.764 -0.0614  0.5012  0.4826
  108SAPE   H3R11118   2.012   2.895   2.785  1.5760 -1.4160  1.3110
  108SAPE   H3S11119   1.990   2.729   2.786 -0.7680 -0.4332 -1.3225
  108SAPE   C2411120   1.821   2.867   2.859  0.0425  0.3031 -0.8810
  108SAPE   H4R11121   1.810   2.972   2.825  2.4267  0.8442 -0.2086
  108SAPE   H4S11122   1.863   2.887   2.960 -2.5850 -0.7501  0.4974
  108SAPE   C2511123   1.694   2.784   2.860 -0.7368 -0.0224 -0.5825
  108SAPE   H5R11124   1.715   2.681   2.828  1.0826 -0.0941  0.6233
  108SAPE   C2611125   1.574   2.838   2.881 -0.2394  0.6618  0.1225
  108SAPE   H6R11126   1.488   2.769   2.881  1.3701 -1.5286 -2.1495
  108SAPE   C2711127   1.546   2.980   2.931 -0.3693 -0.3960  1.1300
  108SAPE   H7R11128   1.436   2.977   2.943 -0.6854 -1.7991 -1.3597
  108SAPE   H7S11129   1.555   3.053   2.847 -0.2035  0.8888  2.2319
  108SAPE   C2811130   1.616   3.043   3.047 -0.2112 -0.0384 -0.7288
  108SAPE   H8R11131   1.680   3.128   3.020  2.0244 -1.0671  0.9431
  108SAPE   C2911132   1.608   3.003   3.172 -0.0975 -0.4362  0.2288
  108SAPE   H9R11133   1.664   3.064   3.244  1.0660  0.4742 -1.3874
  108SAPE  C21011134   1.542   2.876   3.223 -0.3703 -0.2926  0.3047
  108SAPE  H10R11135   1.610   2.795   3.257  0.6263  0.7926  0.9557
  108SAPE  H10S11136   1.472   2.833   3.149 -1.2062 -0.4193  1.1491
  108SAPE  C21111137   1.470   2.920   3.346 -0.0204  0.2697 -0.5020
  108SAPE  H11R11138   1.465   3.030   3.356 -2.0999  0.2232 -0.5565
  108SAPE  C21211139   1.423   2.850   3.454  0.3408  0.0373  0.1051
  108SAPE  H12R11140   1.369   2.899   3.536  1.1773  2.4993 -0.7457
  108SAPE  C21311141   1.431   2.699   3.465 -0.4538  0.7617 -1.1387
  108SAPE  H13R11142   1.513   2.661   3.401 -0.0091  0.9730 -0.6986
  108SAPE  H13S11143   1.338   2.659   3.419 -0.2262  1.2513 -2.0576
  108SAPE  C21411144   1.444   2.639   3.607  0.5089  0.2502 -0.3447
  108SAPE  H14R11145   1.359   2.577   3.638  0.3300  1.6206  2.1743
  108SAPE  C21511146   1.546   2.656   3.690 -0.3846  0.1346  0.1059
  108SAPE  H15R11147   1.528   2.609   3.787 -3.3684  0.3388 -0.2592
  108SAPE  C21611148   1.677   2.724   3.652  0.2131  0.5459 -0.4900
  108SAPE  H16R11149   1.686   2.824   3.701  0.1847  1.2734 -1.9090
  108SAPE  H16S11150   1.681   2.733   3.541 -0.9498 -0.9759 -0.6819
  108SAPE  C21711151   1.808   2.653   3.696 -0.1472 -0.8693  0.4111
  108SAPE  H17R11152   1.879   2.713   3.636 -0.9757  0.5022  0.7488
  108SAPE  H17S11153   1.813   2.546   3.669  0.5196 -0.6687 -0.2847
  108SAPE  C21811154   1.854   2.682   3.840 -0.4181 -0.5069 -0.4698
  108SAPE  H18R11155   1.814   2.604   3.907  0.8316  1.0664  2.2920
  108SAPE  H18S11156   1.806   2.779   3.864 -1.4621 -0.5476 -2.1941
  108SAPE  C21911157   2.010   2.684   3.859 -0.5813  0.0689  0.5174
  108SAPE  H19R11158   2.058   2.764   3.797  0.6018 -0.9816  0.0321
  108SAPE  H19S11159   2.053   2.594   3.811 -1.8480 -1.1987  1.6917
  108SAPE  C22011160   2.044   2.696   4.012  0.5787  0.5253  0.1472
  108SAPE  H20R11161   2.154   2.703   4.021  1.1210 -3.2336 -1.8082
  108SAPE  H20S11162   2.012   2.605   4.067  1.3022  0.4316  0.4282
  108SAPE  H20T11163   2.007   2.790   4.058 -2.3672 -0.8227  0.7810
  108SAPE   C3311164   1.529   2.434   3.152  0.0680  0.6712  0.5869
  108SAPE   H3X11165   1.444   2.372   3.117 -0.4963  0.4211  2.2641
  108SAPE   H3Y11166   1.490   2.538   3.153 -1.9329  0.0364 -1.6461
  108SAPE   C3411167   1.560   2.414   3.304 -0.0641  0.0412  0.3661
  108SAPE   H4X11168   1.469   2.448   3.358  0.1321  0.5402  0.3837
  108SAPE   H4Y11169   1.646   2.471   3.344  0.9147  0.0578 -1.6252
  108SAPE   C3511170   1.605   2.265   3.342 -0.0926  0.3544  0.1272
  108SAPE   H5X11171   1.594   2.200   3.252 -0.1221 -2.0205  1.7732
  108SAPE   H5Y11172   1.711   2.260   3.376  0.2509 -0.6050 -0.9959
  108SAPE   C3611173   1.515   2.208   3.451  0.4865  0.2738 -0.4079
  108SAPE   H6X11174   1.540   2.100   3.460 -1.8671 -0.4007 -1.2102
  108SAPE   H6Y11175   1.406   2.229   3.440 -0.8548 -2.7235  4.1968
  108SAPE   C3711176   1.538   2.279   3.589  0.0665  0.9209  0.1482
  108SAPE   H7X11177   1.500   2.382   3.574  0.6440  0.9903 -0.9614
  108SAPE   H7Y11178   1.645   2.298   3.608  0.0393 -0.1091  1.4312
  108SAPE   C3811179   1.479   2.204   3.709  0.0846 -0.5379  0.0663
  108SAPE   H8X11180   1.536   2.109   3.722 -1.0871 -1.0435  1.9349
  108SAPE   H8Y11181   1.379   2.167   3.675  0.3303 -0.8693 -0.3140
  108SAPE   C3911182   1.478   2.286   3.838 -0.6215  0.9647 -0.7442
  108SAPE   H9X11183   1.402   2.366   3.823 -1.1671  0.3224 -1.5464
  108SAPE   H9Y11184   1.583   2.321   3.849 -0.0102 -1.0204  0.1294
  108SAPE  C31011185   1.440   2.186   3.949  0.6539  0.0008 -0.0500
  108SAPE  H10X11186   1.443   2.235   4.049 -1.6943  0.7038 -0.2729
  108SAPE  H10Y11187   1.522   2.110   3.953 -0.2210 -0.9605  0.1109
  108SAPE  C31111188   1.300   2.132   3.939  0.7430  0.1469 -0.0709
  108SAPE  H11X11189   1.271   2.064   3.856  0.1296  2.0776 -1.5092
  108SAPE  H11Y11190   1.234   2.221   3.930  2.2428  1.4215  1.1178
  108SAPE  C31211191   1.253   2.048   4.062  0.0781  0.3068 -0.2542
  108SAPE  H12X11192   1.151   2.014   4.035  0.1651 -2.9703  2.7519
  108SAPE  H12Y11193   1.252   2.118   4.149  0.7748 -0.7963  0.6708
  108SAPE  C31311194   1.329   1.922   4.100  0.2935 -0.3411  0.2418
  108SAPE  H13X11195   1.257   1.867   4.165 -1.1513  1.2488  0.0682
  108SAPE  H13Y11196   1.430   1.942   4.140  0.1378  1.9774 -0.3372
  108SAPE  C31411197   1.351   1.835   3.976  0.4235  0.4172  0.5918
  108SAPE  H14X11198   1.422   1.887   3.908  1.6605 -0.8622  0.8755
  108SAPE  H14Y11199   1.261   1.809   3.916  2.7650 -2.2571 -2.0949
  108SAPE  C31511200   1.426   1.694   4.010 -1.1277 -0.6402  0.1272
  108SAPE  H15X11201   1.533   1.711   4.037 -1.6080 -0.2786  1.9330
  108SAPE  H15Y11202   1.433   1.632   3.919  0.1457  0.2840 -0.4435
  108SAPE  C31611203   1.357   1.603   4.108  0.2651  0.2863 -0.3991
  108SAPE  H16X11204   1.248   1.591   4.086  0.4809  0.4824 -1.6460
  108SAPE  H16Y11205   1.369   1.659   4.203 -0.9569  0.3314 -0.2496
  108SAPE  C31711206   1.413   1.462   4.123 -0.6226  0.1992  0.3273
  108SAPE  H17X11207   1.397   1.406   4.029 -1.8446  0.2411  0.4991
  108SAPE  H17Y11208   1.351   1.413   4.200  0.0591  0.1184  0.8394
  108SAPE  C31811209   1.562   1.458   4.157 -0.4855 -0.7016 -0.3137
  108SAPE  H18X11210   1.582   1.495   4.260  1.0645 -1.1481 -0.4261
  108SAPE  H18Y11211   1.628   1.508   4.083 -0.1237 -2.1391 -1.0026
  108SAPE  H18Z11212   1.591   1.351   4.145 -2.2384 -1.4402  1.5939
  109SAPE     N11213   5.163   4.795   2.576  0.0235  0.1374  0.1007
  109SAPE   HN111214   5.251   4.842   2.546  1.6635 -2.6257  0.2831
  109SAPE   HN211215   5.103   4.875   2.607 -0.0397  0.0472  0.2109
  109SAPE   HN311216   5.184   4.736   2.658 -1.4639 -0.6012 -0.0169
  109SAPE   C1211217   5.093   4.714   2.469 -0.1100  0.5988 -0.1840
  109SAPE  H12A11218   4.988   4.749   2.481  0.5624  2.7211 -0.1256
  109SAPE  H12B11219   5.101   4.607   2.498 -2.2004  0.5379  0.3544
  109SAPE   C1111220   5.159   4.749   2.340 -0.2832 -0.7543 -0.6005
  109SAPE  H11A11221   5.101   4.698   2.259 -3.0962  0.7980  0.2818
  109SAPE  H11B11222   5.265   4.718   2.349 -0.6650 -1.7843  0.6965
  109SAPE     P11223   5.028   4.951   2.261  0.3575 -0.1656 -0.0269
  109SAPE   O1311224   5.028   4.927   2.114  0.7642  0.0891 -0.2911
  109SAPE   O1411225   4.911   4.911   2.339 -0.1289  0.5143  0.3495
  109SAPE   O1211226   5.164   4.887   2.315 -0.0481 -0.0805 -0.0336
  109SAPE   O1111227   5.046   5.104   2.288  0.0869  0.4136  0.8463
  109SAPE    C111228   5.172   5.159   2.327 -0.1809 -0.0162 -0.1930
  109SAPE    HA11229   5.254   5.104   2.274 -1.6733 -1.7582 -0.8134
  109SAPE    HB11230   5.170   5.265   2.296  1.0102  0.2397  0.5429
  109SAPE    C211231   5.196   5.186   2.477  0.6135  0.3414 -0.2099
  109SAPE    HS11232   5.232   5.095   2.529 -0.8142 -0.5210 -0.6877
  109SAPE   O2111233   5.075   5.231   2.536  0.0703  0.4128 -0.5019
  109SAPE   C2111234   5.000   5.140   2.608  0.4330 -0.2492 -0.6478
  109SAPE   O2211235   5.030   5.026   2.631  0.3470 -0.1540  0.3673
  109SAPE   C2211236   4.863   5.209   2.648 -0.2324 -0.5726  0.0916
  109SAPE   H2R11237   4.891   5.308   2.689 -1.8549 -0.2544  0.4845
  109SAPE   H2S11238   4.793   5.219   2.562 -1.5869 -0.1197  1.2124
  109SAPE    C311239   5.290   5.304   2.506 -0.2598 -0.0603  0.1927
  109SAPE    HX11240   5.243   5.397   2.469  1.6483  2.1569  2.9648
  109SAPE    HY11241   5.385   5.284   2.453  0.8060  3.9181  0.3665
  109SAPE   O3111242   5.319   5.322   2.642  0.5144 -0.1915  0.0693
  109SAPE   C3111243   5.434   5.393   2.672 -0.1312 -0.0379  0.3108
  109SAPE   O3211244   5.500   5.456   2.590 -0.3572  0.5024  0.2680
  109SAPE   C3211245   5.466   5.375   2.823  0.2166  0.2043 -0.1010
  109SAPE   H2X11246   5.387   5.317   2.875  0.4379 -0.9377 -0.9770
  109SAPE   H2Y11247   5.454   5.480   2.856 -2.5116 -0.2474  0.6000
  109SAPE   C2311248   4.802   5.133   2.763  0.1109  0.9720  0.0043
  109SAPE   H3R11249   4.872   5.107   2.845 -1.6319 -1.9905  0.7330
  109SAPE   H3S11250   4.773   5.032   2.726 -0.2940  0.6218  1.2160
  109SAPE   C2411251   4.671   5.190   2.806  0.5403 -0.6295  0.2441
  109SAPE   H4R11252   4.630   5.126   2.887  1.6651 -1.8077 -0.0940
  109SAPE   H4S11253   4.601   5.194   2.719  2.0798  0.8452 -1.0069
  109SAPE   C2511254   4.686   5.328   2.860  0.4469  0.8593 -0.3113
  109SAPE   H5R11255   4.673   5.407   2.785 -0.1524 -0.1457 -1.3048
  109SAPE   C2611256   4.714   5.354   2.990  0.2643 -0.3477 -0.0143
  109SAPE   H6R11257   4.746   5.456   3.015 -1.0806  0.5611 -1.7561
  109SAPE   C2711258   4.730   5.256   3.102  0.2222  0.2606  0.4217
  109SAPE   H7R11259   4.831   5.256   3.147  0.0406  1.8986  0.8981
  109SAPE   H7S11260   4.712   5.154   3.063  1.6740  0.0407  0.2977
  109SAPE   C2811261   4.631   5.271   3.214 -0.0417  0.5725 -0.1032
  109SAPE   H8R11262   4.526   5.255   3.183 -0.0526 -0.1875  0.3078
  109SAPE   C2911263   4.656   5.262   3.347 -0.1954 -0.3745 -0.3256
  109SAPE   H9R11264   4.584   5.277   3.428 -0.1069  1.2825 -0.5030
  109SAPE  C21011265   4.794   5.264   3.415 -0.5217  0.0099 -0.0661
  109SAPE  H10R11266   4.855   5.352   3.385  0.2884 -0.9662 -1.4430
  109SAPE  H10S11267   4.850   5.175   3.379 -1.9139  0.3553 -3.4492
  109SAPE  C21111268   4.798   5.242   3.561 -0.0522 -0.3636  0.2377
  109SAPE  H11R11269   4.699   5.218   3.602  0.3122 -0.3207  1.1722
  109SAPE  C21211270   4.905   5.244   3.643 -0.0550 -0.8631  0.2161
  109SAPE  H12R11271   4.896   5.224   3.751 -1.1182  2.5179  0.8668
  109SAPE  C21311272   5.051   5.264   3.603  0.3194 -0.3962 -0.6588
  109SAPE  H13R11273   5.104   5.297   3.695 -1.8862  0.3895  0.4108
  109SAPE  H13S11274   5.050   5.348   3.530 -0.2261 -0.0438 -0.2543
  109SAPE  C21411275   5.110   5.135   3.557  0.5203  0.7360  0.6631
  109SAPE  H14R11276   5.110   5.053   3.630  1.4287 -0.1412 -0.2806
  109SAPE  C21511277   5.180   5.112   3.443 -0.6717 -0.5509 -0.4849
  109SAPE  H15R11278   5.240   5.022   3.423  0.5382  0.8995 -4.1983
  109SAPE  C21611279   5.199   5.196   3.318  0.7284 -0.5408 -0.1388
  109SAPE  H16R11280   5.294   5.252   3.307  1.4690 -1.6562  0.4325
  109SAPE  H16S11281   5.118   5.272   3.321  0.1258 -1.1740  1.9744
  109SAPE  C21711282   5.184   5.106   3.195 -0.4560 -0.4337 -0.0077
  109SAPE  H17R11283   5.080   5.068   3.193 -1.0188  1.0345 -1.7048
  109SAPE  H17S11284   5.251   5.017   3.197 -0.2502 -0.2700  0.7546
  109SAPE  C21811285   5.212   5.182   3.061 -0.2501  0.5450  0.1192
  109SAPE  H18R11286   5.322   5.193   3.052  0.0517 -1.8777  0.2093
  109SAPE  H18S11287   5.154   5.275   3.041 -1.6964 -0.6693 -1.7899
  109SAPE  C21911288   5.167   5.088   2.940 -0.0939 -1.4575  0.1242
  109SAPE  H19R11289   5.184   5.136   2.841  1.1639  0.1398  1.0703
  109SAPE  H19S11290   5.057   5.074   2.949 -0.4570  1.5376  1.4615
  109SAPE  C22011291   5.228   4.950   2.935 -0.5453  0.1196  0.4842
  109SAPE  H20R11292   5.180   4.890   2.854  2.8880  1.1106 -2.5431
  109SAPE  H20S11293   5.208   4.905   3.035 -3.3179 -0.7549 -0.3775
  109SAPE  H20T11294   5.336   4.953   2.912 -1.0165  0.4941 -1.9403
  109SAPE   C3311295   5.608   5.324   2.841  0.0596  0.2045 -0.0018
  109SAPE   H3X11296   5.690   5.369   2.781  0.9567 -1.0552  0.2419
  109SAPE   H3Y11297   5.611   5.222   2.796 -0.0592  1.2744 -2.5927
  109SAPE   C3411298   5.654   5.327   2.988  0.4011 -0.7916  0.1714
  109SAPE   H4X11299   5.730   5.250   3.016 -2.7993 -3.7105  1.5919
  109SAPE   H4Y11300   5.565   5.294   3.046  0.7128 -2.0996 -0.0637
  109SAPE   C3511301   5.714   5.463   3.023 -1.1208 -0.3366 -0.1106
  109SAPE   H5X11302   5.649   5.546   2.989 -1.0490 -0.6527 -1.0484
  109SAPE   H5Y11303   5.815   5.482   2.980  0.4241  1.8762  3.9758
  109SAPE   C3611304   5.713   5.468   3.181 -0.0535 -0.5981  0.5161
  109SAPE   H6X11305   5.796   5.536   3.208 -1.5569  1.6763 -0.3277
  109SAPE   H6Y11306   5.745   5.370   3.223  1.6667 -1.3921 -2.3396
  109SAPE   C3711307   5.586   5.522   3.243 -0.5080  0.0670  0.6227
  109SAPE   H7X11308   5.504   5.448   3.230  1.3506 -2.3883  2.0267
  109SAPE   H7Y11309   5.555   5.615   3.190  2.5113  1.0895  0.4497
  109SAPE   C3811310   5.607   5.547   3.393  0.0740 -1.5405 -0.5758
  109SAPE   H8X11311   5.665   5.639   3.419 -1.5147 -0.4878 -0.6033
  109SAPE   H8Y11312   5.654   5.459   3.442  0.3608 -0.2190  1.6400
  109SAPE   C3911313   5.474   5.575   3.461  0.2637  0.3945  0.1293
  109SAPE   H9X11314   5.411   5.493   3.421  0.1597 -0.2786  1.5841
  109SAPE   H9Y11315   5.436   5.672   3.423  1.0753 -0.1265 -2.1721
  109SAPE  C31011316   5.473   5.567   3.614  0.8337 -0.5187 -0.1994
  109SAPE  H10X11317   5.488   5.669   3.655 -0.0986 -0.4358 -0.0289
  109SAPE  H10Y11318   5.554   5.498   3.643  2.1854  0.6207 -1.1424
  109SAPE  C31111319   5.337   5.517   3.670 -0.1009  0.1836 -0.5936
  109SAPE  H11X11320   5.314   5.412   3.642 -2.2198 -0.4633  2.9014
  109SAPE  H11Y11321   5.254   5.577   3.626 -0.0684 -0.6682 -1.8807
  109SAPE  C31211322   5.333   5.526   3.819 -0.0748  0.5406  0.0293
  109SAPE  H12X11323   5.405   5.458   3.869 -0.3780 -2.4318 -3.2247
  109SAPE  H12Y11324   5.244   5.466   3.849  1.4608 -1.8930  0.0077
  109SAPE  C31311325   5.315   5.665   3.885 -0.7815 -0.6887 -0.4455
  109SAPE  H13X11326   5.234   5.711   3.826 -0.7351 -2.2793 -1.8474
  109SAPE  H13Y11327   5.408   5.724   3.868 -0.2653 -2.0046 -2.6781
  109SAPE  C31411328   5.297   5.651   4.032  0.1085 -0.1770 -0.7989
  109SAPE  H14X11329   5.390   5.613   4.080 -0.6041  2.1174  2.7601
  109SAPE  H14Y11330   5.209   5.583   4.039  1.4422 -1.9792 -0.7790
  109SAPE  C31511331   5.261   5.777   4.107  0.0542 -0.6041  0.0955
  109SAPE  H15X11332   5.181   5.831   4.051 -1.2585 -0.9009  1.6007
  109SAPE  H15Y11333   5.352   5.840   4.095 -0.8795  0.6992 -0.3869
  109SAPE  C31611334   5.205   5.741   4.241  0.5984  0.3898 -0.1892
  109SAPE  H16X11335   5.276   5.678   4.299 -1.5318 -1.1755  0.8501
  109SAPE  H16Y11336   5.120   5.669   4.237  0.5626  0.4116  0.1531
  109SAPE  C31711337   5.168   5.867   4.317 -0.0119  0.0987  0.8418
  109SAPE  H17X11338   5.091   5.921   4.258  0.5748 -0.0524 -0.0800
  109SAPE  H17Y11339   5.265   5.921   4.315 -0.0446  0.2369  2.0695
  109SAPE  C31811340   5.129   5.848   4.461 -0.1076 -0.1013  0.3810
  109SAPE  H18X11341   5.050   5.769   4.460  1.5925 -1.8776  0.6659
  109SAPE  H18Y11342   5.096   5.942   4.511 -1.2534  0.0158 -0.5596
  109SAPE  H18Z11343   5.217   5.803   4.512  0.6992  1.7354  0.6845
  110SAPE     N11344   6.019   1.366   2.098  0.1841  0.8455 -0.3514
  110SAPE   HN111345   6.078   1.441   2.056  1.9649 -0.1946  0.1857
  110SAPE   HN211346   5.976   1.403   2.185 -1.3674 -0.8419 -0.3685
  110SAPE   HN311347   6.082   1.293   2.138  0.2830  2.5812  3.0734
  110SAPE   C1211348   5.906   1.310   2.007  0.6117  0.6850 -0.2174
  110SAPE  H12A11349   5.958   1.252   1.928 -2.4952  1.6534 -3.2113
  110SAPE  H12B11350   5.849   1.392   1.959  0.8798  1.2325  0.3844
  110SAPE   C1111351   5.813   1.222   2.089  0.6569  0.0047  0.1993
  110SAPE  H11A11352   5.867   1.126   2.107 -0.5656 -0.5776  0.9129
  110SAPE  H11B11353   5.725   1.191   2.028  1.3793 -1.4091 -0.1612
  110SAPE     P11354   5.646   1.290   2.280 -0.4071  0.2485  0.0335
  110SAPE   O1311355   5.640   1.395   2.380  0.8135  0.8732  0.5300
  110SAPE   O1411356   5.535   1.296   2.178 -0.3954  0.2662  0.2148
  110SAPE   O1211357   5.786   1.290   2.202  0.8802 -0.8863 -0.3058
  110SAPE   O1111358   5.643   1.152   2.352  0.3716  0.4794  0.5553
  110SAPE    C111359   5.764   1.082   2.385  0.5233  0.0186 -0.1064
  110SAPE    HA11360   5.751   0.977   2.351 -1.5831  0.2253 -0.0654
  110SAPE    HB11361   5.859   1.114   2.338 -0.2370 -0.8099 -2.3386
  110SAPE    C211362   5.766   1.054   2.537  0.1722  0.3131 -0.4466
  110SAPE    HS11363   5.786   1.147   2.595  0.1868 -1.1349  2.0607
  110SAPE   O2111364   5.870   0.968   2.582  0.3255  0.5998  0.2317
  110SAPE   C2111365   6.000   1.000   2.569  0.3117  0.2902  0.3428
  110SAPE   O2211366   6.047   1.102   2.528 -0.2658  0.4965 -0.1480
  110SAPE   C2211367   6.085   0.885   2.609 -0.2097  0.2648 -0.6554
  110SAPE   H2R11368   6.061   0.800   2.541  4.2037 -0.6253 -1.4080
  110SAPE   H2S11369   6.194   0.897   2.595  0.2107 -2.1069  0.1057
  110SAPE    C311370   5.632   1.001   2.601 -0.3751 -0.4595  0.4107
  110SAPE    HX11371   5.549   1.072   2.582 -0.4032  0.3058  3.0526
  110SAPE    HY11372   5.593   0.910   2.551 -0.3551 -0.3703  0.2339
  110SAPE   O3111373   5.641   0.986   2.744 -0.5839 -0.0031 -0.0433
  110SAPE   C3111374   5.653   0.864   2.786 -0.1894 -0.4532  0.2463
  110SAPE   O3211375   5.667   0.767   2.719  0.5771 -0.5965 -0.4719
  110SAPE   C3211376   5.645   0.870   2.938 -0.3361  0.8218 -0.4042
  110SAPE   H2X11377   5.637   0.768   2.981  1.8361  0.9399  0.4315
  110SAPE   H2Y11378   5.557   0.924   2.977 -0.2727  0.6518 -0.0156
  110SAPE   C2311379   6.074   0.839   2.760 -0.1746  0.3563  0.7012
  110SAPE   H3R11380   6.136   0.751   2.785 -0.1587  0.2656  0.3462
  110SAPE   H3S11381   5.972   0.802   2.784 -0.7427  1.3944 -0.0522
  110SAPE   C2411382   6.097   0.958   2.862  0.1602  0.4278  0.1881
  110SAPE   H4R11383   6.059   0.905   2.951  1.8498 -1.0794  0.0745
  110SAPE   H4S11384   6.037   1.049   2.839  0.8079  1.0479  0.8607
  110SAPE   C2511385   6.243   0.984   2.878 -0.8351  0.0456 -0.0575
  110SAPE   H5R11386   6.292   1.005   2.782 -0.9402  0.3958 -0.0362
  110SAPE   C2611387   6.314   0.966   2.998  0.6891  0.5172  1.5017
  110SAPE   H6R11388   6.423   0.971   2.987  0.6867  0.3864  1.4181
  110SAPE   C2711389   6.268   0.923   3.141 -0.0272  0.0028  0.5013
  110SAPE   H7R11390   6.342   0.845   3.169  2.8242  2.6246  0.8819
  110SAPE   H7S11391   6.169   0.875   3.135 -1.5059  2.8065  0.5708
  110SAPE   C2811392   6.272   1.042   3.230 -0.2148 -0.2524 -0.8784
  110SAPE   H8R11393   6.260   1.144   3.191 -1.7141  1.5809  3.6509
  110SAPE   C2911394   6.283   1.045   3.364 -0.3192 -0.1005 -0.0130
  110SAPE   H9R11395   6.268   1.139   3.418 -2.6507 -0.1523 -0.4493
  110SAPE  C21011396   6.278   0.919   3.453 -0.6599  0.2930  0.5486
  110SAPE  H10R11397   6.227   0.838   3.397  0.1270  0.9834 -1.2444
  110SAPE  H10S11398   6.225   0.930   3.550  0.1086  0.3239  0.9766
  110SAPE  C21111399   6.418   0.890   3.505 -0.2722  0.4580  0.5818
  110SAPE  H11R11400   6.487   0.845   3.432  0.2743 -0.5313  1.6549
  110SAPE  C21211401   6.467   0.918   3.630  0.1964 -0.3144 -0.5754
  110SAPE  H12R11402   6.575   0.909   3.650 -0.1940 -0.7633  1.6034
  110SAPE  C21311403   6.401   0.991   3.752  0.3296 -0.6991  0.1066
  110SAPE  H13R11404   6.430   0.923   3.835 -0.8455 -1.2772  0.0667
  110SAPE  H13S11405   6.291   0.983   3.742  0.2044  1.9393 -1.6727
  110SAPE  C21411406   6.433   1.141   3.775 -0.5723  0.3809  0.3951
  110SAPE  H14R11407   6.445   1.200   3.683 -0.6492  1.2868  0.9532
  110SAPE  C21511408   6.463   1.199   3.897  0.2603  0.2920  0.3077
  110SAPE  H15R11409   6.496   1.303   3.900  1.5491 -0.1202  1.2128
  110SAPE  C21611410   6.461   1.129   4.032 -0.6980  0.1119  0.0330
  110SAPE  H16R11411   6.563   1.136   4.076  0.0216 -2.0873 -1.1527
  110SAPE  H16S11412   6.436   1.022   4.047  0.1954  0.0505  1.2579
  110SAPE  C21711413   6.365   1.211   4.121 -0.8285 -0.3307  0.1014
  110SAPE  H17R11414   6.264   1.209   4.073  0.1211 -0.1385 -2.0073
  110SAPE  H17S11415   6.407   1.313   4.114 -0.6624 -0.3277  1.1072
  110SAPE  C21811416   6.370   1.165   4.268 -0.8041  0.3716 -0.1229
  110SAPE  H18R11417   6.353   1.055   4.270  4.6972 -0.9214 -3.7665
  110SAPE  H18S11418   6.287   1.207   4.329 -2.3112 -1.4191 -0.8414
  110SAPE  C21911419   6.501   1.192   4.340 -0.0277  0.4116 -0.8279
  110SAPE  H19R11420   6.505   1.303   4.341  0.9649  0.3733 -0.0933
  110SAPE  H19S11421   6.598   1.159   4.298 -0.8914 -2.2740 -0.9611
  110SAPE  C22011422   6.507   1.138   4.483 -0.1791  0.5211 -0.2248
  110SAPE  H20R11423   6.420   1.169   4.545 -0.1696  2.6502 -1.1761
  110SAPE  H20S11424   6.605   1.164   4.529 -0.8148  0.5260  1.1797
  110SAPE  H20T11425   6.506   1.027   4.481  1.1494  0.4403  1.3731
  110SAPE   C3311426   5.758   0.947   3.017 -0.4614 -0.5297  0.1915
  110SAPE   H3X11427   5.780   1.047   2.974 -1.4702 -1.4119 -2.6549
  110SAPE   H3Y11428   5.845   0.882   2.996 -0.8251 -0.0061 -3.9482
  110SAPE   C3411429   5.742   0.969   3.163  0.2028 -0.5098  0.4674
  110SAPE   H4X11430   5.735   0.874   3.220  2.2438 -0.3581  1.0752
  110SAPE   H4Y11431   5.654   1.036   3.167  1.2668  1.1459 -1.6256
  110SAPE   C3511432   5.859   1.039   3.229 -0.4382  0.0689 -0.0363
  110SAPE   H5X11433   5.906   1.114   3.161 -1.0608  0.2383 -0.2966
  110SAPE   H5Y11434   5.941   0.976   3.268 -0.0709  0.9207  0.5794
  110SAPE   C3611435   5.814   1.111   3.356  0.3723 -0.0834  0.1866
  110SAPE   H6X11436   5.727   1.061   3.403 -1.2081  1.7995 -0.6236
  110SAPE   H6Y11437   5.786   1.217   3.341  0.1326  0.1882  2.3452
  110SAPE   C3711438   5.937   1.111   3.454 -0.4859  0.0227  0.6838
  110SAPE   H7X11439   6.031   1.133   3.399 -0.0134 -0.9296  1.0884
  110SAPE   H7Y11440   5.942   1.006   3.490 -1.8414 -0.5803 -0.8221
  110SAPE   C3811441   5.925   1.212   3.570 -0.3570 -0.6934  0.0151
  110SAPE   H8X11442   5.824   1.213   3.617  0.2150  0.8495  1.3116
  110SAPE   H8Y11443   5.940   1.304   3.510 -1.1865 -1.9280 -2.2126
  110SAPE   C3911444   6.033   1.186   3.675 -0.0553 -0.1615 -0.1010
  110SAPE   H9X11445   6.075   1.281   3.715  0.4472 -0.5920  0.4007
  110SAPE   H9Y11446   6.116   1.129   3.629  0.0795 -0.6660  0.7539
  110SAPE  C31011447   5.984   1.111   3.799 -0.4867 -0.0340  0.3498
  110SAPE  H10X11448   5.903   1.180   3.830 -0.4263  0.2527 -0.1308
  110SAPE  H10Y11449   6.065   1.119   3.875 -0.3167 -0.9861  0.2769
  110SAPE  C31111450   5.937   0.967   3.771  0.6322 -0.0168 -0.1130
  110SAPE  H11X11451   6.025   0.911   3.734  1.0534  2.7889 -3.9012
  110SAPE  H11Y11452   5.852   0.970   3.700  0.1998 -0.4948  0.3740
  110SAPE  C31211453   5.873   0.889   3.891 -0.0418 -0.1185 -0.0783
  110SAPE  H12X11454   5.823   0.795   3.857 -1.2006  0.8306 -1.1169
  110SAPE  H12Y11455   5.787   0.952   3.922 -0.0365 -0.5633  0.8662
  110SAPE  C31311456   5.972   0.848   4.001  0.6687 -0.1815  0.0899
  110SAPE  H13X11457   6.041   0.931   4.028 -0.4825  0.8758 -0.1061
  110SAPE  H13Y11458   6.027   0.758   3.966 -0.4089 -1.0127  0.4840
  110SAPE  C31411459   5.904   0.805   4.134  0.6627  0.1281  0.0434
  110SAPE  H14X11460   5.817   0.873   4.152  0.1179 -0.5642  0.0447
  110SAPE  H14Y11461   5.978   0.823   4.214 -0.9940 -0.4529  1.7756
  110SAPE  C31511462   5.841   0.664   4.122 -0.0347 -0.7974  0.5397
  110SAPE  H15X11463   5.921   0.591   4.095  0.3197 -0.9384  1.8913
  110SAPE  H15Y11464   5.773   0.667   4.034  2.1531 -1.7811 -1.2988
  110SAPE  C31611465   5.767   0.610   4.244  0.2463  0.6458  0.4440
  110SAPE  H16X11466   5.750   0.500   4.244  0.9354  0.5288  0.9073
  110SAPE  H16Y11467   5.663   0.651   4.242 -0.7662 -1.7861 -1.4598
  110SAPE  C31711468   5.835   0.640   4.374 -0.7429 -0.3057  0.2087
  110SAPE  H17X11469   5.848   0.750   4.382  0.8967 -0.3510 -1.1386
  110SAPE  H17Y11470   5.940   0.609   4.354 -0.6447 -0.6134  1.1551
  110SAPE  C31811471   5.789   0.567   4.504  0.6099  0.1989 -0.9374
  110SAPE  H18X11472   5.844   0.590   4.598 -0.1815  1.4133 -0.7519
  110SAPE  H18Y11473   5.798   0.460   4.475  0.4324 -0.2241  0.4893
  110SAPE  H18Z11474   5.681   0.576   4.527  0.9745  2.7093  0.1108
  111SAPE     N11475   0.952   2.715   2.124  0.2767 -0.0640  0.2772
  111SAPE   HN111476   0.929   2.720   2.226 -0.1766  2.0878  0.1109
  111SAPE   HN211477   0.950   2.619   2.083  1.3665  0.5935 -1.4225
  111SAPE   HN311478   1.047   2.757   2.124  0.1985  0.1664 -1.5576
  111SAPE   C1211479   0.852   2.808   2.059  0.0708  0.2165  0.6042
  111SAPE  H12A11480   0.864   2.793   1.949 -0.9963 -2.4429  0.7668
  111SAPE  H12B11481   0.886   2.911   2.079 -0.4376  0.6591 -0.6904
  111SAPE   C1111482   0.712   2.770   2.101 -0.4358 -0.4012 -0.4400
  111SAPE  H11A11483   0.638   2.842   2.060 -2.1267 -0.4686  2.2610
  111SAPE  H11B11484   0.720   2.786   2.211  1.5810 -0.0565 -0.5869
  111SAPE     P11485   0.588   2.561   2.140 -0.0642  0.0287 -0.0001
  111SAPE   O1311486   0.486   2.649   2.191 -0.0171 -0.4570 -0.2337
  111SAPE   O1411487   0.536   2.439   2.081 -0.1269  0.6056  0.5089
  111SAPE   O1211488   0.683   2.639   2.050 -0.2117 -0.6307  0.5353
  111SAPE   O1111489   0.682   2.525   2.262  0.0242  0.0931  0.5363
  111SAPE    C111490   0.636   2.485   2.392  0.1541 -0.1294 -0.2672
  111SAPE    HA11491   0.525   2.490   2.381  0.2493 -0.3593 -1.4018
  111SAPE    HB11492   0.675   2.385   2.420 -0.4216 -0.1226  0.6166
  111SAPE    C211493   0.681   2.589   2.512 -0.3846 -0.0390 -0.3615
  111SAPE    HS11494   0.656   2.691   2.475  0.4825 -0.0592 -1.0196
  111SAPE   O2111495   0.819   2.566   2.565  0.4938 -0.0951  1.0264
  111SAPE   C2111496   0.902   2.622   2.485 -0.0755  0.1118  0.0201
  111SAPE   O2211497   0.886   2.691   2.387  0.1155  0.3271  0.5431
  111SAPE   C2211498   1.043   2.590   2.542 -0.2950 -0.3881 -0.2646
  111SAPE   H2R11499   1.049   2.503   2.611  0.9300  0.5527  0.8740
  111SAPE   H2S11500   1.114   2.578   2.456  0.3432  0.5349  0.1112
  111SAPE    C311501   0.579   2.562   2.640 -0.5651 -0.3188 -0.6961
  111SAPE    HX11502   0.576   2.458   2.679 -2.7830  0.1231  0.4741
  111SAPE    HY11503   0.480   2.593   2.599 -0.2114 -0.8167 -1.9684
  111SAPE   O3111504   0.605   2.662   2.744 -0.4895 -0.1045 -0.6880
  111SAPE   C3111505   0.699   2.620   2.835  1.0647 -0.7744 -0.1596
  111SAPE   O3211506   0.747   2.512   2.842  0.7503  0.1679 -0.2686
  111SAPE   C3211507   0.731   2.738   2.934 -0.0900 -0.5963 -0.1053
  111SAPE   H2X11508   0.660   2.823   2.925  1.7518  1.0255  0.1188
  111SAPE   H2Y11509   0.830   2.781   2.905  0.1873 -1.7914 -1.0250
  111SAPE   C2311510   1.113   2.706   2.621 -0.1157  0.0736 -0.5764
  111SAPE   H3R11511   1.107   2.801   2.563 -2.9402  0.6271  0.4273
  111SAPE   H3S11512   1.214   2.672   2.651 -1.0742 -0.6045  2.1480
  111SAPE   C2411513   1.039   2.753   2.742  0.0557 -0.0791  0.0065
  111SAPE   H4R11514   1.008   2.661   2.797 -1.1619  1.1517  1.4680
  111SAPE   H4S11515   0.936   2.788   2.720  0.3381 -0.4982 -2.1882
  111SAPE   C2511516   1.104   2.849   2.843 -0.5404 -0.2511  0.4129
  111SAPE   H5R11517   1.126   2.947   2.799 -1.1806 -0.7915 -1.1980
  111SAPE   C2611518   1.123   2.827   2.975  0.6861  0.3777 -1.0085
  111SAPE   H6R11519   1.154   2.909   3.041 -0.8049  1.9075 -2.1290
  111SAPE   C2711520   1.078   2.706   3.054 -0.9221  0.8171  1.0373
  111SAPE   H7R11521   0.997   2.659   2.993  0.1048  0.9738 -0.5111
  111SAPE   H7S11522   1.029   2.730   3.151 -1.5089 -1.9295  1.5208
  111SAPE   C2811523   1.167   2.584   3.066  0.3624  1.0965  0.5220
  111SAPE   H8R11524   1.257   2.575   3.003  1.1077 -2.0186  1.8360
  111SAPE   C2911525   1.138   2.478   3.146 -0.8691  0.3687  0.1316
  111SAPE   H9R11526   1.200   2.389   3.134 -0.2853  0.6916  0.6857
  111SAPE  C21011527   1.001   2.463   3.214 -0.7143 -0.3054  0.3098
  111SAPE  H10R11528   0.922   2.463   3.135 -1.2139  1.1980  0.7724
  111SAPE  H10S11529   0.965   2.558   3.259  0.3481  0.4171 -0.3373
  111SAPE  C21111530   0.985   2.340   3.306  0.0128  0.2327 -0.0809
  111SAPE  H11R11531   0.921   2.263   3.260 -1.8491  0.7257  1.5711
  111SAPE  C21211532   1.034   2.316   3.430 -0.4202 -0.3854  0.1132
  111SAPE  H12R11533   1.005   2.219   3.474 -3.3080 -0.0140 -0.7537
  111SAPE  C21311534   1.112   2.404   3.523 -0.4445 -0.2645 -0.1568
  111SAPE  H13R11535   1.204   2.434   3.467 -1.2826  1.3218 -0.7635
  111SAPE  H13S11536   1.135   2.348   3.616 -1.1221 -0.6393 -0.2135
  111SAPE  C21411537   1.049   2.531   3.568  1.1772 -0.1892  0.1856
  111SAPE  H14R11538   0.993   2.583   3.489 -0.9914 -1.5822  0.7139
  111SAPE  C21511539   1.025   2.569   3.693  0.6428  0.0740  0.9697
  111SAPE  H15R11540   0.972   2.666   3.694  1.1745  0.3674  2.3122
  111SAPE  C21611541   1.056   2.532   3.830 -0.2530  0.2971 -0.1817
  111SAPE  H16R11542   1.092   2.427   3.826  0.3248  0.4901 -0.0297
  111SAPE  H16S11543   0.958   2.520   3.882 -1.3339  1.3474 -1.8934
  111SAPE  C21711544   1.147   2.614   3.906 -0.6738 -0.0858  0.0880
  111SAPE  H17R11545   1.235   2.631   3.841 -0.4972  0.4236  0.4476
  111SAPE  H17S11546   1.180   2.568   4.002  0.2151  1.0601  0.3516
  111SAPE  C21811547   1.088   2.747   3.947 -0.2650  0.8369 -0.0577
  111SAPE  H18R11548   0.996   2.727   4.005 -0.8697  0.9653 -0.9523
  111SAPE  H18S11549   1.055   2.790   3.850  1.1626 -1.6125 -1.7376
  111SAPE  C21911550   1.179   2.829   4.023  0.3640  0.6245 -0.0975
  111SAPE  H19R11551   1.217   2.766   4.107  0.3567 -0.0308 -0.5786
  111SAPE  H19S11552   1.135   2.916   4.076  2.3080  0.5876  1.7176
  111SAPE  C22011553   1.292   2.886   3.946  0.0011 -0.5502  0.2392
  111SAPE  H20R11554   1.362   2.930   4.019  0.4501 -1.9569  0.6911
  111SAPE  H20S11555   1.255   2.969   3.882  1.8856 -1.3329 -2.0101
  111SAPE  H20T11556   1.353   2.823   3.877  3.0613  1.5474  0.8190
  111SAPE   C3311557   0.732   2.692   3.084  0.4653  0.1457  0.5330
  111SAPE   H3X11558   0.795   2.768   3.136 -2.7118  1.9780  2.0557
  111SAPE   H3Y11559   0.778   2.591   3.094 -1.3087 -0.7603 -0.0834
  111SAPE   C3411560   0.595   2.687   3.145  0.4089  0.2065  0.2320
  111SAPE   H4X11561   0.537   2.611   3.088  0.1962 -0.4681  1.3089
  111SAPE   H4Y11562   0.535   2.780   3.142 -1.4486 -0.9035  1.1252
  111SAPE   C3511563   0.586   2.633   3.292  0.0813 -0.0324  0.3548
  111SAPE   H5X11564   0.628   2.530   3.286 -0.1922 -0.1384  0.2078
  111SAPE   H5Y11565   0.481   2.627   3.327 -0.3401  0.5222 -0.7599
  111SAPE   C3611566   0.662   2.719   3.397 -0.1646 -0.0881  0.2323
  111SAPE   H6X11567   0.631   2.825   3.385 -0.3687  0.0534  1.7535
  111SAPE   H6Y11568   0.773   2.717   3.388 -0.2538  0.5103 -1.2691
  111SAPE   C3711569   0.614   2.689   3.544 -1.1930 -0.3078 -0.2991
  111SAPE   H7X11570   0.645   2.585   3.568 -0.6334 -0.1139 -0.1658
  111SAPE   H7Y11571   0.503   2.697   3.540 -1.0725  2.5854  0.0546
  111SAPE   C3811572   0.683   2.781   3.644 -0.4299 -0.8687  0.9120
  111SAPE   H8X11573   0.675   2.890   3.623  0.8036 -0.1947  3.5005
  111SAPE   H8Y11574   0.790   2.752   3.643  0.3315  1.7163 -0.7078
  111SAPE   C3911575   0.610   2.748   3.774 -0.4056 -0.4165 -0.2421
  111SAPE   H9X11576   0.613   2.637   3.787  0.9311 -0.2913  0.7869
  111SAPE   H9Y11577   0.502   2.770   3.765 -0.2019 -0.1976 -3.1672
  111SAPE  C31011578   0.677   2.832   3.887  0.3063 -0.7074  0.7346
  111SAPE  H10X11579   0.639   2.936   3.884  0.6417 -0.4381  3.2692
  111SAPE  H10Y11580   0.786   2.843   3.871  0.4528 -0.5930  1.7082
  111SAPE  C31111581   0.665   2.766   4.024 -0.0170 -0.3231  0.2935
  111SAPE  H11X11582   0.743   2.807   4.092 -1.6308  2.3626  0.6689
  111SAPE  H11Y11583   0.681   2.656   4.028  0.7932 -0.1773  2.3716
  111SAPE  C31211584   0.515   2.776   4.069  0.4008  0.0119  0.2782
  111SAPE  H12X11585   0.455   2.720   3.994  1.8560  0.9708 -1.7091
  111SAPE  H12Y11586   0.484   2.882   4.060  1.0721  0.2249  0.3953
  111SAPE  C31311587   0.484   2.720   4.210  0.2833  0.0529 -0.7978
  111SAPE  H13X11588   0.376   2.734   4.232  0.3033  1.4846 -1.4954
  111SAPE  H13Y11589   0.531   2.781   4.290 -0.0960 -2.6680  1.6979
  111SAPE  C31411590   0.524   2.580   4.246  0.7823  0.2690 -0.0134
  111SAPE  H14X11591   0.633   2.566   4.228  0.5263 -1.5351 -0.3621
  111SAPE  H14Y11592   0.479   2.499   4.183  1.6269  1.5922 -2.4786
  111SAPE  C31511593   0.501   2.538   4.387  0.1959  0.0138  0.1398
  111SAPE  H15X11594   0.500   2.427   4.382 -1.0003  0.0507 -0.7217
  111SAPE  H15Y11595   0.408   2.588   4.420 -1.5965 -1.7510 -1.9099
  111SAPE  C31611596   0.613   2.578   4.490  0.4692 -0.0241  0.6631
  111SAPE  H16X11597   0.624   2.689   4.479 -3.1013  0.2564 -2.5363
  111SAPE  H16Y11598   0.708   2.523   4.476  0.8668  0.9362 -0.7196
  111SAPE  C31711599   0.554   2.545   4.632 -0.0096  0.4573  0.1067
  111SAPE  H17X11600   0.526   2.438   4.621  0.6196  0.2958 -0.0090
  111SAPE  H17Y11601   0.458   2.600   4.644  1.0128  2.0237  1.5001
  111SAPE  C31811602   0.643   2.573   4.748 -0.0273  0.5302  0.0956
  111SAPE  H18X11603   0.735   2.510   4.744 -1.9110 -2.3805 -0.2481
  111SAPE  H18Y11604   0.595   2.540   4.842 -1.4808  1.0913 -0.4241
  111SAPE  H18Z11605   0.680   2.678   4.754 -2.0423  1.2482  0.8002
  112SAPE     N11606   0.124   2.427   2.178 -0.0118 -0.3950  0.9124
  112SAPE   HN111607   0.137   2.486   2.094 -0.4183 -2.7086 -0.8743
  112SAPE   HN211608   0.101   2.335   2.135  0.1102  0.0508 -0.1229
  112SAPE   HN311609   0.044   2.467   2.232 -0.0448 -0.1123  0.6561
  112SAPE   C1211610   0.249   2.416   2.270  0.8387  0.0488  0.8809
  112SAPE  H12A11611   0.276   2.522   2.293  1.1685  0.0830  0.3600
  112SAPE  H12B11612   0.318   2.365   2.199 -2.0105  0.4592 -2.5019
  112SAPE   C1111613   0.208   2.345   2.397 -0.6104  0.0700  0.0662
  112SAPE  H11A11614   0.131   2.399   2.455  0.2909 -0.4762  1.8463
  112SAPE  H11B11615   0.299   2.340   2.461 -1.4854  0.7871  1.4145
  112SAPE     P11616   0.254   2.095   2.351 -0.2311  0.0122  0.0684
  112SAPE   O1311617   0.210   1.987   2.263  0.5043 -0.5296 -0.0040
  112SAPE   O1411618   0.389   2.155   2.322  0.6792 -0.5657 -0.2712
  112SAPE   O1211619   0.155   2.214   2.366 -0.6901  0.3776  0.5107
  112SAPE   O1111620   0.272   2.036   2.495  0.6290  0.2591  0.1171
  112SAPE    C111621   0.159   2.023   2.582  0.0428 -0.0894 -0.2931
  112SAPE    HA11622   0.061   2.003   2.534 -0.0409 -0.1774 -0.0889
  112SAPE    HB11623   0.179   1.937   2.650  0.0001 -0.6163 -0.9388
  112SAPE    C211624   0.152   2.141   2.684  0.9977 -0.6573  0.4078
  112SAPE    HS11625   0.132   2.240   2.638 -1.0352 -1.1434  0.1465
  112SAPE   O2111626   0.282   2.138   2.754  0.0954  0.0630 -0.5199
  112SAPE   C2111627   0.340   2.259   2.769  0.8944 -0.3242 -0.2850
  112SAPE   O2211628   0.288   2.364   2.726 -0.0056 -0.3429 -0.0833
  112SAPE   C2211629   0.455   2.244   2.861 -0.6694  0.0815 -0.1189
  112SAPE   H2R11630   0.478   2.137   2.877 -0.6108 -0.0908 -1.2874
  112SAPE   H2S11631   0.537   2.299   2.810  0.2822  0.4311  1.7116
  112SAPE    C311632   0.041   2.125   2.793  0.0283 -0.9352  0.5334
  112SAPE    HX11633   0.046   2.022   2.834 -1.3642 -1.3049 -0.1701
  112SAPE    HY11634  -0.059   2.136   2.746 -0.8038  0.0718  2.4174
  112SAPE   O3111635   0.053   2.209   2.911  0.3892 -0.2944 -0.1849
  112SAPE   C3111636  -0.012   2.325   2.913  0.2502  0.7439 -0.0509
  112SAPE   O3211637  -0.103   2.356   2.830  0.0321  0.2354 -0.4347
  112SAPE   C3211638   0.024   2.409   3.029  0.5136 -0.2115  0.1643
  112SAPE   H2X11639   0.107   2.354   3.077 -0.1249 -1.6823 -0.3681
  112SAPE   H2Y11640  -0.066   2.407   3.095 -0.1627 -1.7793 -0.7647
  112SAPE   C2311641   0.426   2.318   2.990  0.0604 -0.0989  0.5021
  112SAPE   H3R11642   0.344   2.268   3.047  0.0890 -0.2791  0.3848
  112SAPE   H3S11643   0.394   2.422   2.967  0.9524  0.1420  0.3339
  112SAPE   C2411644   0.545   2.323   3.085 -0.1691 -0.3238  0.7227
  112SAPE   H4R11645   0.508   2.388   3.167 -1.0134  1.3742 -0.9541
  112SAPE   H4S11646   0.627   2.376   3.033 -0.4024 -2.1453 -1.6911
  112SAPE   C2511647   0.592   2.192   3.135  0.0588  0.0330 -0.0159
  112SAPE   H5R11648   0.646   2.127   3.065  0.4002 -0.0570  0.3280
  112SAPE   C2611649   0.611   2.159   3.259 -0.0732 -1.1419  1.0633
  112SAPE   H6R11650   0.657   2.061   3.278  1.4265 -0.7320 -0.2388
  112SAPE   C2711651   0.570   2.232   3.386  0.2505 -0.0377  0.2100
  112SAPE   H7R11652   0.570   2.340   3.361 -1.3457  0.8787  3.5731
  112SAPE   H7S11653   0.652   2.229   3.461 -1.4956  0.6632  2.2765
  112SAPE   C2811654   0.436   2.191   3.444  0.3978  0.2061 -0.4894
  112SAPE   H8R11655   0.401   2.111   3.377  0.3218  0.2921 -0.5526
  112SAPE   C2911656   0.382   2.200   3.565 -0.5877  0.7546 -0.3806
  112SAPE   H9R11657   0.281   2.157   3.570  0.3506 -1.6999 -1.0539
  112SAPE  C21011658   0.442   2.265   3.692  0.1464 -0.2123  0.0662
  112SAPE  H10R11659   0.532   2.321   3.658  1.6571 -1.1690  2.3066
  112SAPE  H10S11660   0.484   2.190   3.761 -0.2837  0.0102  0.5810
  112SAPE  C21111661   0.357   2.369   3.759 -0.3428 -0.4511 -0.6776
  112SAPE  H11R11662   0.363   2.472   3.720 -1.0553  0.7560  2.1235
  112SAPE  C21211663   0.273   2.357   3.855 -0.5192 -0.3698 -1.3420
  112SAPE  H12R11664   0.241   2.451   3.901 -0.6693 -0.7996 -0.5651
  112SAPE  C21311665   0.250   2.249   3.951 -0.1413 -0.2528  0.0833
  112SAPE  H13R11666   0.281   2.289   4.051 -0.2951 -0.6527  0.2934
  112SAPE  H13S11667   0.324   2.167   3.945 -0.7060 -0.7248 -0.4456
  112SAPE  C21411668   0.104   2.196   3.947 -0.2653  0.4774 -0.7437
  112SAPE  H14R11669   0.051   2.217   3.852 -0.2957 -1.3437 -1.1703
  112SAPE  C21511670   0.027   2.167   4.052  0.2846 -0.6018  0.2485
  112SAPE  H15R11671  -0.078   2.140   4.030  0.4750 -0.6609 -0.6087
  112SAPE  C21611672   0.068   2.168   4.195 -0.4796  0.3055 -0.6832
  112SAPE  H16R11673   0.179   2.163   4.203 -0.4331  2.3962  0.8589
  112SAPE  H16S11674   0.020   2.075   4.231 -3.1648  1.0640 -2.0162
  112SAPE  C21711675   0.031   2.292   4.263  0.0179  0.0879  0.3746
  112SAPE  H17R11676  -0.066   2.330   4.227  0.3821  2.8195  1.9764
  112SAPE  H17S11677   0.102   2.373   4.234 -0.1168 -0.1717 -0.6824
  112SAPE  C21811678   0.018   2.283   4.418 -0.5582  0.3215  0.6855
  112SAPE  H18R11679   0.105   2.226   4.458 -1.4712 -0.7050  1.2497
  112SAPE  H18S11680  -0.073   2.226   4.445 -0.4341 -0.2987 -0.1388
  112SAPE  C21911681   0.019   2.420   4.489  0.0956  0.7209 -0.2089
  112SAPE  H19R11682   0.118   2.470   4.480 -0.5805  2.1345 -0.0982
  112SAPE  H19S11683  -0.000   2.405   4.597  0.9795 -2.4118 -0.3881
  112SAPE  C22011684  -0.099   2.503   4.438 -0.3955 -0.2115  0.0377
  112SAPE  H20R11685  -0.196   2.452   4.457 -0.5062 -0.1373 -0.3026
  112SAPE  H20S11686  -0.092   2.532   4.331 -1.0507 -0.1657  0.0013
  112SAPE  H20T11687  -0.092   2.601   4.490 -0.8002 -0.6776  0.9772
  112SAPE   C3311688   0.059   2.563   2.999  0.0014 -0.2348 -0.3521
  112SAPE   H3X11689  -0.003   2.597   2.913 -0.5597 -0.9989 -0.2612
  112SAPE   H3Y11690   0.169   2.573   2.983  0.1456  0.9342  1.1045
  112SAPE   C3411691   0.033   2.647   3.121  0.1737 -0.2715 -0.0058
  112SAPE   H4X11692  -0.069   2.682   3.149  1.1022  2.0290  0.7266
  112SAPE   H4Y11693   0.057   2.752   3.092 -2.4249 -0.4100 -3.3146
  112SAPE   C3511694   0.100   2.608   3.251  1.1626  0.0327  0.0900
  112SAPE   H5X11695   0.204   2.581   3.222  0.4667 -0.4777 -2.1152
  112SAPE   H5Y11696   0.064   2.519   3.307 -0.1413  1.6974  2.0482
  112SAPE   C3611697   0.096   2.725   3.351  0.4123  0.0833 -0.0219
  112SAPE   H6X11698  -0.005   2.734   3.398 -0.4660 -0.1129 -1.7724
  112SAPE   H6Y11699   0.110   2.821   3.298  1.8192  0.6221  1.2713
  112SAPE   C3711700   0.204   2.703   3.459  0.0819 -0.4758  0.5619
  112SAPE   H7X11701   0.302   2.734   3.416  0.7242  0.5977  2.6482
  112SAPE   H7Y11702   0.217   2.596   3.484 -0.3962 -0.6817 -0.0492
  112SAPE   C3811703   0.184   2.791   3.584  0.0924  0.1124 -0.1865
  112SAPE   H8X11704   0.162   2.898   3.563 -0.3025  0.4679  1.8742
  112SAPE   H8Y11705   0.280   2.793   3.639 -0.7343 -0.2973  1.3395
  112SAPE   C3911706   0.075   2.732   3.681 -0.7977  0.2319  0.0432
  112SAPE   H9X11707   0.113   2.633   3.714  0.7909  1.0762  0.9006
  112SAPE   H9Y11708  -0.012   2.714   3.614  1.3735  0.0524 -2.9487
  112SAPE  C31011709   0.043   2.817   3.806 -0.0231 -0.0308 -0.1291
  112SAPE  H10X11710  -0.045   2.774   3.858  0.2976  0.7001  1.0575
  112SAPE  H10Y11711   0.009   2.917   3.771  0.0805  0.4211  1.0359
  112SAPE  C31111712   0.155   2.831   3.902  0.4980 -0.5313 -0.3577
  112SAPE  H11X11713   0.247   2.852   3.844  2.1947 -2.7097  1.3800
  112SAPE  H11Y11714   0.194   2.734   3.940  2.4205 -0.9869 -3.1317
  112SAPE  C31211715   0.137   2.921   4.026 -0.2312  0.8599  0.3730
  112SAPE  H12X11716   0.108   3.024   3.999 -0.4366  0.6621 -0.1737
  112SAPE  H12Y11717   0.218   2.915   4.102  0.3093 -1.7412 -0.2957
  112SAPE  C31311718   0.004   2.888   4.108 -0.5587 -0.2465 -0.0136
  112SAPE  H13X11719   0.022   2.788   4.154  1.7990 -0.7185 -1.7835
  112SAPE  H13Y11720  -0.081   2.894   4.037 -0.4309  0.6776 -0.1073
  112SAPE  C31411721  -0.034   3.009   4.210 -0.2470  0.0154  1.1277
  112SAPE  H14X11722  -0.128   2.980   4.261  0.3399  0.2923  2.4204
  112SAPE  H14Y11723  -0.062   3.100   4.152  0.2435 -0.0637  0.7603
  112SAPE  C31511724   0.074   3.052   4.310  0.5480 -0.1605  0.1837
  112SAPE  H15X11725   0.030   3.131   4.374 -1.2786 -1.1605  0.2253
  112SAPE  H15Y11726   0.160   3.104   4.262  0.4875  1.9142  2.1449
  112SAPE  C31611727   0.123   2.942   4.403 -0.6146 -0.0652  0.1163
  112SAPE  H16X11728   0.164   2.853   4.349  3.3711  0.4058  2.0111
  112SAPE  H16Y11729   0.026   2.918   4.451 -1.1039  0.4511 -0.5906
  112SAPE  C31711730   0.230   3.002   4.495 -0.0531 -0.7597 -0.4966
  112SAPE  H17X11731   0.220   3.112   4.511  0.3164 -0.7596 -0.2468
  112SAPE  H17Y11732   0.336   2.996   4.464  0.8317  3.1457  1.0632
  112SAPE  C31811733   0.221   2.931   4.630  0.9520 -0.1163 -0.2247
  112SAPE  H18X11734   0.273   2.833   4.626  0.8203 -0.2338  0.8201
  112SAPE  H18Y11735   0.115   2.909   4.653  0.8604 -0.6190 -1.0748
  112SAPE  H18Z11736   0.250   2.998   4.713  1.3936 -2.6915  1.8275
  113SAPE     N11737   3.291   2.735   2.217 -0.4937  0.5599  0.3824
  113SAPE   HN111738   3.362   2.676   2.265  0.1506  1.2095  0.2394
  113SAPE   HN211739   3.196   2.729   2.259 -0.2413  1.3922  1.0873
  113SAPE   HN311740   3.294   2.702   2.118 -2.8927 -0.2305  0.5079
  113SAPE   C1211741   3.332   2.869   2.202 -0.6450 -0.0257 -0.1524
  113SAPE  H12A11742   3.252   2.927   2.151  2.2181  1.5508 -3.2614
  113SAPE  H12B11743   3.419   2.864   2.133  0.1454 -0.7646  0.8717
  113SAPE   C1111744   3.374   2.937   2.332 -0.1547 -0.5446  0.2535
  113SAPE  H11A11745   3.291   2.933   2.405 -0.8995  0.9327 -0.4807
  113SAPE  H11B11746   3.405   3.041   2.310  0.4840 -0.8029 -0.1149
  113SAPE     P11747   3.556   2.914   2.524  0.4679  0.1325  0.3460
  113SAPE   O1311748   3.657   2.819   2.570 -0.2081 -0.7449 -0.5454
  113SAPE   O1411749   3.601   3.057   2.512  0.0353 -0.4992 -0.4259
  113SAPE   O1211750   3.493   2.874   2.384 -0.3450 -0.1526 -0.3822
  113SAPE   O1111751   3.437   2.899   2.617  0.0348 -0.0467 -0.0079
  113SAPE    C111752   3.361   2.782   2.626  0.0932  0.3361  0.3567
  113SAPE    HA11753   3.261   2.799   2.579 -0.2239 -1.0089  0.5193
  113SAPE    HB11754   3.409   2.692   2.582 -0.2683  0.8683 -1.1960
  113SAPE    C211755   3.320   2.741   2.768 -0.4410 -0.0531 -0.7455
  113SAPE    HS11756   3.214   2.708   2.768 -0.2698 -0.7866  1.4788
  113SAPE   O2111757   3.323   2.860   2.849 -0.4637 -0.2220  0.5224
  113SAPE   C2111758   3.227   2.877   2.936  0.4590 -0.3744 -0.2866
  113SAPE   O2211759   3.141   2.792   2.958 -0.5801  0.2594 -0.6265
  113SAPE   C2211760   3.264   3.006   3.013  0.4531 -0.0042  0.6939
  113SAPE   H2R11761   3.366   3.000   3.059 -0.1558 -0.0650  2.0883
  113SAPE   H2S11762   3.256   3.099   2.953  2.5610  0.8605  1.6288
  113SAPE    C311763   3.421   2.643   2.834 -0.0413 -0.4238 -0.6412
  113SAPE    HX11764   3.525   2.679   2.848  0.4826 -2.2651  0.5781
  113SAPE    HY11765   3.445   2.558   2.766 -0.2568  0.0758 -1.3496
  113SAPE   O3111766   3.359   2.582   2.944 -0.0656 -0.4763  0.2980
  113SAPE   C3111767   3.453   2.544   3.045  0.0052 -0.0588 -0.4166
  113SAPE   O3211768   3.572   2.559   3.028 -0.1060 -0.0889 -0.5455
  113SAPE   C3211769   3.385   2.506   3.176  0.3168 -0.3122 -0.2093
  113SAPE   H2X11770   3.431   2.410   3.206  0.6226 -0.4121 -0.9825
  113SAPE   H2Y11771   3.280   2.487   3.146  0.2290 -1.2334  0.6210
  113SAPE   C2311772   3.161   3.009   3.128  0.6552 -0.1444 -0.2991
  113SAPE   H3R11773   3.173   2.920   3.193  0.0792 -0.6736 -0.9076
  113SAPE   H3S11774   3.059   2.997   3.086  0.4631  0.1052  0.0896
  113SAPE   C2411775   3.170   3.141   3.199 -0.0146 -0.8908  0.2343
  113SAPE   H4R11776   3.179   3.219   3.120 -0.6830 -0.3815  0.6514
  113SAPE   H4S11777   3.261   3.153   3.262  1.2109  0.2204 -1.6381
  113SAPE   C2511778   3.039   3.182   3.273  0.0803  0.4900  0.9817
  113SAPE   H5R11779   2.978   3.242   3.204  1.1714 -0.4192 -0.8441
  113SAPE   C2611780   3.001   3.153   3.393 -0.5049 -0.2805 -1.3506
  113SAPE   H6R11781   2.901   3.182   3.427  0.5317 -0.3186  2.0567
  113SAPE   C2711782   3.086   3.074   3.495 -0.0264 -0.3929 -0.1614
  113SAPE   H7R11783   3.175   3.128   3.532  0.0034 -1.2648  1.0995
  113SAPE   H7S11784   3.116   2.973   3.457 -0.5907  0.2933 -2.6352
  113SAPE   C2811785   3.000   3.042   3.613 -0.5119  0.3201  0.7005
  113SAPE   H8R11786   2.979   2.934   3.608 -1.5611  0.5052  0.9985
  113SAPE   C2911787   2.947   3.118   3.709  0.7827  0.1331  0.9928
  113SAPE   H9R11788   2.898   3.071   3.795  0.4891 -0.1259  0.6842
  113SAPE  C21011789   2.950   3.269   3.714  0.5755  0.5900 -0.3321
  113SAPE  H10R11790   2.858   3.315   3.673  0.2553  0.0315 -0.2396
  113SAPE  H10S11791   3.035   3.304   3.652 -0.2027  0.4137 -1.5149
  113SAPE  C21111792   2.980   3.326   3.856 -0.1792  0.0720  0.2675
  113SAPE  H11R11793   2.888   3.365   3.903  0.4505  1.6926  0.2067
  113SAPE  C21211794   3.090   3.320   3.930  0.4858  0.5802 -0.2616
  113SAPE  H12R11795   3.081   3.369   4.029 -0.1357 -0.4172  0.1893
  113SAPE  C21311796   3.218   3.257   3.879 -0.6321  0.5517 -0.3145
  113SAPE  H13R11797   3.216   3.221   3.774 -0.4814 -1.6916  0.4177
  113SAPE  H13S11798   3.235   3.167   3.941  2.8749  1.3181  0.0740
  113SAPE  C21411799   3.333   3.355   3.894  0.4782 -0.0943 -0.1575
  113SAPE  H14R11800   3.352   3.384   3.998 -0.1435 -2.2268  0.6196
  113SAPE  C21511801   3.398   3.419   3.793 -0.2414  0.2631  0.1247
  113SAPE  H15R11802   3.470   3.496   3.825  1.7303 -0.6954 -1.7846
  113SAPE  C21611803   3.395   3.403   3.643  0.2345  0.0296 -0.1523
  113SAPE  H16R11804   3.357   3.303   3.613  0.1234  0.3557 -1.1389
  113SAPE  H16S11805   3.502   3.394   3.616  0.7977 -1.2049  2.2049
  113SAPE  C21711806   3.337   3.518   3.556  0.3105  0.2536  0.7999
  113SAPE  H17R11807   3.386   3.614   3.583 -2.7400  2.1826 -0.1342
  113SAPE  H17S11808   3.228   3.519   3.574 -0.5124  0.7571 -3.2543
  113SAPE  C21811809   3.354   3.499   3.397 -0.9951  0.0190 -0.6957
  113SAPE  H18R11810   3.268   3.435   3.366 -0.3113 -0.0476 -2.5570
  113SAPE  H18S11811   3.448   3.443   3.380  0.0225  1.5100 -0.1785
  113SAPE  C21911812   3.359   3.629   3.319  0.2994 -0.2010  0.0819
  113SAPE  H19R11813   3.436   3.695   3.367 -0.8535  0.7785  0.6512
  113SAPE  H19S11814   3.264   3.686   3.328  1.6842  2.2232  0.2317
  113SAPE  C22011815   3.395   3.618   3.169  0.3766  0.1270  0.3827
  113SAPE  H20R11816   3.318   3.561   3.113  0.7772 -1.5621  1.4924
  113SAPE  H20S11817   3.490   3.563   3.150 -0.2551  0.0048 -3.1046
  113SAPE  H20T11818   3.408   3.708   3.104 -0.7683 -1.8247 -2.7756
  113SAPE   C3311819   3.411   2.604   3.289  0.7164 -0.2473 -0.4511
  113SAPE   H3X11820   3.376   2.707   3.264 -1.2110 -0.2562  1.8699
  113SAPE   H3Y11821   3.520   2.613   3.308  0.5297 -0.4850  0.8451
  113SAPE   C3411822   3.326   2.568   3.417  0.1730 -0.4189 -0.0749
  113SAPE   H4X11823   3.360   2.471   3.457  2.5886  0.5291  0.3426
  113SAPE   H4Y11824   3.217   2.568   3.391  0.2847  0.1599 -0.5667
  113SAPE   C3511825   3.361   2.665   3.518 -0.0597 -0.5700 -0.0554
  113SAPE   H5X11826   3.343   2.767   3.479  1.3015 -0.2209  0.1788
  113SAPE   H5Y11827   3.467   2.649   3.546 -0.5310 -2.4068  0.8531
  113SAPE   C3611828   3.264   2.656   3.641  0.0021 -0.0362  0.6147
  113SAPE   H6X11829   3.292   2.557   3.684 -0.0573 -1.4609 -2.4070
  113SAPE   H6Y11830   3.162   2.655   3.597 -0.6491  2.5021  1.8888
  113SAPE   C3711831   3.271   2.768   3.744  0.6603 -0.2936 -0.4216
  113SAPE   H7X11832   3.254   2.867   3.696  3.6591  1.8657  2.4999
  113SAPE   H7Y11833   3.368   2.775   3.799  0.2253 -0.9765  0.4535
  113SAPE   C3811834   3.162   2.761   3.854  0.1931 -0.2839 -0.2303
  113SAPE   H8X11835   3.070   2.747   3.793  0.6626 -1.9650 -0.6259
  113SAPE   H8Y11836   3.173   2.667   3.912 -1.5843 -0.9829 -0.9590
  113SAPE   C3911837   3.153   2.880   3.952 -0.8032  0.0505 -0.0674
  113SAPE   H9X11838   3.142   2.974   3.894  1.5608  0.1430 -0.4682
  113SAPE   H9Y11839   3.253   2.889   3.998 -1.0375  0.6619  0.3336
  113SAPE  C31011840   3.044   2.868   4.058  0.2647 -0.1171  0.0813
  113SAPE  H10X11841   3.056   2.791   4.138 -3.6731 -0.8791  0.1624
  113SAPE  H10Y11842   2.947   2.839   4.013 -1.3793  2.4737  1.6940
  113SAPE  C31111843   3.023   3.001   4.127  0.0691 -0.0665 -0.6823
  113SAPE  H11X11844   2.998   3.072   4.046 -0.4832 -0.2628 -0.6906
  113SAPE  H11Y11845   3.115   3.032   4.182 -1.7037 -0.0384  2.4943
  113SAPE  C31211846   2.917   2.987   4.236  0.0677  0.7275  0.1117
  113SAPE  H12X11847   2.948   2.904   4.303 -0.8350 -0.5405 -0.9923
  113SAPE  H12Y11848   2.832   2.937   4.186  0.5379  0.3013 -0.2821
  113SAPE  C31311849   2.885   3.110   4.312  0.5691 -0.3122 -0.3194
  113SAPE  H13X11850   2.836   3.186   4.247  1.1717 -0.8088 -1.3851
  113SAPE  H13Y11851   2.978   3.161   4.347 -0.8421  1.6987  0.6978
  113SAPE  C31411852   2.810   3.074   4.443  0.2632  0.4471  0.4567
  113SAPE  H14X11853   2.891   3.027   4.503  1.9810 -0.6713 -2.4985
  113SAPE  H14Y11854   2.725   3.007   4.416 -0.7009  1.8635 -0.1402
  113SAPE  C31511855   2.765   3.200   4.509  0.4085 -0.5802 -0.0565
  113SAPE  H15X11856   2.714   3.189   4.608  0.8393 -0.5078  0.1775
  113SAPE  H15Y11857   2.691   3.253   4.446  0.7982  0.2777  0.2002
  113SAPE  C31611858   2.881   3.301   4.529 -0.4040  0.3402  0.0212
  113SAPE  H16X11859   2.909   3.346   4.431  1.4283 -1.6075 -0.4118
  113SAPE  H16Y11860   2.967   3.244   4.570 -1.0938  0.5036  1.8007
  113SAPE  C31711861   2.838   3.412   4.624 -0.1487 -0.2458  0.6314
  113SAPE  H17X11862   2.741   3.451   4.588 -0.4829 -1.0874  0.5979
  113SAPE  H17Y11863   2.912   3.495   4.623  0.2063 -0.5463 -0.6510
  113SAPE  C31811864   2.822   3.365   4.770 -0.2093 -0.0743  0.1911
  113SAPE  H18X11865   2.808   3.459   4.829 -1.3646  0.2474 -0.5478
  113SAPE  H18Y11866   2.913   3.311   4.801 -2.3765 -2.6498  2.7003
  113SAPE  H18Z11867   2.737   3.294   4.778 -0.1425 -0.3513 -1.3030
  114SAPE     N11868   5.627   1.656   2.300  1.2499 -0.0894 -0.3333
  114SAPE   HN111869   5.573   1.573   2.331  0.6669  1.7633  4.5251
  114SAPE   HN211870   5.714   1.654   2.356  0.3123  4.9045  1.8749
  114SAPE   HN311871   5.579   1.744   2.328  0.5885 -0.7568  0.6773
  114SAPE   C1211872   5.638   1.659   2.152 -0.5455  0.4756 -0.0058
  114SAPE  H12A11873   5.554   1.708   2.098 -1.4074 -0.6628  0.2605
  114SAPE  H12B11874   5.630   1.552   2.124 -0.0522 -0.0017  1.5288
  114SAPE   C1111875   5.769   1.716   2.100 -0.0411  0.1639 -0.0786
  114SAPE  H11A11876   5.760   1.721   1.990 -1.0742  0.9181  0.0239
  114SAPE  H11B11877   5.862   1.659   2.120  0.4893  0.9974 -0.0911
  114SAPE     P11878   5.848   1.972   2.102 -0.1100 -0.2390  0.0908
  114SAPE   O1311879   5.899   1.935   1.967 -0.3963 -0.1647  0.7295
  114SAPE   O1411880   5.756   2.086   2.107 -0.4254  0.2040 -0.3121
  114SAPE   O1211881   5.777   1.845   2.160  0.2140  0.1021 -0.4395
  114SAPE   O1111882   5.972   1.989   2.200 -1.0286 -0.1015  0.9549
  114SAPE    C111883   6.063   1.883   2.228  0.2032  0.3179  0.0135
  114SAPE    HA11884   6.086   1.812   2.146  0.6542  1.5679 -0.9633
  114SAPE    HB11885   6.158   1.932   2.256 -0.4044  0.3896  2.1328
  114SAPE    C211886   6.012   1.806   2.356 -0.5016 -0.0059  0.6600
  114SAPE    HS11887   5.932   1.745   2.309  0.6211  0.6417 -2.3442
  114SAPE   O2111888   5.968   1.902   2.459  0.2500 -0.0749  0.2082
  114SAPE   C2111889   5.850   1.875   2.507  0.4099 -0.0994  0.2745
  114SAPE   O2211890   5.779   1.773   2.491 -0.4821 -0.4337  0.1794
  114SAPE   C2211891   5.797   1.987   2.601  0.0590  0.0847  0.3961
  114SAPE   H2R11892   5.875   2.022   2.672 -0.7426  0.9316  0.8747
  114SAPE   H2S11893   5.777   2.069   2.529  0.9707  0.5489  0.6616
  114SAPE    C311894   6.121   1.707   2.400 -0.6729  0.9071 -0.6228
  114SAPE    HX11895   6.213   1.755   2.439  0.3241 -0.6050 -1.0131
  114SAPE    HY11896   6.152   1.658   2.305 -1.6017  2.4406 -1.7598
  114SAPE   O3111897   6.068   1.620   2.502  0.9289  0.0916 -0.6067
  114SAPE   C3111898   5.997   1.516   2.463  0.1722  0.0259  0.4383
  114SAPE   O3211899   5.980   1.479   2.349 -0.3456  0.2739  0.2816
  114SAPE   C3211900   5.948   1.437   2.584 -1.2511  0.2052  0.0797
  114SAPE   H2X11901   6.033   1.377   2.620 -0.2407  1.6372  0.1694
  114SAPE   H2Y11902   5.873   1.365   2.544  1.3868 -2.0146 -1.1739
  114SAPE   C2311903   5.662   1.949   2.671  0.0475  0.1548 -0.3614
  114SAPE   H3R11904   5.600   1.888   2.602  1.8273 -2.8470  0.5373
  114SAPE   H3S11905   5.618   2.046   2.702  1.8777  0.4050  1.6364
  114SAPE   C2411906   5.683   1.878   2.804 -0.1470  0.3092  0.1780
  114SAPE   H4R11907   5.721   1.947   2.882 -0.3340  0.1846  0.3809
  114SAPE   H4S11908   5.764   1.802   2.798  0.2350  0.6781  0.5638
  114SAPE   C2511909   5.551   1.821   2.856  0.1627  0.4550 -0.2735
  114SAPE   H5R11910   5.482   1.815   2.770  2.7012 -1.1958 -2.3567
  114SAPE   C2611911   5.520   1.774   2.978  0.0360 -0.0535  0.3336
  114SAPE   H6R11912   5.421   1.727   2.989  0.1260 -0.7118 -1.4319
  114SAPE   C2711913   5.597   1.784   3.109  0.2440 -0.3941  0.0618
  114SAPE   H7R11914   5.545   1.862   3.168 -2.4829 -1.3306 -0.9424
  114SAPE   H7S11915   5.695   1.821   3.071 -0.8802  1.6130 -1.1169
  114SAPE   C2811916   5.609   1.649   3.178 -0.5284  0.0344 -0.0791
  114SAPE   H8R11917   5.655   1.577   3.108  2.2508  1.1736  0.4403
  114SAPE   C2911918   5.600   1.625   3.309 -0.3321  0.0296  0.5761
  114SAPE   H9R11919   5.587   1.521   3.342  3.4827 -0.7034  0.2048
  114SAPE  C21011920   5.572   1.723   3.418 -0.5163  0.0231 -0.4497
  114SAPE  H10R11921   5.526   1.676   3.507  2.7055 -1.0347  0.8032
  114SAPE  H10S11922   5.490   1.796   3.403 -1.0186  0.7815  4.4138
  114SAPE  C21111923   5.693   1.801   3.449  0.1516 -0.0295 -0.6713
  114SAPE  H11R11924   5.707   1.886   3.381 -1.1437  0.1547 -0.7285
  114SAPE  C21211925   5.773   1.785   3.558  0.5321 -0.1734  0.8872
  114SAPE  H12R11926   5.859   1.853   3.571  0.4087  0.2503 -0.3546
  114SAPE  C21311927   5.756   1.669   3.657  0.3613 -0.2760 -0.5923
  114SAPE  H13R11928   5.854   1.654   3.708 -1.0928  1.5966  3.1145
  114SAPE  H13S11929   5.743   1.571   3.606 -2.3536 -0.7259  0.7844
  114SAPE  C21411930   5.639   1.680   3.754  0.1203  0.6758 -0.1299
  114SAPE  H14R11931   5.607   1.783   3.775  2.1640  0.8653  2.5349
  114SAPE  C21511932   5.574   1.575   3.815  0.4325  0.8571  0.0920
  114SAPE  H15R11933   5.484   1.592   3.876 -0.0504  0.8732 -0.6127
  114SAPE  C21611934   5.618   1.428   3.797 -0.5825  0.2915 -0.3847
  114SAPE  H16R11935   5.701   1.416   3.725  0.1538  0.6980  0.3799
  114SAPE  H16S11936   5.528   1.368   3.771 -0.3379 -1.4470  2.3125
  114SAPE  C21711937   5.663   1.363   3.930 -0.4998 -0.4388  1.1869
  114SAPE  H17R11938   5.650   1.254   3.917 -0.2872 -0.9507  4.4766
  114SAPE  H17S11939   5.595   1.385   4.015 -0.7022 -0.2192  0.9725
  114SAPE  C21811940   5.803   1.415   3.978 -1.1291 -0.2771  0.5677
  114SAPE  H18R11941   5.793   1.525   3.990  2.0464  0.5263 -2.5291
  114SAPE  H18S11942   5.873   1.410   3.892  1.2994  1.2688  2.3389
  114SAPE  C21911943   5.863   1.345   4.101  0.2211  0.6065  0.1044
  114SAPE  H19R11944   5.845   1.238   4.080  0.1036  0.3812  1.2971
  114SAPE  H19S11945   5.800   1.362   4.191  0.1417 -0.4603  0.2648
  114SAPE  C22011946   6.011   1.370   4.133  0.7281  0.9838 -0.3730
  114SAPE  H20R11947   6.050   1.302   4.212 -2.9745 -1.0567 -0.0365
  114SAPE  H20S11948   6.023   1.477   4.158 -0.8141  1.5285 -1.7712
  114SAPE  H20T11949   6.079   1.350   4.047  1.7266 -0.0491  0.6283
  114SAPE   C3311950   5.886   1.522   2.693 -0.0326  0.4599 -0.3956
  114SAPE   H3X11951   5.809   1.585   2.642  0.9095  0.1184 -2.3397
  114SAPE   H3Y11952   5.953   1.605   2.724 -0.0538  0.0167  0.8674
  114SAPE   C3411953   5.807   1.455   2.814  0.7495 -0.4167  0.3646
  114SAPE   H4X11954   5.711   1.405   2.787  0.4230  0.6552 -0.5338
  114SAPE   H4Y11955   5.785   1.538   2.884  0.7176  2.1061 -2.4428
  114SAPE   C3511956   5.903   1.356   2.880 -0.0795 -0.1486  0.4870
  114SAPE   H5X11957   5.940   1.273   2.817  1.0453 -0.9338  2.1109
  114SAPE   H5Y11958   5.853   1.303   2.964 -0.9977  1.1364  0.7735
  114SAPE   C3611959   6.037   1.430   2.944  0.5928  0.4701  0.8119
  114SAPE   H6X11960   6.087   1.490   2.865  0.4150 -0.3157  0.0860
  114SAPE   H6Y11961   6.104   1.347   2.974  0.1786 -0.4687 -0.7637
  114SAPE   C3711962   6.011   1.519   3.066 -0.4209  0.8315  0.0219
  114SAPE   H7X11963   5.947   1.606   3.042  0.9329  1.9160  0.1705
  114SAPE   H7Y11964   6.112   1.558   3.093  1.0864 -1.6018 -1.7004
  114SAPE   C3811965   5.967   1.455   3.195  1.1166 -0.4791 -0.0548
  114SAPE   H8X11966   6.016   1.356   3.209  0.2731 -0.9276 -0.2145
  114SAPE   H8Y11967   5.860   1.429   3.180  1.2542 -2.0411  1.4094
  114SAPE   C3911968   5.981   1.551   3.313  0.4595  0.7372  0.0010
  114SAPE   H9X11969   5.905   1.526   3.390 -0.4426  2.0238 -0.4370
  114SAPE   H9Y11970   5.951   1.654   3.285 -0.6038  0.5953  0.5436
  114SAPE  C31011971   6.121   1.552   3.368 -0.8031  0.4228  0.2777
  114SAPE  H10X11972   6.193   1.606   3.302 -0.7866  0.2687  0.1712
  114SAPE  H10Y11973   6.162   1.450   3.383  0.9531  1.1248  0.5876
  114SAPE  C31111974   6.139   1.619   3.502 -0.1189  0.5816 -0.9297
  114SAPE  H11X11975   6.065   1.584   3.577  0.1472 -0.1666 -1.0140
  114SAPE  H11Y11976   6.116   1.727   3.490 -2.0546  0.2867 -0.2237
  114SAPE  C31211977   6.281   1.615   3.557 -0.3819 -0.3253 -0.4390
  114SAPE  H12X11978   6.317   1.693   3.628  0.7136 -0.1364 -1.1632
  114SAPE  H12Y11979   6.350   1.611   3.470 -0.9251 -1.0591 -0.8417
  114SAPE  C31311980   6.300   1.489   3.648 -0.2743 -0.0732 -0.7812
  114SAPE  H13X11981   6.405   1.458   3.670 -0.8554 -3.9741 -2.6707
  114SAPE  H13Y11982   6.261   1.395   3.604  0.9721 -0.0972 -1.9122
  114SAPE  C31411983   6.232   1.502   3.784 -0.2443  0.0712 -0.2689
  114SAPE  H14X11984   6.276   1.423   3.848  1.7928  0.1000 -1.5361
  114SAPE  H14Y11985   6.123   1.480   3.780 -0.1527 -0.5449  0.5645
  114SAPE  C31511986   6.254   1.634   3.859 -0.0522  0.4728 -0.3111
  114SAPE  H15X11987   6.194   1.708   3.803  0.1893 -0.2776 -1.6009
  114SAPE  H15Y11988   6.363   1.655   3.866 -0.2383  0.9784  3.7048
  114SAPE  C31611989   6.211   1.642   4.007  0.4253  0.5432  0.1205
  114SAPE  H16X11990   6.109   1.598   4.011  0.9501 -0.9001 -1.4239
  114SAPE  H16Y11991   6.208   1.749   4.038  0.8756 -0.0749  2.4945
  114SAPE  C31711992   6.303   1.575   4.110  0.4233  0.1591 -0.6643
  114SAPE  H17X11993   6.409   1.590   4.082  1.0457 -0.8128  1.0795
  114SAPE  H17Y11994   6.278   1.467   4.109 -3.0728  0.7594  1.7626
  114SAPE  C31811995   6.276   1.636   4.249 -0.3548  0.0178  0.2801
  114SAPE  H18X11996   6.171   1.620   4.281  0.2148  1.7598  3.3737
  114SAPE  H18Y11997   6.303   1.744   4.245 -2.5364  0.5793 -1.6259
  114SAPE  H18Z11998   6.344   1.588   4.322 -1.2721 -2.2564 -0.2550
  115SAPE     N11999   1.541   4.941   1.871 -0.5994  0.0157 -0.6189
  115SAPE   HN112000   1.484   4.968   1.789 -1.1572 -1.1689 -0.6499
  115SAPE   HN212001   1.625   5.003   1.865 -1.1212  0.9521  1.0381
  115SAPE   HN312002   1.568   4.840   1.863 -0.0087  0.1912 -0.9449
  115SAPE   C1212003   1.462   4.974   1.994  0.7800 -0.3695  0.0806
  115SAPE  H12A12004   1.415   4.880   2.030 -0.9581 -0.3491 -1.9555
  115SAPE  H12B12005   1.387   5.051   1.964  0.4561 -1.2138 -1.3829
  115SAPE   C1112006   1.547   5.042   2.104  0.0331 -0.6873 -0.5671
  115SAPE  H11A12007   1.622   4.969   2.141  0.9385 -0.2373 -1.4643
  115SAPE  H11B12008   1.484   5.068   2.191  0.7318  0.7065 -0.4454
  115SAPE     P12009   1.576   5.311   2.093  0.4031  0.4484 -0.0169
  115SAPE   O1312010   1.666   5.404   2.018 -0.3724  0.5048 -0.5804
  115SAPE   O1412011   1.431   5.328   2.066  0.3417  0.0430 -0.0211
  115SAPE   O1212012   1.606   5.167   2.051 -0.0465 -0.1302  0.3495
  115SAPE   O1112013   1.608   5.302   2.243 -0.2811  0.5213 -0.3089
  115SAPE    C112014   1.732   5.247   2.289 -0.5829 -0.5675  0.0845
  115SAPE    HA12015   1.728   5.137   2.275  0.8722 -0.6872  0.5266
  115SAPE    HB12016   1.821   5.290   2.240 -1.3973  0.0536 -0.8960
  115SAPE    C212017   1.759   5.269   2.440  0.3006  0.8528 -0.2610
  115SAPE    HS12018   1.784   5.377   2.450 -0.8323  1.3216 -2.0677
  115SAPE   O2112019   1.854   5.170   2.475 -0.4554  0.0162 -0.6200
  115SAPE   C2112020   1.945   5.208   2.562 -0.0025  0.1009 -0.3609
  115SAPE   O2212021   1.965   5.326   2.594 -0.3048  0.1697  0.6331
  115SAPE   C2212022   2.029   5.084   2.617 -0.3597 -0.1695  0.2183
  115SAPE   H2R12023   1.960   4.998   2.621  1.7405 -1.9702 -0.5881
  115SAPE   H2S12024   2.111   5.065   2.544  0.2603 -2.3855  1.4123
  115SAPE    C312025   1.626   5.253   2.515  0.1861  0.2977 -0.7030
  115SAPE    HX12026   1.602   5.148   2.488 -0.2085  0.7756 -2.2603
  115SAPE    HY12027   1.547   5.325   2.485  0.4985  0.3395 -1.4474
  115SAPE   O3112028   1.649   5.247   2.664  0.1577  0.0710  0.3318
  115SAPE   C3112029   1.657   5.370   2.715 -0.1567  0.6642 -0.4157
  115SAPE   O3212030   1.629   5.475   2.660  0.5352  0.4444 -0.2294
  115SAPE   C3212031   1.716   5.369   2.852  0.3040  0.2596 -0.6473
  115SAPE   H2X12032   1.657   5.435   2.918 -1.6717 -0.5464 -1.5303
  115SAPE   H2Y12033   1.823   5.399   2.851  0.0356  1.2440 -0.4558
  115SAPE   C2312034   2.095   5.098   2.756 -0.3851 -0.5579 -0.1298
  115SAPE   H3R12035   2.017   5.125   2.831  1.2977  0.8152  1.2020
  115SAPE   H3S12036   2.172   5.177   2.754 -0.1421 -0.7472  0.9263
  115SAPE   C2412037   2.153   4.964   2.810  0.3725 -0.8717 -0.4318
  115SAPE   H4R12038   2.076   4.907   2.866 -2.2443  2.7796  0.0441
  115SAPE   H4S12039   2.223   5.000   2.889  0.7321 -0.7623 -0.7981
  115SAPE   C2512040   2.228   4.875   2.717  0.4290  0.2030  0.3176
  115SAPE   H5R12041   2.302   4.944   2.674  0.3222  1.1167  1.5324
  115SAPE   C2612042   2.218   4.746   2.696 -0.5170  0.7017 -0.0808
  115SAPE   H6R12043   2.282   4.698   2.620  0.3164  1.9440 -0.1934
  115SAPE   C2712044   2.120   4.655   2.770 -0.0874 -0.0685 -0.7098
  115SAPE   H7R12045   2.128   4.648   2.880  2.1290 -1.9841 -0.9127
  115SAPE   H7S12046   2.138   4.551   2.734  0.5281  0.0712 -0.8207
  115SAPE   C2812047   1.975   4.680   2.736  0.8785 -0.7423 -0.5799
  115SAPE   H8R12048   1.958   4.722   2.636  1.4320  1.3252  0.1366
  115SAPE   C2912049   1.865   4.658   2.817  0.2521 -0.7841  0.5535
  115SAPE   H9R12050   1.764   4.673   2.776  0.0164 -1.9451  0.6801
  115SAPE  C21012051   1.868   4.609   2.953 -0.2955  0.0107 -0.4800
  115SAPE  H10R12052   1.951   4.535   2.959 -1.7236 -1.9257 -2.8191
  115SAPE  H10S12053   1.783   4.540   2.971 -0.8439  0.8884  0.3645
  115SAPE  C21112054   1.897   4.730   3.043  0.3412  0.7999 -0.0726
  115SAPE  H11R12055   1.979   4.799   3.021  0.8851  0.2492  0.2040
  115SAPE  C21212056   1.827   4.751   3.155 -0.5400  0.0186 -0.0219
  115SAPE  H12R12057   1.865   4.843   3.203 -1.6068  0.2641  0.3689
  115SAPE  C21312058   1.708   4.668   3.193  0.3711  0.1880  0.5145
  115SAPE  H13R12059   1.743   4.588   3.261  1.8658  2.4069  2.5434
  115SAPE  H13S12060   1.658   4.621   3.106 -1.0847  1.3812  0.6620
  115SAPE  C21412061   1.605   4.756   3.253 -0.0248 -0.2831  0.0677
  115SAPE  H14R12062   1.529   4.797   3.185  1.4454  0.3585 -1.2361
  115SAPE  C21512063   1.595   4.770   3.387  0.2909  0.2776 -0.3085
  115SAPE  H15R12064   1.516   4.838   3.421  0.3997 -0.8013  2.3251
  115SAPE  C21612065   1.682   4.711   3.492 -0.8589  0.4316 -0.3948
  115SAPE  H16R12066   1.780   4.760   3.475 -1.3284  1.8790  0.8742
  115SAPE  H16S12067   1.701   4.601   3.490  0.0995  0.4143  3.2456
  115SAPE  C21712068   1.641   4.753   3.638 -0.0627 -0.0221  0.2101
  115SAPE  H17R12069   1.537   4.714   3.645 -0.2563  0.6402  1.3827
  115SAPE  H17S12070   1.629   4.863   3.652  0.0937  0.1788 -1.1482
  115SAPE  C21812071   1.730   4.698   3.744 -0.2857  0.0293 -0.1938
  115SAPE  H18R12072   1.814   4.767   3.768 -0.4030  0.3904 -0.8113
  115SAPE  H18S12073   1.783   4.605   3.716 -0.1303 -0.2895  1.0915
  115SAPE  C21912074   1.662   4.664   3.876 -0.2649 -0.4327  0.2017
  115SAPE  H19R12075   1.569   4.604   3.867  0.1177 -1.2794  1.5867
  115SAPE  H19S12076   1.650   4.768   3.914  1.9353  0.4910 -1.3669
  115SAPE  C22012077   1.757   4.588   3.983 -0.5349  1.1264  1.1398
  115SAPE  H20R12078   1.783   4.487   3.945 -0.4915  0.4165  2.9374
  115SAPE  H20S12079   1.709   4.566   4.081 -0.7777 -0.6421  0.6606
  115SAPE  H20T12080   1.853   4.642   3.995  0.1080  0.4424 -0.6041
  115SAPE   C3312081   1.720   5.223   2.918  0.2872  1.0721 -0.1312
  115SAPE   H3X12082   1.799   5.159   2.873  1.2377 -0.0638  2.9123
  115SAPE   H3Y12083   1.624   5.171   2.902 -1.0640  2.5800  2.3416
  115SAPE   C3412084   1.758   5.219   3.068 -0.3453 -0.2289  0.9441
  115SAPE   H4X12085   1.734   5.119   3.110  1.0506 -0.2966  1.6389
  115SAPE   H4Y12086   1.699   5.296   3.120 -1.7103 -1.4490  1.2612
  115SAPE   C3512087   1.909   5.246   3.109 -0.7222 -1.0384 -0.2408
  115SAPE   H5X12088   1.952   5.337   3.061 -1.4839 -0.0935  0.8289
  115SAPE   H5Y12089   1.963   5.155   3.075  1.0959 -0.8536  1.8882
  115SAPE   C3612090   1.942   5.252   3.264 -0.3069  0.2872  0.3025
  115SAPE   H6X12091   1.892   5.344   3.301  0.4562  0.5227  0.7717
  115SAPE   H6Y12092   2.051   5.273   3.265 -0.7236  2.8786 -0.7057
  115SAPE   C3712093   1.894   5.134   3.344  0.2534  0.1104  0.4183
  115SAPE   H7X12094   1.961   5.053   3.307  0.5647  0.0082  1.1925
  115SAPE   H7Y12095   1.786   5.119   3.325  0.0863  0.1071  1.3498
  115SAPE   C3812096   1.934   5.159   3.488  0.1319 -0.1341  0.1471
  115SAPE   H8X12097   1.887   5.252   3.524  0.2420  1.0699 -2.6061
  115SAPE   H8Y12098   2.045   5.169   3.481  0.1293 -0.3718 -0.2652
  115SAPE   C3912099   1.902   5.035   3.576 -0.3371  0.7492  0.1941
  115SAPE   H9X12100   1.931   4.943   3.521 -0.7072 -1.8939  4.0423
  115SAPE   H9Y12101   1.792   5.038   3.587 -0.5119  1.3587 -1.4738
  115SAPE  C31012102   1.973   5.040   3.710 -0.6321  0.1315  0.2570
  115SAPE  H10X12103   1.955   4.946   3.766 -1.9330  0.1147 -0.1641
  115SAPE  H10Y12104   1.919   5.126   3.757 -0.2123  1.1076 -0.9978
  115SAPE  C31112105   2.119   5.081   3.713  0.1435  0.3524 -0.4195
  115SAPE  H11X12106   2.140   5.183   3.673 -0.5290  0.5926 -0.1829
  115SAPE  H11Y12107   2.189   5.010   3.666 -0.8451 -1.5949  0.9173
  115SAPE  C31212108   2.156   5.095   3.863  0.0775 -0.2032 -0.2887
  115SAPE  H12X12109   2.150   4.998   3.919  4.1637 -0.4167  0.0253
  115SAPE  H12Y12110   2.096   5.177   3.908 -0.5222 -1.8812  2.1929
  115SAPE  C31312111   2.298   5.137   3.869 -0.5329 -0.2653  0.1692
  115SAPE  H13X12112   2.314   5.225   3.803 -1.3841 -0.0821  0.2034
  115SAPE  H13Y12113   2.360   5.054   3.829  0.8684  1.5430 -1.6892
  115SAPE  C31412114   2.345   5.177   4.009  0.1826 -0.5036 -0.1547
  115SAPE  H14X12115   2.328   5.090   4.075 -1.2949  0.2842  0.5327
  115SAPE  H14Y12116   2.280   5.261   4.042 -0.8772 -0.9270 -1.0862
  115SAPE  C31512117   2.492   5.223   4.013  0.5332 -0.3002  0.4133
  115SAPE  H15X12118   2.512   5.274   4.109  0.5815 -0.8279  0.6887
  115SAPE  H15Y12119   2.497   5.299   3.932 -1.8211  0.3052  0.7722
  115SAPE  C31612120   2.605   5.122   3.984 -0.0318 -0.1570 -0.2647
  115SAPE  H16X12121   2.578   5.079   3.885 -1.2584  1.0698 -0.4963
  115SAPE  H16Y12122   2.599   5.042   4.060 -0.6199  0.0221 -0.1196
  115SAPE  C31712123   2.747   5.184   3.993  0.6443  0.3145 -0.1961
  115SAPE  H17X12124   2.793   5.165   4.092 -0.1886  2.4094  0.6426
  115SAPE  H17Y12125   2.731   5.293   3.985  0.2907  0.2386 -0.5882
  115SAPE  C31812126   2.839   5.138   3.874  0.6425  0.6455 -0.4117
  115SAPE  H18X12127   2.944   5.146   3.909  0.4731 -0.7694  0.5317
  115SAPE  H18Y12128   2.809   5.201   3.788  1.2562 -0.3434 -1.3703
  115SAPE  H18Z12129   2.813   5.032   3.851  0.2248  1.2647 -3.0723
  116SAPE     N12130   3.417   4.857   2.307  0.1646 -0.6822  0.8975
  116SAPE   HN112131   3.445   4.771   2.358  1.1340 -0.4843  0.7291
  116SAPE   HN212132   3.371   4.931   2.364  1.9679  3.4588 -2.4224
  116SAPE   HN312133   3.351   4.836   2.230  1.4071  0.6514 -0.6273
  116SAPE   C1212134   3.531   4.937   2.247  0.3552  0.0276 -0.2974
  116SAPE  H12A12135   3.576   4.865   2.175 -0.3497  1.6648 -2.4767
  116SAPE  H12B12136   3.606   4.959   2.326  0.5661  0.6789 -0.6790
  116SAPE   C1112137   3.483   5.060   2.170  0.8748 -0.1161 -0.4215
  116SAPE  H11A12138   3.416   5.020   2.091  0.4400 -3.0272  1.2852
  116SAPE  H11B12139   3.574   5.095   2.117  0.1885  1.0309 -0.8775
  116SAPE     P12140   3.341   5.266   2.179  0.2452  0.2694 -0.2997
  116SAPE   O1312141   3.439   5.374   2.147 -0.0925 -0.4475  0.2317
  116SAPE   O1412142   3.267   5.202   2.069  0.3253 -0.2717 -0.5009
  116SAPE   O1212143   3.424   5.159   2.262  0.2829 -0.1147 -0.7015
  116SAPE   O1112144   3.235   5.324   2.283  0.3524 -0.6898 -0.3578
  116SAPE    C112145   3.287   5.377   2.404 -0.3273 -0.3377  0.0840
  116SAPE    HA12146   3.392   5.415   2.398 -0.2284 -0.3319  1.4675
  116SAPE    HB12147   3.233   5.464   2.445 -0.8453 -0.8691  0.5578
  116SAPE    C212148   3.277   5.278   2.526  0.0864 -0.5367 -0.0501
  116SAPE    HS12149   3.371   5.219   2.524  1.2201  1.1514  1.1005
  116SAPE   O2112150   3.149   5.208   2.530  0.2990 -0.1329  0.2752
  116SAPE   C2112151   3.164   5.083   2.487  0.3013 -0.7444 -0.2414
  116SAPE   O2212152   3.265   5.032   2.454 -0.1687  0.2560 -0.5340
  116SAPE   C2212153   3.040   5.004   2.507 -0.2416  0.0735  0.0675
  116SAPE   H2R12154   2.956   5.077   2.504  0.3929  0.7871 -2.0147
  116SAPE   H2S12155   3.032   4.933   2.422  1.8919 -0.6055  0.3839
  116SAPE    C312156   3.291   5.347   2.665 -0.2336  0.2464 -0.5564
  116SAPE    HX12157   3.285   5.274   2.748  1.8534 -1.9709 -2.1994
  116SAPE    HY12158   3.200   5.408   2.682 -0.8147 -1.0789  1.3657
  116SAPE   O3112159   3.404   5.432   2.662 -0.5970 -0.3658  0.2015
  116SAPE   C3112160   3.396   5.566   2.689  0.4557  0.3180  0.4438
  116SAPE   O3212161   3.291   5.629   2.692 -0.4705  0.6587 -0.3897
  116SAPE   C3212162   3.538   5.612   2.700  0.0867  0.3561  0.0281
  116SAPE   H2X12163   3.545   5.719   2.672  1.3704  0.3139  0.1339
  116SAPE   H2Y12164   3.598   5.568   2.617 -0.9711 -2.9011  0.8501
  116SAPE   C2312165   3.033   4.926   2.645 -0.0020  1.0101  0.0051
  116SAPE   H3R12166   3.131   4.904   2.691  0.0234  0.5287 -0.2744
  116SAPE   H3S12167   2.999   4.825   2.615  1.7959  0.4175 -0.1726
  116SAPE   C2412168   2.945   4.990   2.754 -0.4738  0.3960 -0.3128
  116SAPE   H4R12169   2.913   4.907   2.821 -1.1626 -0.6135 -1.8300
  116SAPE   H4S12170   2.851   5.022   2.704 -1.0468 -2.6765 -1.4199
  116SAPE   C2512171   3.014   5.108   2.825 -0.2857 -0.3533  0.3477
  116SAPE   H5R12172   3.081   5.171   2.765 -1.3710  2.7636  2.1556
  116SAPE   C2612173   3.003   5.144   2.959  0.7655 -0.0381 -0.0583
  116SAPE   H6R12174   3.054   5.235   2.995 -0.1140  0.0012  1.1476
  116SAPE   C2712175   2.918   5.071   3.063  0.2811 -0.1412 -0.4110
  116SAPE   H7R12176   2.838   5.009   3.016 -0.5746  0.1141  0.6588
  116SAPE   H7S12177   2.864   5.156   3.111 -3.1179 -1.0855 -2.1864
  116SAPE   C2812178   3.011   4.996   3.150  1.1034  0.3769  0.5569
  116SAPE   H8R12179   3.059   4.911   3.100  0.6562 -0.8068  2.0491
  116SAPE   C2912180   3.030   5.010   3.286  0.3034 -0.4797 -0.1865
  116SAPE   H9R12181   3.102   4.947   3.338  2.2403 -0.4674 -2.6398
  116SAPE  C21012182   2.952   5.110   3.372  0.1243 -0.0798  0.2252
  116SAPE  H10R12183   2.972   5.093   3.480 -1.8370  0.8161  0.7671
  116SAPE  H10S12184   2.844   5.092   3.358  0.3659 -2.2630  0.8276
  116SAPE  C21112185   2.991   5.254   3.338  0.4500  0.3637  0.0696
  116SAPE  H11R12186   3.068   5.268   3.261 -0.4845  0.0890 -0.9355
  116SAPE  C21212187   2.951   5.364   3.409  0.3688  0.5748  1.0090
  116SAPE  H12R12188   2.980   5.466   3.377 -0.1272  0.0856 -1.2036
  116SAPE  C21312189   2.850   5.366   3.530  0.3484  0.3457 -0.3090
  116SAPE  H13R12190   2.909   5.404   3.616 -0.2572 -0.2286  0.3774
  116SAPE  H13S12191   2.827   5.258   3.545 -0.5412  0.6390  0.5449
  116SAPE  C21412192   2.714   5.438   3.506  0.2953 -0.0134  0.2443
  116SAPE  H14R12193   2.661   5.406   3.415  2.7747 -0.8041 -1.0170
  116SAPE  C21512194   2.686   5.555   3.564  0.0807  0.1907  0.3299
  116SAPE  H15R12195   2.584   5.595   3.554  0.2223  0.6192  0.5852
  116SAPE  C21612196   2.763   5.625   3.673 -0.1094  0.3253 -0.7337
  116SAPE  H16R12197   2.759   5.735   3.655 -2.3995  0.6562  1.2758
  116SAPE  H16S12198   2.869   5.593   3.671 -0.2060 -0.1511  0.5206
  116SAPE  C21712199   2.703   5.590   3.814  0.2242 -0.0806  0.4571
  116SAPE  H17R12200   2.779   5.624   3.888 -0.0574  1.0533  0.2456
  116SAPE  H17S12201   2.688   5.482   3.835 -2.1913 -0.0250 -0.5871
  116SAPE  C21812202   2.567   5.657   3.840  0.2384  0.0560 -0.0664
  116SAPE  H18R12203   2.523   5.623   3.937  0.9982 -0.0076  0.2613
  116SAPE  H18S12204   2.498   5.633   3.756  0.0416  2.7045 -0.7727
  116SAPE  C21912205   2.575   5.812   3.845  0.6592 -0.1364 -0.1626
  116SAPE  H19R12206   2.610   5.850   3.746 -1.3126 -0.1657 -0.9016
  116SAPE  H19S12207   2.643   5.857   3.921 -0.4220  0.2448  0.6034
  116SAPE  C22012208   2.435   5.866   3.880  0.6868 -0.1937  0.6853
  116SAPE  H20R12209   2.371   5.823   3.801 -0.1964  0.7229  0.8845
  116SAPE  H20S12210   2.433   5.977   3.894 -1.5441 -0.1608  0.4504
  116SAPE  H20T12211   2.410   5.813   3.974  0.2000 -1.6406 -0.2346
  116SAPE   C3312212   3.607   5.589   2.835 -0.4185  0.1332 -0.5690
  116SAPE   H3X12213   3.645   5.485   2.839 -0.8782 -0.0971 -1.7112
  116SAPE   H3Y12214   3.531   5.621   2.909  0.1887  3.9564 -1.3642
  116SAPE   C3412215   3.732   5.675   2.863 -0.3822 -0.1131 -0.1057
  116SAPE   H4X12216   3.707   5.782   2.880 -0.6642  0.0498 -1.4386
  116SAPE   H4Y12217   3.806   5.665   2.781  1.0009  2.6281  0.6803
  116SAPE   C3512218   3.806   5.637   2.994  0.0595  0.3032  0.2837
  116SAPE   H5X12219   3.896   5.702   2.991 -0.8142  1.5451 -0.0520
  116SAPE   H5Y12220   3.854   5.537   2.997  1.8166  1.0474 -1.0725
  116SAPE   C3612221   3.722   5.655   3.127  0.1233  0.0056 -0.1546
  116SAPE   H6X12222   3.619   5.613   3.121 -1.0219  1.8104  3.5648
  116SAPE   H6Y12223   3.723   5.765   3.142 -0.7333  0.1740 -1.1895
  116SAPE   C3712224   3.778   5.587   3.251 -0.0948 -0.6162 -0.2337
  116SAPE   H7X12225   3.880   5.629   3.263 -0.1455 -0.9226  1.5198
  116SAPE   H7Y12226   3.781   5.477   3.244 -1.6721 -0.8246  1.3874
  116SAPE   C3812227   3.697   5.636   3.376  0.0059  0.1261  0.2859
  116SAPE   H8X12228   3.587   5.629   3.368  0.1363 -0.2974 -1.6549
  116SAPE   H8Y12229   3.717   5.745   3.385 -1.6023  0.4511  0.0948
  116SAPE   C3912230   3.759   5.580   3.505 -0.3418 -0.1659  0.3529
  116SAPE   H9X12231   3.845   5.649   3.517 -0.4517  0.2079 -0.8352
  116SAPE   H9Y12232   3.794   5.474   3.499 -0.1889 -0.0971 -0.0145
  116SAPE  C31012233   3.662   5.599   3.626 -0.6200 -0.4124 -0.3478
  116SAPE  H10X12234   3.575   5.533   3.602  0.2076 -2.1970  1.3369
  116SAPE  H10Y12235   3.628   5.704   3.637  1.1469  0.3208 -1.3648
  116SAPE  C31112236   3.726   5.555   3.762  0.1880 -0.3522 -0.7136
  116SAPE  H11X12237   3.654   5.589   3.840 -1.1322 -0.2137 -1.9609
  116SAPE  H11Y12238   3.816   5.620   3.771  0.5659 -0.7885 -1.3188
  116SAPE  C31212239   3.759   5.408   3.781 -0.3403  0.1260 -0.3354
  116SAPE  H12X12240   3.846   5.389   3.715  2.4816  1.0204  2.8708
  116SAPE  H12Y12241   3.685   5.328   3.757 -1.2772  0.1747  2.0644
  116SAPE  C31312242   3.823   5.382   3.918  0.4686  0.1301 -0.2637
  116SAPE  H13X12243   3.748   5.337   3.987  0.9662 -1.3198 -0.6297
  116SAPE  H13Y12244   3.840   5.481   3.965  0.5120  1.1317 -2.2535
  116SAPE  C31412245   3.965   5.313   3.917 -0.2929  0.7721  0.3370
  116SAPE  H14X12246   4.031   5.374   3.852  1.3166 -0.0560  1.1287
  116SAPE  H14Y12247   3.964   5.213   3.871 -1.4435  0.1744  1.5811
  116SAPE  C31512248   4.023   5.299   4.059  0.0290 -0.7403  0.4435
  116SAPE  H15X12249   3.948   5.264   4.134  1.1160 -0.2807  1.7899
  116SAPE  H15Y12250   4.057   5.400   4.091  1.7228 -0.6255 -1.5249
  116SAPE  C31612251   4.137   5.201   4.064 -0.8972 -0.1372  0.7101
  116SAPE  H16X12252   4.220   5.232   3.997 -1.0216  0.0649  0.6467
  116SAPE  H16Y12253   4.107   5.098   4.036 -0.5274 -0.1015  0.1562
  116SAPE  C31712254   4.190   5.193   4.211 -1.0952  0.4979 -0.1425
  116SAPE  H17X12255   4.268   5.113   4.215 -1.8119 -0.3066 -1.4288
  116SAPE  H17Y12256   4.108   5.156   4.277 -0.5690 -1.7446 -0.6547
  116SAPE  C31812257   4.244   5.330   4.272  0.2754 -0.1606  0.1933
  116SAPE  H18X12258   4.316   5.371   4.197 -0.9174  0.0448 -0.8802
  116SAPE  H18Y12259   4.294   5.319   4.371 -0.0769 -0.5005  0.3376
  116SAPE  H18Z12260   4.162   5.402   4.291  1.0850  0.5646  1.0727
  117SOPE     N12261   0.740   0.923   6.876 -0.1318  0.5349  0.0978
  117SOPE   HN112262   0.832   0.955   6.912  0.8636 -1.5254 -0.4534
  117SOPE   HN212263   0.690   0.871   6.951 -0.3066 -2.3712 -1.8203
  117SOPE   HN312264   0.756   0.851   6.802 -0.3731  2.4585 -1.9352
  117SOPE   C1212265   0.660   1.034   6.812 -0.1243 -0.0950  0.9520
  117SOPE  H12A12266   0.639   1.109   6.892 -1.4496 -0.4268  0.9422
  117SOPE  H12B12267   0.565   0.985   6.780 -0.4068  0.3944  1.0279
  117SOPE   C1112268   0.728   1.101   6.686  1.0483 -0.3128  0.1822
  117SOPE  H11A12269   0.668   1.184   6.642  0.2840 -0.3997  1.0252
  117SOPE  H11B12270   0.715   1.026   6.605  0.3020 -0.1731  0.1582
  117SOPE     P12271   0.929   1.262   6.695 -0.3376 -0.1908  0.1401
  117SOPE   O1312272   1.035   1.273   6.800 -0.2128  0.7382 -0.0060
  117SOPE   O1412273   0.822   1.360   6.706 -0.0880 -0.1244 -0.5779
  117SOPE   O1212274   0.864   1.126   6.702  0.4478  0.1162 -0.2378
  117SOPE   O1112275   0.999   1.262   6.548 -0.1654  0.5383 -1.0041
  117SOPE    C112276   0.922   1.253   6.427  0.0327  0.6339 -0.0015
  117SOPE    HA12277   0.962   1.320   6.347 -0.3480  0.0719 -0.6734
  117SOPE    HB12278   0.815   1.277   6.444  0.2933  0.3062  2.4908
  117SOPE    C212279   0.918   1.110   6.365  0.2892  0.2955 -0.3006
  117SOPE    HS12280   0.930   1.042   6.451 -0.3578  1.6489  0.8903
  117SOPE   O2112281   1.032   1.108   6.268  0.1107 -0.4431 -0.0967
  117SOPE   C2112282   1.064   0.992   6.227 -0.4984 -0.6855 -0.1929
  117SOPE   O2212283   1.014   0.883   6.267  0.1515 -0.3394  0.4193
  117SOPE   C2212284   1.170   1.004   6.117 -0.2126 -0.0370  1.0402
  117SOPE   H2R12285   1.221   0.907   6.108  1.8330  1.0164  0.7256
  117SOPE   H2S12286   1.247   1.080   6.142 -0.8088  0.9967 -0.1487
  117SOPE    C312287   0.784   1.076   6.296  0.7453  0.4811  1.0657
  117SOPE    HX12288   0.700   1.077   6.369 -0.2712  0.9776 -0.0658
  117SOPE    HY12289   0.780   0.972   6.260 -3.5231  0.6299  0.5444
  117SOPE   O3112290   0.752   1.174   6.193  0.1462  0.2274  0.0284
  117SOPE   C3112291   0.721   1.134   6.073 -0.6246  0.0401  0.1424
  117SOPE   O3212292   0.698   1.020   6.033  0.5113 -0.3786  0.1850
  117SOPE   C3212293   0.712   1.254   5.973 -0.3754 -0.5694 -0.2576
  117SOPE   H2X12294   0.775   1.339   6.009  1.0168 -2.1719  1.3230
  117SOPE   H2Y12295   0.606   1.286   5.971  0.2671  1.7136 -0.3698
  117SOPE   C2312296   1.110   1.043   5.972 -0.6210 -0.4991 -0.2892
  117SOPE   H3R12297   1.040   1.128   5.987 -2.1551 -1.6919 -0.3855
  117SOPE   H3S12298   1.050   0.959   5.929  0.3520  0.0303 -2.8427
  117SOPE   C2412299   1.218   1.094   5.887 -0.2888  0.5004 -0.1599
  117SOPE   H4R12300   1.268   1.182   5.931 -1.9088 -0.1242  3.2708
  117SOPE   H4S12301   1.292   1.013   5.872 -0.9981 -0.3394  0.7717
  117SOPE   C2512302   1.168   1.120   5.745 -0.3349 -0.0343  0.2880
  117SOPE   H5R12303   1.104   1.039   5.703 -2.6524  2.2400 -0.8336
  117SOPE   H5S12304   1.092   1.201   5.745  0.6509  0.9388  2.1453
  117SOPE   C2612305   1.284   1.174   5.649 -0.8087 -0.1497  0.3256
  117SOPE   H6R12306   1.353   1.236   5.710 -0.8076 -1.0721  1.2739
  117SOPE   H6S12307   1.341   1.087   5.610 -1.4207 -0.9702  1.2418
  117SOPE   C2712308   1.230   1.255   5.527  0.0066 -0.3777 -0.2057
  117SOPE   H7R12309   1.139   1.203   5.491  0.8769 -1.4901 -0.8986
  117SOPE   H7S12310   1.199   1.349   5.576 -1.3774  0.9400 -3.3437
  117SOPE   C2812311   1.341   1.307   5.429 -0.1134  0.7680  0.1915
  117SOPE   H8R12312   1.294   1.393   5.378 -0.6762  0.6739  0.5405
  117SOPE   H8S12313   1.417   1.350   5.497 -1.7915  1.7793  1.5043
  117SOPE   C2912314   1.397   1.208   5.326  0.1456  0.0094 -0.5284
  117SOPE   H9112315   1.487   1.150   5.349 -0.1046  0.1707  0.9539
  117SOPE  C21012316   1.350   1.192   5.201  0.1031 -0.6684  0.1593
  117SOPE  H10112317   1.400   1.122   5.131  1.8248 -0.9884  1.6417
  117SOPE  C21112318   1.229   1.260   5.134 -0.0509 -1.1334 -0.1685
  117SOPE  H11R12319   1.193   1.348   5.191 -1.1322 -1.4067 -0.4023
  117SOPE  H11S12320   1.142   1.190   5.133 -0.3050 -0.8368  0.5715
  117SOPE  C21212321   1.248   1.309   4.998 -0.0562 -0.2061  0.1382
  117SOPE  H12R12322   1.156   1.355   4.957  1.1612  2.0092 -0.2597
  117SOPE  H12S12323   1.286   1.226   4.934  0.0150 -0.8167  0.9565
  117SOPE  C21312324   1.352   1.419   4.984 -0.6155 -0.4022  0.3963
  117SOPE  H13R12325   1.443   1.373   5.028 -0.5149 -2.9853 -2.2389
  117SOPE  H13S12326   1.321   1.509   5.040  0.1368  0.7169 -0.9309
  117SOPE  C21412327   1.376   1.473   4.842 -0.2457 -0.2345 -0.7792
  117SOPE  H14R12328   1.280   1.491   4.789 -1.4320 -0.7116  1.1305
  117SOPE  H14S12329   1.431   1.397   4.783  1.0336  1.1168 -1.4034
  117SOPE  C21512330   1.456   1.604   4.840  0.2103 -0.1796 -0.1379
  117SOPE  H15R12331   1.394   1.684   4.887  1.0015 -0.2172  0.9943
  117SOPE  H15S12332   1.466   1.623   4.730 -0.2913 -0.8197 -0.2985
  117SOPE  C21612333   1.602   1.609   4.901 -1.1207 -0.0490  0.0608
  117SOPE  H16R12334   1.663   1.526   4.858 -0.5796  1.7335 -2.9273
  117SOPE  H16S12335   1.589   1.591   5.009  0.9174 -0.5729  0.2468
  117SOPE  C21712336   1.686   1.739   4.885  0.8933  0.0780  0.2290
  117SOPE  H17R12337   1.708   1.765   4.991  0.6229  2.1980 -0.1753
  117SOPE  H17S12338   1.614   1.810   4.837  1.8981 -1.1090 -3.3584
  117SOPE  C21812339   1.808   1.729   4.796  0.5644  0.4189  0.1949
  117SOPE  H18R12340   1.867   1.823   4.794  0.3099  0.5913  0.5835
  117SOPE  H18S12341   1.773   1.693   4.697  1.1740 -0.3073  0.2343
  117SOPE  H18T12342   1.873   1.644   4.827 -0.5989  0.0952  1.8863
  117SOPE   C3312343   0.766   1.212   5.835  0.6311 -0.1790 -0.4774
  117SOPE   H3X12344   0.708   1.122   5.803  0.4181  0.3797 -1.6934
  117SOPE   H3Y12345   0.868   1.171   5.850  1.0143  1.4294  1.7439
  117SOPE   C3412346   0.768   1.323   5.726  0.5932  0.2230 -0.6362
  117SOPE   H4X12347   0.803   1.423   5.759  1.5272 -0.6955  1.3209
  117SOPE   H4Y12348   0.664   1.347   5.693 -0.2689  0.0405  1.7447
  117SOPE   C3512349   0.833   1.265   5.597  0.5619  0.1557  0.2127
  117SOPE   H5X12350   0.804   1.160   5.571  2.1134 -0.4476  0.8077
  117SOPE   H5Y12351   0.943   1.255   5.607  0.6255  0.4880 -0.1306
  117SOPE   C3612352   0.803   1.360   5.478 -0.5572  0.1754 -0.2820
  117SOPE   H6X12353   0.830   1.466   5.499  1.1803  0.1507 -2.0805
  117SOPE   H6Y12354   0.693   1.370   5.467 -0.7213  2.1852  2.1755
  117SOPE   C3712355   0.877   1.321   5.348 -0.1347 -0.5778 -0.3077
  117SOPE   H7X12356   0.827   1.237   5.296 -1.6338  0.9012 -1.3623
  117SOPE   H7Y12357   0.981   1.301   5.379 -0.4839 -1.1410  0.5484
  117SOPE   C3812358   0.867   1.429   5.245 -0.4639 -0.8881  0.3363
  117SOPE   H8X12359   0.943   1.405   5.167 -0.5059 -2.2282  0.6837
  117SOPE   H8Y12360   0.890   1.529   5.288 -1.0046 -0.0897 -1.1738
  117SOPE   C3912361   0.734   1.445   5.171 -0.4317 -0.2114 -0.1247
  117SOPE   H9X12362   0.739   1.551   5.138  1.9363  0.4530  2.0073
  117SOPE   H9Y12363   0.652   1.428   5.243  0.5690  2.9692  2.0158
  117SOPE  C31012364   0.718   1.346   5.050  0.1514  0.4545 -0.2163
  117SOPE  H10X12365   0.612   1.350   5.016  0.3694  1.0912 -0.8379
  117SOPE  H10Y12366   0.737   1.243   5.087 -0.1341 -0.2303 -1.8496
  117SOPE  C31112367   0.806   1.365   4.932  0.0036 -0.4058  1.1059
  117SOPE  H11X12368   0.765   1.312   4.843 -0.5375 -2.1711  2.3440
  117SOPE  H11Y12369   0.908   1.324   4.950  1.2364  1.8787 -0.1738
  117SOPE  C31212370   0.818   1.514   4.883 -0.1811 -0.6641  0.0770
  117SOPE  H12X12371   0.865   1.583   4.956 -0.3564 -0.2504 -0.2014
  117SOPE  H12Y12372   0.722   1.560   4.850 -0.4279 -1.5624 -0.4783
  117SOPE  C31312373   0.910   1.526   4.760  0.5660 -0.4590  0.3130
  117SOPE  H13X12374   0.867   1.471   4.674  0.5804  1.0462 -0.6988
  117SOPE  H13Y12375   1.008   1.476   4.777 -0.7619 -2.4895  2.6673
  117SOPE  C31412376   0.936   1.673   4.715 -0.0418 -0.2130  0.5330
  117SOPE  H14X12377   0.927   1.746   4.799  0.6723  0.1198  0.3308
  117SOPE  H14Y12378   0.870   1.695   4.628 -0.7536  1.0241  1.3434
  117SOPE  C31512379   1.085   1.680   4.662 -0.0350 -0.2034 -0.5010
  117SOPE  H15X12380   1.118   1.594   4.601  0.2251  0.4802 -1.3532
  117SOPE  H15Y12381   1.159   1.687   4.744 -0.4506  0.9196 -0.1875
  117SOPE  C31612382   1.117   1.811   4.587 -0.8126 -0.0490  0.5456
  117SOPE  H16X12383   1.077   1.892   4.651 -0.2615  1.9259 -1.4483
  117SOPE  H16Y12384   1.060   1.815   4.491 -0.5078  2.0769  0.4027
  117SOPE  C31712385   1.266   1.830   4.548 -0.1580 -0.2051  0.3627
  117SOPE  H17X12386   1.307   1.755   4.477  3.6887  0.5510  1.5726
  117SOPE  H17Y12387   1.323   1.811   4.641 -0.6586  1.9473  1.1691
  117SOPE  C31812388   1.284   1.957   4.479 -0.2643 -0.0772 -0.0334
  117SOPE  H18X12389   1.389   1.982   4.508  0.0001 -2.2716  1.0956
  117SOPE  H18Y12390   1.224   2.043   4.515 -0.2317  0.2374 -0.7127
  117SOPE  H18Z12391   1.277   1.960   4.368 -1.2287  0.2148  0.0276
  118SOPE     N12392   5.654   1.949   6.539 -0.5775  0.2507  0.2645
  118SOPE   HN112393   5.604   2.039   6.526  2.4059  1.8595 -1.1295
  118SOPE   HN212394   5.593   1.866   6.551 -1.7074  0.9729 -0.3456
  118SOPE   HN312395   5.713   1.967   6.623 -0.9430  2.4584  0.1242
  118SOPE   C1212396   5.741   1.937   6.419  0.3801 -0.0340  0.0242
  118SOPE  H12A12397   5.756   2.039   6.378 -0.6996  0.7493  1.4903
  118SOPE  H12B12398   5.684   1.875   6.346 -0.4590 -0.1748  0.7902
  118SOPE   C1112399   5.882   1.878   6.441  0.3611  0.5596 -0.4415
  118SOPE  H11A12400   5.936   1.857   6.346 -0.7807 -0.0989 -0.9618
  118SOPE  H11B12401   5.859   1.777   6.483 -3.8593  2.0136  1.2491
  118SOPE     P12402   6.074   1.890   6.613  0.1190 -0.7351  0.2253
  118SOPE   O1312403   6.047   1.747   6.656  0.2100  0.2726 -0.2938
  118SOPE   O1412404   6.114   1.974   6.728  0.5996 -0.0681 -0.8449
  118SOPE   O1212405   5.955   1.957   6.529  0.3869 -0.2941 -0.3029
  118SOPE   O1112406   6.185   1.884   6.506 -0.3597 -0.4050 -0.0535
  118SOPE    C112407   6.209   1.998   6.421  0.5720 -0.2562 -0.5001
  118SOPE    HA12408   6.231   2.090   6.480 -3.5700  1.7320 -1.7226
  118SOPE    HB12409   6.114   2.024   6.370 -0.7294  2.5759  2.9402
  118SOPE    C212410   6.306   1.959   6.306  0.8576 -0.8447 -0.1770
  118SOPE    HS12411   6.391   1.901   6.349  0.9580  0.2857  1.2281
  118SOPE   O2112412   6.354   2.070   6.225  0.0154  0.0456 -0.1259
  118SOPE   C2112413   6.439   2.156   6.271 -0.0419 -0.6881  0.1673
  118SOPE   O2212414   6.508   2.145   6.362 -0.0676 -0.3588  0.3339
  118SOPE   C2212415   6.438   2.283   6.179  0.5370  0.1318  0.0755
  118SOPE   H2R12416   6.346   2.344   6.195  0.2427 -0.1878 -0.3999
  118SOPE   H2S12417   6.440   2.240   6.077 -0.3608 -2.0884  0.9411
  118SOPE    C312418   6.223   1.877   6.206 -0.1977  0.3247  0.3314
  118SOPE    HX12419   6.157   1.933   6.137 -1.9544 -0.6765  1.1128
  118SOPE    HY12420   6.159   1.809   6.268 -0.0007  0.5507  0.7907
  118SOPE   O3112421   6.310   1.786   6.141 -0.5069  0.4587 -0.5612
  118SOPE   C3112422   6.345   1.826   6.019 -0.2528 -0.1930  0.0845
  118SOPE   O3212423   6.297   1.926   5.964  0.0008  0.1895  0.3268
  118SOPE   C3212424   6.437   1.723   5.961 -0.7221  0.1108 -0.4117
  118SOPE   H2X12425   6.431   1.628   6.019 -1.2949  1.1024  1.2351
  118SOPE   H2Y12426   6.540   1.752   5.991 -1.8380  3.7871  0.3567
  118SOPE   C2312427   6.570   2.364   6.197 -0.0114 -0.3699 -0.3617
  118SOPE   H3R12428   6.599   2.373   6.304 -1.5569  4.2447 -0.1374
  118SOPE   H3S12429   6.554   2.461   6.146  1.5719 -1.4152 -3.1436
  118SOPE   C2412430   6.692   2.312   6.123 -0.3260  0.0060  0.6893
  118SOPE   H4R12431   6.710   2.219   6.180  0.5957 -0.4556 -0.3141
  118SOPE   H4S12432   6.665   2.280   6.020  0.4669  1.5089 -0.0216
  118SOPE   C2512433   6.815   2.405   6.127 -0.2423  0.0128  0.6296
  118SOPE   H5R12434   6.827   2.444   6.231 -2.1305  1.5339  0.3280
  118SOPE   H5S12435   6.903   2.338   6.116 -0.2683  0.0327  0.2938
  118SOPE   C2612436   6.812   2.526   6.030 -0.1686 -0.3400 -0.3664
  118SOPE   H6R12437   6.777   2.617   6.082  1.3089 -1.4803  2.9082
  118SOPE   H6S12438   6.917   2.548   6.002 -0.2924 -0.9514 -1.3785
  118SOPE   C2712439   6.740   2.509   5.889  0.7851 -0.2636 -0.2758
  118SOPE   H7R12440   6.785   2.426   5.831  0.8719  0.3378 -1.0828
  118SOPE   H7S12441   6.638   2.468   5.909  1.9142 -2.9264  0.4086
  118SOPE   C2812442   6.736   2.638   5.799  0.3297 -0.2199  0.6100
  118SOPE   H8R12443   6.672   2.720   5.839  0.9291 -0.5750  2.4130
  118SOPE   H8S12444   6.840   2.676   5.791  0.2892 -0.1085  0.6068
  118SOPE   C2912445   6.675   2.618   5.667  0.3746 -0.3508 -0.0850
  118SOPE   H9112446   6.565   2.616   5.671  0.3181  2.0699  2.2716
  118SOPE  C21012447   6.734   2.630   5.548 -0.0566 -0.4569  0.8097
  118SOPE  H10112448   6.672   2.636   5.457  0.3355  0.7155  0.5994
  118SOPE  C21112449   6.874   2.668   5.515  0.3816 -0.0414 -1.1566
  118SOPE  H11R12450   6.925   2.576   5.481 -1.3198 -0.7817 -1.8263
  118SOPE  H11S12451   6.927   2.711   5.603  1.7990 -2.3299 -0.8084
  118SOPE  C21212452   6.890   2.774   5.401  0.3496 -0.3196  0.4806
  118SOPE  H12R12453   6.998   2.798   5.410 -0.2294  1.8321  2.6001
  118SOPE  H12S12454   6.833   2.868   5.418  0.4899 -0.5438  2.3543
  118SOPE  C21312455   6.862   2.723   5.260 -0.0473  0.2241  0.7049
  118SOPE  H13R12456   6.751   2.716   5.253  0.0472 -0.1686 -0.4906
  118SOPE  H13S12457   6.886   2.615   5.263  0.2194  0.2652  0.1109
  118SOPE  C21412458   6.929   2.806   5.158  0.0127 -0.2033  0.4219
  118SOPE  H14R12459   6.907   2.914   5.167  1.1001  0.5216 -3.6224
  118SOPE  H14S12460   6.876   2.776   5.066  3.0014 -0.6101 -1.2897
  118SOPE  C21512461   7.082   2.786   5.124 -0.1267  0.4930 -0.0287
  118SOPE  H15R12462   7.108   2.679   5.106 -0.1734  0.4461  0.1780
  118SOPE  H15S12463   7.152   2.841   5.191 -0.1402  1.7554 -1.0192
  118SOPE  C21612464   7.116   2.847   4.991  0.5733 -0.4725 -0.2210
  118SOPE  H16R12465   7.085   2.954   4.989  1.2329 -0.2765 -2.2001
  118SOPE  H16S12466   7.065   2.788   4.912 -1.7230  0.1384  0.7262
  118SOPE  C21712467   7.259   2.842   4.961  0.0735  0.4695  0.4354
  118SOPE  H17R12468   7.276   2.876   4.856  0.1898  1.5261  0.7840
  118SOPE  H17S12469   7.293   2.737   4.953 -2.8222 -0.7021  2.0753
  118SOPE  C21812470   7.355   2.923   5.042  0.5088 -0.3939  0.2090
  118SOPE  H18R12471   7.451   2.937   4.986  4.1393 -1.5245  5.4485
  118SOPE  H18S12472   7.369   2.863   5.134  0.3872  1.0981  1.2219
  118SOPE  H18T12473   7.317   3.026   5.059  0.7456 -0.1440 -0.7044
  118SOPE   C3312474   6.412   1.695   5.808 -0.1429 -0.6635  0.5128
  118SOPE   H3X12475   6.515   1.662   5.783  0.1281  1.1436 -1.0395
  118SOPE   H3Y12476   6.387   1.785   5.747 -0.3799  0.1400  1.7519
  118SOPE   C3412477   6.303   1.583   5.773  0.4441  0.3635 -0.2733
  118SOPE   H4X12478   6.206   1.601   5.824  1.0376 -0.4068  1.2008
  118SOPE   H4Y12479   6.351   1.488   5.803  0.5325  0.6624  0.5778
  118SOPE   C3512480   6.272   1.579   5.619  0.0643  0.1021 -0.2984
  118SOPE   H5X12481   6.240   1.677   5.579 -2.1427 -0.1110  0.8189
  118SOPE   H5Y12482   6.190   1.506   5.597  1.5827 -0.8944 -3.2527
  118SOPE   C3612483   6.387   1.506   5.542 -0.0804  0.3298  0.3678
  118SOPE   H6X12484   6.405   1.405   5.583  0.4732  0.4117  0.3381
  118SOPE   H6Y12485   6.472   1.568   5.577 -0.0891  1.0526 -0.8339
  118SOPE   C3712486   6.376   1.491   5.391 -0.3728 -0.4210  0.3896
  118SOPE   H7X12487   6.302   1.408   5.388 -1.0887  0.2207 -1.7344
  118SOPE   H7Y12488   6.478   1.464   5.358  0.2807  0.3332  1.7234
  118SOPE   C3812489   6.324   1.620   5.320 -0.3493 -0.1479  0.4175
  118SOPE   H8X12490   6.371   1.712   5.360 -1.4037  1.1574 -1.1766
  118SOPE   H8Y12491   6.219   1.641   5.351  0.6480  3.2213  1.8799
  118SOPE   C3912492   6.338   1.614   5.169 -0.5550 -0.0752 -0.2759
  118SOPE   H9X12493   6.307   1.511   5.139 -2.6565  0.5712 -0.4566
  118SOPE   H9Y12494   6.442   1.625   5.131 -1.0724  1.2301 -1.4133
  118SOPE  C31012495   6.266   1.726   5.088  0.2031  0.0998 -0.6137
  118SOPE  H10X12496   6.294   1.824   5.131 -0.1811 -0.7165  1.6590
  118SOPE  H10Y12497   6.158   1.719   5.111  0.2569 -0.0332 -0.3995
  118SOPE  C31112498   6.283   1.723   4.931  0.4721  0.0028 -0.5884
  118SOPE  H11X12499   6.241   1.626   4.898 -0.2645 -0.2276  0.9290
  118SOPE  H11Y12500   6.387   1.725   4.893  0.1552  0.1426 -1.4640
  118SOPE  C31212501   6.212   1.838   4.867 -0.1496 -0.3497  0.4369
  118SOPE  H12X12502   6.269   1.930   4.893  0.2851 -0.5127  0.0736
  118SOPE  H12Y12503   6.106   1.845   4.899 -0.4438 -0.5156 -0.4735
  118SOPE  C31312504   6.216   1.824   4.713 -1.0390 -0.0398  0.4412
  118SOPE  H13X12505   6.191   1.718   4.689  2.6503 -1.0157  0.2530
  118SOPE  H13Y12506   6.321   1.841   4.680 -1.2892 -0.3643 -0.5674
  118SOPE  C31412507   6.116   1.907   4.639 -0.1589  0.3288 -0.0343
  118SOPE  H14X12508   6.137   2.016   4.629 -0.7817  0.6649  1.9533
  118SOPE  H14Y12509   6.021   1.910   4.696  0.0343  3.7353  0.3043
  118SOPE  C31512510   6.072   1.859   4.498  0.1763 -0.5285  0.3577
  118SOPE  H15X12511   6.016   1.765   4.514 -0.4399 -0.3244 -0.5012
  118SOPE  H15Y12512   6.160   1.829   4.438  1.0512 -0.7138  1.6910
  118SOPE  C31612513   5.983   1.964   4.427 -0.7562 -0.1135 -0.8150
  118SOPE  H16X12514   6.050   2.048   4.398 -0.5678 -0.1272 -0.4230
  118SOPE  H16Y12515   5.928   2.006   4.513  2.6049  3.8900 -0.3165
  118SOPE  C31712516   5.892   1.915   4.318 -0.2813  0.0367  0.5909
  118SOPE  H17X12517   5.810   1.988   4.306 -3.0619 -2.4861  2.8138
  118SOPE  H17Y12518   5.853   1.817   4.354 -2.0137  0.3013 -0.4527
  118SOPE  C31812519   5.961   1.908   4.178 -0.5582  0.0646  0.3758
  118SOPE  H18X12520   5.978   2.011   4.140 -1.9484  0.2035  0.0759
  118SOPE  H18Y12521   5.905   1.854   4.098  0.5421 -1.7121  0.7302
  118SOPE  H18Z12522   6.056   1.850   4.187 -0.2600 -0.4620 -3.9689
  119SOPE     N12523   2.091   0.459   6.739 -0.3286  0.6608  0.7949
  119SOPE   HN112524   2.129   0.549   6.704  2.3713 -0.2702  1.0964
  119SOPE   HN212525   1.989   0.455   6.756 -0.4445 -1.1485 -0.0583
  119SOPE   HN312526   2.145   0.446   6.827  0.8321  0.5683  0.0917
  119SOPE   C1212527   2.131   0.335   6.658  0.1099 -0.1944 -0.3908
  119SOPE  H12A12528   2.101   0.245   6.716 -1.6812 -0.1743 -1.2176
  119SOPE  H12B12529   2.240   0.338   6.637  0.4099  2.2426  1.1595
  119SOPE   C1112530   2.049   0.340   6.530 -0.1533  0.0072 -0.3462
  119SOPE  H11A12531   2.077   0.248   6.474 -1.1077 -1.0570  0.8562
  119SOPE  H11B12532   2.074   0.431   6.471 -0.2248  0.7586  0.7584
  119SOPE     P12533   1.802   0.240   6.506  0.4973  0.1482  0.0261
  119SOPE   O1312534   1.666   0.293   6.528 -0.4327 -0.4461 -0.6248
  119SOPE   O1412535   1.838   0.116   6.578 -0.2869  0.5301 -0.0732
  119SOPE   O1212536   1.910   0.343   6.560 -0.4908  0.0332  0.0908
  119SOPE   O1112537   1.831   0.217   6.357  0.3208 -0.3554 -0.0029
  119SOPE    C112538   1.831   0.327   6.261 -0.6036 -0.4237  0.5707
  119SOPE    HA12539   1.805   0.426   6.305 -0.3399 -1.0771  2.2680
  119SOPE    HB12540   1.749   0.308   6.189 -0.2632  0.8461 -0.1906
  119SOPE    C212541   1.955   0.329   6.172 -0.0560  0.6549 -0.0034
  119SOPE    HS12542   2.041   0.391   6.205  0.0598 -0.4327  1.8538
  119SOPE   O2112543   1.916   0.371   6.043  0.1097 -0.0650  0.4147
  119SOPE   C2112544   1.897   0.495   6.024  0.7818  0.4101 -0.0963
  119SOPE   O2212545   1.908   0.585   6.100 -0.1902 -0.5807 -0.5674
  119SOPE   C2212546   1.849   0.503   5.874  0.1775 -0.2192 -0.4814
  119SOPE   H2R12547   1.744   0.468   5.864 -1.1609  2.7845  1.5417
  119SOPE   H2S12548   1.913   0.443   5.805  0.6027  1.4507 -1.6093
  119SOPE    C312549   2.010   0.185   6.161  0.1334  0.1491  0.2542
  119SOPE    HX12550   1.929   0.110   6.140  1.7728 -1.2313 -1.4811
  119SOPE    HY12551   2.054   0.165   6.261  0.0747  1.5825  0.5820
  119SOPE   O3112552   2.106   0.182   6.053 -0.2593 -0.0425 -0.1735
  119SOPE   C3112553   2.062   0.141   5.933  0.1314 -0.5436 -0.4056
  119SOPE   O3212554   1.958   0.084   5.908 -0.7397  0.4686 -0.0211
  119SOPE   C3212555   2.170   0.173   5.826 -0.0837 -0.1742 -0.0279
  119SOPE   H2X12556   2.266   0.123   5.849 -0.2758 -0.6142 -0.1639
  119SOPE   H2Y12557   2.199   0.280   5.830  1.6618 -0.6102 -0.2243
  119SOPE   C2312558   1.855   0.648   5.817  0.4214 -0.2252 -0.5383
  119SOPE   H3R12559   1.818   0.711   5.900  1.1200 -0.6362  0.1021
  119SOPE   H3S12560   1.787   0.645   5.730 -0.7861 -0.3569  0.3849
  119SOPE   C2412561   1.994   0.710   5.770 -0.2960  0.5261  0.7208
  119SOPE   H4R12562   1.988   0.819   5.750 -1.7450  0.5425  1.1340
  119SOPE   H4S12563   2.067   0.714   5.854 -1.1329 -1.0220  1.5733
  119SOPE   C2512564   2.052   0.629   5.654 -0.1274 -0.4850 -0.0762
  119SOPE   H5R12565   2.100   0.531   5.674  2.6422  0.5138 -1.2660
  119SOPE   H5S12566   1.972   0.617   5.578  1.7716  0.1784 -2.3276
  119SOPE   C2612567   2.163   0.708   5.584  0.2838 -0.1159 -0.0028
  119SOPE   H6R12568   2.133   0.797   5.525  1.7693  1.2475  1.1925
  119SOPE   H6S12569   2.213   0.776   5.657 -1.3303  2.9199 -1.5426
  119SOPE   C2712570   2.264   0.625   5.504 -0.5625  0.3880  0.3397
  119SOPE   H7R12571   2.361   0.679   5.494 -0.6123  0.8186  1.8515
  119SOPE   H7S12572   2.310   0.554   5.576 -0.3543 -3.1977 -2.9960
  119SOPE   C2812573   2.217   0.542   5.382 -0.0050 -0.1916 -0.1543
  119SOPE   H8R12574   2.305   0.499   5.329 -0.2195 -3.0527  1.6200
  119SOPE   H8S12575   2.146   0.465   5.419  0.8798 -1.1798 -0.4627
  119SOPE   C2912576   2.141   0.639   5.298 -0.3772  0.5050  0.1847
  119SOPE   H9112577   2.035   0.638   5.328  0.0981 -1.5912  2.0410
  119SOPE  C21012578   2.177   0.686   5.176  0.8270  0.3422  0.5420
  119SOPE  H10112579   2.103   0.746   5.121 -0.9984  0.8617  3.3360
  119SOPE  C21112580   2.307   0.668   5.113 -0.3125  0.4840  0.9504
  119SOPE  H11R12581   2.377   0.613   5.179  1.5838  0.4655 -0.9569
  119SOPE  H11S12582   2.349   0.769   5.093  0.1098  0.8211  3.2262
  119SOPE  C21212583   2.303   0.599   4.975  0.4103 -0.4229  0.6511
  119SOPE  H12R12584   2.276   0.491   4.975 -0.6599 -0.2542 -2.7098
  119SOPE  H12S12585   2.403   0.592   4.926 -0.4100 -2.3712 -0.9094
  119SOPE  C21312586   2.219   0.668   4.870  0.5689 -0.6539  0.2489
  119SOPE  H13R12587   2.242   0.777   4.869  1.0695 -0.7558  0.5211
  119SOPE  H13S12588   2.111   0.648   4.885 -0.2048  2.3874 -0.5303
  119SOPE  C21412589   2.231   0.595   4.740  0.0792 -0.4294 -0.5795
  119SOPE  H14R12590   2.194   0.492   4.755 -0.8053  0.2229  2.5737
  119SOPE  H14S12591   2.337   0.592   4.707 -0.0946 -0.6717 -1.1315
  119SOPE  C21512592   2.138   0.650   4.632 -0.6862  0.2599  0.4494
  119SOPE  H15R12593   2.170   0.756   4.625 -0.8580  0.2183 -2.1390
  119SOPE  H15S12594   2.032   0.642   4.663 -1.1070  0.2999 -0.9347
  119SOPE  C21612595   2.158   0.576   4.495 -0.4461 -0.3327 -0.7068
  119SOPE  H16R12596   2.103   0.479   4.500  1.9368 -1.7125  0.5907
  119SOPE  H16S12597   2.265   0.547   4.493  0.2325  1.6352  1.5862
  119SOPE  C21712598   2.127   0.654   4.369 -0.8543  0.1071 -0.5858
  119SOPE  H17R12599   2.179   0.752   4.372  1.1527 -0.8538 -1.7429
  119SOPE  H17S12600   2.017   0.668   4.364 -0.8808 -0.4108 -1.8385
  119SOPE  C21812601   2.176   0.587   4.241  0.8395  0.8533 -0.0992
  119SOPE  H18R12602   2.175   0.666   4.163  2.8784 -0.3443 -1.4218
  119SOPE  H18S12603   2.107   0.514   4.194  0.7627  0.0349  1.2220
  119SOPE  H18T12604   2.276   0.540   4.241  0.4597 -0.2268  3.3530
  119SOPE   C3312605   2.107   0.144   5.685  0.4183 -0.9895 -0.1699
  119SOPE   H3X12606   2.022   0.214   5.676  1.1931  0.0029  0.0720
  119SOPE   H3Y12607   2.055   0.046   5.676 -1.6686  0.1596 -1.3253
  119SOPE   C3412608   2.220   0.167   5.587  0.0019  0.5995  0.5635
  119SOPE   H4X12609   2.301   0.097   5.615 -1.5122 -0.7512  1.7955
  119SOPE   H4Y12610   2.263   0.270   5.588 -1.5060  1.2666 -0.0641
  119SOPE   C3512611   2.161   0.135   5.448  0.6709 -0.4542  0.1688
  119SOPE   H5X12612   2.068   0.193   5.430  1.9117  1.2684 -0.9704
  119SOPE   H5Y12613   2.133   0.028   5.437 -0.2566 -0.6301  3.2541
  119SOPE   C3612614   2.261   0.164   5.333  0.0489  0.5508 -0.2122
  119SOPE   H6X12615   2.344   0.091   5.331  0.4952  1.0567 -0.6745
  119SOPE   H6Y12616   2.299   0.267   5.352 -0.0346  0.0267  3.2990
  119SOPE   C3712617   2.200   0.155   5.190  0.3947 -0.6002 -0.1490
  119SOPE   H7X12618   2.114   0.223   5.172 -0.4187 -1.7269 -0.6674
  119SOPE   H7Y12619   2.168   0.050   5.178  2.1960 -0.9158 -3.0263
  119SOPE   C3812620   2.304   0.170   5.075  1.0590  0.1207  0.5536
  119SOPE   H8X12621   2.367   0.078   5.075 -2.0981 -2.2515 -1.2726
  119SOPE   H8Y12622   2.374   0.253   5.094 -0.1530  1.2586  0.2213
  119SOPE   C3912623   2.235   0.183   4.937 -0.2099  0.4678 -0.0118
  119SOPE   H9X12624   2.178   0.278   4.935 -0.3634  0.4105  0.8821
  119SOPE   H9Y12625   2.166   0.098   4.917  1.1403 -0.2421 -1.9983
  119SOPE  C31012626   2.340   0.181   4.823 -0.0966 -0.0792  0.2802
  119SOPE  H10X12627   2.393   0.085   4.840  1.9880  1.0775  0.6628
  119SOPE  H10Y12628   2.399   0.274   4.835 -2.0423  1.3967 -1.0479
  119SOPE  C31112629   2.277   0.181   4.680 -0.2301  0.5545  1.1823
  119SOPE  H11X12630   2.211   0.266   4.654 -1.8868 -1.4252 -1.8154
  119SOPE  H11Y12631   2.215   0.090   4.659  0.4948 -0.0496  1.6312
  119SOPE  C31212632   2.394   0.187   4.577  0.5521  0.6658 -0.3075
  119SOPE  H12X12633   2.455   0.095   4.593 -0.6119 -0.1062 -0.1862
  119SOPE  H12Y12634   2.464   0.268   4.609  2.7084 -0.7747 -1.1628
  119SOPE  C31312635   2.337   0.194   4.428 -0.3702 -0.1355  0.4299
  119SOPE  H13X12636   2.259   0.274   4.421 -1.7328 -1.5386 -1.4731
  119SOPE  H13Y12637   2.281   0.102   4.404  1.5360 -1.2870  0.1993
  119SOPE  C31412638   2.445   0.219   4.322  0.0856 -0.6823 -0.2193
  119SOPE  H14X12639   2.499   0.314   4.342  1.0217 -1.3845  0.6456
  119SOPE  H14Y12640   2.403   0.221   4.219 -0.4222  2.7783 -0.0688
  119SOPE  C31512641   2.561   0.113   4.340 -0.1703 -0.5076 -0.1645
  119SOPE  H15X12642   2.522   0.012   4.314 -0.5187 -0.8619  1.6073
  119SOPE  H15Y12643   2.611   0.110   4.439 -0.0268  2.6082 -0.0657
  119SOPE  C31612644   2.687   0.127   4.245 -0.3210 -0.1889  0.1955
  119SOPE  H16X12645   2.768   0.061   4.284 -0.3856 -0.5514 -0.2751
  119SOPE  H16Y12646   2.724   0.231   4.256 -1.1864  0.2760 -1.0398
  119SOPE  C31712647   2.665   0.094   4.103 -0.6244  0.0246 -0.7468
  119SOPE  H17X12648   2.569   0.135   4.065 -0.5677  0.0153 -0.9025
  119SOPE  H17Y12649   2.656  -0.017   4.098  1.7373 -0.3397  1.1709
  119SOPE  C31812650   2.786   0.142   4.019  0.0128 -0.2894 -0.9529
  119SOPE  H18X12651   2.811   0.248   4.042 -0.0073 -0.1533 -1.5468
  119SOPE  H18Y12652   2.761   0.128   3.912 -1.3671 -0.6535 -0.5981
  119SOPE  H18Z12653   2.874   0.081   4.049 -0.7978 -0.1198  2.1129
  120SOPE     N12654   6.662   4.047   6.582 -0.3555  0.0646  0.3124
  120SOPE   HN112655   6.581   4.011   6.637  0.6617 -1.1429  1.0762
  120SOPE   HN212656   6.631   4.116   6.511 -0.8028 -1.4955 -1.0652
  120SOPE   HN312657   6.712   3.962   6.549  1.6873  1.8716 -1.6117
  120SOPE   C1212658   6.755   4.113   6.678 -0.1594  0.5046 -0.3835
  120SOPE  H12A12659   6.758   4.042   6.763 -1.3154 -0.3961 -1.0770
  120SOPE  H12B12660   6.725   4.218   6.697  3.2030  1.4978  0.1730
  120SOPE   C1112661   6.904   4.118   6.622  0.4453  0.5719 -0.6432
  120SOPE  H11A12662   6.934   4.013   6.600  0.3478  0.0543  1.4768
  120SOPE  H11B12663   6.972   4.138   6.708  0.0449  1.4541 -0.5220
  120SOPE     P12664   6.958   4.349   6.504 -0.0875  0.2109  0.3406
  120SOPE   O1312665   7.092   4.366   6.561  0.3563  0.0402  0.5104
  120SOPE   O1412666   6.849   4.426   6.562  0.3420  0.3755 -0.1506
  120SOPE   O1212667   6.923   4.202   6.502  0.3434  0.4236 -0.0342
  120SOPE   O1112668   6.968   4.379   6.348  0.2720  0.2516  0.7227
  120SOPE    C112669   6.850   4.338   6.268 -0.5983  0.0671  0.2611
  120SOPE    HA12670   6.756   4.355   6.324 -1.8735 -0.8513 -1.4994
  120SOPE    HB12671   6.872   4.230   6.251  1.2143  0.2774  0.9959
  120SOPE    C212672   6.829   4.423   6.144 -0.5098 -0.4162  0.3013
  120SOPE    HS12673   6.917   4.422   6.075 -0.3732  2.0488  0.3589
  120SOPE   O2112674   6.791   4.557   6.201 -0.1417 -0.2032 -0.6029
  120SOPE   C2112675   6.820   4.662   6.121  0.3212  0.5638 -0.1005
  120SOPE   O2212676   6.878   4.648   6.015 -0.1021 -0.0850  0.7757
  120SOPE   C2212677   6.778   4.794   6.182  0.2026  0.3105 -0.2151
  120SOPE   H2R12678   6.867   4.841   6.229  1.1950 -0.1292 -1.6145
  120SOPE   H2S12679   6.710   4.763   6.264  2.0272 -0.7877  0.9503
  120SOPE    C312680   6.709   4.380   6.055 -0.6726  0.4468 -0.3687
  120SOPE    HX12681   6.624   4.388   6.126  0.8807 -1.2115  1.8170
  120SOPE    HY12682   6.717   4.273   6.026  1.7131  0.3114  0.5612
  120SOPE   O3112683   6.695   4.467   5.948  0.8067  0.0386  0.6300
  120SOPE   C3112684   6.784   4.440   5.847  0.2356 -0.0650 -0.5011
  120SOPE   O3212685   6.855   4.345   5.845  0.0038 -0.1282  1.1207
  120SOPE   C3212686   6.775   4.550   5.737 -0.1691  0.6285 -0.3084
  120SOPE   H2X12687   6.825   4.636   5.787 -1.1068 -0.1909  2.1993
  120SOPE   H2Y12688   6.666   4.566   5.725 -0.2986 -0.9089 -1.3816
  120SOPE   C2312689   6.708   4.895   6.080  0.0359  0.1779  1.0252
  120SOPE   H3R12690   6.771   4.910   5.990  0.8085  0.3344  1.5716
  120SOPE   H3S12691   6.704   4.995   6.128  2.7449  0.7692  0.2080
  120SOPE   C2412692   6.564   4.854   6.052  0.4079  0.4261  0.0411
  120SOPE   H4R12693   6.539   4.767   6.117  1.6338 -0.7663 -1.0117
  120SOPE   H4S12694   6.493   4.937   6.070 -1.3856 -0.6394 -1.6636
  120SOPE   C2512695   6.531   4.827   5.907 -0.1327  0.5153 -0.0401
  120SOPE   H5R12696   6.576   4.909   5.847 -1.3017  1.5657  0.4751
  120SOPE   H5S12697   6.592   4.738   5.884 -0.4334  0.1441  0.5516
  120SOPE   C2612698   6.379   4.813   5.882 -1.0530  0.4189  0.3744
  120SOPE   H6R12699   6.320   4.754   5.956 -0.7898 -0.2274  0.0829
  120SOPE   H6S12700   6.334   4.914   5.878  0.0837  0.9009 -1.5853
  120SOPE   C2712701   6.355   4.753   5.738 -0.1607  0.0391 -0.8161
  120SOPE   H7R12702   6.405   4.822   5.667  1.9305 -0.3251  0.2462
  120SOPE   H7S12703   6.378   4.644   5.730 -2.5684 -0.7081  1.0012
  120SOPE   C2812704   6.207   4.764   5.695 -0.1412  0.0412 -0.0430
  120SOPE   H8R12705   6.140   4.701   5.757 -0.7872  0.5562 -0.2072
  120SOPE   H8S12706   6.180   4.868   5.723 -2.3189 -0.5630  0.3039
  120SOPE   C2912707   6.187   4.737   5.547 -0.4158  0.1853  0.4538
  120SOPE   H9112708   6.267   4.793   5.496 -0.8374  1.4417  1.1067
  120SOPE  C21012709   6.108   4.657   5.488 -0.4926 -0.3437  0.6224
  120SOPE  H10112710   6.119   4.644   5.379 -1.0628 -0.4736  0.5794
  120SOPE  C21112711   5.997   4.588   5.555  0.2641  0.0968  0.3313
  120SOPE  H11R12712   5.900   4.614   5.509  0.4099  0.0533 -0.0060
  120SOPE  H11S12713   5.979   4.619   5.660  0.1152  0.7389  0.1190
  120SOPE  C21212714   6.021   4.434   5.554 -0.2422 -0.4233  0.0973
  120SOPE  H12R12715   6.111   4.416   5.617  1.1060  3.0896 -0.5535
  120SOPE  H12S12716   6.046   4.396   5.453  1.8432 -0.2697  0.5159
  120SOPE  C21312717   5.905   4.345   5.607  0.3353  0.9522 -0.1525
  120SOPE  H13R12718   5.923   4.239   5.577 -0.3916  0.9693 -0.6757
  120SOPE  H13S12719   5.809   4.377   5.562  0.2602 -0.7604 -1.3257
  120SOPE  C21412720   5.891   4.340   5.759 -0.0011  0.1463 -0.3501
  120SOPE  H14R12721   5.846   4.439   5.781  0.0565  0.4250 -1.4215
  120SOPE  H14S12722   5.988   4.338   5.814  0.5406 -1.0008 -1.3063
  120SOPE  C21512723   5.789   4.234   5.794  0.0714  0.8963  0.5506
  120SOPE  H15R12724   5.820   4.137   5.751 -2.3942  0.1714  0.2432
  120SOPE  H15S12725   5.690   4.259   5.749 -0.2007 -2.9506 -1.3520
  120SOPE  C21612726   5.761   4.222   5.946  0.0543 -0.0684 -0.0504
  120SOPE  H16R12727   5.854   4.252   5.999 -0.7356  2.4375  0.0826
  120SOPE  H16S12728   5.725   4.119   5.969 -0.2612  0.1137  0.2912
  120SOPE  C21712729   5.651   4.323   5.994 -0.6458  0.5451  0.6487
  120SOPE  H17R12730   5.551   4.292   5.956 -1.5660  1.9893  1.7835
  120SOPE  H17S12731   5.684   4.420   5.952 -1.2696  0.9314  1.0208
  120SOPE  C21812732   5.641   4.347   6.146  0.3044  0.4860  0.3080
  120SOPE  H18R12733   5.733   4.402   6.176  1.1947 -0.1954 -1.0682
  120SOPE  H18S12734   5.639   4.249   6.198 -1.0809 -0.0102 -0.6285
  120SOPE  H18T12735   5.548   4.406   6.161 -0.3032 -0.5107  0.5883
  120SOPE   C3312736   6.834   4.511   5.600  1.1512  0.0424  0.2377
  120SOPE   H3X12737   6.781   4.418   5.570  0.9894  0.0648  0.4490
  120SOPE   H3Y12738   6.944   4.492   5.602  1.1568 -0.0025 -0.5320
  120SOPE   C3412739   6.798   4.608   5.490  0.2021  0.2592  0.3113
  120SOPE   H4X12740   6.860   4.584   5.402 -0.0958  1.0670 -0.1315
  120SOPE   H4Y12741   6.821   4.711   5.525  1.8851 -0.5727  1.7855
  120SOPE   C3512742   6.646   4.618   5.456 -0.7520  0.1770  0.3972
  120SOPE   H5X12743   6.592   4.674   5.535  0.1026  1.3594  0.1606
  120SOPE   H5Y12744   6.601   4.517   5.450 -1.0648  0.4127 -1.8668
  120SOPE   C3612745   6.621   4.679   5.313  0.3604 -0.0846 -0.0381
  120SOPE   H6X12746   6.659   4.611   5.234  0.1676 -1.6490  1.1811
  120SOPE   H6Y12747   6.678   4.775   5.314 -0.4606  0.4259  1.7163
  120SOPE   C3712748   6.476   4.725   5.284 -0.0257  0.1370  0.3079
  120SOPE   H7X12749   6.460   4.823   5.333 -3.3140 -0.3634  0.4517
  120SOPE   H7Y12750   6.409   4.640   5.310  0.4544 -0.8620 -1.5368
  120SOPE   C3812751   6.450   4.757   5.137 -0.6087  0.5355  0.2509
  120SOPE   H8X12752   6.339   4.752   5.123 -0.2936 -0.4146 -2.7077
  120SOPE   H8Y12753   6.487   4.677   5.069 -0.3015 -0.4238  1.5184
  120SOPE   C3912754   6.508   4.893   5.096  0.1372  0.6090 -0.2080
  120SOPE   H9X12755   6.616   4.901   5.122  0.4309  0.5141 -1.3566
  120SOPE   H9Y12756   6.460   4.963   5.168 -1.6115 -0.9337  0.2079
  120SOPE  C31012757   6.476   4.931   4.949 -0.4961 -0.5731  0.2870
  120SOPE  H10X12758   6.375   4.900   4.913 -0.5015  0.0317 -0.2266
  120SOPE  H10Y12759   6.549   4.877   4.883 -0.8093 -1.0077  0.2904
  120SOPE  C31112760   6.495   5.076   4.927 -0.1849  0.5377  0.4518
  120SOPE  H11X12761   6.602   5.104   4.919  0.5329 -2.3393 -1.5575
  120SOPE  H11Y12762   6.461   5.148   5.005  0.5376  0.1389  1.1473
  120SOPE  C31212763   6.432   5.110   4.788  0.4155  0.3027 -0.1547
  120SOPE  H12X12764   6.429   5.221   4.795 -0.0011  0.2566  0.4566
  120SOPE  H12Y12765   6.332   5.064   4.772  0.0390  1.2606 -0.6457
  120SOPE  C31312766   6.498   5.047   4.668  0.0172  0.0677  0.2106
  120SOPE  H13X12767   6.476   4.938   4.667 -1.4559  0.3484 -0.9752
  120SOPE  H13Y12768   6.608   5.064   4.676 -0.0823  0.9813 -0.2509
  120SOPE  C31412769   6.462   5.100   4.523 -0.3228  0.2814 -0.3628
  120SOPE  H14X12770   6.488   5.208   4.521 -0.3904  0.3034  0.0013
  120SOPE  H14Y12771   6.358   5.075   4.493  0.3274 -2.1874 -0.8313
  120SOPE  C31512772   6.550   5.025   4.423  0.0869 -0.1073 -0.4783
  120SOPE  H15X12773   6.515   4.919   4.422  0.8549 -0.3918  0.5958
  120SOPE  H15Y12774   6.653   5.021   4.464  1.1310 -2.8627 -3.0184
  120SOPE  C31612775   6.556   5.090   4.282 -0.3080 -0.5578  0.3187
  120SOPE  H16X12776   6.448   5.085   4.256 -0.0429 -3.2271 -0.5399
  120SOPE  H16Y12777   6.601   5.038   4.195  1.5098  0.4972  0.5628
  120SOPE  C31712778   6.620   5.232   4.279  0.0441 -0.5619 -0.0891
  120SOPE  H17X12779   6.595   5.288   4.372  2.2004 -1.4531  1.0961
  120SOPE  H17Y12780   6.569   5.287   4.197  0.9818 -0.9819 -0.9793
  120SOPE  C31812781   6.774   5.241   4.263  1.1536  0.1490  0.2431
  120SOPE  H18X12782   6.827   5.158   4.315  1.9920 -0.9146 -2.1464
  120SOPE  H18Y12783   6.810   5.327   4.324 -0.9686 -0.9615  3.3206
  120SOPE  H18Z12784   6.808   5.234   4.157  1.1824 -1.9513  0.3664
  121SOPE     N12785   0.212   3.688   6.726  0.7684  0.4345  0.0450
  121SOPE   HN112786   0.288   3.633   6.771  1.0830  0.2844 -0.6640
  121SOPE   HN212787   0.201   3.773   6.784  1.1510  1.0453 -0.7550
  121SOPE   HN312788   0.126   3.631   6.734  0.5651  0.2716 -2.4414
  121SOPE   C1212789   0.253   3.726   6.589 -0.5248 -0.2156  0.0534
  121SOPE  H12A12790   0.192   3.817   6.568  2.8275  2.1711 -0.2127
  121SOPE  H12B12791   0.240   3.642   6.517  0.6029  0.0330 -0.4570
  121SOPE   C1112792   0.399   3.789   6.593  0.4476 -0.1142 -0.2463
  121SOPE  H11A12793   0.434   3.792   6.488 -0.6596  0.6377 -0.6110
  121SOPE  H11B12794   0.471   3.721   6.642  0.9224 -1.1333 -2.2826
  121SOPE     P12795   0.514   4.010   6.626  0.6103 -0.0713  0.0767
  121SOPE   O1312796   0.638   3.937   6.661  0.2796 -0.7601 -0.3638
  121SOPE   O1412797   0.491   4.139   6.695  0.2104 -0.2085  0.8518
  121SOPE   O1212798   0.392   3.913   6.653  0.2616 -0.6549 -0.1268
  121SOPE   O1112799   0.522   4.037   6.474 -0.0900  0.0201 -0.0744
  121SOPE    C112800   0.422   4.113   6.408  0.8961 -0.1873  0.0651
  121SOPE    HA12801   0.436   4.215   6.449  0.4988 -0.2625  0.3966
  121SOPE    HB12802   0.318   4.075   6.420  0.9312 -0.6499 -1.0237
  121SOPE    C212803   0.464   4.118   6.255 -0.2007  0.4473  0.4572
  121SOPE    HS12804   0.448   4.017   6.210  0.2069  0.5525  0.0659
  121SOPE   O2112805   0.604   4.155   6.242 -0.5144  0.0212  0.1382
  121SOPE   C2112806   0.697   4.059   6.235  0.0171  0.2960  0.6129
  121SOPE   O2212807   0.669   3.943   6.236  0.5440  0.3777 -0.4614
  121SOPE   C2212808   0.840   4.115   6.233 -0.2956  0.6383  0.2043
  121SOPE   H2R12809   0.889   4.085   6.328 -0.5394  2.2498  0.8791
  121SOPE   H2S12810   0.839   4.226   6.227 -0.8470  0.5574 -2.2119
  121SOPE    C312811   0.371   4.217   6.189  0.0575  0.3921  0.1862
  121SOPE    HX12812   0.394   4.321   6.219 -0.4002  0.2171  1.2133
  121SOPE    HY12813   0.268   4.207   6.229  0.1590  0.1595  0.3948
  121SOPE   O3112814   0.365   4.212   6.045 -0.8163 -0.0139  0.2010
  121SOPE   C3112815   0.285   4.131   5.987 -0.6173  0.2170 -0.0718
  121SOPE   O3212816   0.220   4.049   6.051  0.4125 -0.2258  0.1066
  121SOPE   C3212817   0.293   4.148   5.838 -0.0209  0.5784  0.3473
  121SOPE   H2X12818   0.396   4.117   5.809 -1.0972 -0.0622 -3.2518
  121SOPE   H2Y12819   0.265   4.253   5.817 -0.2799  0.0059 -2.6624
  121SOPE   C2312820   0.925   4.063   6.114  0.8495 -0.1562  0.7975
  121SOPE   H3R12821   0.928   3.953   6.101 -3.2466 -0.4431  0.9949
  121SOPE   H3S12822   1.033   4.087   6.118  1.5668 -2.3781 -1.9991
  121SOPE   C2412823   0.867   4.116   5.980 -0.3270  0.0490 -0.7268
  121SOPE   H4R12824   0.910   4.057   5.895  1.9392 -0.4617  0.6953
  121SOPE   H4S12825   0.758   4.110   5.963  0.0930 -0.0924 -4.2657
  121SOPE   C2512826   0.899   4.264   5.939  0.1071 -0.3956 -0.6879
  121SOPE   H5R12827   0.896   4.322   6.034  2.7672 -0.6969 -0.3216
  121SOPE   H5S12828   1.007   4.273   5.914 -0.0632  2.9527 -0.6317
  121SOPE   C2612829   0.816   4.325   5.830  0.8703 -0.7427 -0.3580
  121SOPE   H6R12830   0.710   4.335   5.863  1.4411  0.8579  1.1358
  121SOPE   H6S12831   0.854   4.426   5.805  0.7090 -0.1213  1.7268
  121SOPE   C2712832   0.799   4.240   5.699 -0.1339  0.1110  0.4738
  121SOPE   H7R12833   0.898   4.226   5.650  0.7024  0.6451  1.9547
  121SOPE   H7S12834   0.753   4.143   5.726 -0.1566  0.2543  0.9529
  121SOPE   C2812835   0.702   4.308   5.593  0.0381  0.6084  0.6171
  121SOPE   H8R12836   0.612   4.336   5.652 -0.0505 -1.2879  1.4622
  121SOPE   H8S12837   0.756   4.403   5.573  1.4860 -0.4717 -0.8651
  121SOPE   C2912838   0.662   4.230   5.471  0.2988  0.1301 -0.5500
  121SOPE   H9112839   0.639   4.129   5.508 -1.6882  1.1447  1.1954
  121SOPE  C21012840   0.652   4.248   5.339  0.5155 -0.3802  0.6875
  121SOPE  H10112841   0.622   4.165   5.274 -3.7452  0.5754  1.0938
  121SOPE  C21112842   0.687   4.384   5.265  1.0491  0.3471 -0.4165
  121SOPE  H11R12843   0.712   4.470   5.332  1.3369  0.2078 -0.3439
  121SOPE  H11S12844   0.600   4.417   5.204 -1.0091  0.2346  2.2839
  121SOPE  C21212845   0.796   4.365   5.168 -0.9451  0.0453  0.0535
  121SOPE  H12R12846   0.801   4.263   5.126  2.0173 -0.1593  0.7084
  121SOPE  H12S12847   0.890   4.390   5.222  0.2110  1.2135 -2.3189
  121SOPE  C21312848   0.788   4.469   5.046  0.1409 -0.3740  0.0287
  121SOPE  H13R12849   0.891   4.506   5.032  0.6319 -1.0298  1.6899
  121SOPE  H13S12850   0.722   4.554   5.075  0.8295 -0.3002  1.4747
  121SOPE  C21412851   0.737   4.403   4.917 -0.4227 -0.6942  0.3923
  121SOPE  H14R12852   0.801   4.317   4.891  1.0318  0.7193 -0.9393
  121SOPE  H14S12853   0.743   4.480   4.836 -3.0294 -0.0914  0.6721
  121SOPE  C21512854   0.594   4.349   4.908  0.8101 -0.6338  0.3903
  121SOPE  H15R12855   0.512   4.424   4.921  0.6113 -0.8680  0.4878
  121SOPE  H15S12856   0.594   4.268   4.983 -1.0702 -1.3516 -0.3271
  121SOPE  C21612857   0.567   4.288   4.771  0.0545  0.7171  0.3772
  121SOPE  H16R12858   0.649   4.215   4.752  2.1561  3.4222 -1.9016
  121SOPE  H16S12859   0.573   4.354   4.682  0.4550 -1.1113 -1.0107
  121SOPE  C21712860   0.434   4.221   4.771 -0.6118 -0.0795 -1.0911
  121SOPE  H17R12861   0.361   4.295   4.811  0.2629 -0.0443  0.5489
  121SOPE  H17S12862   0.432   4.140   4.848  1.6052  0.0988 -0.7913
  121SOPE  C21812863   0.388   4.174   4.634 -0.5257 -0.3208 -0.2634
  121SOPE  H18R12864   0.461   4.100   4.593  1.7273  1.0776  0.9954
  121SOPE  H18S12865   0.393   4.256   4.559  0.7869 -1.1460 -1.1425
  121SOPE  H18T12866   0.285   4.132   4.632 -0.7356  0.0990  1.1401
  121SOPE   C3312867   0.199   4.045   5.774 -0.0536  0.2479 -0.4853
  121SOPE   H3X12868   0.092   4.061   5.799 -1.1144 -3.0965 -2.3049
  121SOPE   H3Y12869   0.224   3.946   5.818 -0.2865  0.1411 -0.5934
  121SOPE   C3412870   0.213   4.044   5.626 -0.3025 -0.0313  0.0561
  121SOPE   H4X12871   0.117   4.006   5.585 -0.7841  1.0588  0.1481
  121SOPE   H4Y12872   0.295   3.976   5.594  1.2852  1.4167  0.8653
  121SOPE   C3512873   0.247   4.183   5.554 -0.1796 -1.2955  0.3373
  121SOPE   H5X12874   0.340   4.231   5.592 -1.0410  0.0980  0.7396
  121SOPE   H5Y12875   0.172   4.258   5.586  1.3904 -0.1813  1.6037
  121SOPE   C3612876   0.237   4.172   5.406  0.3259 -0.6561  0.0921
  121SOPE   H6X12877   0.134   4.135   5.386 -1.2576  1.8839  2.7537
  121SOPE   H6Y12878   0.317   4.103   5.371  0.2101 -0.2958 -0.9378
  121SOPE   C3712879   0.243   4.301   5.317  0.1724  0.3810  0.2955
  121SOPE   H7X12880   0.349   4.329   5.301 -0.3365  3.3812  1.5299
  121SOPE   H7Y12881   0.195   4.384   5.373 -0.3383  0.5331 -0.3581
  121SOPE   C3812882   0.173   4.278   5.181 -0.3685 -0.7486 -0.4730
  121SOPE   H8X12883   0.066   4.262   5.208 -0.2390  1.5338  1.7808
  121SOPE   H8Y12884   0.226   4.192   5.135  2.0164 -0.0793  0.8539
  121SOPE   C3912885   0.187   4.402   5.092  0.0256 -0.0070  0.2366
  121SOPE   H9X12886   0.293   4.402   5.060  0.4684 -1.2340  1.6056
  121SOPE   H9Y12887   0.178   4.500   5.143  3.1042  0.4868  0.0154
  121SOPE  C31012888   0.106   4.410   4.963  0.2988  0.1979 -0.0249
  121SOPE  H10X12889  -0.002   4.413   4.987  0.0747 -0.3550 -0.9502
  121SOPE  H10Y12890   0.126   4.319   4.904 -1.3702 -0.5615  0.5225
  121SOPE  C31112891   0.133   4.545   4.887  0.5911  0.3961 -0.4040
  121SOPE  H11X12892   0.240   4.548   4.859  0.9634  0.1685  0.9238
  121SOPE  H11Y12893   0.116   4.628   4.959 -0.1622 -0.7148  0.7531
  121SOPE  C31212894   0.035   4.571   4.778  0.2054 -0.6384 -0.2294
  121SOPE  H12X12895  -0.063   4.532   4.813 -0.0387  0.0234 -0.1531
  121SOPE  H12Y12896   0.064   4.514   4.687  0.4196  0.1385 -0.6580
  121SOPE  C31312897   0.031   4.720   4.729 -0.2853  0.0284  0.0034
  121SOPE  H13X12898   0.135   4.756   4.721 -0.3751  0.3380  0.2612
  121SOPE  H13Y12899  -0.007   4.779   4.815  0.9804  2.4499 -1.0166
  121SOPE  C31412900  -0.061   4.742   4.602  0.1610  0.1694 -0.6500
  121SOPE  H14X12901  -0.098   4.846   4.586 -1.9996 -0.4488  0.0580
  121SOPE  H14Y12902  -0.150   4.677   4.609 -0.3695  0.7568 -1.5846
  121SOPE  C31512903   0.017   4.705   4.476  0.6038 -0.2992  0.4053
  121SOPE  H15X12904   0.013   4.594   4.474  1.4585 -0.3386  0.6584
  121SOPE  H15Y12905   0.124   4.733   4.483  0.8430 -1.5602  2.9697
  121SOPE  C31612906  -0.042   4.758   4.347  0.6137 -0.5158 -0.5003
  121SOPE  H16X12907  -0.025   4.868   4.344 -0.0512 -0.4097 -0.4411
  121SOPE  H16Y12908  -0.153   4.747   4.346  0.2920  1.4359  2.3979
  121SOPE  C31712909   0.034   4.727   4.216  0.2809  0.5328 -0.5811
  121SOPE  H17X12910   0.031   4.618   4.200  0.5560  0.5009 -0.4162
  121SOPE  H17Y12911   0.143   4.742   4.231  0.3679 -0.8788  0.3231
  121SOPE  C31812912  -0.025   4.807   4.103 -0.5882  0.1969  0.3954
  121SOPE  H18X12913  -0.008   4.915   4.126 -0.9640  0.4272 -0.3852
  121SOPE  H18Y12914  -0.135   4.802   4.088 -0.6884  1.4265  0.5584
  121SOPE  H18Z12915   0.039   4.782   4.015 -0.3852  0.3287  0.5028
  122SOPE     N12916   0.698   1.586   6.591 -0.2250  0.3511 -0.3914
  122SOPE   HN112917   0.658   1.670   6.638 -0.4867 -1.1042  2.1741
  122SOPE   HN212918   0.740   1.526   6.665  0.8186  0.8898 -0.5273
  122SOPE   HN312919   0.780   1.614   6.534 -1.5635  0.7500 -2.1952
  122SOPE   C1212920   0.595   1.513   6.505 -0.8054  0.4340 -0.2783
  122SOPE  H12A12921   0.498   1.525   6.559  0.5874  1.0156  2.2601
  122SOPE  H12B12922   0.632   1.408   6.503 -0.0354  0.6312  1.4898
  122SOPE   C1112923   0.599   1.572   6.360 -0.5844 -0.3964 -0.1950
  122SOPE  H11A12924   0.519   1.530   6.295  0.4368 -1.4694 -0.8056
  122SOPE  H11B12925   0.695   1.545   6.310  0.5375 -1.3961  2.3301
  122SOPE     P12926   0.471   1.802   6.326  0.1324  0.0647 -0.0727
  122SOPE   O1312927   0.500   1.924   6.404  0.0660  0.7483  0.4117
  122SOPE   O1412928   0.341   1.733   6.353  0.0279 -0.6157  0.2021
  122SOPE   O1212929   0.592   1.709   6.363  0.4079 -0.7780  0.3711
  122SOPE   O1112930   0.507   1.820   6.174  0.0497  0.0883 -0.5768
  122SOPE    C112931   0.635   1.867   6.140 -0.1623  0.3400 -0.3659
  122SOPE    HA12932   0.691   1.795   6.077  0.6252  1.2381 -0.7142
  122SOPE    HB12933   0.702   1.888   6.227 -1.7296 -0.3396  1.0669
  122SOPE    C212934   0.627   1.986   6.042 -0.6405  0.2869  0.0649
  122SOPE    HS12935   0.731   2.026   6.030 -0.6430  0.0306 -0.9441
  122SOPE   O2112936   0.539   2.086   6.080 -0.1101  0.1014 -0.5737
  122SOPE   C2112937   0.573   2.154   6.188 -0.0560  0.6298  0.5321
  122SOPE   O2212938   0.679   2.154   6.256  0.3295  0.0975  0.4487
  122SOPE   C2212939   0.443   2.236   6.231 -0.9435  0.4135  0.3083
  122SOPE   H2R12940   0.471   2.337   6.269 -1.7136  0.2946  1.2425
  122SOPE   H2S12941   0.396   2.194   6.322  0.2461 -1.6121  0.0368
  122SOPE    C312942   0.569   1.952   5.902 -0.4806  0.9371  0.7524
  122SOPE    HX12943   0.577   2.035   5.829 -1.2227  0.2656 -0.1031
  122SOPE    HY12944   0.461   1.932   5.921 -0.5713  0.0924 -0.5371
  122SOPE   O3112945   0.643   1.838   5.850  0.1791 -0.0651 -0.6540
  122SOPE   C3112946   0.632   1.807   5.719 -0.9112  0.0798 -0.4072
  122SOPE   O3212947   0.571   1.874   5.641 -0.0088  0.5283  0.7052
  122SOPE   C3212948   0.712   1.686   5.689 -0.2419 -0.1317  0.5310
  122SOPE   H2X12949   0.692   1.655   5.585  1.3839 -0.5638  0.3151
  122SOPE   H2Y12950   0.676   1.610   5.761 -1.0999  0.3318  0.6095
  122SOPE   C2312951   0.338   2.280   6.127 -0.0410  0.0363 -1.2117
  122SOPE   H3R12952   0.264   2.349   6.172 -0.7022 -0.4653 -1.5243
  122SOPE   H3S12953   0.290   2.183   6.103 -1.4298 -0.2905  2.2486
  122SOPE   C2412954   0.394   2.360   6.001  0.2740  0.6113  0.7448
  122SOPE   H4R12955   0.424   2.461   6.034  1.3832  0.2861  0.7864
  122SOPE   H4S12956   0.492   2.319   5.967 -1.0552 -2.2605 -0.0385
  122SOPE   C2512957   0.297   2.358   5.883  0.3238  0.0619 -0.6772
  122SOPE   H5R12958   0.261   2.254   5.877  0.7155 -0.2869  1.9214
  122SOPE   H5S12959   0.209   2.423   5.902 -2.1472 -3.3373  0.5161
  122SOPE   C2612960   0.375   2.401   5.756  0.4653 -0.0811 -0.5122
  122SOPE   H6R12961   0.410   2.506   5.763 -1.1221  0.4251  0.2416
  122SOPE   H6S12962   0.459   2.329   5.749 -1.3758 -2.2260 -2.4782
  122SOPE   C2712963   0.281   2.393   5.635 -0.3517  0.0938  0.0154
  122SOPE   H7R12964   0.195   2.456   5.666  0.9280  1.6720  0.5100
  122SOPE   H7S12965   0.318   2.457   5.552 -0.4402 -0.4742 -0.4667
  122SOPE   C2812966   0.250   2.255   5.587 -0.0111  0.3147  0.3820
  122SOPE   H8R12967   0.347   2.223   5.544 -0.8586  2.6868 -3.8232
  122SOPE   H8S12968   0.218   2.190   5.672  0.3350 -0.3675  0.0012
  122SOPE   C2912969   0.136   2.256   5.493  0.1715  0.0470 -0.4844
  122SOPE   H9112970   0.059   2.331   5.517 -0.1780 -0.5865  0.4125
  122SOPE  C21012971   0.113   2.186   5.380 -0.5659  0.3859  0.5845
  122SOPE  H10112972   0.029   2.218   5.316 -1.3110 -0.8094  0.9411
  122SOPE  C21112973   0.200   2.091   5.304 -0.1698 -0.3657 -0.2983
  122SOPE  H11R12974   0.152   1.991   5.303 -0.3293 -0.3198 -2.7175
  122SOPE  H11S12975   0.299   2.077   5.352 -0.6180 -0.2933  0.6643
  122SOPE  C21212976   0.227   2.153   5.168 -0.9699 -0.2491  0.4522
  122SOPE  H12R12977   0.221   2.264   5.166 -1.8192 -0.2711 -2.0613
  122SOPE  H12S12978   0.139   2.135   5.103 -0.4457  2.8592 -1.3451
  122SOPE  C21312979   0.358   2.103   5.111 -0.6263  0.1023 -0.1190
  122SOPE  H13R12980   0.349   1.994   5.091  1.2765 -0.3460  1.2199
  122SOPE  H13S12981   0.451   2.118   5.169  0.8448 -1.3032 -2.0030
  122SOPE  C21412982   0.393   2.179   4.972 -0.1238 -0.5272 -0.1438
  122SOPE  H14R12983   0.376   2.284   5.005  1.3694  0.0685 -1.1606
  122SOPE  H14S12984   0.312   2.155   4.899  0.0882 -0.4360 -0.4083
  122SOPE  C21512985   0.527   2.144   4.907  0.5797 -0.0791 -0.4888
  122SOPE  H15R12986   0.519   2.034   4.892 -1.0056 -0.3679  1.9445
  122SOPE  H15S12987   0.611   2.151   4.979  1.7610 -0.5408 -1.7706
  122SOPE  C21612988   0.552   2.222   4.773  0.3201 -0.7908 -0.1555
  122SOPE  H16R12989   0.562   2.331   4.790 -0.0112 -1.0718  2.1839
  122SOPE  H16S12990   0.465   2.199   4.708  0.6010  0.4449 -0.9939
  122SOPE  C21712991   0.678   2.170   4.699  0.1831  0.1448 -0.7133
  122SOPE  H17R12992   0.685   2.064   4.731 -2.2790 -0.0164 -0.4724
  122SOPE  H17S12993   0.775   2.214   4.731  0.5239 -1.0151 -0.1106
  122SOPE  C21812994   0.668   2.191   4.552  0.5989  0.8891 -0.3481
  122SOPE  H18R12995   0.659   2.299   4.529  2.9594  1.5959  1.5799
  122SOPE  H18S12996   0.579   2.139   4.511  0.5927  1.3653 -0.9471
  122SOPE  H18T12997   0.766   2.160   4.509 -0.3667 -2.0143 -0.6501
  122SOPE   C3312998   0.869   1.710   5.700 -0.1896 -0.6339 -0.1045
  122SOPE   H3X12999   0.918   1.611   5.684 -1.6690 -1.5008  0.4159
  122SOPE   H3Y13000   0.894   1.750   5.801 -0.4277 -0.2618 -0.1911
  122SOPE   C3413001   0.922   1.791   5.580  0.1278  0.3104  0.3201
  122SOPE   H4X13002   0.887   1.896   5.568  2.4283  1.0818 -0.1948
  122SOPE   H4Y13003   0.902   1.735   5.487  2.0418  1.7092 -1.0187
  122SOPE   C3513004   1.076   1.798   5.588  0.0535 -0.6259 -0.5921
  122SOPE   H5X13005   1.103   1.802   5.696 -2.0036 -0.8410 -0.0272
  122SOPE   H5Y13006   1.113   1.880   5.522 -0.0938 -0.5742 -0.6123
  122SOPE   C3613007   1.150   1.671   5.533 -0.4069  0.4270  0.3578
  122SOPE   H6X13008   1.139   1.666   5.423  1.5304 -0.7776  0.1631
  122SOPE   H6Y13009   1.126   1.578   5.589 -0.3533  0.4912  0.4885
  122SOPE   C3713010   1.302   1.679   5.563  0.5647  0.3033 -0.1295
  122SOPE   H7X13011   1.350   1.581   5.539  0.3970  0.0296  0.6160
  122SOPE   H7Y13012   1.304   1.702   5.671  1.1150  1.4739 -0.3658
  122SOPE   C3813013   1.384   1.784   5.488 -0.3931 -0.0575 -0.4049
  122SOPE   H8X13014   1.487   1.791   5.530 -1.3669  1.3541  1.9462
  122SOPE   H8Y13015   1.337   1.881   5.512 -1.6985 -1.2623  2.4210
  122SOPE   C3913016   1.382   1.770   5.334  0.3850 -0.0602  0.2765
  122SOPE   H9X13017   1.281   1.758   5.289  0.2961  2.5271 -0.3777
  122SOPE   H9Y13018   1.442   1.683   5.302 -0.1109 -0.1381 -0.4711
  122SOPE  C31013019   1.441   1.892   5.256  0.6507  0.6098  1.1011
  122SOPE  H10X13020   1.546   1.878   5.290  0.1280 -0.3683  2.4084
  122SOPE  H10Y13021   1.395   1.986   5.293  0.2121  0.1444  1.7508
  122SOPE  C31113022   1.416   1.879   5.104  0.1077 -0.0834 -0.7275
  122SOPE  H11X13023   1.454   1.785   5.057  2.7089  0.6197 -0.1721
  122SOPE  H11Y13024   1.486   1.952   5.059  2.6109 -0.1311  2.6868
  122SOPE  C31213025   1.271   1.913   5.060 -0.0466 -0.5340  0.5951
  122SOPE  H12X13026   1.208   1.968   5.133 -0.8284  1.4987 -1.4958
  122SOPE  H12Y13027   1.212   1.819   5.057  1.1287 -1.4686  3.4161
  122SOPE  C31313028   1.269   1.995   4.934 -0.0515  0.2662  0.3415
  122SOPE  H13X13029   1.223   1.942   4.847 -0.4879  1.9409 -0.4909
  122SOPE  H13Y13030   1.372   2.024   4.906  0.1060  1.4229  1.9593
  122SOPE  C31413031   1.199   2.130   4.951 -0.8074  0.4499 -0.0145
  122SOPE  H14X13032   1.225   2.183   5.045  0.7225  0.5479 -0.4684
  122SOPE  H14Y13033   1.091   2.102   4.946 -0.7565  0.4532 -1.2171
  122SOPE  C31513034   1.212   2.222   4.830 -0.0426  0.2843  0.3181
  122SOPE  H15X13035   1.159   2.195   4.736  1.3239  0.1662 -0.4492
  122SOPE  H15Y13036   1.320   2.235   4.809 -0.4555  1.6151 -1.1734
  122SOPE  C31613037   1.184   2.370   4.852  0.0325  0.2482  0.3584
  122SOPE  H16X13038   1.075   2.369   4.870 -0.2105  0.1897 -1.0126
  122SOPE  H16Y13039   1.209   2.420   4.756  0.4645  0.3279  0.5108
  122SOPE  C31713040   1.263   2.450   4.961  0.4571 -0.2239 -0.3921
  122SOPE  H17X13041   1.284   2.378   5.043  1.3166  0.6705  0.2039
  122SOPE  H17Y13042   1.201   2.529   5.008  0.4452 -1.2244  1.3431
  122SOPE  C31813043   1.406   2.500   4.917 -0.2847  0.3834  1.4478
  122SOPE  H18X13044   1.445   2.445   4.829  0.6429  0.7821  1.5935
  122SOPE  H18Y13045   1.482   2.492   4.998  0.5797  0.5309  0.6650
  122SOPE  H18Z13046   1.407   2.606   4.883 -0.7048 -0.5732 -1.9178
  123SOPE     N13047   1.663   0.854   2.316 -0.2826  0.0278 -0.3955
  123SOPE   HN113048   1.688   0.939   2.370  0.1263 -1.2321  1.4588
  123SOPE   HN213049   1.624   0.886   2.224  0.0106 -0.7926 -0.8161
  123SOPE   HN313050   1.578   0.809   2.357 -0.7479 -1.7557 -3.0492
  123SOPE   C1213051   1.778   0.754   2.300 -0.2462 -0.1298  0.1645
  123SOPE  H12A13052   1.812   0.727   2.403 -0.7183  1.9313  0.9044
  123SOPE  H12B13053   1.860   0.818   2.262 -0.9715 -0.2554 -1.6771
  123SOPE   C1113054   1.754   0.649   2.193 -0.0124 -1.0608 -0.2002
  123SOPE  H11A13055   1.818   0.560   2.209  0.3152 -0.8002 -0.0510
  123SOPE  H11B13056   1.766   0.682   2.088  0.5462  1.0103  0.4533
  123SOPE     P13057   1.564   0.479   2.133  0.3722  0.0720  0.3779
  123SOPE   O1313058   1.680   0.399   2.098 -0.8478 -0.3009 -0.8991
  123SOPE   O1413059   1.476   0.530   2.024  0.7871 -0.1108 -0.1680
  123SOPE   O1213060   1.616   0.606   2.205 -0.4825 -0.1575 -0.1179
  123SOPE   O1113061   1.479   0.395   2.236  0.3980  0.3958 -0.0955
  123SOPE    C113062   1.396   0.472   2.318 -0.3280 -0.2656 -1.0131
  123SOPE    HA13063   1.294   0.429   2.317 -1.2964  1.8811 -0.2901
  123SOPE    HB13064   1.380   0.576   2.283  0.5706  0.1292 -0.2798
  123SOPE    C213065   1.446   0.491   2.460 -0.7136 -0.1382  0.2209
  123SOPE    HS13066   1.540   0.548   2.457  0.0058 -1.2237  1.1071
  123SOPE   O2113067   1.464   0.356   2.515 -0.4511  0.0417  0.0186
  123SOPE   C2113068   1.589   0.317   2.543  0.3246  0.3233 -0.4117
  123SOPE   O2213069   1.681   0.392   2.560  0.0632 -0.0053  0.2237
  123SOPE   C2213070   1.577   0.171   2.587 -0.0870  0.1264  0.4913
  123SOPE   H2R13071   1.608   0.103   2.504  0.0718 -0.9176  1.3826
  123SOPE   H2S13072   1.468   0.149   2.589 -0.3061  0.6994 -1.9560
  123SOPE    C313073   1.354   0.573   2.556 -0.6910 -1.0090 -0.5563
  123SOPE    HX13074   1.268   0.513   2.594 -1.0684 -0.3888 -0.4088
  123SOPE    HY13075   1.296   0.651   2.501 -0.5069 -0.2149  0.3459
  123SOPE   O3113076   1.423   0.628   2.676 -0.3862  0.0041 -0.2263
  123SOPE   C3113077   1.512   0.727   2.647  0.3579 -0.5970 -0.2471
  123SOPE   O3213078   1.524   0.770   2.531  0.0044 -0.4534 -0.8295
  123SOPE   C3213079   1.572   0.790   2.776 -0.0616  0.0076  0.1277
  123SOPE   H2X13080   1.495   0.789   2.855 -0.8119 -2.2879 -0.5599
  123SOPE   H2Y13081   1.583   0.895   2.741 -2.7753  0.4036  0.2480
  123SOPE   C2313082   1.644   0.131   2.719  0.2199 -0.3378  0.5890
  123SOPE   H3R13083   1.742   0.181   2.729 -0.6577  1.8016 -0.6994
  123SOPE   H3S13084   1.649   0.022   2.737 -0.5349 -0.3089  1.0147
  123SOPE   C2413085   1.561   0.179   2.837  0.1299  0.5751 -0.2232
  123SOPE   H4R13086   1.564   0.290   2.834 -0.2602  0.7960  3.3215
  123SOPE   H4S13087   1.454   0.149   2.835  0.9086 -2.8824  1.6364
  123SOPE   C2513088   1.618   0.145   2.981  0.3848 -0.2926 -0.1881
  123SOPE   H5R13089   1.634   0.036   2.988 -2.7901 -0.7738  0.8177
  123SOPE   H5S13090   1.718   0.193   2.992  0.4890 -0.7710  1.1366
  123SOPE   C2613091   1.535   0.191   3.097 -0.0312 -0.2583  0.0448
  123SOPE   H6R13092   1.522   0.300   3.078  3.5024 -0.0893 -2.2800
  123SOPE   H6S13093   1.438   0.136   3.090 -1.3808  1.9723  0.0201
  123SOPE   C2713094   1.596   0.161   3.231  0.2158  0.2881  0.5888
  123SOPE   H7R13095   1.610   0.050   3.233  0.1711  0.2868  2.1444
  123SOPE   H7S13096   1.690   0.218   3.246  1.4548 -0.7940 -2.2138
  123SOPE   C2813097   1.496   0.187   3.343  0.0337  0.3640 -1.1944
  123SOPE   H8R13098   1.476   0.296   3.349  2.2224  0.8683  5.0420
  123SOPE   H8S13099   1.405   0.124   3.330 -2.3089  2.2105  3.6052
  123SOPE   C2913100   1.550   0.141   3.471  0.5495 -0.6357 -1.1749
  123SOPE   H9113101   1.636   0.202   3.503  0.1107 -1.1843  1.2568
  123SOPE  C21013102   1.496   0.056   3.559  0.1212 -0.1436 -0.3521
  123SOPE  H10113103   1.544   0.045   3.657  1.2787  0.2459 -0.8564
  123SOPE  C21113104   1.368  -0.017   3.557  0.0006  0.1187  0.0922
  123SOPE  H11R13105   1.395  -0.124   3.543  3.4777  0.5081  2.5807
  123SOPE  H11S13106   1.296   0.011   3.477  3.9857  0.9676 -3.6056
  123SOPE  C21213107   1.303  -0.015   3.694  0.5915  0.4387  0.0724
  123SOPE  H12R13108   1.317   0.088   3.731  2.2270 -0.1200  1.1114
  123SOPE  H12S13109   1.346  -0.090   3.763 -1.4571 -0.4393  0.4772
  123SOPE  C21313110   1.151  -0.045   3.686 -0.0265 -0.2105  0.1764
  123SOPE  H13R13111   1.136  -0.148   3.647  1.1001  0.0544 -1.0244
  123SOPE  H13S13112   1.110   0.027   3.612  0.1324  1.6719  1.8059
  123SOPE  C21413113   1.077  -0.049   3.826  0.0682 -0.6925 -1.1183
  123SOPE  H14R13114   0.968  -0.049   3.801  0.1586  0.2591 -1.5498
  123SOPE  H14S13115   1.101   0.048   3.874  1.5599 -1.1943 -0.7991
  123SOPE  C21513116   1.112  -0.166   3.917 -0.1154 -0.0198  1.0472
  123SOPE  H15R13117   1.220  -0.165   3.942 -0.3809  1.2173  2.2844
  123SOPE  H15S13118   1.090  -0.260   3.863  1.8368 -0.2315  0.5696
  123SOPE  C21613119   1.030  -0.171   4.043 -0.1755  0.1303 -1.0831
  123SOPE  H16R13120   0.920  -0.160   4.040 -0.2036  1.1186  1.1937
  123SOPE  H16S13121   1.073  -0.097   4.115  1.2523 -0.4541 -1.2972
  123SOPE  C21713122   1.039  -0.306   4.107 -0.5029  0.5921 -1.1303
  123SOPE  H17R13123   1.144  -0.342   4.108 -0.8474 -0.5481  1.3486
  123SOPE  H17S13124   0.986  -0.382   4.047  1.0717 -0.3580 -1.3658
  123SOPE  C21813125   0.979  -0.313   4.255 -0.3169  0.5657  0.6252
  123SOPE  H18R13126   1.054  -0.249   4.306  2.9486 -0.6125 -2.2967
  123SOPE  H18S13127   0.983  -0.418   4.290  1.4200 -0.5104 -2.4268
  123SOPE  H18T13128   0.872  -0.283   4.250  0.0513  1.6864 -2.2411
  123SOPE   C3313129   1.708   0.723   2.814  0.4696 -0.1765  0.1398
  123SOPE   H3X13130   1.765   0.808   2.856  0.2879  1.0806 -2.0100
  123SOPE   H3Y13131   1.765   0.702   2.721  1.7103  2.5340  0.1981
  123SOPE   C3413132   1.697   0.611   2.920 -0.0097  0.3620 -0.0201
  123SOPE   H4X13133   1.789   0.548   2.915  0.1782  0.7508 -2.8031
  123SOPE   H4Y13134   1.613   0.547   2.886 -0.8697  2.0859 -1.2329
  123SOPE   C3513135   1.684   0.661   3.061 -0.6407 -0.9670 -0.2397
  123SOPE   H5X13136   1.586   0.712   3.068  0.3623  1.0149 -0.0198
  123SOPE   H5Y13137   1.769   0.730   3.081  0.0426 -1.2094 -2.1198
  123SOPE   C3613138   1.689   0.547   3.164 -0.2012 -0.4822 -0.3086
  123SOPE   H6X13139   1.780   0.485   3.149  0.1864  0.3934 -1.8094
  123SOPE   H6Y13140   1.615   0.466   3.158 -1.6880  0.6861  1.2701
  123SOPE   C3713141   1.683   0.610   3.310  0.7692  0.3403 -0.0650
  123SOPE   H7X13142   1.582   0.633   3.350  0.4249  0.9869 -1.2594
  123SOPE   H7Y13143   1.737   0.707   3.313 -0.4281  1.0643 -1.2391
  123SOPE   C3813144   1.767   0.518   3.400  0.1084  0.8975  0.0049
  123SOPE   H8X13145   1.869   0.492   3.365  0.6427  0.3595  1.8564
  123SOPE   H8Y13146   1.721   0.417   3.393  0.2712  0.8979 -1.1575
  123SOPE   C3913147   1.790   0.569   3.547  1.1956 -0.6822  0.3286
  123SOPE   H9X13148   1.826   0.674   3.538  0.9717 -0.7042 -0.9725
  123SOPE   H9Y13149   1.869   0.510   3.600 -0.4440 -2.1253  1.2872
  123SOPE  C31013150   1.653   0.574   3.615  0.1930 -0.0039  0.5863
  123SOPE  H10X13151   1.596   0.490   3.571 -0.4378 -0.8344  2.8318
  123SOPE  H10Y13152   1.610   0.675   3.603 -2.1060 -1.2118 -2.5674
  123SOPE  C31113153   1.668   0.534   3.766  0.1987  0.0126 -0.1743
  123SOPE  H11X13154   1.746   0.602   3.807 -2.2022  3.0284 -0.2180
  123SOPE  H11Y13155   1.700   0.429   3.785  2.0326  0.8170  1.6279
  123SOPE  C31213156   1.541   0.549   3.839 -0.5814  0.4435 -0.3641
  123SOPE  H12X13157   1.458   0.490   3.795 -1.3332  0.8036  0.5274
  123SOPE  H12Y13158   1.502   0.653   3.847  1.2273  1.0347  1.5349
  123SOPE  C31313159   1.559   0.500   3.993 -1.0954 -0.7416  0.0354
  123SOPE  H13X13160   1.618   0.587   4.031  0.7193 -1.3473 -1.2309
  123SOPE  H13Y13161   1.613   0.403   3.998  1.1544  0.2736 -2.2391
  123SOPE  C31413162   1.440   0.510   4.081 -0.2313  0.1311 -0.1761
  123SOPE  H14X13163   1.392   0.610   4.073 -0.5334  0.1233  1.2079
  123SOPE  H14Y13164   1.475   0.497   4.186 -3.7751 -0.7033  1.0200
  123SOPE  C31513165   1.346   0.385   4.062 -0.2989  0.0118  1.1648
  123SOPE  H15X13166   1.407   0.292   4.061  0.8354  0.7371  0.9923
  123SOPE  H15Y13167   1.296   0.380   3.963 -1.4215 -0.9378  1.7683
  123SOPE  C31613168   1.245   0.374   4.173 -0.5732 -0.4479 -0.5480
  123SOPE  H16X13169   1.191   0.471   4.170  0.2116  0.0628  1.0226
  123SOPE  H16Y13170   1.286   0.359   4.275 -0.0266 -1.0094 -0.8488
  123SOPE  C31713171   1.147   0.252   4.145 -0.6850 -0.2150 -0.2606
  123SOPE  H17X13172   1.198   0.155   4.161  0.2914  0.2450 -0.5083
  123SOPE  H17Y13173   1.095   0.244   4.047 -0.3770 -1.0604 -0.3618
  123SOPE  C31813174   1.018   0.256   4.230 -0.0015  0.0618 -0.2458
  123SOPE  H18X13175   0.957   0.345   4.202 -1.2436 -0.3603  1.0032
  123SOPE  H18Y13176   1.031   0.265   4.340  1.5344  2.6856 -0.5724
  123SOPE  H18Z13177   0.960   0.165   4.204  2.0420 -1.9374  1.7186
  124SOPE     N13178   3.107   3.818   1.991 -0.1560 -0.8019  0.2103
  124SOPE   HN113179   3.172   3.851   1.917 -1.9115 -1.3571 -1.6684
  124SOPE   HN213180   3.009   3.836   1.961  0.5711  1.4674 -1.0257
  124SOPE   HN313181   3.125   3.875   2.076 -1.5391  0.5979 -0.3757
  124SOPE   C1213182   3.133   3.669   2.017 -0.3696  0.0155  0.5124
  124SOPE  H12A13183   3.239   3.665   2.050  0.8444  0.3051 -2.9935
  124SOPE  H12B13184   3.121   3.616   1.920  1.1340  0.7564 -0.0996
  124SOPE   C1113185   3.039   3.606   2.115  0.3554 -1.0241 -0.1990
  124SOPE  H11A13186   2.938   3.617   2.071  0.3671  0.9132  0.1797
  124SOPE  H11B13187   3.030   3.671   2.204 -1.7868 -0.1755 -0.9807
  124SOPE     P13188   2.989   3.353   2.105  0.8144 -0.0962 -0.2094
  124SOPE   O1313189   3.065   3.234   2.129  0.4296  0.6451  0.2132
  124SOPE   O1413190   2.935   3.383   1.969 -0.5450 -0.0019 -0.4975
  124SOPE   O1213191   3.077   3.472   2.153  0.0788  0.5765 -0.4398
  124SOPE   O1113192   2.874   3.336   2.205  0.2148  0.0143  0.4783
  124SOPE    C113193   2.848   3.402   2.326 -0.1718  0.3531  0.2184
  124SOPE    HA13194   2.779   3.486   2.298 -0.7142  1.1338  3.5393
  124SOPE    HB13195   2.942   3.437   2.373 -0.3841  0.4297  0.5927
  124SOPE    C213196   2.768   3.305   2.420  0.0909 -0.2538 -0.0232
  124SOPE    HS13197   2.703   3.248   2.350  2.4166 -0.7023 -1.9544
  124SOPE   O2113198   2.693   3.382   2.516 -0.1340 -0.6761 -0.0240
  124SOPE   C2113199   2.567   3.410   2.481  0.0414  0.2547 -0.0965
  124SOPE   O2213200   2.518   3.383   2.374  0.0698 -0.1996 -0.0106
  124SOPE   C2213201   2.492   3.480   2.593  0.7800  0.0468 -0.3720
  124SOPE   H2R13202   2.383   3.478   2.572  0.7997  2.7057 -1.0678
  124SOPE   H2S13203   2.512   3.587   2.575 -1.2203  0.4780 -0.2174
  124SOPE    C313204   2.867   3.206   2.495  0.4403  0.5785 -0.5105
  124SOPE    HX13205   2.901   3.267   2.582 -0.8072  1.3442 -0.5415
  124SOPE    HY13206   2.954   3.185   2.429 -1.4946 -2.7485 -2.2508
  124SOPE   O3113207   2.811   3.077   2.534  0.3379  1.0000 -0.2985
  124SOPE   C3113208   2.896   3.009   2.614 -0.3158 -0.7904 -0.1864
  124SOPE   O3213209   3.008   3.045   2.650 -0.2651  0.0343  0.3071
  124SOPE   C3213210   2.826   2.883   2.656  0.2492 -0.2268 -0.2398
  124SOPE   H2X13211   2.900   2.809   2.617  1.1932  0.4689  0.1837
  124SOPE   H2Y13212   2.728   2.874   2.605 -0.3734  0.4159  0.8252
  124SOPE   C2313213   2.513   3.430   2.740  0.0802  0.3552 -0.3543
  124SOPE   H3R13214   2.622   3.422   2.758 -0.0444  0.0854  0.2950
  124SOPE   H3S13215   2.464   3.331   2.752  0.0744  0.2060 -1.4654
  124SOPE   C2413216   2.459   3.525   2.848  0.1339  0.0977  0.5041
  124SOPE   H4R13217   2.480   3.622   2.800  4.9416 -1.0368 -0.2449
  124SOPE   H4S13218   2.349   3.516   2.860  0.0537  2.4253  2.2429
  124SOPE   C2513219   2.524   3.526   2.993 -0.7090 -0.2010 -0.6590
  124SOPE   H5R13220   2.494   3.430   3.039 -2.7355 -1.0044 -3.3644
  124SOPE   H5S13221   2.633   3.521   2.974 -0.4815  1.2607  0.1018
  124SOPE   C2613222   2.486   3.655   3.066 -0.2644 -0.2796  0.3305
  124SOPE   H6R13223   2.563   3.683   3.141  0.0742 -1.7096  0.5337
  124SOPE   H6S13224   2.481   3.733   2.987  2.0953  0.6567  1.0321
  124SOPE   C2713225   2.348   3.642   3.133 -0.6365  0.1950 -0.4865
  124SOPE   H7R13226   2.279   3.624   3.047  0.2054  0.8154 -1.3006
  124SOPE   H7S13227   2.354   3.543   3.184 -0.5428 -0.1864 -1.2154
  124SOPE   C2813228   2.312   3.761   3.216 -0.3114 -0.1814  0.1153
  124SOPE   H8R13229   2.350   3.858   3.178 -1.4519  1.0334  1.9321
  124SOPE   H8S13230   2.202   3.776   3.221 -0.5779 -1.5814 -0.9983
  124SOPE   C2913231   2.378   3.744   3.353  1.0202  0.0070  0.3679
  124SOPE   H9113232   2.439   3.653   3.361  2.0075  0.4392 -1.4681
  124SOPE  C21013233   2.343   3.808   3.462 -0.1660 -0.4818 -0.0467
  124SOPE  H10113234   2.388   3.777   3.558 -2.3951 -2.4832  0.4427
  124SOPE  C21113235   2.265   3.934   3.467  0.2118  0.0891  0.1647
  124SOPE  H11R13236   2.225   3.963   3.367 -1.1783 -0.2424  0.6048
  124SOPE  H11S13237   2.325   4.023   3.494  0.2059  0.7437 -1.8327
  124SOPE  C21213238   2.142   3.923   3.566 -0.3648 -0.5743  0.4715
  124SOPE  H12R13239   2.176   3.908   3.670 -1.3123  0.4596  0.9570
  124SOPE  H12S13240   2.070   3.843   3.541  1.1281 -1.6442 -0.5853
  124SOPE  C21313241   2.065   4.056   3.571 -1.1467 -0.0713  0.6059
  124SOPE  H13R13242   2.019   4.064   3.470  1.5110 -2.5419 -0.9408
  124SOPE  H13S13243   2.138   4.139   3.587 -0.8868  0.0678 -1.1288
  124SOPE  C21413244   1.969   4.051   3.689  0.1934  0.2323 -0.0054
  124SOPE  H14R13245   2.039   4.067   3.774  1.9436  2.8112 -1.8080
  124SOPE  H14S13246   1.913   3.956   3.699  1.1434 -0.5145 -1.4268
  124SOPE  C21513247   1.858   4.159   3.688 -0.1180 -0.3148  0.6427
  124SOPE  H15R13248   1.818   4.169   3.585 -0.4346  1.0158  0.8714
  124SOPE  H15S13249   1.912   4.252   3.716  0.1008 -0.4918  0.8072
  124SOPE  C21613250   1.748   4.141   3.797  0.2680 -0.9299  0.5214
  124SOPE  H16R13251   1.686   4.049   3.785  0.7362 -0.9696 -2.0157
  124SOPE  H16S13252   1.680   4.227   3.785  1.9818  1.0176  3.4180
  124SOPE  C21713253   1.803   4.172   3.935 -0.4265  0.3554  0.0717
  124SOPE  H17R13254   1.843   4.275   3.931 -2.2392  1.1380  0.8963
  124SOPE  H17S13255   1.891   4.107   3.957  0.1424  1.8021  2.4327
  124SOPE  C21813256   1.701   4.158   4.049 -0.2277  0.5137  0.2523
  124SOPE  H18R13257   1.751   4.165   4.148  1.2258 -1.3391 -0.2976
  124SOPE  H18S13258   1.664   4.053   4.043  0.8965 -0.2131  3.5242
  124SOPE  H18T13259   1.616   4.229   4.047 -0.7759 -0.1607 -0.7274
  124SOPE   C3313260   2.797   2.894   2.807 -0.0149  0.8254  0.2836
  124SOPE   H3X13261   2.890   2.864   2.861  0.1915 -1.2524 -1.1059
  124SOPE   H3Y13262   2.723   2.813   2.825  0.2048  0.3090 -1.0077
  124SOPE   C3413263   2.732   3.024   2.861 -0.1979  0.2018 -0.0874
  124SOPE   H4X13264   2.640   3.050   2.803 -0.2785 -2.4670 -1.3065
  124SOPE   H4Y13265   2.808   3.099   2.833  0.6627  0.4818  2.6644
  124SOPE   C3513266   2.732   3.036   3.016 -0.4662  0.0093 -0.1085
  124SOPE   H5X13267   2.837   3.014   3.048 -0.2433  0.9702 -0.1399
  124SOPE   H5Y13268   2.662   2.967   3.067  1.2760 -0.4391  1.8580
  124SOPE   C3613269   2.675   3.166   3.063 -0.4214 -0.2422 -0.7472
  124SOPE   H6X13270   2.577   3.183   3.014 -0.8834  1.9301  0.7765
  124SOPE   H6Y13271   2.736   3.257   3.042 -2.7080  1.4922 -0.3594
  124SOPE   C3713272   2.648   3.172   3.219 -0.6236  0.0406  0.2584
  124SOPE   H7X13273   2.748   3.145   3.259 -0.8992 -2.7336 -0.6927
  124SOPE   H7Y13274   2.567   3.097   3.237  0.0965 -0.5923  0.9123
  124SOPE   C3813275   2.603   3.304   3.272  0.7891 -0.1305 -0.0601
  124SOPE   H8X13276   2.502   3.328   3.231  1.5558  3.1577 -0.3380
  124SOPE   H8Y13277   2.667   3.386   3.233  2.3078 -0.2871  1.9628
  124SOPE   C3913278   2.625   3.318   3.425 -0.2629  0.3607  0.6832
  124SOPE   H9X13279   2.601   3.420   3.463 -1.7562 -0.2520  1.4782
  124SOPE   H9Y13280   2.732   3.298   3.444 -0.5412 -3.0874 -0.6320
  124SOPE  C31013281   2.530   3.222   3.506 -0.5208 -0.5999  0.0906
  124SOPE  H10X13282   2.570   3.213   3.609 -0.8184  1.7118  0.4555
  124SOPE  H10Y13283   2.527   3.126   3.451 -0.6849 -0.4182 -0.2209
  124SOPE  C31113284   2.383   3.270   3.510 -0.0581  0.2409  0.5859
  124SOPE  H11X13285   2.336   3.266   3.409  0.3945  0.9671  0.3384
  124SOPE  H11Y13286   2.377   3.377   3.539 -3.1870 -0.7388  4.5390
  124SOPE  C31213287   2.307   3.188   3.613 -0.6419 -0.3610 -0.7160
  124SOPE  H12X13288   2.350   3.086   3.612  3.9208  1.3266 -1.7028
  124SOPE  H12Y13289   2.200   3.183   3.582 -0.7528  0.0706 -0.4224
  124SOPE  C31313290   2.296   3.257   3.745 -0.7508 -0.5388  0.0553
  124SOPE  H13X13291   2.282   3.367   3.739  0.4029 -0.3510  0.4831
  124SOPE  H13Y13292   2.397   3.250   3.792 -0.1254  0.8133 -1.0368
  124SOPE  C31413293   2.195   3.209   3.842  0.9260  0.0846 -0.4197
  124SOPE  H14X13294   2.211   3.101   3.860  1.5352 -0.0101 -1.4054
  124SOPE  H14Y13295   2.102   3.228   3.785 -0.1042  0.8370  1.4520
  124SOPE  C31513296   2.191   3.280   3.977 -0.2246  0.0379  0.0179
  124SOPE  H15X13297   2.152   3.384   3.974 -1.5530 -0.4085  0.9651
  124SOPE  H15Y13298   2.293   3.279   4.021 -0.3304 -0.9402  0.2603
  124SOPE  C31613299   2.120   3.208   4.093  0.2313  0.0644 -0.2991
  124SOPE  H16X13300   2.136   3.269   4.185  0.5163 -0.1837 -0.1815
  124SOPE  H16Y13301   2.163   3.106   4.103 -3.0814 -1.2707  2.3763
  124SOPE  C31713302   1.968   3.199   4.075 -0.3429 -0.2112 -0.0356
  124SOPE  H17X13303   1.952   3.135   3.986 -0.2874  0.8747 -0.8431
  124SOPE  H17Y13304   1.924   3.299   4.054  1.1508  0.4042 -0.3336
  124SOPE  C31813305   1.900   3.127   4.197  0.3743  0.0497 -0.3960
  124SOPE  H18X13306   1.799   3.088   4.177  0.5772  0.4740 -2.5066
  124SOPE  H18Y13307   1.896   3.203   4.278  0.3515  0.8783 -1.1549
  124SOPE  H18Z13308   1.967   3.045   4.231  0.4266  0.0220 -0.5637
  125SOPE     N13309   4.781   3.005   2.090  0.0705 -0.8249 -0.2598
  125SOPE   HN113310   4.759   2.931   2.020 -0.5295 -1.7336  0.8524
  125SOPE   HN213311   4.819   2.944   2.166  1.3833  1.5129  1.0847
  125SOPE   HN313312   4.687   3.043   2.112  0.1724  0.3213 -1.6575
  125SOPE   C1213313   4.862   3.110   2.033 -0.0322  0.3970 -0.4965
  125SOPE  H12A13314   4.817   3.139   1.935 -1.0832  1.0312  0.1441
  125SOPE  H12B13315   4.969   3.082   2.021 -0.6616 -2.9995  0.7100
  125SOPE   C1113316   4.849   3.240   2.125  0.0785  0.5012  0.4322
  125SOPE  H11A13317   4.952   3.280   2.120 -0.0576  0.7020 -1.0239
  125SOPE  H11B13318   4.821   3.218   2.230 -2.5549  0.0308 -0.3001
  125SOPE     P13319   4.797   3.436   1.956 -0.0322 -0.6365  0.1443
  125SOPE   O1313320   4.686   3.541   1.950  0.0870  0.2058  0.1225
  125SOPE   O1413321   4.836   3.359   1.838  0.1999 -0.1979  0.3366
  125SOPE   O1213322   4.754   3.331   2.067  0.1145  0.0969  0.8437
  125SOPE   O1113323   4.929   3.510   2.004  0.0306 -0.3448 -0.2185
  125SOPE    C113324   4.912   3.598   2.119 -0.4998 -0.7166 -0.1095
  125SOPE    HA13325   4.825   3.577   2.186  1.1838 -1.0641  2.0661
  125SOPE    HB13326   4.907   3.699   2.073  3.4461 -1.0051 -1.4910
  125SOPE    C213327   5.021   3.594   2.225  0.1038  0.2273 -0.5307
  125SOPE    HS13328   5.121   3.601   2.179  0.9510 -0.7382  1.0781
  125SOPE   O2113329   4.998   3.473   2.295 -0.2724 -0.5880 -0.8510
  125SOPE   C2113330   5.110   3.450   2.369 -0.6484  0.9573  0.2019
  125SOPE   O2213331   5.217   3.502   2.351  0.5189  0.8282 -0.0252
  125SOPE   C2213332   5.073   3.325   2.461  0.4661  0.2845  0.1420
  125SOPE   H2R13333   5.034   3.247   2.392  0.4876  1.2523 -0.9979
  125SOPE   H2S13334   4.989   3.362   2.524 -0.2580 -1.4771  0.2792
  125SOPE    C313335   5.006   3.721   2.317 -0.1021 -0.1172 -0.1655
  125SOPE    HX13336   5.024   3.813   2.258 -0.6439  0.5550  0.6992
  125SOPE    HY13337   5.089   3.734   2.390 -0.5285  1.5785  0.0521
  125SOPE   O3113338   4.867   3.724   2.376 -0.3794 -0.3559 -0.1725
  125SOPE   C3113339   4.874   3.670   2.499  0.2038  0.7713  0.1621
  125SOPE   O3213340   4.971   3.619   2.555  0.4249 -0.6943  0.6066
  125SOPE   C3213341   4.729   3.697   2.557 -0.0570  0.6579  0.2764
  125SOPE   H2X13342   4.646   3.659   2.494 -3.4628 -0.4378  4.8406
  125SOPE   H2Y13343   4.715   3.806   2.544 -0.9249  0.5024 -0.2115
  125SOPE   C2313344   5.187   3.254   2.539 -0.9069  0.1477  0.0438
  125SOPE   H3R13345   5.273   3.233   2.471  0.0675 -0.8154  1.5110
  125SOPE   H3S13346   5.146   3.153   2.564  0.2974 -0.7636 -1.4502
  125SOPE   C2413347   5.244   3.324   2.660 -0.0439 -0.2853 -0.8883
  125SOPE   H4R13348   5.332   3.266   2.695  0.4952  0.6197 -0.7130
  125SOPE   H4S13349   5.278   3.425   2.627  1.7538 -0.6841 -0.3940
  125SOPE   C2513350   5.147   3.340   2.784 -0.1183 -0.0797  0.4241
  125SOPE   H5R13351   5.049   3.387   2.760 -0.3748  0.3295  2.1511
  125SOPE   H5S13352   5.126   3.236   2.816  0.3868 -0.2760  0.1425
  125SOPE   C2613353   5.210   3.424   2.895  0.8833 -0.2483  0.7981
  125SOPE   H6R13354   5.313   3.384   2.908 -0.2697 -3.5367  0.6788
  125SOPE   H6S13355   5.212   3.524   2.847  0.6695 -1.4596 -1.9546
  125SOPE   C2713356   5.142   3.441   3.025  0.4383 -0.7113 -0.4614
  125SOPE   H7R13357   5.187   3.521   3.089 -1.4214  1.1370 -1.3392
  125SOPE   H7S13358   5.041   3.476   2.996 -0.4763 -1.6342  1.4140
  125SOPE   C2813359   5.143   3.318   3.117 -0.0970  0.4087 -0.6266
  125SOPE   H8R13360   5.100   3.233   3.060  0.7131 -0.0758 -0.5341
  125SOPE   H8S13361   5.247   3.289   3.141 -0.7158 -1.4160  0.0196
  125SOPE   C2913362   5.059   3.357   3.238 -0.5744  0.7269  0.1283
  125SOPE   H9113363   4.951   3.333   3.234 -0.0060 -1.9662 -1.2899
  125SOPE  C21013364   5.108   3.399   3.358  0.1013  0.4325 -0.2624
  125SOPE  H10113365   5.038   3.404   3.442  1.0598 -1.8934  0.7347
  125SOPE  C21113366   5.249   3.427   3.395 -0.7923 -0.0402 -0.6749
  125SOPE  H11R13367   5.310   3.385   3.313  0.4097  1.0511 -0.3866
  125SOPE  H11S13368   5.271   3.366   3.486  1.1915  2.3758  0.6044
  125SOPE  C21213369   5.288   3.575   3.403  0.4176  0.2423 -0.3247
  125SOPE  H12R13370   5.208   3.636   3.449 -1.4606  0.2966 -3.3973
  125SOPE  H12S13371   5.311   3.606   3.298  2.2730  2.4312  0.6424
  125SOPE  C21313372   5.417   3.599   3.489 -0.1396 -0.5028  0.1101
  125SOPE  H13R13373   5.451   3.705   3.481 -2.7936  0.4565  0.4196
  125SOPE  H13S13374   5.500   3.536   3.450  0.5578 -1.0594  2.3916
  125SOPE  C21413375   5.402   3.557   3.633  0.3285  0.3270 -0.7460
  125SOPE  H14R13376   5.375   3.450   3.644 -2.2259  0.8121 -1.5505
  125SOPE  H14S13377   5.314   3.614   3.672 -0.1977 -0.0895 -1.3093
  125SOPE  C21513378   5.519   3.590   3.728 -0.7360  0.1356  0.3386
  125SOPE  H15R13379   5.531   3.700   3.737  0.9334 -0.1594  2.5630
  125SOPE  H15S13380   5.617   3.555   3.689 -0.9039  1.7638 -1.6877
  125SOPE  C21613381   5.488   3.546   3.871  0.0590  0.4325  0.5289
  125SOPE  H16R13382   5.487   3.435   3.886  0.3394  0.1475 -1.3854
  125SOPE  H16S13383   5.381   3.571   3.883 -0.2559 -1.1204  1.2189
  125SOPE  C21713384   5.562   3.623   3.976  0.0228  0.5244 -0.0790
  125SOPE  H17R13385   5.513   3.605   4.074  1.7916 -1.1524  0.5622
  125SOPE  H17S13386   5.540   3.726   3.940  2.6207  1.0167 -0.4496
  125SOPE  C21813387   5.715   3.606   3.994  0.4446 -0.9624 -0.8583
  125SOPE  H18R13388   5.750   3.609   3.889  0.3211 -0.0138 -0.8825
  125SOPE  H18S13389   5.737   3.510   4.044 -2.4507 -0.6108  1.4168
  125SOPE  H18T13390   5.762   3.686   4.055 -0.3550 -2.6822  2.1993
  125SOPE   C3313391   4.699   3.652   2.701  0.5949  0.4486 -0.0223
  125SOPE   H3X13392   4.705   3.542   2.714 -0.7159  0.6377  3.0935
  125SOPE   H3Y13393   4.600   3.685   2.739  0.3350  0.4617 -0.6992
  125SOPE   C3413394   4.788   3.727   2.802  0.2496  0.3748  0.2694
  125SOPE   H4X13395   4.770   3.837   2.808 -0.1355  0.2599  1.4831
  125SOPE   H4Y13396   4.895   3.707   2.780  0.0490  0.0300 -0.4122
  125SOPE   C3513397   4.766   3.680   2.950 -0.7065 -0.5174 -0.5374
  125SOPE   H5X13398   4.766   3.570   2.963  3.4319 -0.5655  0.6567
  125SOPE   H5Y13399   4.666   3.719   2.979  0.0238  0.9991  0.0695
  125SOPE   C3613400   4.880   3.737   3.041  0.1964  0.1452 -0.1240
  125SOPE   H6X13401   4.878   3.848   3.028 -2.9281  0.2136  0.3242
  125SOPE   H6Y13402   4.983   3.704   3.015 -0.3930 -1.5706 -0.3372
  125SOPE   C3713403   4.844   3.700   3.181 -0.1212 -1.0277 -0.1502
  125SOPE   H7X13404   4.937   3.724   3.239  0.0772  1.2034 -1.2869
  125SOPE   H7Y13405   4.817   3.593   3.194 -0.6168 -1.0243 -1.1154
  125SOPE   C3813406   4.732   3.779   3.254 -0.2082 -0.0112 -0.3536
  125SOPE   H8X13407   4.651   3.772   3.177  0.7077  1.5345 -1.5338
  125SOPE   H8Y13408   4.756   3.888   3.261 -2.2305  0.4279  0.7958
  125SOPE   C3913409   4.682   3.720   3.386 -0.3676 -0.0722 -0.9265
  125SOPE   H9X13410   4.758   3.733   3.465  0.7916 -2.6214 -1.5194
  125SOPE   H9Y13411   4.668   3.611   3.369  1.0024 -0.4279  0.1176
  125SOPE  C31013412   4.539   3.774   3.412  0.2298  0.7469  0.4532
  125SOPE  H10X13413   4.471   3.734   3.333  2.4038  0.4287 -1.3616
  125SOPE  H10Y13414   4.537   3.885   3.410  1.4200  0.7820  0.3492
  125SOPE  C31113415   4.484   3.728   3.547  0.2005 -0.4039  0.4928
  125SOPE  H11X13416   4.472   3.618   3.541 -1.5070 -0.3463  1.8482
  125SOPE  H11Y13417   4.382   3.772   3.553  0.4055  0.3360 -1.1456
  125SOPE  C31213418   4.562   3.768   3.667 -0.1518 -0.1808 -0.2658
  125SOPE  H12X13419   4.575   3.878   3.663  0.1671 -0.1659  1.0136
  125SOPE  H12Y13420   4.662   3.720   3.665 -0.5818 -1.0945 -0.3104
  125SOPE  C31313421   4.514   3.728   3.805  0.0985 -0.0152 -0.1286
  125SOPE  H13X13422   4.587   3.765   3.880 -2.4149  1.4656  1.7507
  125SOPE  H13Y13423   4.512   3.618   3.816 -0.9906  0.2113  3.1972
  125SOPE  C31413424   4.381   3.777   3.846  0.2500 -0.5841  1.0426
  125SOPE  H14X13425   4.310   3.716   3.786 -0.9883 -1.0894  2.9516
  125SOPE  H14Y13426   4.356   3.880   3.810 -1.3600  0.0597  3.7384
  125SOPE  C31513427   4.349   3.774   3.996 -0.3453 -0.4062 -0.0004
  125SOPE  H15X13428   4.419   3.846   4.043 -1.8521  0.3608  1.1588
  125SOPE  H15Y13429   4.372   3.672   4.035  1.2304  0.4701  1.5100
  125SOPE  C31613430   4.207   3.825   4.019 -0.2572  0.5297  0.5621
  125SOPE  H16X13431   4.131   3.761   3.969  1.1446 -0.3129 -0.5630
  125SOPE  H16Y13432   4.199   3.922   3.966  1.3718  0.2289 -0.3100
  125SOPE  C31713433   4.158   3.833   4.168  0.0255 -1.1009 -0.1772
  125SOPE  H17X13434   4.212   3.916   4.219  0.3608 -0.9309 -0.8000
  125SOPE  H17Y13435   4.183   3.737   4.219 -3.9374 -1.8135  0.7370
  125SOPE  C31813436   4.006   3.852   4.187  0.3028 -0.5774 -0.3748
  125SOPE  H18X13437   3.980   3.875   4.293  1.3318 -0.0203 -0.2298
  125SOPE  H18Y13438   3.954   3.756   4.168 -1.0811  0.5686 -3.0082
  125SOPE  H18Z13439   3.954   3.928   4.124  2.8565  2.5445  0.9872
  126SOPE     N13440   6.128   4.097   2.111 -0.4982  0.4616 -0.1242
  126SOPE   HN113441   6.115   4.156   2.027  1.9273  2.4385  0.7365
  126SOPE   HN213442   6.228   4.108   2.140 -0.6689  0.0577  0.6624
  126SOPE   HN313443   6.113   3.996   2.092  2.4901  0.1431 -1.4138
  126SOPE   C1213444   6.037   4.132   2.225  0.5855  0.0122 -1.0279
  126SOPE  H12A13445   6.024   4.038   2.283 -0.7117  1.3522  0.9804
  126SOPE  H12B13446   5.940   4.149   2.174 -0.1183 -0.6139  0.0449
  126SOPE   C1113447   6.088   4.241   2.317 -0.9003 -0.3758  0.0933
  126SOPE  H11A13448   6.192   4.215   2.346 -0.5946  1.4387  0.7603
  126SOPE  H11B13449   6.025   4.257   2.407 -2.9428 -0.7600 -1.1969
  126SOPE     P13450   6.003   4.485   2.243 -0.1020 -0.2756  0.0878
  126SOPE   O1313451   5.860   4.475   2.200  0.0556  0.5624  0.0007
  126SOPE   O1413452   6.081   4.595   2.181  0.1225  0.3425 -0.6006
  126SOPE   O1213453   6.084   4.353   2.225 -0.4622  0.9936  0.2006
  126SOPE   O1113454   6.004   4.510   2.406  0.3041  0.1489  0.1770
  126SOPE    C113455   6.119   4.553   2.472 -0.4743  0.0653  0.0884
  126SOPE    HA13456   6.140   4.657   2.438  1.0376  0.4264  1.9829
  126SOPE    HB13457   6.213   4.502   2.443 -0.2516  0.5670 -0.0739
  126SOPE    C213458   6.098   4.563   2.626  0.1975  0.2802 -0.5795
  126SOPE    HS13459   6.015   4.630   2.657 -0.5508 -0.6586 -0.4683
  126SOPE   O2113460   6.225   4.614   2.686 -0.2024 -0.2611 -0.1750
  126SOPE   C2113461   6.231   4.747   2.694 -0.0920  1.1708 -0.3491
  126SOPE   O2213462   6.148   4.824   2.658 -0.2271 -0.3201 -0.2790
  126SOPE   C2213463   6.369   4.780   2.761 -0.0201  0.3971 -0.3174
  126SOPE   H2R13464   6.453   4.713   2.732 -0.0853 -0.5398  1.5140
  126SOPE   H2S13465   6.338   4.767   2.867  2.2483  1.5572  0.5569
  126SOPE    C313466   6.086   4.429   2.698  0.0096 -0.1131  0.0748
  126SOPE    HX13467   6.172   4.360   2.681 -0.3015 -1.1454  2.2648
  126SOPE    HY13468   6.001   4.382   2.645 -0.4283  1.7877 -1.0103
  126SOPE   O3113469   6.073   4.440   2.839  0.1117 -0.4833 -0.1557
  126SOPE   C3113470   5.997   4.348   2.897  0.1458  0.1468  0.0064
  126SOPE   O3213471   5.940   4.262   2.836 -0.1418  0.3649  0.0278
  126SOPE   C3213472   5.978   4.380   3.048  0.0087  0.7972 -0.5700
  126SOPE   H2X13473   5.971   4.490   3.060  1.3821  0.7925  0.5360
  126SOPE   H2Y13474   6.071   4.353   3.103  0.5426  2.2819 -0.6913
  126SOPE   C2313475   6.406   4.930   2.755 -0.3027 -0.2330  0.4749
  126SOPE   H3R13476   6.330   5.003   2.791  1.8122  2.1658  0.3098
  126SOPE   H3S13477   6.408   4.954   2.647 -0.0683 -0.7832  0.3527
  126SOPE   C2413478   6.542   4.943   2.816 -0.4521 -0.4411 -0.0709
  126SOPE   H4R13479   6.551   4.902   2.919  0.7920 -2.3486 -0.8762
  126SOPE   H4S13480   6.611   4.884   2.752  2.6598  0.8718  1.8535
  126SOPE   C2513481   6.592   5.088   2.808  0.3185 -0.5378  0.0648
  126SOPE   H5R13482   6.700   5.100   2.827  0.0044 -1.7091  3.0016
  126SOPE   H5S13483   6.566   5.118   2.704  2.1970 -0.4883 -0.4279
  126SOPE   C2613484   6.532   5.178   2.920 -0.8582 -0.6070 -0.3874
  126SOPE   H6R13485   6.559   5.280   2.887 -0.6680  0.0628  1.6862
  126SOPE   H6S13486   6.421   5.169   2.926 -0.9434  1.1063  2.5481
  126SOPE   C2713487   6.584   5.153   3.064  0.5568 -0.1717 -0.3328
  126SOPE   H7R13488   6.575   5.045   3.087 -0.0291 -0.0142  0.1678
  126SOPE   H7S13489   6.693   5.177   3.068  0.4215  0.9054 -2.1948
  126SOPE   C2813490   6.513   5.234   3.169 -0.1738 -0.4358  0.6281
  126SOPE   H8R13491   6.406   5.208   3.153 -0.0579 -0.8545  0.5070
  126SOPE   H8S13492   6.529   5.195   3.272 -3.8253 -1.7790  0.8392
  126SOPE   C2913493   6.530   5.381   3.139  0.2897  0.5302  0.2619
  126SOPE   H9113494   6.512   5.403   3.033 -0.9911 -1.6179 -0.0376
  126SOPE  C21013495   6.585   5.469   3.220 -0.0136 -0.0270 -0.4477
  126SOPE  H10113496   6.599   5.575   3.197  0.7842  0.1032  0.5768
  126SOPE  C21113497   6.622   5.438   3.360 -0.5567  1.3066  0.0249
  126SOPE  H11R13498   6.710   5.501   3.384  0.8437 -0.6569  0.2338
  126SOPE  H11S13499   6.653   5.332   3.373  0.1810  1.7188  1.9855
  126SOPE  C21213500   6.515   5.477   3.460  0.6967  0.0189 -0.5119
  126SOPE  H12R13501   6.428   5.408   3.452  1.5164 -0.8932 -2.1589
  126SOPE  H12S13502   6.477   5.579   3.434  0.0471 -0.1534 -0.2642
  126SOPE  C21313503   6.569   5.475   3.599  0.0747 -0.3744  0.3021
  126SOPE  H13R13504   6.673   5.514   3.594 -0.0133 -0.0917  0.6188
  126SOPE  H13S13505   6.585   5.367   3.618  1.5274 -0.4362 -1.1193
  126SOPE  C21413506   6.491   5.534   3.717 -0.2075 -0.0812 -0.6616
  126SOPE  H14R13507   6.397   5.475   3.716  0.2972 -0.9378  0.1365
  126SOPE  H14S13508   6.481   5.645   3.711  2.6582  0.4700  1.9928
  126SOPE  C21513509   6.556   5.507   3.859 -0.6498 -0.4764 -0.4388
  126SOPE  H15R13510   6.584   5.400   3.868  1.6205  0.2010  1.4942
  126SOPE  H15S13511   6.480   5.530   3.937 -0.7267  0.7872 -0.8669
  126SOPE  C21613512   6.682   5.593   3.883  0.3877  0.2782  0.1554
  126SOPE  H16R13513   6.663   5.701   3.867  0.9673  0.1790 -1.4153
  126SOPE  H16S13514   6.750   5.552   3.805 -0.0920 -2.3723  1.0133
  126SOPE  C21713515   6.747   5.566   4.019  0.0387 -0.6126  1.0098
  126SOPE  H17R13516   6.734   5.463   4.057 -1.0723  0.4714  3.8367
  126SOPE  H17S13517   6.692   5.630   4.091  0.6555 -0.9039  1.7473
  126SOPE  C21813518   6.900   5.606   4.013  0.4273 -0.1774  0.6927
  126SOPE  H18R13519   6.921   5.692   3.947  3.5717 -2.3433 -1.3772
  126SOPE  H18S13520   6.968   5.521   3.991  0.3968  0.2500 -1.2171
  126SOPE  H18T13521   6.938   5.644   4.110 -1.2168 -0.6681  1.5835
  126SOPE   C3313522   5.850   4.317   3.108  0.3677 -0.3442  0.2161
  126SOPE   H3X13523   5.888   4.214   3.123  1.9771 -0.1286 -1.8756
  126SOPE   H3Y13524   5.768   4.300   3.035 -0.6958  0.4385  1.1948
  126SOPE   C3413525   5.793   4.388   3.236  0.6236  0.9051  0.2124
  126SOPE   H4X13526   5.712   4.323   3.276  1.1000  1.1779  1.6971
  126SOPE   H4Y13527   5.748   4.484   3.203  0.2104  0.5916 -0.1553
  126SOPE   C3513528   5.910   4.417   3.332 -0.2199 -0.1382  0.2487
  126SOPE   H5X13529   5.969   4.503   3.294 -2.7607 -0.0259 -4.1187
  126SOPE   H5Y13530   5.966   4.321   3.331 -2.7849 -1.7399 -0.8550
  126SOPE   C3613531   5.870   4.442   3.478 -0.1563  0.4210 -0.0735
  126SOPE   H6X13532   5.960   4.460   3.540  0.6782 -3.3980  0.0650
  126SOPE   H6Y13533   5.824   4.352   3.525  0.0957  0.2141 -0.2178
  126SOPE   C3713534   5.777   4.571   3.497 -0.4676  0.6524 -0.2961
  126SOPE   H7X13535   5.675   4.541   3.465 -0.1823 -0.8595  0.1362
  126SOPE   H7Y13536   5.815   4.658   3.439  0.7263 -0.2845 -0.9493
  126SOPE   C3813537   5.763   4.626   3.641 -0.1561  0.4284  0.7028
  126SOPE   H8X13538   5.745   4.538   3.706 -0.2750  0.5076  0.7766
  126SOPE   H8Y13539   5.668   4.683   3.644 -0.3576  0.4211 -2.4449
  126SOPE   C3913540   5.879   4.709   3.693  0.9341 -0.0078 -0.4658
  126SOPE   H9X13541   5.835   4.807   3.720 -0.6879 -0.5194 -1.1140
  126SOPE   H9Y13542   5.945   4.729   3.607 -0.3828 -0.4289 -1.6136
  126SOPE  C31013543   5.946   4.641   3.810 -0.3608  0.0322 -0.0825
  126SOPE  H10X13544   6.047   4.677   3.838  0.7174 -1.4807 -1.7965
  126SOPE  H10Y13545   5.967   4.538   3.772  1.4088  0.2720  0.1638
  126SOPE  C31113546   5.844   4.624   3.929 -1.4350 -0.3386  0.2341
  126SOPE  H11X13547   5.759   4.555   3.906 -1.2772 -0.4351 -0.0696
  126SOPE  H11Y13548   5.799   4.725   3.939 -0.9571 -0.0174 -0.7237
  126SOPE  C31213549   5.915   4.587   4.062 -0.0848  0.2586 -0.5004
  126SOPE  H12X13550   5.982   4.673   4.087 -2.1594  1.9085 -0.3717
  126SOPE  H12Y13551   5.991   4.510   4.040 -0.4371 -0.9361  2.1127
  126SOPE  C31313552   5.824   4.571   4.185  0.0923  0.6415  0.1100
  126SOPE  H13X13553   5.731   4.526   4.145  0.1737  1.8616 -1.5446
  126SOPE  H13Y13554   5.790   4.672   4.217 -0.4280  0.0770  1.4132
  126SOPE  C31413555   5.891   4.508   4.303  0.1884  0.7681  0.2234
  126SOPE  H14X13556   5.959   4.586   4.343  0.4087  0.6226  0.1342
  126SOPE  H14Y13557   5.961   4.430   4.266  1.3755  0.0703  3.6363
  126SOPE  C31513558   5.775   4.455   4.394 -0.3812 -0.3587 -0.3029
  126SOPE  H15X13559   5.702   4.401   4.330 -1.6386  0.3781  0.4707
  126SOPE  H15Y13560   5.719   4.544   4.428 -1.3787 -0.7146 -0.9645
  126SOPE  C31613561   5.818   4.375   4.514 -0.3516 -0.5509  0.5937
  126SOPE  H16X13562   5.889   4.293   4.489 -0.6366 -0.6624  0.1376
  126SOPE  H16Y13563   5.725   4.338   4.562 -0.3061  2.4968  3.3181
  126SOPE  C31713564   5.877   4.462   4.627  0.8417  0.1915  1.1426
  126SOPE  H17X13565   5.812   4.551   4.615 -1.0645 -1.1593  1.0538
  126SOPE  H17Y13566   5.984   4.486   4.608  1.0957 -0.0830  2.1913
  126SOPE  C31813567   5.842   4.414   4.769 -0.5015  0.2948  0.1554
  126SOPE  H18X13568   5.877   4.311   4.793 -0.4622  0.6685  1.8155
  126SOPE  H18Y13569   5.731   4.406   4.773 -0.6509 -1.4447 -3.5428
  126SOPE  H18Z13570   5.885   4.480   4.848 -0.1298 -0.9335  1.0089
  127SOPE     N13571   1.041   6.108   2.243  0.7854 -0.3110  0.4588
  127SOPE   HN113572   1.004   6.152   2.156 -1.8222 -1.1404  1.0636
  127SOPE   HN213573   1.068   6.173   2.320  2.6306 -1.6137  0.9745
  127SOPE   HN313574   1.116   6.038   2.231  0.1804 -1.2763  2.0908
  127SOPE   C1213575   0.918   6.029   2.286 -0.5125 -0.7115  0.0794
  127SOPE  H12A13576   0.866   5.995   2.194 -1.0182  1.3481 -0.4417
  127SOPE  H12B13577   0.843   6.096   2.333  0.0518  0.9578 -1.2872
  127SOPE   C1113578   0.956   5.900   2.368  0.1514  0.9510 -0.1483
  127SOPE  H11A13579   0.857   5.851   2.383  0.9808 -1.7815 -2.5930
  127SOPE  H11B13580   0.992   5.927   2.470 -1.3481  1.3985  0.2810
  127SOPE     P13581   1.201   5.804   2.309  0.0208 -0.2735  0.3987
  127SOPE   O1313582   1.253   5.922   2.228  0.8705 -0.5326 -0.2136
  127SOPE   O1413583   1.254   5.667   2.282 -0.3215  0.2401 -0.5550
  127SOPE   O1213584   1.039   5.811   2.295 -0.5730  0.7188  0.4894
  127SOPE   O1113585   1.215   5.831   2.459  0.4434  0.2514 -0.3792
  127SOPE    C113586   1.203   5.724   2.556  0.0841 -0.2323  0.4363
  127SOPE    HA13587   1.300   5.671   2.569 -0.8955 -2.1002  0.4876
  127SOPE    HB13588   1.122   5.658   2.517 -1.6943  1.2038  1.5490
  127SOPE    C213589   1.170   5.774   2.703  0.4183  0.9372  0.9141
  127SOPE    HS13590   1.062   5.798   2.703 -0.6550 -3.2315  0.3552
  127SOPE   O2113591   1.258   5.873   2.759 -0.3868 -0.3987  0.3344
  127SOPE   C2113592   1.227   5.996   2.725 -0.5486  0.4242 -0.1324
  127SOPE   O2213593   1.136   6.039   2.654  0.5376  0.0494 -0.7620
  127SOPE   C2213594   1.342   6.088   2.765 -0.0017  0.2399 -0.0827
  127SOPE   H2R13595   1.381   6.132   2.670  2.4772 -2.7103 -0.6044
  127SOPE   H2S13596   1.422   6.026   2.810  1.1469  0.8428 -1.2138
  127SOPE    C313597   1.191   5.646   2.789  0.6375 -0.3224  0.5218
  127SOPE    HX13598   1.300   5.643   2.808  0.8920 -2.8312 -0.9208
  127SOPE    HY13599   1.163   5.554   2.735  0.0444 -0.7788  1.5749
  127SOPE   O3113600   1.131   5.656   2.919 -0.1916  0.3110  0.0307
  127SOPE   C3113601   0.999   5.610   2.911  0.3157 -0.6930 -0.6212
  127SOPE   O3213602   0.936   5.596   2.811  0.2097 -0.3035 -0.1276
  127SOPE   C3213603   0.952   5.578   3.050 -0.4009  0.0929 -0.2768
  127SOPE   H2X13604   0.847   5.544   3.038 -0.4343  0.0040  0.2464
  127SOPE   H2Y13605   0.948   5.676   3.102  1.6171  0.0547  0.0090
  127SOPE   C2313606   1.296   6.195   2.867  0.0250  0.2608 -0.1624
  127SOPE   H3R13607   1.213   6.258   2.830  0.9113  2.4530  1.3767
  127SOPE   H3S13608   1.384   6.259   2.892  1.4595 -2.0750  1.1187
  127SOPE   C2413609   1.257   6.128   2.997 -0.0373 -0.0004  0.7157
  127SOPE   H4R13610   1.178   6.050   2.984 -1.7519  1.6086  1.1391
  127SOPE   H4S13611   1.347   6.073   3.031  0.3317  0.1632  0.0289
  127SOPE   C2513612   1.237   6.220   3.112  0.4550 -0.7716 -0.5894
  127SOPE   H5R13613   1.313   6.299   3.129 -1.3414  0.7864  0.7236
  127SOPE   H5S13614   1.144   6.279   3.092 -0.4538 -1.4792  1.3122
  127SOPE   C2613615   1.214   6.160   3.250 -0.5688 -0.1671  0.6244
  127SOPE   H6R13616   1.130   6.088   3.237 -1.0832  0.6913 -1.0948
  127SOPE   H6S13617   1.309   6.109   3.274 -1.0953  0.0803  3.6009
  127SOPE   C2713618   1.180   6.261   3.356 -0.0371 -0.9225 -0.4074
  127SOPE   H7R13619   1.268   6.327   3.368  0.4137 -1.0948 -2.4877
  127SOPE   H7S13620   1.088   6.322   3.338 -2.3586 -4.1281 -0.2591
  127SOPE   C2813621   1.149   6.204   3.501 -0.5482 -0.5621 -0.1218
  127SOPE   H8R13622   1.074   6.124   3.486 -0.4445 -1.1104  1.9294
  127SOPE   H8S13623   1.242   6.151   3.532 -0.3532 -0.0199  0.2319
  127SOPE   C2913624   1.092   6.293   3.604  0.1568 -0.1095 -0.2242
  127SOPE   H9113625   1.080   6.395   3.566 -0.2810 -1.0527 -2.7470
  127SOPE  C21013626   1.084   6.272   3.734 -0.2348 -0.3060 -0.5733
  127SOPE  H10113627   1.040   6.349   3.798  1.2240 -0.2026  0.3765
  127SOPE  C21113628   1.131   6.147   3.798  0.7325  0.9733 -0.1517
  127SOPE  H11R13629   1.242   6.152   3.794  1.0032 -2.1788  0.1278
  127SOPE  H11S13630   1.090   6.057   3.747 -0.7431  0.2479  2.1496
  127SOPE  C21213631   1.091   6.150   3.946  0.9997 -0.4678 -0.0896
  127SOPE  H12R13632   1.118   6.247   3.994  0.0126 -1.0501  1.7434
  127SOPE  H12S13633   1.131   6.068   4.009 -1.0444 -0.0206  1.8907
  127SOPE  C21313634   0.942   6.116   3.967  0.5906  0.2983 -0.3111
  127SOPE  H13R13635   0.936   6.018   3.915 -1.1761 -0.1113  0.6019
  127SOPE  H13S13636   0.887   6.185   3.899 -0.6977 -0.5794 -0.1946
  127SOPE  C21413637   0.886   6.114   4.112  0.2104  0.1295  0.2637
  127SOPE  H14R13638   0.776   6.105   4.107  0.2805 -0.2714 -1.8968
  127SOPE  H14S13639   0.921   6.206   4.163 -2.1995  0.1820  1.9442
  127SOPE  C21513640   0.931   5.997   4.195 -0.2785 -0.0838 -0.7919
  127SOPE  H15R13641   1.037   5.977   4.169 -0.0000 -2.0348  1.5446
  127SOPE  H15S13642   0.866   5.912   4.163  0.2213 -0.7130 -0.1557
  127SOPE  C21613643   0.923   6.027   4.347  0.0819 -0.2318  0.4019
  127SOPE  H16R13644   0.823   6.064   4.378  0.3033  0.2734  0.5133
  127SOPE  H16S13645   0.996   6.106   4.375  0.7374 -0.8775  0.5625
  127SOPE  C21713646   0.958   5.908   4.438 -0.3454 -0.3632 -0.2851
  127SOPE  H17R13647   0.973   5.934   4.545 -1.0543 -0.9456 -0.0344
  127SOPE  H17S13648   1.058   5.877   4.400  0.0213  2.3083 -1.7392
  127SOPE  C21813649   0.868   5.793   4.425 -0.2000  0.7704  0.0129
  127SOPE  H18R13650   0.763   5.827   4.431 -0.1667  0.7039  1.1037
  127SOPE  H18S13651   0.887   5.714   4.501 -0.8985  0.0878 -0.5081
  127SOPE  H18T13652   0.892   5.748   4.326 -0.5753  4.0894 -1.7346
  127SOPE   C3313653   1.030   5.479   3.140 -0.1453 -0.0803  0.0159
  127SOPE   H3X13654   1.134   5.516   3.147 -0.8359  2.7680 -2.3899
  127SOPE   H3Y13655   1.035   5.376   3.097 -2.8105  0.3718 -1.6877
  127SOPE   C3413656   0.984   5.475   3.284 -0.1096  0.5749  0.1542
  127SOPE   H4X13657   0.965   5.367   3.306  2.6484 -0.4320 -1.9177
  127SOPE   H4Y13658   0.885   5.523   3.298 -0.7829 -0.7462  0.1523
  127SOPE   C3513659   1.082   5.528   3.387  0.2404  0.3337  0.2542
  127SOPE   H5X13660   1.114   5.631   3.360  1.3667 -0.3287 -0.9758
  127SOPE   H5Y13661   1.178   5.473   3.389  0.4343  0.5106 -2.0462
  127SOPE   C3613662   1.035   5.541   3.535  0.9302  0.3686  0.0495
  127SOPE   H6X13663   1.023   5.436   3.570 -1.1052  0.5525  0.0161
  127SOPE   H6Y13664   0.934   5.585   3.554  0.3461 -1.5783  1.8695
  127SOPE   C3713665   1.137   5.599   3.631 -0.6715  0.2038  0.5250
  127SOPE   H7X13666   1.147   5.704   3.595 -0.0194  0.0035  0.1307
  127SOPE   H7Y13667   1.234   5.546   3.624 -1.7932 -2.1119  1.3725
  127SOPE   C3813668   1.099   5.594   3.773 -0.0225 -0.4046 -0.0664
  127SOPE   H8X13669   0.992   5.606   3.797  0.0739 -1.7980  1.2463
  127SOPE   H8Y13670   1.156   5.673   3.826 -0.9246  0.2057 -0.0045
  127SOPE   C3913671   1.151   5.461   3.824  0.3292  0.6402 -0.1842
  127SOPE   H9X13672   1.254   5.445   3.786  0.0100 -0.7963 -0.5104
  127SOPE   H9Y13673   1.090   5.382   3.773  1.5990  0.9002 -2.2086
  127SOPE  C31013674   1.150   5.450   3.978  0.2703 -0.0113 -0.0100
  127SOPE  H10X13675   1.223   5.521   4.022 -0.0230  0.1697  0.1870
  127SOPE  H10Y13676   1.170   5.346   4.011  1.3248  0.8188  2.1446
  127SOPE  C31113677   1.006   5.495   4.025  0.1284  0.2077  0.0355
  127SOPE  H11X13678   0.937   5.431   3.966  0.1231  0.1495  0.1053
  127SOPE  H11Y13679   0.987   5.602   4.004 -1.8463 -0.2189 -0.5238
  127SOPE  C31213680   0.974   5.468   4.176 -1.0264  0.7691 -0.4363
  127SOPE  H12X13681   0.937   5.364   4.182  0.7300  0.1662  0.8626
  127SOPE  H12Y13682   0.892   5.529   4.219 -1.0441 -1.7145  3.5119
  127SOPE  C31313683   1.089   5.481   4.277  1.0071 -0.5627 -0.3086
  127SOPE  H13X13684   1.128   5.585   4.274 -1.4875  0.7132  3.4733
  127SOPE  H13Y13685   1.172   5.418   4.240  1.5835  1.3774 -2.5679
  127SOPE  C31413686   1.043   5.437   4.417  0.3973  0.3182 -0.6159
  127SOPE  H14X13687   1.011   5.332   4.433  2.0302 -0.0889  0.2647
  127SOPE  H14Y13688   0.952   5.495   4.445  0.1336 -0.6387  0.5806
  127SOPE  C31513689   1.153   5.465   4.524  0.1008  0.1811 -0.4433
  127SOPE  H15X13690   1.166   5.574   4.539  0.7944 -0.0012  0.3570
  127SOPE  H15Y13691   1.251   5.425   4.491  1.0643 -0.9429  3.2837
  127SOPE  C31613692   1.124   5.390   4.657 -0.6800  0.4191  0.6579
  127SOPE  H16X13693   1.138   5.280   4.642 -0.3510  0.5056  0.3051
  127SOPE  H16Y13694   1.014   5.394   4.672 -1.5969  2.5621 -4.6066
  127SOPE  C31713695   1.204   5.431   4.781 -0.4167  0.1290 -0.3324
  127SOPE  H17X13696   1.184   5.534   4.817  0.3723 -0.0530  0.6736
  127SOPE  H17Y13697   1.310   5.423   4.747  0.7581 -1.0850  3.1051
  127SOPE  C31813698   1.200   5.336   4.901 -0.0695 -0.6463  0.5033
  127SOPE  H18X13699   1.102   5.288   4.921  0.0195 -1.2575 -0.4573
  127SOPE  H18Y13700   1.238   5.367   5.001  2.0665 -0.4219 -0.3157
  127SOPE  H18Z13701   1.273   5.253   4.888  1.1967  0.6320 -0.8316
  128SOPE     N13702   4.966   0.067   1.906  0.1810 -0.0571  0.2895
  128SOPE   HN113703   5.059   0.030   1.880  0.3099 -0.9785  1.9251
  128SOPE   HN213704   4.893   0.021   1.848 -1.0914  2.8044 -0.5783
  128SOPE   HN313705   4.958   0.169   1.885  0.3395 -0.1065 -0.0002
  128SOPE   C1213706   4.957   0.054   2.061  0.1172 -0.1739  1.0947
  128SOPE  H12A13707   4.921  -0.048   2.083  2.2974 -1.0052  1.1159
  128SOPE  H12B13708   4.878   0.126   2.091 -1.6184 -1.7837  0.5451
  128SOPE   C1113709   5.097   0.072   2.130 -0.0423  0.0499  0.4136
  128SOPE  H11A13710   5.162  -0.013   2.100  0.4508  0.5405  0.0644
  128SOPE  H11B13711   5.088   0.047   2.238 -1.1452  0.4938  0.4410
  128SOPE     P13712   5.146   0.317   2.200 -0.6818  0.2848  0.0625
  128SOPE   O1313713   5.055   0.414   2.142  0.3521  0.2238 -0.1589
  128SOPE   O1413714   5.283   0.363   2.238  0.1071  0.1010 -0.2372
  128SOPE   O1213715   5.167   0.194   2.100 -0.2730 -0.0903 -0.3824
  128SOPE   O1113716   5.074   0.255   2.326 -0.0181 -0.1106  0.2422
  128SOPE    C113717   4.958   0.310   2.392 -0.2842  0.5320 -0.4798
  128SOPE    HA13718   4.867   0.275   2.338  1.0126 -0.8520 -1.8733
  128SOPE    HB13719   4.958   0.421   2.397  0.7433  0.5497 -0.6954
  128SOPE    C213720   4.954   0.266   2.545  1.0131  0.4456  0.7758
  128SOPE    HS13721   4.865   0.320   2.584  0.2744  1.3505 -1.8775
  128SOPE   O2113722   5.071   0.306   2.612  0.1231 -0.1297 -0.0323
  128SOPE   C2113723   5.076   0.424   2.662  0.5373 -0.9535  0.0421
  128SOPE   O2213724   4.996   0.516   2.662 -0.1625 -0.0383 -0.3232
  128SOPE   C2213725   5.209   0.441   2.727 -0.2878 -0.0625 -0.3041
  128SOPE   H2R13726   5.217   0.551   2.714 -0.6559  0.2371  1.6116
  128SOPE   H2S13727   5.286   0.381   2.675  1.0649  1.3426  0.0100
  128SOPE    C313728   4.940   0.109   2.566 -0.4852 -0.5609  0.2651
  128SOPE    HX13729   5.025   0.067   2.509 -2.0756 -1.9391 -1.2385
  128SOPE    HY13730   4.846   0.072   2.519  0.1528 -1.6103 -0.2077
  128SOPE   O3113731   4.952   0.074   2.705  0.1620  0.3042  0.0120
  128SOPE   C3113732   4.861   0.100   2.789 -0.2877  0.5100 -0.5395
  128SOPE   O3213733   4.743   0.132   2.770 -0.4615  0.3950  0.1445
  128SOPE   C3213734   4.926   0.083   2.928 -0.7512 -0.1739 -0.7100
  128SOPE   H2X13735   5.028   0.127   2.925 -1.3663  1.3617 -0.1541
  128SOPE   H2Y13736   4.913  -0.026   2.943 -0.6586 -0.1559 -0.5040
  128SOPE   C2313737   5.216   0.411   2.883  0.1837  0.0331 -0.8014
  128SOPE   H3R13738   5.114   0.416   2.926  0.4803  0.4838 -0.1330
  128SOPE   H3S13739   5.273   0.499   2.920 -1.1375  0.7654 -0.4470
  128SOPE   C2413740   5.283   0.273   2.913 -0.6702  0.0288 -0.0330
  128SOPE   H4R13741   5.219   0.198   2.861  0.6450 -0.6678 -0.6939
  128SOPE   H4S13742   5.378   0.274   2.855 -1.8884 -2.3686 -2.2904
  128SOPE   C2513743   5.294   0.224   3.058  0.1816 -0.0670 -0.4843
  128SOPE   H5R13744   5.197   0.185   3.095  0.3450 -1.6655 -1.6856
  128SOPE   H5S13745   5.367   0.141   3.052  1.2358  0.7348  0.5664
  128SOPE   C2613746   5.349   0.326   3.161 -0.3174 -0.1312 -0.4996
  128SOPE   H6R13747   5.450   0.359   3.128  1.0858 -2.0086  1.5844
  128SOPE   H6S13748   5.277   0.409   3.176  0.4495  0.2337  1.5477
  128SOPE   C2713749   5.377   0.256   3.298 -0.3011  0.2082 -0.1180
  128SOPE   H7R13750   5.301   0.180   3.324  0.9425 -1.7683 -1.9270
  128SOPE   H7S13751   5.475   0.204   3.288 -1.5502 -2.4722  0.6704
  128SOPE   C2813752   5.386   0.349   3.422 -0.4026 -0.1391 -0.8106
  128SOPE   H8R13753   5.456   0.428   3.387  1.5961 -1.0591  0.9554
  128SOPE   H8S13754   5.298   0.416   3.439  1.2221  1.6910  0.8603
  128SOPE   C2913755   5.454   0.298   3.536 -0.3730  0.7827  0.4010
  128SOPE   H9113756   5.559   0.330   3.538 -0.3168  0.6579 -0.2103
  128SOPE  C21013757   5.406   0.236   3.646  0.2087  0.1489 -0.1242
  128SOPE  H10113758   5.469   0.199   3.728 -0.4586 -1.4737 -0.3023
  128SOPE  C21113759   5.260   0.219   3.671 -0.0408  0.3832 -0.6788
  128SOPE  H11R13760   5.236   0.111   3.682 -0.4136  0.6593  1.8430
  128SOPE  H11S13761   5.201   0.254   3.584 -1.9693  0.8853  0.7599
  128SOPE  C21213762   5.208   0.302   3.786 -1.1599  0.2413 -0.2288
  128SOPE  H12R13763   5.101   0.286   3.812 -0.5125 -1.5969  1.6130
  128SOPE  H12S13764   5.228   0.404   3.749 -0.9248  0.0564 -0.6140
  128SOPE  C21313765   5.275   0.285   3.924  0.0758  0.0011 -0.2191
  128SOPE  H13R13766   5.384   0.266   3.912  0.1129 -0.1852  0.3822
  128SOPE  H13S13767   5.235   0.189   3.965 -0.5586  0.5182  0.3935
  128SOPE  C21413768   5.232   0.396   4.016  0.4843 -0.0056 -0.6214
  128SOPE  H14R13769   5.128   0.373   4.048  0.9467 -2.7648 -0.8921
  128SOPE  H14S13770   5.243   0.494   3.965  2.2066  0.9024  1.3479
  128SOPE  C21513771   5.306   0.389   4.149 -0.2908 -0.4933  0.4739
  128SOPE  H15R13772   5.408   0.429   4.134 -1.2749  1.9033 -0.3682
  128SOPE  H15S13773   5.314   0.289   4.196  2.4589  0.4031  2.1393
  128SOPE  C21613774   5.242   0.473   4.261  0.3222 -0.1738 -0.1128
  128SOPE  H16R13775   5.131   0.474   4.248  0.3465 -1.0195 -0.4732
  128SOPE  H16S13776   5.277   0.574   4.232  0.7906  0.0296  1.1119
  128SOPE  C21713777   5.290   0.440   4.405 -0.5991  0.1125  0.6529
  128SOPE  H17R13778   5.256   0.340   4.440 -1.1409  0.8007  2.1444
  128SOPE  H17S13779   5.235   0.512   4.468 -1.8858 -1.0806  0.9327
  128SOPE  C21813780   5.438   0.461   4.432  0.0593 -0.0827 -0.6115
  128SOPE  H18R13781   5.476   0.406   4.521 -0.3377 -1.6024 -1.3354
  128SOPE  H18S13782   5.456   0.570   4.435 -2.1822  0.3241  0.8530
  128SOPE  H18T13783   5.494   0.412   4.350 -1.3503 -0.5620 -1.3286
  128SOPE   C3313784   4.853   0.158   3.033 -0.6775 -0.0757  0.3529
  128SOPE   H3X13785   4.742   0.155   3.019 -0.6790 -0.3532  0.4099
  128SOPE   H3Y13786   4.878   0.266   3.023  0.3102 -0.2720  0.6161
  128SOPE   C3413787   4.890   0.109   3.175 -0.2622 -0.2218  0.4861
  128SOPE   H4X13788   4.992   0.142   3.205 -0.2923  0.4587 -0.1253
  128SOPE   H4Y13789   4.894  -0.001   3.171 -0.3583 -0.2954  1.8012
  128SOPE   C3513790   4.800   0.161   3.287  0.2605 -0.6429 -0.3842
  128SOPE   H5X13791   4.698   0.125   3.259  0.2502 -1.0278  0.1510
  128SOPE   H5Y13792   4.800   0.271   3.273 -1.6592 -0.2094  2.2182
  128SOPE   C3613793   4.834   0.126   3.435 -0.7779  0.4546  0.7818
  128SOPE   H6X13794   4.942   0.136   3.457 -0.0734 -2.5616 -0.7181
  128SOPE   H6Y13795   4.828   0.015   3.428  0.8942  0.4504 -2.0234
  128SOPE   C3713796   4.746   0.187   3.542 -0.4601  0.8415  0.9300
  128SOPE   H7X13797   4.643   0.146   3.542 -0.1228 -0.2123 -1.7055
  128SOPE   H7Y13798   4.719   0.295   3.536  1.0468  1.1945 -0.1221
  128SOPE   C3813799   4.820   0.162   3.674  0.2417  0.2699  0.2517
  128SOPE   H8X13800   4.913   0.221   3.687  0.1570  0.4366  0.1113
  128SOPE   H8Y13801   4.847   0.055   3.692  2.0679  0.7647  0.6935
  128SOPE   C3913802   4.726   0.196   3.785 -0.0461  0.1087 -0.2023
  128SOPE   H9X13803   4.654   0.111   3.786  0.8717 -0.7231  1.5483
  128SOPE   H9Y13804   4.670   0.292   3.782 -0.6589 -0.2753 -1.7098
  128SOPE  C31013805   4.794   0.188   3.924  0.7030 -0.4611 -0.4034
  128SOPE  H10X13806   4.871   0.268   3.936 -0.6816  0.8239  0.1685
  128SOPE  H10Y13807   4.845   0.090   3.935  0.2974 -0.7042 -0.6822
  128SOPE  C31113808   4.695   0.224   4.035  0.0507  0.1608 -0.0434
  128SOPE  H11X13809   4.630   0.140   4.069 -0.8190  1.4063  1.5479
  128SOPE  H11Y13810   4.616   0.302   4.028  0.5037  0.6575  0.2901
  128SOPE  C31213811   4.771   0.255   4.166 -0.2175 -0.8508 -0.0909
  128SOPE  H12X13812   4.862   0.317   4.154 -0.4484 -0.4886 -0.0105
  128SOPE  H12Y13813   4.796   0.154   4.205  2.1843  0.2395  1.4197
  128SOPE  C31313814   4.702   0.335   4.275  0.3177  0.6479  0.6018
  128SOPE  H13X13815   4.677   0.437   4.239  0.1794  0.9566  1.5579
  128SOPE  H13Y13816   4.774   0.349   4.358  0.4610  0.2908  0.5399
  128SOPE  C31413817   4.588   0.249   4.334  0.4176 -0.1286 -0.1982
  128SOPE  H14X13818   4.636   0.158   4.376  1.1481  0.6785  0.7844
  128SOPE  H14Y13819   4.517   0.218   4.254 -0.3978 -0.4999  0.6492
  128SOPE  C31513820   4.508   0.332   4.436  0.4887  0.2901  0.8550
  128SOPE  H15X13821   4.427   0.268   4.477  0.1727  0.0429 -0.1179
  128SOPE  H15Y13822   4.453   0.404   4.371 -1.9249 -2.2314 -0.1169
  128SOPE  C31613823   4.591   0.405   4.551  0.3813 -0.1774 -0.9784
  128SOPE  H16X13824   4.681   0.454   4.509  2.9114 -2.0835  1.7274
  128SOPE  H16Y13825   4.640   0.329   4.616  0.9985  1.7095  0.8510
  128SOPE  C31713826   4.500   0.493   4.638  0.3693  0.0845 -0.2028
  128SOPE  H17X13827   4.546   0.521   4.735  1.4324 -0.6779 -0.4692
  128SOPE  H17Y13828   4.404   0.438   4.641 -0.2128  0.6797 -3.4248
  128SOPE  C31813829   4.464   0.625   4.567 -0.1921 -0.0584 -0.1440
  128SOPE  H18X13830   4.557   0.685   4.569 -0.3277  0.2906 -1.9549
  128SOPE  H18Y13831   4.382   0.688   4.607 -0.3922 -0.2541 -0.2412
  128SOPE  H18Z13832   4.438   0.614   4.459  1.4880 -1.1191 -0.4830
  129OSM      N13833   6.809   0.655   6.812 -0.4262 -0.3562  0.0874
  129OSM    C1513834   6.902   0.563   6.879 -0.2409  0.5201  0.5034
  129OSM   H15A13835   6.936   0.589   6.978  0.0979 -2.3391  1.2167
  129OSM   H15B13836   7.000   0.563   6.834  1.1455 -1.1764  3.2947
  129OSM   H15C13837   6.867   0.461   6.871 -2.1179  1.1743 -0.1293
  129OSM    C1413838   6.756   0.570   6.695  0.2210 -0.1396 -0.2085
  129OSM   H14A13839   6.708   0.480   6.730 -0.0941  0.1363  0.0715
  129OSM   H14B13840   6.834   0.559   6.621  1.0701  0.3416  0.5908
  129OSM   H14C13841   6.677   0.616   6.638  0.8288 -0.2352 -1.1467
  129OSM    C1313842   6.682   0.688   6.896 -0.3825 -0.3927  0.1839
  129OSM   H13A13843   6.646   0.597   6.940 -0.2440 -0.7959 -0.5160
  129OSM   H13B13844   6.610   0.742   6.836 -0.0238  2.6798  2.2969
  129OSM   H13C13845   6.712   0.753   6.977  0.6287  0.1894 -0.6200
  129OSM    C1213846   6.877   0.781   6.772  0.5167  0.8794 -0.1632
  129OSM   H12A13847   6.928   0.817   6.860 -0.4416  1.2300  0.2706
  129OSM   H12B13848   6.804   0.859   6.755  0.3566  0.6109 -0.7266
  129OSM    C1113849   6.990   0.770   6.664  0.0132 -0.1800  0.2729
  129OSM   H11A13850   7.026   0.872   6.637 -0.8275 -0.1476 -0.7734
  129OSM   H11B13851   6.940   0.731   6.573  1.9118  0.4753 -1.1441
  129OSM      P13852   7.218   0.727   6.790 -0.2041 -0.2921 -0.3907
  129OSM    O1313853   7.197   0.869   6.842 -0.1115  0.5948 -0.2660
  129OSM    O1413854   7.258   0.621   6.886 -0.6951 -0.7901  0.0565
  129OSM    O1113855   7.332   0.733   6.678 -0.6059  0.3881  0.0564
  129OSM    O1213856   7.093   0.679   6.709 -0.3807 -0.0035 -0.0798
  129OSM    C1S13857   7.348   0.651   6.564 -0.0159  0.5699 -0.0605
  129OSM    H1S13858   7.316   0.546   6.575  0.3092  0.4906  0.1335
  129OSM    H1T13859   7.454   0.645   6.533  0.1580  1.6234  0.2976
  129OSM     NF13860   7.298   0.613   6.320 -0.3860  0.1499  0.0287
  129OSM    HNF13861   7.376   0.637   6.263  0.6013 -0.7066  0.9600
  129OSM    C2S13862   7.286   0.710   6.436 -0.1926  0.2589 -0.0545
  129OSM    H2S13863   7.175   0.719   6.448 -0.0086  1.7150  0.7077
  129OSM    C3S13864   7.341   0.855   6.405  0.4537  0.6002 -0.5854
  129OSM    H3S13865   7.451   0.853   6.386  0.1891  1.1261 -2.3531
  129OSM     O313866   7.313   0.948   6.511 -0.1606 -0.0528  0.5374
  129OSM    HO313867   7.300   0.893   6.589 -0.8057  0.0341  0.4965
  129OSM    C4S13868   7.278   0.905   6.274  0.6199  0.2359  0.1483
  129OSM    H4S13869   7.338   0.866   6.190  0.6489 -1.4554  0.9234
  129OSM    C5S13870   7.162   0.968   6.247  0.3110 -0.6249  0.7496
  129OSM    H5S13871   7.105   0.994   6.337  0.9016 -4.0019  2.2291
  129OSM    C6S13872   7.107   0.995   6.105  0.1417  0.6676  0.1102
  129OSM    H6S13873   7.073   1.100   6.088  0.5893  0.6367 -1.1198
  129OSM    H6T13874   7.009   0.943   6.102  0.3566  0.0536  2.1171
  129OSM    C7S13875   7.182   0.936   5.982  1.0287 -0.9982  0.0949
  129OSM    H7S13876   7.212   0.832   6.003  2.7994 -0.8694 -1.6078
  129OSM    H7T13877   7.270   0.999   5.958  0.6272 -0.7818 -0.8299
  129OSM    C8S13878   7.092   0.920   5.857 -0.1370 -0.6714  0.0903
  129OSM    H8S13879   7.077   1.022   5.817 -0.6336 -1.3136 -1.4356
  129OSM    H8T13880   6.996   0.868   5.878 -0.6644  0.3753  0.3768
  129OSM    C9S13881   7.163   0.863   5.738  0.1774  0.6183 -0.2576
  129OSM    H9S13882   7.090   0.827   5.662 -1.1179  0.2317  1.1274
  129OSM    H9T13883   7.224   0.774   5.765  0.1520 -0.0888 -2.2943
  129OSM   C10S13884   7.259   0.958   5.662  0.1140 -0.3716 -0.1977
  129OSM   H10S13885   7.361   0.935   5.698  0.7440  1.5834 -0.5995
  129OSM   H10T13886   7.239   1.062   5.697  1.0517 -0.8828  1.9519
  129OSM   C11S13887   7.260   0.964   5.510 -0.0936 -0.0152  0.2376
  129OSM   H11S13888   7.159   0.980   5.467 -1.3015 -2.0312  2.1323
  129OSM   H11T13889   7.294   0.869   5.465 -0.8952 -0.0178 -0.3867
  129OSM   C12S13890   7.343   1.081   5.460  0.2740  0.1612 -0.2419
  129OSM   H12S13891   7.440   1.073   5.513  0.4435  1.0313 -0.4029
  129OSM   H12T13892   7.283   1.168   5.492 -1.9181 -1.4792  0.3834
  129OSM   C13S13893   7.378   1.088   5.311  0.2066 -0.0128  0.4686
  129OSM   H13S13894   7.446   1.004   5.283  0.8109  1.3044 -2.4773
  129OSM   H13T13895   7.436   1.172   5.266  1.0873 -0.7383  0.2165
  129OSM   C14S13896   7.258   1.054   5.223 -0.9133 -0.3262  0.6221
  129OSM   H14S13897   7.173   1.114   5.261 -1.0294  1.5540 -2.3222
  129OSM   H14T13898   7.241   0.944   5.234  0.1647 -0.5061  0.6284
  129OSM   C15S13899   7.274   1.084   5.071 -0.1720 -0.4168 -0.2644
  129OSM   H15S13900   7.371   1.053   5.029 -0.2163 -0.3836 -0.3945
  129OSM   H15T13901   7.265   1.195   5.064  1.6624 -0.1446  1.0660
  129OSM   C16S13902   7.152   1.032   4.991  0.0527 -0.2695 -0.2679
  129OSM   H16S13903   7.062   1.029   5.056  1.8683  0.9444  2.5334
  129OSM   H16T13904   7.167   0.924   4.967  1.3582 -0.3596  0.8175
  129OSM   C17S13905   7.133   1.107   4.864  0.5740  0.3043 -0.2821
  129OSM   H17S13906   7.222   1.118   4.798 -0.6233  1.4208 -1.7849
  129OSM   H17T13907   7.097   1.208   4.892 -0.0964 -0.4730  1.8532
  129OSM   C18S13908   7.030   1.043   4.768  0.1630 -0.8084 -0.3380
  129OSM   H18S13909   7.049   0.935   4.749  1.0180 -0.5454 -1.0857
  129OSM   H18T13910   7.042   1.111   4.681  0.5865  1.3242  1.3050
  129OSM   H18U13911   6.932   1.057   4.819  1.5141 -1.1024  2.5271
  129OSM    C1F13912   7.226   0.500   6.298  0.5543 -0.4840  0.5762
  129OSM     OF13913   7.157   0.455   6.385 -0.7353  0.2712  0.1008
  129OSM    C2F13914   7.246   0.441   6.164  0.1917  0.5659 -0.3991
  129OSM    H2F13915   7.252   0.332   6.185  2.3866  0.5692 -0.7725
  129OSM    H2G13916   7.342   0.467   6.114  0.0388 -0.1806 -1.1014
  129OSM    C3F13917   7.132   0.479   6.060  0.0331 -0.5110  0.6275
  129OSM    H3F13918   7.136   0.589   6.051 -0.9748 -0.5425 -0.4866
  129OSM    H3G13919   7.034   0.459   6.108 -1.2736  0.9240 -1.2636
  129OSM    C4F13920   7.152   0.423   5.913 -0.5150  0.3541  0.8520
  129OSM    H4F13921   7.083   0.480   5.847 -0.1821 -1.1897 -0.9205
  129OSM    H4G13922   7.141   0.313   5.917 -0.2752  0.2668 -0.5448
  129OSM    C5F13923   7.296   0.452   5.850 -0.2132  0.3900 -0.0705
  129OSM    H5F13924   7.358   0.380   5.909 -2.1629 -0.2005  1.3732
  129OSM    H5G13925   7.343   0.552   5.858  0.6635 -0.0311  0.2683
  129OSM    C6F13926   7.315   0.401   5.711  0.1518 -0.3085  0.0841
  129OSM    H6F13927   7.276   0.297   5.715 -0.5583 -0.0210  0.7290
  129OSM    H6G13928   7.420   0.414   5.676 -0.5508  2.3839 -1.3126
  129OSM    C7F13929   7.238   0.488   5.596 -0.1033 -0.0052  0.1777
  129OSM    H7F13930   7.283   0.590   5.603  0.6795 -0.2508 -0.9853
  129OSM    H7G13931   7.131   0.510   5.616 -0.4376  0.1724 -1.6651
  129OSM    C8F13932   7.246   0.440   5.452  0.1169  1.2382 -0.3763
  129OSM    H8F13933   7.158   0.474   5.393  1.3314 -0.6759 -3.4816
  129OSM    H8G13934   7.249   0.329   5.447 -1.0368  1.1638  0.3078
  129OSM    C9F13935   7.385   0.470   5.397  0.6212 -0.5252 -0.4631
  129OSM    H9F13936   7.467   0.404   5.428  0.0013 -1.2779 -0.3907
  129OSM   C10F13937   7.403   0.568   5.303  0.4164 -1.0004 -0.1112
  129OSM   H10F13938   7.506   0.584   5.267  1.2501 -1.3928  1.9797
  129OSM   C11F13939   7.292   0.660   5.248  0.0632  0.2620 -0.0598
  129OSM   H11F13940   7.310   0.768   5.230 -3.7699  0.7171 -2.4416
  129OSM   H11G13941   7.198   0.657   5.307 -0.7694 -0.9145 -1.3634
  129OSM   C12F13942   7.252   0.632   5.099  0.4428  0.1952  0.2937
  129OSM   H12F13943   7.177   0.710   5.074 -0.4984  0.5588  3.6718
  129OSM   H12G13944   7.203   0.532   5.104  1.6488 -0.3562  1.7409
  129OSM   C13F13945   7.373   0.623   5.002 -0.5957 -0.5264  0.4013
  129OSM   H13F13946   7.420   0.526   5.027 -1.0125 -1.4992 -2.3436
  129OSM   H13G13947   7.446   0.704   5.025 -1.6387  1.0172 -1.4304
  129OSM   C14F13948   7.333   0.616   4.855 -0.1845  0.1683 -0.2681
  129OSM   H14F13949   7.266   0.696   4.817 -1.1239 -0.0289  0.9336
  129OSM   H14G13950   7.272   0.523   4.847  1.3446 -1.0130  1.1078
  129OSM   C15F13951   7.460   0.605   4.763 -0.3628  0.1014  0.7104
  129OSM   H15F13952   7.525   0.521   4.796  1.1657  0.0361 -2.1770
  129OSM   H15G13953   7.517   0.700   4.772  0.3051 -0.3487  1.3951
  129OSM   C16F13954   7.414   0.596   4.611 -0.0357  0.5648 -0.5434
  129OSM   H16F13955   7.367   0.694   4.589  0.3475  0.5991 -1.2543
  129OSM   H16G13956   7.329   0.528   4.590 -0.7910  1.4219 -0.2985
  129OSM   C17F13957   7.530   0.581   4.513 -0.0560 -0.0775  0.3286
  129OSM   H17F13958   7.616   0.647   4.538  0.3307  0.7277 -2.6727
  129OSM   H17G13959   7.489   0.609   4.413  2.9107 -0.2378 -1.0626
  129OSM   C18F13960   7.590   0.441   4.493  0.0614  0.1233  0.9372
  129OSM   H18F13961   7.643   0.411   4.586  1.4183 -1.7383 -0.3663
  129OSM   H18G13962   7.674   0.457   4.421 -1.1272  1.5054 -0.2117
  129OSM   H18H13963   7.512   0.365   4.472 -1.3287  1.6335  0.4547
  130OSM      N13964   5.139   1.523   6.793  0.1243 -0.1545  0.5585
  130OSM    C1513965   5.057   1.598   6.894 -0.1754  0.4252  0.3367
  130OSM   H15A13966   5.082   1.703   6.885  1.5376 -0.0870 -2.2568
  130OSM   H15B13967   5.086   1.566   6.992  2.1851  0.5847 -0.2554
  130OSM   H15C13968   4.955   1.589   6.860  0.4898 -0.0702 -1.7194
  130OSM    C1413969   5.285   1.539   6.826 -0.4240  0.2440  0.1560
  130OSM   H14A13970   5.307   1.489   6.920  1.3847  0.5088 -0.0939
  130OSM   H14B13971   5.332   1.634   6.849 -1.0440  0.0537  2.5084
  130OSM   H14C13972   5.352   1.485   6.761  0.1569  0.6700  0.3877
  130OSM    C1313973   5.116   1.375   6.803  0.0621  0.0444  0.3685
  130OSM   H13A13974   5.150   1.332   6.896 -2.0321 -1.6488  0.4321
  130OSM   H13B13975   5.181   1.330   6.729 -0.1539  0.4438 -0.0688
  130OSM   H13C13976   5.013   1.343   6.803  0.8679 -3.1094  2.8432
  130OSM    C1213977   5.119   1.578   6.652 -0.1035  0.2293  0.2159
  130OSM   H12A13978   5.175   1.514   6.586 -0.0502 -1.8417  2.1398
  130OSM   H12B13979   5.151   1.681   6.651 -2.7912  1.1672 -1.8472
  130OSM    C1113980   4.982   1.595   6.583  0.0433  0.0017 -0.2081
  130OSM   H11A13981   4.926   1.501   6.560 -1.1098  0.6103  0.0534
  130OSM   H11B13982   4.996   1.630   6.478  0.4056  0.1587 -0.1079
  130OSM      P13983   4.743   1.648   6.705 -0.1869  0.2167  0.2341
  130OSM    O1313984   4.743   1.516   6.768  0.1043  0.2323  0.0835
  130OSM    O1413985   4.693   1.756   6.795 -0.2407  0.6674 -0.1310
  130OSM    O1113986   4.657   1.640   6.574  0.2290 -0.1694  0.3678
  130OSM    O1213987   4.899   1.684   6.654  0.6403  0.1614  0.1679
  130OSM    C1S13988   4.540   1.712   6.541  0.6134  0.2499  0.2423
  130OSM    H1S13989   4.551   1.821   6.561 -2.5127  0.6389  0.4759
  130OSM    H1T13990   4.453   1.689   6.607 -1.1565  3.6722 -0.6800
  130OSM     NF13991   4.363   1.775   6.374  0.3835 -0.0659  0.0992
  130OSM    HNF13992   4.275   1.732   6.393  0.8336 -0.7914  0.5995
  130OSM    C2S13993   4.485   1.698   6.395 -0.5085 -0.0828 -0.7837
  130OSM    H2S13994   4.563   1.748   6.334 -0.5016  0.9418  0.0372
  130OSM    C3S13995   4.475   1.543   6.357 -0.0749 -0.5931 -0.4556
  130OSM    H3S13996   4.391   1.500   6.416  1.6698 -0.7720  2.0053
  130OSM     O313997   4.594   1.463   6.388 -0.6191 -0.5712  0.2623
  130OSM    HO313998   4.647   1.526   6.438 -1.2317 -0.3315  0.6263
  130OSM    C4S13999   4.435   1.524   6.215  0.4213  0.4763 -0.1774
  130OSM    H4S14000   4.332   1.501   6.184  0.2107 -0.6335  1.2564
  130OSM    C5S14001   4.525   1.534   6.115 -1.0056 -0.3570 -0.1069
  130OSM    H5S14002   4.629   1.551   6.145 -0.5552 -1.3431 -1.0392
  130OSM    C6S14003   4.489   1.507   5.976  0.2453  0.1320  0.2846
  130OSM    H6S14004   4.393   1.458   5.950  0.5074 -1.2459  1.7328
  130OSM    H6T14005   4.568   1.441   5.934 -0.5863 -0.9150  0.3322
  130OSM    C7S14006   4.478   1.642   5.898  0.5927 -0.3559  0.2538
  130OSM    H7S14007   4.582   1.681   5.901  1.4195 -2.0644 -2.5687
  130OSM    H7T14008   4.414   1.718   5.948  1.8384  2.2922 -1.8759
  130OSM    C8S14009   4.436   1.617   5.759  0.0423 -0.7929 -0.4859
  130OSM    H8S14010   4.406   1.718   5.720 -1.7613 -0.8304  0.6798
  130OSM    H8T14011   4.351   1.545   5.758  0.8245 -1.7331 -1.6699
  130OSM    C9S14012   4.547   1.557   5.665  0.6365 -0.1185  0.3364
  130OSM    H9S14013   4.576   1.457   5.704  1.8284  0.2770  0.5175
  130OSM    H9T14014   4.639   1.616   5.685  0.9867 -1.0827  1.7310
  130OSM   C10S14015   4.499   1.548   5.519  0.1483 -0.1028  0.0390
  130OSM   H10S14016   4.458   1.646   5.488  4.1827  2.4164  1.9349
  130OSM   H10T14017   4.420   1.472   5.499 -1.2369  1.1810  0.5120
  130OSM   C11S14018   4.608   1.510   5.421 -0.0516  0.4146  0.3707
  130OSM   H11S14019   4.632   1.401   5.427 -3.0411 -0.3562  0.3092
  130OSM   H11T14020   4.700   1.564   5.451  1.2827  0.2150 -2.8930
  130OSM   C12S14021   4.547   1.526   5.283 -0.6265 -0.0141 -0.1432
  130OSM   H12S14022   4.500   1.624   5.262 -0.2598  0.3175  0.5225
  130OSM   H12T14023   4.471   1.445   5.272 -0.1104 -0.7901  1.6300
  130OSM   C13S14024   4.651   1.505   5.173  0.0120  0.2823  0.5829
  130OSM   H13S14025   4.714   1.417   5.196  2.3320  0.9715 -2.4235
  130OSM   H13T14026   4.718   1.595   5.172 -0.6841  0.8117  0.9161
  130OSM   C14S14027   4.580   1.477   5.037 -0.1280 -0.3895 -0.5985
  130OSM   H14S14028   4.531   1.572   5.006 -1.0315 -1.4960 -2.8137
  130OSM   H14T14029   4.512   1.391   5.050  2.3050 -2.2431  0.6646
  130OSM   C15S14030   4.672   1.417   4.925  0.3561  0.3646 -0.7983
  130OSM   H15S14031   4.685   1.313   4.961  0.9849  0.6308 -0.2453
  130OSM   H15T14032   4.773   1.462   4.919  0.9540 -0.7791  0.3047
  130OSM   C16S14033   4.611   1.430   4.781  0.4121 -0.1153 -0.3276
  130OSM   H16S14034   4.674   1.363   4.719  0.5241  0.0641 -0.4107
  130OSM   H16T14035   4.611   1.536   4.747  0.8083 -0.0662 -0.1800
  130OSM   C17S14036   4.470   1.370   4.785  0.5519  0.2710  0.1746
  130OSM   H17S14037   4.394   1.395   4.862  0.6806  0.8529  0.1197
  130OSM   H17T14038   4.491   1.268   4.824 -0.4313  0.3924  1.0756
  130OSM   C18S14039   4.407   1.366   4.643 -0.1540  0.4992  0.6710
  130OSM   H18S14040   4.482   1.326   4.571 -0.4016 -0.6338  1.0157
  130OSM   H18T14041   4.368   1.465   4.612  0.4050  0.3934 -0.4226
  130OSM   H18U14042   4.328   1.288   4.649 -1.2569  1.4486 -0.7823
  130OSM    C1F14043   4.368   1.907   6.382  0.3316 -0.4684  0.0061
  130OSM     OF14044   4.477   1.955   6.365  0.4870 -0.1487 -0.3545
  130OSM    C2F14045   4.252   1.982   6.418 -0.4634  0.2327 -0.2232
  130OSM    H2F14046   4.250   2.004   6.527 -2.7304 -4.0289  0.8551
  130OSM    H2G14047   4.158   1.933   6.384 -0.4447 -0.5536  0.7916
  130OSM    C3F14048   4.247   2.115   6.336 -0.4012  0.5598 -0.1022
  130OSM    H3F14049   4.325   2.186   6.371  0.4786  0.4722 -1.7578
  130OSM    H3G14050   4.154   2.161   6.374 -0.4066 -0.7923  1.6295
  130OSM    C4F14051   4.236   2.103   6.184  0.3462 -1.2055  0.6278
  130OSM    H4F14052   4.147   2.043   6.155  0.6770 -1.5856  0.3783
  130OSM    H4G14053   4.324   2.045   6.148 -0.1271 -1.7778  0.3649
  130OSM    C5F14054   4.236   2.234   6.112 -0.3683 -0.6679  0.9595
  130OSM    H5F14055   4.264   2.211   6.007 -2.1215 -0.5538  0.4461
  130OSM    H5G14056   4.317   2.300   6.152 -1.7090  0.5975  1.6947
  130OSM    C6F14057   4.106   2.321   6.132  0.0434 -0.1262 -0.6777
  130OSM    H6F14058   4.088   2.319   6.242  2.2789 -0.6367 -0.2563
  130OSM    H6G14059   4.027   2.263   6.080 -0.5381  2.0532 -2.3421
  130OSM    C7F14060   4.119   2.465   6.088  0.2120 -0.5619  0.8343
  130OSM    H7F14061   4.212   2.505   6.133  0.7635  0.4573 -1.1176
  130OSM    H7G14062   4.040   2.528   6.132  0.8054  0.8147 -0.0219
  130OSM    C8F14063   4.120   2.494   5.936 -0.3082  0.0983 -0.3980
  130OSM    H8F14064   4.191   2.421   5.893  0.4521  0.7408 -0.2739
  130OSM    H8G14065   4.163   2.597   5.929 -0.9290  0.4040  0.1196
  130OSM    C9F14066   3.976   2.485   5.889 -0.4030  0.0025 -0.4014
  130OSM    H9F14067   3.899   2.524   5.957 -0.1069 -1.4762  0.8241
  130OSM   C10F14068   3.941   2.403   5.792  0.8374 -0.6527  0.6539
  130OSM   H10F14069   3.837   2.390   5.758  0.6654 -0.4624  1.0978
  130OSM   C11F14070   4.036   2.332   5.696  0.3624 -0.0990 -0.7857
  130OSM   H11F14071   3.981   2.241   5.663 -3.7651  1.3170  1.3974
  130OSM   H11G14072   4.128   2.303   5.750  0.7386  1.6736 -0.4205
  130OSM   C12F14073   4.072   2.416   5.569  0.3310 -0.1071  0.2710
  130OSM   H12F14074   4.152   2.487   5.599  0.6051  0.4623 -1.6818
  130OSM   H12G14075   3.984   2.474   5.535 -1.2938 -0.5496  3.2888
  130OSM   C13F14076   4.145   2.331   5.464 -0.1370 -0.0697 -0.1787
  130OSM   H13F14077   4.070   2.256   5.432  0.1814 -1.1161  1.4044
  130OSM   H13G14078   4.235   2.282   5.508 -0.8666  1.0136  2.7965
  130OSM   C14F14079   4.182   2.412   5.340 -0.3765  0.4512  0.1596
  130OSM   H14F14080   4.282   2.460   5.353 -0.6207  0.7455  0.9893
  130OSM   H14G14081   4.098   2.483   5.328 -0.3012  0.9357  2.1496
  130OSM   C15F14082   4.201   2.318   5.210  0.1986  0.5835 -0.2050
  130OSM   H15F14083   4.124   2.237   5.214 -0.8598  1.4801 -1.5151
  130OSM   H15G14084   4.302   2.274   5.224  0.2115 -0.1365 -2.1329
  130OSM   C16F14085   4.207   2.395   5.077  0.4469 -0.3642 -0.0403
  130OSM   H16F14086   4.236   2.501   5.088  1.8057 -0.7106 -0.0763
  130OSM   H16G14087   4.106   2.403   5.032  0.3360  0.5028  0.3469
  130OSM   C17F14088   4.307   2.333   4.977 -0.6293 -0.3278  1.0420
  130OSM   H17F14089   4.413   2.351   5.008 -0.7938  0.7759  0.9906
  130OSM   H17G14090   4.281   2.375   4.878  1.3128 -3.9207 -1.1844
  130OSM   C18F14091   4.280   2.182   4.958 -0.3624 -0.2973 -0.0712
  130OSM   H18F14092   4.184   2.176   4.902 -0.3487 -0.6896 -0.0534
  130OSM   H18G14093   4.287   2.117   5.048 -0.8525 -1.4665 -0.8430
  130OSM   H18H14094   4.350   2.138   4.884  0.1334 -2.2367  1.4696
  131OSM      N14095   0.001   6.593   6.756  0.7975 -0.3896 -1.0290
  131OSM    C1514096  -0.022   6.699   6.655  0.6586  0.0659 -0.3595
  131OSM   H15A14097  -0.009   6.660   6.555 -2.4504 -0.4032 -0.6772
  131OSM   H15B14098   0.052   6.777   6.669  0.9545  0.5491 -3.6158
  131OSM   H15C14099  -0.118   6.749   6.658  1.0139  0.7172  0.3958
  131OSM    C1414100  -0.041   6.657   6.879  0.1796 -0.2814 -0.0780
  131OSM   H14A14101  -0.036   6.595   6.968 -0.5397  1.5461  1.3133
  131OSM   H14B14102  -0.143   6.689   6.865  0.5334  0.6632 -0.5918
  131OSM   H14C14103   0.013   6.748   6.903  0.9741 -1.0625  1.2249
  131OSM    C1314104  -0.086   6.480   6.724 -0.6993 -0.0993  0.1285
  131OSM   H13A14105  -0.091   6.410   6.806 -1.9769  1.1748  1.2062
  131OSM   H13B14106  -0.054   6.427   6.636 -1.3459  2.2083 -1.6085
  131OSM   H13C14107  -0.186   6.520   6.712 -1.2044 -0.7322  1.9108
  131OSM    C1214108   0.146   6.547   6.763 -0.3527  0.7119  0.1069
  131OSM   H12A14109   0.205   6.630   6.799  1.9954 -1.1618  0.8372
  131OSM   H12B14110   0.181   6.520   6.664  0.5065  0.5351  0.4533
  131OSM    C1114111   0.189   6.438   6.867  0.3143 -0.5433  0.0280
  131OSM   H11A14112   0.145   6.341   6.835  3.2223 -1.7819 -0.5069
  131OSM   H11B14113   0.158   6.445   6.973 -2.7552 -2.9571 -0.5763
  131OSM      P14114   0.424   6.323   6.830 -0.4509  0.5652  0.1199
  131OSM    O1314115   0.554   6.389   6.815 -1.1485 -0.2555 -0.7070
  131OSM    O1414116   0.420   6.213   6.929  0.0425 -0.0956 -0.3450
  131OSM    O1114117   0.368   6.277   6.688 -0.0211  0.1071  0.4909
  131OSM    O1214118   0.327   6.434   6.878 -0.1278  0.1537  0.0992
  131OSM    C1S14119   0.466   6.263   6.580  0.2680 -0.1975 -0.1276
  131OSM    H1S14120   0.559   6.207   6.603 -0.0244 -0.6035  0.0888
  131OSM    H1T14121   0.508   6.361   6.548  2.9943 -1.5634 -1.1346
  131OSM     NF14122   0.478   6.196   6.334  0.3067 -0.2770 -0.1127
  131OSM    HNF14123   0.485   6.262   6.261  0.6979 -0.9977 -0.7409
  131OSM    C2S14124   0.388   6.213   6.454  0.4588  0.1305 -0.2920
  131OSM    H2S14125   0.345   6.116   6.485  0.2202 -0.0828 -1.2401
  131OSM    C3S14126   0.270   6.305   6.416  0.4564 -0.7432  0.1215
  131OSM    H3S14127   0.310   6.403   6.384  0.7398  0.3941  3.5025
  131OSM     O314128   0.170   6.323   6.513 -0.3750 -0.5792  0.4273
  131OSM    HO314129   0.214   6.328   6.598  0.3676 -0.9525  0.0729
  131OSM    C4S14130   0.191   6.254   6.299  0.2374 -0.4474 -0.2964
  131OSM    H4S14131   0.150   6.152   6.310 -2.7762  0.8564  2.0978
  131OSM    C5S14132   0.153   6.318   6.186  0.0410 -0.0423  0.4167
  131OSM    H5S14133   0.170   6.425   6.168 -2.2736  0.2978 -0.1521
  131OSM    C6S14134   0.082   6.243   6.079  0.0611 -0.3731 -0.3006
  131OSM    H6S14135  -0.014   6.289   6.048 -0.9941 -0.7800  2.0725
  131OSM    H6T14136   0.060   6.143   6.123 -1.4640  0.1160  0.1269
  131OSM    C7S14137   0.161   6.215   5.951  0.0575  0.5873 -0.4054
  131OSM    H7S14138   0.237   6.139   5.978 -1.4044 -0.4638  0.9365
  131OSM    H7T14139   0.216   6.305   5.917 -0.6096  0.2722 -2.5431
  131OSM    C8S14140   0.096   6.168   5.815  0.1370 -0.5172 -0.4091
  131OSM    H8S14141   0.034   6.250   5.773  1.0100  0.9546  1.0441
  131OSM    H8T14142   0.028   6.086   5.846 -1.5631  1.0125  0.1346
  131OSM    C9S14143   0.192   6.128   5.707 -0.2964  0.1090 -0.5189
  131OSM    H9S14144   0.254   6.041   5.735  2.4390  2.1517  0.1468
  131OSM    H9T14145   0.263   6.210   5.683  0.1365 -0.2735 -0.5494
  131OSM   C10S14146   0.124   6.094   5.574  0.2056  0.3532 -0.0492
  131OSM   H10S14147   0.062   6.182   5.547 -0.5871 -0.9119 -2.8102
  131OSM   H10T14148   0.061   6.002   5.570  0.9221 -0.2431  1.6858
  131OSM   C11S14149   0.223   6.063   5.458 -0.3960  0.1767  0.4721
  131OSM   H11S14150   0.282   5.972   5.484  0.2156  0.2568 -0.5999
  131OSM   H11T14151   0.293   6.147   5.442 -0.3963 -0.1649 -1.6704
  131OSM   C12S14152   0.152   6.039   5.325  0.1828 -0.6817  0.0725
  131OSM   H12S14153   0.136   6.144   5.291 -2.8760 -1.1707 -0.2278
  131OSM   H12T14154   0.053   5.991   5.339 -0.5424  1.1001  1.4359
  131OSM   C13S14155   0.230   5.954   5.227  0.3021 -0.0142 -0.1482
  131OSM   H13S14156   0.226   5.853   5.273 -1.5096  0.3269  0.5221
  131OSM   H13T14157   0.334   5.993   5.222 -0.2788  1.9493  1.4346
  131OSM   C14S14158   0.177   5.958   5.083  0.0397  0.7933 -0.6236
  131OSM   H14S14159   0.164   6.062   5.047 -0.8613  0.9254  0.0633
  131OSM   H14T14160   0.081   5.903   5.087  1.5268 -1.9606  0.0524
  131OSM   C15S14161   0.271   5.877   4.991  1.2017 -0.4133 -0.1810
  131OSM   H15S14162   0.291   5.779   5.041 -0.0150 -0.5645  0.0397
  131OSM   H15T14163   0.370   5.925   4.975  1.5394 -1.2021 -0.5399
  131OSM   C16S14164   0.194   5.846   4.859 -0.3955  0.2060  0.0260
  131OSM   H16S14165   0.175   5.935   4.796 -0.8782 -1.7976 -2.8085
  131OSM   H16T14166   0.095   5.810   4.892 -0.0721 -0.1023  0.6914
  131OSM   C17S14167   0.265   5.734   4.783  0.1493  0.0654 -0.2565
  131OSM   H17S14168   0.183   5.673   4.740  1.0554 -1.1010 -0.3994
  131OSM   H17T14169   0.331   5.659   4.832  0.2415  0.1505 -0.2491
  131OSM   C18S14170   0.323   5.789   4.652  0.0166  0.1703  0.3135
  131OSM   H18S14171   0.410   5.855   4.670  0.2470 -0.3643  1.1835
  131OSM   H18T14172   0.244   5.829   4.584  0.2551 -2.5056 -1.6741
  131OSM   H18U14173   0.351   5.703   4.588 -0.4802 -0.8113  1.3840
  131OSM    C1F14174   0.577   6.105   6.344  0.2259 -0.6183  0.0008
  131OSM     OF14175   0.600   6.037   6.441  0.0280 -0.2352 -0.3367
  131OSM    C2F14176   0.650   6.065   6.217 -0.0654  0.0557  0.6015
  131OSM    H2F14177   0.670   5.957   6.233 -1.9205 -0.4278 -0.0026
  131OSM    H2G14178   0.746   6.120   6.211  0.5797 -0.9004  1.6894
  131OSM    C3F14179   0.568   6.093   6.089  0.4651  0.0152 -0.2840
  131OSM    H3F14180   0.560   6.204   6.086 -0.5102  0.0008  0.8408
  131OSM    H3G14181   0.464   6.056   6.106  0.7407 -1.2548 -1.2714
  131OSM    C4F14182   0.622   6.022   5.960  0.1073 -0.0681 -0.5845
  131OSM    H4F14183   0.633   5.913   5.979  2.0660 -0.0134 -1.2577
  131OSM    H4G14184   0.723   6.058   5.932  0.6080 -1.0502 -0.0943
  131OSM    C5F14185   0.528   6.046   5.842  0.1702  0.3080  0.2913
  131OSM    H5F14186   0.510   6.153   5.817 -1.6239 -0.6134 -2.8318
  131OSM    H5G14187   0.423   6.019   5.866 -0.3137  1.2299 -0.7364
  131OSM    C6F14188   0.585   5.988   5.702  0.0118  0.1347  0.8152
  131OSM    H6F14189   0.670   6.050   5.665 -0.7215 -0.4372 -2.1405
  131OSM    H6G14190   0.502   6.006   5.629  0.6649 -0.5403 -0.1268
  131OSM    C7F14191   0.607   5.835   5.705  0.4086 -0.1012 -0.1804
  131OSM    H7F14192   0.516   5.784   5.743 -1.8436  2.9746 -1.0144
  131OSM    H7G14193   0.688   5.826   5.781  0.7387  0.6711 -0.4207
  131OSM    C8F14194   0.662   5.772   5.582  0.0603 -0.0906  0.4746
  131OSM    H8F14195   0.690   5.665   5.591  1.8409 -0.0243 -2.7560
  131OSM    H8G14196   0.758   5.819   5.552  0.6867 -0.2172  2.1226
  131OSM    C9F14197   0.559   5.775   5.474 -0.0711 -0.2546 -0.3252
  131OSM    H9F14198   0.456   5.756   5.508 -0.0344 -0.2950 -0.2348
  131OSM   C10F14199   0.568   5.829   5.348 -0.1447  0.9586 -0.0686
  131OSM   H10F14200   0.474   5.824   5.290 -0.8254  1.0373  0.9882
  131OSM   C11F14201   0.687   5.891   5.278  0.0769  0.7179  0.0532
  131OSM   H11F14202   0.774   5.888   5.346  0.3439  1.4119 -0.2514
  131OSM   H11G14203   0.681   6.001   5.273 -0.4414  0.6588 -1.1812
  131OSM   C12F14204   0.734   5.816   5.151  0.0261  0.8140 -0.1066
  131OSM   H12F14205   0.760   5.711   5.175 -0.7021  0.2503 -1.6533
  131OSM   H12G14206   0.824   5.869   5.112  0.1898 -0.4032 -1.4431
  131OSM   C13F14207   0.637   5.809   5.034  0.1487 -0.2343 -0.3583
  131OSM   H13F14208   0.608   5.914   5.011 -0.3852 -0.5216 -1.0139
  131OSM   H13G14209   0.542   5.764   5.069 -0.4743  1.9205  0.9667
  131OSM   C14F14210   0.689   5.729   4.915  0.1565  0.3978 -0.0621
  131OSM   H14F14211   0.613   5.697   4.841  1.6855 -1.0840 -1.0702
  131OSM   H14G14212   0.732   5.635   4.957  1.4786  1.8883  2.1363
  131OSM   C15F14213   0.801   5.791   4.836 -0.3069  0.6490  0.1427
  131OSM   H15F14214   0.836   5.718   4.760  0.4457  1.3307 -0.1780
  131OSM   H15G14215   0.887   5.806   4.905  0.6701  0.8131 -1.0789
  131OSM   C16F14216   0.783   5.935   4.791 -0.4209 -0.0387 -0.0509
  131OSM   H16F14217   0.859   5.952   4.711  0.5439  4.1393  1.4874
  131OSM   H16G14218   0.794   5.999   4.880  2.9125 -0.6983  0.1525
  131OSM   C17F14219   0.654   5.976   4.733 -0.2443  0.0758 -0.2108
  131OSM   H17F14220   0.586   5.978   4.821 -1.8454 -1.2031 -1.3674
  131OSM   H17G14221   0.615   5.896   4.667  0.8305  0.4513 -1.3499
  131OSM   C18F14222   0.639   6.113   4.661 -0.1492 -0.5749 -0.8596
  131OSM   H18F14223   0.693   6.114   4.564 -0.5464 -1.8133 -1.1043
  131OSM   H18G14224   0.674   6.202   4.719  0.2369 -2.1989  1.5299
  131OSM   H18H14225   0.535   6.139   4.629 -0.5121 -0.8518  0.0595
  132OSM      N14226   1.327   1.829   7.175  0.1227  0.1321  0.0520
  132OSM    C1514227   1.402   1.914   7.279 -0.0781 -0.3549 -0.3844
  132OSM   H15A14228   1.421   1.856   7.368  2.2956  0.0042 -0.5689
  132OSM   H15B14229   1.342   2.001   7.303 -0.8497 -1.3452  1.4851
  132OSM   H15C14230   1.499   1.936   7.236 -0.2079  1.0149 -0.0256
  132OSM    C1414231   1.394   1.691   7.170  0.3283 -0.1867 -0.8983
  132OSM   H14A14232   1.367   1.635   7.082  0.2311 -2.6631  0.5890
  132OSM   H14B14233   1.362   1.620   7.246  0.9232  0.1986 -0.2739
  132OSM   H14C14234   1.502   1.688   7.177  0.3044  0.0914 -0.2839
  132OSM    C1314235   1.182   1.814   7.206 -0.5443 -0.5843  0.3252
  132OSM   H13A14236   1.131   1.909   7.214  2.0434  1.1303 -1.8450
  132OSM   H13B14237   1.168   1.767   7.302  0.2536 -0.9200  0.2919
  132OSM   H13C14238   1.130   1.755   7.132 -2.3343 -0.6445  1.5765
  132OSM    C1214239   1.344   1.892   7.041 -0.1009 -0.2797  0.6333
  132OSM   H12A14240   1.447   1.885   7.009  0.2721 -2.7700  2.1437
  132OSM   H12B14241   1.327   1.997   7.061 -2.0596 -0.5170  0.4157
  132OSM    C1114242   1.264   1.840   6.925 -0.2861 -0.5195  0.4634
  132OSM   H11A14243   1.281   1.916   6.845  1.7162 -1.6150 -0.2357
  132OSM   H11B14244   1.156   1.825   6.947 -0.4594 -0.1299 -0.0766
  132OSM      P14245   1.231   1.600   6.827  0.1724 -0.1242 -0.1876
  132OSM    O1314246   1.321   1.493   6.779  0.2689  0.2357 -0.0645
  132OSM    O1414247   1.133   1.562   6.927  0.3848  0.0475  0.2680
  132OSM    O1114248   1.157   1.667   6.709  0.1956 -0.5798  0.6796
  132OSM    O1214249   1.322   1.714   6.883  0.1657  0.6165  0.4328
  132OSM    C1S14250   1.222   1.757   6.614  0.2580  0.4011  0.2410
  132OSM    H1S14251   1.332   1.755   6.619  0.4718  2.0884 -1.9678
  132OSM    H1T14252   1.182   1.859   6.635 -4.0637 -0.8350 -0.9322
  132OSM     NF14253   1.286   1.790   6.371 -0.3445  0.2637  0.1299
  132OSM    HNF14254   1.256   1.876   6.330 -1.4241 -0.0141  0.3101
  132OSM    C2S14255   1.195   1.723   6.464 -0.0754 -0.0351 -0.1179
  132OSM    H2S14256   1.219   1.615   6.458 -0.0509 -0.0109 -0.4892
  132OSM    C3S14257   1.045   1.749   6.437 -0.3267 -0.6274 -0.0141
  132OSM    H3S14258   1.018   1.856   6.445 -1.2862 -0.7180 -1.7229
  132OSM     O314259   0.952   1.670   6.513  0.1920 -0.2781 -0.6250
  132OSM    HO314260   1.000   1.629   6.585 -0.1896  0.0842 -0.1669
  132OSM    C4S14261   1.019   1.735   6.284 -0.0836 -0.7744 -0.5133
  132OSM    H4S14262   1.015   1.831   6.230 -2.0442 -1.1081 -1.0636
  132OSM    C5S14263   1.003   1.623   6.211 -0.0019  0.7424  0.5173
  132OSM    H5S14264   0.997   1.533   6.275  0.9971  0.4112  0.1547
  132OSM    C6S14265   0.984   1.606   6.064  0.5511 -0.2082  0.1439
  132OSM    H6S14266   0.959   1.701   6.013 -0.3217  0.2225  1.3279
  132OSM    H6T14267   0.889   1.551   6.047 -0.0185  0.7809  0.0502
  132OSM    C7S14268   1.093   1.530   5.991  0.3030  0.5209  0.4342
  132OSM    H7S14269   1.083   1.545   5.881 -0.1995  1.1990  0.5669
  132OSM    H7T14270   1.082   1.425   6.022 -1.3469  0.6837  0.4948
  132OSM    C8S14271   1.236   1.575   6.008 -0.1908 -0.6163 -0.3404
  132OSM    H8S14272   1.273   1.574   6.112  2.8315 -0.8311 -1.3202
  132OSM    H8T14273   1.237   1.679   5.968 -1.6723 -1.1128 -1.7454
  132OSM    C9S14274   1.350   1.504   5.921  0.1668  0.5139 -0.0010
  132OSM    H9S14275   1.322   1.509   5.813 -3.3652 -0.9539  0.7282
  132OSM    H9T14276   1.354   1.395   5.942  0.0092  0.3503 -0.7952
  132OSM   C10S14277   1.489   1.571   5.955 -0.9060  0.3743  0.2265
  132OSM   H10S14278   1.519   1.560   6.061 -0.1042  3.7661  0.4481
  132OSM   H10T14279   1.479   1.679   5.929  2.3165  0.5846 -0.5748
  132OSM   C11S14280   1.602   1.520   5.871  0.4083  0.5539  0.1616
  132OSM   H11S14281   1.615   1.412   5.897  2.8460  0.2689 -1.8471
  132OSM   H11T14282   1.693   1.575   5.903 -0.1702  1.9885 -0.5809
  132OSM   C12S14283   1.590   1.529   5.717 -0.2865  0.1407  0.0655
  132OSM   H12S14284   1.567   1.636   5.696 -0.8432  0.9065  3.8622
  132OSM   H12T14285   1.513   1.464   5.671 -1.6843 -0.5847  3.2037
  132OSM   C13S14286   1.731   1.495   5.649 -0.3109  0.3594  0.6742
  132OSM   H13S14287   1.765   1.402   5.698 -1.3479  0.1885  1.0993
  132OSM   H13T14288   1.800   1.573   5.688 -1.1295  0.0591  2.8767
  132OSM   C14S14289   1.721   1.489   5.495 -0.3315  0.5100 -0.1766
  132OSM   H14S14290   1.679   1.586   5.464 -0.4304  0.8878  1.0921
  132OSM   H14T14291   1.651   1.404   5.475  0.0019 -0.5975  2.9042
  132OSM   C15S14292   1.862   1.483   5.429  0.0825  0.7853  0.8156
  132OSM   H15S14293   1.899   1.379   5.419  0.2708  1.0110 -1.2849
  132OSM   H15T14294   1.939   1.536   5.489  0.8270  1.6625 -0.8693
  132OSM   C16S14295   1.867   1.545   5.287 -0.4584  0.1197 -0.2171
  132OSM   H16S14296   1.808   1.638   5.305  0.4076  0.4597  1.0419
  132OSM   H16T14297   1.822   1.476   5.213 -1.3570  1.6545 -1.1754
  132OSM   C17S14298   2.006   1.580   5.244 -0.2120  0.8777  0.2329
  132OSM   H17S14299   2.065   1.486   5.235  0.2361  1.2737 -1.1037
  132OSM   H17T14300   2.056   1.633   5.329  1.7193  1.8202 -1.4084
  132OSM   C18S14301   2.023   1.664   5.122  0.0177 -0.5710  0.3311
  132OSM   H18S14302   1.941   1.738   5.112  1.4124  1.0397  0.4157
  132OSM   H18T14303   2.011   1.592   5.038 -2.6145 -0.1751  0.2707
  132OSM   H18U14304   2.127   1.701   5.123  0.6390 -2.1999 -0.6424
  132OSM    C1F14305   1.421   1.765   6.372 -0.5625  0.6904 -0.7716
  132OSM     OF14306   1.473   1.665   6.420  0.5619  0.4460  0.0232
  132OSM    C2F14307   1.503   1.874   6.305  0.7377  0.2465 -0.7739
  132OSM    H2F14308   1.529   1.943   6.389 -0.0939  0.2473 -0.5052
  132OSM    H2G14309   1.446   1.936   6.233  0.9904  1.3664 -0.0404
  132OSM    C3F14310   1.624   1.815   6.237 -0.4019 -0.0300 -0.2596
  132OSM    H3F14311   1.596   1.727   6.175  3.3419 -1.2192 -0.4697
  132OSM    H3G14312   1.699   1.779   6.310  1.4643  4.0457  0.1181
  132OSM    C4F14313   1.693   1.918   6.147  0.0644  0.1486 -0.6946
  132OSM    H4F14314   1.751   1.986   6.213  0.8375 -0.9767 -0.1771
  132OSM    H4G14315   1.628   1.985   6.087 -0.5842  0.4823  0.3501
  132OSM    C5F14316   1.787   1.840   6.056  0.1841 -0.1432  0.1361
  132OSM    H5F14317   1.725   1.782   5.985 -0.7030 -0.2199  0.9575
  132OSM    H5G14318   1.843   1.766   6.117  1.5555  0.9785  0.2933
  132OSM    C6F14319   1.892   1.915   5.975  0.0477 -0.7494  0.6430
  132OSM    H6F14320   1.954   1.842   5.919 -1.1557  1.7386 -4.6358
  132OSM    H6G14321   1.945   1.967   6.058  0.9012 -0.9599  0.2378
  132OSM    C7F14322   1.830   2.023   5.878 -0.6021  0.0039 -0.3449
  132OSM    H7F14323   1.920   2.062   5.827 -1.1888  0.0677 -1.3656
  132OSM    H7G14324   1.792   2.103   5.946 -3.2917 -1.8987  0.6061
  132OSM    C8F14325   1.730   1.960   5.779 -0.3317  0.2507 -0.5048
  132OSM    H8F14326   1.691   2.047   5.722  1.2550 -0.2271 -2.4340
  132OSM    H8G14327   1.648   1.900   5.822 -0.6769 -0.4807 -2.1214
  132OSM    C9F14328   1.800   1.863   5.688 -0.1583 -1.1347 -0.9018
  132OSM    H9F14329   1.810   1.762   5.731 -2.6484 -0.7349  0.8575
  132OSM   C10F14330   1.850   1.889   5.566 -0.4539 -0.2081  0.2133
  132OSM   H10F14331   1.912   1.815   5.514  1.4496 -0.0391  2.0722
  132OSM   C11F14332   1.848   2.014   5.485 -0.1743 -0.3600 -0.5609
  132OSM   H11F14333   1.952   2.053   5.493 -0.6679  1.1594 -1.1334
  132OSM   H11G14334   1.777   2.091   5.522 -0.3969 -0.9362  0.2231
  132OSM   C12F14335   1.806   1.992   5.334 -0.5321 -0.2002 -0.3268
  132OSM   H12F14336   1.707   2.038   5.316  0.4012  1.6052 -1.1432
  132OSM   H12G14337   1.793   1.884   5.314  2.4238 -0.3939 -1.7554
  132OSM   C13F14338   1.898   2.044   5.229 -0.5605  0.9788 -0.9919
  132OSM   H13F14339   1.888   1.973   5.145 -0.0889 -0.0176 -0.2238
  132OSM   H13G14340   2.003   2.057   5.264 -0.9022 -0.3655  0.6357
  132OSM   C14F14341   1.848   2.178   5.171 -0.9690 -0.2039 -0.6947
  132OSM   H14F14342   1.923   2.234   5.112 -0.2603 -1.6546 -1.2087
  132OSM   H14G14343   1.816   2.237   5.260  0.5622  2.1363 -1.6076
  132OSM   C15F14344   1.723   2.174   5.081 -0.6207  0.8623  0.0431
  132OSM   H15F14345   1.684   2.278   5.082 -1.7339  0.4788 -0.7477
  132OSM   H15G14346   1.648   2.115   5.137 -0.9568  1.9398  0.7567
  132OSM   C16F14347   1.743   2.113   4.942  0.0158  0.1417  0.1144
  132OSM   H16F14348   1.733   2.003   4.944  0.6659 -0.1884 -4.4849
  132OSM   H16G14349   1.845   2.142   4.908  0.2526 -0.5311  0.2445
  132OSM   C17F14350   1.645   2.173   4.847  0.4373 -0.0140  1.4375
  132OSM   H17F14351   1.649   2.281   4.822 -0.3776  0.5359  3.4521
  132OSM   H17G14352   1.540   2.181   4.881 -0.6293  2.7005 -1.9726
  132OSM   C18F14353   1.655   2.099   4.707  0.0420 -0.7973 -1.4439
  132OSM   H18F14354   1.624   1.993   4.715  1.6081 -1.2187 -0.6564
  132OSM   H18G14355   1.755   2.100   4.660  0.6847  0.7056 -0.1389
  132OSM   H18H14356   1.592   2.157   4.635 -0.7599  0.9341  0.5334
  133OSM      N14357   4.487   1.174   6.828 -0.0024 -0.3167  0.2079
  133OSM    C1514358   4.357   1.107   6.797  0.7382 -0.4999 -0.1875
  133OSM   H15A14359   4.342   1.017   6.855  2.3331  0.3245  1.6067
  133OSM   H15B14360   4.340   1.089   6.692  0.2662  1.1029 -0.4091
  133OSM   H15C14361   4.281   1.178   6.827  1.2594  0.2520 -0.6377
  133OSM    C1414362   4.486   1.189   6.976  0.2033 -0.1992  0.7104
  133OSM   H14A14363   4.565   1.256   7.006  1.4986 -0.3325 -2.0160
  133OSM   H14B14364   4.485   1.096   7.032 -2.1969 -1.9129 -1.8561
  133OSM   H14C14365   4.390   1.234   6.999  0.0608 -0.2812  0.2970
  133OSM    C1314366   4.602   1.086   6.790 -0.4196  0.3164  0.5312
  133OSM   H13A14367   4.593   0.991   6.840 -1.6558  0.8060  1.2701
  133OSM   H13B14368   4.703   1.118   6.810  0.0769 -1.3835  0.9497
  133OSM   H13C14369   4.605   1.070   6.683 -2.7841  0.5137  0.3967
  133OSM    C1214370   4.485   1.314   6.763 -0.4104  0.0438 -0.0086
  133OSM   H12A14371   4.469   1.295   6.658  1.0958  1.6742 -0.5843
  133OSM   H12B14372   4.576   1.372   6.766 -0.5873  0.3228  0.0944
  133OSM    C1114373   4.366   1.410   6.803  0.2547 -0.0558 -1.0905
  133OSM   H11A14374   4.397   1.513   6.774  0.9226  0.2942  0.7293
  133OSM   H11B14375   4.350   1.419   6.913  0.0652  2.0185 -1.2525
  133OSM      P14376   4.110   1.369   6.804 -0.0928 -0.0886  0.5194
  133OSM    O1314377   4.113   1.250   6.890  0.1063  0.6579  0.4589
  133OSM    O1414378   4.070   1.504   6.856  0.2558 -0.4903  0.1337
  133OSM    O1114379   4.023   1.339   6.680 -0.0179  0.6201 -0.3356
  133OSM    O1214380   4.247   1.373   6.735 -0.7906 -0.4273 -0.0423
  133OSM    C1S14381   4.016   1.423   6.565 -0.7434 -0.2975  0.2222
  133OSM    H1S14382   4.031   1.530   6.593  1.3665  0.1673 -2.2793
  133OSM    H1T14383   3.913   1.413   6.525 -0.2403  0.6356 -1.4266
  133OSM     NF14384   4.078   1.447   6.315 -0.5755 -0.1259 -0.2504
  133OSM    HNF14385   4.062   1.393   6.233  1.9805 -1.8877  0.3101
  133OSM    C2S14386   4.105   1.379   6.440 -0.2676 -0.3205  0.2848
  133OSM    H2S14387   4.208   1.411   6.465  0.4236 -1.8991 -0.4082
  133OSM    C3S14388   4.097   1.224   6.415  0.6383 -0.9648  0.5153
  133OSM    H3S14389   3.998   1.207   6.367 -0.3768 -1.2606  2.6362
  133OSM     O314390   4.100   1.133   6.527 -0.1774 -0.2081 -0.6998
  133OSM    HO314391   4.052   1.173   6.600 -0.6974 -1.7735 -0.1352
  133OSM    C4S14392   4.200   1.183   6.315 -0.4393  0.0579  0.2873
  133OSM    H4S14393   4.156   1.171   6.215 -1.6351 -1.3144  0.9458
  133OSM    C5S14394   4.330   1.149   6.331  0.3925 -0.5180 -0.0109
  133OSM    H5S14395   4.373   1.155   6.432  0.0383 -0.9431  0.1731
  133OSM    C6S14396   4.427   1.098   6.227 -0.3291  0.0204  0.3029
  133OSM    H6S14397   4.437   0.987   6.225 -2.4614 -0.2488 -2.4862
  133OSM    H6T14398   4.526   1.147   6.240  0.2172 -1.0811  0.4500
  133OSM    C7S14399   4.391   1.141   6.084  0.1311 -0.2827 -0.0529
  133OSM    H7S14400   4.375   1.251   6.078 -0.9282 -0.5044 -2.3781
  133OSM    H7T14401   4.293   1.092   6.062  0.7846 -3.2406  2.8993
  133OSM    C8S14402   4.500   1.106   5.983  0.0106  1.0046  0.2213
  133OSM    H8S14403   4.518   0.997   5.990 -0.2138  0.8931 -0.7483
  133OSM    H8T14404   4.603   1.144   6.003  0.5715 -0.2274 -0.2194
  133OSM    C9S14405   4.469   1.130   5.830  0.6298  0.0320  0.3622
  133OSM    H9S14406   4.487   1.235   5.801 -0.7809 -0.1722 -1.4335
  133OSM    H9T14407   4.359   1.122   5.814  0.4724  3.7285 -1.3190
  133OSM   C10S14408   4.542   1.025   5.746  0.4501 -0.9394 -0.1643
  133OSM   H10S14409   4.498   0.929   5.781 -1.6928 -0.0148 -0.1671
  133OSM   H10T14410   4.650   1.045   5.760  0.1649  0.5144  0.1230
  133OSM   C11S14411   4.505   1.038   5.599  0.5975  0.0312 -0.2536
  133OSM   H11S14412   4.541   1.135   5.557 -0.9620  1.0618  0.6802
  133OSM   H11T14413   4.395   1.047   5.587  0.8258  2.2076 -1.2859
  133OSM   C12S14414   4.563   0.926   5.514 -0.1258 -0.0166 -0.2049
  133OSM   H12S14415   4.542   0.824   5.551 -0.8361 -0.7207 -2.3947
  133OSM   H12T14416   4.672   0.939   5.527 -0.3255  0.7919  0.8115
  133OSM   C13S14417   4.521   0.930   5.365 -0.2688  0.6060  0.1628
  133OSM   H13S14418   4.414   0.960   5.359 -0.3208  0.3388 -0.2783
  133OSM   H13T14419   4.535   0.824   5.332  1.1184  0.9430 -0.4011
  133OSM   C14S14420   4.615   1.001   5.275 -0.5677 -0.6021  0.1230
  133OSM   H14S14421   4.637   1.102   5.317  1.2585 -2.4327  4.1326
  133OSM   H14T14422   4.558   1.018   5.181 -2.0296 -0.6733  0.9649
  133OSM   C15S14423   4.749   0.925   5.223  0.3120 -0.8054  0.3833
  133OSM   H15S14424   4.798   0.999   5.157 -3.3656  1.4235 -0.1191
  133OSM   H15T14425   4.708   0.844   5.159  1.3354  0.6031 -2.1864
  133OSM   C16S14426   4.841   0.871   5.331  0.6273  1.0002 -0.3809
  133OSM   H16S14427   4.786   0.784   5.374  0.8781  1.3604  0.6969
  133OSM   H16T14428   4.870   0.944   5.409  0.5636 -1.2184  1.8472
  133OSM   C17S14429   4.974   0.809   5.273  0.5090 -0.0960  0.2821
  133OSM   H17S14430   5.029   0.765   5.359  0.2650  0.2474  0.6167
  133OSM   H17T14431   5.036   0.897   5.245 -1.6207  0.7090 -2.4008
  133OSM   C18S14432   4.966   0.711   5.156 -0.5735 -0.1833 -0.3141
  133OSM   H18S14433   5.066   0.707   5.108  0.2876  1.9128  1.1549
  133OSM   H18T14434   4.900   0.761   5.082 -1.6691  0.1292  0.8448
  133OSM   H18U14435   4.922   0.611   5.176 -2.1468  0.6295  0.4991
  133OSM    C1F14436   4.080   1.577   6.295  0.0019  0.2381  0.1242
  133OSM     OF14437   4.128   1.648   6.380 -0.1017  0.1187  1.0453
  133OSM    C2F14438   4.045   1.626   6.155 -0.4212  0.0840 -0.0104
  133OSM    H2F14439   3.944   1.586   6.129  0.5849 -1.2887 -2.0504
  133OSM    H2G14440   4.122   1.592   6.083  0.4861  1.1880  0.4042
  133OSM    C3F14441   4.064   1.776   6.156 -0.7004 -0.4736  0.5901
  133OSM    H3F14442   4.169   1.807   6.176 -0.8482 -0.4302  1.3279
  133OSM    H3G14443   4.011   1.823   6.242 -0.7901  0.4382  0.0452
  133OSM    C4F14444   4.029   1.849   6.027 -0.4534 -0.1565 -0.1267
  133OSM    H4F14445   3.992   1.951   6.051 -1.9752 -0.8133  0.3740
  133OSM    H4G14446   3.936   1.805   5.987  0.3120  0.0998 -2.3600
  133OSM    C5F14447   4.137   1.865   5.919 -0.9818  0.3034  0.0147
  133OSM    H5F14448   4.186   1.766   5.912  1.1655  1.0606  2.3473
  133OSM    H5G14449   4.217   1.935   5.954 -0.0808 -0.6741 -0.0365
  133OSM    C6F14450   4.078   1.908   5.781  0.4004  0.3105 -0.3748
  133OSM    H6F14451   4.028   2.006   5.797 -2.5574 -0.9996 -0.8635
  133OSM    H6G14452   3.997   1.838   5.751 -2.0688  1.5580  2.7932
  133OSM    C7F14453   4.187   1.902   5.676 -0.5987  0.4388 -0.5743
  133OSM    H7F14454   4.216   1.795   5.670 -0.0116  0.4382  1.4583
  133OSM    H7G14455   4.278   1.957   5.707  0.1013  0.3226 -2.3250
  133OSM    C8F14456   4.128   1.947   5.543  0.3588 -0.0461  0.6018
  133OSM    H8F14457   4.084   2.048   5.562 -1.4433 -0.8295  0.7866
  133OSM    H8G14458   4.044   1.875   5.528  0.3048  0.1541 -0.0913
  133OSM    C9F14459   4.230   1.941   5.432  0.1212  0.4028  0.0645
  133OSM    H9F14460   4.304   2.023   5.430  1.8860 -1.0854 -2.8537
  133OSM   C10F14461   4.236   1.851   5.336 -0.7041  0.3191 -0.0944
  133OSM   H10F14462   4.323   1.852   5.269 -0.1857 -1.3567  0.5061
  133OSM   C11F14463   4.146   1.736   5.314  0.3228 -0.1259  0.5048
  133OSM   H11F14464   4.052   1.750   5.370 -1.5202  0.6560 -2.5602
  133OSM   H11G14465   4.188   1.635   5.335 -0.6144 -1.0276 -1.6627
  133OSM   C12F14466   4.091   1.727   5.169 -0.5066  0.1389  0.1190
  133OSM   H12F14467   4.033   1.820   5.149  0.5669  0.8852  0.4026
  133OSM   H12G14468   4.013   1.647   5.174 -0.4232  0.1038  1.4033
  133OSM   C13F14469   4.193   1.696   5.058  0.3577  0.3837 -0.5383
  133OSM   H13F14470   4.223   1.590   5.067  1.3380  0.6932 -0.0632
  133OSM   H13G14471   4.283   1.760   5.066  0.9978 -0.6453  0.8775
  133OSM   C14F14472   4.149   1.706   4.919  0.3512  0.8204  0.4014
  133OSM   H14F14473   4.238   1.688   4.856  0.6641 -0.4061  1.1479
  133OSM   H14G14474   4.126   1.812   4.896 -1.6627 -0.1461 -2.6775
  133OSM   C15F14475   4.024   1.634   4.883 -0.4619  0.0839  0.2376
  133OSM   H15F14476   3.949   1.658   4.962  1.4305  0.8918  1.8710
  133OSM   H15G14477   4.043   1.525   4.890 -0.9656 -0.1294 -1.3333
  133OSM   C16F14478   3.966   1.684   4.746 -0.8015  0.9758 -0.4171
  133OSM   H16F14479   3.981   1.794   4.744 -2.6269  1.4047  2.9256
  133OSM   H16G14480   3.862   1.643   4.746  0.5474 -2.8912  1.1933
  133OSM   C17F14481   4.045   1.618   4.629  0.2592 -0.3168 -0.1606
  133OSM   H17F14482   4.035   1.508   4.643 -0.3730 -0.2108  0.2599
  133OSM   H17G14483   4.152   1.647   4.637 -0.1680  2.7741 -3.0618
  133OSM   C18F14484   3.997   1.658   4.491  0.5483 -1.3947  0.1427
  133OSM   H18F14485   3.891   1.630   4.474 -0.3692  0.8772  1.5709
  133OSM   H18G14486   4.072   1.603   4.431  3.7998 -1.0000  3.4643
  133OSM   H18H14487   4.011   1.768   4.485 -0.5680 -1.1791  1.0589
  134OSM      N14488   4.094   0.753   6.574  0.1939 -0.0239  0.3273
  134OSM    C1514489   4.149   0.623   6.635 -0.3843  0.0847  0.6621
  134OSM   H15A14490   4.086   0.601   6.720 -0.2788  4.7370  2.2493
  134OSM   H15B14491   4.251   0.639   6.668 -0.6453 -0.5011  1.8167
  134OSM   H15C14492   4.156   0.546   6.561  1.8830  1.0273 -0.2048
  134OSM    C1414493   4.120   0.863   6.664  0.2863  1.0114 -0.5096
  134OSM   H14A14494   4.090   0.961   6.627  1.1991  1.5214  0.0616
  134OSM   H14B14495   4.222   0.872   6.696  0.2409 -1.4876  0.5196
  134OSM   H14C14496   4.064   0.841   6.753  1.1249 -0.5833 -0.3531
  134OSM    C1314497   4.160   0.773   6.439 -0.3292 -0.6298 -0.1648
  134OSM   H13A14498   4.147   0.689   6.372 -2.0793  0.5455 -1.3857
  134OSM   H13B14499   4.265   0.797   6.451 -0.1595 -0.1448 -2.1894
  134OSM   H13C14500   4.134   0.863   6.386  1.3245  0.3643  0.6225
  134OSM    C1214501   3.948   0.743   6.554 -0.0410 -0.1869  0.0961
  134OSM   H12A14502   3.929   0.641   6.523 -0.1713 -0.1291 -0.0180
  134OSM   H12B14503   3.913   0.814   6.481 -2.2824  0.3920  1.6396
  134OSM    C1114504   3.855   0.757   6.678 -0.2122 -0.0209 -0.3072
  134OSM   H11A14505   3.751   0.736   6.646 -0.0912  1.0098 -1.4208
  134OSM   H11B14506   3.843   0.863   6.709 -0.8545 -0.0797 -0.3374
  134OSM      P14507   3.841   0.534   6.820 -0.1827 -0.1799 -0.4569
  134OSM    O1314508   3.947   0.455   6.896 -0.0749 -0.7348 -0.4261
  134OSM    O1414509   3.711   0.534   6.886 -0.3194  0.0292  0.5500
  134OSM    O1114510   3.833   0.475   6.669  0.0646 -0.0286  0.1449
  134OSM    O1214511   3.896   0.682   6.794  0.2330  0.1491 -0.2653
  134OSM    C1S14512   3.705   0.430   6.627  0.8118 -0.2153 -0.3625
  134OSM    H1S14513   3.637   0.518   6.624 -1.5468 -1.9675 -0.6514
  134OSM    H1T14514   3.662   0.352   6.693  1.9882  0.0536  0.7662
  134OSM     NF14515   3.585   0.401   6.415  0.6578  0.3609 -0.2796
  134OSM    HNF14516   3.519   0.327   6.412 -1.1497  1.9244 -1.0005
  134OSM    C2S14517   3.712   0.382   6.480  0.0431  0.2320 -0.1480
  134OSM    H2S14518   3.774   0.451   6.419  0.2383 -0.7757 -1.1084
  134OSM    C3S14519   3.781   0.241   6.468 -0.1032 -0.3767 -0.2485
  134OSM    H3S14520   3.714   0.173   6.525 -1.2007  1.0266  0.2188
  134OSM     O314521   3.904   0.237   6.539  0.7056 -0.3732  0.4673
  134OSM    HO314522   3.906   0.321   6.585  0.4683  0.0763 -0.3255
  134OSM    C4S14523   3.801   0.206   6.322 -0.7513  0.8286 -0.4494
  134OSM    H4S14524   3.708   0.170   6.277  0.0713  0.1848 -1.6925
  134OSM    C5S14525   3.912   0.212   6.243 -0.2266 -0.5568 -0.3219
  134OSM    H5S14526   3.998   0.269   6.281 -0.2113 -1.2573  0.7331
  134OSM    C6S14527   3.924   0.186   6.100 -0.1958  0.2940 -0.7700
  134OSM    H6S14528   4.015   0.130   6.069  0.0323  0.1406  0.1526
  134OSM    H6T14529   3.930   0.286   6.051 -1.3489  0.3950 -0.7270
  134OSM    C7S14530   3.796   0.113   6.042 -0.0199  0.7292  0.5149
  134OSM    H7S14531   3.716   0.189   6.032 -1.3444 -0.8115 -1.1946
  134OSM    H7T14532   3.766   0.031   6.112 -0.8450 -1.0552 -1.8057
  134OSM    C8S14533   3.830   0.043   5.909  0.6371  0.5434  0.7464
  134OSM    H8S14534   3.909  -0.032   5.933 -0.4959 -1.0868 -0.3888
  134OSM    H8T14535   3.860   0.126   5.842  2.0683 -0.2831  0.3074
  134OSM    C9S14536   3.712  -0.023   5.835 -0.0075 -0.1704 -0.1941
  134OSM    H9S14537   3.631   0.053   5.838  1.1310  1.0622  0.2978
  134OSM    H9T14538   3.690  -0.110   5.900 -0.8342 -0.5281 -0.9188
  134OSM   C10S14539   3.753  -0.074   5.705 -0.2292 -0.4406 -0.7191
  134OSM   H10S14540   3.691  -0.159   5.668 -0.1921 -1.1133  0.7086
  134OSM   H10T14541   3.856  -0.116   5.708  0.4349  1.1861  1.2604
  134OSM   C11S14542   3.765   0.032   5.595 -0.7961  0.7812 -0.0799
  134OSM   H11S14543   3.828   0.111   5.640 -0.0277 -0.4097  1.0143
  134OSM   H11T14544   3.663   0.071   5.571 -0.4182  2.9048  1.4764
  134OSM   C12S14545   3.831  -0.016   5.465 -0.5992 -0.4018 -0.1928
  134OSM   H12S14546   3.911  -0.090   5.488 -2.4500 -2.0795  1.2921
  134OSM   H12T14547   3.881   0.070   5.416 -0.7611  0.2697  0.7759
  134OSM   C13S14548   3.729  -0.093   5.378 -0.3748  0.5688 -0.0195
  134OSM   H13S14549   3.647  -0.020   5.360 -0.9918 -0.2222 -0.4769
  134OSM   H13T14550   3.679  -0.171   5.439 -0.0690 -0.2032 -0.7321
  134OSM   C14S14551   3.788  -0.142   5.244  0.2355  0.2530 -0.0894
  134OSM   H14S14552   3.716  -0.215   5.202 -0.0978  1.4951 -1.7765
  134OSM   H14T14553   3.871  -0.211   5.268  0.5422  0.7654  0.3520
  134OSM   C15S14554   3.827  -0.032   5.141  0.7066 -0.1607 -0.2807
  134OSM   H15S14555   3.929   0.001   5.170  0.1134  0.7269  0.8935
  134OSM   H15T14556   3.755   0.052   5.154 -0.3443 -1.0889 -0.0108
  134OSM   C16S14557   3.821  -0.099   4.999  0.7966  0.1995 -0.0624
  134OSM   H16S14558   3.715  -0.135   4.995  0.5908  0.8714 -0.6995
  134OSM   H16T14559   3.885  -0.189   4.991 -0.7273 -0.7707 -2.7104
  134OSM   C17S14560   3.840  -0.014   4.882 -0.3039 -0.0606 -0.4038
  134OSM   H17S14561   3.942   0.027   4.899  0.2698 -0.7161 -2.0342
  134OSM   H17T14562   3.773   0.074   4.894 -1.7346 -1.2732  0.8663
  134OSM   C18S14563   3.840  -0.091   4.752 -0.0795 -0.1852 -0.0939
  134OSM   H18S14564   3.879  -0.195   4.753 -2.2816 -1.0843 -0.8117
  134OSM   H18T14565   3.906  -0.036   4.682  0.8735 -1.4561 -0.2297
  134OSM   H18U14566   3.742  -0.087   4.700 -0.8528  3.0242  1.3756
  134OSM    C1F14567   3.537   0.525   6.386 -0.1382  0.2063 -0.2115
  134OSM     OF14568   3.606   0.625   6.379 -0.2338  0.3133  0.0376
  134OSM    C2F14569   3.387   0.540   6.370 -0.4417 -0.1623 -0.1434
  134OSM    H2F14570   3.358   0.637   6.415 -0.5772 -0.0391 -0.4960
  134OSM    H2G14571   3.328   0.462   6.422  0.6917 -2.6821 -2.3976
  134OSM    C3F14572   3.340   0.540   6.225  0.3327  0.1480 -0.0499
  134OSM    H3F14573   3.229   0.544   6.232  0.4517  2.4787  1.6786
  134OSM    H3G14574   3.370   0.446   6.175  0.0636  1.2815 -2.5156
  134OSM    C4F14575   3.392   0.669   6.167  0.1194 -0.6434 -0.1633
  134OSM    H4F14576   3.503   0.671   6.163  0.1415 -0.4190  0.5099
  134OSM    H4G14577   3.356   0.758   6.223  1.5861 -0.7312  0.9851
  134OSM    C5F14578   3.346   0.667   6.024 -0.0866 -0.2456 -0.0580
  134OSM    H5F14579   3.237   0.685   6.029 -0.0576 -0.3351  1.4336
  134OSM    H5G14580   3.377   0.581   5.961  1.4239  1.1377 -1.3361
  134OSM    C6F14581   3.396   0.790   5.949  0.6726  0.1137  0.5942
  134OSM    H6F14582   3.506   0.804   5.957  0.7094  0.6405 -0.5944
  134OSM    H6G14583   3.344   0.878   5.993 -0.8610 -0.2594 -0.3877
  134OSM    C7F14584   3.353   0.777   5.801 -0.1140  0.2228  0.1358
  134OSM    H7F14585   3.247   0.746   5.811  0.5287 -2.0331  0.6861
  134OSM    H7G14586   3.397   0.686   5.755  0.4697  1.3260 -1.5927
  134OSM    C8F14587   3.387   0.898   5.713  0.2749 -0.3935  0.1469
  134OSM    H8F14588   3.338   0.988   5.756  1.2978 -0.3205  1.2345
  134OSM    H8G14589   3.344   0.885   5.612  1.5721  3.0997 -1.0214
  134OSM    C9F14590   3.532   0.913   5.696 -0.0658 -0.2403  0.4742
  134OSM    H9F14591   3.580   0.961   5.783 -2.6191  2.4974  0.5378
  134OSM   C10F14592   3.607   0.898   5.587 -0.4462 -0.1507  0.2245
  134OSM   H10F14593   3.716   0.909   5.602 -0.5747  0.7711  0.5241
  134OSM   C11F14594   3.552   0.856   5.456  0.0467  0.5148 -0.7094
  134OSM   H11F14595   3.459   0.799   5.478  0.6030  0.5716  2.0895
  134OSM   H11G14596   3.623   0.791   5.399  0.9719  0.1123  0.8476
  134OSM   C12F14597   3.510   0.982   5.372  0.1555  0.5726 -0.1191
  134OSM   H12F14598   3.599   1.049   5.372  0.5851  0.0233  1.2826
  134OSM   H12G14599   3.428   1.038   5.421  0.5254 -0.0375  1.2510
  134OSM   C13F14600   3.447   0.965   5.233 -0.0559 -0.5379  0.5737
  134OSM   H13F14601   3.399   1.058   5.198 -0.4946 -1.2572 -0.7898
  134OSM   H13G14602   3.364   0.892   5.226 -1.5321  1.1458 -0.2520
  134OSM   C14F14603   3.549   0.934   5.109 -0.2288 -0.6417 -0.3051
  134OSM   H14F14604   3.593   0.834   5.128  1.7269 -0.1762 -2.1519
  134OSM   H14G14605   3.629   1.011   5.104 -1.5064  0.6683 -1.9912
  134OSM   C15F14606   3.490   0.936   4.973  0.2580  0.1049 -1.1148
  134OSM   H15F14607   3.489   1.039   4.933  0.3288 -0.7932 -3.5880
  134OSM   H15G14608   3.382   0.912   4.987  0.4699  0.2757  1.2371
  134OSM   C16F14609   3.556   0.835   4.883  0.6011 -0.5121  0.2389
  134OSM   H16F14610   3.482   0.806   4.806  0.2784  1.6985 -0.3692
  134OSM   H16G14611   3.585   0.738   4.929  0.8909 -1.0802 -1.1181
  134OSM   C17F14612   3.687   0.893   4.827  0.6268 -0.1761 -0.1984
  134OSM   H17F14613   3.753   0.908   4.915  1.7195 -0.3198 -0.9756
  134OSM   H17G14614   3.667   0.992   4.779  0.9651  0.6336  1.2575
  134OSM   C18F14615   3.749   0.803   4.722  0.0735  0.5069  0.7869
  134OSM   H18F14616   3.671   0.770   4.649  0.4417 -0.4098  0.7877
  134OSM   H18G14617   3.789   0.712   4.771  0.9003 -0.4646 -1.5276
  134OSM   H18H14618   3.826   0.857   4.662  0.6602 -0.6496  0.4656
  135OSM      N14619   4.139   3.596   6.750 -0.4943  0.4063  0.2900
  135OSM    C1514620   4.185   3.483   6.661  0.1274 -0.4963 -0.7559
  135OSM   H15A14621   4.239   3.420   6.731 -0.6440 -0.5560 -0.1933
  135OSM   H15B14622   4.250   3.513   6.581  0.5144 -0.2468 -0.3488
  135OSM   H15C14623   4.104   3.429   6.613 -1.0950 -0.0865  0.7628
  135OSM    C1414624   4.250   3.630   6.841 -0.0151  0.2887  0.1782
  135OSM   H14A14625   4.221   3.697   6.921  2.3738 -0.7170  2.0255
  135OSM   H14B14626   4.333   3.663   6.780  0.0242  1.1997  0.6947
  135OSM   H14C14627   4.289   3.542   6.890 -0.5461  0.9601  1.9185
  135OSM    C1314628   4.125   3.710   6.655 -0.1434  0.0003 -0.2510
  135OSM   H13A14629   4.076   3.669   6.567  1.8423  3.0633 -3.0283
  135OSM   H13B14630   4.220   3.742   6.615  0.7776 -2.2770 -0.0138
  135OSM   H13C14631   4.069   3.792   6.697  1.0371  1.3082 -1.1585
  135OSM    C1214632   4.010   3.553   6.817 -0.2564  0.2333 -0.1213
  135OSM   H12A14633   3.962   3.631   6.872 -1.8773 -0.1591 -0.9170
  135OSM   H12B14634   4.040   3.479   6.890  0.6045  0.0231 -0.6580
  135OSM    C1114635   3.900   3.485   6.729 -0.1768  0.4477  0.0670
  135OSM   H11A14636   3.832   3.436   6.802 -1.1101  1.7201  0.0866
  135OSM   H11B14637   3.948   3.404   6.670  4.0265  1.2371  2.0782
  135OSM      P14638   3.683   3.607   6.637  0.1955  0.1161  0.1175
  135OSM    O1314639   3.605   3.496   6.572  0.0060 -0.1942  0.5233
  135OSM    O1414640   3.664   3.630   6.781 -0.4110  0.0225 -0.1575
  135OSM    O1114641   3.670   3.738   6.539 -0.9735  0.2270 -0.3671
  135OSM    O1214642   3.834   3.569   6.631 -0.0954 -0.4495 -0.1571
  135OSM    C1S14643   3.731   3.744   6.413 -0.5072  0.8536 -0.1062
  135OSM    H1S14644   3.815   3.672   6.405 -0.1224  1.2234  0.4716
  135OSM    H1T14645   3.771   3.847   6.400 -0.2423  0.6716 -0.7409
  135OSM     NF14646   3.697   3.671   6.175  0.2397 -0.4650 -0.9071
  135OSM    HNF14647   3.681   3.734   6.100 -0.8264 -0.1396 -0.4383
  135OSM    C2S14648   3.628   3.708   6.299 -0.4665 -0.5923 -0.0100
  135OSM    H2S14649   3.570   3.619   6.330  1.5539 -2.3351 -0.9661
  135OSM    C3S14650   3.524   3.825   6.282 -0.0079  0.4933 -0.7233
  135OSM    H3S14651   3.585   3.913   6.253 -0.3594  0.7414 -0.7175
  135OSM     O314652   3.463   3.864   6.407  0.0710  0.0190 -0.9813
  135OSM    HO314653   3.517   3.810   6.465  0.5424  0.0935 -1.3427
  135OSM    C4S14654   3.406   3.804   6.192 -0.4911 -0.0453 -0.7957
  135OSM    H4S14655   3.367   3.701   6.202  2.9451 -1.2985  1.6416
  135OSM    C5S14656   3.366   3.886   6.094 -0.1118  0.1875  0.2931
  135OSM    H5S14657   3.418   3.979   6.066  1.2512 -0.5235  0.4115
  135OSM    C6S14658   3.277   3.825   5.984 -0.1298 -0.2015  0.3576
  135OSM    H6S14659   3.221   3.912   5.942  0.6474 -0.7567 -1.9540
  135OSM    H6T14660   3.204   3.755   6.029  0.2907  0.2716  1.8267
  135OSM    C7S14661   3.357   3.758   5.869 -0.0451  0.1784 -0.0335
  135OSM    H7S14662   3.387   3.659   5.909 -1.2216 -1.1436 -2.2229
  135OSM    H7T14663   3.451   3.814   5.847 -0.9279  1.7124 -0.0479
  135OSM    C8S14664   3.270   3.740   5.743  0.4046 -0.4667 -0.5908
  135OSM    H8S14665   3.270   3.834   5.683  0.1910 -1.2224 -1.8092
  135OSM    H8T14666   3.169   3.699   5.763 -0.0647  0.5009 -0.8940
  135OSM    C9S14667   3.347   3.635   5.667 -0.4784  0.7919 -0.0813
  135OSM    H9S14668   3.362   3.547   5.733 -0.0635  0.1801 -0.9683
  135OSM    H9T14669   3.446   3.681   5.649 -0.9404  0.7110 -3.5722
  135OSM   C10S14670   3.284   3.601   5.528 -0.1160 -0.0640  0.6969
  135OSM   H10S14671   3.267   3.697   5.475  0.0635 -1.3511 -1.8661
  135OSM   H10T14672   3.188   3.544   5.529 -1.4791  2.0916 -0.4375
  135OSM   C11S14673   3.394   3.534   5.436  0.4806  0.0233  0.2877
  135OSM   H11S14674   3.360   3.543   5.331  4.0712  1.0574 -0.9344
  135OSM   H11T14675   3.411   3.428   5.465 -0.5076 -0.1248  0.3503
  135OSM   C12S14676   3.531   3.594   5.440 -0.1801  0.3755  0.6745
  135OSM   H12S14677   3.587   3.555   5.528 -0.9664 -0.5160  0.7910
  135OSM   H12T14678   3.531   3.705   5.439 -0.3640  0.3839 -1.1904
  135OSM   C13S14679   3.607   3.554   5.313  0.0455  0.1654  0.3644
  135OSM   H13S14680   3.551   3.598   5.227 -1.4296  1.3390  1.8460
  135OSM   H13T14681   3.585   3.449   5.284  3.3629 -0.4010 -0.5481
  135OSM   C14S14682   3.750   3.593   5.304  0.4013  0.1455  0.2452
  135OSM   H14S14683   3.801   3.528   5.378 -0.3775  0.0582  0.7112
  135OSM   H14T14684   3.767   3.697   5.340 -1.0804 -0.3186  2.5213
  135OSM   C15S14685   3.809   3.573   5.159 -0.7652 -0.1504 -0.0217
  135OSM   H15S14686   3.785   3.467   5.135 -1.1421  0.2934 -1.7369
  135OSM   H15T14687   3.919   3.584   5.149 -0.3961 -3.2164 -0.2262
  135OSM   C16S14688   3.744   3.660   5.055 -0.1270 -0.2095 -0.7460
  135OSM   H16S14689   3.736   3.766   5.090  1.2747  0.3616 -2.0565
  135OSM   H16T14690   3.645   3.611   5.043  0.3492 -1.0373 -1.3447
  135OSM   C17S14691   3.803   3.651   4.913  0.1419 -0.1755 -0.1637
  135OSM   H17S14692   3.893   3.717   4.909 -0.4484  0.8153  1.8205
  135OSM   H17T14693   3.728   3.690   4.841  0.6892  2.5108  0.6197
  135OSM   C18S14694   3.849   3.510   4.858 -0.3978 -0.3251 -0.1557
  135OSM   H18S14695   3.927   3.469   4.926  1.2652  0.5656 -1.4284
  135OSM   H18T14696   3.886   3.517   4.753 -1.5614  0.4633 -0.5366
  135OSM   H18U14697   3.765   3.438   4.853  0.1025 -0.9970  0.8740
  135OSM    C1F14698   3.779   3.572   6.164  1.0544 -0.1843 -0.3166
  135OSM     OF14699   3.777   3.493   6.255 -0.2557 -0.6049  0.2358
  135OSM    C2F14700   3.871   3.559   6.052  0.4461 -0.3911  0.5415
  135OSM    H2F14701   3.968   3.608   6.074  0.9944 -1.0372 -0.3501
  135OSM    H2G14702   3.816   3.610   5.970  0.1424 -1.3907  0.1044
  135OSM    C3F14703   3.896   3.409   6.033  0.4078  0.1326  0.4447
  135OSM    H3F14704   3.809   3.343   6.013  2.0764 -2.2843  0.7563
  135OSM    H3G14705   3.943   3.367   6.125 -0.0583 -1.8494 -0.1932
  135OSM    C4F14706   3.989   3.384   5.910  0.1291  1.1107 -0.0273
  135OSM    H4F14707   4.066   3.460   5.888  0.9281 -0.2231 -2.2553
  135OSM    H4G14708   4.034   3.284   5.928  1.4013  1.6162 -0.2941
  135OSM    C5F14709   3.908   3.351   5.787  0.5259 -0.3446 -0.2576
  135OSM    H5F14710   3.831   3.431   5.776  0.9072 -0.2087 -2.3630
  135OSM    H5G14711   3.870   3.250   5.815  0.4886  0.6137  3.9010
  135OSM    C6F14712   3.992   3.359   5.659  0.2495  0.2000 -0.0713
  135OSM    H6F14713   4.079   3.292   5.672  1.6234  1.9921  0.4179
  135OSM    H6G14714   4.035   3.460   5.642  1.7861 -0.0712  1.8191
  135OSM    C7F14715   3.911   3.332   5.534 -0.6535  0.2850  0.0231
  135OSM    H7F14716   3.817   3.392   5.532 -1.9024 -1.5697 -0.4603
  135OSM    H7G14717   3.891   3.223   5.535  3.6063 -0.6566  0.8784
  135OSM    C8F14718   3.992   3.353   5.395  0.2620  0.2773 -0.3058
  135OSM    H8F14719   4.007   3.460   5.369  1.7960 -0.0504 -0.9059
  135OSM    H8G14720   3.917   3.329   5.317  0.8947  1.2251 -1.2331
  135OSM    C9F14721   4.118   3.265   5.374  0.3023  0.2867  0.5313
  135OSM    H9F14722   4.160   3.237   5.472 -0.5254  0.3266  0.9077
  135OSM   C10F14723   4.184   3.225   5.262 -0.7745  0.2454  0.4052
  135OSM   H10F14724   4.269   3.155   5.260 -0.3301  0.7825 -0.8058
  135OSM   C11F14725   4.130   3.271   5.127 -0.2748  0.5795  0.5071
  135OSM   H11F14726   4.190   3.356   5.087  0.4082 -0.3600 -0.5014
  135OSM   H11G14727   4.026   3.306   5.142  0.1116  1.5417  1.1193
  135OSM   C12F14728   4.127   3.152   5.023  0.2528  0.2624 -0.1023
  135OSM   H12F14729   4.062   3.066   5.048 -0.5603  0.4442 -1.5082
  135OSM   H12G14730   4.227   3.104   5.012 -0.9205 -1.8505 -2.9435
  135OSM   C13F14731   4.098   3.195   4.877 -0.8414  0.1504 -0.0456
  135OSM   H13F14732   4.058   3.296   4.855  2.2443  1.8022  1.3275
  135OSM   H13G14733   4.033   3.115   4.835 -0.0385 -0.2579 -0.5191
  135OSM   C14F14734   4.233   3.182   4.796  0.2456  0.4125  0.8020
  135OSM   H14F14735   4.303   3.102   4.827  2.0011  0.8220 -1.8019
  135OSM   H14G14736   4.286   3.278   4.814  0.7018  0.4771 -0.7481
  135OSM   C15F14737   4.206   3.170   4.648 -0.3399 -0.2673  0.7395
  135OSM   H15F14738   4.159   3.258   4.598  1.2611 -0.0079 -0.3795
  135OSM   H15G14739   4.125   3.095   4.642 -0.6798 -0.0050  1.8256
  135OSM   C16F14740   4.337   3.119   4.566  0.6050 -0.3678  0.0904
  135OSM   H16F14741   4.361   3.017   4.605  1.7361 -1.1653 -2.4736
  135OSM   H16G14742   4.420   3.191   4.580 -1.6244  2.5255 -0.7112
  135OSM   C17F14743   4.303   3.109   4.415 -0.7975  0.1259  0.1749
  135OSM   H17F14744   4.390   3.064   4.361 -0.0574  1.6135  0.0837
  135OSM   H17G14745   4.280   3.210   4.375  3.2284  1.1776  0.0521
  135OSM   C18F14746   4.177   3.032   4.380  0.2400  0.3156  0.0197
  135OSM   H18F14747   4.162   3.043   4.270 -1.8610  0.0295  0.2231
  135OSM   H18G14748   4.085   3.073   4.427 -0.9328 -1.7374 -0.3747
  135OSM   H18H14749   4.181   2.928   4.418 -1.6727 -0.6866 -2.2385
  136OSM      N14750   6.201   0.231   6.914 -0.4297  0.1261  0.1660
  136OSM    C1514751   6.081   0.319   6.883 -0.1092 -0.1513 -0.2272
  136OSM   H15A14752   6.042   0.393   6.952 -0.1702  0.7657 -1.2096
  136OSM   H15B14753   6.002   0.250   6.856  0.1413 -0.0352 -1.3369
  136OSM   H15C14754   6.093   0.379   6.794 -2.6833  1.1641  0.2055
  136OSM    C1414755   6.176   0.150   7.038  0.7351  0.5905 -0.0382
  136OSM   H14A14756   6.142   0.209   7.121 -1.4033  0.4658 -0.7565
  136OSM   H14B14757   6.259   0.093   7.077  0.8528  1.4485  1.0233
  136OSM   H14C14758   6.100   0.074   7.025  1.4254 -0.2570  0.7937
  136OSM    C1314759   6.223   0.141   6.805  0.8107 -0.0882 -0.2767
  136OSM   H13A14760   6.299   0.071   6.836  0.9545 -0.8351 -2.2151
  136OSM   H13B14761   6.242   0.197   6.714 -1.5106  0.8250 -0.2705
  136OSM   H13C14762   6.134   0.083   6.789 -1.9425  4.0141 -1.6324
  136OSM    C1214763   6.316   0.317   6.938 -0.9819  0.0664 -0.0174
  136OSM   H12A14764   6.291   0.400   7.003 -0.6574  0.6200 -0.5920
  136OSM   H12B14765   6.349   0.361   6.845 -0.5482 -0.4380 -0.1035
  136OSM    C1114766   6.447   0.256   7.001 -0.2094  0.4564 -0.0484
  136OSM   H11A14767   6.424   0.208   7.099  1.5134 -1.7999 -0.6809
  136OSM   H11B14768   6.518   0.341   7.011  1.3069 -0.5682 -1.5002
  136OSM      P14769   6.604   0.197   6.797 -0.1477  0.1025  0.9047
  136OSM    O1314770   6.564   0.331   6.739 -0.2869 -0.0270  0.0243
  136OSM    O1414771   6.749   0.173   6.820 -0.6384 -0.3591 -0.3807
  136OSM    O1114772   6.559   0.082   6.694 -0.0506  0.2062  0.2958
  136OSM    O1214773   6.512   0.160   6.918  0.3725 -0.4273 -0.1131
  136OSM    C1S14774   6.535   0.128   6.558  0.6611  0.3314  0.3433
  136OSM    H1S14775   6.618   0.189   6.516  1.1907 -1.4179 -1.3200
  136OSM    H1T14776   6.444   0.192   6.568  1.3879  1.2916  0.9508
  136OSM     NF14777   6.493   0.069   6.329  0.3506 -1.3350  0.7869
  136OSM    HNF14778   6.402   0.092   6.296  1.7358  2.6431 -0.8737
  136OSM    C2S14779   6.509   0.010   6.458  0.8014 -0.1598 -0.3389
  136OSM    H2S14780   6.595  -0.059   6.454 -0.1509 -1.4376  0.6081
  136OSM    C3S14781   6.384  -0.069   6.504 -0.1099 -0.3189  0.3350
  136OSM    H3S14782   6.288  -0.016   6.492 -0.6701 -1.1130  1.1354
  136OSM     O314783   6.393  -0.107   6.641  0.7148 -0.2486 -0.3646
  136OSM    HO314784   6.452  -0.040   6.675 -0.8501  1.4218 -0.8066
  136OSM    C4S14785   6.354  -0.181   6.411 -0.8547  0.4681  0.5049
  136OSM    H4S14786   6.297  -0.159   6.319 -0.5693  0.7637  0.3994
  136OSM    C5S14787   6.409  -0.303   6.416 -0.2644  0.3265 -0.6164
  136OSM    H5S14788   6.499  -0.319   6.477 -0.0856 -0.4162 -1.0622
  136OSM    C6S14789   6.396  -0.416   6.313  0.3556  0.2749 -0.5901
  136OSM    H6S14790   6.337  -0.495   6.363  2.8176 -1.1639  0.2480
  136OSM    H6T14791   6.492  -0.471   6.305  0.2709  0.2292 -1.3020
  136OSM    C7S14792   6.335  -0.393   6.172  0.0808 -0.7320 -0.4680
  136OSM    H7S14793   6.228  -0.362   6.174 -0.9217 -3.8769  0.6101
  136OSM    H7T14794   6.346  -0.486   6.113 -1.6828 -0.9055 -0.5856
  136OSM    C8S14795   6.400  -0.281   6.085 -0.3719  0.2995  0.4198
  136OSM    H8S14796   6.509  -0.299   6.093  0.0830  1.7425 -1.8900
  136OSM    H8T14797   6.374  -0.179   6.121 -1.8619 -0.5847  2.0287
  136OSM    C9S14798   6.354  -0.291   5.935  0.0970 -0.3580  0.1265
  136OSM    H9S14799   6.252  -0.248   5.934  0.1763 -0.1779 -0.5406
  136OSM    H9T14800   6.367  -0.398   5.907  1.2039  0.0433 -0.9831
  136OSM   C10S14801   6.441  -0.206   5.837 -1.1430  0.7650 -0.1793
  136OSM   H10S14802   6.549  -0.231   5.850 -1.6928 -0.7901  2.0297
  136OSM   H10T14803   6.424  -0.103   5.873 -0.4535  0.5123  0.9181
  136OSM   C11S14804   6.398  -0.216   5.693 -0.2252  0.0441  0.2038
  136OSM   H11S14805   6.290  -0.223   5.667  0.3352 -0.5146 -2.2148
  136OSM   H11T14806   6.439  -0.315   5.663 -1.0178  0.0660 -1.0231
  136OSM   C12S14807   6.450  -0.104   5.598 -0.0626 -0.4792  0.5026
  136OSM   H12S14808   6.560  -0.090   5.607 -0.1340 -0.4012  1.3727
  136OSM   H12T14809   6.410  -0.009   5.638 -1.9292 -0.2981 -1.6237
  136OSM   C13S14810   6.397  -0.110   5.450  0.1389  0.7010  0.5099
  136OSM   H13S14811   6.288  -0.124   5.433  0.3496  1.1621 -1.4276
  136OSM   H13T14812   6.450  -0.191   5.396 -1.7711 -0.2907  0.0439
  136OSM   C14S14813   6.435   0.014   5.372  0.9176  0.6247  0.3467
  136OSM   H14S14814   6.538   0.044   5.403  1.0752 -2.0965  2.9189
  136OSM   H14T14815   6.366   0.097   5.398 -0.6005 -0.8122  1.0497
  136OSM   C15S14816   6.435  -0.024   5.216  0.3744  0.2279 -0.1687
  136OSM   H15S14817   6.335  -0.052   5.179  0.2062 -1.3174  1.3483
  136OSM   H15T14818   6.513  -0.102   5.214  0.3647  0.2064  0.2208
  136OSM   C16S14819   6.477   0.106   5.139  0.2326  0.3283  0.3857
  136OSM   H16S14820   6.564   0.166   5.174  1.2597 -0.3608 -0.8646
  136OSM   H16T14821   6.391   0.174   5.127 -0.5644 -1.0473 -2.6951
  136OSM   C17S14822   6.525   0.057   5.001 -0.2215  0.1683 -0.5729
  136OSM   H17S14823   6.447   0.000   4.946  0.4478  2.6530 -4.4643
  136OSM   H17T14824   6.615  -0.008   5.004  0.0661  0.5890  0.1983
  136OSM   C18S14825   6.558   0.170   4.909  0.2287 -0.7481  0.7283
  136OSM   H18S14826   6.619   0.249   4.956 -0.3920  0.4011 -0.3201
  136OSM   H18T14827   6.466   0.217   4.867 -1.0117 -3.6323 -0.0406
  136OSM   H18U14828   6.634   0.133   4.836  0.6861 -3.3660  2.3933
  136OSM    C1F14829   6.599   0.093   6.249  0.4045  0.2259 -0.3904
  136OSM     OF14830   6.705   0.037   6.282 -0.0660  0.4580 -0.0241
  136OSM    C2F14831   6.581   0.172   6.123 -0.4122 -0.2287  0.8061
  136OSM    H2F14832   6.582   0.283   6.135 -1.3208 -0.2879  1.5040
  136OSM    H2G14833   6.482   0.142   6.083  0.2039 -1.0661 -0.1594
  136OSM    C3F14834   6.694   0.142   6.014 -0.6627  0.2674 -0.6878
  136OSM    H3F14835   6.688   0.031   6.008 -2.8534  0.2717  0.3949
  136OSM    H3G14836   6.791   0.170   6.061 -0.9092  0.8530 -0.5219
  136OSM    C4F14837   6.680   0.205   5.877  0.1608 -0.1104 -0.2153
  136OSM    H4F14838   6.663   0.315   5.880 -1.9491 -0.2753 -2.5483
  136OSM    H4G14839   6.585   0.167   5.835 -0.8943  0.7871  1.2524
  136OSM    C5F14840   6.788   0.162   5.775 -0.9538  0.4802  0.4143
  136OSM    H5F14841   6.787   0.052   5.785 -1.2442  0.4881  0.4816
  136OSM    H5G14842   6.883   0.204   5.817  0.1413 -0.6779 -0.7946
  136OSM    C6F14843   6.750   0.207   5.635  0.4626 -0.0945 -0.3623
  136OSM    H6F14844   6.666   0.279   5.625 -0.0482 -0.7437 -0.8605
  136OSM    H6G14845   6.706   0.117   5.587 -1.7441  0.4732  0.4908
  136OSM    C7F14846   6.876   0.246   5.552 -0.3557  0.5677  0.6138
  136OSM    H7F14847   6.949   0.170   5.587 -0.4885  0.4952  0.7309
  136OSM    H7G14848   6.893   0.352   5.579 -2.2152  0.2629  3.3074
  136OSM    C8F14849   6.853   0.208   5.405  0.8521  0.3325 -0.0572
  136OSM    H8F14850   6.754   0.252   5.380  0.5057 -0.5033 -0.1955
  136OSM    H8G14851   6.838   0.102   5.376  0.8717  0.0269  1.0200
  136OSM    C9F14852   6.969   0.252   5.316 -0.0675 -0.8415  0.0232
  136OSM    H9F14853   7.068   0.239   5.363  2.3194  0.7853 -3.9908
  136OSM   C10F14854   6.961   0.322   5.205 -0.1648 -0.6800  0.2063
  136OSM   H10F14855   7.050   0.342   5.144 -0.2109 -2.0446 -0.3342
  136OSM   C11F14856   6.841   0.381   5.136  0.2169 -0.1157  0.8125
  136OSM   H11F14857   6.812   0.477   5.183 -0.0936  0.0136  0.3680
  136OSM   H11G14858   6.747   0.322   5.146 -0.5710  1.1478  1.1947
  136OSM   C12F14859   6.869   0.421   4.989 -0.2800 -0.2141 -1.2943
  136OSM   H12F14860   6.882   0.331   4.927 -1.3809 -1.8721  0.7431
  136OSM   H12G14861   6.960   0.485   4.987 -1.1617  1.0792 -1.8367
  136OSM   C13F14862   6.756   0.513   4.937 -0.3455  0.4479 -0.0999
  136OSM   H13F14863   6.738   0.599   5.007  1.8669  1.0019 -0.1308
  136OSM   H13G14864   6.659   0.460   4.935  0.1842 -0.5432 -0.0012
  136OSM   C14F14865   6.792   0.565   4.798  0.3643  0.1991  0.3858
  136OSM   H14F14866   6.801   0.471   4.740  1.0017  0.7713 -0.4627
  136OSM   H14G14867   6.890   0.618   4.803 -1.2547  3.7958 -1.8971
  136OSM   C15F14868   6.689   0.654   4.729  0.5793  0.6691  0.0207
  136OSM   H15F14869   6.674   0.740   4.798 -3.3482  1.4403 -1.4971
  136OSM   H15G14870   6.590   0.606   4.712 -0.0938  1.2148  2.0988
  136OSM   C16F14871   6.734   0.710   4.595 -0.3490 -0.6101  0.2681
  136OSM   H16F14872   6.836   0.753   4.602 -0.3629 -0.6664  0.8068
  136OSM   H16G14873   6.666   0.796   4.579  0.0167 -0.2197  0.7779
  136OSM   C17F14874   6.724   0.630   4.467 -0.5273 -0.2998  0.0784
  136OSM   H17F14875   6.700   0.702   4.386  0.7341 -0.5785 -0.5664
  136OSM   H17G14876   6.638   0.561   4.480 -1.0995  0.2621 -0.6420
  136OSM   C18F14877   6.863   0.571   4.443 -0.4415  0.4430 -0.2657
  136OSM   H18F14878   6.934   0.655   4.429  0.0794  0.1101  0.3041
  136OSM   H18G14879   6.868   0.512   4.349 -0.8400  1.2214 -0.7883
  136OSM   H18H14880   6.901   0.505   4.524 -0.9339 -0.1007 -0.4719
  137OSM      N14881   3.416   2.640   6.929 -0.9162  0.0704  0.1602
  137OSM    C1514882   3.516   2.562   7.013 -0.5989  0.1315 -0.0319
  137OSM   H15A14883   3.476   2.475   7.064  0.8124 -0.3160  0.3375
  137OSM   H15B14884   3.557   2.625   7.090 -2.1707  1.1747 -0.0087
  137OSM   H15C14885   3.590   2.529   6.942 -1.3295  0.1846 -0.8427
  137OSM    C1414886   3.321   2.703   7.018 -0.5734  0.9081 -0.0929
  137OSM   H14A14887   3.264   2.626   7.067  0.3397 -0.8983 -1.7509
  137OSM   H14B14888   3.246   2.755   6.960 -0.8657  0.3434 -0.2240
  137OSM   H14C14889   3.353   2.772   7.095  2.3074  1.4545 -1.6491
  137OSM    C1314890   3.507   2.737   6.855  0.0009  0.0041 -0.1062
  137OSM   H13A14891   3.453   2.810   6.796  1.6862  0.7475 -0.7988
  137OSM   H13B14892   3.570   2.688   6.782  0.0928  0.0174 -0.0359
  137OSM   H13C14893   3.572   2.778   6.931  0.2585 -1.8751  0.7412
  137OSM    C1214894   3.348   2.551   6.825  0.0573  0.5678 -0.2449
  137OSM   H12A14895   3.292   2.467   6.865 -1.1691  1.3765 -0.1887
  137OSM   H12B14896   3.427   2.503   6.770 -0.5876 -3.9957  2.2899
  137OSM    C1114897   3.251   2.619   6.721 -0.1436  0.3556 -0.0221
  137OSM   H11A14898   3.224   2.534   6.654  0.7666  1.3949 -1.7777
  137OSM   H11B14899   3.303   2.700   6.666  1.2740  0.5063  1.4805
  137OSM      P14900   3.026   2.583   6.854 -0.3171  0.3226 -0.4893
  137OSM    O1314901   3.100   2.472   6.926 -0.0386 -0.0874 -0.0027
  137OSM    O1414902   2.928   2.667   6.925 -0.0853 -0.3603  0.3187
  137OSM    O1114903   2.958   2.532   6.725 -0.2345 -0.1215  0.3056
  137OSM    O1214904   3.136   2.675   6.799  0.7099  0.0594 -0.9111
  137OSM    C1S14905   2.925   2.616   6.614 -0.3470  0.0225  0.1863
  137OSM    H1S14906   2.997   2.700   6.617  1.7787 -1.7206  1.1872
  137OSM    H1T14907   2.824   2.660   6.626  0.0521  1.0915 -0.2944
  137OSM     NF14908   2.953   2.633   6.371  1.0502 -0.0737  0.3549
  137OSM    HNF14909   2.876   2.625   6.309  0.7953 -1.3053  0.8153
  137OSM    C2S14910   2.951   2.537   6.482  0.1270  0.2390 -0.1091
  137OSM    H2S14911   3.053   2.495   6.493  0.1999  0.2898 -0.5725
  137OSM    C3S14912   2.861   2.405   6.469  0.2021  0.1141  0.3697
  137OSM    H3S14913   2.754   2.437   6.465  0.5444  1.6053  1.9233
  137OSM     O314914   2.866   2.321   6.585  0.5120 -0.5409 -0.1348
  137OSM    HO314915   2.917   2.367   6.651 -2.2048 -1.1543  2.6473
  137OSM    C4S14916   2.904   2.327   6.353 -0.2506 -0.2655  0.0750
  137OSM    H4S14917   3.011   2.302   6.345 -0.7613 -2.2630 -1.7105
  137OSM    C5S14918   2.830   2.303   6.242 -0.3242 -1.2504  0.1346
  137OSM    H5S14919   2.730   2.348   6.255  1.0067  2.0329  0.1216
  137OSM    C6S14920   2.872   2.255   6.111 -0.1891 -0.0213  0.3487
  137OSM    H6S14921   2.814   2.316   6.039 -3.8237 -4.1414 -0.5999
  137OSM    H6T14922   2.826   2.155   6.109  0.6740 -0.4345  0.5557
  137OSM    C7S14923   3.024   2.249   6.094  0.3864  0.6567  1.1596
  137OSM    H7S14924   3.070   2.186   6.174 -1.3129  0.6915  2.2222
  137OSM    H7T14925   3.070   2.350   6.094  0.8425  0.4629  0.0424
  137OSM    C8S14926   3.063   2.177   5.961  0.5459 -0.4597 -0.1061
  137OSM    H8S14927   3.019   2.075   5.955 -1.3480  0.2708  0.3161
  137OSM    H8T14928   3.172   2.160   5.959  0.7467  0.5797  1.0008
  137OSM    C9S14929   3.012   2.244   5.836  0.2522 -0.9707  0.0486
  137OSM    H9S14930   3.031   2.352   5.855  3.3832 -1.1873 -1.2145
  137OSM    H9T14931   2.901   2.242   5.834  0.1393  1.3666  1.0290
  137OSM   C10S14932   3.085   2.185   5.714 -0.5743  0.0889 -0.2458
  137OSM   H10S14933   3.065   2.076   5.713 -2.1695  0.3508 -0.1974
  137OSM   H10T14934   3.194   2.192   5.731 -0.8670  0.4265  1.7565
  137OSM   C11S14935   3.048   2.260   5.586  0.0417 -0.1331  0.4767
  137OSM   H11S14936   3.047   2.370   5.602  1.1887  0.0794 -0.7244
  137OSM   H11T14937   2.946   2.236   5.548  0.9446 -3.0953 -0.3399
  137OSM   C12S14938   3.159   2.239   5.486  0.1924 -0.1056  0.2347
  137OSM   H12S14939   3.155   2.134   5.450  0.6611  0.4344 -1.4835
  137OSM   H12T14940   3.262   2.257   5.523  0.8760  0.8925 -1.9879
  137OSM   C13S14941   3.137   2.321   5.359  0.2908 -0.0440 -0.1673
  137OSM   H13S14942   3.153   2.428   5.382  2.2645  0.1117 -1.9543
  137OSM   H13T14943   3.031   2.320   5.326  0.6830  1.0325 -1.5336
  137OSM   C14S14944   3.236   2.278   5.251 -0.5590 -0.1945  0.4850
  137OSM   H14S14945   3.201   2.176   5.221  1.3881 -0.7167 -0.1422
  137OSM   H14T14946   3.336   2.253   5.293  1.0571  2.1883 -1.6614
  137OSM   C15S14947   3.253   2.375   5.139  0.0268 -0.0414  0.4856
  137OSM   H15S14948   3.278   2.476   5.179  1.8662 -0.1756 -0.2058
  137OSM   H15T14949   3.158   2.370   5.081 -1.0723 -3.0215  2.3096
  137OSM   C16S14950   3.360   2.318   5.061  0.4912  0.3048  0.5986
  137OSM   H16S14951   3.343   2.212   5.032  1.2499  0.3642 -0.0952
  137OSM   H16T14952   3.464   2.326   5.099  0.4440 -1.3019  1.1384
  137OSM   C17S14953   3.363   2.398   4.927  0.6581 -0.5454  0.4920
  137OSM   H17S14954   3.395   2.503   4.945  0.9698 -0.5153 -0.1880
  137OSM   H17T14955   3.263   2.409   4.878  0.8527  0.2118  0.2434
  137OSM   C18S14956   3.460   2.345   4.823 -0.2660  0.3272  0.0149
  137OSM   H18S14957   3.448   2.407   4.732  1.9388  0.1249 -0.4599
  137OSM   H18T14958   3.438   2.242   4.786  0.3276  0.1701  0.0938
  137OSM   H18U14959   3.567   2.342   4.853  0.3028 -1.4579 -1.9761
  137OSM    C1F14960   3.044   2.723   6.351 -0.1563  0.2654  0.6172
  137OSM     OF14961   3.136   2.739   6.423  0.3106  0.0605  0.0922
  137OSM    C2F14962   3.015   2.795   6.224 -0.4041 -0.5694  0.0248
  137OSM    H2F14963   3.067   2.893   6.236  1.8510 -1.2324 -3.0002
  137OSM    H2G14964   2.907   2.816   6.230 -0.1689  0.4645  0.9872
  137OSM    C3F14965   3.046   2.714   6.088  0.5508 -1.0895  0.4089
  137OSM    H3F14966   2.993   2.617   6.077 -0.7375 -0.2206 -1.5862
  137OSM    H3G14967   3.156   2.700   6.090  1.0396  1.9928  0.0641
  137OSM    C4F14968   3.009   2.786   5.955 -0.5428 -0.2631 -0.6207
  137OSM    H4F14969   3.059   2.885   5.959  2.0851 -1.3581 -2.7756
  137OSM    H4G14970   2.898   2.798   5.953 -0.5979  0.5068  2.5708
  137OSM    C5F14971   3.054   2.708   5.827 -0.1890  0.4087 -1.0297
  137OSM    H5F14972   3.003   2.609   5.834 -0.4742  0.6560  1.8494
  137OSM    H5G14973   3.163   2.691   5.835 -0.2278  0.4936 -0.1679
  137OSM    C6F14974   3.000   2.780   5.706 -0.5576  0.2238  0.2697
  137OSM    H6F14975   2.891   2.787   5.724 -0.4894  0.6708  0.5316
  137OSM    H6G14976   3.016   2.719   5.615  2.3079  1.1831  0.0250
  137OSM    C7F14977   3.066   2.920   5.684 -0.0475  0.1638 -0.3506
  137OSM    H7F14978   3.173   2.904   5.658 -0.5767 -1.3772 -1.8388
  137OSM    H7G14979   3.047   2.987   5.770  0.8557  0.1269 -0.1077
  137OSM    C8F14980   3.001   2.988   5.556 -0.0075  0.1136  0.0630
  137OSM    H8F14981   2.909   3.035   5.598  0.5842 -0.3462  1.9891
  137OSM    H8G14982   2.970   2.914   5.480 -0.2096  0.7804 -0.5139
  137OSM    C9F14983   3.098   3.088   5.498  0.2092  0.1248  0.2856
  137OSM    H9F14984   3.198   3.045   5.484 -1.0999 -3.3924  0.6489
  137OSM   C10F14985   3.057   3.221   5.492 -0.2166  0.2702  0.0343
  137OSM   H10F14986   3.135   3.295   5.468  1.3997 -1.9336 -1.9475
  137OSM   C11F14987   2.918   3.280   5.505 -0.1601 -0.1328 -0.4490
  137OSM   H11F14988   2.834   3.210   5.526  0.9008 -0.5886  2.6567
  137OSM   H11G14989   2.890   3.339   5.415  0.0195  0.3464 -0.1963
  137OSM   C12F14990   2.927   3.379   5.627 -0.8230 -0.6780  0.3432
  137OSM   H12F14991   2.828   3.426   5.643  0.0343  0.6643  1.9533
  137OSM   H12G14992   2.997   3.462   5.602 -0.3189 -1.0154  0.6226
  137OSM   C13F14993   2.966   3.312   5.758 -0.4242  0.2697  0.7028
  137OSM   H13F14994   3.023   3.217   5.752  0.1271  0.4062  2.7398
  137OSM   H13G14995   2.866   3.300   5.805 -0.1107  0.2969  1.3969
  137OSM   C14F14996   3.047   3.407   5.842  0.2743  0.0722 -0.6114
  137OSM   H14F14997   2.998   3.507   5.844  1.6848  0.8437 -1.9749
  137OSM   H14G14998   3.144   3.436   5.794 -0.7101  2.2940 -1.3983
  137OSM   C15F14999   3.059   3.361   5.994 -0.4591  0.1445 -0.3062
  137OSM   H15F15000   3.147   3.294   5.993 -0.1095  0.4958 -3.1909
  137OSM   H15G15001   2.971   3.298   6.018  0.6329 -2.0351 -1.6740
  137OSM   C16F15002   3.078   3.468   6.098  0.3058 -0.2365  0.4337
  137OSM   H16F15003   3.008   3.550   6.071  1.9023  1.3612  1.0049
  137OSM   H16G15004   3.179   3.508   6.077 -0.2703  1.0093 -0.0875
  137OSM   C17F15005   3.068   3.411   6.233 -0.6243 -0.8867  0.0562
  137OSM   H17F15006   2.971   3.357   6.244  0.1935 -2.3070  0.5529
  137OSM   H17G15007   3.073   3.485   6.316  1.2633 -1.1064  0.1701
  137OSM   C18F15008   3.180   3.306   6.262  0.7652 -0.6631 -0.6827
  137OSM   H18F15009   3.173   3.221   6.191  1.3768 -0.1105 -1.4163
  137OSM   H18G15010   3.159   3.251   6.356  2.1284 -1.7533 -0.9787
  137OSM   H18H15011   3.288   3.329   6.263  0.4806  0.9226  1.6751
  138OSM      N15012   1.157   5.647   6.831 -0.0082 -0.7778 -0.1768
  138OSM    C1515013   1.025   5.714   6.853 -1.0392  0.3203  0.0943
  138OSM   H15A15014   0.965   5.710   6.763 -2.1633  4.1886  0.4952
  138OSM   H15B15015   1.048   5.818   6.868 -2.0657  0.3619  1.4891
  138OSM   H15C15016   0.969   5.668   6.933 -2.7681  1.1076 -0.6008
  138OSM    C1415017   1.243   5.647   6.961  0.2763 -0.0214  0.8951
  138OSM   H14A15018   1.240   5.740   7.016  0.9089  0.5475  0.0027
  138OSM   H14B15019   1.345   5.622   6.936  0.3453  1.6302 -0.7190
  138OSM   H14C15020   1.208   5.572   7.031  0.6719  0.1628  1.2953
  138OSM    C1315021   1.130   5.498   6.793 -0.1090 -0.0628 -0.5390
  138OSM   H13A15022   1.084   5.499   6.696  0.7424  2.8852 -1.0259
  138OSM   H13B15023   1.081   5.451   6.878  1.8459  0.3248  0.8787
  138OSM   H13C15024   1.220   5.440   6.785  0.1461  0.3199 -0.4946
  138OSM    C1215025   1.233   5.714   6.723 -0.4404 -0.3873 -0.8514
  138OSM   H12A15026   1.174   5.709   6.633 -1.6191  1.1014 -0.2045
  138OSM   H12B15027   1.322   5.660   6.695  1.8875  3.0312 -0.6864
  138OSM    C1115028   1.265   5.866   6.740 -0.0947 -0.4722 -0.3525
  138OSM   H11A15029   1.322   5.903   6.652 -0.7056  2.2170  0.2910
  138OSM   H11B15030   1.319   5.884   6.836  2.1957  0.3847 -1.7124
  138OSM      P15031   1.067   5.968   6.592 -0.1238  0.2774 -0.1762
  138OSM    O1315032   0.922   5.927   6.594 -0.7130 -0.7998  0.3844
  138OSM    O1415033   1.095   6.108   6.554 -0.1570  0.4757 -0.2507
  138OSM    O1115034   1.132   5.881   6.485 -0.1502 -0.3812  0.0713
  138OSM    O1215035   1.138   5.934   6.730  0.0475  0.4899 -0.3767
  138OSM    C1S15036   1.071   5.783   6.399  0.0115  1.1192  0.1806
  138OSM    H1S15037   0.991   5.732   6.457  0.7212  0.5236  0.6557
  138OSM    H1T15038   1.140   5.696   6.392 -0.3681  0.8778 -0.7172
  138OSM     NF15039   0.947   5.725   6.202  0.4848 -0.8475 -0.6973
  138OSM    HNF15040   0.986   5.674   6.126  0.9437  0.1076 -1.1170
  138OSM    C2S15041   1.025   5.829   6.259  0.7831  0.1729  0.1695
  138OSM    H2S15042   0.958   5.915   6.282  2.6893  1.8154 -0.1257
  138OSM    C3S15043   1.147   5.873   6.170 -0.4005 -0.4915 -0.6030
  138OSM    H3S15044   1.201   5.780   6.142 -0.2231  0.3403 -3.3761
  138OSM     O315045   1.256   5.944   6.234 -0.0700 -0.4044 -0.2580
  138OSM    HO315046   1.222   5.941   6.323  0.7048  0.4239  0.0762
  138OSM    C4S15047   1.104   5.924   6.038  0.2691  0.2601  0.1267
  138OSM    H4S15048   1.099   5.839   5.969  2.2265  0.3106 -0.1364
  138OSM    C5S15049   1.067   6.043   5.993  0.8046  0.3181 -0.1566
  138OSM    H5S15050   1.062   6.127   6.064 -1.5221 -0.9399  1.3263
  138OSM    C6S15051   1.018   6.070   5.852 -0.3852  0.0156 -0.1562
  138OSM    H6S15052   1.097   6.143   5.823 -1.5961  1.9760  1.1973
  138OSM    H6T15053   0.922   6.126   5.855 -1.3660 -1.6578  1.4853
  138OSM    C7S15054   1.003   5.962   5.744  0.3635 -0.6631 -0.3320
  138OSM    H7S15055   0.908   5.908   5.763 -0.8711  1.8621  1.1676
  138OSM    H7T15056   1.091   5.896   5.734  0.8159  0.1417 -2.0545
  138OSM    C8S15057   0.982   6.028   5.610 -0.0091 -0.0221 -0.2914
  138OSM    H8S15058   0.904   6.107   5.612  0.1102  0.0911 -0.1856
  138OSM    H8T15059   0.962   5.952   5.531  3.2888  0.7908 -2.1092
  138OSM    C9S15060   1.100   6.116   5.566  0.1858 -0.0079  0.2467
  138OSM    H9S15061   1.190   6.064   5.605 -0.5838 -2.9275 -1.5710
  138OSM    H9T15062   1.091   6.218   5.609  1.3906  0.6345 -0.9422
  138OSM   C10S15063   1.128   6.113   5.416  0.7745  0.0524 -0.0518
  138OSM   H10S15064   1.181   6.019   5.390  0.6546  0.3799 -1.6132
  138OSM   H10T15065   1.193   6.200   5.394  0.9273 -0.3069 -1.1101
  138OSM   C11S15066   0.998   6.151   5.344  0.0315 -0.1880 -0.5072
  138OSM   H11S15067   0.963   6.236   5.406  1.6618  0.9424 -1.0607
  138OSM   H11T15068   0.929   6.065   5.327 -1.3804  1.3871 -3.6371
  138OSM   C12S15069   1.023   6.198   5.200 -0.0155 -0.7227 -1.1098
  138OSM   H12S15070   1.087   6.287   5.218 -3.0504  1.1106  1.8935
  138OSM   H12T15071   0.932   6.221   5.141  0.3527 -3.4111 -2.9128
  138OSM   C13S15072   1.084   6.086   5.110 -0.0743  0.8425 -0.3651
  138OSM   H13S15073   1.023   5.995   5.128  1.4954 -0.1006  0.4363
  138OSM   H13T15074   1.183   6.055   5.151  0.1090 -1.3572 -2.2882
  138OSM   C14S15075   1.084   6.111   4.955  0.7467  0.1718 -0.3298
  138OSM   H14S15076   0.980   6.132   4.923  0.8903  1.0289 -0.2620
  138OSM   H14T15077   1.120   6.015   4.911  2.2319  0.6099 -0.1213
  138OSM   C15S15078   1.170   6.235   4.922  0.3842 -0.0076 -1.0329
  138OSM   H15S15079   1.277   6.206   4.927  0.7226  1.3458  1.1160
  138OSM   H15T15080   1.151   6.303   5.008 -1.2004 -0.5841 -0.8966
  138OSM   C16S15081   1.134   6.304   4.795 -0.6334 -0.0497  0.4824
  138OSM   H16S15082   1.155   6.235   4.710  1.7693  1.8504 -0.6087
  138OSM   H16T15083   1.205   6.385   4.768 -0.8614 -0.0417 -0.1073
  138OSM   C17S15084   0.993   6.346   4.770  0.3500  0.1010  0.1771
  138OSM   H17S15085   0.954   6.415   4.848  0.0338 -0.4648  0.5249
  138OSM   H17T15086   0.918   6.264   4.766  1.0278 -0.4862 -0.7526
  138OSM   C18S15087   0.989   6.398   4.631 -0.1615  0.1915  0.5363
  138OSM   H18S15088   1.037   6.327   4.560  0.0605 -1.5896  2.3820
  138OSM   H18T15089   1.040   6.497   4.632  0.3498 -0.0525 -0.3273
  138OSM   H18U15090   0.883   6.406   4.599 -0.4906  1.8957  1.9221
  138OSM    C1F15091   0.818   5.688   6.244 -0.8335 -0.4589  0.1299
  138OSM     OF15092   0.774   5.732   6.351  0.1187  0.5265  0.2390
  138OSM    C2F15093   0.747   5.607   6.145  0.2258  0.1165 -0.0592
  138OSM    H2F15094   0.784   5.622   6.041  2.1944 -0.6779  0.4856
  138OSM    H2G15095   0.643   5.645   6.152  0.1819  0.3414 -1.6045
  138OSM    C3F15096   0.742   5.453   6.176  0.3533  0.8650  0.0378
  138OSM    H3F15097   0.685   5.448   6.272 -1.4389 -0.0344 -1.0171
  138OSM    H3G15098   0.837   5.400   6.197 -0.8950 -2.1419 -1.3760
  138OSM    C4F15099   0.644   5.378   6.089 -0.3721  0.3548  0.3812
  138OSM    H4F15100   0.542   5.423   6.097 -0.3153  0.3394  1.2585
  138OSM    H4G15101   0.645   5.270   6.114 -0.6237  0.8643  2.7579
  138OSM    C5F15102   0.665   5.394   5.932  0.2008 -0.6548  0.4580
  138OSM    H5F15103   0.767   5.352   5.917  0.6617 -0.3930  2.5548
  138OSM    H5G15104   0.666   5.502   5.905  0.3098 -1.2103 -1.9623
  138OSM    C6F15105   0.555   5.342   5.838 -0.3563 -0.3151 -0.0374
  138OSM    H6F15106   0.456   5.362   5.885 -1.2941 -1.5856 -1.4113
  138OSM    H6G15107   0.549   5.233   5.820 -2.8124 -0.1585 -0.4187
  138OSM    C7F15108   0.567   5.419   5.708 -0.2853 -0.2773  1.3449
  138OSM    H7F15109   0.668   5.390   5.671 -0.0968  1.0904  0.7268
  138OSM    H7G15110   0.566   5.530   5.709 -0.1299 -0.1020 -2.3037
  138OSM    C8F15111   0.465   5.370   5.599  0.4220 -1.0225  0.4695
  138OSM    H8F15112   0.456   5.452   5.524 -0.1487 -2.6095 -1.2722
  138OSM    H8G15113   0.365   5.351   5.643 -0.0153  1.5536  0.7666
  138OSM    C9F15114   0.499   5.237   5.529 -0.4853 -0.8656 -0.6694
  138OSM    H9F15115   0.471   5.145   5.584  0.1006 -0.4720  0.3102
  138OSM   C10F15116   0.556   5.220   5.404 -0.7067  0.2875 -0.6387
  138OSM   H10F15117   0.598   5.122   5.380 -0.7496 -0.1946  1.1271
  138OSM   C11F15118   0.606   5.332   5.323 -0.4781  0.0796  0.2111
  138OSM   H11F15119   0.700   5.299   5.272 -1.4169 -2.9113  0.2495
  138OSM   H11G15120   0.637   5.414   5.392  0.9408 -0.0131 -0.2737
  138OSM   C12F15121   0.500   5.376   5.212 -0.1627 -0.6045 -0.4886
  138OSM   H12F15122   0.545   5.464   5.162 -1.5784  1.2664  1.3663
  138OSM   H12G15123   0.412   5.423   5.261  0.8044  1.7745 -0.9276
  138OSM   C13F15124   0.448   5.266   5.114 -0.1103 -0.1267  0.9518
  138OSM   H13F15125   0.371   5.314   5.051  2.5965  2.0101 -0.9637
  138OSM   H13G15126   0.408   5.180   5.172  0.6513  0.2229  2.0283
  138OSM   C14F15127   0.559   5.225   5.027 -0.2455 -0.0724  0.7152
  138OSM   H14F15128   0.553   5.122   4.988  1.5481  0.0905 -0.1193
  138OSM   H14G15129   0.647   5.215   5.095  0.1054  3.0528  0.9123
  138OSM   C15F15130   0.589   5.328   4.915  0.5988  1.2298  0.4129
  138OSM   H15F15131   0.620   5.426   4.954  0.2798  0.7768  1.8488
  138OSM   H15G15132   0.488   5.343   4.872 -0.9052 -1.1038  2.8413
  138OSM   C16F15133   0.706   5.292   4.822 -0.4504  0.5978 -0.2441
  138OSM   H16F15134   0.674   5.197   4.772 -1.2572  1.1486 -0.8061
  138OSM   H16G15135   0.790   5.269   4.890 -1.0321 -0.2025  0.2316
  138OSM   C17F15136   0.734   5.382   4.701  0.5037  0.7641  0.4589
  138OSM   H17F15137   0.804   5.330   4.632  0.2978  0.7457  0.2624
  138OSM   H17G15138   0.782   5.480   4.722 -1.7516  2.3712 -1.3530
  138OSM   C18F15139   0.612   5.422   4.623  0.4139 -0.3695  0.3583
  138OSM   H18F15140   0.553   5.490   4.688 -2.0705 -0.2943 -1.8090
  138OSM   H18G15141   0.542   5.340   4.599 -0.9717  1.4656 -2.4188
  138OSM   H18H15142   0.641   5.472   4.528 -2.9506 -3.6242 -2.6956
  139OSM      N15143   1.359   0.637   6.681 -0.8164 -0.2197  0.5755
  139OSM    C1515144   1.329   0.619   6.540 -0.0576 -0.2713 -0.3912
  139OSM   H15A15145   1.299   0.711   6.491 -0.0003 -0.7163 -1.2691
  139OSM   H15B15146   1.250   0.548   6.524  0.9377 -1.2720 -0.9733
  139OSM   H15C15147   1.416   0.591   6.483  0.3556 -0.0660  0.1353
  139OSM    C1415148   1.232   0.661   6.755  0.6626  0.5921  0.1327
  139OSM   H14A15149   1.177   0.748   6.723 -2.2442 -1.2968 -0.3963
  139OSM   H14B15150   1.256   0.655   6.860  0.7709  0.2193  0.0878
  139OSM   H14C15151   1.171   0.574   6.737  2.0617 -0.2781 -0.6591
  139OSM    C1315152   1.428   0.511   6.735  0.1480 -0.2398  0.0910
  139OSM   H13A15153   1.365   0.442   6.788 -2.0268  1.5728  0.0097
  139OSM   H13B15154   1.491   0.542   6.817 -0.7675 -0.5962  0.9414
  139OSM   H13C15155   1.490   0.461   6.661 -2.3881 -1.9740 -0.9862
  139OSM    C1215156   1.454   0.755   6.702 -0.5128 -0.3126 -0.4571
  139OSM   H12A15157   1.401   0.848   6.686 -0.1697 -0.3263 -1.7441
  139OSM   H12B15158   1.530   0.753   6.625 -0.9854  0.2060 -0.9439
  139OSM    C1115159   1.531   0.768   6.837 -0.2750  0.4197 -0.5098
  139OSM   H11A15160   1.457   0.762   6.919  0.2693  3.9220  0.3681
  139OSM   H11B15161   1.567   0.871   6.856  0.2739 -0.2350  2.4666
  139OSM      P15162   1.773   0.670   6.794  0.2237 -0.0237 -0.7553
  139OSM    O1315163   1.843   0.765   6.877  0.0603  0.3284 -0.2433
  139OSM    O1415164   1.833   0.537   6.787 -0.2618  0.0747 -0.0029
  139OSM    O1115165   1.763   0.742   6.653 -0.3005  0.0434  0.0519
  139OSM    O1215166   1.633   0.671   6.849  0.0786  0.2284  0.6510
  139OSM    C1S15167   1.738   0.681   6.531  0.9162  0.4295  0.0443
  139OSM    H1S15168   1.634   0.644   6.523  0.4910  1.4576  0.6527
  139OSM    H1T15169   1.805   0.592   6.526  0.5978  0.1573  0.5933
  139OSM     NF15170   1.740   0.737   6.284  0.6569  1.0196 -0.2297
  139OSM    HNF15171   1.806   0.701   6.218 -0.3047 -1.5150  0.0713
  139OSM    C2S15172   1.777   0.781   6.417  0.2548 -0.3934 -0.3953
  139OSM    H2S15173   1.717   0.872   6.441 -2.2536 -1.6963 -1.3376
  139OSM    C3S15174   1.929   0.824   6.419  0.2084 -0.1092 -0.4280
  139OSM    H3S15175   1.985   0.729   6.404  2.9096  1.0959  1.2463
  139OSM     O315176   1.967   0.879   6.544 -0.1839  0.1600  0.7904
  139OSM    HO315177   1.893   0.844   6.595 -1.6216 -1.3120 -2.0959
  139OSM    C4S15178   1.971   0.929   6.316  0.5905 -0.6007  0.1314
  139OSM    H4S15179   1.911   1.022   6.315  1.0542 -0.3079 -1.0215
  139OSM    C5S15180   2.072   0.936   6.234  0.6057  1.1071  0.1865
  139OSM    H5S15181   2.141   0.851   6.229 -0.7444 -0.1352  1.6652
  139OSM    C6S15182   2.106   1.054   6.138  0.1048  0.4789  0.4979
  139OSM    H6S15183   2.198   1.111   6.162  0.4781 -0.0840  0.4055
  139OSM    H6T15184   2.037   1.141   6.151 -0.8315 -0.1947  0.1157
  139OSM    C7S15185   2.098   1.015   5.987 -0.4203 -0.1018 -1.0692
  139OSM    H7S15186   1.998   0.974   5.960 -0.7894  1.5601 -2.3392
  139OSM    H7T15187   2.172   0.932   5.984  0.3943  0.5886 -0.5438
  139OSM    C8S15188   2.141   1.131   5.896 -0.1429  0.2273  0.2019
  139OSM    H8S15189   2.236   1.179   5.928  0.7334 -0.3965 -1.3371
  139OSM    H8T15190   2.080   1.224   5.903 -0.9418 -0.1808 -0.9651
  139OSM    C9S15191   2.154   1.082   5.748  0.3925  0.0798 -0.3593
  139OSM    H9S15192   2.054   1.061   5.704  0.3733  3.2173 -2.0733
  139OSM    H9T15193   2.215   0.989   5.750  2.1567  1.1994  0.2056
  139OSM   C10S15194   2.238   1.173   5.654 -0.4289 -0.0070 -0.1710
  139OSM   H10S15195   2.345   1.148   5.670 -0.6727  0.0699  1.8249
  139OSM   H10T15196   2.221   1.280   5.678 -1.6730 -0.3051  0.3489
  139OSM   C11S15197   2.209   1.145   5.507 -0.3691 -0.3124  0.0525
  139OSM   H11S15198   2.100   1.160   5.498 -0.4731  0.1202  1.6858
  139OSM   H11T15199   2.222   1.039   5.478 -2.3584 -0.0165 -2.1627
  139OSM   C12S15200   2.271   1.239   5.401 -0.0241  0.0218  0.0740
  139OSM   H12S15201   2.381   1.240   5.414 -0.1830  2.0527  1.9702
  139OSM   H12T15202   2.242   1.344   5.421 -0.0314  0.1627 -0.6577
  139OSM   C13S15203   2.222   1.204   5.259  0.5034  0.2433  0.0002
  139OSM   H13S15204   2.114   1.223   5.276  0.2657 -1.7808  1.0172
  139OSM   H13T15205   2.224   1.095   5.241  1.6410  0.0285  1.2836
  139OSM   C14S15206   2.271   1.305   5.152 -0.0852 -0.2744  0.4616
  139OSM   H14S15207   2.376   1.298   5.116 -0.8744 -0.9723 -1.8495
  139OSM   H14T15208   2.262   1.411   5.183 -2.8648 -0.0165 -0.9043
  139OSM   C15S15209   2.188   1.310   5.021 -0.0368 -0.1789 -0.6035
  139OSM   H15S15210   2.211   1.408   4.974  2.0462  0.6158  1.8716
  139OSM   H15T15211   2.081   1.313   5.052  0.2729 -2.5392  0.9188
  139OSM   C16S15212   2.218   1.185   4.933  0.1781 -0.8657 -0.4799
  139OSM   H16S15213   2.215   1.098   5.002  1.0766  0.8459  1.8945
  139OSM   H16T15214   2.320   1.193   4.889  1.5673 -1.7068  2.3256
  139OSM   C17S15215   2.101   1.144   4.849  0.0071  0.0169  0.5032
  139OSM   H17S15216   2.063   1.232   4.793  1.8373 -0.5846 -1.8222
  139OSM   H17T15217   2.015   1.122   4.916  1.1693 -0.4219  1.9087
  139OSM   C18S15218   2.131   1.039   4.743  0.3951 -0.3190 -0.5039
  139OSM   H18S15219   2.155   0.940   4.788  1.5284 -0.1653 -0.7406
  139OSM   H18T15220   2.219   1.068   4.683  1.9120 -2.3071  0.6478
  139OSM   H18U15221   2.054   1.038   4.662  1.1999  2.1494 -1.3837
  139OSM    C1F15222   1.610   0.720   6.256 -0.3969  0.2946 -0.1721
  139OSM     OF15223   1.519   0.743   6.333 -0.6560 -0.1407 -0.5830
  139OSM    C2F15224   1.577   0.663   6.120 -0.4648 -0.4081 -0.9100
  139OSM    H2F15225   1.618   0.559   6.119  0.9844  0.1411 -0.7687
  139OSM    H2G15226   1.636   0.718   6.044  1.7379  0.3775  1.2379
  139OSM    C3F15227   1.430   0.661   6.083  0.3577  0.0050 -0.1655
  139OSM    H3F15228   1.385   0.763   6.080 -0.8456 -0.4148  1.7513
  139OSM    H3G15229   1.365   0.608   6.156  0.9881  0.8532  1.0437
  139OSM    C4F15230   1.406   0.599   5.945 -0.2423  0.0370 -0.7011
  139OSM    H4F15231   1.422   0.489   5.948 -0.4850  0.0137 -0.2489
  139OSM    H4G15232   1.476   0.646   5.873 -0.6455 -2.6227 -3.0053
  139OSM    C5F15233   1.268   0.639   5.889 -0.2894  0.7849 -0.3310
  139OSM    H5F15234   1.242   0.743   5.918  0.5117  0.2084  2.8692
  139OSM    H5G15235   1.185   0.582   5.937 -0.3585  0.0132 -1.3354
  139OSM    C6F15236   1.243   0.626   5.736 -0.1805 -0.0053  0.0115
  139OSM    H6F15237   1.138   0.649   5.709 -1.2885 -3.6029  0.6960
  139OSM    H6G15238   1.270   0.521   5.713  1.0663  0.3235 -0.1258
  139OSM    C7F15239   1.341   0.718   5.655  0.2044  0.0243 -0.0385
  139OSM    H7F15240   1.442   0.672   5.658  0.8217  0.9172 -3.3355
  139OSM    H7G15241   1.340   0.808   5.719 -4.5146 -0.4873  1.0081
  139OSM    C8F15242   1.297   0.756   5.513 -0.0847  0.2729 -0.1281
  139OSM    H8F15243   1.373   0.834   5.487  0.5893  0.2925  1.7885
  139OSM    H8G15244   1.205   0.817   5.518  0.4271  0.9708  1.1293
  139OSM    C9F15245   1.287   0.634   5.425  0.9229 -0.2523  0.2357
  139OSM    H9F15246   1.222   0.552   5.461  1.4493 -0.9271 -0.3193
  139OSM   C10F15247   1.322   0.621   5.303  0.3241  0.2566  0.5896
  139OSM   H10F15248   1.293   0.528   5.253  0.3394  0.8369 -0.5342
  139OSM   C11F15249   1.403   0.706   5.215  0.2557  0.2009 -0.3519
  139OSM   H11F15250   1.484   0.640   5.175 -0.6497 -1.3492  0.2921
  139OSM   H11G15251   1.449   0.795   5.263  0.1856  0.7062 -1.2102
  139OSM   C12F15252   1.322   0.775   5.105 -0.1472 -0.5169  0.4948
  139OSM   H12F15253   1.379   0.856   5.055 -2.8270  2.8933  2.5206
  139OSM   H12G15254   1.232   0.826   5.145 -1.0336 -0.0455 -1.9802
  139OSM   C13F15255   1.271   0.674   5.003  0.1489 -0.2425 -0.2664
  139OSM   H13F15256   1.221   0.735   4.925 -2.7358 -0.4889  1.2483
  139OSM   H13G15257   1.204   0.600   5.053  0.2034  0.7850  1.4163
  139OSM   C14F15258   1.393   0.601   4.949 -0.1512  0.7731  0.0275
  139OSM   H14F15259   1.420   0.511   5.007  0.7830  0.3302 -1.0554
  139OSM   H14G15260   1.489   0.656   4.959  2.1790 -3.1388  1.5638
  139OSM   C15F15261   1.373   0.552   4.800 -0.1104 -0.1474 -0.0754
  139OSM   H15F15262   1.270   0.511   4.790 -0.2821  0.6771 -2.0481
  139OSM   H15G15263   1.429   0.460   4.771 -1.5170 -0.8186 -0.7717
  139OSM   C16F15264   1.401   0.658   4.693  0.1651 -0.0030 -1.1467
  139OSM   H16F15265   1.503   0.701   4.708  0.2824 -0.8750  1.0208
  139OSM   H16G15266   1.334   0.746   4.704 -0.2061 -0.1098 -2.4040
  139OSM   C17F15267   1.400   0.603   4.556 -0.2064 -0.3943 -0.8043
  139OSM   H17F15268   1.314   0.532   4.553  0.2978 -1.1890  1.4644
  139OSM   H17G15269   1.492   0.545   4.533  0.4034 -0.4308  1.4380
  139OSM   C18F15270   1.380   0.704   4.443 -0.4532  0.0496  0.1256
  139OSM   H18F15271   1.465   0.772   4.466 -0.8493  0.0016  1.8374
  139OSM   H18G15272   1.293   0.773   4.443  0.4397  1.2147  0.6079
  139OSM   H18H15273   1.388   0.661   4.341 -1.1234 -1.4247  0.6721
  140OSM      N15274   3.666   5.074   6.728  0.3229 -0.7139 -0.3050
  140OSM    C1515275   3.763   5.002   6.822 -0.3195 -0.0430 -0.0459
  140OSM   H15A15276   3.721   4.905   6.847 -0.3209 -1.3436 -4.2837
  140OSM   H15B15277   3.785   5.046   6.918 -1.1822  2.0208 -0.7539
  140OSM   H15C15278   3.853   4.973   6.769 -1.1962 -1.1483 -0.9759
  140OSM    C1415279   3.533   5.072   6.799  0.0933  0.7627  0.0975
  140OSM   H14A15280   3.501   4.969   6.806  1.5230  0.3614  1.0205
  140OSM   H14B15281   3.459   5.119   6.736  0.0233  1.5414  0.7467
  140OSM   H14C15282   3.540   5.116   6.897  1.0233 -0.8153  0.7660
  140OSM    C1315283   3.707   5.216   6.703  0.1477 -0.4873 -0.3045
  140OSM   H13A15284   3.811   5.224   6.674  1.4154 -0.3542  3.6820
  140OSM   H13B15285   3.712   5.274   6.793  1.2359 -2.1406  0.7385
  140OSM   H13C15286   3.649   5.266   6.626  2.5154  2.5041 -0.3044
  140OSM    C1215287   3.656   4.999   6.597 -0.2256 -0.8317  0.6215
  140OSM   H12A15288   3.593   4.913   6.616 -1.2036 -0.6006 -1.3180
  140OSM   H12B15289   3.752   4.963   6.564  0.6606  2.6611 -1.0826
  140OSM    C1115290   3.584   5.066   6.474 -0.1583 -0.1343 -0.5218
  140OSM   H11A15291   3.475   5.069   6.496 -0.0571 -2.6991  0.6456
  140OSM   H11B15292   3.598   4.998   6.386 -0.6475  0.8758 -1.4035
  140OSM      P15293   3.754   5.204   6.339 -0.1629 -0.1581  0.1448
  140OSM    O1315294   3.795   5.342   6.328  0.3832  0.2114  0.2252
  140OSM    O1415295   3.856   5.097   6.374 -0.7029 -0.3965  0.0635
  140OSM    O1115296   3.693   5.154   6.203 -0.4657 -0.0706  0.5721
  140OSM    O1215297   3.637   5.196   6.444 -0.2227 -0.3136 -0.2926
  140OSM    C1S15298   3.560   5.182   6.158  0.3305 -0.3133  0.3701
  140OSM    H1S15299   3.565   5.278   6.102 -1.4181 -2.8375 -4.6683
  140OSM    H1T15300   3.483   5.186   6.238  0.5105 -0.4166  0.5511
  140OSM     NF15301   3.389   5.151   5.988  0.0490 -0.2325  0.0330
  140OSM    HNF15302   3.306   5.097   5.999  0.4446 -0.5687  1.8287
  140OSM    C2S15303   3.513   5.096   6.042 -0.1687  0.2274 -0.5190
  140OSM    H2S15304   3.580   5.095   5.954 -1.2362  0.9436 -1.3696
  140OSM    C3S15305   3.505   4.944   6.091  0.1683  0.8805 -0.7388
  140OSM    H3S15306   3.426   4.932   6.169  1.7039  0.0030  0.7344
  140OSM     O315307   3.630   4.894   6.142 -0.0351 -0.1916  0.1422
  140OSM    HO315308   3.671   4.973   6.178  1.0001 -0.7651  0.2752
  140OSM    C4S15309   3.454   4.853   5.983  0.4369  0.4448 -0.1858
  140OSM    H4S15310   3.344   4.849   5.988  0.3685  1.5413 -0.5255
  140OSM    C5S15311   3.516   4.766   5.901  0.1952 -0.3570  0.2751
  140OSM    H5S15312   3.623   4.742   5.910  0.5125  1.0869  0.6493
  140OSM    C6S15313   3.438   4.666   5.815  0.0635 -0.4803 -0.1545
  140OSM    H6S15314   3.333   4.653   5.850  0.5547 -2.4196  0.7202
  140OSM    H6T15315   3.498   4.573   5.820  0.4960 -0.1673  0.6915
  140OSM    C7S15316   3.448   4.705   5.666 -0.5368  0.1143 -0.2594
  140OSM    H7S15317   3.558   4.711   5.650 -0.6688 -1.2206 -1.8818
  140OSM    H7T15318   3.403   4.804   5.643  0.5058  0.2433 -1.9375
  140OSM    C8S15319   3.385   4.588   5.584  0.3326 -0.1041  0.4159
  140OSM    H8S15320   3.278   4.577   5.613  0.4700  1.2282  1.5329
  140OSM    H8T15321   3.431   4.488   5.599  0.5366 -0.2474 -0.9950
  140OSM    C9S15322   3.374   4.630   5.441 -0.2782 -0.1401 -0.4389
  140OSM    H9S15323   3.476   4.635   5.398 -0.0608  2.5260  0.1989
  140OSM    H9T15324   3.342   4.737   5.444  1.3386  0.3743 -0.8718
  140OSM   C10S15325   3.268   4.544   5.372  0.5308 -0.1637 -0.1941
  140OSM   H10S15326   3.171   4.585   5.408  1.0960  0.4283  0.6812
  140OSM   H10T15327   3.278   4.436   5.396 -1.9618 -0.3250  0.4075
  140OSM   C11S15328   3.276   4.551   5.218  0.3205 -0.5109 -0.3297
  140OSM   H11S15329   3.378   4.531   5.178  0.5872  2.7353 -1.5940
  140OSM   H11T15330   3.243   4.656   5.208 -2.0298 -1.1762 -0.2145
  140OSM   C12S15331   3.182   4.452   5.147 -0.0572 -0.2302  0.1034
  140OSM   H12S15332   3.076   4.460   5.178 -0.0006 -3.6069  1.6121
  140OSM   H12T15333   3.200   4.347   5.178  1.1299 -0.5249 -1.4981
  140OSM   C13S15334   3.185   4.484   4.998 -0.1225  1.1887 -0.0101
  140OSM   H13S15335   3.290   4.462   4.971 -0.2100 -0.1402  0.6529
  140OSM   H13T15336   3.155   4.588   4.973 -0.9776  0.3816 -2.6510
  140OSM   C14S15337   3.084   4.394   4.927  0.6687  0.8154 -0.3178
  140OSM   H14S15338   2.986   4.408   4.978  0.1993 -1.6283 -0.4654
  140OSM   H14T15339   3.115   4.288   4.933  3.1721  1.2708 -3.2440
  140OSM   C15S15340   3.058   4.416   4.774 -0.2113  0.3328  0.6850
  140OSM   H15S15341   3.154   4.398   4.720 -0.9687 -0.0194 -0.5911
  140OSM   H15T15342   3.039   4.525   4.758 -2.9377 -0.4095 -1.9239
  140OSM   C16S15343   2.936   4.351   4.721  0.1787 -1.0220 -0.4652
  140OSM   H16S15344   2.852   4.405   4.770  0.8069  0.3725 -0.9037
  140OSM   H16T15345   2.937   4.244   4.753  2.0785 -0.4847  1.4636
  140OSM   C17S15346   2.908   4.364   4.568 -0.3605 -0.9362  0.3514
  140OSM   H17S15347   2.880   4.468   4.540  1.7358 -0.7413 -1.3246
  140OSM   H17T15348   2.824   4.294   4.547 -1.3998 -0.0362  1.3654
  140OSM   C18S15349   3.034   4.341   4.485 -0.2907 -0.2192  0.6987
  140OSM   H18S15350   3.009   4.324   4.378 -1.6031  0.2764  0.9024
  140OSM   H18T15351   3.089   4.250   4.516  0.2611  0.8561  3.1369
  140OSM   H18U15352   3.103   4.428   4.484 -0.3574 -0.1667  0.0262
  140OSM    C1F15353   3.383   5.272   5.929  0.1152 -0.0317  0.2461
  140OSM     OF15354   3.481   5.338   5.902 -0.1426 -0.1571  0.2157
  140OSM    C2F15355   3.251   5.324   5.899 -0.4936 -0.8536  0.0982
  140OSM    H2F15356   3.222   5.400   5.975 -0.8087 -0.0167 -0.8322
  140OSM    H2G15357   3.169   5.248   5.901 -0.9796 -0.3366  0.1218
  140OSM    C3F15358   3.255   5.389   5.759  0.7111  0.1707 -0.5018
  140OSM    H3F15359   3.306   5.320   5.688 -1.7428 -3.0136  0.5897
  140OSM    H3G15360   3.317   5.479   5.782  1.2583 -0.8604  2.4950
  140OSM    C4F15361   3.115   5.425   5.699  0.6201 -0.2299  0.5426
  140OSM    H4F15362   3.131   5.489   5.610  0.0571 -2.3109 -1.1418
  140OSM    H4G15363   3.059   5.478   5.779 -0.1294 -0.5252  0.2252
  140OSM    C5F15364   3.048   5.296   5.648 -0.4841 -0.3767 -0.4508
  140OSM    H5F15365   3.025   5.219   5.724 -0.3531  0.2865  0.2656
  140OSM    H5G15366   3.117   5.252   5.573  0.4312  1.2285 -0.5987
  140OSM    C6F15367   2.927   5.325   5.570 -0.4493 -0.2882  0.4810
  140OSM    H6F15368   2.860   5.398   5.620 -0.0225  1.2377 -1.0454
  140OSM    H6G15369   2.859   5.237   5.571  0.1161 -0.7291  0.5724
  140OSM    C7F15370   2.946   5.393   5.427 -0.3936  0.7101 -0.4570
  140OSM    H7F15371   3.027   5.335   5.377  0.1037  1.2130 -0.2458
  140OSM    H7G15372   2.990   5.495   5.431  1.8631 -0.1652 -1.4678
  140OSM    C8F15373   2.825   5.389   5.338  0.8339 -0.5350  0.7715
  140OSM    H8F15374   2.838   5.465   5.258 -0.8839 -0.8750  0.1300
  140OSM    H8G15375   2.739   5.430   5.395  0.8467 -0.1381  0.5134
  140OSM    C9F15376   2.796   5.253   5.282 -0.4862 -0.4971  0.2335
  140OSM    H9F15377   2.748   5.186   5.355  1.4046 -0.5947  1.4917
  140OSM   C10F15378   2.848   5.200   5.172 -0.0763  0.1315  0.0993
  140OSM   H10F15379   2.807   5.103   5.140 -0.4568  0.4067 -0.2600
  140OSM   C11F15380   2.928   5.279   5.071  0.2043  0.2184  0.2944
  140OSM   H11F15381   3.035   5.249   5.080  1.0054  2.6233 -0.4401
  140OSM   H11G15382   2.921   5.389   5.082  0.3720  0.2274  0.3088
  140OSM   C12F15383   2.884   5.242   4.924  1.4966  0.6149 -0.3209
  140OSM   H12F15384   2.791   5.302   4.915  2.4255  1.9920 -1.0335
  140OSM   H12G15385   2.858   5.135   4.906  1.1759  1.1346 -3.5951
  140OSM   C13F15386   2.992   5.290   4.823  0.2907  0.2446 -0.3181
  140OSM   H13F15387   3.086   5.239   4.854  0.6938  1.3412  0.3322
  140OSM   H13G15388   3.004   5.398   4.842 -1.5892  0.3330  0.5429
  140OSM   C14F15389   2.960   5.273   4.675  0.7487  0.5259  0.6597
  140OSM   H14F15390   2.878   5.344   4.649 -1.1495 -2.5902 -2.7940
  140OSM   H14G15391   2.929   5.178   4.628 -0.4791  1.0177  0.4239
  140OSM   C15F15392   3.076   5.324   4.587  0.1797 -0.6944  0.3797
  140OSM   H15F15393   3.133   5.399   4.646 -0.4719  0.2438 -0.1767
  140OSM   H15G15394   3.038   5.372   4.495 -1.2344  0.4696  1.5249
  140OSM   C16F15395   3.174   5.211   4.547 -0.0181 -0.4386 -0.8491
  140OSM   H16F15396   3.128   5.133   4.483  0.2421 -1.4237  0.1490
  140OSM   H16G15397   3.221   5.169   4.638 -0.3489 -0.3784 -0.6486
  140OSM   C17F15398   3.294   5.263   4.474 -0.1260 -0.8323 -0.7496
  140OSM   H17F15399   3.375   5.194   4.506 -0.7375 -1.5356 -0.7087
  140OSM   H17G15400   3.318   5.364   4.514  2.1926 -0.1223 -3.6093
  140OSM   C18F15401   3.280   5.259   4.329 -0.2714  0.0231 -0.0332
  140OSM   H18F15402   3.375   5.283   4.276  1.7347 -0.9749  2.8413
  140OSM   H18G15403   3.204   5.333   4.295 -0.1779  0.2574  0.2577
  140OSM   H18H15404   3.241   5.160   4.298  0.5957 -0.8442  1.5276
  141OSM      N15405   3.599   4.039   7.112 -0.4622 -0.2095 -0.2116
  141OSM    C1515406   3.663   4.158   7.034  0.9091  1.2327 -0.4731
  141OSM   H15A15407   3.723   4.112   6.956  1.3219  0.0549  0.5026
  141OSM   H15B15408   3.715   4.232   7.093  0.1323  2.1817 -0.9519
  141OSM   H15C15409   3.577   4.196   6.981  0.6684  0.9748 -0.2678
  141OSM    C1415410   3.536   3.944   7.017 -0.5550  0.9077 -0.3393
  141OSM   H14A15411   3.477   3.870   7.069 -0.5703  1.9142  1.1353
  141OSM   H14B15412   3.608   3.898   6.952 -0.2209  0.1627  0.5354
  141OSM   H14C15413   3.471   4.002   6.953  0.1429  1.3797 -0.6244
  141OSM    C1315414   3.708   3.977   7.190 -0.9585 -0.0856  0.5033
  141OSM   H13A15415   3.751   4.052   7.255  0.1730  1.4074 -1.8125
  141OSM   H13B15416   3.790   3.936   7.132 -2.1304 -1.3759 -0.3175
  141OSM   H13C15417   3.681   3.892   7.250  2.3688  0.5704  3.2490
  141OSM    C1215418   3.496   4.099   7.206  0.5713 -0.7787  0.3140
  141OSM   H12A15419   3.542   4.182   7.258  0.6451 -0.2851 -0.5093
  141OSM   H12B15420   3.485   4.030   7.288 -1.3049 -0.8094  0.0953
  141OSM    C1115421   3.355   4.140   7.156 -0.2583 -0.0298 -0.9940
  141OSM   H11A15422   3.319   4.202   7.240 -0.6782 -1.0714 -0.3874
  141OSM   H11B15423   3.284   4.055   7.149 -0.3406 -0.0301 -0.2596
  141OSM      P15424   3.285   4.194   6.906  0.0563  0.6019 -0.0644
  141OSM    O1315425   3.208   4.069   6.922 -0.1041  0.0574 -0.3742
  141OSM    O1415426   3.215   4.316   6.858  0.5132 -0.0541  0.1861
  141OSM    O1115427   3.401   4.173   6.798  0.4715 -0.7241  0.1517
  141OSM    O1215428   3.359   4.221   7.041 -0.3031  0.5664 -0.8859
  141OSM    C1S15429   3.366   4.087   6.684  0.5098 -0.0806 -0.0846
  141OSM    H1S15430   3.263   4.046   6.690  0.7859 -0.6043  1.8240
  141OSM    H1T15431   3.423   3.992   6.693  0.4267 -0.3497 -1.9500
  141OSM     NF15432   3.296   4.087   6.446 -0.2213  0.4601  0.4314
  141OSM    HNF15433   3.345   4.010   6.405 -2.2968 -1.3977  1.2000
  141OSM    C2S15434   3.376   4.161   6.546 -0.4599 -0.0082 -0.3051
  141OSM    H2S15435   3.329   4.261   6.563 -0.1212  0.0705  0.1829
  141OSM    C3S15436   3.521   4.185   6.505 -0.1629 -0.1434 -0.3946
  141OSM    H3S15437   3.576   4.089   6.492  2.4283  1.0185  1.1184
  141OSM     O315438   3.585   4.260   6.609 -0.2812 -0.0425  0.8537
  141OSM    HO315439   3.534   4.236   6.687  0.1826 -0.7419  0.9546
  141OSM    C4S15440   3.523   4.277   6.385 -0.3956  0.2183 -0.0817
  141OSM    H4S15441   3.463   4.369   6.391  0.5402  0.8113  0.2486
  141OSM    C5S15442   3.585   4.255   6.271  0.0887 -0.2960  0.8295
  141OSM    H5S15443   3.654   4.169   6.272 -1.0798 -1.2837 -0.1835
  141OSM    C6S15444   3.588   4.342   6.147  0.4388  0.0237  0.0722
  141OSM    H6S15445   3.529   4.435   6.163  2.6933  1.2628  1.7842
  141OSM    H6T15446   3.551   4.283   6.060  1.5046 -0.7738  0.1495
  141OSM    C7S15447   3.742   4.389   6.123 -1.1120  0.2332  0.0848
  141OSM    H7S15448   3.801   4.295   6.119  1.4267  1.6281  1.6248
  141OSM    H7T15449   3.788   4.457   6.198  2.9655 -0.1972 -1.7581
  141OSM    C8S15450   3.754   4.471   5.993 -0.0133 -0.2520  0.4694
  141OSM    H8S15451   3.860   4.499   5.979 -0.8030  1.2810 -4.1148
  141OSM    H8T15452   3.682   4.555   6.000  0.9480  0.5168  1.4360
  141OSM    C9S15453   3.706   4.384   5.873 -0.1146  0.2935 -0.8301
  141OSM    H9S15454   3.595   4.381   5.876 -0.1114  0.5915  1.8540
  141OSM    H9T15455   3.734   4.277   5.881 -0.9819  0.1503  0.6050
  141OSM   C10S15456   3.758   4.438   5.738  0.9731 -0.0694  0.4139
  141OSM   H10S15457   3.869   4.437   5.744  0.9770  1.5366  0.8432
  141OSM   H10T15458   3.734   4.546   5.726  1.0624  0.0423  1.2188
  141OSM   C11S15459   3.708   4.347   5.623  0.5867 -0.5652  0.1709
  141OSM   H11S15460   3.599   4.339   5.639  0.7862 -2.5622  0.7863
  141OSM   H11T15461   3.756   4.246   5.619  2.9081  0.4797 -0.6636
  141OSM   C12S15462   3.730   4.415   5.486  0.8367  0.0839 -0.9601
  141OSM   H12S15463   3.838   4.395   5.469  1.4762  1.3686  1.1619
  141OSM   H12T15464   3.698   4.522   5.490 -2.1243 -0.5713 -3.3783
  141OSM   C13S15465   3.629   4.352   5.379 -0.1107  0.4773  0.0258
  141OSM   H13S15466   3.525   4.375   5.411 -1.0475 -2.1365 -0.8939
  141OSM   H13T15467   3.630   4.242   5.391  1.1836  0.5322  0.6317
  141OSM   C14S15468   3.665   4.396   5.237 -0.0375 -0.4055 -0.2399
  141OSM   H14S15469   3.775   4.388   5.223  0.0481  0.3602 -0.0804
  141OSM   H14T15470   3.637   4.502   5.220  2.2836 -0.0727 -2.6786
  141OSM   C15S15471   3.597   4.322   5.129 -0.3609  0.3376  0.0841
  141OSM   H15S15472   3.488   4.337   5.148 -0.1258  0.8276  1.1229
  141OSM   H15T15473   3.630   4.217   5.146 -0.9974  0.1034 -0.0864
  141OSM   C16S15474   3.625   4.358   4.980 -0.1652  0.5717  0.3865
  141OSM   H16S15475   3.554   4.291   4.927 -0.6392  0.2419  1.4173
  141OSM   H16T15476   3.733   4.334   4.965 -0.5543 -1.9527  1.2304
  141OSM   C17S15477   3.588   4.507   4.936  0.0731  0.3944  0.1272
  141OSM   H17S15478   3.655   4.573   4.995 -0.4815  0.6765  0.4463
  141OSM   H17T15479   3.481   4.531   4.950 -0.1345 -0.6011  0.2702
  141OSM   C18S15480   3.615   4.529   4.785 -0.0449 -0.8693 -0.7856
  141OSM   H18S15481   3.719   4.496   4.763  0.3452 -0.0287 -0.2800
  141OSM   H18T15482   3.597   4.636   4.761 -2.9249 -1.5635 -2.1500
  141OSM   H18U15483   3.543   4.479   4.717 -1.2526  0.7565 -0.7729
  141OSM    C1F15484   3.157   4.088   6.449 -0.0000  0.1328 -0.0702
  141OSM     OF15485   3.097   4.176   6.514 -0.3644  0.3210 -0.0945
  141OSM    C2F15486   3.085   3.987   6.371 -0.5002  0.9573 -0.1901
  141OSM    H2F15487   2.990   3.957   6.421  0.8160 -0.9271  1.3657
  141OSM    H2G15488   3.142   3.894   6.349  0.1800  1.0204  1.1491
  141OSM    C3F15489   3.043   4.043   6.234  0.1875  0.1655  0.1966
  141OSM    H3F15490   3.139   4.066   6.183  0.6354  0.0475  0.9847
  141OSM    H3G15491   2.983   4.137   6.237  1.4996  1.1106 -1.3258
  141OSM    C4F15492   2.960   3.941   6.159  0.3165  0.1541 -0.0188
  141OSM    H4F15493   2.867   3.914   6.212  0.4978  1.9248  1.2707
  141OSM    H4G15494   3.011   3.842   6.156  1.0423  0.4184  2.1001
  141OSM    C5F15495   2.935   3.987   6.012 -0.2453  0.0162  0.1895
  141OSM    H5F15496   3.031   4.016   5.964 -0.3165  0.1217  0.1118
  141OSM    H5G15497   2.877   4.081   6.017 -2.1045 -1.0478 -0.4679
  141OSM    C6F15498   2.875   3.883   5.914 -0.3522  0.0651  0.2758
  141OSM    H6F15499   2.783   3.843   5.963 -0.7565  0.5304 -0.0974
  141OSM    H6G15500   2.957   3.810   5.900  0.3863  1.0091 -0.5040
  141OSM    C7F15501   2.837   3.933   5.770 -0.4442 -0.5221 -0.0114
  141OSM    H7F15502   2.929   3.973   5.723 -0.6784 -0.2720 -0.2616
  141OSM    H7G15503   2.768   4.018   5.791 -1.2258 -1.4499  1.3575
  141OSM    C8F15504   2.769   3.829   5.680  0.5154 -0.5900 -0.0768
  141OSM    H8F15505   2.673   3.814   5.734  0.4158  1.5020  0.4234
  141OSM    H8G15506   2.830   3.736   5.675  1.5951  0.1359 -0.9173
  141OSM    C9F15507   2.753   3.887   5.546 -0.4431  0.5181  0.4021
  141OSM    H9F15508   2.689   3.975   5.534 -0.8227  0.2503  0.4405
  141OSM   C10F15509   2.820   3.845   5.436 -0.2403  0.7484 -0.1675
  141OSM   H10F15510   2.806   3.908   5.348  1.3745  3.7341  1.5482
  141OSM   C11F15511   2.928   3.741   5.434  0.6352  0.2683  0.1575
  141OSM   H11F15512   2.880   3.641   5.423 -0.1273  0.5760  0.6561
  141OSM   H11G15513   2.991   3.738   5.525  0.2347  0.3977  0.4428
  141OSM   C12F15514   3.017   3.757   5.306 -0.3843 -0.0298 -0.4137
  141OSM   H12F15515   3.119   3.715   5.318 -0.6093 -0.1683  1.3268
  141OSM   H12G15516   3.030   3.866   5.284 -0.9257  0.2918  0.7667
  141OSM   C13F15517   2.962   3.686   5.183 -0.4372  0.6243 -0.1059
  141OSM   H13F15518   2.865   3.736   5.161 -0.4541 -0.0998 -1.8568
  141OSM   H13G15519   2.941   3.580   5.207  0.2352  0.6190  0.4882
  141OSM   C14F15520   3.042   3.686   5.056 -0.3651  0.3701 -0.1678
  141OSM   H14F15521   3.091   3.784   5.038 -0.6350  0.7614  1.1465
  141OSM   H14G15522   2.963   3.669   4.980 -0.8000  0.7542  0.1970
  141OSM   C15F15523   3.168   3.596   5.059 -0.2400 -0.0650 -0.4181
  141OSM   H15F15524   3.143   3.495   5.098 -0.2712  1.0884  2.8783
  141OSM   H15G15525   3.244   3.622   5.134  1.6455  3.9158 -3.3463
  141OSM   C16F15526   3.246   3.578   4.921  0.2865  0.2310 -0.8905
  141OSM   H16F15527   3.316   3.493   4.935  1.7912  1.5258 -0.2870
  141OSM   H16G15528   3.311   3.667   4.909  0.5955  0.4172  1.6275
  141OSM   C17F15529   3.160   3.551   4.802  0.5076 -0.5569  0.5881
  141OSM   H17F15530   3.094   3.640   4.793  0.5252 -0.5675  0.3220
  141OSM   H17G15531   3.095   3.462   4.816 -0.2240 -0.1904 -0.3707
  141OSM   C18F15532   3.243   3.549   4.672  0.0063  0.0342  0.3026
  141OSM   H18F15533   3.179   3.605   4.602  0.4652 -1.2833 -1.2331
  141OSM   H18G15534   3.255   3.443   4.641 -1.0132 -0.4769  1.5735
  141OSM   H18H15535   3.339   3.603   4.688 -0.7787  1.1870  1.2589
  142OSM      N15536   3.423   3.540   7.018  0.2206  0.2632 -0.2225
  142OSM    C1515537   3.362   3.640   6.929 -0.8979  0.0606  0.0215
  142OSM   H15A15538   3.330   3.719   6.996  0.8062  1.0134 -0.2425
  142OSM   H15B15539   3.298   3.590   6.858  1.3440 -2.1470 -0.5909
  142OSM   H15C15540   3.444   3.678   6.870  0.5428 -1.4899  0.9386
  142OSM    C1415541   3.526   3.600   7.110 -0.0198 -0.0520  0.0960
  142OSM   H14A15542   3.571   3.521   7.168  0.3844 -0.9635 -1.4020
  142OSM   H14B15543   3.479   3.669   7.179  1.3170 -0.5977  1.6207
  142OSM   H14C15544   3.606   3.646   7.055  1.4291 -1.6983  0.7176
  142OSM    C1315545   3.322   3.485   7.112 -0.1086  0.1429 -0.0893
  142OSM   H13A15546   3.223   3.492   7.069 -0.0844 -0.4891 -0.2566
  142OSM   H13B15547   3.322   3.542   7.203 -3.4292  2.7098 -1.4719
  142OSM   H13C15548   3.333   3.378   7.119  1.9616  0.3422  0.0339
  142OSM    C1215549   3.493   3.437   6.924 -0.0792  0.2657 -0.2369
  142OSM   H12A15550   3.538   3.364   6.990 -1.2306 -0.2123  0.0576
  142OSM   H12B15551   3.572   3.490   6.874 -0.2958 -0.1569 -1.0322
  142OSM    C1115552   3.402   3.356   6.829  0.0877  0.8049 -0.3025
  142OSM   H11A15553   3.468   3.304   6.756 -1.7363 -1.4644 -0.4475
  142OSM   H11B15554   3.330   3.425   6.781 -1.8003 -0.3584  0.7542
  142OSM      P15555   3.393   3.127   6.968 -0.1955  0.0851 -0.4392
  142OSM    O1315556   3.542   3.142   6.985  0.3840  0.5177  0.2244
  142OSM    O1415557   3.309   3.088   7.086 -0.0559 -0.5558  0.7073
  142OSM    O1115558   3.368   3.034   6.844 -0.6850  0.3902  0.2001
  142OSM    O1215559   3.332   3.261   6.905 -0.0816 -0.4379 -0.0140
  142OSM    C1S15560   3.242   3.006   6.784  0.3433  0.3380  0.2241
  142OSM    H1S15561   3.154   3.041   6.841  0.0169  1.3346 -0.8457
  142OSM    H1T15562   3.224   2.897   6.769  1.9826  0.4014 -3.5006
  142OSM     NF15563   3.120   3.027   6.566  0.0620 -0.1658  0.5901
  142OSM    HNF15564   3.092   2.944   6.518  2.3793 -0.2133 -0.8320
  142OSM    C2S15565   3.253   3.041   6.629  0.2146  0.4314 -0.2802
  142OSM    H2S15566   3.280   3.149   6.616 -0.8638  0.8512  0.7793
  142OSM    C3S15567   3.368   2.956   6.556 -0.4455  0.4121 -0.6457
  142OSM    H3S15568   3.346   2.847   6.562  1.6119 -0.0110  0.2814
  142OSM     O315569   3.495   2.958   6.629  0.2381  0.4718 -0.1283
  142OSM    HO315570   3.468   2.981   6.718  1.5808 -1.0083  0.7044
  142OSM    C4S15571   3.373   3.005   6.411 -0.6734  0.2364 -0.1612
  142OSM    H4S15572   3.386   3.114   6.410  0.3564  0.1903  2.1883
  142OSM    C5S15573   3.399   2.929   6.309  0.1916  0.3908 -0.5827
  142OSM    H5S15574   3.424   2.824   6.333  0.0220  0.3368 -0.6483
  142OSM    C6S15575   3.436   2.983   6.175 -0.2241 -0.5868  0.1809
  142OSM    H6S15576   3.531   2.934   6.145  0.4682 -0.0559  1.4268
  142OSM    H6T15577   3.455   3.092   6.179  0.1734 -0.6698  0.7328
  142OSM    C7S15578   3.333   2.978   6.064 -0.4424 -0.3713  0.3939
  142OSM    H7S15579   3.243   3.026   6.107  0.0294  0.7873  0.1307
  142OSM    H7T15580   3.316   2.871   6.042  1.0256 -0.5415  0.0176
  142OSM    C8S15581   3.355   3.072   5.945 -0.2584 -0.3231  0.8608
  142OSM    H8S15582   3.386   3.175   5.972  0.0777 -0.5724  1.4485
  142OSM    H8T15583   3.258   3.078   5.892  0.2228  0.9279  0.0648
  142OSM    C9S15584   3.466   3.029   5.842  0.2775 -0.0730 -0.3811
  142OSM    H9S15585   3.433   2.927   5.813  1.1500 -0.9046  1.3774
  142OSM    H9T15586   3.558   2.997   5.895 -0.0041 -2.2019 -1.0895
  142OSM   C10S15587   3.494   3.127   5.721  0.2232 -0.7719  0.0537
  142OSM   H10S15588   3.549   3.220   5.746 -0.1720 -0.3155 -0.7306
  142OSM   H10T15589   3.400   3.173   5.683 -0.6642 -0.5144  2.4086
  142OSM   C11S15590   3.566   3.057   5.606  0.2798 -0.3503 -0.7356
  142OSM   H11S15591   3.513   2.963   5.579  1.5809 -1.6225  0.8883
  142OSM   H11T15592   3.666   3.027   5.644  0.3750 -0.1664 -0.8437
  142OSM   C12S15593   3.571   3.142   5.486  0.1762 -0.5515  0.5717
  142OSM   H12S15594   3.620   3.236   5.517  1.5125  0.5965 -4.2098
  142OSM   H12T15595   3.466   3.167   5.458  1.2607  2.3621 -1.4501
  142OSM   C13S15596   3.649   3.076   5.377 -0.5194  0.3135  0.0979
  142OSM   H13S15597   3.612   2.972   5.367 -1.5766  0.7455 -0.8498
  142OSM   H13T15598   3.749   3.068   5.423  1.3241  1.1276 -3.4019
  142OSM   C14S15599   3.645   3.149   5.244 -0.1039 -0.0637 -0.2097
  142OSM   H14S15600   3.701   3.245   5.258  1.3170 -0.6362 -1.6485
  142OSM   H14T15601   3.540   3.166   5.211 -0.8852 -1.9601  1.1340
  142OSM   C15S15602   3.724   3.084   5.123 -0.6868 -0.2573 -0.9749
  142OSM   H15S15603   3.659   2.995   5.103 -0.2887 -0.2839 -2.2375
  142OSM   H15T15604   3.814   3.034   5.165 -1.0975 -0.3350 -0.1549
  142OSM   C16S15605   3.755   3.160   5.001  0.0848 -0.1535  0.5325
  142OSM   H16S15606   3.851   3.125   4.958 -0.6749  0.0381 -1.3893
  142OSM   H16T15607   3.767   3.267   5.029  1.5405  0.3205 -1.6898
  142OSM   C17S15608   3.648   3.142   4.892  0.2758 -0.2575  0.1662
  142OSM   H17S15609   3.649   3.037   4.856  0.4173  0.2650 -1.4388
  142OSM   H17T15610   3.681   3.212   4.812  0.4375  0.7268  1.0566
  142OSM   C18S15611   3.508   3.202   4.923  0.0874  0.5577  0.7664
  142OSM   H18S15612   3.529   3.306   4.957  3.0449  0.5715 -0.7375
  142OSM   H18T15613   3.451   3.130   4.985 -1.8442 -0.4793 -2.0249
  142OSM   H18U15614   3.451   3.216   4.829  0.9799  2.3104  0.4517
  142OSM    C1F15615   3.010   3.104   6.602  0.1498 -0.8964 -0.0778
  142OSM     OF15616   3.031   3.208   6.659 -0.1883  0.4745 -0.7025
  142OSM    C2F15617   2.879   3.074   6.540  0.1643 -0.6019  0.4087
  142OSM    H2F15618   2.801   3.139   6.585 -0.4432  0.4849 -2.0512
  142OSM    H2G15619   2.843   2.969   6.553 -0.4895 -0.1925  2.1134
  142OSM    C3F15620   2.883   3.114   6.390 -0.1593  0.3254 -0.2216
  142OSM    H3F15621   2.963   3.051   6.345 -1.9308  0.1760 -3.4745
  142OSM    H3G15622   2.889   3.224   6.378  0.4825  0.4314  0.9618
  142OSM    C4F15623   2.764   3.066   6.314  0.1853  0.1908 -0.0597
  142OSM    H4F15624   2.674   3.117   6.353  0.3006 -1.5347  2.7198
  142OSM    H4G15625   2.745   2.960   6.341 -1.4464  0.7834  1.2962
  142OSM    C5F15626   2.777   3.077   6.156  0.2788 -0.3560  0.4725
  142OSM    H5F15627   2.881   3.041   6.143  0.7253  1.4651 -1.7258
  142OSM    H5G15628   2.768   3.186   6.132  0.3007 -0.5848 -0.6511
  142OSM    C6F15629   2.688   2.987   6.068  0.3334 -0.9421 -0.0277
  142OSM    H6F15630   2.668   2.892   6.124 -0.8577 -1.4861 -1.3090
  142OSM    H6G15631   2.756   2.967   5.983  1.2882  1.8436 -0.0193
  142OSM    C7F15632   2.560   3.060   6.013  0.3196 -0.6720  0.2963
  142OSM    H7F15633   2.589   3.127   5.929 -2.0380  3.1487  2.2094
  142OSM    H7G15634   2.514   3.119   6.095 -3.0303 -0.8611 -1.2611
  142OSM    C8F15635   2.447   2.958   5.976  0.2493 -0.6277  0.1727
  142OSM    H8F15636   2.409   2.903   6.065 -0.9562 -0.8470 -0.4440
  142OSM    H8G15637   2.484   2.882   5.903 -0.4648 -0.7906 -0.0315
  142OSM    C9F15638   2.342   3.039   5.914 -0.0035  0.0109 -0.5569
  142OSM    H9F15639   2.275   3.089   5.985 -0.4720 -0.0770 -0.9318
  142OSM   C10F15640   2.333   3.047   5.780  0.3160 -0.2444 -0.0442
  142OSM   H10F15641   2.260   3.119   5.740  1.8440  1.1603 -0.4100
  142OSM   C11F15642   2.415   2.979   5.675  0.7938  0.1606 -0.2187
  142OSM   H11F15643   2.380   2.874   5.672 -0.0043  0.4203 -0.0544
  142OSM   H11G15644   2.519   2.982   5.715  1.1244 -2.2549 -0.7300
  142OSM   C12F15645   2.415   3.043   5.532  0.3535  0.1160 -0.5270
  142OSM   H12F15646   2.460   3.145   5.531 -0.4706  0.5005  0.0971
  142OSM   H12G15647   2.310   3.045   5.493 -0.2474 -2.2495  0.8139
  142OSM   C13F15648   2.497   2.962   5.441 -0.8528  0.2623  0.3885
  142OSM   H13F15649   2.468   2.855   5.443  0.6297 -0.1928 -0.7383
  142OSM   H13G15650   2.604   2.964   5.472 -1.0041  0.6006  0.9012
  142OSM   C14F15651   2.484   3.014   5.298 -0.2753  0.1824  0.3532
  142OSM   H14F15652   2.524   3.117   5.282 -0.8725  0.1182 -1.9558
  142OSM   H14G15653   2.379   3.008   5.262  0.5447 -1.3896 -2.0193
  142OSM   C15F15654   2.545   2.919   5.193  0.3179  0.4608 -0.1716
  142OSM   H15F15655   2.488   2.825   5.188 -1.1631  1.3961 -1.8588
  142OSM   H15G15656   2.644   2.873   5.212  0.9357 -0.2212 -4.1256
  142OSM   C16F15657   2.576   2.974   5.052  0.1462 -0.2036  0.1116
  142OSM   H16F15658   2.561   3.082   5.033  0.3063 -0.4121 -1.2963
  142OSM   H16G15659   2.512   2.927   4.974  0.7155  0.4508 -0.7685
  142OSM   C17F15660   2.723   2.945   5.006  0.1526 -1.0905 -0.6224
  142OSM   H17F15661   2.740   2.837   5.025 -1.6623 -1.4159 -0.6430
  142OSM   H17G15662   2.792   2.992   5.079 -1.4368 -1.1656  0.9838
  142OSM   C18F15663   2.748   2.977   4.855  0.2036 -0.2331 -0.4405
  142OSM   H18F15664   2.709   2.893   4.794 -2.1472  0.6287 -0.2324
  142OSM   H18G15665   2.858   2.991   4.842  0.3071  1.1336  1.4636
  142OSM   H18H15666   2.699   3.073   4.829  1.7464  1.5405  2.5822
  143OSM      N15667   2.861   2.199   7.157 -0.3925 -0.2336 -0.4175
  143OSM    C1515668   2.853   2.293   7.278 -0.0632  0.3765  0.2725
  143OSM   H15A15669   2.855   2.235   7.369 -0.8510  0.9413  0.6684
  143OSM   H15B15670   2.751   2.331   7.278 -0.2265 -0.0625  0.2092
  143OSM   H15C15671   2.925   2.373   7.276  0.7731 -0.2172  3.0174
  143OSM    C1415672   3.000   2.133   7.163 -0.3351 -0.2681 -0.3662
  143OSM   H14A15673   3.007   2.052   7.093  1.5889 -3.0309  2.7394
  143OSM   H14B15674   3.011   2.099   7.265  1.0746  2.6210  0.5601
  143OSM   H14C15675   3.076   2.207   7.143 -1.2359  0.1932 -2.2796
  143OSM    C1315676   2.760   2.087   7.177 -0.7518  0.5287 -0.3104
  143OSM   H13A15677   2.660   2.125   7.168 -0.7300  2.0301  3.7963
  143OSM   H13B15678   2.773   2.027   7.266 -1.2555 -2.0254 -1.8518
  143OSM   H13C15679   2.767   2.030   7.085  2.6940  4.0679 -2.6181
  143OSM    C1215680   2.835   2.276   7.028 -0.1019 -0.0202 -0.5604
  143OSM   H12A15681   2.925   2.330   7.002 -0.4010  0.4432 -0.6505
  143OSM   H12B15682   2.763   2.357   7.035  0.3498  0.2678  1.2702
  143OSM    C1115683   2.794   2.199   6.900  0.4221 -0.0917 -0.2395
  143OSM   H11A15684   2.775   2.268   6.815  0.0593 -1.3643 -1.2271
  143OSM   H11B15685   2.693   2.158   6.921  0.7663 -1.6913 -1.4677
  143OSM      P15686   2.864   1.950   6.849 -0.6466  0.0280 -0.0920
  143OSM    O1315687   2.988   1.876   6.887  0.0198 -0.4904  0.1817
  143OSM    O1415688   2.740   1.917   6.928 -0.0139 -0.1433  0.3617
  143OSM    O1115689   2.846   1.930   6.695 -0.1525  0.2192  0.2616
  143OSM    O1215690   2.886   2.103   6.872 -0.2549 -0.2023 -0.3068
  143OSM    C1S15691   2.711   1.963   6.646  0.1961  0.3965 -0.3334
  143OSM    H1S15692   2.685   2.063   6.687 -0.6140 -0.0260  0.2178
  143OSM    H1T15693   2.643   1.892   6.697  0.9167  0.6313  0.9967
  143OSM     NF15694   2.540   1.991   6.465 -0.5236  0.2070  0.3045
  143OSM    HNF15695   2.483   1.911   6.449 -0.1709 -0.2752  1.3102
  143OSM    C2S15696   2.685   1.966   6.491  0.0074  0.3573  0.5843
  143OSM    H2S15697   2.751   2.044   6.447  0.3623  0.2574  0.9268
  143OSM    C3S15698   2.735   1.828   6.428  0.4989  0.6342  0.0795
  143OSM    H3S15699   2.667   1.758   6.482  1.4390  0.1149  0.6146
  143OSM     O315700   2.867   1.789   6.465 -0.0619 -0.0982  0.1941
  143OSM    HO315701   2.891   1.845   6.539 -0.1917 -0.1021  0.2394
  143OSM    C4S15702   2.714   1.827   6.279 -0.1053  0.0345 -0.1702
  143OSM    H4S15703   2.744   1.915   6.222  1.1661 -0.4988 -0.3652
  143OSM    C5S15704   2.660   1.722   6.206  0.1502 -0.3136  0.2183
  143OSM    H5S15705   2.634   1.629   6.259  0.2736  0.0605  0.9561
  143OSM    C6S15706   2.629   1.732   6.060 -0.1250  0.3160  0.2676
  143OSM    H6S15707   2.526   1.701   6.032  1.2755 -2.9359 -1.9887
  143OSM    H6T15708   2.698   1.668   6.001  0.1434 -1.5177  2.4287
  143OSM    C7S15709   2.651   1.872   5.994 -0.2433 -0.1331 -0.8562
  143OSM    H7S15710   2.753   1.905   6.020 -0.4059 -0.8182  0.8063
  143OSM    H7T15711   2.582   1.941   6.049 -0.2194 -0.5090 -0.3425
  143OSM    C8S15712   2.611   1.881   5.850 -0.0182  0.8317  1.0213
  143OSM    H8S15713   2.547   1.972   5.849 -2.8841 -1.0238 -1.8183
  143OSM    H8T15714   2.538   1.801   5.828 -0.9086  1.3855  1.9116
  143OSM    C9S15715   2.733   1.898   5.759 -0.4290  0.6071  0.3961
  143OSM    H9S15716   2.795   1.807   5.748  0.5809  1.4347 -1.2471
  143OSM    H9T15717   2.787   1.985   5.803 -0.5408  1.5321 -1.2016
  143OSM   C10S15718   2.702   1.922   5.611  0.1127  0.3767 -0.8035
  143OSM   H10S15719   2.652   2.019   5.588  1.1870  0.6518 -2.1024
  143OSM   H10T15720   2.629   1.852   5.566 -0.9711  1.3954 -0.6728
  143OSM   C11S15721   2.830   1.940   5.518 -0.5831 -0.1197 -0.1891
  143OSM   H11S15722   2.911   1.865   5.521  0.8704  1.3759 -0.7473
  143OSM   H11T15723   2.881   2.032   5.554  0.5228 -0.3023 -1.2361
  143OSM   C12S15724   2.780   1.953   5.376 -0.1142 -0.1261  0.3996
  143OSM   H12S15725   2.690   2.018   5.377 -0.0345  0.0383 -0.9708
  143OSM   H12T15726   2.736   1.859   5.337 -1.2555  0.1208  1.0503
  143OSM   C13S15727   2.890   1.993   5.274  0.8049 -0.1460 -0.1055
  143OSM   H13S15728   2.958   1.910   5.247  1.8524  1.0915 -1.4198
  143OSM   H13T15729   2.960   2.067   5.320  0.7476  0.8649 -1.5718
  143OSM   C14S15730   2.838   2.055   5.146 -0.1788  0.6944  0.5110
  143OSM   H14S15731   2.771   2.138   5.177 -1.9565 -0.1141 -0.9935
  143OSM   H14T15732   2.772   1.981   5.097  0.4796  0.2612  0.2643
  143OSM   C15S15733   2.964   2.097   5.061  0.1327 -0.1171 -0.5768
  143OSM   H15S15734   3.024   2.005   5.053 -0.8436 -0.9139  0.7400
  143OSM   H15T15735   3.014   2.185   5.107 -0.4494 -0.4848  0.8184
  143OSM   C16S15736   2.927   2.120   4.913 -0.1636  0.6167  0.0013
  143OSM   H16S15737   2.842   2.190   4.903 -0.8669 -0.4841 -2.3600
  143OSM   H16T15738   2.885   2.026   4.872 -1.7999  0.3948  2.0127
  143OSM   C17S15739   3.055   2.157   4.830 -0.0150 -0.1496  0.4765
  143OSM   H17S15740   3.121   2.069   4.818  0.7725  0.7391 -2.5550
  143OSM   H17T15741   3.108   2.238   4.884 -0.5913  0.3373  0.3369
  143OSM   C18S15742   3.030   2.215   4.688 -0.4397 -0.2963  0.5951
  143OSM   H18S15743   2.994   2.135   4.619 -1.5299  1.3457 -0.8203
  143OSM   H18T15744   3.122   2.258   4.643  0.0124 -2.2127 -0.4469
  143OSM   H18U15745   2.950   2.292   4.689  0.3521  0.5386  0.8605
  143OSM    C1F15746   2.497   2.116   6.464 -0.6578  0.1057  0.0154
  143OSM     OF15747   2.541   2.218   6.519 -0.1806  0.1996  0.0509
  143OSM    C2F15748   2.369   2.133   6.386  0.1727  0.2511  0.4026
  143OSM    H2F15749   2.287   2.157   6.457  0.5577 -1.6423  1.5577
  143OSM    H2G15750   2.357   2.034   6.338  1.3850  0.1175  0.3341
  143OSM    C3F15751   2.389   2.244   6.278 -0.3491 -0.3057  0.0876
  143OSM    H3F15752   2.471   2.224   6.207 -0.0437  0.2681  0.2680
  143OSM    H3G15753   2.412   2.336   6.337 -1.5228 -1.2355  2.1222
  143OSM    C4F15754   2.271   2.266   6.193 -0.0878 -0.3420  0.1364
  143OSM    H4F15755   2.268   2.369   6.152 -0.2596 -1.0963 -1.8387
  143OSM    H4G15756   2.184   2.257   6.262  1.0568  1.2771  1.8780
  143OSM    C5F15757   2.263   2.168   6.075 -0.1599 -0.8674 -0.4194
  143OSM    H5F15758   2.155   2.167   6.048 -0.5531  1.6487  0.7867
  143OSM    H5G15759   2.295   2.067   6.106  0.0128 -0.9465 -0.8487
  143OSM    C6F15760   2.350   2.204   5.952 -0.3272 -0.6205  0.9623
  143OSM    H6F15761   2.458   2.184   5.970 -0.2374 -0.6264  0.4395
  143OSM    H6G15762   2.333   2.310   5.926 -0.5744 -1.2544 -1.7494
  143OSM    C7F15763   2.319   2.116   5.829  0.6372 -0.0625  0.0531
  143OSM    H7F15764   2.210   2.123   5.812  0.5795  0.6537  0.6783
  143OSM    H7G15765   2.330   2.010   5.860  2.1744 -0.2494 -1.0149
  143OSM    C8F15766   2.394   2.153   5.697 -0.0123  0.6191  0.0808
  143OSM    H8F15767   2.501   2.140   5.723 -0.1035  2.1415  1.4049
  143OSM    H8G15768   2.378   2.263   5.692  1.9534  1.0232  1.4818
  143OSM    C9F15769   2.353   2.080   5.571 -0.1291  0.3421 -0.7866
  143OSM    H9F15770   2.301   1.986   5.594  1.0849 -0.2743 -0.4359
  143OSM   C10F15771   2.354   2.115   5.439 -0.1173 -0.0048 -0.4447
  143OSM   H10F15772   2.315   2.054   5.355  0.0173  1.7844 -1.8666
  143OSM   C11F15773   2.406   2.240   5.381  0.1952  0.5698  0.3091
  143OSM   H11F15774   2.484   2.280   5.449  0.3229 -0.4899  0.8035
  143OSM   H11G15775   2.321   2.311   5.384 -1.3894 -1.1803 -0.9657
  143OSM   C12F15776   2.461   2.231   5.236  0.1083 -0.0667  0.5342
  143OSM   H12F15777   2.393   2.174   5.169 -0.2591 -0.1612  0.9832
  143OSM   H12G15778   2.557   2.174   5.240 -0.8953 -1.7580  1.5711
  143OSM   C13F15779   2.491   2.370   5.178 -0.7612  0.2979 -0.4924
  143OSM   H13F15780   2.573   2.424   5.231  0.4477 -0.9328 -1.0542
  143OSM   H13G15781   2.404   2.439   5.182 -1.0676 -0.1061 -0.1111
  143OSM   C14F15782   2.522   2.362   5.029 -0.8193  0.1154  0.4508
  143OSM   H14F15783   2.452   2.295   4.975  0.6170  1.1316 -2.9082
  143OSM   H14G15784   2.624   2.320   5.021 -1.3790 -1.0684 -1.0270
  143OSM   C15F15785   2.517   2.497   4.954 -0.4236 -0.3812 -0.2448
  143OSM   H15F15786   2.600   2.518   4.883  0.1879 -0.4405  0.4381
  143OSM   H15G15787   2.546   2.575   5.029 -0.7999 -1.5867  1.2044
  143OSM   C16F15788   2.385   2.535   4.887 -0.1701 -0.1054  1.4279
  143OSM   H16F15789   2.358   2.640   4.910  0.2542  0.3285  0.0789
  143OSM   H16G15790   2.299   2.473   4.922 -2.0319  2.9991  2.7442
  143OSM   C17F15791   2.376   2.527   4.731 -0.3992  0.5113 -0.1367
  143OSM   H17F15792   2.383   2.425   4.686  0.8667  0.3705  0.3317
  143OSM   H17G15793   2.471   2.578   4.702 -0.8216  1.9127  0.8647
  143OSM   C18F15794   2.255   2.600   4.683 -0.2679  0.0872 -0.6821
  143OSM   H18F15795   2.258   2.706   4.715  1.6516 -0.0686 -0.2225
  143OSM   H18G15796   2.163   2.560   4.731  0.6301 -0.5391  0.5865
  143OSM   H18H15797   2.250   2.605   4.572 -0.1803 -0.3881 -0.7082
  144OSM      N15798   3.119   5.783   6.618 -0.0047  0.8218  0.7172
  144OSM    C1515799   3.010   5.686   6.588 -0.3133  0.2709 -0.1611
  144OSM   H15A15800   3.049   5.586   6.599  1.4141  0.6561 -2.1597
  144OSM   H15B15801   2.974   5.692   6.486 -0.1037 -0.3182 -0.2765
  144OSM   H15C15802   2.930   5.698   6.660 -1.7638 -1.5957 -1.3572
  144OSM    C1415803   3.086   5.912   6.559  0.1557 -0.8743  0.4476
  144OSM   H14A15804   3.055   5.895   6.457 -1.9450 -0.0560  0.8722
  144OSM   H14B15805   3.170   5.977   6.542  0.9759 -1.6927  1.2983
  144OSM   H14C15806   3.017   5.972   6.617  0.3317 -0.5475  0.3231
  144OSM    C1315807   3.124   5.806   6.767  0.2454  0.1368  0.2767
  144OSM   H13A15808   3.181   5.896   6.787  1.6366 -0.5536 -0.5158
  144OSM   H13B15809   3.180   5.729   6.819  0.9988  0.9654  0.7247
  144OSM   H13C15810   3.026   5.817   6.812  0.8267 -0.1275  1.6798
  144OSM    C1215811   3.247   5.726   6.570 -0.5642 -0.1497 -0.0831
  144OSM   H12A15812   3.244   5.706   6.464  0.9337 -3.5208  0.3833
  144OSM   H12B15813   3.270   5.630   6.613  0.5413  1.4854  3.2911
  144OSM    C1115814   3.377   5.810   6.595 -0.5880 -0.3916  0.5557
  144OSM   H11A15815   3.456   5.742   6.557  0.5719  0.9092  0.5505
  144OSM   H11B15816   3.396   5.827   6.703 -1.1393  1.7687  0.3603
  144OSM      P15817   3.501   6.031   6.501 -0.4677  0.1908 -0.2381
  144OSM    O1315818   3.460   6.141   6.414 -0.1344 -0.4637  0.7219
  144OSM    O1415819   3.544   6.077   6.638 -0.6578  0.2287 -0.1471
  144OSM    O1115820   3.600   5.933   6.421 -0.1225  0.4179 -0.4072
  144OSM    O1215821   3.377   5.937   6.526 -0.1820 -0.1098  0.2646
  144OSM    C1S15822   3.551   5.859   6.304 -0.5143  0.4076  0.1211
  144OSM    H1S15823   3.440   5.852   6.301 -0.5133  0.7612 -1.6704
  144OSM    H1T15824   3.595   5.757   6.307 -1.0596  0.0787 -1.6432
  144OSM     NF15825   3.536   5.872   6.058  0.2622 -0.3423 -0.8296
  144OSM    HNF15826   3.567   5.782   6.026  0.9556 -0.5197  0.2752
  144OSM    C2S15827   3.604   5.926   6.173  0.0427  0.0212  0.2505
  144OSM    H2S15828   3.567   6.030   6.182 -0.8606 -0.4511  2.9502
  144OSM    C3S15829   3.756   5.932   6.159  0.2326 -0.5082  0.7498
  144OSM    H3S15830   3.789   5.826   6.150 -0.2111 -0.8815  2.9706
  144OSM     O315831   3.819   5.978   6.279 -0.4966 -0.3121 -0.1477
  144OSM    HO315832   3.737   5.993   6.326 -1.7491  1.2426 -2.5863
  144OSM    C4S15833   3.803   6.001   6.039  0.5819  0.0290 -0.5057
  144OSM    H4S15834   3.787   5.941   5.949  1.8126  0.2508 -0.8945
  144OSM    C5S15835   3.842   6.128   6.032  0.0926  0.0049  0.1618
  144OSM    H5S15836   3.852   6.193   6.120 -0.2726 -1.9353  1.7239
  144OSM    C6S15837   3.891   6.196   5.907 -0.1755  0.0721  0.7476
  144OSM    H6S15838   3.995   6.229   5.926  0.3243 -0.2851 -1.1845
  144OSM    H6T15839   3.834   6.291   5.899  1.4339  1.1273  1.3217
  144OSM    C7S15840   3.879   6.125   5.775  0.2334 -0.0736  0.2167
  144OSM    H7S15841   3.771   6.100   5.768  0.0313  0.8922 -0.4183
  144OSM    H7T15842   3.928   6.026   5.764  1.2670  0.2350  1.6313
  144OSM    C8S15843   3.908   6.211   5.648 -0.3871 -0.1331 -0.1277
  144OSM    H8S15844   4.014   6.240   5.654 -0.2406 -0.2429 -1.7365
  144OSM    H8T15845   3.847   6.301   5.670  1.3289  1.0461 -0.0967
  144OSM    C9S15846   3.871   6.153   5.510  0.1394 -0.0306 -0.9970
  144OSM    H9S15847   3.765   6.127   5.486 -0.1685  0.9898 -0.8299
  144OSM    H9T15848   3.929   6.060   5.497  2.2266  1.0984 -0.2507
  144OSM   C10S15849   3.928   6.245   5.390  0.1616  0.6078 -0.1279
  144OSM   H10S15850   4.039   6.243   5.393  0.1485  1.0626  1.4000
  144OSM   H10T15851   3.905   6.350   5.420  0.4893  0.3980  0.9203
  144OSM   C11S15852   3.881   6.184   5.253 -0.2468 -0.7444 -0.7270
  144OSM   H11S15853   3.775   6.214   5.245 -0.5691 -0.7797  2.1376
  144OSM   H11T15854   3.860   6.075   5.246 -2.5886 -0.3463 -0.7004
  144OSM   C12S15855   3.975   6.217   5.131 -0.5960 -0.4354 -0.0616
  144OSM   H12S15856   4.052   6.138   5.127 -0.5725 -0.4935  1.0527
  144OSM   H12T15857   4.033   6.310   5.153 -0.0249 -0.7347 -0.2799
  144OSM   C13S15858   3.892   6.235   5.003  0.0495  0.2942  0.7779
  144OSM   H13S15859   3.832   6.328   5.013 -0.7147 -0.1349  0.2339
  144OSM   H13T15860   3.820   6.151   5.000  0.9132 -0.4378 -0.0038
  144OSM   C14S15861   3.968   6.237   4.874  0.1239  0.0604  0.3852
  144OSM   H14S15862   4.035   6.149   4.865  1.0907  0.7662  0.4985
  144OSM   H14T15863   4.024   6.333   4.874  1.4323 -0.6618  1.2964
  144OSM   C15S15864   3.886   6.248   4.742 -0.2864  0.6242  0.1665
  144OSM   H15S15865   3.949   6.287   4.658 -0.4843 -0.4526 -0.4941
  144OSM   H15T15866   3.797   6.314   4.745 -3.0295 -2.7675 -0.8963
  144OSM   C16S15867   3.847   6.102   4.689  0.1579  0.1761 -0.0217
  144OSM   H16S15868   3.806   6.051   4.780  0.3278  2.3063  1.3155
  144OSM   H16T15869   3.935   6.037   4.671 -0.4097 -1.3371  2.1605
  144OSM   C17S15870   3.750   6.097   4.574  0.3482 -0.3733  0.0274
  144OSM   H17S15871   3.647   6.126   4.605 -0.3260 -2.9599  0.4432
  144OSM   H17T15872   3.733   5.988   4.561 -1.2098 -0.9970  5.1052
  144OSM   C18S15873   3.791   6.180   4.446 -0.5648  0.3013  0.2571
  144OSM   H18S15874   3.865   6.131   4.379  0.0451 -0.2430  1.2973
  144OSM   H18T15875   3.811   6.288   4.466 -3.4991  1.3418 -1.7410
  144OSM   H18U15876   3.698   6.192   4.386 -0.1809 -0.1902 -0.4497
  144OSM    C1F15877   3.409   5.906   6.036 -0.4033 -0.6057  0.2943
  144OSM     OF15878   3.365   6.004   6.093  0.4147 -0.6560 -0.3210
  144OSM    C2F15879   3.327   5.826   5.942  0.1196 -0.2647 -0.1077
  144OSM    H2F15880   3.274   5.743   5.994 -0.1284 -0.4903 -0.6973
  144OSM    H2G15881   3.398   5.785   5.866  1.3441 -0.9916  1.3888
  144OSM    C3F15882   3.230   5.918   5.863  0.1916  0.4396  0.0394
  144OSM    H3F15883   3.278   6.004   5.811 -1.4539  1.6432  0.4229
  144OSM    H3G15884   3.157   5.959   5.936  1.3949  0.7562  1.0988
  144OSM    C4F15885   3.130   5.844   5.765 -0.0320 -0.5572  0.1864
  144OSM    H4F15886   3.030   5.891   5.764  1.6685  3.3822 -0.3218
  144OSM    H4G15887   3.119   5.737   5.796 -0.5122 -0.5024  0.2137
  144OSM    C5F15888   3.164   5.859   5.614  0.4486  0.0264  0.2089
  144OSM    H5F15889   3.253   5.793   5.604 -0.8213 -1.6289 -0.6516
  144OSM    H5G15890   3.198   5.964   5.598 -2.8113  1.1553  0.1036
  144OSM    C6F15891   3.064   5.810   5.508 -0.2600  0.4109 -0.7928
  144OSM    H6F15892   2.979   5.882   5.511 -0.5373  0.0771 -0.4935
  144OSM    H6G15893   3.019   5.710   5.529  0.0396  0.5938  0.8160
  144OSM    C7F15894   3.125   5.823   5.369 -0.1036 -0.5088  0.3748
  144OSM    H7F15895   3.199   5.739   5.362 -0.2956 -0.6534  0.0260
  144OSM    H7G15896   3.176   5.922   5.364  0.2285 -0.5686  1.9762
  144OSM    C8F15897   3.026   5.810   5.258  0.2822  0.6811 -0.1594
  144OSM    H8F15898   2.946   5.886   5.264  1.1896  1.5566  1.4897
  144OSM    H8G15899   2.984   5.707   5.261  1.9273 -0.0327 -0.5212
  144OSM    C9F15900   3.092   5.840   5.125  0.2821 -0.8378  0.1619
  144OSM    H9F15901   3.162   5.925   5.124 -1.5111  0.7267  0.4408
  144OSM   C10F15902   3.069   5.776   5.009 -0.1826  0.2218 -0.0449
  144OSM   H10F15903   3.129   5.812   4.924 -0.7619  0.2150 -0.4675
  144OSM   C11F15904   2.965   5.663   4.996 -0.0480  0.2230 -0.7702
  144OSM   H11F15905   2.905   5.655   5.089 -0.5621  1.2850 -1.0041
  144OSM   H11G15906   3.021   5.568   4.983  0.3261  0.0432  1.6960
  144OSM   C12F15907   2.872   5.676   4.879  0.8230 -0.3954  0.0093
  144OSM   H12F15908   2.798   5.759   4.887 -0.2743 -0.8951 -3.1764
  144OSM   H12G15909   2.813   5.582   4.885 -0.8452  0.4563 -1.6637
  144OSM   C13F15910   2.954   5.669   4.751  0.4030 -0.1410 -0.0599
  144OSM   H13F15911   3.025   5.584   4.759  1.5178  0.9236  2.9132
  144OSM   H13G15912   3.014   5.762   4.748  0.6054 -0.2895 -2.0171
  144OSM   C14F15913   2.859   5.663   4.630  0.7376  0.1910  0.6375
  144OSM   H14F15914   2.785   5.746   4.623  1.1638  0.5258 -0.0432
  144OSM   H14G15915   2.796   5.572   4.640  0.1235  0.6694  1.1891
  144OSM   C15F15916   2.949   5.660   4.504  0.2212 -0.2003 -0.2372
  144OSM   H15F15917   3.020   5.576   4.521  1.0378  0.9167  2.4605
  144OSM   H15G15918   3.020   5.746   4.507 -0.1494  0.0779  0.7075
  144OSM   C16F15919   2.877   5.649   4.375 -0.2282  0.7623  0.4782
  144OSM   H16F15920   2.944   5.668   4.288  0.9152 -0.8534  0.9753
  144OSM   H16G15921   2.787   5.714   4.370 -2.1289 -1.7762 -1.6528
  144OSM   C17F15922   2.835   5.504   4.354 -0.6333  1.1582  0.0119
  144OSM   H17F15923   2.794   5.471   4.452 -0.3734  0.5209 -0.0903
  144OSM   H17G15924   2.926   5.442   4.343 -1.5421  0.0719 -1.8773
  144OSM   C18F15925   2.740   5.482   4.234  0.4484  0.3718 -0.0363
  144OSM   H18F15926   2.736   5.373   4.216  1.1102  0.3371 -0.0068
  144OSM   H18G15927   2.778   5.521   4.137  1.3971 -1.3597 -0.3981
  144OSM   H18H15928   2.634   5.514   4.233  0.7421  1.5594 -2.8322
  145OSM      N15929   0.740   3.594   6.915  0.1065  0.2620  0.1232
  145OSM    C1515930   0.701   3.465   6.974  0.1624 -0.2933  0.2090
  145OSM   H15A15931   0.695   3.390   6.897 -2.5851 -0.1748  0.2189
  145OSM   H15B15932   0.604   3.478   7.021 -0.2752  1.8637 -1.1358
  145OSM   H15C15933   0.774   3.426   7.043 -0.9535  0.6214  1.9942
  145OSM    C1415934   0.725   3.698   7.028  0.2077  0.2219  0.2664
  145OSM   H14A15935   0.760   3.794   6.993  0.1555  0.0260 -0.3496
  145OSM   H14B15936   0.780   3.663   7.114 -1.3924 -1.6788  0.6061
  145OSM   H14C15937   0.622   3.706   7.057  0.0579 -1.7134  0.4299
  145OSM    C1315938   0.888   3.591   6.889  0.0417  0.1706 -0.2645
  145OSM   H13A15939   0.936   3.688   6.889  0.4520 -0.0148  1.0008
  145OSM   H13B15940   0.909   3.540   6.796  0.0074 -0.8533  0.2771
  145OSM   H13C15941   0.937   3.543   6.972  0.0260  0.5040 -0.0621
  145OSM    C1215942   0.671   3.629   6.781  0.1533  0.3130  0.1417
  145OSM   H12A15943   0.702   3.728   6.748  1.3087 -0.3889 -1.0070
  145OSM   H12B15944   0.569   3.649   6.808  0.8878  1.6014  2.2542
  145OSM    C1115945   0.678   3.523   6.667  0.1511 -0.9496  0.1484
  145OSM   H11A15946   0.785   3.514   6.636 -0.5444  0.7999 -3.2284
  145OSM   H11B15947   0.623   3.562   6.579  1.9045  1.0409 -0.1509
  145OSM      P15948   0.470   3.363   6.721 -0.1310 -0.1484 -0.2624
  145OSM    O1315949   0.456   3.248   6.808 -0.2589  0.0128  0.3639
  145OSM    O1415950   0.391   3.485   6.754  0.4567  0.2426  0.5481
  145OSM    O1115951   0.428   3.323   6.570 -0.5785 -0.0791 -0.0554
  145OSM    O1215952   0.627   3.394   6.705 -0.3137  0.1148  0.1246
  145OSM    C1S15953   0.487   3.206   6.513 -0.4866  0.1613 -0.5794
  145OSM    H1S15954   0.466   3.119   6.578  2.9081  0.4665  1.1511
  145OSM    H1T15955   0.597   3.215   6.502 -0.3233 -1.1598 -0.1884
  145OSM     NF15956   0.456   3.063   6.305  0.2706  0.7627 -0.0942
  145OSM    HNF15957   0.519   3.071   6.228  0.1183  1.7078 -0.1351
  145OSM    C2S15958   0.430   3.194   6.367 -0.0146  0.6833  0.4831
  145OSM    H2S15959   0.321   3.206   6.382  0.0048  0.8743  0.4811
  145OSM    C3S15960   0.462   3.318   6.285 -0.2977 -0.5438 -0.5237
  145OSM    H3S15961   0.571   3.336   6.289 -0.7386  2.7438 -0.1318
  145OSM     O315962   0.410   3.440   6.333  0.3408  0.1668  0.2105
  145OSM    HO315963   0.373   3.422   6.420 -0.2755  0.7415  0.0768
  145OSM    C4S15964   0.423   3.313   6.141 -0.0237 -0.5840  0.0406
  145OSM    H4S15965   0.507   3.274   6.082  0.4665  0.2909  0.1507
  145OSM    C5S15966   0.307   3.340   6.083  0.2745  1.0047 -0.4714
  145OSM    H5S15967   0.223   3.376   6.143  1.3575  0.3686  1.5009
  145OSM    C6S15968   0.284   3.330   5.930 -0.2886 -0.0557 -0.4864
  145OSM    H6S15969   0.245   3.425   5.888  0.2369  0.9243  1.1319
  145OSM    H6T15970   0.203   3.255   5.916 -1.2697  0.8379  0.1889
  145OSM    C7S15971   0.391   3.295   5.828  0.4458  0.0327 -0.1555
  145OSM    H7S15972   0.451   3.212   5.869  0.2483  0.0942  0.2607
  145OSM    H7T15973   0.445   3.391   5.820 -1.2251  1.0382  0.1812
  145OSM    C8S15974   0.346   3.254   5.688  0.0596  0.0765 -0.3527
  145OSM    H8S15975   0.300   3.154   5.698  4.1523 -2.0262 -0.7812
  145OSM    H8T15976   0.439   3.236   5.631  1.8693  1.8426  1.8227
  145OSM    C9S15977   0.258   3.356   5.624 -0.2540  0.6181  0.5291
  145OSM    H9S15978   0.316   3.449   5.605  1.2442 -0.7284 -1.8916
  145OSM    H9T15979   0.167   3.376   5.686 -0.1363  0.5715  0.7168
  145OSM   C10S15980   0.190   3.311   5.491  0.4956 -0.2749  0.1847
  145OSM   H10S15981   0.107   3.381   5.468  1.4768  1.1259  0.7502
  145OSM   H10T15982   0.144   3.211   5.504 -1.0492  0.1345 -1.6860
  145OSM   C11S15983   0.287   3.304   5.376  0.2331 -1.1410 -0.6599
  145OSM   H11S15984   0.341   3.207   5.370  0.6665 -1.0537  1.3706
  145OSM   H11T15985   0.355   3.390   5.355 -0.4930 -0.9197 -2.2524
  145OSM   C12S15986   0.209   3.321   5.243 -0.1655 -0.1368  0.1518
  145OSM   H12S15987   0.157   3.420   5.238 -0.5322 -0.3278  0.1425
  145OSM   H12T15988   0.141   3.236   5.221 -1.3026  0.9175 -0.5252
  145OSM   C13S15989   0.307   3.328   5.118 -0.2940  0.4975  0.0291
  145OSM   H13S15990   0.377   3.243   5.130 -1.2328 -0.0568  1.9420
  145OSM   H13T15991   0.364   3.423   5.130  2.5073 -0.6415 -2.8384
  145OSM   C14S15992   0.234   3.325   4.977 -0.5097  0.8148 -0.3831
  145OSM   H14S15993   0.162   3.409   4.972 -0.6667  0.6849 -0.2810
  145OSM   H14T15994   0.182   3.227   4.969 -1.7579  1.5331 -1.5056
  145OSM   C15S15995   0.330   3.345   4.854 -0.3014  0.1906  0.4566
  145OSM   H15S15996   0.372   3.448   4.851 -0.7766  0.3600 -1.9928
  145OSM   H15T15997   0.278   3.344   4.756 -0.0174 -1.1863  0.2956
  145OSM   C16S15998   0.444   3.236   4.841 -0.0122  0.1695  0.1468
  145OSM   H16S15999   0.389   3.139   4.844 -1.7769  0.9521 -2.7772
  145OSM   H16T16000   0.518   3.238   4.924  0.5560 -1.6789 -0.2632
  145OSM   C17S16001   0.506   3.238   4.703 -1.0633 -0.1504  0.3098
  145OSM   H17S16002   0.522   3.347   4.696  3.3617 -0.5485  1.2730
  145OSM   H17T16003   0.450   3.218   4.610  0.8494 -2.3092 -0.4910
  145OSM   C18S16004   0.626   3.156   4.690  0.1058 -0.5874 -0.7434
  145OSM   H18S16005   0.701   3.162   4.772 -2.1624 -0.8697  1.4855
  145OSM   H18T16006   0.680   3.188   4.599 -1.4286 -0.2940 -1.5928
  145OSM   H18U16007   0.598   3.052   4.664 -0.0569 -0.7568  0.0934
  145OSM    C1F16008   0.427   2.945   6.351 -0.2615  0.8556  0.0214
  145OSM     OF16009   0.367   2.920   6.455  0.2265  0.5808  0.2175
  145OSM    C2F16010   0.485   2.824   6.275  0.0518 -0.5445 -0.3909
  145OSM    H2F16011   0.523   2.871   6.182 -0.8342  2.6094  0.7169
  145OSM    H2G16012   0.403   2.758   6.238 -1.3293 -0.5629  2.4308
  145OSM    C3F16013   0.582   2.729   6.355  0.4071  0.0238  0.1147
  145OSM    H3F16014   0.533   2.688   6.446 -0.1526 -2.2282 -1.1064
  145OSM    H3G16015   0.680   2.777   6.378 -0.6267  1.7965  1.0362
  145OSM    C4F16016   0.608   2.602   6.273  0.1104 -0.2750  0.5420
  145OSM    H4F16017   0.522   2.595   6.203  0.1588  0.5211  0.3924
  145OSM    H4G16018   0.611   2.513   6.338 -0.4077 -0.9581 -0.3406
  145OSM    C5F16019   0.744   2.601   6.200  0.1019 -0.0215 -0.0918
  145OSM    H5F16020   0.827   2.623   6.271 -0.7922  0.8496  0.7091
  145OSM    H5G16021   0.740   2.677   6.119  1.4100  1.2848  1.0217
  145OSM    C6F16022   0.752   2.456   6.145 -0.2955 -0.8040 -0.1960
  145OSM    H6F16023   0.667   2.438   6.076 -0.2345 -0.1782 -0.4452
  145OSM    H6G16024   0.749   2.392   6.235  0.1417 -2.3978 -1.2816
  145OSM    C7F16025   0.883   2.423   6.067 -0.5602 -0.1452 -0.2322
  145OSM    H7F16026   0.891   2.313   6.059 -1.0527 -0.4432  2.3774
  145OSM    H7G16027   0.959   2.459   6.139 -0.3838  1.8200 -1.3158
  145OSM    C8F16028   0.893   2.501   5.932 -0.0919 -0.5335  0.8738
  145OSM    H8F16029   0.875   2.607   5.961  0.7671 -0.3037  0.5941
  145OSM    H8G16030   0.802   2.473   5.876  0.4389  0.1355 -0.3646
  145OSM    C9F16031   1.013   2.482   5.849 -0.4540  0.6462 -0.0766
  145OSM    H9F16032   1.085   2.564   5.861  1.0901 -0.7863  0.8230
  145OSM   C10F16033   1.037   2.384   5.764 -0.2494  0.6017  0.0544
  145OSM   H10F16034   1.137   2.386   5.717 -0.3863  0.0978 -0.2738
  145OSM   C11F16035   0.967   2.254   5.716 -0.4959 -0.0084 -0.6478
  145OSM   H11F16036   0.894   2.221   5.792 -0.5660 -1.0194 -1.1326
  145OSM   H11G16037   1.042   2.172   5.705 -0.1130 -0.1479  2.1586
  145OSM   C12F16038   0.904   2.277   5.587  0.0887  0.1466  0.0289
  145OSM   H12F16039   0.974   2.273   5.501  0.0364  0.2270 -0.0181
  145OSM   H12G16040   0.846   2.372   5.587 -0.6306 -0.2835  0.0537
  145OSM   C13F16041   0.777   2.177   5.566 -0.2163 -0.2083  0.0788
  145OSM   H13F16042   0.720   2.191   5.660 -0.2788 -1.4443  0.2379
  145OSM   H13G16043   0.800   2.068   5.567 -2.1649 -0.6515  1.1347
  145OSM   C14F16044   0.698   2.211   5.446 -0.6893  0.0183 -0.0233
  145OSM   H14F16045   0.659   2.314   5.459 -0.8041  0.3160 -2.2892
  145OSM   H14G16046   0.618   2.134   5.448 -2.9812  2.1323 -2.0899
  145OSM   C15F16047   0.780   2.192   5.310 -0.4402  0.3994 -0.1734
  145OSM   H15F16048   0.868   2.259   5.315 -0.2386  0.0985  0.3915
  145OSM   H15G16049   0.718   2.222   5.223 -0.6670 -1.7025 -0.7965
  145OSM   C16F16050   0.836   2.050   5.291  0.1100 -0.1232 -0.5510
  145OSM   H16F16051   0.768   1.972   5.333  1.1022 -0.7448 -0.0491
  145OSM   H16G16052   0.933   2.042   5.344  0.8101  1.5171 -1.4984
  145OSM   C17F16053   0.862   2.024   5.143 -0.3590  0.6756  0.3377
  145OSM   H17F16054   0.916   2.111   5.100  0.9693 -0.1824  0.2234
  145OSM   H17G16055   0.764   2.020   5.091  0.4122  0.5027 -1.1647
  145OSM   C18F16056   0.940   1.895   5.140  0.0165  0.4148  0.8748
  145OSM   H18F16057   1.026   1.896   5.210 -0.4458  3.0352  1.4908
  145OSM   H18G16058   0.990   1.871   5.043 -1.0235 -1.1364  0.6830
  145OSM   H18H16059   0.876   1.806   5.159  0.8436 -0.2742  0.5272
  146OSM      N16060   2.824   5.126   6.622 -0.8349  0.0986 -0.3039
  146OSM    C1516061   2.865   5.271   6.649  0.0918 -0.5809  0.2884
  146OSM   H15A16062   2.808   5.339   6.588 -0.1048  0.9960  2.1239
  146OSM   H15B16063   2.970   5.285   6.625 -0.3222 -0.4747 -1.6377
  146OSM   H15C16064   2.855   5.289   6.755 -0.2799  0.1846  0.1275
  146OSM    C1416065   2.920   5.048   6.705  0.4157  0.3843 -0.4373
  146OSM   H14A16066   2.896   4.943   6.694  1.2434  0.0569  0.7393
  146OSM   H14B16067   2.892   5.071   6.807 -3.0394  0.7841 -1.3408
  146OSM   H14C16068   3.019   5.084   6.683 -0.4419  2.6363 -0.9144
  146OSM    C1316069   2.685   5.100   6.661 -0.0214  0.6159 -0.8107
  146OSM   H13A16070   2.653   4.997   6.656  0.9706  0.1722  1.2490
  146OSM   H13B16071   2.612   5.163   6.611 -0.4153 -0.7442 -2.0231
  146OSM   H13C16072   2.673   5.128   6.764 -2.0281 -1.1725 -0.4847
  146OSM    C1216073   2.847   5.087   6.479  0.7538  0.3362 -0.2641
  146OSM   H12A16074   2.942   5.126   6.449  0.9476  1.4258  1.6511
  146OSM   H12B16075   2.766   5.122   6.416  0.4357 -0.1201 -0.1182
  146OSM    C1116076   2.835   4.936   6.448  0.5086  0.2503  0.0447
  146OSM   H11A16077   2.820   4.924   6.339  2.7242 -0.5035 -0.2344
  146OSM   H11B16078   2.749   4.879   6.489  0.2638  0.0820 -0.6785
  146OSM      P16079   3.097   4.887   6.435  0.0809 -0.0187  0.3107
  146OSM    O1316080   3.092   5.021   6.375  0.3480  0.4675  0.3910
  146OSM    O1416081   3.171   4.873   6.561  0.4612  0.2858 -0.8205
  146OSM    O1116082   3.124   4.769   6.337  0.6009  0.0045 -0.3023
  146OSM    O1216083   2.949   4.855   6.481 -0.6560  0.4432 -0.6201
  146OSM    C1S16084   3.059   4.784   6.208  0.0906 -0.1711 -0.3702
  146OSM    H1S16085   3.042   4.888   6.173  0.5680  0.3572  0.8783
  146OSM    H1T16086   2.954   4.750   6.220 -0.2749  1.1953  0.5332
  146OSM     NF16087   3.079   4.747   5.970  0.2342 -0.0831 -0.0588
  146OSM    HNF16088   3.017   4.685   5.924  1.4856 -2.2702  1.0473
  146OSM    C2S16089   3.118   4.697   6.101  0.0922  0.1035 -0.0963
  146OSM    H2S16090   3.229   4.706   6.103  0.2295 -1.2403  1.9402
  146OSM    C3S16091   3.075   4.550   6.130 -0.0246  0.2805  0.3725
  146OSM    H3S16092   2.966   4.551   6.109  0.1245  1.2852 -0.4320
  146OSM     O316093   3.090   4.510   6.269 -0.0799  0.3515  0.5859
  146OSM    HO316094   3.110   4.584   6.326  0.1002 -0.4347  1.5654
  146OSM    C4S16095   3.137   4.460   6.030 -0.5029  0.0059  0.5819
  146OSM    H4S16096   3.096   4.481   5.930  0.2931 -1.4703 -0.0977
  146OSM    C5S16097   3.234   4.371   6.042  1.0066  1.0678 -0.2681
  146OSM    H5S16098   3.271   4.343   6.142  1.9981  1.6135 -0.4652
  146OSM    C6S16099   3.289   4.274   5.939  0.4378 -0.3554  0.4347
  146OSM    H6S16100   3.281   4.168   5.971 -1.6152  0.0839  1.5705
  146OSM    H6T16101   3.398   4.296   5.927  0.3940 -0.0574  0.5608
  146OSM    C7S16102   3.223   4.266   5.799  0.0290  0.1638  0.3950
  146OSM    H7S16103   3.231   4.362   5.742 -1.9827 -0.2935 -0.7371
  146OSM    H7T16104   3.117   4.236   5.813 -0.0261  0.6064  0.9512
  146OSM    C8S16105   3.284   4.153   5.717  0.0542 -0.1192 -0.7385
  146OSM    H8S16106   3.252   4.062   5.772 -0.2205  0.6822  0.4648
  146OSM    H8T16107   3.394   4.160   5.703  0.3030  0.2483  1.2165
  146OSM    C9S16108   3.235   4.156   5.573  0.2692  0.6444  0.2913
  146OSM    H9S16109   3.242   4.260   5.533 -1.7270  0.3035 -1.0801
  146OSM    H9T16110   3.125   4.141   5.567  0.4645 -2.6722  2.6247
  146OSM   C10S16111   3.324   4.073   5.473  0.1776  0.2626 -0.2840
  146OSM   H10S16112   3.311   3.964   5.491 -1.9457  0.3484 -0.9903
  146OSM   H10T16113   3.432   4.096   5.486  0.1571 -0.3713  1.0904
  146OSM   C11S16114   3.281   4.099   5.330 -0.3153 -0.3579 -0.2483
  146OSM   H11S16115   3.313   4.201   5.298  0.3707 -0.5349 -0.1541
  146OSM   H11T16116   3.174   4.108   5.303 -0.4196 -0.0294  0.2687
  146OSM   C12S16117   3.350   3.996   5.243 -0.4565 -0.1417 -0.6295
  146OSM   H12S16118   3.315   3.895   5.275  1.1981  0.1077  2.4380
  146OSM   H12T16119   3.456   3.989   5.276 -0.0264 -0.8080 -2.0906
  146OSM   C13S16120   3.326   4.034   5.101 -0.2969 -0.5145 -0.1735
  146OSM   H13S16121   3.342   4.144   5.099  0.9075 -0.6655  0.1514
  146OSM   H13T16122   3.223   4.021   5.063  0.7765  0.7560 -3.9887
  146OSM   C14S16123   3.432   3.966   5.007  0.2183  0.2898  0.4855
  146OSM   H14S16124   3.421   3.859   5.035  0.8476  0.5207  1.6907
  146OSM   H14T16125   3.536   3.992   5.036  1.0288 -1.7275 -0.4195
  146OSM   C15S16126   3.413   3.986   4.854  0.0095  0.4692 -0.8316
  146OSM   H15S16127   3.480   3.922   4.793 -1.5827  0.3517 -2.5460
  146OSM   H15T16128   3.427   4.093   4.828  0.5131  0.2647 -1.4222
  146OSM   C16S16129   3.262   3.961   4.812 -0.4216  0.2619  0.2024
  146OSM   H16S16130   3.217   4.052   4.859  1.3595  0.6039  1.3594
  146OSM   H16T16131   3.222   3.868   4.858 -2.0827  0.7781 -0.1036
  146OSM   C17S16132   3.227   3.966   4.668  0.1040 -0.4724 -0.1864
  146OSM   H17S16133   3.295   3.899   4.611  1.5234  0.1385  0.7081
  146OSM   H17T16134   3.241   4.069   4.627  0.9259 -0.3165  0.4455
  146OSM   C18S16135   3.077   3.939   4.635 -0.2101  0.1069  0.7006
  146OSM   H18S16136   3.048   3.950   4.529  0.1028 -0.4927  0.5489
  146OSM   H18T16137   3.002   4.001   4.689  0.6758  1.0050  0.9234
  146OSM   H18U16138   3.057   3.831   4.653  2.0159 -0.2259  1.5045
  146OSM    C1F16139   3.093   4.867   5.908  0.7178  0.5158 -0.9852
  146OSM     OF16140   3.145   4.959   5.964 -0.0083  0.2503 -0.0723
  146OSM    C2F16141   3.021   4.895   5.777  0.4244  0.4924  0.4183
  146OSM    H2F16142   2.946   4.974   5.803 -0.6255 -0.9776  2.0934
  146OSM    H2G16143   2.969   4.803   5.743  0.2063  0.0253  1.9391
  146OSM    C3F16144   3.116   4.929   5.662 -0.1848 -0.4196 -0.0143
  146OSM    H3F16145   3.187   4.845   5.649 -1.1347 -1.1298 -0.8645
  146OSM    H3G16146   3.177   5.014   5.698 -0.0882 -0.4883 -0.0161
  146OSM    C4F16147   3.052   4.962   5.527 -0.7751 -0.2702 -0.3088
  146OSM    H4F16148   3.131   5.004   5.462 -0.1174 -2.1329 -0.7822
  146OSM    H4G16149   2.965   5.031   5.530 -0.4531  0.1393 -0.1702
  146OSM    C5F16150   2.985   4.834   5.462 -0.2674  0.5151 -0.1237
  146OSM    H5F16151   2.888   4.806   5.509 -1.2027  1.4406 -1.4395
  146OSM    H5G16152   3.059   4.752   5.472 -1.0098  0.0411  1.9675
  146OSM    C6F16153   2.950   4.865   5.314 -0.5584  0.1704 -0.4504
  146OSM    H6F16154   3.047   4.879   5.263 -0.4399 -1.5520 -0.7648
  146OSM    H6G16155   2.893   4.960   5.305 -1.0242 -0.0717 -0.1362
  146OSM    C7F16156   2.878   4.756   5.239  0.1305  0.8655  0.4265
  146OSM    H7F16157   2.774   4.730   5.267 -0.7177  3.1713 -0.3023
  146OSM    H7G16158   2.930   4.663   5.270 -1.6565  0.1114  1.2511
  146OSM    C8F16159   2.893   4.779   5.087  0.4477  0.3128 -0.0588
  146OSM    H8F16160   2.995   4.811   5.058  1.1614 -1.7857 -0.0952
  146OSM    H8G16161   2.828   4.866   5.063 -0.0207 -0.0798 -0.2394
  146OSM    C9F16162   2.853   4.659   5.009  0.6763  0.9821 -0.7705
  146OSM    H9F16163   2.939   4.593   4.987  0.4070 -0.2110  1.4017
  146OSM   C10F16164   2.737   4.624   4.949  0.5793 -0.4559 -0.2381
  146OSM   H10F16165   2.724   4.533   4.888  2.2219  0.1660 -1.5928
  146OSM   C11F16166   2.607   4.707   4.970 -0.1778 -0.1129  0.0131
  146OSM   H11F16167   2.626   4.782   5.050 -0.3344 -0.8905  0.8058
  146OSM   H11G16168   2.530   4.638   5.011 -1.2879  0.1687 -1.5088
  146OSM   C12F16169   2.562   4.773   4.842 -0.3219 -0.0956  0.3839
  146OSM   H12F16170   2.452   4.763   4.833 -0.3688  1.2718 -1.0574
  146OSM   H12G16171   2.598   4.719   4.752 -2.0402 -0.6539  0.0101
  146OSM   C13F16172   2.597   4.923   4.840  0.0551 -0.0310 -0.0352
  146OSM   H13F16173   2.704   4.938   4.868  0.4218 -0.0056 -1.4047
  146OSM   H13G16174   2.525   4.967   4.912  0.1440  0.3751 -0.1923
  146OSM   C14F16175   2.583   4.999   4.708  0.6052  0.3746  0.5085
  146OSM   H14F16176   2.671   4.973   4.646  0.6825  1.1681  0.2700
  146OSM   H14G16177   2.490   4.964   4.659 -0.4483  2.5175  0.8743
  146OSM   C15F16178   2.574   5.147   4.724  0.1577  1.2724 -0.6326
  146OSM   H15F16179   2.653   5.189   4.791 -3.0518  3.0997  2.3055
  146OSM   H15G16180   2.483   5.175   4.781  1.4032  2.5636  0.8067
  146OSM   C16F16181   2.572   5.207   4.581  0.2247 -0.2776 -0.3443
  146OSM   H16F16182   2.649   5.164   4.513  2.1339  2.2033  0.0868
  146OSM   H16G16183   2.608   5.312   4.583 -0.6601  0.1581 -3.1176
  146OSM   C17F16184   2.425   5.197   4.515  0.6876 -0.0970  0.4371
  146OSM   H17F16185   2.356   5.252   4.583 -1.1778 -1.9492  0.1239
  146OSM   H17G16186   2.387   5.093   4.520 -2.3087  0.7936 -1.2302
  146OSM   C18F16187   2.425   5.251   4.381  0.2377 -0.2143  0.4816
  146OSM   H18F16188   2.480   5.183   4.313 -1.3463 -1.4525  0.3619
  146OSM   H18G16189   2.477   5.348   4.374  0.5983 -0.5071 -1.6568
  146OSM   H18H16190   2.324   5.267   4.337  0.9394 -0.5892 -1.3743
  147OSM      N16191   4.771   6.291   1.778  0.0116  0.1722  0.5487
  147OSM    C1516192   4.750   6.209   1.658  0.1697  0.0080  1.1543
  147OSM   H15A16193   4.655   6.246   1.624 -0.8383 -0.6039  3.1432
  147OSM   H15B16194   4.751   6.105   1.689  1.6576  0.1905  1.8134
  147OSM   H15C16195   4.824   6.216   1.580 -2.2585  4.4415 -1.1417
  147OSM    C1416196   4.895   6.256   1.860  0.0038 -0.1795 -0.0181
  147OSM   H14A16197   4.894   6.165   1.919  1.2931  0.8796  1.7313
  147OSM   H14B16198   4.917   6.334   1.931 -0.3473 -1.4857  1.5965
  147OSM   H14C16199   4.981   6.242   1.796  0.6607 -1.8612  1.1416
  147OSM    C1316200   4.792   6.433   1.730 -0.3481  0.3883  0.3647
  147OSM   H13A16201   4.884   6.456   1.677 -0.9110  0.1020 -0.7780
  147OSM   H13B16202   4.774   6.511   1.802  1.2947  0.2155  1.0108
  147OSM   H13C16203   4.713   6.466   1.664 -2.0241 -1.1253  1.5440
  147OSM    C1216204   4.645   6.289   1.863  0.4563  0.1592  0.0578
  147OSM   H12A16205   4.610   6.191   1.890 -3.8128  1.5607  0.2950
  147OSM   H12B16206   4.561   6.329   1.807  2.0690  2.5084 -0.8723
  147OSM    C1116207   4.641   6.365   2.003 -0.1387  0.5091  0.1145
  147OSM   H11A16208   4.722   6.317   2.061  0.5689  1.9411  0.3521
  147OSM   H11B16209   4.544   6.348   2.053 -0.0846 -0.8101 -0.1957
  147OSM      P16210   4.577   6.623   1.993 -0.5158 -0.7512 -0.4930
  147OSM    O1316211   4.638   6.736   2.065 -0.1689  0.3119 -0.3105
  147OSM    O1416212   4.548   6.646   1.849 -0.1503  0.2253 -1.0166
  147OSM    O1116213   4.445   6.579   2.069 -0.2263  0.0252  0.4226
  147OSM    O1216214   4.677   6.500   1.992 -0.2984 -0.8388  0.0598
  147OSM    C1S16215   4.441   6.555   2.207 -0.2161  0.4192  0.2628
  147OSM    H1S16216   4.543   6.522   2.236 -0.9263 -1.2242  1.0282
  147OSM    H1T16217   4.375   6.470   2.236 -0.5665  0.2688 -0.9063
  147OSM     NF16218   4.450   6.653   2.435  0.1608 -0.3115  0.6968
  147OSM    HNF16219   4.376   6.656   2.503 -0.0933 -1.1758  0.4720
  147OSM    C2S16220   4.419   6.680   2.294 -0.1186  0.0867  0.4588
  147OSM    H2S16221   4.477   6.769   2.261 -1.8985  0.5996 -1.5288
  147OSM    C3S16222   4.272   6.736   2.272 -1.3194  0.2260  0.1438
  147OSM    H3S16223   4.206   6.672   2.335 -0.7750 -0.3382  0.1485
  147OSM     O316224   4.210   6.731   2.140 -0.5104  0.5530 -0.5076
  147OSM    HO316225   4.270   6.690   2.076  0.7203  2.7213 -0.8663
  147OSM    C4S16226   4.255   6.869   2.329  0.0548  0.0811  0.4687
  147OSM    H4S16227   4.240   6.869   2.438  0.2960  0.0323  0.5018
  147OSM    C5S16228   4.274   6.989   2.271 -0.2018  0.0819  0.0760
  147OSM    H5S16229   4.327   6.995   2.174 -0.7574  3.0636 -0.1456
  147OSM    C6S16230   4.257   7.116   2.350 -0.2676 -0.6298  0.3935
  147OSM    H6S16231   4.226   7.194   2.276 -1.3335  0.8491  2.2979
  147OSM    H6T16232   4.353   7.155   2.390 -0.2054  1.6552 -1.7077
  147OSM    C7S16233   4.159   7.105   2.472 -0.0744 -0.3934  0.3783
  147OSM    H7S16234   4.207   7.050   2.555 -0.0949  0.8060  1.2171
  147OSM    H7T16235   4.066   7.048   2.450 -0.3508 -0.0808  0.7129
  147OSM    C8S16236   4.129   7.244   2.542 -0.7566  0.1957  1.1007
  147OSM    H8S16237   4.100   7.329   2.477  0.8334 -0.2421 -0.2646
  147OSM    H8T16238   4.230   7.275   2.576  0.4911  0.3210 -2.3588
  147OSM    C9S16239   4.030   7.235   2.658 -0.2322 -0.3623 -0.6785
  147OSM    H9S16240   4.051   7.153   2.730  1.6537  0.7451  0.0847
  147OSM    H9T16241   3.933   7.224   2.604 -0.0819  0.0417 -1.0316
  147OSM   C10S16242   4.034   7.362   2.753  0.1160  0.3700  0.2047
  147OSM   H10S16243   4.004   7.450   2.692 -0.1318  0.0481 -0.1461
  147OSM   H10T16244   4.135   7.373   2.797 -0.0077 -1.7515  1.1368
  147OSM   C11S16245   3.923   7.349   2.861  0.0907 -0.3229 -0.9155
  147OSM   H11S16246   3.943   7.279   2.944 -0.5900 -0.3485 -0.7655
  147OSM   H11T16247   3.824   7.330   2.814 -0.8117 -0.9816  1.1494
  147OSM   C12S16248   3.899   7.484   2.931 -0.1723  0.1847  0.5417
  147OSM   H12S16249   3.864   7.558   2.856 -0.7431  0.6121  1.2261
  147OSM   H12T16250   3.991   7.525   2.978 -0.5241  1.1385  0.4157
  147OSM   C13S16251   3.792   7.469   3.035 -0.4289 -0.4618 -0.0171
  147OSM   H13S16252   3.721   7.388   3.009 -1.3757  0.3528 -0.0182
  147OSM   H13T16253   3.737   7.566   3.028  0.5487  0.0698 -0.7187
  147OSM   C14S16254   3.849   7.464   3.182  0.2498 -0.4080 -0.3757
  147OSM   H14S16255   3.917   7.549   3.202 -1.0830  0.1310  2.2039
  147OSM   H14T16256   3.905   7.368   3.188 -1.4407 -1.4327 -0.2539
  147OSM   C15S16257   3.725   7.459   3.278 -0.3463 -0.8531  0.0339
  147OSM   H15S16258   3.656   7.373   3.265 -0.9259 -0.3191 -0.5337
  147OSM   H15T16259   3.665   7.547   3.244 -2.1834 -1.4763  1.5036
  147OSM   C16S16260   3.763   7.484   3.428 -0.0823  0.5479  0.4129
  147OSM   H16S16261   3.822   7.578   3.440 -2.4289  2.2515 -0.7715
  147OSM   H16T16262   3.822   7.392   3.451  2.7656  2.2764  0.5472
  147OSM   C17S16263   3.648   7.510   3.522 -0.0142 -0.0638  0.4037
  147OSM   H17S16264   3.585   7.418   3.521 -0.6351  0.3019  1.9788
  147OSM   H17T16265   3.573   7.581   3.482  1.5501  0.8437 -1.0139
  147OSM   C18S16266   3.676   7.533   3.678  0.2455 -0.1735  0.2957
  147OSM   H18S16267   3.725   7.450   3.733 -1.8357 -0.5934  1.6466
  147OSM   H18T16268   3.583   7.569   3.728  2.2313  4.0647  1.4596
  147OSM   H18U16269   3.743   7.622   3.678 -0.7311  0.6288 -2.2459
  147OSM    C1F16270   4.570   6.617   2.476  0.6549 -0.6757  0.2463
  147OSM     OF16271   4.667   6.646   2.409  0.3570 -0.3360 -0.6457
  147OSM    C2F16272   4.570   6.541   2.605  0.5433  0.4488 -0.4919
  147OSM    H2F16273   4.603   6.436   2.588 -2.0041 -0.8587  1.8135
  147OSM    H2G16274   4.470   6.536   2.652  1.0960  2.8762  1.1031
  147OSM    C3F16275   4.668   6.591   2.709  0.2660  0.0783 -0.4135
  147OSM    H3F16276   4.633   6.687   2.751  0.6583  0.1517 -0.2499
  147OSM    H3G16277   4.772   6.597   2.670  0.1408 -1.3480 -1.0333
  147OSM    C4F16278   4.683   6.492   2.823  0.1057 -0.3505 -0.1551
  147OSM    H4F16279   4.715   6.391   2.791 -0.6469 -0.2372 -1.3037
  147OSM    H4G16280   4.579   6.465   2.853 -0.0559  0.4206  0.0242
  147OSM    C5F16281   4.759   6.545   2.945 -0.4666 -0.4352  0.0641
  147OSM    H5F16282   4.702   6.624   2.998 -3.9373 -2.0287 -0.9561
  147OSM    H5G16283   4.865   6.573   2.925  0.2505 -2.0350  1.3796
  147OSM    C6F16284   4.785   6.432   3.047  0.2194 -0.9024 -0.9454
  147OSM    H6F16285   4.845   6.350   3.001  2.1886  0.2996 -0.6534
  147OSM    H6G16286   4.684   6.392   3.070  0.1968 -0.4461 -0.2209
  147OSM    C7F16287   4.861   6.486   3.169  0.2463  0.4599 -0.4146
  147OSM    H7F16288   4.946   6.541   3.125 -0.1383  3.7257  2.5073
  147OSM    H7G16289   4.900   6.416   3.246 -0.1552  0.6686 -0.0128
  147OSM    C8F16290   4.779   6.584   3.249 -0.8622 -0.2215 -0.4746
  147OSM    H8F16291   4.747   6.669   3.184  0.2152  0.1755 -0.5028
  147OSM    H8G16292   4.851   6.637   3.315 -1.2110 -0.1511 -0.1502
  147OSM    C9F16293   4.655   6.535   3.325  0.8005 -0.4950  0.0897
  147OSM    H9F16294   4.571   6.489   3.271  0.4017 -2.0767  1.9554
  147OSM   C10F16295   4.644   6.549   3.462 -0.0635 -0.0201  0.6176
  147OSM   H10F16296   4.551   6.513   3.508  0.6933 -1.4503  1.0826
  147OSM   C11F16297   4.733   6.606   3.563 -0.2296 -0.0261  0.1232
  147OSM   H11F16298   4.688   6.697   3.610 -0.9343  0.1861 -0.9302
  147OSM   H11G16299   4.826   6.658   3.532 -0.6874  0.4900 -0.4299
  147OSM   C12F16300   4.774   6.507   3.677  0.7414  0.4442  0.2378
  147OSM   H12F16301   4.849   6.436   3.636  1.0367  0.8671  0.0273
  147OSM   H12G16302   4.680   6.460   3.712  1.0156  0.2992  0.7858
  147OSM   C13F16303   4.821   6.570   3.804  0.9128  0.1912 -0.0551
  147OSM   H13F16304   4.892   6.653   3.784  0.3251  0.2258 -2.2240
  147OSM   H13G16305   4.881   6.503   3.870  1.2470  2.4771  2.0810
  147OSM   C14F16306   4.710   6.616   3.899 -0.4219  0.7810  0.4655
  147OSM   H14F16307   4.630   6.540   3.906  0.4995 -0.5451 -2.0739
  147OSM   H14G16308   4.664   6.713   3.871 -1.3808  0.5694  1.3057
  147OSM   C15F16309   4.760   6.618   4.045 -0.3509 -0.2618  0.3520
  147OSM   H15F16310   4.852   6.679   4.055 -0.6505 -0.1531  3.1267
  147OSM   H15G16311   4.797   6.517   4.072  1.0342  1.0465  3.8994
  147OSM   C16F16312   4.655   6.662   4.138  0.2634  0.0099  0.1248
  147OSM   H16F16313   4.572   6.589   4.126 -0.2481  0.5382  0.4236
  147OSM   H16G16314   4.610   6.759   4.110  1.7743  1.0439  1.1349
  147OSM   C17F16315   4.704   6.687   4.286  0.0700 -0.3279 -0.1101
  147OSM   H17F16316   4.614   6.692   4.351 -1.7939  2.1040 -2.6443
  147OSM   H17G16317   4.737   6.792   4.290 -0.6457  0.0133 -1.8679
  147OSM   C18F16318   4.812   6.597   4.338  0.2004 -0.3093  0.0144
  147OSM   H18F16319   4.910   6.587   4.287 -1.1774 -0.6733 -2.7548
  147OSM   H18G16320   4.773   6.497   4.365  0.6148 -1.1433 -2.2564
  147OSM   H18H16321   4.840   6.639   4.437 -1.5599 -2.6276  1.6018
  148OSM      N16322   5.787   6.375   1.752  0.1494 -0.5653  0.5248
  148OSM    C1516323   5.673   6.393   1.657  0.3142 -0.9881 -0.4955
  148OSM   H15A16324   5.576   6.405   1.704  0.1779 -1.3108 -0.6833
  148OSM   H15B16325   5.668   6.312   1.585 -0.4689  0.7330 -2.4723
  148OSM   H15C16326   5.690   6.480   1.596 -2.6283 -1.5825 -2.3822
  148OSM    C1416327   5.768   6.260   1.840 -0.2631  0.0352 -0.1709
  148OSM   H14A16328   5.835   6.279   1.923 -0.4582  1.3446 -0.2926
  148OSM   H14B16329   5.799   6.160   1.812 -3.8754 -1.4577  0.6157
  148OSM   H14C16330   5.668   6.259   1.882 -0.7884  0.7880 -1.3364
  148OSM    C1316331   5.912   6.340   1.677 -0.1365 -0.2864 -0.2413
  148OSM   H13A16332   5.950   6.423   1.620  1.3251 -1.7074 -1.4331
  148OSM   H13B16333   5.912   6.260   1.605  1.5772 -0.7442  0.2357
  148OSM   H13C16334   5.978   6.306   1.756 -1.1955  0.3063  0.9412
  148OSM    C1216335   5.815   6.500   1.833 -0.0126 -0.7949  0.6306
  148OSM   H12A16336   5.824   6.585   1.767 -0.4900  0.3876  2.0094
  148OSM   H12B16337   5.913   6.493   1.878  0.1132 -0.3064  0.4450
  148OSM    C1116338   5.711   6.524   1.945 -0.7684 -0.1862 -0.7504
  148OSM   H11A16339   5.747   6.595   2.023 -0.4945 -1.6536  0.5236
  148OSM   H11B16340   5.693   6.429   2.001  1.9410 -1.5840 -2.0867
  148OSM      P16341   5.452   6.545   1.950 -0.4046  0.6655  0.1421
  148OSM    O1316342   5.344   6.627   1.890 -0.3734  0.2313  1.0265
  148OSM    O1416343   5.433   6.402   1.971 -0.0491  0.2278 -0.4573
  148OSM    O1116344   5.486   6.612   2.092  0.1901  0.1038  0.5948
  148OSM    O1216345   5.594   6.568   1.881  0.6123 -0.1570  0.3498
  148OSM    C1S16346   5.392   6.633   2.199 -0.3298 -0.5388  0.6955
  148OSM    H1S16347   5.326   6.545   2.212 -0.2156 -0.5345  1.3407
  148OSM    H1T16348   5.324   6.714   2.166  0.2339 -1.1915 -2.3379
  148OSM     NF16349   5.372   6.701   2.441 -0.1255  0.0896  0.0157
  148OSM    HNF16350   5.377   6.796   2.472 -0.2200 -0.3959  1.6570
  148OSM    C2S16351   5.462   6.671   2.331 -0.2759 -0.5552  0.5098
  148OSM    H2S16352   5.516   6.582   2.369  1.1526  0.2124  0.3305
  148OSM    C3S16353   5.572   6.788   2.307  0.0295 -0.2569 -0.3038
  148OSM    H3S16354   5.509   6.878   2.292 -0.8498 -0.9598 -0.9224
  148OSM     O316355   5.662   6.770   2.198  0.0217  0.3756  0.5127
  148OSM    HO316356   5.615   6.699   2.152 -1.0603 -0.1099  2.2826
  148OSM    C4S16357   5.650   6.820   2.430 -0.2544 -0.1596  0.1097
  148OSM    H4S16358   5.602   6.894   2.496 -2.2289  0.2790 -1.7242
  148OSM    C5S16359   5.758   6.748   2.479 -0.2574 -0.2656 -0.1625
  148OSM    H5S16360   5.781   6.652   2.430 -0.6420  0.1078 -1.1043
  148OSM    C6S16361   5.820   6.782   2.613 -0.1289  0.6675  0.7774
  148OSM    H6S16362   5.792   6.885   2.642 -2.7787  0.0933  0.5575
  148OSM    H6T16363   5.930   6.768   2.613 -0.2515 -0.4185  0.9813
  148OSM    C7S16364   5.762   6.684   2.719 -0.7204  0.2278 -0.2170
  148OSM    H7S16365   5.775   6.579   2.687  0.8226 -1.0770  4.0097
  148OSM    H7T16366   5.655   6.699   2.747 -0.5135  2.0408 -0.2876
  148OSM    C8S16367   5.841   6.692   2.857  0.0636 -0.2330 -0.0948
  148OSM    H8S16368   5.944   6.660   2.830 -0.6916 -1.2163 -1.9734
  148OSM    H8T16369   5.802   6.612   2.923  0.4013 -1.0647 -0.8870
  148OSM    C9S16370   5.843   6.820   2.931  0.3302 -0.4400 -0.0933
  148OSM    H9S16371   5.735   6.841   2.950  0.7655  2.6831 -0.5169
  148OSM    H9T16372   5.880   6.901   2.865  2.0000  1.0075  2.4387
  148OSM   C10S16373   5.895   6.814   3.073 -0.4652 -0.3717  0.1576
  148OSM   H10S16374   6.006   6.812   3.068 -0.5081  0.1728 -1.5080
  148OSM   H10T16375   5.855   6.721   3.119  1.9883 -0.8267  1.5495
  148OSM   C11S16376   5.835   6.917   3.171 -0.1793 -0.3242 -0.1176
  148OSM   H11S16377   5.731   6.887   3.195 -0.7546 -0.8144 -2.8419
  148OSM   H11T16378   5.831   7.022   3.137 -0.7497 -0.0565  0.7562
  148OSM   C12S16379   5.908   6.927   3.314 -0.7914  0.1386  0.5605
  148OSM   H12S16380   5.994   6.998   3.308 -0.7972  0.0855 -0.2414
  148OSM   H12T16381   5.948   6.825   3.330 -0.9290 -0.0229 -0.0859
  148OSM   C13S16382   5.809   6.973   3.419 -0.1117  0.3597 -0.2653
  148OSM   H13S16383   5.717   6.911   3.422  0.9660 -1.3163 -0.1667
  148OSM   H13T16384   5.795   7.081   3.395  2.0804  1.3776  2.4643
  148OSM   C14S16385   5.869   6.963   3.560 -0.5414 -0.0382 -0.0065
  148OSM   H14S16386   5.971   7.003   3.542 -2.2121  4.0911 -1.4516
  148OSM   H14T16387   5.880   6.857   3.592  1.7011  0.0877 -0.2439
  148OSM   C15S16388   5.788   7.037   3.666  0.2451 -0.0544  0.4605
  148OSM   H15S16389   5.689   6.987   3.670 -1.2930  2.8294  2.9838
  148OSM   H15T16390   5.754   7.138   3.634 -0.7287 -0.1775  1.0549
  148OSM   C16S16391   5.850   7.053   3.802 -0.2598  0.2899 -0.6971
  148OSM   H16S16392   5.939   7.118   3.800  0.0734 -0.0306  1.5807
  148OSM   H16T16393   5.891   6.960   3.846 -2.4687 -0.0131  0.8879
  148OSM   C17S16394   5.754   7.105   3.909  0.1540  0.6196 -0.7456
  148OSM   H17S16395   5.813   7.114   4.002  1.3561 -2.1599 -1.1496
  148OSM   H17T16396   5.672   7.034   3.930 -0.3889  0.8830 -1.8397
  148OSM   C18S16397   5.680   7.240   3.872 -0.1445 -0.5715  0.9352
  148OSM   H18S16398   5.748   7.298   3.806 -2.6746 -0.0208 -1.3601
  148OSM   H18T16399   5.640   7.300   3.956 -0.2995 -0.0199  0.4717
  148OSM   H18U16400   5.600   7.223   3.798  0.0137  2.1189  0.0251
  148OSM    C1F16401   5.288   6.610   2.501  0.4671 -0.7985 -0.5369
  148OSM     OF16402   5.280   6.497   2.456  0.3096 -0.0865  0.2071
  148OSM    C2F16403   5.203   6.650   2.619 -0.5092 -1.3269  0.2546
  148OSM    H2F16404   5.106   6.598   2.631 -1.7045  0.5953 -0.5545
  148OSM    H2G16405   5.178   6.758   2.609  1.8109 -0.7544 -0.1097
  148OSM    C3F16406   5.292   6.630   2.745 -0.2939 -0.2999  0.4021
  148OSM    H3F16407   5.391   6.680   2.748 -0.6489  0.4552 -0.0990
  148OSM    H3G16408   5.313   6.521   2.748 -1.1832 -0.4858  0.2990
  148OSM    C4F16409   5.210   6.671   2.870 -1.1411  0.8429  0.6698
  148OSM    H4F16410   5.132   6.592   2.871  0.1563 -0.9285 -4.8362
  148OSM    H4G16411   5.182   6.778   2.862 -0.3329  1.1044  1.2336
  148OSM    C5F16412   5.287   6.648   3.003  0.5473 -0.8624  0.1303
  148OSM    H5F16413   5.382   6.702   2.981 -0.2403  0.4739 -0.1011
  148OSM    H5G16414   5.304   6.539   3.017 -0.9164 -1.1030  0.1478
  148OSM    C6F16415   5.206   6.698   3.120 -0.0716  0.2450 -0.0105
  148OSM    H6F16416   5.124   6.624   3.130  0.2516 -0.3622 -1.5900
  148OSM    H6G16417   5.161   6.795   3.093  1.7540  1.7623  1.9878
  148OSM    C7F16418   5.301   6.712   3.233  0.2077  0.7958  0.0644
  148OSM    H7F16419   5.369   6.797   3.212  0.9375 -0.4675 -3.3242
  148OSM    H7G16420   5.362   6.621   3.246  0.6696  1.2493  1.1251
  148OSM    C8F16421   5.236   6.738   3.370  0.8991 -0.0183 -0.3530
  148OSM    H8F16422   5.159   6.817   3.352 -0.0522 -1.1189 -1.3713
  148OSM    H8G16423   5.315   6.771   3.440  1.0750 -1.3727  0.1245
  148OSM    C9F16424   5.149   6.629   3.437 -0.2669 -0.4116 -0.6186
  148OSM    H9F16425   5.079   6.584   3.365  0.0725 -0.2274 -1.0695
  148OSM   C10F16426   5.151   6.592   3.565  0.0854  0.3706 -1.0610
  148OSM   H10F16427   5.064   6.534   3.600 -1.4794  1.4162 -3.0148
  148OSM   C11F16428   5.236   6.651   3.677  0.3756 -0.9467 -0.7141
  148OSM   H11F16429   5.299   6.733   3.637 -1.6124  0.2460 -1.5637
  148OSM   H11G16430   5.305   6.574   3.718  0.0262 -0.8960 -0.0142
  148OSM   C12F16431   5.166   6.710   3.801 -0.3787  0.4990 -0.8874
  148OSM   H12F16432   5.089   6.634   3.827 -1.3127  1.6256 -0.2828
  148OSM   H12G16433   5.124   6.807   3.768  1.2350  1.2942 -0.7139
  148OSM   C13F16434   5.246   6.717   3.923 -0.4744 -0.4161 -0.7898
  148OSM   H13F16435   5.330   6.789   3.907 -0.6478 -0.4375 -1.8750
  148OSM   H13G16436   5.296   6.623   3.956  1.6077  1.2939  1.2689
  148OSM   C14F16437   5.154   6.759   4.044  0.2716 -0.3772 -0.2680
  148OSM   H14F16438   5.075   6.682   4.055  1.8413 -2.2645 -1.5840
  148OSM   H14G16439   5.113   6.861   4.025  0.4053  0.2415  2.3444
  148OSM   C15F16440   5.234   6.786   4.177 -0.4183  0.7009 -0.3391
  148OSM   H15F16441   5.329   6.837   4.150 -0.4325 -0.0045 -1.8159
  148OSM   H15G16442   5.245   6.683   4.218  0.1496  0.2651 -1.5448
  148OSM   C16F16443   5.168   6.878   4.287  0.2906  0.2178  0.8601
  148OSM   H16F16444   5.071   6.831   4.313  0.0450 -0.2600 -0.8034
  148OSM   H16G16445   5.143   6.973   4.235 -2.3067 -0.8642 -0.0428
  148OSM   C17F16446   5.248   6.896   4.414 -0.4745  0.2711 -0.2141
  148OSM   H17F16447   5.205   6.979   4.475 -0.3381  0.0832  0.1402
  148OSM   H17G16448   5.349   6.940   4.404 -0.6914  1.5617  2.5160
  148OSM   C18F16449   5.270   6.767   4.495 -0.5948  0.0886  0.6357
  148OSM   H18F16450   5.305   6.788   4.599  0.3905 -0.1767  0.3685
  148OSM   H18G16451   5.352   6.710   4.447 -2.2754 -0.2486 -1.9696
  148OSM   H18H16452   5.188   6.693   4.501  1.5042 -2.4089  0.4122
  149OSM      N16453   0.043   6.696   1.930  0.0516 -0.0541 -0.0400
  149OSM    C1516454   0.125   6.739   2.047  0.3805 -0.3700  0.1590
  149OSM   H15A16455   0.106   6.843   2.069 -1.7736 -0.4307 -1.1691
  149OSM   H15B16456   0.230   6.736   2.022  0.3515 -1.1686  0.1077
  149OSM   H15C16457   0.110   6.668   2.128 -0.0283  1.3073  1.6278
  149OSM    C1416458   0.085   6.777   1.815 -0.3064  0.1226  0.0497
  149OSM   H14A16459   0.062   6.882   1.826 -0.7967 -0.0993  1.3190
  149OSM   H14B16460   0.035   6.742   1.726  0.7949  0.9853 -0.9437
  149OSM   H14C16461   0.191   6.772   1.792 -0.1942  1.2017  0.2810
  149OSM    C1316462   0.076   6.550   1.901  0.2683 -0.3146 -0.0926
  149OSM   H13A16463   0.175   6.543   1.858  0.6730 -0.0140  0.7633
  149OSM   H13B16464   0.005   6.512   1.829 -0.4874 -0.3014  0.6353
  149OSM   H13C16465   0.068   6.486   1.988 -0.9174  1.0334  0.8368
  149OSM    C1216466  -0.104   6.710   1.964 -0.4125 -0.5230 -0.0475
  149OSM   H12A16467  -0.173   6.690   1.883 -1.0930  1.5862 -0.0320
  149OSM   H12B16468  -0.121   6.816   1.969 -1.2494 -0.5423 -1.8255
  149OSM    C1116469  -0.158   6.628   2.084  0.1893  0.0043 -0.8397
  149OSM   H11A16470  -0.260   6.664   2.107  0.8751  1.0643  0.7026
  149OSM   H11B16471  -0.088   6.651   2.167  0.8326 -2.0244 -0.7629
  149OSM      P16472  -0.286   6.433   1.969  0.1735  0.1118 -0.6522
  149OSM    O1316473  -0.327   6.525   1.865  0.0859 -0.2061 -0.0770
  149OSM    O1416474  -0.251   6.297   1.915 -0.1473  0.6162  0.2498
  149OSM    O1116475  -0.411   6.410   2.067  0.8005 -0.2133  0.1761
  149OSM    O1216476  -0.167   6.489   2.061 -0.0471 -0.1867 -0.5738
  149OSM    C1S16477  -0.398   6.316   2.174 -0.1294  0.0851  0.4678
  149OSM    H1S16478  -0.297   6.271   2.184  0.4969  0.6494 -2.3706
  149OSM    H1T16479  -0.469   6.239   2.137  2.6141 -2.0318 -0.7584
  149OSM     NF16480  -0.442   6.259   2.420  0.1125 -0.5094 -0.6239
  149OSM    HNF16481  -0.530   6.230   2.458 -0.2512  1.9900  0.6647
  149OSM    C2S16482  -0.446   6.363   2.320 -1.1271  0.7703 -0.3588
  149OSM    H2S16483  -0.362   6.434   2.336 -0.3567 -0.5731  2.0204
  149OSM    C3S16484  -0.574   6.441   2.310  0.2930  0.2268  0.4347
  149OSM    H3S16485  -0.657   6.371   2.288 -1.3848  1.3816  2.6832
  149OSM     O316486  -0.588   6.543   2.208  0.4133  0.3775  0.7022
  149OSM    HO316487  -0.524   6.516   2.141 -1.3724  0.5004 -1.1476
  149OSM    C4S16488  -0.615   6.506   2.443  0.2961 -0.2429 -0.2692
  149OSM    H4S16489  -0.689   6.450   2.501  0.6859  0.5843  1.0800
  149OSM    C5S16490  -0.583   6.631   2.489  0.4588 -0.2437  0.1086
  149OSM    H5S16491  -0.519   6.699   2.431 -0.0268  0.4614  0.3939
  149OSM    C6S16492  -0.650   6.694   2.608  0.0284  0.0647  0.9849
  149OSM    H6S16493  -0.728   6.625   2.645  0.8580 -0.0677  2.6222
  149OSM    H6T16494  -0.692   6.794   2.584  2.0692  1.0652  1.2921
  149OSM    C7S16495  -0.545   6.722   2.722  0.2585  0.5149  0.2923
  149OSM    H7S16496  -0.474   6.787   2.666  0.5025 -2.5252 -3.3941
  149OSM    H7T16497  -0.506   6.623   2.753 -0.1339  0.8574  1.9664
  149OSM    C8S16498  -0.594   6.800   2.847  0.0311 -0.0624  0.5328
  149OSM    H8S16499  -0.661   6.738   2.910 -0.6162 -0.6071 -0.6421
  149OSM    H8T16500  -0.649   6.893   2.819  1.0844  0.5514  0.4437
  149OSM    C9S16501  -0.473   6.827   2.943  0.2896  0.3926 -0.0040
  149OSM    H9S16502  -0.399   6.894   2.895  1.0669  0.6769  1.5211
  149OSM    H9T16503  -0.426   6.730   2.967 -1.1095 -0.4175 -0.4285
  149OSM   C10S16504  -0.525   6.893   3.063 -0.2204  1.0082 -0.7200
  149OSM   H10S16505  -0.612   6.836   3.101  1.4043 -2.2506 -1.5265
  149OSM   H10T16506  -0.548   7.002   3.053  1.1471  1.4634  0.6234
  149OSM   C11S16507  -0.425   6.891   3.181  0.1215 -0.5264 -0.2754
  149OSM   H11S16508  -0.330   6.940   3.152 -0.7831  0.8870 -0.9079
  149OSM   H11T16509  -0.395   6.790   3.217 -0.2759 -0.2317  0.9467
  149OSM   C12S16510  -0.470   6.962   3.308  0.4548 -0.0292 -0.2931
  149OSM   H12S16511  -0.540   7.045   3.286 -0.5591 -0.6267  0.6473
  149OSM   H12T16512  -0.378   6.996   3.360  0.4333 -0.8596  0.3039
  149OSM   C13S16513  -0.541   6.863   3.397  0.0313  0.2195  0.7514
  149OSM   H13S16514  -0.484   6.768   3.390  0.0962  0.3360 -0.3999
  149OSM   H13T16515  -0.640   6.833   3.358  0.5875 -1.2689  0.4067
  149OSM   C14S16516  -0.550   6.914   3.546  0.2807  0.5812 -0.0534
  149OSM   H14S16517  -0.629   6.850   3.590  0.5467  0.7585  0.6890
  149OSM   H14T16518  -0.580   7.021   3.550  0.0282  0.6305 -1.9720
  149OSM   C15S16519  -0.413   6.895   3.613  0.4080  0.2432 -0.1773
  149OSM   H15S16520  -0.327   6.948   3.569  0.1354  2.3180  1.6236
  149OSM   H15T16521  -0.376   6.791   3.598  0.9046  0.5368 -0.9791
  149OSM   C16S16522  -0.408   6.930   3.761 -0.2097  0.1572 -0.2003
  149OSM   H16S16523  -0.457   6.852   3.822  0.8768  0.9235  1.7337
  149OSM   H16T16524  -0.462   7.027   3.773  0.4814  0.2358  3.0221
  149OSM   C17S16525  -0.264   6.949   3.814 -0.2262 -0.1037  0.1235
  149OSM   H17S16526  -0.224   7.038   3.760  0.0173 -0.8193 -0.9090
  149OSM   H17T16527  -0.196   6.868   3.781 -1.6291 -0.7760 -1.2135
  149OSM   C18S16528  -0.253   6.962   3.966  0.0943  0.1084  0.1634
  149OSM   H18S16529  -0.298   7.054   4.008  1.1488 -0.4376  2.7243
  149OSM   H18T16530  -0.148   6.957   4.001 -0.5183 -0.0919  2.1445
  149OSM   H18U16531  -0.308   6.879   4.016  1.4947 -0.3985  0.9154
  149OSM    C1F16532  -0.327   6.187   2.445  0.0814  0.3353 -0.8819
  149OSM     OF16533  -0.218   6.225   2.396 -0.4523 -0.9482  0.2396
  149OSM    C2F16534  -0.323   6.067   2.530 -0.2932  0.6176  0.0212
  149OSM    H2F16535  -0.273   5.995   2.461 -0.8850  1.0156 -0.8391
  149OSM    H2G16536  -0.430   6.042   2.547 -0.2685  0.8214  0.4726
  149OSM    C3F16537  -0.240   6.074   2.661 -0.8346 -0.0931 -0.2090
  149OSM    H3F16538  -0.138   6.092   2.619 -0.8187  0.3066 -0.0047
  149OSM    H3G16539  -0.229   5.971   2.699  1.7196 -0.0053 -0.5082
  149OSM    C4F16540  -0.295   6.150   2.782 -0.4595  0.1291  0.0266
  149OSM    H4F16541  -0.368   6.090   2.840  0.4983  0.5230  1.7133
  149OSM    H4G16542  -0.343   6.244   2.748 -1.6345 -0.7067 -0.7111
  149OSM    C5F16543  -0.183   6.169   2.890  1.0305  0.1103  0.2454
  149OSM    H5F16544  -0.100   6.227   2.844  0.9976  0.7049  0.9153
  149OSM    H5G16545  -0.149   6.066   2.914 -1.7151 -1.1521 -0.8383
  149OSM    C6F16546  -0.228   6.241   3.014  0.3821  0.5908 -0.5419
  149OSM    H6F16547  -0.338   6.253   3.025  0.4238 -0.6250  2.1143
  149OSM    H6G16548  -0.187   6.344   3.017  2.0223 -0.0486  1.0170
  149OSM    C7F16549  -0.177   6.178   3.145 -0.3491  0.5137 -0.2635
  149OSM    H7F16550  -0.067   6.170   3.128 -0.7219 -0.8014 -2.3156
  149OSM    H7G16551  -0.217   6.075   3.150  1.7478 -0.3748 -0.6531
  149OSM    C8F16552  -0.193   6.256   3.275  0.1571 -0.3635  0.7089
  149OSM    H8F16553  -0.135   6.350   3.262 -3.2013  1.6978 -0.8249
  149OSM    H8G16554  -0.144   6.202   3.359  1.8458  0.9153  0.5874
  149OSM    C9F16555  -0.331   6.289   3.299  0.0505  0.1035 -0.2857
  149OSM    H9F16556  -0.410   6.261   3.227 -0.2281  0.4656 -0.1201
  149OSM   C10F16557  -0.358   6.356   3.414  0.3705 -0.2124 -0.0455
  149OSM   H10F16558  -0.463   6.385   3.430  0.8251  1.1755  0.6219
  149OSM   C11F16559  -0.271   6.412   3.518  0.5794 -0.3281  0.0171
  149OSM   H11F16560  -0.253   6.519   3.494 -1.7618  0.0599 -0.2739
  149OSM   H11G16561  -0.179   6.351   3.534 -1.1923 -2.5855  2.5581
  149OSM   C12F16562  -0.337   6.422   3.656 -0.6443  0.0882 -0.4339
  149OSM   H12F16563  -0.372   6.329   3.706 -1.9345  0.4830 -0.5833
  149OSM   H12G16564  -0.429   6.482   3.646 -0.6853  0.0620 -0.2122
  149OSM   C13F16565  -0.244   6.502   3.746 -0.4287 -0.6535 -0.0293
  149OSM   H13F16566  -0.215   6.596   3.694 -1.8595 -0.7109 -0.9811
  149OSM   H13G16567  -0.155   6.439   3.768 -1.4532 -2.0044  0.3713
  149OSM   C14F16568  -0.300   6.536   3.883 -0.1012 -0.2050 -0.1814
  149OSM   H14F16569  -0.335   6.441   3.929  0.0174 -0.4029 -0.4899
  149OSM   H14G16570  -0.391   6.598   3.867 -0.1748 -0.3735 -0.4224
  149OSM   C15F16571  -0.194   6.593   3.977 -0.4548  0.3862 -0.2097
  149OSM   H15F16572  -0.139   6.679   3.933  1.4218 -1.5763 -1.9553
  149OSM   H15G16573  -0.120   6.511   3.991 -1.2158 -0.2925 -0.1113
  149OSM   C16F16574  -0.254   6.616   4.115  0.5520  0.2834 -0.3401
  149OSM   H16F16575  -0.309   6.526   4.150  0.7614  0.6159  0.8656
  149OSM   H16G16576  -0.336   6.690   4.104  1.1809  0.6770 -3.1624
  149OSM   C17F16577  -0.156   6.656   4.218  0.2904  0.4714 -0.3138
  149OSM   H17F16578  -0.136   6.765   4.209 -3.3474  1.3976  1.1558
  149OSM   H17G16579  -0.065   6.595   4.200 -0.9677 -1.2305 -1.2043
  149OSM   C18F16580  -0.184   6.616   4.358  0.7544 -0.5140 -0.0318
  149OSM   H18F16581  -0.256   6.686   4.403 -0.5077 -1.9556  0.2765
  149OSM   H18G16582  -0.089   6.634   4.412  1.8626 -0.9620 -1.7570
  149OSM   H18H16583  -0.214   6.509   4.363 -0.8577 -0.0694  0.2241
  150OSM      N16584   4.194   1.980   2.187 -0.1077  0.1865 -0.0056
  150OSM    C1516585   4.198   2.034   2.039 -0.4148  0.1430 -0.1587
  150OSM   H15A16586   4.102   2.063   1.999 -0.4784  0.3445  0.1413
  150OSM   H15B16587   4.250   1.958   1.983 -0.4190 -1.2536  1.6631
  150OSM   H15C16588   4.260   2.122   2.029  1.3213 -0.9678  0.4591
  150OSM    C1416589   4.134   1.840   2.179  0.2740 -0.9104  0.1739
  150OSM   H14A16590   4.032   1.838   2.143  0.0219 -4.7946  0.6966
  150OSM   H14B16591   4.134   1.801   2.280  0.6045  2.6347  1.6936
  150OSM   H14C16592   4.206   1.777   2.129  1.1366 -0.1660  0.4471
  150OSM    C1316593   4.331   1.953   2.241 -0.4597  0.6597 -1.2844
  150OSM   H13A16594   4.390   1.888   2.177 -1.7240 -0.3920 -1.4391
  150OSM   H13B16595   4.319   1.897   2.332 -0.0668 -2.2307 -2.8798
  150OSM   H13C16596   4.387   2.041   2.268  1.1419 -0.6549 -0.1102
  150OSM    C1216597   4.104   2.072   2.272  0.6655 -0.0006  0.4159
  150OSM   H12A16598   4.159   2.164   2.287  2.7000 -0.7215 -1.9267
  150OSM   H12B16599   4.089   2.020   2.365  0.8373 -0.9143 -0.0647
  150OSM    C1116600   3.968   2.133   2.223  1.2372  0.4805  0.1758
  150OSM   H11A16601   3.987   2.183   2.126  2.8574  1.6864  1.0537
  150OSM   H11B16602   3.931   2.199   2.304  0.6418 -0.4463  0.6845
  150OSM      P16603   3.804   1.943   2.304  0.1620  0.3041 -0.3170
  150OSM    O1316604   3.661   1.971   2.302  0.9908  0.1039 -0.0781
  150OSM    O1416605   3.850   1.805   2.296  0.2110 -0.2620 -0.2104
  150OSM    O1116606   3.863   2.001   2.438 -0.1802 -0.2645 -0.9320
  150OSM    O1216607   3.865   2.032   2.195 -0.1025 -0.1243 -0.1323
  150OSM    C1S16608   3.810   1.963   2.562  0.6849  0.1123 -0.5190
  150OSM    H1S16609   3.829   1.855   2.575  0.7694  0.1988  0.0777
  150OSM    H1T16610   3.702   1.984   2.577  0.3997 -2.1864  1.0920
  150OSM     NF16611   3.857   1.990   2.811 -0.0430 -0.6365  0.0585
  150OSM    HNF16612   3.774   2.020   2.858 -0.0600 -0.7365  0.0941
  150OSM    C2S16613   3.885   2.042   2.675 -0.5340 -0.1651  0.0842
  150OSM    H2S16614   3.994   2.041   2.655 -0.2580  3.6104  0.6503
  150OSM    C3S16615   3.851   2.201   2.672  0.4362  0.8644  0.0806
  150OSM    H3S16616   3.742   2.205   2.694  0.5201  0.5116  0.5702
  150OSM     O316617   3.856   2.264   2.542  0.7911  1.1182  0.1597
  150OSM    HO316618   3.840   2.196   2.476 -0.7520  2.2846 -0.7568
  150OSM    C4S16619   3.927   2.292   2.766  0.1359  0.3546 -0.2390
  150OSM    H4S16620   4.036   2.278   2.773  0.1086  0.0995 -0.3178
  150OSM    C5S16621   3.873   2.391   2.842  0.3729 -0.2911  0.2013
  150OSM    H5S16622   3.767   2.416   2.826  0.1032 -2.1189 -1.1510
  150OSM    C6S16623   3.950   2.479   2.939 -0.2635  1.0377  0.0264
  150OSM    H6S16624   3.946   2.589   2.927 -0.1589  1.1249  0.7620
  150OSM    H6T16625   4.056   2.461   2.914 -1.0128 -1.7029 -1.5882
  150OSM    C7S16626   3.914   2.443   3.089  0.2038 -0.0778  0.3705
  150OSM    H7S16627   3.925   2.332   3.092 -0.8470 -0.2991 -2.1026
  150OSM    H7T16628   3.813   2.475   3.123 -1.0359 -1.1311 -2.0526
  150OSM    C8S16629   4.009   2.513   3.183 -0.2235 -0.2864  0.5179
  150OSM    H8S16630   4.012   2.620   3.153  1.7948 -1.3501 -3.9323
  150OSM    H8T16631   4.110   2.477   3.155 -1.1642 -1.1002 -2.1396
  150OSM    C9S16632   3.963   2.489   3.332 -0.0672  0.8109  0.8047
  150OSM    H9S16633   3.941   2.381   3.347 -1.9101  1.3831  2.6052
  150OSM    H9T16634   3.871   2.550   3.344 -1.3058 -0.6814 -0.5925
  150OSM   C10S16635   4.074   2.538   3.429  0.6471 -0.2653  0.3202
  150OSM   H10S16636   4.093   2.646   3.411 -1.0362 -0.3584 -2.6747
  150OSM   H10T16637   4.174   2.493   3.420  2.1541  2.4756  1.7909
  150OSM   C11S16638   4.027   2.518   3.577  0.5381  0.5193  0.0183
  150OSM   H11S16639   3.985   2.415   3.579  0.9573  0.3271 -0.6520
  150OSM   H11T16640   3.941   2.586   3.596  0.5706  0.8403 -0.9315
  150OSM   C12S16641   4.137   2.563   3.674  0.0202  0.2804 -0.1712
  150OSM   H12S16642   4.161   2.669   3.652  1.8317 -0.4664 -2.1537
  150OSM   H12T16643   4.226   2.499   3.654  3.3772  3.9127  1.7777
  150OSM   C13S16644   4.092   2.570   3.819  0.4739 -0.2020 -0.4018
  150OSM   H13S16645   4.048   2.473   3.851 -1.9891  1.0905  0.3468
  150OSM   H13T16646   4.012   2.646   3.827  2.1590  1.5247  0.8793
  150OSM   C14S16647   4.199   2.597   3.917  0.2558 -0.5007 -0.4690
  150OSM   H14S16648   4.242   2.695   3.885  0.0528 -0.6380 -1.1813
  150OSM   H14T16649   4.279   2.519   3.918  0.2827 -0.4793 -0.9029
  150OSM   C15S16650   4.141   2.602   4.063  0.4111 -0.1573  0.5357
  150OSM   H15S16651   4.104   2.499   4.083  1.3486 -0.9865 -1.5850
  150OSM   H15T16652   4.051   2.667   4.064  0.5269  0.1452 -1.9984
  150OSM   C16S16653   4.235   2.641   4.171  0.8912  0.1898 -0.5960
  150OSM   H16S16654   4.287   2.736   4.144 -1.1410  1.0390 -1.7259
  150OSM   H16T16655   4.307   2.558   4.184 -1.5751 -1.9077  0.6426
  150OSM   C17S16656   4.169   2.658   4.312  0.0969  0.5012  0.2855
  150OSM   H17S16657   4.131   2.561   4.352  2.2028  0.2401  1.8473
  150OSM   H17T16658   4.088   2.735   4.307 -1.3679 -0.9271  1.0445
  150OSM   C18S16659   4.272   2.701   4.416  0.7716 -0.2492 -0.6622
  150OSM   H18S16660   4.217   2.727   4.509 -0.1618  0.5467 -1.4200
  150OSM   H18T16661   4.322   2.795   4.386  0.1994  0.5164  0.6816
  150OSM   H18U16662   4.348   2.620   4.430  1.0035 -0.3566 -2.3311
  150OSM    C1F16663   3.907   1.877   2.863 -0.1268 -0.4762  0.6594
  150OSM     OF16664   3.994   1.816   2.809 -0.0263  0.5167  0.4404
  150OSM    C2F16665   3.842   1.834   2.997 -0.1041  0.1280  0.2076
  150OSM    H2F16666   3.815   1.729   2.972  0.2186  0.0028  0.3831
  150OSM    H2G16667   3.759   1.896   3.036  0.7624 -0.4823  3.3158
  150OSM    C3F16668   3.944   1.827   3.113 -0.6348 -0.0371 -0.5486
  150OSM    H3F16669   3.994   1.925   3.110  0.7667 -0.7309 -0.4435
  150OSM    H3G16670   4.032   1.762   3.093 -0.4984 -0.7860  2.1132
  150OSM    C4F16671   3.877   1.807   3.251 -0.2772  0.2311  0.6752
  150OSM    H4F16672   3.776   1.853   3.257 -1.1729 -1.7849  2.4978
  150OSM    H4G16673   3.943   1.868   3.317  0.7962  1.8742 -1.7506
  150OSM    C5F16674   3.873   1.661   3.300  0.5645  0.2254  0.1342
  150OSM    H5F16675   3.968   1.606   3.283  0.4686 -0.1019  0.6464
  150OSM    H5G16676   3.796   1.598   3.250  1.3338 -0.0669 -0.7077
  150OSM    C6F16677   3.849   1.659   3.446  0.2633  0.3112  0.0584
  150OSM    H6F16678   3.824   1.558   3.485  0.2670  0.7483  1.2336
  150OSM    H6G16679   3.758   1.723   3.453 -2.6610 -3.5712  1.3165
  150OSM    C7F16680   3.965   1.709   3.535  0.2401  0.2625  0.0681
  150OSM    H7F16681   3.981   1.815   3.508  0.3132  0.9337  2.4723
  150OSM    H7G16682   4.054   1.651   3.503 -1.2276 -1.4754 -1.0219
  150OSM    C8F16683   3.939   1.687   3.682  0.1201 -0.1989  0.4519
  150OSM    H8F16684   4.027   1.735   3.730  0.9585 -1.6688  0.4316
  150OSM    H8G16685   3.941   1.579   3.707  2.8458  0.2849  2.8048
  150OSM    C9F16686   3.809   1.749   3.729 -1.0001  0.1430  0.3891
  150OSM    H9F16687   3.721   1.713   3.675 -1.2822  2.0570 -0.5024
  150OSM   C10F16688   3.787   1.824   3.835  0.0862 -0.2794  0.6792
  150OSM   H10F16689   3.688   1.873   3.838 -0.9856 -1.8362 -3.2155
  150OSM   C11F16690   3.887   1.881   3.936  0.0297 -0.3372 -0.2212
  150OSM   H11F16691   3.897   1.990   3.917 -1.6889 -0.2227 -0.6613
  150OSM   H11G16692   3.990   1.844   3.918  0.2086 -0.4187  0.9431
  150OSM   C12F16693   3.863   1.858   4.080 -1.2494 -0.5329 -0.6526
  150OSM   H12F16694   3.952   1.900   4.132  0.1171 -0.7725 -2.6831
  150OSM   H12G16695   3.865   1.749   4.100  0.0136 -0.1740  1.5786
  150OSM   C13F16696   3.729   1.932   4.122  0.0449  0.2691 -0.4579
  150OSM   H13F16697   3.670   1.865   4.189 -0.2389  2.3972  1.5484
  150OSM   H13G16698   3.667   1.955   4.033 -1.7541  0.4470  0.7874
  150OSM   C14F16699   3.746   2.054   4.204 -0.0605 -0.8616 -0.7063
  150OSM   H14F16700   3.828   2.108   4.153 -0.1326 -0.1218 -0.0596
  150OSM   H14G16701   3.786   2.019   4.301  1.9503  1.4846 -0.5956
  150OSM   C15F16702   3.614   2.134   4.249 -0.3404 -0.8433  0.3620
  150OSM   H15F16703   3.560   2.179   4.163  0.2544 -0.7861  0.0109
  150OSM   H15G16704   3.653   2.216   4.314 -2.2587 -1.5040  2.4743
  150OSM   C16F16705   3.518   2.056   4.344  0.3538  0.5624 -0.3327
  150OSM   H16F16706   3.583   1.989   4.404 -1.9308  0.0484  1.7250
  150OSM   H16G16707   3.449   1.990   4.286  1.0188 -1.6809  1.2701
  150OSM   C17F16708   3.450   2.147   4.452  0.3716  0.1387 -0.3795
  150OSM   H17F16709   3.375   2.213   4.404 -1.6662 -1.0642  1.0179
  150OSM   H17G16710   3.521   2.206   4.514 -2.3964  0.8578  2.3192
  150OSM   C18F16711   3.368   2.056   4.544  0.7867 -0.7254  0.7470
  150OSM   H18F16712   3.292   2.005   4.481  0.3546  0.3467  0.3741
  150OSM   H18G16713   3.316   2.117   4.621  0.6799  1.1317 -0.7491
  150OSM   H18H16714   3.432   1.982   4.598 -0.8226 -1.5898  1.5481
  151OSM      N16715   3.597   1.409   2.419  0.6546  0.7888  0.5832
  151OSM    C1516716   3.577   1.374   2.562 -0.2552  0.1084 -0.0384
  151OSM   H15A16717   3.502   1.298   2.582 -0.5449 -0.2050 -2.0043
  151OSM   H15B16718   3.551   1.464   2.615 -0.3145 -0.1065  0.3036
  151OSM   H15C16719   3.667   1.340   2.612 -0.9924  1.5938  2.4443
  151OSM    C1416720   3.454   1.416   2.365 -0.3719  0.0174 -0.6346
  151OSM   H14A16721   3.423   1.329   2.309  3.3475 -0.4811 -2.2216
  151OSM   H14B16722   3.435   1.503   2.304 -0.5310  1.7885  1.7782
  151OSM   H14C16723   3.382   1.429   2.445 -0.4978 -0.3135 -0.6890
  151OSM    C1316724   3.663   1.544   2.404 -0.0437 -0.4264  0.6676
  151OSM   H13A16725   3.669   1.585   2.304  0.2640 -0.2489  0.7592
  151OSM   H13B16726   3.766   1.530   2.434  0.6576  0.7782 -0.9950
  151OSM   H13C16727   3.617   1.617   2.469 -0.7697 -0.6723  0.4446
  151OSM    C1216728   3.676   1.302   2.354 -0.4734 -0.4357  0.4764
  151OSM   H12A16729   3.616   1.217   2.327 -1.2553 -0.1047  1.1480
  151OSM   H12B16730   3.760   1.275   2.416  1.6097  0.7349 -1.6389
  151OSM    C1116731   3.734   1.350   2.213  0.5025  0.1446  0.4850
  151OSM   H11A16732   3.810   1.430   2.230 -0.4244  0.6193  2.7180
  151OSM   H11B16733   3.643   1.381   2.157 -1.3431  0.7427  3.5841
  151OSM      P16734   3.935   1.179   2.182 -0.1233  0.2921  0.1260
  151OSM    O1316735   3.938   1.034   2.173 -0.5608  0.0015 -0.4131
  151OSM    O1416736   4.023   1.243   2.085 -0.1643 -0.3482 -0.2290
  151OSM    O1116737   3.974   1.218   2.332  0.0554 -0.2676  0.8611
  151OSM    O1216738   3.786   1.231   2.156  0.2224 -0.2965 -0.2198
  151OSM    C1S16739   3.979   1.123   2.437 -0.1535  0.3077  0.1951
  151OSM    H1S16740   4.032   1.033   2.399  0.4681  1.1187 -0.9362
  151OSM    H1T16741   3.878   1.093   2.473  0.5918 -0.2955  1.8844
  151OSM     NF16742   4.086   1.096   2.658 -0.1595  0.6339 -0.1716
  151OSM    HNF16743   4.036   1.114   2.742 -0.5732  1.2170 -0.5378
  151OSM    C2S16744   4.056   1.189   2.555  0.2389 -0.1189  0.5378
  151OSM    H2S16745   4.144   1.229   2.499 -1.6452  2.5984 -0.6707
  151OSM    C3S16746   3.987   1.321   2.602  0.2742  0.3670 -0.9542
  151OSM    H3S16747   3.894   1.293   2.655  0.4914  1.5294  0.0869
  151OSM     O316748   3.943   1.402   2.499 -0.4510  0.8603 -0.1965
  151OSM    HO316749   3.972   1.345   2.427  2.6151 -3.5427  3.8652
  151OSM    C4S16750   4.084   1.390   2.694  0.1544 -0.8469  0.3975
  151OSM    H4S16751   4.184   1.387   2.647 -0.1110 -1.6209 -0.1457
  151OSM    C5S16752   4.069   1.442   2.821  0.0482  0.1322  0.0274
  151OSM    H5S16753   3.977   1.409   2.872  1.3849 -1.5861  1.4896
  151OSM    C6S16754   4.183   1.495   2.909  0.4340 -0.8429  0.2437
  151OSM    H6S16755   4.179   1.606   2.903  0.2914 -0.8683 -0.1730
  151OSM    H6T16756   4.283   1.473   2.867  0.0987 -0.7416 -0.6303
  151OSM    C7S16757   4.181   1.446   3.056 -0.2439  0.6459 -0.8988
  151OSM    H7S16758   4.216   1.340   3.061 -2.1513  0.0336  1.2402
  151OSM    H7T16759   4.077   1.457   3.095  0.0563 -1.6792  0.7637
  151OSM    C8S16760   4.270   1.534   3.145 -0.9688  0.2624  0.7341
  151OSM    H8S16761   4.216   1.630   3.158 -1.6993 -0.3786  2.8388
  151OSM    H8T16762   4.369   1.565   3.106 -0.8671 -0.2561  0.5637
  151OSM    C9S16763   4.300   1.468   3.278  0.1293  0.1490 -0.2642
  151OSM    H9S16764   4.381   1.392   3.270 -0.9073 -1.0253  0.0160
  151OSM    H9T16765   4.213   1.408   3.312  1.1141 -1.7457 -0.9243
  151OSM   C10S16766   4.335   1.570   3.387  0.0735  0.6329  0.2354
  151OSM   H10S16767   4.264   1.656   3.389 -0.2192  0.3882  0.3074
  151OSM   H10T16768   4.431   1.622   3.362  0.0457  1.0929  1.0505
  151OSM   C11S16769   4.341   1.510   3.528  0.2358 -0.1238 -0.9226
  151OSM   H11S16770   4.426   1.441   3.548 -1.0453 -2.3958 -2.7332
  151OSM   H11T16771   4.245   1.454   3.538  0.7664 -0.8919  0.1279
  151OSM   C12S16772   4.333   1.615   3.644 -0.2620 -0.2774 -0.0612
  151OSM   H12S16773   4.229   1.653   3.657 -1.2917 -3.0546  0.5021
  151OSM   H12T16774   4.406   1.695   3.618 -0.3045 -0.2981 -0.2465
  151OSM   C13S16775   4.394   1.563   3.779  0.2271 -0.2277 -0.5371
  151OSM   H13S16776   4.379   1.641   3.857  0.0846 -1.2646  0.4995
  151OSM   H13T16777   4.500   1.533   3.768  1.0039  0.9977  2.5937
  151OSM   C14S16778   4.320   1.435   3.821 -0.8312  0.6262 -0.0605
  151OSM   H14S16779   4.352   1.351   3.756 -3.6956 -0.9919  0.4635
  151OSM   H14T16780   4.210   1.451   3.819 -1.0499 -0.5671  1.4814
  151OSM   C15S16781   4.345   1.381   3.962 -0.5958  0.5218 -0.0518
  151OSM   H15S16782   4.454   1.381   3.986 -1.0369 -0.4362  2.2099
  151OSM   H15T16783   4.312   1.276   3.955  1.3091 -0.0304 -1.5504
  151OSM   C16S16784   4.265   1.464   4.062 -0.3897 -0.2670 -0.2427
  151OSM   H16S16785   4.173   1.488   4.005 -0.6119  0.8748  0.5512
  151OSM   H16T16786   4.320   1.558   4.088  0.1820 -1.2286  2.2323
  151OSM   C17S16787   4.248   1.376   4.191  0.5840  0.2743 -0.0599
  151OSM   H17S16788   4.203   1.283   4.152 -0.8442  0.7840  0.2952
  151OSM   H17T16789   4.170   1.419   4.257 -0.5264  0.1218 -1.2252
  151OSM   C18S16790   4.374   1.337   4.271 -0.2839  0.0724 -0.1139
  151OSM   H18S16791   4.332   1.286   4.361  2.0542  0.0346  1.0395
  151OSM   H18T16792   4.433   1.427   4.297 -2.3443  1.7902 -1.1141
  151OSM   H18U16793   4.442   1.276   4.208  0.6015  0.3660  0.5399
  151OSM    C1F16794   4.158   0.983   2.644 -0.2275  0.0626 -0.1903
  151OSM     OF16795   4.207   0.952   2.537  0.5472 -0.2135  0.0591
  151OSM    C2F16796   4.172   0.904   2.762  0.3049  0.1910  0.0509
  151OSM    H2F16797   4.118   0.808   2.746 -0.5570  0.7521 -0.5165
  151OSM    H2G16798   4.112   0.940   2.847  0.4018 -0.5411  0.4363
  151OSM    C3F16799   4.315   0.885   2.816  0.4105 -0.2096  0.5611
  151OSM    H3F16800   4.378   0.847   2.733  2.3616  2.5916  0.5975
  151OSM    H3G16801   4.299   0.806   2.893  0.4164 -1.5269 -0.7474
  151OSM    C4F16802   4.387   1.005   2.883 -0.1080 -0.0674  0.3289
  151OSM    H4F16803   4.393   1.082   2.803  0.5139  0.9522  1.3227
  151OSM    H4G16804   4.489   0.972   2.911 -0.9737 -2.7704  0.5359
  151OSM    C5F16805   4.332   1.077   3.007  0.3785  0.5449  0.2051
  151OSM    H5F16806   4.237   1.114   2.963  1.0144 -1.1259 -2.8752
  151OSM    H5G16807   4.402   1.161   3.025  2.8713 -1.3734  0.1550
  151OSM    C6F16808   4.305   0.990   3.129  0.3958  0.6293  0.4445
  151OSM    H6F16809   4.236   0.907   3.104 -0.4127  0.9787  1.4501
  151OSM    H6G16810   4.243   1.039   3.208 -1.8414 -0.2135 -0.7189
  151OSM    C7F16811   4.435   0.947   3.191 -0.1108 -0.0907 -0.7943
  151OSM    H7F16812   4.512   1.026   3.187  1.0551 -1.2201 -1.7383
  151OSM    H7G16813   4.469   0.855   3.139  0.5604 -0.0814 -0.3862
  151OSM    C8F16814   4.397   0.896   3.330  0.2408 -0.1960  0.4474
  151OSM    H8F16815   4.477   0.826   3.364  0.0812 -0.4968  0.2098
  151OSM    H8G16816   4.302   0.839   3.337 -0.2805  0.2842 -1.9254
  151OSM    C9F16817   4.393   1.011   3.433 -0.6044 -0.5155 -0.8713
  151OSM    H9F16818   4.372   1.109   3.389  0.7189  1.3694  2.3616
  151OSM   C10F16819   4.418   0.996   3.566 -0.0183 -0.1506 -0.7520
  151OSM   H10F16820   4.428   1.084   3.632  0.4637 -2.1219  1.9744
  151OSM   C11F16821   4.458   0.870   3.643 -0.0681 -0.2889  1.0006
  151OSM   H11F16822   4.554   0.876   3.698  0.5706 -0.8219 -0.0398
  151OSM   H11G16823   4.473   0.785   3.574  0.3452 -0.5598  1.4167
  151OSM   C12F16824   4.343   0.847   3.742  0.1818 -0.1503  0.1425
  151OSM   H12F16825   4.254   0.822   3.679  1.2972 -1.5783 -0.9443
  151OSM   H12G16826   4.324   0.939   3.801  2.6367 -0.0156  0.8070
  151OSM   C13F16827   4.382   0.728   3.830 -0.3410  0.3497  0.3552
  151OSM   H13F16828   4.403   0.639   3.767 -1.5230  1.0897 -1.1527
  151OSM   H13G16829   4.291   0.707   3.890 -0.4631 -1.6310 -0.4599
  151OSM   C14F16830   4.482   0.744   3.941 -0.7914  0.4701 -0.0947
  151OSM   H14F16831   4.580   0.770   3.895 -0.3864  1.9509  1.4943
  151OSM   H14G16832   4.500   0.652   3.999  0.5660  1.9137  1.9177
  151OSM   C15F16833   4.445   0.850   4.042  0.7289 -0.3962 -0.2411
  151OSM   H15F16834   4.421   0.939   3.980 -1.3327 -2.5680 -2.8107
  151OSM   H15G16835   4.535   0.869   4.103  0.4259 -0.2802  0.1760
  151OSM   C16F16836   4.317   0.820   4.123 -0.7933 -0.3567 -0.1853
  151OSM   H16F16837   4.330   0.739   4.198  1.7641  0.0676 -0.0622
  151OSM   H16G16838   4.237   0.785   4.055 -0.7038  0.7910 -0.9154
  151OSM   C17F16839   4.269   0.945   4.194  0.3292 -0.3982 -0.3468
  151OSM   H17F16840   4.162   0.929   4.220 -0.0337  1.2435 -0.7453
  151OSM   H17G16841   4.277   1.035   4.130 -1.3181  2.4078  3.0347
  151OSM   C18F16842   4.352   0.971   4.327  0.9860 -0.0487  1.0816
  151OSM   H18F16843   4.457   0.992   4.297  0.8733 -0.3477  0.4576
  151OSM   H18G16844   4.351   0.895   4.408  0.2411 -0.0049  1.1267
  151OSM   H18H16845   4.314   1.064   4.374  2.1443 -0.2543  2.4737
  152OSM      N16846   5.299   1.016   2.201  0.2780 -0.0576 -0.2779
  152OSM    C1516847   5.194   0.911   2.177 -0.3205  0.3982 -0.4537
  152OSM   H15A16848   5.123   0.906   2.258 -1.1984  0.9318 -1.1802
  152OSM   H15B16849   5.246   0.820   2.150  0.5710  0.6190  0.4696
  152OSM   H15C16850   5.133   0.950   2.096 -0.5913  0.2840 -0.3050
  152OSM    C1416851   5.392   0.971   2.312  0.0829 -0.2127  0.4839
  152OSM   H14A16852   5.344   0.969   2.408  2.1497  0.2309  1.5976
  152OSM   H14B16853   5.477   1.038   2.321  0.9416 -1.4118  1.7853
  152OSM   H14C16854   5.436   0.874   2.294  1.9124  0.7393 -0.4631
  152OSM    C1316855   5.392   1.025   2.084 -0.3606 -0.2261  0.5118
  152OSM   H13A16856   5.481   1.079   2.114 -0.5369  0.8000 -0.7027
  152OSM   H13B16857   5.346   1.076   2.000 -1.3051 -1.9218 -0.0363
  152OSM   H13C16858   5.423   0.933   2.037  3.0994  0.9662  0.1858
  152OSM    C1216859   5.225   1.142   2.240  0.5938  0.7402 -0.3084
  152OSM   H12A16860   5.292   1.213   2.287  0.1052  2.4024 -2.0111
  152OSM   H12B16861   5.165   1.134   2.329  3.1542  0.4421  1.5135
  152OSM    C1116862   5.161   1.236   2.130  0.4659  0.0550  0.0762
  152OSM   H11A16863   5.235   1.276   2.058 -2.6350  3.5233 -1.5036
  152OSM   H11B16864   5.120   1.324   2.182  2.6975  0.5334  1.1471
  152OSM      P16865   4.905   1.178   2.123 -0.3800 -0.3719 -0.4557
  152OSM    O1316866   4.866   1.299   2.043  0.5823  0.1455 -0.6897
  152OSM    O1416867   4.834   1.047   2.107  0.3415 -0.6670  0.1347
  152OSM    O1116868   4.909   1.228   2.276 -0.0902 -0.1591  0.1538
  152OSM    O1216869   5.054   1.154   2.078  0.3547 -0.5817  0.2442
  152OSM    C1S16870   4.916   1.123   2.369  0.3705  0.6784 -0.5582
  152OSM    H1S16871   4.996   1.052   2.339  1.3911  1.3203  0.5453
  152OSM    H1T16872   4.821   1.066   2.372 -0.3785  1.7526  3.9570
  152OSM     NF16873   4.963   1.043   2.600  0.1332  0.3598  0.3301
  152OSM    HNF16874   4.890   0.996   2.649  1.6534 -0.9552  1.4282
  152OSM    C2S16875   4.928   1.162   2.521  0.4365 -0.2752  1.1342
  152OSM    H2S16876   5.009   1.237   2.532 -0.0811  0.6758 -0.9246
  152OSM    C3S16877   4.799   1.232   2.557  0.0409 -0.1468 -0.4168
  152OSM    H3S16878   4.712   1.165   2.543  0.6382 -0.7238 -1.5128
  152OSM     O316879   4.764   1.346   2.477 -0.9525  0.2666  0.3346
  152OSM    HO316880   4.808   1.315   2.397  2.9671  0.6603  2.0922
  152OSM    C4S16881   4.791   1.282   2.705  0.7399 -0.7127 -0.1191
  152OSM    H4S16882   4.879   1.336   2.743 -0.4693  0.0735  1.6745
  152OSM    C5S16883   4.688   1.266   2.786 -0.0092  0.1649 -0.3492
  152OSM    H5S16884   4.602   1.208   2.748 -0.5516  0.4324  0.4405
  152OSM    C6S16885   4.671   1.326   2.926  0.2035  0.0584 -0.6841
  152OSM    H6S16886   4.566   1.354   2.948 -0.5662 -0.9012 -2.8394
  152OSM    H6T16887   4.732   1.416   2.947  1.4162 -0.7122 -0.7914
  152OSM    C7S16888   4.713   1.226   3.038 -0.3676 -0.3686 -0.3769
  152OSM    H7S16889   4.813   1.181   3.022 -0.1671  0.5427 -1.8703
  152OSM    H7T16890   4.632   1.150   3.038  1.2511 -2.1821 -1.1503
  152OSM    C8S16891   4.704   1.302   3.172 -0.2527  0.5713 -0.3673
  152OSM    H8S16892   4.599   1.339   3.177  0.1319  1.6233  0.2276
  152OSM    H8T16893   4.777   1.385   3.160  1.4000 -0.9505 -1.4399
  152OSM    C9S16894   4.730   1.219   3.302 -0.2290 -0.1255 -0.0726
  152OSM    H9S16895   4.840   1.207   3.313 -0.2029  0.1425 -0.0408
  152OSM    H9T16896   4.692   1.115   3.290  3.4154 -1.8414  1.6389
  152OSM   C10S16897   4.675   1.284   3.433  0.3491 -0.5993  0.0680
  152OSM   H10S16898   4.564   1.279   3.438  0.4525 -2.4156  1.7044
  152OSM   H10T16899   4.704   1.392   3.438  4.6524 -1.5647  0.1920
  152OSM   C11S16900   4.729   1.238   3.564  0.5455  0.3019 -0.1028
  152OSM   H11S16901   4.839   1.230   3.555  0.4489 -2.3069  0.1204
  152OSM   H11T16902   4.702   1.130   3.567 -2.1280  0.9318  1.4346
  152OSM   C12S16903   4.688   1.328   3.682 -0.3501  0.1210 -0.5572
  152OSM   H12S16904   4.577   1.331   3.676 -0.3098  1.5712 -0.9472
  152OSM   H12T16905   4.715   1.433   3.660 -0.7425  0.5622  0.9786
  152OSM   C13S16906   4.742   1.282   3.812  0.1997  0.4695  0.7120
  152OSM   H13S16907   4.712   1.348   3.897 -0.9516 -1.3813  1.8158
  152OSM   H13T16908   4.852   1.292   3.798  0.1786 -0.4919 -0.2101
  152OSM   C14S16909   4.704   1.143   3.870  0.2525  0.0661  0.2238
  152OSM   H14S16910   4.728   1.077   3.784 -1.7098  1.5156 -1.5684
  152OSM   H14T16911   4.595   1.136   3.890  0.4391  0.4490  1.4909
  152OSM   C15S16912   4.792   1.099   3.982 -0.3627 -0.2335 -0.3888
  152OSM   H15S16913   4.895   1.080   3.948 -0.5741  0.1504 -1.2589
  152OSM   H15T16914   4.774   1.003   4.035  2.1661  0.5101  2.1015
  152OSM   C16S16915   4.789   1.198   4.099 -0.5771 -0.1847  0.1870
  152OSM   H16S16916   4.686   1.241   4.106  0.7170  3.1527  0.5481
  152OSM   H16T16917   4.855   1.283   4.071 -1.9064  1.4003  1.5859
  152OSM   C17S16918   4.837   1.133   4.227  0.4814 -0.5912 -0.7380
  152OSM   H17S16919   4.939   1.088   4.219 -0.7185 -3.4481 -1.2912
  152OSM   H17T16920   4.765   1.053   4.256  0.1440  0.3750  1.2643
  152OSM   C18S16921   4.827   1.242   4.339 -0.2168  0.1336 -0.9371
  152OSM   H18S16922   4.726   1.289   4.339  0.3455  1.4420  0.9148
  152OSM   H18T16923   4.893   1.328   4.318 -2.1427  1.9537  0.0937
  152OSM   H18U16924   4.850   1.200   4.439 -0.1487  1.3737 -0.4161
  152OSM    C1F16925   5.084   0.998   2.606  0.0196 -0.2672 -0.2172
  152OSM     OF16926   5.170   1.046   2.542 -0.3247  0.0388  0.4307
  152OSM    C2F16927   5.113   0.880   2.695 -0.4083 -0.0426  0.1499
  152OSM    H2F16928   5.176   0.801   2.647 -0.3608 -0.9175  1.5905
  152OSM    H2G16929   5.016   0.833   2.723  0.4514 -1.2593  1.2101
  152OSM    C3F16930   5.163   0.927   2.831  0.2985  0.0496 -0.6784
  152OSM    H3F16931   5.078   0.982   2.878 -1.3210 -1.6792 -1.4713
  152OSM    H3G16932   5.243   1.005   2.834  0.9085 -0.5800  0.8959
  152OSM    C4F16933   5.211   0.806   2.920 -0.2289 -0.1454 -0.6199
  152OSM    H4F16934   5.291   0.747   2.872  0.5869 -0.8147  1.4513
  152OSM    H4G16935   5.126   0.736   2.936  0.3182 -0.9674 -1.2356
  152OSM    C5F16936   5.271   0.861   3.056 -0.0329  0.2623 -0.1042
  152OSM    H5F16937   5.189   0.902   3.118  0.8451  0.3727  1.0201
  152OSM    H5G16938   5.341   0.946   3.040  0.5292  0.2241  1.8871
  152OSM    C6F16939   5.351   0.755   3.132 -0.1196 -0.2970  0.1168
  152OSM    H6F16940   5.410   0.706   3.052 -2.4137 -0.1010 -1.8393
  152OSM    H6G16941   5.285   0.676   3.175 -0.0094 -0.2260  0.4148
  152OSM    C7F16942   5.435   0.800   3.257  0.6798  0.7093  0.4660
  152OSM    H7F16943   5.509   0.874   3.221  0.4229  0.1052 -1.4048
  152OSM    H7G16944   5.497   0.712   3.285 -1.1574 -0.7068  0.2484
  152OSM    C8F16945   5.353   0.846   3.377 -0.3830  0.4369 -0.3488
  152OSM    H8F16946   5.295   0.761   3.420 -0.2152 -0.4438 -1.8204
  152OSM    H8G16947   5.287   0.926   3.338  0.3859  1.3506  0.1978
  152OSM    C9F16948   5.438   0.916   3.480  0.6047 -0.2132 -0.1122
  152OSM    H9F16949   5.452   1.024   3.462  2.3519 -0.3533  0.2544
  152OSM   C10F16950   5.498   0.865   3.589  0.0984 -0.1743  0.2049
  152OSM   H10F16951   5.561   0.936   3.644  1.7075 -1.4926  0.1385
  152OSM   C11F16952   5.501   0.730   3.644  0.5247  0.4935 -0.1178
  152OSM   H11F16953   5.609   0.705   3.651  0.2812 -0.3445  0.9222
  152OSM   H11G16954   5.465   0.656   3.569 -0.5221  0.2611  0.5967
  152OSM   C12F16955   5.444   0.682   3.783  0.8072 -0.0868 -0.2412
  152OSM   H12F16956   5.492   0.586   3.814  0.5948 -0.1992 -0.2559
  152OSM   H12G16957   5.335   0.664   3.773  0.1335  3.0664  0.3390
  152OSM   C13F16958   5.454   0.802   3.880  0.6477  0.7863  0.1609
  152OSM   H13F16959   5.378   0.877   3.848  1.8227  1.5727 -0.8786
  152OSM   H13G16960   5.556   0.846   3.880 -0.0333  2.4548  0.9754
  152OSM   C14F16961   5.435   0.753   4.025  0.0224 -0.6317  0.1777
  152OSM   H14F16962   5.505   0.672   4.055  0.3198 -0.4833 -0.1072
  152OSM   H14G16963   5.340   0.697   4.035  0.7093 -1.6485  1.3110
  152OSM   C15F16964   5.431   0.863   4.132 -0.3814  0.4204 -0.0513
  152OSM   H15F16965   5.361   0.946   4.110 -0.5313  0.1010 -0.8172
  152OSM   H15G16966   5.533   0.908   4.135  0.1673 -0.5159 -2.1785
  152OSM   C16F16967   5.389   0.815   4.268  0.4108  0.5011 -0.0509
  152OSM   H16F16968   5.442   0.720   4.290  0.7194  0.7937  0.4799
  152OSM   H16G16969   5.278   0.806   4.270  0.2802  1.5068 -1.4106
  152OSM   C17F16970   5.435   0.908   4.382  0.3862  0.1754  0.6002
  152OSM   H17F16971   5.369   0.997   4.374  0.7877  0.3272 -1.7658
  152OSM   H17G16972   5.539   0.944   4.370  0.2791  0.2643 -0.0895
  152OSM   C18F16973   5.421   0.844   4.511 -0.1576 -0.2326  0.3173
  152OSM   H18F16974   5.429   0.925   4.587 -2.3499  1.9318 -1.5670
  152OSM   H18G16975   5.489   0.758   4.527 -1.4379 -1.4438 -0.5023
  152OSM   H18H16976   5.319   0.802   4.529 -1.4587  2.2136 -0.8134
  153OSM      N16977   5.087   1.808   2.107  0.1082  0.6280 -0.2027
  153OSM    C1516978   4.964   1.751   2.048  0.1025  0.7897 -0.2062
  153OSM   H15A16979   4.886   1.756   2.122  0.6815  0.1611  0.4635
  153OSM   H15B16980   4.985   1.650   2.014  1.1064  1.0155 -0.2867
  153OSM   H15C16981   4.934   1.815   1.967 -0.5537  2.7278  1.4805
  153OSM    C1416982   5.149   1.725   2.223  0.0871 -0.3523 -0.2796
  153OSM   H14A16983   5.195   1.638   2.180  1.8841  0.4934 -0.1430
  153OSM   H14B16984   5.066   1.699   2.287  0.3225 -1.2090 -0.3136
  153OSM   H14C16985   5.212   1.784   2.288 -0.1559  0.5547 -0.8422
  153OSM    C1316986   5.187   1.816   1.992 -0.3149  0.4368 -0.0663
  153OSM   H13A16987   5.140   1.873   1.913 -1.6430  1.5944  1.5144
  153OSM   H13B16988   5.214   1.717   1.959  0.8337  1.3401 -2.0628
  153OSM   H13C16989   5.271   1.869   2.034 -0.6235 -0.0130  1.1547
  153OSM    C1216990   5.051   1.940   2.161 -1.1051  0.0798  0.0921
  153OSM   H12A16991   4.998   2.001   2.090 -0.3571  0.4659 -0.1387
  153OSM   H12B16992   5.144   1.992   2.176 -0.0536 -1.3014 -1.2505
  153OSM    C1116993   4.977   1.944   2.294  0.6984 -0.0688  0.2317
  153OSM   H11A16994   4.971   2.052   2.321  1.3848 -0.2492  1.1357
  153OSM   H11B16995   5.043   1.906   2.375  1.0179  0.7304  0.3596
  153OSM      P16996   4.730   1.962   2.256 -0.2624  0.1102 -0.0217
  153OSM    O1316997   4.751   2.075   2.161  0.4700  0.3007 -0.4231
  153OSM    O1416998   4.624   1.865   2.225  0.7181  0.0710 -0.2214
  153OSM    O1116999   4.702   2.029   2.398 -0.3562  0.6831  0.5437
  153OSM    O1217000   4.854   1.876   2.286 -0.0784  0.3675 -0.1619
  153OSM    C1S17001   4.643   1.957   2.512 -1.0827  0.5486  0.1499
  153OSM    H1S17002   4.673   1.850   2.508  0.5299  0.9732  0.0385
  153OSM    H1T17003   4.533   1.972   2.511 -1.1243  0.5655 -2.3089
  153OSM     NF17004   4.646   1.938   2.765  0.0494  0.4798  0.0302
  153OSM    HNF17005   4.564   1.970   2.810  0.4848  1.2892  0.2635
  153OSM    C2S17006   4.703   2.010   2.654 -0.1562 -0.0192 -0.0135
  153OSM    H2S17007   4.812   1.989   2.640 -0.2500 -0.6622  0.1782
  153OSM    C3S17008   4.696   2.158   2.670 -0.5763 -0.7122  0.1426
  153OSM    H3S17009   4.590   2.176   2.700 -0.8967 -2.1223 -0.0720
  153OSM     O317010   4.712   2.233   2.549  0.4913 -0.0653  0.1394
  153OSM    HO317011   4.703   2.166   2.481  4.0294 -0.2721 -0.3106
  153OSM    C4S17012   4.792   2.215   2.780 -0.5521  0.4593 -0.3500
  153OSM    H4S17013   4.896   2.205   2.748  0.1567 -4.0757  2.4965
  153OSM    C5S17014   4.746   2.268   2.892  0.4015 -0.6431  0.1589
  153OSM    H5S17015   4.640   2.251   2.918  0.9142 -1.9785  1.5198
  153OSM    C6S17016   4.828   2.340   2.994 -0.5274 -0.1824 -0.7197
  153OSM    H6S17017   4.785   2.442   2.988  1.2477  0.4964 -3.7283
  153OSM    H6T17018   4.938   2.343   2.978 -0.2242  0.2032  1.1507
  153OSM    C7S17019   4.808   2.274   3.134 -0.3351 -0.0475 -0.5628
  153OSM    H7S17020   4.796   2.164   3.129  1.4559 -0.2664 -0.9555
  153OSM    H7T17021   4.715   2.302   3.188 -0.6711 -3.0841  0.5924
  153OSM    C8S17022   4.927   2.297   3.229 -0.2854  0.0894 -0.5450
  153OSM    H8S17023   4.950   2.405   3.218 -2.7778  0.5573 -2.0934
  153OSM    H8T17024   5.018   2.237   3.211 -0.0640 -1.0657  3.4591
  153OSM    C9S17025   4.883   2.266   3.371  0.4920  0.3958 -0.3271
  153OSM    H9S17026   4.866   2.157   3.364  3.3820 -0.0153 -3.9856
  153OSM    H9T17027   4.788   2.322   3.387 -0.1584 -0.6922 -0.2751
  153OSM   C10S17028   4.975   2.289   3.490 -0.7696 -0.2700 -0.2074
  153OSM   H10S17029   4.983   2.398   3.512  0.0907  0.1431 -2.2700
  153OSM   H10T17030   5.079   2.256   3.469 -1.0125 -1.0308 -0.2577
  153OSM   C11S17031   4.934   2.223   3.630 -0.4731 -0.5080  0.8149
  153OSM   H11S17032   4.990   2.127   3.633  2.7967  1.2516  3.4158
  153OSM   H11T17033   4.825   2.205   3.627 -0.8840  1.4706  1.9679
  153OSM   C12S17034   4.977   2.307   3.747  0.4363  0.4904  0.0618
  153OSM   H12S17035   4.949   2.411   3.718  3.3614  1.1769 -0.5644
  153OSM   H12T17036   5.085   2.327   3.761  0.3807  0.1594  1.0593
  153OSM   C13S17037   4.915   2.247   3.882 -0.2641  0.3535 -0.2335
  153OSM   H13S17038   4.874   2.148   3.852  0.7154 -0.9427  2.3502
  153OSM   H13T17039   4.823   2.299   3.916 -0.6201 -0.8530  0.7203
  153OSM   C14S17040   5.014   2.235   4.001 -0.5112 -0.8625  0.0091
  153OSM   H14S17041   5.088   2.316   4.009  0.3429 -1.8142  3.4213
  153OSM   H14T17042   5.081   2.147   3.995  4.1683  2.2741  0.9779
  153OSM   C15S17043   4.929   2.217   4.135  0.0897  0.1174  0.4057
  153OSM   H15S17044   4.898   2.320   4.165 -0.0894  0.2921 -0.3500
  153OSM   H15T17045   5.001   2.174   4.208  1.6785  0.3066 -0.9982
  153OSM   C16S17046   4.795   2.135   4.130  0.3906  0.1088  0.7758
  153OSM   H16S17047   4.797   2.062   4.046 -0.9947  0.3978  0.4617
  153OSM   H16T17048   4.710   2.203   4.106 -0.8963 -1.9836 -0.9189
  153OSM   C17S17049   4.759   2.069   4.258 -0.1650  0.3053  0.4596
  153OSM   H17S17050   4.837   2.001   4.298 -1.3527 -1.1388  0.4115
  153OSM   H17T17051   4.664   2.013   4.247 -0.4475  0.5143  1.6691
  153OSM   C18S17052   4.735   2.167   4.367 -0.0472 -0.0118 -0.0161
  153OSM   H18S17053   4.820   2.235   4.389 -1.6439  2.0912 -0.0313
  153OSM   H18T17054   4.696   2.112   4.456 -3.1971  0.4972 -0.9613
  153OSM   H18U17055   4.652   2.237   4.343  0.0926 -0.5910 -2.3894
  153OSM    C1F17056   4.687   1.811   2.791 -0.1936  0.5121 -0.2297
  153OSM     OF17057   4.773   1.760   2.718  0.4041 -0.7107  0.7896
  153OSM    C2F17058   4.625   1.739   2.916 -0.1125 -0.1650 -0.0678
  153OSM    H2F17059   4.621   1.628   2.906  1.9297 -0.4579  1.7969
  153OSM    H2G17060   4.527   1.786   2.938  0.4104  2.4667 -2.7094
  153OSM    C3F17061   4.720   1.761   3.043  0.1979 -0.2326 -0.3794
  153OSM    H3F17062   4.711   1.870   3.059 -0.0052 -0.3211  0.1105
  153OSM    H3G17063   4.826   1.733   3.023  1.0739 -0.2538  3.5578
  153OSM    C4F17064   4.677   1.692   3.175 -0.3257 -0.7085  0.3020
  153OSM    H4F17065   4.666   1.582   3.170 -2.8016 -0.4976 -0.5461
  153OSM    H4G17066   4.580   1.737   3.205  0.0013  0.3178 -0.1401
  153OSM    C5F17067   4.767   1.736   3.290 -0.5157  0.5483  0.7361
  153OSM    H5F17068   4.801   1.838   3.264 -1.3227 -0.0255 -3.1966
  153OSM    H5G17069   4.864   1.682   3.301 -0.0850  1.0513 -0.4419
  153OSM    C6F17070   4.705   1.720   3.427 -0.8480 -0.8663  0.3657
  153OSM    H6F17071   4.689   1.613   3.452  3.8404 -2.2936 -1.5734
  153OSM    H6G17072   4.612   1.780   3.426 -0.4368 -0.1332 -2.5261
  153OSM    C7F17073   4.807   1.774   3.534  0.3252  0.4997 -0.3258
  153OSM    H7F17074   4.810   1.884   3.519 -1.4447  0.8828  1.6823
  153OSM    H7G17075   4.908   1.728   3.532  0.0910 -0.0165 -0.3598
  153OSM    C8F17076   4.751   1.767   3.676 -0.2210  0.4050 -0.2401
  153OSM    H8F17077   4.722   1.663   3.700  0.0273 -0.0213 -1.7243
  153OSM    H8G17078   4.651   1.814   3.663 -0.8079 -0.4764  0.9186
  153OSM    C9F17079   4.816   1.845   3.786  0.9316  0.3036  0.1999
  153OSM    H9F17080   4.822   1.953   3.770  0.6420  0.0837 -1.6536
  153OSM   C10F17081   4.841   1.794   3.908 -0.6281 -0.2138 -0.2464
  153OSM   H10F17082   4.902   1.856   3.974  1.9546 -1.6041 -1.2108
  153OSM   C11F17083   4.840   1.643   3.948 -0.4735  0.1409  0.7342
  153OSM   H11F17084   4.943   1.602   3.959 -1.3041 -2.6621 -0.7632
  153OSM   H11G17085   4.800   1.577   3.867  0.5269 -0.6366  0.8545
  153OSM   C12F17086   4.748   1.606   4.066  0.2913  0.3371  0.0428
  153OSM   H12F17087   4.741   1.495   4.062 -0.7210  0.4172 -1.0679
  153OSM   H12G17088   4.645   1.642   4.046  0.6617  0.1619 -2.5570
  153OSM   C13F17089   4.791   1.657   4.200 -0.1875  0.3776 -0.6109
  153OSM   H13F17090   4.719   1.613   4.272 -0.7300 -1.1817 -2.0306
  153OSM   H13G17091   4.771   1.766   4.200  1.8133  0.9031 -4.2507
  153OSM   C14F17092   4.936   1.627   4.237 -0.1142 -0.0646  0.1992
  153OSM   H14F17093   4.998   1.662   4.151 -1.4605  2.2797  0.0769
  153OSM   H14G17094   4.937   1.517   4.246  0.0248  0.0535  1.9631
  153OSM   C15F17095   4.974   1.684   4.368  0.2086  0.1153  0.1014
  153OSM   H15F17096   4.935   1.784   4.396 -0.9417  0.0329 -1.1127
  153OSM   H15G17097   5.083   1.694   4.384 -0.0534  2.5079  0.7550
  153OSM   C16F17098   4.921   1.599   4.483 -0.0618  0.0716 -0.2617
  153OSM   H16F17099   4.981   1.505   4.476  0.6674  0.5225 -0.1603
  153OSM   H16G17100   4.818   1.559   4.493 -0.4012  0.7314 -1.0993
  153OSM   C17F17101   4.958   1.652   4.623  0.1188 -0.2643 -0.4486
  153OSM   H17F17102   4.900   1.582   4.687  1.6551 -1.7067 -0.5665
  153OSM   H17G17103   4.921   1.754   4.646  0.5267 -0.0833 -0.5828
  153OSM   C18F17104   5.106   1.651   4.662  0.3200 -0.5824  0.3236
  153OSM   H18F17105   5.166   1.720   4.599  1.8678 -0.6068  1.6933
  153OSM   H18G17106   5.139   1.545   4.650  0.2818 -0.6207  0.5654
  153OSM   H18H17107   5.113   1.676   4.770  0.7617  1.8360 -0.2008
  154OSM      N17108   1.631   2.903   2.037 -1.1249 -0.2647  0.1146
  154OSM    C1517109   1.530   3.011   2.012  0.5609  0.1229 -0.1360
  154OSM   H15A17110   1.465   2.992   1.927 -0.6512  2.7235  0.0995
  154OSM   H15B17111   1.577   3.109   2.011 -0.6962  0.7698 -1.4974
  154OSM   H15C17112   1.461   3.019   2.095  0.7758 -0.2808  0.0823
  154OSM    C1417113   1.568   2.775   2.044 -0.4292  0.4051  0.1239
  154OSM   H14A17114   1.532   2.755   1.945  2.0252 -0.0531 -0.7661
  154OSM   H14B17115   1.484   2.752   2.109 -0.9340  0.9827 -0.3231
  154OSM   H14C17116   1.644   2.701   2.064 -0.8131  0.1959  0.8392
  154OSM    C1317117   1.718   2.894   1.919 -0.2683 -0.3015  0.2088
  154OSM   H13A17118   1.762   2.988   1.888 -1.7579  0.6018  0.7124
  154OSM   H13B17119   1.679   2.844   1.832  1.0321  0.8294 -1.0624
  154OSM   H13C17120   1.800   2.835   1.956  0.5621  1.6574  1.7257
  154OSM    C1217121   1.701   2.944   2.166 -0.2030 -0.2959 -0.1355
  154OSM   H12A17122   1.622   2.949   2.240  0.6880  1.2400  0.7644
  154OSM   H12B17123   1.744   3.040   2.143  0.7430 -0.3271  1.3932
  154OSM    C1117124   1.812   2.850   2.222  0.0575  0.2403  0.1905
  154OSM   H11A17125   1.776   2.749   2.250 -1.1820  0.8368  0.8177
  154OSM   H11B17126   1.843   2.891   2.320  3.0705 -1.7528  0.1923
  154OSM      P17127   2.030   2.957   2.132 -0.0212  0.0907  0.2126
  154OSM    O1317128   2.154   2.896   2.078 -0.2896 -0.6891 -0.5595
  154OSM    O1417129   1.969   3.072   2.054  0.1785 -0.3733 -0.1662
  154OSM    O1117130   2.046   2.997   2.291 -0.1422 -0.0744  0.5332
  154OSM    O1217131   1.917   2.838   2.131 -0.7782  0.5322  0.4376
  154OSM    C1S17132   2.018   3.128   2.339 -0.1083 -0.9514 -0.2367
  154OSM    H1S17133   1.908   3.145   2.339  0.1578  1.3975  1.7414
  154OSM    H1T17134   2.059   3.213   2.280 -3.2693  1.1861  0.3609
  154OSM     NF17135   2.010   3.262   2.546  0.5854 -0.0283  0.0761
  154OSM    HNF17136   2.051   3.350   2.524  1.4468  0.1642  2.2245
  154OSM    C2S17137   2.064   3.144   2.489  0.1282  1.0379 -0.4170
  154OSM    H2S17138   2.041   3.054   2.550 -3.3405  0.3823 -2.4224
  154OSM    C3S17139   2.219   3.160   2.477 -0.1338  0.1622 -0.2504
  154OSM    H3S17140   2.238   3.258   2.428  2.3068 -1.0849 -2.0320
  154OSM     O317141   2.286   3.071   2.395 -0.1845 -0.2719 -0.1821
  154OSM    HO317142   2.209   3.043   2.345 -1.0362  0.8201  0.4668
  154OSM    C4S17143   2.276   3.168   2.618 -0.5049 -0.8730  0.6458
  154OSM    H4S17144   2.286   3.268   2.662 -0.7636 -1.3119  1.7102
  154OSM    C5S17145   2.310   3.067   2.696 -0.5104 -0.2823 -1.0598
  154OSM    H5S17146   2.318   2.974   2.637  2.6523  0.1617 -1.5209
  154OSM    C6S17147   2.352   3.068   2.842 -0.5027 -0.0681  0.5093
  154OSM    H6S17148   2.385   3.171   2.865 -1.2673  1.0187 -2.6670
  154OSM    H6T17149   2.426   2.989   2.868  0.1778  0.3865 -0.0258
  154OSM    C7S17150   2.236   3.050   2.939  0.8112  0.5016  0.6306
  154OSM    H7S17151   2.179   2.958   2.916 -0.0181  0.3963  2.9085
  154OSM    H7T17152   2.171   3.140   2.928 -0.4260 -0.2473  1.5156
  154OSM    C8S17153   2.275   3.055   3.087 -0.3688 -0.0795 -0.7799
  154OSM    H8S17154   2.315   3.155   3.115 -0.0476 -0.1974 -0.8088
  154OSM    H8T17155   2.356   2.979   3.096 -1.2318 -0.9221  0.0610
  154OSM    C9S17156   2.154   3.018   3.186 -0.0094 -0.5054 -0.4464
  154OSM    H9S17157   2.055   3.056   3.153  0.6691  0.5800 -1.3299
  154OSM    H9T17158   2.191   3.061   3.281 -0.2577 -0.0614 -0.5454
  154OSM   C10S17159   2.140   2.867   3.214  0.4484 -1.1056  0.3647
  154OSM   H10S17160   2.240   2.822   3.236  1.3880  0.4587 -0.5158
  154OSM   H10T17161   2.101   2.818   3.123 -2.0200 -0.3216  0.9344
  154OSM   C11S17162   2.043   2.827   3.319  0.8819  0.4106  0.3663
  154OSM   H11S17163   1.961   2.899   3.299  0.3957 -0.9242 -3.3501
  154OSM   H11T17164   2.077   2.842   3.423  0.6564  0.2744  0.4605
  154OSM   C12S17165   1.991   2.678   3.320  0.0346 -0.1467 -0.0784
  154OSM   H12S17166   1.953   2.653   3.218 -0.5098 -1.8475  0.5134
  154OSM   H12T17167   1.903   2.675   3.387  0.0280 -0.8763 -0.1157
  154OSM   C13S17168   2.085   2.553   3.357 -0.5579 -0.4896  0.0181
  154OSM   H13S17169   2.116   2.577   3.461 -2.2188  4.1467 -0.3003
  154OSM   H13T17170   2.171   2.537   3.290 -1.2000 -2.5863 -0.3944
  154OSM   C14S17171   2.001   2.425   3.374 -0.4671  0.5509 -0.2828
  154OSM   H14S17172   1.982   2.400   3.268  0.8437 -0.0085 -0.4088
  154OSM   H14T17173   1.902   2.453   3.417 -1.0807 -2.3297  0.4287
  154OSM   C15S17174   2.070   2.302   3.439  1.0374 -0.0544  0.1603
  154OSM   H15S17175   2.175   2.299   3.403  1.1405 -2.4857  0.4839
  154OSM   H15T17176   2.033   2.200   3.416  1.7356 -0.1833 -0.4303
  154OSM   C16S17177   2.077   2.301   3.595 -0.4779 -0.1061 -0.4049
  154OSM   H16S17178   2.085   2.407   3.628  3.3489 -0.1661 -0.6953
  154OSM   H16T17179   2.169   2.249   3.630 -2.1717 -1.9749  1.5666
  154OSM   C17S17180   1.957   2.234   3.671 -0.0046 -0.3065 -0.1884
  154OSM   H17S17181   1.953   2.123   3.665 -2.7591 -0.2552 -0.7819
  154OSM   H17T17182   1.861   2.268   3.625 -0.7361 -0.1604  1.3879
  154OSM   C18S17183   1.954   2.267   3.827  0.2820 -0.2305 -0.0387
  154OSM   H18S17184   1.871   2.219   3.882 -0.4797 -0.7825 -1.5986
  154OSM   H18T17185   1.940   2.376   3.845  1.0152  0.0141 -0.8173
  154OSM   H18U17186   2.054   2.234   3.862  1.8537  1.9414 -2.1270
  154OSM    C1F17187   1.881   3.264   2.589 -0.7063  0.0635 -0.2538
  154OSM     OF17188   1.809   3.162   2.570  0.1111  0.2491  0.5571
  154OSM    C2F17189   1.829   3.394   2.647 -0.4745  0.6120  0.5277
  154OSM    H2F17190   1.768   3.457   2.578 -1.3716 -0.7664  0.0211
  154OSM    H2G17191   1.919   3.455   2.670 -0.8198  1.6186 -0.6520
  154OSM    C3F17192   1.763   3.373   2.784 -0.3001  0.4857  0.5109
  154OSM    H3F17193   1.682   3.297   2.791 -1.3107  1.6937  4.4359
  154OSM    H3G17194   1.713   3.468   2.813  1.4499  1.1714  1.4439
  154OSM    C4F17195   1.870   3.342   2.886 -0.4560 -0.4171  0.0592
  154OSM    H4F17196   1.933   3.255   2.857 -1.8027 -1.9663  1.5683
  154OSM    H4G17197   1.820   3.300   2.976  0.6611  0.1336  0.9529
  154OSM    C5F17198   1.959   3.461   2.931 -0.4384  0.0545  0.1878
  154OSM    H5F17199   1.909   3.560   2.930 -1.2254 -0.3375  0.1278
  154OSM    H5G17200   2.035   3.478   2.851 -2.7024  3.8671 -1.4159
  154OSM    C6F17201   2.053   3.436   3.052  0.3999  0.1587  0.2866
  154OSM    H6F17202   2.092   3.535   3.084  1.8003  0.9385 -3.3484
  154OSM    H6G17203   2.143   3.374   3.031 -0.9342 -1.3751 -1.2002
  154OSM    C7F17204   1.987   3.376   3.172  0.0573  0.1700 -0.0881
  154OSM    H7F17205   1.976   3.266   3.158  2.2999 -0.0274 -0.7401
  154OSM    H7G17206   1.886   3.416   3.195 -1.5259 -3.3449 -0.2309
  154OSM    C8F17207   2.073   3.397   3.288  0.5472 -0.5583  1.1116
  154OSM    H8F17208   2.057   3.500   3.326 -1.4706 -0.4990  0.2106
  154OSM    H8G17209   2.182   3.379   3.273 -0.1786 -3.3992 -1.8811
  154OSM    C9F17210   2.032   3.312   3.402  0.1421  0.0519 -0.7811
  154OSM    H9F17211   2.087   3.219   3.422  0.0535  0.0038 -0.7612
  154OSM   C10F17212   1.935   3.333   3.492  0.5894 -0.0875 -1.1954
  154OSM   H10F17213   1.908   3.255   3.565  0.8085  0.3123 -0.6804
  154OSM   C11F17214   1.856   3.459   3.509 -0.6029 -0.1473  0.8187
  154OSM   H11F17215   1.750   3.440   3.533 -1.0628  1.5063  0.1929
  154OSM   H11G17216   1.842   3.507   3.410 -1.9001  1.1961  1.6166
  154OSM   C12F17217   1.916   3.564   3.601  0.0399  0.3114 -0.5684
  154OSM   H12F17218   1.859   3.659   3.602  0.4086  0.5358  0.4082
  154OSM   H12G17219   2.024   3.581   3.582  0.2111 -2.5061 -2.8073
  154OSM   C13F17220   1.913   3.508   3.751  0.0563 -0.3646  0.2298
  154OSM   H13F17221   1.995   3.433   3.759 -0.6819 -1.1418  0.6056
  154OSM   H13G17222   1.812   3.466   3.766 -0.7032  0.4979 -2.0238
  154OSM   C14F17223   1.939   3.623   3.844 -1.0199  0.4963 -0.1597
  154OSM   H14F17224   1.882   3.710   3.806 -0.2078 -0.2509 -3.4454
  154OSM   H14G17225   2.044   3.660   3.836 -0.9985  0.7775  1.1660
  154OSM   C15F17226   1.916   3.602   3.996 -0.3833  0.5255 -0.3654
  154OSM   H15F17227   1.979   3.668   4.060  1.0382 -2.8528  1.9746
  154OSM   H15G17228   1.952   3.500   4.017  0.7190  1.1009  0.6337
  154OSM   C16F17229   1.773   3.605   4.036  0.4988 -0.5523  0.6554
  154OSM   H16F17230   1.708   3.540   3.972  1.5821 -1.6698  0.6513
  154OSM   H16G17231   1.727   3.702   4.009  1.7379  0.1161  0.8995
  154OSM   C17F17232   1.744   3.561   4.178  0.4790 -0.0237 -0.1837
  154OSM   H17F17233   1.749   3.653   4.242  0.7905 -1.1503  1.4897
  154OSM   H17G17234   1.825   3.491   4.206  0.4167 -1.4671 -3.3067
  154OSM   C18F17235   1.609   3.499   4.207 -0.8805 -0.6900 -0.1817
  154OSM   H18F17236   1.518   3.561   4.191 -1.9226 -1.8770  0.7808
  154OSM   H18G17237   1.587   3.454   4.307  0.4528  0.3589  0.6195
  154OSM   H18H17238   1.592   3.416   4.135 -1.5272  0.2803 -1.1833
  155OSM      N17239   5.942   4.056   1.525  0.0817 -0.2373 -0.0796
  155OSM    C1517240   5.798   4.054   1.485 -0.3655  1.0321 -0.0131
  155OSM   H15A17241   5.740   4.121   1.546 -1.2226 -0.3735  0.7623
  155OSM   H15B17242   5.758   3.954   1.475  1.7802 -0.0145  1.0288
  155OSM   H15C17243   5.801   4.092   1.384  1.6877 -1.3286 -0.9640
  155OSM    C1417244   5.997   3.959   1.434  0.2888  0.6061 -0.1388
  155OSM   H14A17245   5.943   3.865   1.425  1.8978 -0.2103 -2.0766
  155OSM   H14B17246   6.101   3.940   1.457  0.1794  0.8516  0.5941
  155OSM   H14C17247   5.993   3.999   1.334 -2.9673 -0.6371 -0.6241
  155OSM    C1317248   6.015   4.185   1.493  0.2513 -0.6211 -0.2164
  155OSM   H13A17249   6.115   4.188   1.533  0.2615  0.8210 -0.3139
  155OSM   H13B17250   5.967   4.275   1.528  1.0888 -0.2376 -0.0432
  155OSM   H13C17251   6.027   4.212   1.389 -0.7584  0.3954 -0.0907
  155OSM    C1217252   5.956   4.020   1.679 -0.0123 -0.7062 -0.0755
  155OSM   H12A17253   5.966   4.114   1.730 -0.3494 -1.2486  1.0172
  155OSM   H12B17254   6.054   3.976   1.697 -0.0763 -0.8913 -0.1755
  155OSM    C1117255   5.848   3.922   1.732  0.0123 -0.2527  0.2855
  155OSM   H11A17256   5.746   3.957   1.706  0.2090 -0.2074 -0.4438
  155OSM   H11B17257   5.840   3.929   1.843  0.5213 -1.3348  0.4068
  155OSM      P17258   5.991   3.699   1.732  0.5694  0.3549  0.1589
  155OSM    O1317259   5.985   3.565   1.671  0.3028 -0.2237  0.2842
  155OSM    O1417260   6.117   3.776   1.711 -0.3004  0.7163  0.7759
  155OSM    O1117261   5.971   3.688   1.887 -0.8261 -0.0543 -0.3848
  155OSM    O1217262   5.865   3.789   1.689  0.5054  0.0196  0.5728
  155OSM    C1S17263   5.859   3.627   1.950 -0.8634 -0.3649  0.6830
  155OSM    H1S17264   5.852   3.519   1.925 -0.1815 -0.7364  2.0411
  155OSM    H1T17265   5.773   3.682   1.906 -0.9793 -0.5834  0.6330
  155OSM     NF17266   5.744   3.574   2.172 -0.2073  0.0327 -0.0834
  155OSM    HNF17267   5.671   3.635   2.203  1.8126  1.6151  1.9315
  155OSM    C2S17268   5.865   3.634   2.110  0.5282 -0.0959 -0.3621
  155OSM    H2S17269   5.955   3.577   2.145  0.6944  0.5224  0.2359
  155OSM    C3S17270   5.880   3.784   2.160  0.2682  0.2916  0.4494
  155OSM    H3S17271   5.786   3.842   2.152 -0.8757 -1.6704 -1.3466
  155OSM     O317272   5.994   3.850   2.100  0.2394 -0.2846 -0.3463
  155OSM    HO317273   6.027   3.781   2.041  1.8131  0.9359 -0.9480
  155OSM    C4S17274   5.897   3.782   2.314 -0.9203 -0.2356 -0.0657
  155OSM    H4S17275   5.802   3.793   2.369 -2.0497 -0.6861 -1.8429
  155OSM    C5S17276   6.007   3.757   2.383  0.4224 -0.5646  0.2485
  155OSM    H5S17277   6.093   3.734   2.317  0.3850  3.2312 -1.3456
  155OSM    C6S17278   6.013   3.755   2.533  0.2443 -0.3940 -0.7046
  155OSM    H6S17279   6.077   3.838   2.570 -0.9084 -0.4904  1.7001
  155OSM    H6T17280   6.066   3.661   2.560  2.0777 -0.5246 -4.1964
  155OSM    C7S17281   5.880   3.748   2.617 -0.3736  0.6609 -0.2512
  155OSM    H7S17282   5.824   3.658   2.585  0.5047  0.4757 -1.3296
  155OSM    H7T17283   5.822   3.843   2.613  0.1865  1.5343  5.2324
  155OSM    C8S17284   5.910   3.736   2.766 -0.0651 -0.1426  0.0200
  155OSM    H8S17285   5.992   3.661   2.775  1.2805  1.4304  1.5230
  155OSM    H8T17286   5.824   3.698   2.825 -0.2123 -0.4112 -0.3608
  155OSM    C9S17287   5.967   3.861   2.838 -0.0951 -0.6075  0.9437
  155OSM    H9S17288   5.892   3.940   2.813  0.6666 -0.5413 -1.4453
  155OSM    H9T17289   6.063   3.893   2.793  0.2218 -0.5753  1.6352
  155OSM   C10S17290   5.989   3.835   2.988  0.2485  0.2304  0.1614
  155OSM   H10S17291   6.038   3.736   3.000  3.2274  1.7305  1.4378
  155OSM   H10T17292   5.887   3.825   3.032  0.1868  0.6213  0.1055
  155OSM   C11S17293   6.069   3.940   3.067 -0.1845 -0.3997  0.3064
  155OSM   H11S17294   6.035   4.044   3.045 -0.7800 -0.9245 -1.3800
  155OSM   H11T17295   6.175   3.945   3.032 -0.5437  1.2651 -0.6596
  155OSM   C12S17296   6.054   3.915   3.220 -0.2656  0.0581  0.1940
  155OSM   H12S17297   6.115   3.826   3.248  0.3284  0.6618  0.8249
  155OSM   H12T17298   5.949   3.896   3.251 -0.0117 -1.8489  0.0298
  155OSM   C13S17299   6.128   4.028   3.303  0.2730  0.9372 -0.0137
  155OSM   H13S17300   6.087   4.125   3.267  0.2795  0.7699 -0.4725
  155OSM   H13T17301   6.234   4.038   3.271  0.1267  2.0221 -0.1868
  155OSM   C14S17302   6.109   4.019   3.452 -0.6078  0.5572  0.2349
  155OSM   H14S17303   6.164   3.930   3.488 -1.1179  0.9354  2.0639
  155OSM   H14T17304   6.005   3.994   3.482 -0.6731  0.5742  0.0239
  155OSM   C15S17305   6.158   4.144   3.521  0.4379 -0.7020  0.1181
  155OSM   H15S17306   6.115   4.235   3.473  1.7852 -0.1779 -0.1394
  155OSM   H15T17307   6.268   4.151   3.508  0.4479 -2.1724 -0.9328
  155OSM   C16S17308   6.144   4.164   3.678 -0.6732  0.0442  0.1392
  155OSM   H16S17309   6.209   4.092   3.733 -3.1895 -0.0326  3.3371
  155OSM   H16T17310   6.038   4.134   3.699 -0.7108 -0.0346 -0.1632
  155OSM   C17S17311   6.175   4.313   3.722 -0.4189  0.0787 -0.2800
  155OSM   H17S17312   6.111   4.383   3.664 -1.0536 -0.1326  0.1400
  155OSM   H17T17313   6.278   4.347   3.701  0.2597 -2.0282 -0.5615
  155OSM   C18S17314   6.162   4.329   3.874  0.1447 -0.3852 -0.2814
  155OSM   H18S17315   6.066   4.385   3.884  0.5712 -0.0756  3.2925
  155OSM   H18T17316   6.247   4.387   3.917 -0.9489  0.1210  1.3165
  155OSM   H18U17317   6.160   4.235   3.932 -2.7827 -1.1424 -1.4459
  155OSM    C1F17318   5.725   3.445   2.176 -0.3182  0.0298  0.6826
  155OSM     OF17319   5.820   3.375   2.142  0.5170  0.1811 -0.0774
  155OSM    C2F17320   5.582   3.399   2.198 -0.9981 -0.7134  0.6900
  155OSM    H2F17321   5.551   3.345   2.106  1.3690 -0.2353 -0.4528
  155OSM    H2G17322   5.529   3.496   2.206 -0.3569 -0.3150  0.1393
  155OSM    C3F17323   5.569   3.309   2.322 -0.3262 -0.0137  0.3100
  155OSM    H3F17324   5.639   3.224   2.310  1.0957  1.3830 -2.2907
  155OSM    H3G17325   5.467   3.272   2.343 -0.6282  1.2466  1.1903
  155OSM    C4F17326   5.625   3.370   2.448  0.1738  0.2628 -0.0982
  155OSM    H4F17327   5.563   3.462   2.462 -1.1742 -0.4422 -1.1763
  155OSM    H4G17328   5.733   3.394   2.441 -0.1854  2.3867  0.7455
  155OSM    C5F17329   5.616   3.273   2.562 -0.1857  0.0537  0.2894
  155OSM    H5F17330   5.678   3.186   2.531 -1.2927 -0.2997 -1.0231
  155OSM    H5G17331   5.510   3.244   2.578 -0.2739  1.4645  2.6611
  155OSM    C6F17332   5.679   3.323   2.692  0.2472 -0.5025 -0.4810
  155OSM    H6F17333   5.785   3.347   2.670  0.6548 -1.7878 -0.0211
  155OSM    H6G17334   5.688   3.236   2.760  3.0987  0.0582  0.0131
  155OSM    C7F17335   5.609   3.441   2.756  0.8618  0.6530  0.2613
  155OSM    H7F17336   5.498   3.436   2.757  0.8903  0.1321  0.5875
  155OSM    H7G17337   5.634   3.531   2.694 -0.7501 -0.3236 -1.9708
  155OSM    C8F17338   5.660   3.471   2.895 -0.5330 -0.3163 -0.6506
  155OSM    H8F17339   5.645   3.581   2.905 -3.1385 -0.7340  0.7319
  155OSM    H8G17340   5.770   3.454   2.897 -0.4904  0.0042  0.3439
  155OSM    C9F17341   5.588   3.395   2.997  0.1102 -0.2433  0.5462
  155OSM    H9F17342   5.558   3.293   2.969  1.5883 -0.6577  0.3955
  155OSM   C10F17343   5.571   3.436   3.128  0.2845  0.4753 -0.8288
  155OSM   H10F17344   5.513   3.371   3.196  2.9143 -0.3998  0.7185
  155OSM   C11F17345   5.622   3.559   3.192  0.6375 -0.1330  0.0117
  155OSM   H11F17346   5.538   3.615   3.238  0.0447 -0.1246 -1.0608
  155OSM   H11G17347   5.672   3.628   3.120  1.9320  1.8906  2.6555
  155OSM   C12F17348   5.723   3.518   3.297 -0.3308  0.0554 -0.2919
  155OSM   H12F17349   5.802   3.464   3.240 -0.1315  1.8597 -1.8216
  155OSM   H12G17350   5.662   3.452   3.362  0.2831  1.7723  2.1562
  155OSM   C13F17351   5.787   3.629   3.374 -0.7740 -0.2882  1.3501
  155OSM   H13F17352   5.714   3.709   3.397  2.1337  2.8889  0.2675
  155OSM   H13G17353   5.866   3.679   3.314 -1.9598  1.0169  0.8160
  155OSM   C14F17354   5.852   3.575   3.502  0.4357 -0.0866  0.1635
  155OSM   H14F17355   5.950   3.536   3.467  0.2584 -0.3574 -0.0304
  155OSM   H14G17356   5.779   3.504   3.545 -0.8783  1.6913  1.0322
  155OSM   C15F17357   5.894   3.694   3.594 -0.4369  0.2399 -0.7957
  155OSM   H15F17358   5.805   3.726   3.653  1.0235  0.1351  1.6272
  155OSM   H15G17359   5.936   3.774   3.530 -2.0714  2.3729  0.6620
  155OSM   C16F17360   6.000   3.655   3.701  0.8528 -0.0734 -0.5309
  155OSM   H16F17361   6.076   3.598   3.643 -1.0022 -2.0001 -1.2349
  155OSM   H16G17362   5.955   3.580   3.770  0.8760  0.5095  0.1265
  155OSM   C17F17363   6.051   3.766   3.787 -0.1329 -0.6272  0.3885
  155OSM   H17F17364   5.969   3.834   3.819  1.5850  1.2717  0.9800
  155OSM   H17G17365   6.112   3.836   3.726  0.1419  1.8261  3.2173
  155OSM   C18F17366   6.127   3.714   3.904  0.3681 -0.0156 -0.3832
  155OSM   H18F17367   6.225   3.673   3.870 -0.4064 -2.9896  0.6374
  155OSM   H18G17368   6.080   3.628   3.955 -0.6120  0.9309  0.3549
  155OSM   H18H17369   6.146   3.792   3.981 -0.7784 -0.1138  0.0148
  156OSM      N17370   1.334   3.558   2.162  0.0391 -0.5212 -0.5721
  156OSM    C1517371   1.278   3.686   2.207  0.1193  1.1738 -0.1511
  156OSM   H15A17372   1.326   3.725   2.296 -0.0339 -0.9661  0.9355
  156OSM   H15B17373   1.173   3.666   2.224  0.7157 -1.1385  1.2256
  156OSM   H15C17374   1.273   3.764   2.133  0.5688  0.1705 -1.2761
  156OSM    C1417375   1.286   3.524   2.032  1.0438  0.2711 -0.1661
  156OSM   H14A17376   1.185   3.488   2.045  1.3535 -0.2236  1.0598
  156OSM   H14B17377   1.341   3.456   1.969  2.3859  1.0641  0.1122
  156OSM   H14C17378   1.279   3.610   1.968  0.6137 -1.0026 -1.9110
  156OSM    C1317379   1.486   3.589   2.163  0.5488  0.1993 -0.2483
  156OSM   H13A17380   1.494   3.678   2.102 -3.0435 -1.0247 -2.8590
  156OSM   H13B17381   1.542   3.505   2.126  2.6284  0.7345  1.4887
  156OSM   H13C17382   1.533   3.598   2.260  3.0584 -1.5889 -1.1817
  156OSM    C1217383   1.314   3.448   2.269  0.4703 -0.1102 -0.3750
  156OSM   H12A17384   1.366   3.473   2.361 -1.4649  0.6579  0.5648
  156OSM   H12B17385   1.376   3.364   2.242 -1.1657 -1.5208  0.0650
  156OSM    C1117386   1.176   3.383   2.294 -0.0710 -0.1968 -0.3323
  156OSM   H11A17387   1.105   3.464   2.319  2.2634  1.3737  1.6439
  156OSM   H11B17388   1.182   3.315   2.382  0.0340  1.8465  1.2961
  156OSM      P17389   1.168   3.166   2.152  0.0997 -0.1839 -0.2209
  156OSM    O1317390   1.175   3.154   2.003  0.8853 -0.0867 -0.4824
  156OSM    O1417391   1.288   3.124   2.231 -0.4257  0.3060  0.4703
  156OSM    O1117392   1.033   3.091   2.202  0.0145  0.1863  0.0767
  156OSM    O1217393   1.121   3.316   2.179 -0.2820  0.8236 -0.1392
  156OSM    C1S17394   1.010   3.070   2.341 -0.3247 -0.0780  0.2107
  156OSM    H1S17395   1.101   3.070   2.404  0.5430  1.4904 -0.9683
  156OSM    H1T17396   0.961   2.971   2.349  0.8357 -0.6729  0.1252
  156OSM     NF17397   0.879   3.152   2.536 -0.2533 -0.1101  0.2426
  156OSM    HNF17398   0.790   3.113   2.560  0.4783 -0.6654  2.2770
  156OSM    C2S17399   0.905   3.175   2.396 -0.3688 -0.5811 -0.0241
  156OSM    H2S17400   0.951   3.276   2.387 -1.2725 -0.1541  0.0580
  156OSM    C3S17401   0.773   3.180   2.309 -0.6526 -0.1113 -0.1934
  156OSM    H3S17402   0.720   3.083   2.317 -1.0465  0.2263  1.8524
  156OSM     O317403   0.791   3.211   2.174  0.3341 -0.3420  0.3039
  156OSM    HO317404   0.886   3.198   2.173 -0.0224 -4.5366  0.8512
  156OSM    C4S17405   0.685   3.284   2.367  0.3018  0.5063 -0.3315
  156OSM    H4S17406   0.732   3.383   2.373  0.7455  0.2356  1.1989
  156OSM    C5S17407   0.550   3.264   2.402  0.1907 -0.4564  0.2911
  156OSM    H5S17408   0.508   3.163   2.396 -1.0852 -0.0972  2.1523
  156OSM    C6S17409   0.464   3.375   2.454  0.7587  0.0304 -0.7888
  156OSM    H6S17410   0.358   3.365   2.420  0.4798 -0.0208  0.0515
  156OSM    H6T17411   0.481   3.480   2.423 -3.7340  2.2684  3.0599
  156OSM    C7S17412   0.440   3.383   2.608 -0.3815  0.3980 -0.0544
  156OSM    H7S17413   0.534   3.391   2.667 -1.2019  0.4268  1.2986
  156OSM    H7T17414   0.398   3.288   2.649  0.3039  0.5082  0.9434
  156OSM    C8S17415   0.345   3.498   2.643 -0.4406 -0.2968 -0.5406
  156OSM    H8S17416   0.268   3.494   2.563  1.9441 -1.1589 -2.9487
  156OSM    H8T17417   0.393   3.597   2.628 -2.8834  1.1073  0.3907
  156OSM    C9S17418   0.261   3.481   2.773 -0.2595 -0.6379 -0.0553
  156OSM    H9S17419   0.241   3.372   2.774  0.9251 -0.8739  1.1400
  156OSM    H9T17420   0.161   3.529   2.769  0.6465  1.4545  0.5186
  156OSM   C10S17421   0.325   3.532   2.903  0.7764  0.1790  0.1477
  156OSM   H10S17422   0.373   3.631   2.886 -0.7861  1.0041  0.3037
  156OSM   H10T17423   0.402   3.454   2.920 -0.4529 -0.6249  2.4321
  156OSM   C11S17424   0.240   3.541   3.029  0.4382  0.4800  0.3039
  156OSM   H11S17425   0.199   3.440   3.049  0.4944  0.0754 -1.4243
  156OSM   H11T17426   0.159   3.611   3.000  1.2976  1.4405  0.1476
  156OSM   C12S17427   0.300   3.576   3.162 -0.0844 -0.5305  0.5634
  156OSM   H12S17428   0.347   3.676   3.153  0.2806 -0.7692 -0.3014
  156OSM   H12T17429   0.390   3.517   3.187 -0.4605 -1.5016 -0.2737
  156OSM   C13S17430   0.207   3.567   3.287 -0.4767 -0.2652  0.3264
  156OSM   H13S17431   0.196   3.457   3.299 -1.8825 -0.4115 -1.7530
  156OSM   H13T17432   0.109   3.616   3.266 -0.8079 -0.3679  1.5868
  156OSM   C14S17433   0.276   3.634   3.402 -0.0980 -0.1330  0.5581
  156OSM   H14S17434   0.299   3.742   3.402  0.0766 -0.1702  0.6075
  156OSM   H14T17435   0.372   3.579   3.415  0.5181  1.0617  1.2280
  156OSM   C15S17436   0.204   3.617   3.534  0.1947  0.5967  0.4299
  156OSM   H15S17437   0.182   3.509   3.547  1.4312 -0.3069 -3.5940
  156OSM   H15T17438   0.110   3.672   3.514 -1.7882 -3.3437 -2.5438
  156OSM   C16S17439   0.291   3.650   3.656 -0.7590 -0.7231  0.4762
  156OSM   H16S17440   0.317   3.758   3.660  0.1864 -0.8357 -1.4805
  156OSM   H16T17441   0.383   3.595   3.630 -0.2271  1.1479 -2.0365
  156OSM   C17S17442   0.217   3.601   3.782  0.3638  0.2813  0.3576
  156OSM   H17S17443   0.209   3.490   3.779  0.7652  0.2609 -0.3774
  156OSM   H17T17444   0.114   3.640   3.770  0.9357  1.4335 -1.2841
  156OSM   C18S17445   0.278   3.656   3.914  0.2265  0.5588 -0.6062
  156OSM   H18S17446   0.217   3.647   4.007  0.7585  0.4115 -0.2659
  156OSM   H18T17447   0.301   3.762   3.889  1.8650  0.0545 -1.3886
  156OSM   H18U17448   0.372   3.598   3.925  0.3820  0.9211  0.0188
  156OSM    C1F17449   0.973   3.182   2.629  0.2726 -0.6156 -0.5166
  156OSM     OF17450   1.078   3.240   2.598  0.0325  0.7432  1.1154
  156OSM    C2F17451   0.944   3.136   2.767 -0.0263 -0.1969  0.0714
  156OSM    H2F17452   1.029   3.164   2.833  0.0308 -2.1187  0.8893
  156OSM    H2G17453   0.924   3.027   2.775 -0.3065 -0.1671 -0.2138
  156OSM    C3F17454   0.817   3.202   2.827 -0.3369 -0.4456  0.1567
  156OSM    H3F17455   0.727   3.167   2.772 -0.4107  0.5067 -0.3508
  156OSM    H3G17456   0.816   3.313   2.825 -0.9579 -0.3165  2.8394
  156OSM    C4F17457   0.809   3.158   2.974 -0.0631 -0.3696  0.4700
  156OSM    H4F17458   0.811   3.048   2.984  3.5928 -0.5441 -0.6146
  156OSM    H4G17459   0.708   3.181   3.013 -0.1026 -0.3239  0.3393
  156OSM    C5F17460   0.911   3.231   3.061 -0.5891 -0.5200 -0.7291
  156OSM    H5F17461   0.905   3.338   3.031  0.4951 -0.2716 -0.1183
  156OSM    H5G17462   1.014   3.198   3.034 -0.8927 -0.4873 -1.9763
  156OSM    C6F17463   0.896   3.223   3.216  0.6629  0.3491  0.7789
  156OSM    H6F17464   0.794   3.249   3.250  0.5030 -0.6352  1.0694
  156OSM    H6G17465   0.962   3.293   3.272 -1.4662  2.2375  1.0847
  156OSM    C7F17466   0.916   3.075   3.261  0.3836 -0.8093  0.1501
  156OSM    H7F17467   1.014   3.046   3.216  0.7266 -0.3628  0.6058
  156OSM    H7G17468   0.831   3.014   3.223 -0.7673  1.2346 -0.6556
  156OSM    C8F17469   0.908   3.055   3.415 -0.4093 -0.1556  0.1961
  156OSM    H8F17470   0.905   2.947   3.436 -0.3254 -0.0977  0.4999
  156OSM    H8G17471   0.816   3.094   3.463 -0.8440 -0.9131 -0.0070
  156OSM    C9F17472   1.031   3.114   3.484 -0.2362 -0.8978 -0.2216
  156OSM    H9F17473   1.132   3.082   3.453 -0.1032 -1.5651  0.8309
  156OSM   C10F17474   1.029   3.211   3.576  0.3220 -0.0661  0.9299
  156OSM   H10F17475   1.128   3.241   3.614  0.8111  1.3785 -1.2946
  156OSM   C11F17476   0.917   3.290   3.630 -0.2136 -0.8631 -0.3851
  156OSM   H11F17477   0.843   3.303   3.548 -1.3184 -2.6788  0.2629
  156OSM   H11G17478   0.950   3.391   3.660 -1.4552  0.2700 -2.5699
  156OSM   C12F17479   0.853   3.216   3.747  0.1628 -0.1357 -0.7496
  156OSM   H12F17480   0.807   3.119   3.720  0.9537 -0.6727 -0.2159
  156OSM   H12G17481   0.774   3.291   3.767  0.8077  1.2060 -2.9723
  156OSM   C13F17482   0.942   3.197   3.877 -0.2107 -0.0708 -0.0951
  156OSM   H13F17483   0.961   3.300   3.915  0.8446 -1.1467  2.5630
  156OSM   H13G17484   1.036   3.139   3.866 -0.7781 -1.3192  1.2460
  156OSM   C14F17485   0.864   3.124   3.992  0.6874  0.0156  0.4935
  156OSM   H14F17486   0.876   3.015   3.972  0.2488  0.1304 -0.4553
  156OSM   H14G17487   0.756   3.148   4.002  0.3890 -0.1689 -1.6909
  156OSM   C15F17488   0.942   3.141   4.119 -0.7245  0.0877 -0.1817
  156OSM   H15F17489   0.940   3.246   4.156 -0.0623 -1.2960  4.4198
  156OSM   H15G17490   1.049   3.111   4.116 -0.9172 -0.7245  0.6840
  156OSM   C16F17491   0.870   3.063   4.237 -0.6409  0.1039 -0.1313
  156OSM   H16F17492   0.867   2.954   4.214  1.0549  0.1718 -0.8969
  156OSM   H16G17493   0.773   3.115   4.245  0.0685  1.3492  0.7178
  156OSM   C17F17494   0.945   3.083   4.362  0.5686 -0.5476 -0.9742
  156OSM   H17F17495   0.967   3.191   4.381  0.2387 -0.8423  1.4341
  156OSM   H17G17496   1.037   3.020   4.362  0.7937 -0.2952  0.9128
  156OSM   C18F17497   0.862   3.020   4.479 -1.0151 -0.1158  0.3371
  156OSM   H18F17498   0.877   2.910   4.482  1.0064  0.0691 -1.0608
  156OSM   H18G17499   0.753   3.042   4.473 -1.1877 -1.2781 -1.9886
  156OSM   H18H17500   0.916   3.059   4.568  0.3063 -0.1281 -0.4286
  157OSM      N17501   0.648   5.719   1.790  0.1242  0.6847 -0.1462
  157OSM    C1517502   0.541   5.639   1.723 -0.2811 -0.1933  0.9888
  157OSM   H15A17503   0.562   5.624   1.618  1.4636  3.9510  0.5701
  157OSM   H15B17504   0.448   5.694   1.719  0.7860  1.6126 -0.8342
  157OSM   H15C17505   0.511   5.552   1.780  1.8327 -1.8087 -0.2158
  157OSM    C1417506   0.774   5.632   1.799 -0.3179 -0.8475  0.0229
  157OSM   H14A17507   0.853   5.675   1.858  0.7378 -2.7819  0.1144
  157OSM   H14B17508   0.819   5.629   1.701  0.2427 -1.5741  0.2884
  157OSM   H14C17509   0.754   5.536   1.845 -1.8732  0.3261  1.9303
  157OSM    C1317510   0.684   5.845   1.717 -0.1428  0.6703 -0.6378
  157OSM   H13A17511   0.762   5.900   1.768  0.0380  0.0129 -0.1920
  157OSM   H13B17512   0.604   5.915   1.699 -0.3117 -0.0274 -2.9313
  157OSM   H13C17513   0.723   5.824   1.618  0.0367  1.0483 -0.6507
  157OSM    C1217514   0.591   5.755   1.918 -0.0447 -0.3254 -0.4782
  157OSM   H12A17515   0.550   5.672   1.974  1.3954 -0.6479  0.1394
  157OSM   H12B17516   0.507   5.821   1.901 -0.6565 -0.8586  0.3951
  157OSM    C1117517   0.683   5.827   2.029  0.3891 -0.6810  1.1437
  157OSM   H11A17518   0.775   5.767   2.048  1.8980  0.8638 -0.8498
  157OSM   H11B17519   0.618   5.823   2.120 -0.3730 -0.2482  0.6286
  157OSM      P17520   0.632   6.078   2.020 -0.0192 -0.4841 -0.1702
  157OSM    O1317521   0.714   6.187   1.969 -0.2266  0.0546 -0.3779
  157OSM    O1417522   0.505   6.039   1.963  0.0099  0.1460 -0.0116
  157OSM    O1117523   0.628   6.091   2.173 -0.2422 -0.1585 -1.0508
  157OSM    O1217524   0.724   5.956   2.001  0.3490 -0.3324  0.4421
  157OSM    C1S17525   0.507   6.055   2.242  0.0846  0.3397  0.5278
  157OSM    H1S17526   0.482   5.946   2.241 -0.6101  0.4902 -1.0485
  157OSM    H1T17527   0.415   6.101   2.201 -0.0898 -0.6336 -0.2209
  157OSM     NF17528   0.435   6.028   2.482  0.3359  0.1697  0.3236
  157OSM    HNF17529   0.369   6.078   2.538  1.3309  1.9950 -0.0326
  157OSM    C2S17530   0.514   6.097   2.392 -0.7427 -0.3869 -0.0740
  157OSM    H2S17531   0.623   6.094   2.416  0.0174  0.7307 -2.9499
  157OSM    C3S17532   0.494   6.251   2.401  1.1292 -0.1363 -1.3029
  157OSM    H3S17533   0.390   6.281   2.380 -0.0778 -2.2976  1.0794
  157OSM     O317534   0.575   6.332   2.321 -0.4054  0.1593 -0.3105
  157OSM    HO317535   0.623   6.281   2.255  0.2317 -0.3097  0.4875
  157OSM    C4S17536   0.535   6.303   2.541  0.9117  0.1514 -0.1778
  157OSM    H4S17537   0.618   6.245   2.585  0.4897 -0.9306 -0.7721
  157OSM    C5S17538   0.453   6.383   2.616 -0.0911 -0.0291  0.4746
  157OSM    H5S17539   0.354   6.410   2.576  0.9944  2.8342 -0.5384
  157OSM    C6S17540   0.469   6.404   2.766 -0.7143 -0.7592  0.5758
  157OSM    H6S17541   0.489   6.511   2.787  0.6908 -0.5058 -1.7420
  157OSM    H6T17542   0.557   6.348   2.802 -0.5880 -1.8676 -1.3382
  157OSM    C7S17543   0.351   6.348   2.851 -0.7994  0.3974  0.3954
  157OSM    H7S17544   0.358   6.238   2.836  1.6180  0.8016 -2.4679
  157OSM    H7T17545   0.258   6.396   2.813  0.7180  0.7005 -3.4123
  157OSM    C8S17546   0.374   6.382   3.003 -0.3603  0.8133  0.1482
  157OSM    H8S17547   0.375   6.492   3.019 -1.6044  1.1265 -1.6618
  157OSM    H8T17548   0.474   6.349   3.040 -0.9829 -0.0689  1.0899
  157OSM    C9S17549   0.268   6.306   3.093 -0.1720  0.1637  0.6533
  157OSM    H9S17550   0.262   6.197   3.074 -3.2272  0.1042  1.5228
  157OSM    H9T17551   0.176   6.365   3.072  1.2805  1.7985 -1.5812
  157OSM   C10S17552   0.303   6.314   3.241 -0.1759 -0.5366  0.3714
  157OSM   H10S17553   0.333   6.418   3.267 -0.5469 -0.6732  1.3844
  157OSM   H10T17554   0.392   6.252   3.264 -0.2688 -0.0387  2.1998
  157OSM   C11S17555   0.174   6.268   3.323 -0.2902  0.0231  0.0162
  157OSM   H11S17556   0.142   6.166   3.291  0.3606 -0.1964  0.0370
  157OSM   H11T17557   0.093   6.339   3.298  0.2489  0.4064 -0.7090
  157OSM   C12S17558   0.193   6.246   3.476 -0.0664  0.9022  0.8273
  157OSM   H12S17559   0.290   6.196   3.493 -1.3277 -0.9653  3.1337
  157OSM   H12T17560   0.104   6.185   3.503 -0.5898  0.5990 -1.3998
  157OSM   C13S17561   0.186   6.374   3.565  0.0625  0.3954  0.4777
  157OSM   H13S17562   0.092   6.433   3.554  0.2655  0.7337  0.5404
  157OSM   H13T17563   0.272   6.435   3.528  0.3060 -1.6550 -2.7359
  157OSM   C14S17564   0.208   6.358   3.707 -0.2422 -0.4658 -0.9142
  157OSM   H14S17565   0.310   6.322   3.733 -0.4036 -0.2734  0.0207
  157OSM   H14T17566   0.146   6.279   3.756  0.2556  0.6401  1.6595
  157OSM   C15S17567   0.182   6.489   3.782  0.4272 -0.2926 -0.4452
  157OSM   H15S17568   0.073   6.512   3.779  0.6788  1.1875  0.7279
  157OSM   H15T17569   0.234   6.567   3.722 -1.6605 -0.6418 -2.9128
  157OSM   C16S17570   0.217   6.484   3.928  0.1361 -0.1005  0.4080
  157OSM   H16S17571   0.324   6.467   3.953  0.4616 -1.0038 -1.4361
  157OSM   H16T17572   0.157   6.401   3.972  0.5689 -0.3032  0.6231
  157OSM   C17S17573   0.185   6.607   4.007 -0.1322 -0.0738  0.0607
  157OSM   H17S17574   0.082   6.641   3.980  0.1460  0.3712 -0.4647
  157OSM   H17T17575   0.255   6.689   3.984  1.5601 -1.0430  1.5880
  157OSM   C18S17576   0.190   6.579   4.158 -0.3044 -0.2505 -0.2118
  157OSM   H18S17577   0.171   6.677   4.208  1.6721 -0.3746  0.8899
  157OSM   H18T17578   0.289   6.549   4.199  0.4893 -0.0749 -1.9337
  157OSM   H18U17579   0.125   6.494   4.188  0.6812 -1.3917 -1.2352
  157OSM    C1F17580   0.456   5.897   2.507 -0.2702  0.0726  0.5105
  157OSM     OF17581   0.558   5.841   2.462 -0.2832 -0.0397 -0.3548
  157OSM    C2F17582   0.362   5.824   2.598  0.0646 -0.6127 -0.0911
  157OSM    H2F17583   0.266   5.804   2.545 -0.8872  0.1233  1.2977
  157OSM    H2G17584   0.345   5.886   2.688  0.7153  1.4770 -1.3300
  157OSM    C3F17585   0.417   5.688   2.637  0.4956  0.3503  0.3726
  157OSM    H3F17586   0.516   5.711   2.683 -0.4478  2.7307  1.3689
  157OSM    H3G17587   0.423   5.622   2.548 -2.5089 -2.3290  1.9764
  157OSM    C4F17588   0.342   5.600   2.728  0.2318  0.3705 -0.0274
  157OSM    H4F17589   0.245   5.565   2.689 -0.5552  0.5115  1.6917
  157OSM    H4G17590   0.306   5.652   2.820 -1.3440 -1.7765  0.6493
  157OSM    C5F17591   0.427   5.478   2.752 -0.7655  0.2992  0.2881
  157OSM    H5F17592   0.532   5.506   2.778  0.1139 -0.9340 -1.6904
  157OSM    H5G17593   0.427   5.412   2.663 -0.9486 -0.8420  1.1144
  157OSM    C6F17594   0.373   5.383   2.862  0.2415 -0.5231 -0.2593
  157OSM    H6F17595   0.400   5.276   2.849  2.7565  0.2818 -2.7028
  157OSM    H6G17596   0.263   5.383   2.848 -0.0097  0.8784  1.3649
  157OSM    C7F17597   0.388   5.440   3.003 -0.3054  0.3005 -0.2838
  157OSM    H7F17598   0.319   5.526   3.014  0.2300  0.7711 -0.5304
  157OSM    H7G17599   0.487   5.481   3.035 -0.0295 -0.3141 -0.3380
  157OSM    C8F17600   0.351   5.327   3.105  0.2883  0.1941  0.0834
  157OSM    H8F17601   0.414   5.332   3.196  2.7133 -1.4185 -1.3909
  157OSM    H8G17602   0.372   5.226   3.063  0.7211 -0.4584  1.7631
  157OSM    C9F17603   0.208   5.328   3.148 -0.3541  0.4170 -0.3439
  157OSM    H9F17604   0.134   5.315   3.068  0.5918 -1.9535 -0.8891
  157OSM   C10F17605   0.157   5.352   3.268  0.2461 -0.5290 -0.0714
  157OSM   H10F17606   0.049   5.344   3.289  0.2510  1.6726  1.0926
  157OSM   C11F17607   0.238   5.399   3.392  0.5068  0.0863  0.1650
  157OSM   H11F17608   0.287   5.497   3.374  0.6678  0.2837  1.5694
  157OSM   H11G17609   0.313   5.326   3.431 -0.7203 -1.4572 -0.2690
  157OSM   C12F17610   0.145   5.421   3.513 -0.0362 -0.4753 -0.2712
  157OSM   H12F17611   0.110   5.320   3.544 -0.7654 -0.7794 -1.9816
  157OSM   H12G17612   0.062   5.483   3.474  0.2906  1.4316  1.8585
  157OSM   C13F17613   0.209   5.503   3.626 -0.1860  0.1825 -0.8054
  157OSM   H13F17614   0.136   5.505   3.710 -0.4145  0.0638 -1.0004
  157OSM   H13G17615   0.209   5.607   3.586  1.3911  0.2085 -0.7940
  157OSM   C14F17616   0.339   5.442   3.674 -0.4349  0.3628  0.7632
  157OSM   H14F17617   0.408   5.449   3.587 -2.7847  2.7010 -1.0891
  157OSM   H14G17618   0.323   5.335   3.697  0.0986  0.6678  2.6606
  157OSM   C15F17619   0.397   5.515   3.796 -0.3394 -0.1136 -0.4137
  157OSM   H15F17620   0.336   5.498   3.887  1.2734  0.3152  0.7926
  157OSM   H15G17621   0.393   5.624   3.775 -0.8746 -0.2324 -0.9581
  157OSM   C16F17622   0.543   5.476   3.821  0.3801 -0.0093  0.8238
  157OSM   H16F17623   0.595   5.504   3.727 -0.0569 -2.1911 -0.1348
  157OSM   H16G17624   0.548   5.366   3.838  0.2334 -0.0907  0.3569
  157OSM   C17F17625   0.615   5.540   3.936 -0.4877  0.2164 -0.2723
  157OSM   H17F17626   0.634   5.644   3.902  0.2407  0.1960  0.0388
  157OSM   H17G17627   0.717   5.500   3.956 -0.5830  0.8069  1.5810
  157OSM   C18F17628   0.544   5.534   4.070  0.0970  0.0771 -0.8396
  157OSM   H18F17629   0.522   5.428   4.098 -1.7491  0.3293 -1.1881
  157OSM   H18G17630   0.452   5.595   4.082  0.4374  1.1343 -3.0624
  157OSM   H18H17631   0.609   5.578   4.148  0.7348  0.6261 -1.6750
  158OSM      N17632   5.320   2.554   1.937 -0.5289 -0.3997  0.0094
  158OSM    C1517633   5.190   2.490   1.935  0.1273 -0.4692  0.3357
  158OSM   H15A17634   5.161   2.488   2.039 -1.8291 -2.1263 -0.1729
  158OSM   H15B17635   5.201   2.385   1.910  0.2837 -0.5308  0.6585
  158OSM   H15C17636   5.118   2.543   1.875  0.3361 -0.3478  0.1868
  158OSM    C1417637   5.392   2.516   1.808 -0.0214  0.6002  0.6339
  158OSM   H14A17638   5.411   2.410   1.804  1.3299  0.8450 -1.1989
  158OSM   H14B17639   5.479   2.575   1.779 -1.0532  0.8338 -2.3066
  158OSM   H14C17640   5.314   2.538   1.737  0.9268 -1.5630 -1.2230
  158OSM    C1317641   5.297   2.706   1.929 -0.1260  0.1241 -0.4257
  158OSM   H13A17642   5.271   2.739   2.028 -0.7051 -1.9937  0.1663
  158OSM   H13B17643   5.214   2.738   1.867  1.3139  1.4468 -1.7706
  158OSM   H13C17644   5.384   2.769   1.914 -0.8296  1.2932  0.2339
  158OSM    C1217645   5.406   2.523   2.059 -0.3603 -0.2439  0.9176
  158OSM   H12A17646   5.500   2.574   2.044  0.8445 -2.9178 -1.3167
  158OSM   H12B17647   5.426   2.417   2.056 -0.4382 -0.2529  0.7503
  158OSM    C1117648   5.352   2.553   2.192  0.5625 -0.3382 -0.2209
  158OSM   H11A17649   5.305   2.654   2.198  0.9843 -0.1499 -0.0698
  158OSM   H11B17650   5.443   2.548   2.255  0.8353  0.4651 -0.5452
  158OSM      P17651   5.271   2.303   2.220  0.1698  0.0039  0.4236
  158OSM    O1317652   5.147   2.256   2.151 -0.4716  0.0201 -0.0240
  158OSM    O1417653   5.410   2.267   2.169  0.2939 -0.0989 -0.1016
  158OSM    O1117654   5.261   2.248   2.365 -0.2280 -0.3504 -0.0300
  158OSM    O1217655   5.255   2.460   2.236  0.3357  0.2565  0.2904
  158OSM    C1S17656   5.255   2.337   2.478 -0.0342  0.1406 -0.6473
  158OSM    H1S17657   5.202   2.434   2.466 -0.4087  0.5088  2.8613
  158OSM    H1T17658   5.358   2.367   2.508  0.1862 -1.1038 -0.0803
  158OSM     NF17659   5.189   2.335   2.717 -0.1667  0.8417 -0.1287
  158OSM    HNF17660   5.264   2.328   2.784 -0.6889  0.5522  0.4366
  158OSM    C2S17661   5.196   2.247   2.595 -0.1197 -0.0035  0.2718
  158OSM    H2S17662   5.095   2.208   2.568  0.4084  0.3447 -2.4938
  158OSM    C3S17663   5.282   2.124   2.625  0.5394  0.5130  0.5085
  158OSM    H3S17664   5.390   2.150   2.624  0.5542  0.4563 -0.6162
  158OSM     O317665   5.277   2.037   2.510  0.0037 -0.1982  0.0761
  158OSM    HO317666   5.263   2.107   2.446  2.6486  2.0206  1.6898
  158OSM    C4S17667   5.234   2.058   2.751  0.1415 -0.4364 -0.5181
  158OSM    H4S17668   5.316   2.057   2.825 -0.1318  0.1498 -0.2006
  158OSM    C5S17669   5.116   1.990   2.771  0.3323 -0.4524 -0.1847
  158OSM    H5S17670   5.050   1.966   2.687 -1.4666 -0.1832  1.0954
  158OSM    C6S17671   5.070   1.923   2.899 -0.5189  0.4369 -0.7159
  158OSM    H6S17672   5.092   1.815   2.890 -1.1131  0.1544  0.9225
  158OSM    H6T17673   4.964   1.944   2.925 -0.5444  0.0461 -0.4983
  158OSM    C7S17674   5.148   1.973   3.022 -0.0477 -0.1151 -0.0364
  158OSM    H7S17675   5.155   2.084   3.015 -1.5266  0.0913  1.2419
  158OSM    H7T17676   5.252   1.934   3.024  0.5156  1.3098  1.4071
  158OSM    C8S17677   5.092   1.942   3.162 -0.2382 -0.3749 -0.1682
  158OSM    H8S17678   5.100   1.831   3.166  0.7844 -0.3181 -0.5211
  158OSM    H8T17679   4.984   1.967   3.171 -0.7469 -2.2609 -0.5227
  158OSM    C9S17680   5.174   1.994   3.281  0.4164 -0.3854 -0.4055
  158OSM    H9S17681   5.163   2.103   3.300  0.9067 -0.3542 -0.3101
  158OSM    H9T17682   5.281   1.970   3.265  0.5159  0.6169 -1.4001
  158OSM   C10S17683   5.131   1.939   3.420  0.0189  0.2199  0.3132
  158OSM   H10S17684   5.131   1.828   3.422  0.6745  0.2259  1.0113
  158OSM   H10T17685   5.037   1.983   3.458 -0.0239 -0.9688  1.6670
  158OSM   C11S17686   5.235   1.986   3.533  0.5889 -0.2715  0.5687
  158OSM   H11S17687   5.221   2.094   3.553 -1.0561 -0.2570 -0.5191
  158OSM   H11T17688   5.335   1.963   3.491  0.2292 -0.6449 -0.1088
  158OSM   C12S17689   5.203   1.921   3.666 -0.0475 -0.5985  0.0544
  158OSM   H12S17690   5.224   1.813   3.650 -0.6201 -0.4645 -1.9031
  158OSM   H12T17691   5.096   1.936   3.690  0.5077  1.1915  1.6044
  158OSM   C13S17692   5.279   1.975   3.788 -0.6317  0.2737 -0.1062
  158OSM   H13S17693   5.257   2.082   3.804 -2.8705 -0.1495 -0.0436
  158OSM   H13T17694   5.384   1.957   3.757 -0.8532  0.5088 -1.0280
  158OSM   C14S17695   5.259   1.898   3.915 -0.2011 -0.5233 -0.7213
  158OSM   H14S17696   5.299   1.796   3.896 -0.7221 -0.8940  0.1302
  158OSM   H14T17697   5.152   1.879   3.935  0.1958  1.2565  4.7680
  158OSM   C15S17698   5.331   1.965   4.035 -0.1081 -0.4586  0.2113
  158OSM   H15S17699   5.278   2.057   4.069  1.4521  0.6276 -0.1853
  158OSM   H15T17700   5.432   1.995   4.000 -0.2122 -1.6520 -1.1555
  158OSM   C16S17701   5.350   1.878   4.163  0.2654  0.4369  0.7001
  158OSM   H16S17702   5.409   1.786   4.142 -0.3580 -0.2906  1.9973
  158OSM   H16T17703   5.255   1.837   4.203 -0.5835  2.2259  0.6016
  158OSM   C17S17704   5.406   1.943   4.286 -0.0554 -0.7960 -0.0437
  158OSM   H17S17705   5.481   2.016   4.249 -0.9999 -0.5305 -1.5103
  158OSM   H17T17706   5.461   1.864   4.342 -1.4575 -2.4081 -0.8293
  158OSM   C18S17707   5.297   2.008   4.368  0.7044 -0.3603  0.2700
  158OSM   H18S17708   5.212   1.937   4.377  1.2694 -1.4988 -2.5047
  158OSM   H18T17709   5.260   2.097   4.314 -0.5386 -2.0457 -1.8079
  158OSM   H18U17710   5.323   2.039   4.472  3.3631 -1.8221  0.1359
  158OSM    C1F17711   5.110   2.438   2.724 -1.4631  0.3461  0.2281
  158OSM     OF17712   5.025   2.445   2.636  0.7044  0.5167 -0.3358
  158OSM    C2F17713   5.137   2.531   2.840  0.8178 -0.2968 -0.5441
  158OSM    H2F17714   5.230   2.588   2.822 -0.3356  1.6807 -0.5585
  158OSM    H2G17715   5.165   2.470   2.929  1.3124  0.1753 -0.3734
  158OSM    C3F17716   5.011   2.615   2.875 -0.2750  0.0595 -0.4099
  158OSM    H3F17717   4.920   2.557   2.849 -1.3795  1.8229 -0.6193
  158OSM    H3G17718   5.013   2.696   2.800 -1.2861  0.0698 -0.4387
  158OSM    C4F17719   5.027   2.675   3.018  0.3320  0.0254  0.4660
  158OSM    H4F17720   5.114   2.743   3.010  0.1989  0.2325  0.7618
  158OSM    H4G17721   5.049   2.591   3.087  1.0386 -0.0261  0.1786
  158OSM    C5F17722   4.895   2.737   3.056  0.3333  0.2546 -0.1750
  158OSM    H5F17723   4.815   2.686   2.998 -1.4230  2.8568 -0.2160
  158OSM    H5G17724   4.893   2.843   3.023 -2.0669  0.7389  1.2944
  158OSM    C6F17725   4.876   2.751   3.204  0.1639  0.0380 -0.8025
  158OSM    H6F17726   4.968   2.804   3.235 -0.8864  2.7527 -2.0768
  158OSM    H6G17727   4.873   2.655   3.260 -3.0525 -0.2532 -1.2294
  158OSM    C7F17728   4.757   2.841   3.263  0.3254  0.4809  0.4087
  158OSM    H7F17729   4.662   2.798   3.225  0.3013  1.1562 -0.3381
  158OSM    H7G17730   4.765   2.948   3.234 -0.7342  0.0881 -1.4885
  158OSM    C8F17731   4.734   2.826   3.420  0.3818  0.4394 -0.3622
  158OSM    H8F17732   4.758   2.723   3.455  0.0729  0.2427 -0.7193
  158OSM    H8G17733   4.624   2.833   3.431  0.1302 -0.5028 -1.9279
  158OSM    C9F17734   4.824   2.918   3.494  0.2873  0.4260  0.1052
  158OSM    H9F17735   4.790   3.021   3.514  0.6338  0.3737  0.9846
  158OSM   C10F17736   4.943   2.886   3.550  0.0239  0.2657  0.5076
  158OSM   H10F17737   5.000   2.963   3.606  0.9302  0.7273 -0.9994
  158OSM   C11F17738   5.003   2.754   3.542 -0.2069  0.1089 -0.1813
  158OSM   H11F17739   5.112   2.763   3.521 -0.0715 -0.1091  0.4285
  158OSM   H11G17740   4.958   2.684   3.469  1.4483  0.5935 -1.7572
  158OSM   C12F17741   4.981   2.685   3.675 -0.2987  0.4269  0.0054
  158OSM   H12F17742   5.025   2.584   3.662 -1.6900 -0.5953  2.5736
  158OSM   H12G17743   4.876   2.671   3.707  0.0380 -0.8249  0.6134
  158OSM   C13F17744   5.053   2.748   3.792 -0.6408 -0.0230 -0.2890
  158OSM   H13F17745   5.020   2.853   3.803 -0.5982  0.2675 -2.5097
  158OSM   H13G17746   5.161   2.750   3.766 -1.3452  0.0931 -3.5906
  158OSM   C14F17747   5.031   2.659   3.918  0.1819  0.9054  0.1719
  158OSM   H14F17748   5.063   2.555   3.896 -0.9984  1.0951 -2.9732
  158OSM   H14G17749   4.921   2.645   3.930  0.3101 -0.1099  0.2454
  158OSM   C15F17750   5.088   2.714   4.042 -0.2355 -0.0313  0.3744
  158OSM   H15F17751   5.040   2.808   4.077  0.7737  0.6572 -0.0277
  158OSM   H15G17752   5.196   2.734   4.028 -0.0300 -1.5369 -0.3980
  158OSM   C16F17753   5.082   2.608   4.151  0.5027  0.4062 -0.3569
  158OSM   H16F17754   5.133   2.517   4.112 -1.3408 -0.8861  0.1215
  158OSM   H16G17755   4.973   2.593   4.170  0.1796  1.4637 -1.2913
  158OSM   C17F17756   5.156   2.643   4.282 -0.2239  0.4915  0.0880
  158OSM   H17F17757   5.119   2.741   4.319  1.0379  1.1884 -0.4475
  158OSM   H17G17758   5.266   2.643   4.270 -0.3043 -2.8079 -1.8675
  158OSM   C18F17759   5.148   2.544   4.394  0.3417  0.3774  0.2246
  158OSM   H18F17760   5.183   2.447   4.353  0.6657  0.8493 -0.6292
  158OSM   H18G17761   5.043   2.528   4.427  0.5845  2.1087  2.0876
  158OSM   H18H17762   5.222   2.566   4.474 -1.3406 -1.5589  2.4593
  159OSM      N17763   6.433   4.921   2.132  0.7690  0.2576 -0.0874
  159OSM    C1517764   6.473   4.916   2.278  0.4155 -0.4624  0.4884
  159OSM   H15A17765   6.406   4.974   2.340 -1.7689 -2.6698  0.3591
  159OSM   H15B17766   6.577   4.939   2.299  0.4038 -0.8483  0.9990
  159OSM   H15C17767   6.468   4.814   2.312  0.1944 -0.5832  0.1020
  159OSM    C1417768   6.543   4.854   2.053  0.2751  0.2281 -0.1708
  159OSM   H14A17769   6.502   4.812   1.962  0.9840  0.3464 -0.5578
  159OSM   H14B17770   6.578   4.772   2.114 -1.6533 -0.7803 -0.3393
  159OSM   H14C17771   6.629   4.915   2.029 -0.2269  1.2004  0.4237
  159OSM    C1317772   6.313   4.831   2.114  0.2980 -0.7025 -0.5752
  159OSM   H13A17773   6.237   4.875   2.177 -0.1028 -1.0233 -0.8285
  159OSM   H13B17774   6.323   4.732   2.154 -0.8906  0.0120  1.6056
  159OSM   H13C17775   6.276   4.833   2.012 -1.7384  1.7805  0.1029
  159OSM    C1217776   6.409   5.058   2.081  0.3391 -0.0663  0.0972
  159OSM   H12A17777   6.343   5.048   1.995 -0.1841  0.7365  0.3942
  159OSM   H12B17778   6.503   5.103   2.054  1.8101 -2.3868  1.0411
  159OSM    C1117779   6.348   5.150   2.185 -0.2135  0.0268 -0.9002
  159OSM   H11A17780   6.420   5.166   2.268 -1.7968  0.2136  0.4874
  159OSM   H11B17781   6.260   5.095   2.223  2.4026 -1.8395  3.1198
  159OSM      P17782   6.413   5.392   2.108 -0.0225 -0.2916  0.1686
  159OSM    O1317783   6.549   5.337   2.073 -0.6529  0.2439  0.0578
  159OSM    O1417784   6.358   5.502   2.017  0.0697  0.6806  0.1910
  159OSM    O1117785   6.416   5.461   2.254 -0.0747 -0.3126 -0.1335
  159OSM    O1217786   6.308   5.273   2.122  0.5090 -0.1562  0.0545
  159OSM    C1S17787   6.289   5.463   2.333  0.5089  0.1473 -0.3055
  159OSM    H1S17788   6.234   5.367   2.324 -3.1915  2.2212 -2.3792
  159OSM    H1T17789   6.221   5.531   2.277  1.4798 -0.4519 -2.3045
  159OSM     NF17790   6.202   5.451   2.566 -0.2434  0.2285  0.4162
  159OSM    HNF17791   6.155   5.531   2.602  0.0511  1.4895 -1.8323
  159OSM    C2S17792   6.314   5.494   2.477 -0.0172 -0.2545 -0.6954
  159OSM    H2S17793   6.396   5.429   2.513  1.0847  1.2775 -0.2957
  159OSM    C3S17794   6.360   5.645   2.506  0.1531  0.3666  0.4482
  159OSM    H3S17795   6.282   5.718   2.476  1.8932  1.2214 -2.3409
  159OSM     O317796   6.472   5.675   2.413  0.4842 -0.2208 -0.6817
  159OSM    HO317797   6.474   5.608   2.344 -0.1201 -1.2322  0.2566
  159OSM    C4S17798   6.405   5.652   2.645 -0.0739 -0.6119 -0.1317
  159OSM    H4S17799   6.486   5.582   2.669  0.7829  0.5265  0.3934
  159OSM    C5S17800   6.365   5.749   2.734 -0.0611 -0.1078  0.7364
  159OSM    H5S17801   6.282   5.817   2.712 -0.3723 -0.6173  0.3092
  159OSM    C6S17802   6.419   5.745   2.871  0.3327  0.3630 -0.0396
  159OSM    H6S17803   6.502   5.819   2.874  0.6746  0.1748 -2.7796
  159OSM    H6T17804   6.455   5.645   2.906 -0.5764 -0.7830 -2.2243
  159OSM    C7S17805   6.319   5.802   2.969 -0.1420 -0.3500  0.2611
  159OSM    H7S17806   6.226   5.742   2.969 -2.0055  2.2367 -2.6165
  159OSM    H7T17807   6.297   5.902   2.927  0.9873 -0.8406 -1.6312
  159OSM    C8S17808   6.386   5.816   3.106  0.6698 -0.5782 -0.6074
  159OSM    H8S17809   6.481   5.874   3.099 -0.0257  1.4893  3.4888
  159OSM    H8T17810   6.415   5.720   3.154 -1.4689  0.6502  3.6855
  159OSM    C9S17811   6.290   5.887   3.210 -0.1316  0.1174  0.8589
  159OSM    H9S17812   6.196   5.831   3.231 -0.2313  1.0913  3.2930
  159OSM    H9T17813   6.265   5.986   3.166 -0.9210  0.6344  2.3842
  159OSM   C10S17814   6.371   5.923   3.337  0.4378  0.3846 -0.4485
  159OSM   H10S17815   6.455   5.989   3.307  0.7244  0.7547  1.0612
  159OSM   H10T17816   6.424   5.831   3.371 -0.5421 -0.3656 -0.8924
  159OSM   C11S17817   6.278   5.977   3.445 -0.3540 -0.5052 -0.2134
  159OSM   H11S17818   6.194   5.904   3.436 -0.2010 -0.5530 -1.4112
  159OSM   H11T17819   6.229   6.070   3.409  1.5919 -0.0536 -1.8874
  159OSM   C12S17820   6.340   6.000   3.578 -0.3798  0.2988  0.3257
  159OSM   H12S17821   6.415   6.079   3.554 -0.8230  0.3747 -0.8618
  159OSM   H12T17822   6.391   5.908   3.613 -0.8931 -0.0224  0.2314
  159OSM   C13S17823   6.239   6.052   3.681 -0.6381 -0.9797 -0.6882
  159OSM   H13S17824   6.168   5.971   3.706  0.1117 -0.3428  4.8898
  159OSM   H13T17825   6.194   6.147   3.644 -0.2657 -0.6479 -0.3083
  159OSM   C14S17826   6.314   6.086   3.812 -0.3745 -0.0900 -1.2194
  159OSM   H14S17827   6.243   6.152   3.866 -0.3786 -1.5276  0.6562
  159OSM   H14T17828   6.399   6.155   3.794  0.5395 -0.2397  1.8576
  159OSM   C15S17829   6.379   5.984   3.901 -0.0313 -0.2883  0.3639
  159OSM   H15S17830   6.408   6.039   3.993 -1.6471 -1.3921  1.5844
  159OSM   H15T17831   6.465   5.928   3.860  0.5925  0.8402  0.0769
  159OSM   C16S17832   6.281   5.883   3.957 -0.8297  0.8918 -0.2951
  159OSM   H16S17833   6.263   5.807   3.877  0.0728 -0.5717  0.8402
  159OSM   H16T17834   6.186   5.925   3.996 -0.5783  1.1994 -0.0127
  159OSM   C17S17835   6.348   5.803   4.073  1.1328  0.7736  0.7009
  159OSM   H17S17836   6.405   5.874   4.138 -1.2307  3.4857  0.0254
  159OSM   H17T17837   6.421   5.731   4.029 -1.4042 -0.8244 -1.1523
  159OSM   C18S17838   6.236   5.731   4.159 -0.3595 -0.1119  0.0877
  159OSM   H18S17839   6.289   5.682   4.244  0.0101  1.1545  0.6174
  159OSM   H18T17840   6.189   5.657   4.092  0.7130 -0.8399  0.1140
  159OSM   H18U17841   6.171   5.814   4.195  1.4916  1.6905 -0.4617
  159OSM    C1F17842   6.166   5.325   2.582  0.8309  0.4903 -0.0039
  159OSM     OF17843   6.242   5.236   2.550  0.0663  0.2094  0.1920
  159OSM    C2F17844   6.028   5.289   2.635 -0.4606  0.6748 -0.0841
  159OSM    H2F17845   5.989   5.199   2.582  0.1984 -0.1516  0.7948
  159OSM    H2G17846   5.961   5.375   2.613 -3.0340 -0.8052  1.4802
  159OSM    C3F17847   6.022   5.254   2.781  0.2219  0.3182  0.0586
  159OSM    H3F17848   6.072   5.154   2.789 -0.8735 -0.5450 -2.6850
  159OSM    H3G17849   5.915   5.255   2.809  0.3213  0.3938  0.4407
  159OSM    C4F17850   6.096   5.340   2.883  0.1801 -0.2109 -0.2193
  159OSM    H4F17851   6.068   5.448   2.881  1.3591  0.1910  1.9999
  159OSM    H4G17852   6.204   5.337   2.857  0.4272  1.1628  0.5386
  159OSM    C5F17853   6.074   5.298   3.028  0.4710  0.3433  0.5700
  159OSM    H5F17854   6.126   5.207   3.067 -0.4544 -0.3940  0.1361
  159OSM    H5G17855   5.969   5.263   3.037  0.7898 -1.1147 -0.8921
  159OSM    C6F17856   6.090   5.412   3.133  0.2846 -0.2249 -0.3723
  159OSM    H6F17857   6.032   5.504   3.111  0.0147 -0.7652 -2.0221
  159OSM    H6G17858   6.196   5.445   3.133 -0.5169  2.7210 -2.6107
  159OSM    C7F17859   6.050   5.367   3.277 -0.3057  0.7069  0.0895
  159OSM    H7F17860   6.009   5.264   3.272  1.1979  0.1248 -1.3160
  159OSM    H7G17861   5.961   5.428   3.302  1.3720  3.1387  0.4417
  159OSM    C8F17862   6.163   5.394   3.377  0.3579 -0.6540  0.0124
  159OSM    H8F17863   6.255   5.348   3.335 -0.5256 -0.1041 -2.7609
  159OSM    H8G17864   6.133   5.333   3.465 -1.6663  0.9795  0.5278
  159OSM    C9F17865   6.161   5.546   3.411  0.4595 -0.4237 -0.3119
  159OSM    H9F17866   6.175   5.606   3.320  0.8238 -1.3983 -0.9231
  159OSM   C10F17867   6.143   5.607   3.528  0.4838 -0.6668  0.0495
  159OSM   H10F17868   6.138   5.717   3.536 -2.5025 -0.5909 -1.3048
  159OSM   C11F17869   6.111   5.544   3.663  0.1389  0.0860  0.4908
  159OSM   H11F17870   6.164   5.593   3.748 -0.6272 -0.0250  1.0435
  159OSM   H11G17871   6.141   5.438   3.658 -1.0596 -0.2025 -1.5352
  159OSM   C12F17872   5.964   5.538   3.710  0.2316  0.2933  0.0501
  159OSM   H12F17873   5.898   5.511   3.625 -2.0546  0.4092  1.7143
  159OSM   H12G17874   5.933   5.636   3.749  2.3918  1.2376 -0.4217
  159OSM   C13F17875   5.936   5.429   3.812 -0.2804  0.1497  0.2223
  159OSM   H13F17876   6.015   5.438   3.889 -0.9690  1.0314  0.8365
  159OSM   H13G17877   5.957   5.332   3.761  0.5093  0.3852  0.0847
  159OSM   C14F17878   5.802   5.434   3.888  0.2140 -0.4044 -0.1872
  159OSM   H14F17879   5.805   5.352   3.963  3.3263  0.7131  1.0592
  159OSM   H14G17880   5.710   5.445   3.827  0.0038 -1.9546 -0.1820
  159OSM   C15F17881   5.796   5.556   3.982 -0.8213 -0.3760 -0.1308
  159OSM   H15F17882   5.784   5.647   3.919 -3.2672 -0.0059  0.7309
  159OSM   H15G17883   5.896   5.564   4.029  0.8768 -1.3284 -3.2930
  159OSM   C16F17884   5.685   5.548   4.090 -0.7636  0.3005  0.3069
  159OSM   H16F17885   5.695   5.449   4.141 -0.1049 -0.3031 -0.9437
  159OSM   H16G17886   5.587   5.534   4.039 -1.0205 -2.1631  1.3065
  159OSM   C17F17887   5.667   5.656   4.193 -1.3419 -0.0529 -1.0213
  159OSM   H17F17888   5.578   5.631   4.254  2.4439 -0.6768  5.1124
  159OSM   H17G17889   5.653   5.752   4.139 -1.1117 -0.7887 -2.4279
  159OSM   C18F17890   5.780   5.651   4.302  0.3222 -0.4072  0.1543
  159OSM   H18F17891   5.763   5.729   4.380  0.9175 -0.8911  0.7806
  159OSM   H18G17892   5.875   5.688   4.258 -0.5435  0.4881 -1.0183
  159OSM   H18H17893   5.785   5.550   4.347 -1.8302  0.1926  1.9820
  160OSM      N17894   5.597   5.689   2.230  0.7057 -0.8033 -0.2615
  160OSM    C1517895   5.536   5.781   2.129  0.6535  0.6251 -0.0603
  160OSM   H15A17896   5.481   5.724   2.055  1.3499  2.2513 -1.9395
  160OSM   H15B17897   5.610   5.840   2.077  0.1022  0.5614 -0.9485
  160OSM   H15C17898   5.474   5.854   2.179 -0.1408  0.1533 -0.3356
  160OSM    C1417899   5.637   5.773   2.352  0.7426  0.3161  0.1196
  160OSM   H14A17900   5.716   5.842   2.330  1.4118 -0.5447 -0.2276
  160OSM   H14B17901   5.659   5.708   2.436  2.5142  1.3593  0.5132
  160OSM   H14C17902   5.556   5.834   2.390  0.2147  0.1753 -0.7551
  160OSM    C1317903   5.511   5.582   2.277  0.6420 -0.3264  0.3699
  160OSM   H13A17904   5.417   5.619   2.317  0.0958 -0.4057 -0.7930
  160OSM   H13B17905   5.549   5.523   2.359 -1.5297 -1.1494  0.8769
  160OSM   H13C17906   5.490   5.508   2.202  1.2655 -0.2447  0.1120
  160OSM    C1217907   5.719   5.620   2.180 -0.1038 -0.2911 -0.1586
  160OSM   H12A17908   5.678   5.564   2.097  0.1546  1.4131 -1.4899
  160OSM   H12B17909   5.759   5.561   2.261 -0.3332 -0.0083  0.1629
  160OSM    C1117910   5.839   5.708   2.124  0.3157 -0.0123 -0.2007
  160OSM   H11A17911   5.804   5.753   2.029 -1.6795  1.9029  1.3171
  160OSM   H11B17912   5.921   5.639   2.094  1.2458  1.7349 -1.9064
  160OSM      P17913   6.006   5.795   2.304  0.3118  0.2130 -0.4568
  160OSM    O1317914   5.988   5.678   2.400 -0.1057  0.7705  0.0419
  160OSM    O1417915   6.112   5.789   2.205  0.3264 -0.4687 -0.0287
  160OSM    O1117916   6.011   5.925   2.394  0.5731  0.3958  0.6766
  160OSM    O1217917   5.875   5.814   2.211 -0.0626  0.1591  0.7619
  160OSM    C1S17918   5.907   6.022   2.397  0.3027  0.4489  0.8314
  160OSM    H1S17919   5.809   5.970   2.396 -0.7526  2.1953 -2.6987
  160OSM    H1T17920   5.902   6.069   2.296 -0.8638 -0.8241  0.2533
  160OSM     NF17921   5.786   6.163   2.553  0.6706 -0.4278 -0.6253
  160OSM    HNF17922   5.785   6.263   2.557  1.7803 -0.2738 -2.5501
  160OSM    C2S17923   5.913   6.098   2.528  0.3189  0.4203 -0.0490
  160OSM    H2S17924   5.922   6.020   2.607  1.8046  1.4736  0.8646
  160OSM    C3S17925   6.042   6.180   2.531 -0.7458  0.1330  0.0325
  160OSM    H3S17926   6.050   6.246   2.441 -0.4256 -0.2526 -0.2247
  160OSM     O317927   6.158   6.103   2.497  0.0447 -0.5134  0.0787
  160OSM    HO317928   6.119   6.023   2.461 -2.3562  0.0838  1.1988
  160OSM    C4S17929   6.065   6.258   2.662 -0.2370  0.5524 -0.1520
  160OSM    H4S17930   5.998   6.345   2.674  1.1841  1.7925 -0.9677
  160OSM    C5S17931   6.138   6.219   2.772 -0.0831  0.7119  1.1451
  160OSM    H5S17932   6.191   6.124   2.769  0.1152  0.8199  1.2472
  160OSM    C6S17933   6.170   6.300   2.896  0.3525 -0.5990  0.5123
  160OSM    H6S17934   6.273   6.343   2.893 -0.3076  1.1882  1.4655
  160OSM    H6T17935   6.163   6.233   2.984 -1.4887  0.9568  1.6104
  160OSM    C7S17936   6.077   6.421   2.915 -0.4308  0.3837  0.1440
  160OSM    H7S17937   5.971   6.389   2.926 -1.2205  3.2933  2.2634
  160OSM    H7T17938   6.096   6.494   2.834  2.9368 -0.0188  0.4362
  160OSM    C8S17939   6.105   6.501   3.047 -0.3691 -0.0065  0.4140
  160OSM    H8S17940   6.047   6.594   3.063 -0.4059 -0.0579  0.5840
  160OSM    H8T17941   6.213   6.527   3.048 -0.8520  2.1810  1.6603
  160OSM    C9S17942   6.077   6.419   3.171  0.2610  0.3938  0.1834
  160OSM    H9S17943   6.141   6.328   3.179  2.4831  1.5275 -2.7913
  160OSM    H9T17944   5.970   6.393   3.160  0.3726  0.3059 -0.7937
  160OSM   C10S17945   6.095   6.520   3.295  0.1292  0.7259  0.1842
  160OSM   H10S17946   6.011   6.592   3.282 -0.1216  0.1833 -1.4900
  160OSM   H10T17947   6.196   6.566   3.291  0.8288 -0.5073  2.2121
  160OSM   C11S17948   6.081   6.460   3.428  1.0921 -0.0872 -0.8684
  160OSM   H11S17949   6.153   6.380   3.456 -1.0851 -2.0961 -0.6758
  160OSM   H11T17950   5.989   6.399   3.437  0.6136  0.7005 -0.3994
  160OSM   C12S17951   6.072   6.572   3.537  0.5871 -0.8883  0.5760
  160OSM   H12S17952   5.976   6.627   3.525  0.1386 -1.6350  0.6699
  160OSM   H12T17953   6.151   6.649   3.524  0.5802 -0.8869  0.5485
  160OSM   C13S17954   6.069   6.509   3.675  0.0093  0.4642 -0.8590
  160OSM   H13S17955   6.177   6.494   3.697 -0.0515 -0.4594 -1.1509
  160OSM   H13T17956   6.031   6.405   3.667  0.4616  0.1515  0.6685
  160OSM   C14S17957   5.993   6.592   3.771  0.1341 -0.0580 -0.5478
  160OSM   H14S17958   5.885   6.566   3.770 -0.0069  0.1567  2.3018
  160OSM   H14T17959   5.984   6.698   3.739 -0.4525  0.7854  2.1578
  160OSM   C15S17960   6.043   6.578   3.920  0.1789 -0.0011  0.4615
  160OSM   H15S17961   6.153   6.596   3.914  0.1040  0.0938 -1.1151
  160OSM   H15T17962   6.027   6.475   3.956 -1.8804  0.0520 -0.2060
  160OSM   C16S17963   5.997   6.679   4.024 -0.6680 -0.1758  0.0705
  160OSM   H16S17964   5.889   6.677   4.048 -0.2511 -0.1922  2.0994
  160OSM   H16T17965   6.021   6.782   3.988  0.8621 -0.9602 -1.3045
  160OSM   C17S17966   6.058   6.644   4.157  0.4134 -0.0823  0.1452
  160OSM   H17S17967   6.002   6.555   4.191  1.1374 -0.3279  0.7322
  160OSM   H17T17968   6.030   6.725   4.229  1.2780  0.2224  0.1520
  160OSM   C18S17969   6.208   6.612   4.171  0.0442 -0.2227 -0.2071
  160OSM   H18S17970   6.234   6.618   4.279 -0.4181  0.9178 -0.1532
  160OSM   H18T17971   6.268   6.690   4.119  2.9404 -0.3157  2.6546
  160OSM   H18U17972   6.239   6.513   4.131 -1.8366 -0.7864 -0.3701
  160OSM    C1F17973   5.664   6.103   2.554  0.0893 -0.2278 -0.5863
  160OSM     OF17974   5.649   5.982   2.565 -0.5486  0.4340 -0.1206
  160OSM    C2F17975   5.547   6.195   2.550  0.2712 -0.3583  0.0368
  160OSM    H2F17976   5.450   6.147   2.573 -0.3218 -0.2076 -1.9439
  160OSM    H2G17977   5.538   6.226   2.443 -2.0093 -0.3741  0.1861
  160OSM    C3F17978   5.549   6.319   2.639  0.0971  0.1841  0.0158
  160OSM    H3F17979   5.463   6.389   2.623 -0.2187 -0.5319 -1.5068
  160OSM    H3G17980   5.643   6.372   2.612  0.5560 -0.7155 -0.1922
  160OSM    C4F17981   5.548   6.270   2.785  0.2483  0.1961 -0.0126
  160OSM    H4F17982   5.627   6.193   2.803 -0.0704  0.0821  0.9693
  160OSM    H4G17983   5.446   6.230   2.804 -1.0480  2.7261 -1.1809
  160OSM    C5F17984   5.570   6.391   2.884 -0.4385 -0.0985  0.0867
  160OSM    H5F17985   5.482   6.458   2.869  0.1342  0.9709  1.2669
  160OSM    H5G17986   5.660   6.450   2.855 -0.9917  1.6413  1.6521
  160OSM    C6F17987   5.584   6.344   3.031 -0.4790  0.4586  0.4269
  160OSM    H6F17988   5.675   6.282   3.042 -1.7073 -2.2944 -3.1759
  160OSM    H6G17989   5.494   6.290   3.065 -0.1205 -0.2802  0.2146
  160OSM    C7F17990   5.598   6.462   3.127 -0.4297 -0.1245 -0.3180
  160OSM    H7F17991   5.499   6.504   3.152 -0.6929 -1.1698  0.4637
  160OSM    H7G17992   5.671   6.539   3.094 -0.3007 -0.0676  0.0908
  160OSM    C8F17993   5.655   6.412   3.261  0.4718 -0.5115 -0.1359
  160OSM    H8F17994   5.727   6.329   3.250  2.1370  0.8510 -0.0127
  160OSM    H8G17995   5.566   6.378   3.318 -1.1464  0.3415 -2.0691
  160OSM    C9F17996   5.712   6.518   3.349 -0.2551 -0.0060 -0.2752
  160OSM    H9F17997   5.802   6.562   3.303 -0.2493 -2.3055 -2.6534
  160OSM   C10F17998   5.686   6.566   3.470  0.1543  0.4075  0.1392
  160OSM   H10F17999   5.765   6.624   3.520 -0.1222 -0.5109  1.6806
  160OSM   C11F18000   5.563   6.531   3.555  0.0402  0.5403 -0.0640
  160OSM   H11F18001   5.519   6.442   3.505  3.2132  0.5810 -3.3098
  160OSM   H11G18002   5.478   6.602   3.551  1.1692  1.9074 -0.5438
  160OSM   C12F18003   5.600   6.495   3.704  0.0572 -0.3483 -0.0164
  160OSM   H12F18004   5.695   6.439   3.715  0.1431 -0.3435 -0.6739
  160OSM   H12G18005   5.522   6.436   3.757 -0.6310  1.5991  1.2206
  160OSM   C13F18006   5.607   6.624   3.787 -0.3565 -0.5249 -0.0603
  160OSM   H13F18007   5.513   6.678   3.765 -0.3645 -0.9921 -1.2125
  160OSM   H13G18008   5.687   6.693   3.753 -0.8002  0.2098  0.3628
  160OSM   C14F18009   5.611   6.619   3.941 -0.7348 -0.2888  0.2489
  160OSM   H14F18010   5.686   6.542   3.970  1.0899  0.8495 -1.2258
  160OSM   H14G18011   5.508   6.593   3.972 -0.9834  2.2693  1.8734
  160OSM   C15F18012   5.632   6.752   4.010  0.4472  0.5392 -0.3188
  160OSM   H15F18013   5.563   6.831   3.974 -0.3166  1.3902  2.6991
  160OSM   H15G18014   5.734   6.788   3.986  0.2759  0.1050 -1.8002
  160OSM   C16F18015   5.611   6.736   4.160 -0.4803 -0.3188 -0.7095
  160OSM   H16F18016   5.671   6.651   4.198  0.7910  0.4262 -0.9941
  160OSM   H16G18017   5.505   6.721   4.190 -0.7377 -1.0395 -1.9416
  160OSM   C17F18018   5.660   6.874   4.217  0.8304 -0.3101 -0.0807
  160OSM   H17F18019   5.585   6.950   4.186  1.1640  1.5806  3.2521
  160OSM   H17G18020   5.765   6.900   4.193  1.4176 -3.1641 -0.9937
  160OSM   C18F18021   5.645   6.878   4.379 -0.7859 -0.1428  0.2533
  160OSM   H18F18022   5.657   6.973   4.434  2.4182  0.3956 -1.1628
  160OSM   H18G18023   5.720   6.806   4.417  2.0797  1.7489 -1.4676
  160OSM   H18H18024   5.543   6.847   4.413 -1.6030  0.9123 -1.1167
  161OSM      N18025   1.979   4.205   1.808 -0.2063 -0.3976  0.4405
  161OSM    C1518026   1.989   4.151   1.946 -0.0683  0.0330  0.2392
  161OSM   H15A18027   1.889   4.142   1.987  0.3083 -1.2934  0.9497
  161OSM   H15B18028   2.051   4.210   2.011  0.1878  1.6596 -1.4098
  161OSM   H15C18029   2.038   4.056   1.931 -0.3850  0.1001 -1.4358
  161OSM    C1418030   2.117   4.203   1.748  0.3245 -0.4672  0.4749
  161OSM   H14A18031   2.190   4.260   1.802 -1.7441  2.1777  0.6849
  161OSM   H14B18032   2.126   4.241   1.647  0.3101  0.0338  0.6595
  161OSM   H14C18033   2.161   4.105   1.738  2.4823  0.6091 -1.8079
  161OSM    C1318034   1.884   4.128   1.725 -0.0659  0.6070  0.1008
  161OSM   H13A18035   1.788   4.138   1.772 -0.3635 -0.6836 -0.1973
  161OSM   H13B18036   1.910   4.025   1.705 -0.4582  1.2540 -5.1411
  161OSM   H13C18037   1.880   4.176   1.628 -2.5373  1.3315  0.4892
  161OSM    C1218038   1.929   4.348   1.805  0.6792 -0.3340 -0.4299
  161OSM   H12A18039   1.861   4.358   1.721  0.1875  0.7799  0.0890
  161OSM   H12B18040   2.009   4.418   1.787  0.6949  0.0156  0.9406
  161OSM    C1118041   1.838   4.397   1.925 -0.5913  0.2341  0.0042
  161OSM   H11A18042   1.904   4.420   2.012  0.8774  1.4205 -1.3605
  161OSM   H11B18043   1.781   4.314   1.971  0.8659  0.0567  1.5980
  161OSM      P18044   1.617   4.537   1.903 -0.1527 -0.4484  0.5547
  161OSM    O1318045   1.599   4.667   1.839  0.6188  0.0316  0.0800
  161OSM    O1418046   1.545   4.423   1.844  0.0156  0.1429  0.2416
  161OSM    O1118047   1.584   4.543   2.046 -0.3877  0.1017 -0.4587
  161OSM    O1218048   1.767   4.511   1.893  0.1911  0.4340 -0.4197
  161OSM    C1S18049   1.650   4.627   2.143  0.4518 -0.1641  0.0610
  161OSM    H1S18050   1.603   4.728   2.148  0.9607  0.0071  1.9382
  161OSM    H1T18051   1.758   4.640   2.124  0.4729  1.2986  1.0760
  161OSM     NF18052   1.679   4.682   2.382  0.0695 -0.0681  0.1312
  161OSM    HNF18053   1.773   4.662   2.408 -0.1165 -1.2409 -0.0477
  161OSM    C2S18054   1.632   4.586   2.291 -0.2066  0.1562  0.3733
  161OSM    H2S18055   1.523   4.573   2.311 -0.0942 -3.2627 -0.6113
  161OSM    C3S18056   1.703   4.447   2.318 -0.1749 -0.0552 -0.3551
  161OSM    H3S18057   1.810   4.456   2.288 -0.3311  0.2341 -0.8307
  161OSM     O318058   1.662   4.339   2.234  0.6208 -0.0246  0.4216
  161OSM    HO318059   1.629   4.381   2.154  0.7352  0.4075  0.6004
  161OSM    C4S18060   1.681   4.399   2.462  0.5836 -0.2125  0.7338
  161OSM    H4S18061   1.575   4.409   2.491  0.4245  0.7806 -0.1550
  161OSM    C5S18062   1.782   4.381   2.553  0.2233 -0.4160 -0.3720
  161OSM    H5S18063   1.886   4.403   2.523  0.3580 -2.7093 -1.7492
  161OSM    C6S18064   1.772   4.335   2.694 -0.8700 -0.4170  0.2727
  161OSM    H6S18065   1.791   4.419   2.765  0.9195  0.6078 -1.3142
  161OSM    H6T18066   1.851   4.261   2.716 -1.1658 -1.2033 -1.1819
  161OSM    C7S18067   1.635   4.279   2.727 -0.3778 -0.1194  0.0963
  161OSM    H7S18068   1.615   4.198   2.653  1.7564  1.2682 -2.1657
  161OSM    H7T18069   1.560   4.356   2.703 -1.4185 -1.2879 -0.5327
  161OSM    C8S18070   1.625   4.226   2.871 -0.1288 -0.6422  0.3268
  161OSM    H8S18071   1.692   4.276   2.944  0.3361 -2.3447  1.1177
  161OSM    H8T18072   1.650   4.118   2.868 -1.2352 -0.9580  1.4184
  161OSM    C9S18073   1.485   4.236   2.930 -0.1229 -0.3200 -0.8733
  161OSM    H9S18074   1.425   4.155   2.883 -1.4047  0.2072 -0.1663
  161OSM    H9T18075   1.454   4.339   2.903  0.2177  0.5857  1.9017
  161OSM   C10S18076   1.477   4.227   3.085 -0.5747 -0.2026  0.0451
  161OSM   H10S18077   1.516   4.127   3.115 -0.5484 -0.6960 -1.5582
  161OSM   H10T18078   1.367   4.220   3.104 -0.5844  2.1407  1.1179
  161OSM   C11S18079   1.541   4.346   3.157 -0.1976 -0.2266  0.2221
  161OSM   H11S18080   1.518   4.431   3.090 -0.3242 -0.5367 -0.1315
  161OSM   H11T18081   1.648   4.317   3.163 -0.5325 -2.0500 -1.6560
  161OSM   C12S18082   1.481   4.378   3.293 -0.0855  0.2621 -0.0305
  161OSM   H12S18083   1.385   4.428   3.269 -0.0134  0.6644  0.4889
  161OSM   H12T18084   1.549   4.450   3.345  1.2605 -1.5585  0.8739
  161OSM   C13S18085   1.448   4.267   3.399  0.5493 -0.2296  0.6292
  161OSM   H13S18086   1.546   4.225   3.433  0.7935 -1.9074 -1.9013
  161OSM   H13T18087   1.390   4.186   3.352 -0.2935 -0.3497  1.8360
  161OSM   C14S18088   1.364   4.331   3.513  0.7436 -0.1160  0.5563
  161OSM   H14S18089   1.340   4.243   3.576 -3.0632 -0.9034 -1.6729
  161OSM   H14T18090   1.265   4.373   3.483  0.5812 -0.1152  1.0719
  161OSM   C15S18091   1.431   4.434   3.598 -0.0625 -0.4159  0.2332
  161OSM   H15S18092   1.433   4.531   3.543  3.1968  0.2082  1.1856
  161OSM   H15T18093   1.541   4.418   3.606 -0.2526 -1.5436  0.8026
  161OSM   C16S18094   1.368   4.461   3.728  0.2957  0.4198  0.5937
  161OSM   H16S18095   1.261   4.477   3.706  0.3557  1.5362  1.0325
  161OSM   H16T18096   1.408   4.560   3.762  2.2680 -0.3893  0.7497
  161OSM   C17S18097   1.394   4.365   3.843  0.4279 -0.7280  0.3046
  161OSM   H17S18098   1.500   4.352   3.871  0.5988  1.9052  1.1120
  161OSM   H17T18099   1.350   4.267   3.813  0.5561 -0.1717 -1.9160
  161OSM   C18S18100   1.324   4.425   3.960  0.2867  0.5771 -0.0965
  161OSM   H18S18101   1.216   4.445   3.947  0.3563  1.5215  0.6352
  161OSM   H18T18102   1.367   4.524   3.987 -1.5344  0.9174  1.7558
  161OSM   H18U18103   1.339   4.356   4.045 -0.1068  0.7804  0.1402
  161OSM    C1F18104   1.615   4.794   2.416  0.3114 -0.8673  0.1546
  161OSM     OF18105   1.513   4.838   2.361 -0.5894  0.5893  0.4443
  161OSM    C2F18106   1.675   4.865   2.537  0.0572  0.3114 -0.1376
  161OSM    H2F18107   1.733   4.954   2.505  3.2946 -2.2516 -2.1611
  161OSM    H2G18108   1.758   4.802   2.576  0.8781  1.4708  0.0188
  161OSM    C3F18109   1.572   4.892   2.644 -0.6282 -0.1116 -0.4309
  161OSM    H3F18110   1.502   4.966   2.600  0.1420  1.8265  1.4238
  161OSM    H3G18111   1.622   4.947   2.727 -0.5541 -2.3247  1.0902
  161OSM    C4F18112   1.492   4.775   2.696 -0.3525  0.1527 -0.4505
  161OSM    H4F18113   1.551   4.681   2.707  0.4330  0.7648  0.8983
  161OSM    H4G18114   1.407   4.744   2.631  1.5219 -2.6554 -1.7705
  161OSM    C5F18115   1.433   4.809   2.836 -0.1037  0.2167  0.2471
  161OSM    H5F18116   1.372   4.902   2.831 -2.6505 -1.3901 -0.4632
  161OSM    H5G18117   1.520   4.826   2.903  1.2482  0.6157 -1.5367
  161OSM    C6F18118   1.329   4.713   2.879 -0.3034  1.1027 -0.5186
  161OSM    H6F18119   1.379   4.630   2.934  1.7551  1.5769 -1.5728
  161OSM    H6G18120   1.276   4.667   2.792  1.4792  0.5076 -1.3298
  161OSM    C7F18121   1.212   4.769   2.960 -0.1250 -0.6335 -0.3872
  161OSM    H7F18122   1.142   4.823   2.892  1.5786  2.9387  0.4265
  161OSM    H7G18123   1.241   4.843   3.037 -0.6735 -0.0646 -0.7122
  161OSM    C8F18124   1.128   4.652   3.018  0.0768  0.0133 -0.0574
  161OSM    H8F18125   1.199   4.573   3.051  0.6486  0.3633 -0.4089
  161OSM    H8G18126   1.070   4.616   2.930 -2.0891 -0.2090  1.4011
  161OSM    C9F18127   1.037   4.692   3.134  1.1389  0.4189  0.2188
  161OSM    H9F18128   0.937   4.711   3.093  0.5461 -3.7646 -0.7060
  161OSM   C10F18129   1.062   4.701   3.263 -0.9185 -0.3174 -0.8090
  161OSM   H10F18130   0.985   4.734   3.334 -0.9996 -3.0291  0.5069
  161OSM   C11F18131   1.190   4.670   3.336 -0.5494 -0.5707  0.5685
  161OSM   H11F18132   1.276   4.714   3.283 -0.2010 -1.6707  0.1918
  161OSM   H11G18133   1.198   4.559   3.335 -0.9070 -0.5970 -0.4470
  161OSM   C12F18134   1.190   4.731   3.478 -0.2627  0.1237  0.0354
  161OSM   H12F18135   1.289   4.701   3.517  0.8414  0.0736 -2.6109
  161OSM   H12G18136   1.110   4.683   3.539 -1.2171  0.1192 -1.1639
  161OSM   C13F18137   1.183   4.885   3.480 -0.7311 -0.3630  0.5741
  161OSM   H13F18138   1.103   4.917   3.411 -0.4391 -2.3162 -0.7583
  161OSM   H13G18139   1.276   4.930   3.440  1.0139 -3.7891  0.4311
  161OSM   C14F18140   1.159   4.943   3.622  0.5400 -0.7651 -0.2352
  161OSM   H14F18141   1.059   4.902   3.646 -0.0117  1.5996  1.9376
  161OSM   H14G18142   1.152   5.054   3.618  2.1924 -0.6385 -0.3416
  161OSM   C15F18143   1.266   4.910   3.730 -0.2613  0.8866 -0.7459
  161OSM   H15F18144   1.366   4.935   3.689 -0.6263 -0.3972 -2.5845
  161OSM   H15G18145   1.250   4.801   3.744 -1.3147  1.0523 -0.5802
  161OSM   C16F18146   1.226   4.970   3.865  0.3820 -0.5206  0.4197
  161OSM   H16F18147   1.124   4.932   3.889 -0.2267 -0.3082 -1.5982
  161OSM   H16G18148   1.225   5.080   3.858 -0.0956 -0.6200 -1.5454
  161OSM   C17F18149   1.319   4.938   3.981  0.2899  0.8913 -0.9768
  161OSM   H17F18150   1.417   4.976   3.947  0.8416  1.2039  0.8328
  161OSM   H17G18151   1.326   4.827   3.981 -2.0539  0.6797 -1.8239
  161OSM   C18F18152   1.271   5.003   4.112  0.2479 -0.2884 -0.5664
  161OSM   H18F18153   1.184   4.952   4.156  1.5841 -0.0529  2.5761
  161OSM   H18G18154   1.248   5.110   4.093 -1.2154 -0.6265 -0.8235
  161OSM   H18H18155   1.355   5.004   4.185 -0.4419 -0.3726  0.2333
  162OSM      N18156   2.782   4.203   1.940 -0.3509 -0.0339  0.5469
  162OSM    C1518157   2.786   4.334   1.873 -0.1069  0.3808 -0.4911
  162OSM   H15A18158   2.839   4.329   1.779  1.7697  0.5426  0.5094
  162OSM   H15B18159   2.837   4.409   1.932 -1.9008 -0.1931  1.9588
  162OSM   H15C18160   2.690   4.379   1.853 -0.0147  0.9732  0.3250
  162OSM    C1418161   2.728   4.108   1.831 -0.3617 -0.1897 -0.1104
  162OSM   H14A18162   2.628   4.131   1.799 -0.1291  0.0605 -0.6706
  162OSM   H14B18163   2.720   4.004   1.859  0.3850 -0.5386 -1.1527
  162OSM   H14C18164   2.790   4.116   1.743 -3.0128  1.4223 -1.9675
  162OSM    C1318165   2.917   4.148   1.976 -0.2651 -0.4723 -0.7752
  162OSM   H13A18166   2.988   4.213   2.026 -0.5048 -0.1859 -0.8008
  162OSM   H13B18167   2.965   4.107   1.888 -0.3102 -0.9729 -0.5686
  162OSM   H13C18168   2.908   4.057   2.032  0.5099 -0.1830 -0.1678
  162OSM    C1218169   2.692   4.205   2.062 -0.5827 -0.2794  0.6908
  162OSM   H12A18170   2.605   4.259   2.029  1.4966  2.4327 -0.8053
  162OSM   H12B18171   2.722   4.273   2.140 -0.6689  0.8010 -0.1979
  162OSM    C1118172   2.667   4.063   2.119  0.9183  0.2728  0.5219
  162OSM   H11A18173   2.636   3.996   2.036 -1.5725  3.0252 -0.9687
  162OSM   H11B18174   2.578   4.070   2.186 -0.3955 -1.8605 -0.9104
  162OSM      P18175   2.775   3.898   2.302 -0.2783  0.4875 -0.1687
  162OSM    O1318176   2.664   3.938   2.398 -0.1252 -0.0169 -0.3180
  162OSM    O1418177   2.759   3.766   2.232  0.0320  0.0006  0.7721
  162OSM    O1118178   2.913   3.902   2.376  0.1134 -0.3965  0.4318
  162OSM    O1218179   2.782   4.018   2.193  0.0407 -0.4796 -0.2070
  162OSM    C1S18180   2.928   3.952   2.509 -0.2534  0.3252 -0.8859
  162OSM    H1S18181   2.859   4.035   2.531 -0.9639 -0.7761  1.2781
  162OSM    H1T18182   3.033   3.985   2.527 -0.3820  0.5228 -0.4957
  162OSM     NF18183   2.898   3.877   2.743 -0.4234  0.8219  0.1487
  162OSM    HNF18184   2.983   3.863   2.794  1.5270  1.1229 -2.7776
  162OSM    C2S18185   2.893   3.827   2.604 -0.2787  0.8221  0.0874
  162OSM    H2S18186   2.792   3.788   2.580  0.1542  0.7823 -1.8309
  162OSM    C3S18187   2.987   3.711   2.575 -0.6504  0.4038  0.6212
  162OSM    H3S18188   3.083   3.766   2.584 -1.2604  1.8563 -1.2764
  162OSM     O318189   2.994   3.653   2.446 -0.1555  0.0965 -0.0234
  162OSM    HO318190   2.957   3.720   2.388 -2.5865  0.4069  1.7303
  162OSM    C4S18191   2.970   3.601   2.668 -0.0771  0.5090 -0.4570
  162OSM    H4S18192   2.866   3.570   2.685 -0.0578  0.5377 -0.2872
  162OSM    C5S18193   3.070   3.530   2.736  1.0646 -1.0882  0.4929
  162OSM    H5S18194   3.173   3.568   2.721  0.0603  1.9531  0.6793
  162OSM    C6S18195   3.047   3.404   2.818 -0.6021  0.6668  0.0252
  162OSM    H6S18196   3.145   3.366   2.854 -1.0970 -1.7591 -1.0095
  162OSM    H6T18197   2.998   3.326   2.756 -0.7390  0.4737  0.3716
  162OSM    C7S18198   2.961   3.424   2.943 -0.5175 -0.3910 -0.3864
  162OSM    H7S18199   2.948   3.319   2.976  2.4779 -0.7216  0.0054
  162OSM    H7T18200   2.868   3.463   2.896  0.1394  0.1964 -1.2267
  162OSM    C8S18201   3.013   3.516   3.053 -0.0764 -0.2962  0.0383
  162OSM    H8S18202   3.047   3.612   3.007  0.9794 -0.4553  0.4660
  162OSM    H8T18203   3.099   3.463   3.099  0.4240  0.8901  0.5403
  162OSM    C9S18204   2.906   3.540   3.167 -0.0246  0.4204 -0.4788
  162OSM    H9S18205   2.877   3.434   3.183  2.0954 -0.1203 -0.0293
  162OSM    H9T18206   2.820   3.601   3.130 -0.4399 -0.1267 -0.4329
  162OSM   C10S18207   2.966   3.594   3.299 -0.0059 -1.2448 -0.9830
  162OSM   H10S18208   3.002   3.699   3.292 -0.8879 -0.8833 -0.3335
  162OSM   H10T18209   3.059   3.535   3.315  1.1409  0.3490 -1.4962
  162OSM   C11S18210   2.865   3.602   3.418 -0.2575 -0.5902 -0.2504
  162OSM   H11S18211   2.803   3.510   3.421  0.8307 -1.3087  0.9968
  162OSM   H11T18212   2.795   3.688   3.409  0.3157 -0.0173  0.6953
  162OSM   C12S18213   2.937   3.627   3.548  0.2518  0.3397  0.3199
  162OSM   H12S18214   3.024   3.688   3.516 -0.3588  0.0148 -2.1093
  162OSM   H12T18215   2.973   3.529   3.588  0.2978 -0.4623 -1.5883
  162OSM   C13S18216   2.855   3.688   3.659  0.4178  0.0721  0.2879
  162OSM   H13S18217   2.824   3.791   3.627  0.3915  0.9556  2.9387
  162OSM   H13T18218   2.919   3.693   3.749  2.7183 -0.0117 -1.2593
  162OSM   C14S18219   2.716   3.620   3.690 -0.1705  1.3350 -0.3932
  162OSM   H14S18220   2.738   3.520   3.731 -2.4731  0.9972  0.1499
  162OSM   H14T18221   2.663   3.602   3.593  1.7834  1.2237 -1.4837
  162OSM   C15S18222   2.617   3.693   3.782  1.0307 -0.4518 -0.2628
  162OSM   H15S18223   2.585   3.786   3.731  1.3362  0.5002  1.2046
  162OSM   H15T18224   2.665   3.731   3.875  0.3121  1.3010 -0.5809
  162OSM   C16S18225   2.489   3.617   3.816  0.3098 -0.1707 -0.3551
  162OSM   H16S18226   2.521   3.515   3.843 -0.1448 -0.4499 -0.8562
  162OSM   H16T18227   2.433   3.616   3.720  0.6479  1.4555 -0.6058
  162OSM   C17S18228   2.406   3.675   3.933 -0.1821 -0.4151  0.6472
  162OSM   H17S18229   2.479   3.676   4.016  0.6525 -0.2115 -0.0743
  162OSM   H17T18230   2.331   3.595   3.952 -0.0260 -0.6483  0.2976
  162OSM   C18S18231   2.342   3.814   3.911  0.1565 -0.4471 -0.0278
  162OSM   H18S18232   2.304   3.861   4.004  4.1465  1.1448  0.9954
  162OSM   H18T18233   2.261   3.803   3.836  1.2419  0.7878 -1.4438
  162OSM   H18U18234   2.417   3.882   3.864  0.8289 -1.4776 -0.4936
  162OSM    C1F18235   2.811   3.955   2.807  0.0696  0.0855 -0.0105
  162OSM     OF18236   2.730   4.025   2.752  0.0246 -0.1132  0.1776
  162OSM    C2F18237   2.837   3.972   2.949  0.3995 -0.1212  0.3467
  162OSM    H2F18238   2.932   4.026   2.972  1.2385 -2.1231  1.8781
  162OSM    H2G18239   2.842   3.872   2.996  0.7952 -0.7509 -1.0048
  162OSM    C3F18240   2.723   4.050   3.034 -0.8218 -0.3791 -0.2498
  162OSM    H3F18241   2.623   4.003   3.019 -1.6192  1.4595 -0.9917
  162OSM    H3G18242   2.707   4.158   3.010 -1.5325  0.2128  2.4557
  162OSM    C4F18243   2.766   4.054   3.180  0.0152  0.6062 -0.5225
  162OSM    H4F18244   2.792   4.161   3.193 -1.2415  1.5418 -4.3183
  162OSM    H4G18245   2.859   3.997   3.200 -0.9859 -1.1402 -0.6757
  162OSM    C5F18246   2.659   4.022   3.280  0.8069  0.3582  0.2642
  162OSM    H5F18247   2.673   3.925   3.332 -0.0440  1.4045  2.5940
  162OSM    H5G18248   2.561   4.026   3.228  1.7657  2.5448 -1.5260
  162OSM    C6F18249   2.641   4.125   3.392  1.1169  0.1901  0.0175
  162OSM    H6F18250   2.540   4.106   3.433 -0.0636  1.3790 -2.1705
  162OSM    H6G18251   2.636   4.222   3.337  3.6512  0.3557 -0.0197
  162OSM    C7F18252   2.744   4.129   3.500  0.1283 -1.0060 -0.1412
  162OSM    H7F18253   2.836   4.162   3.448 -1.2074  0.0638 -1.9249
  162OSM    H7G18254   2.759   4.028   3.545 -2.3813 -0.8275  1.2667
  162OSM    C8F18255   2.687   4.221   3.604  0.3943  0.5848 -0.1564
  162OSM    H8F18256   2.578   4.204   3.616 -0.0695  1.5121 -2.4638
  162OSM    H8G18257   2.674   4.319   3.554 -2.1875 -0.4334 -1.6771
  162OSM    C9F18258   2.773   4.228   3.728 -0.3201 -0.7958 -0.3523
  162OSM    H9F18259   2.865   4.284   3.709 -0.5940 -0.5596 -1.0023
  162OSM   C10F18260   2.741   4.172   3.844 -0.0488  0.3828 -0.5079
  162OSM   H10F18261   2.806   4.193   3.930 -0.9355 -2.1019  0.8437
  162OSM   C11F18262   2.622   4.083   3.866 -0.6225  0.2210  0.5778
  162OSM   H11F18263   2.640   4.007   3.945  1.0993  1.3462  1.3339
  162OSM   H11G18264   2.594   4.036   3.769  1.8622  0.2371 -0.2348
  162OSM   C12F18265   2.504   4.168   3.921  0.3700 -0.4262 -0.9214
  162OSM   H12F18266   2.432   4.104   3.976  1.0304 -0.0928  0.3722
  162OSM   H12G18267   2.457   4.224   3.836 -0.5713  0.8983  0.4177
  162OSM   C13F18268   2.540   4.271   4.035  0.4700 -0.3091  0.1272
  162OSM   H13F18269   2.445   4.308   4.078  1.5072  0.5290  1.8248
  162OSM   H13G18270   2.607   4.351   3.998  1.9590 -1.8528 -0.6993
  162OSM   C14F18271   2.604   4.206   4.158 -0.4851  0.3132 -0.6255
  162OSM   H14F18272   2.703   4.170   4.123  0.0562  1.0317  0.1304
  162OSM   H14G18273   2.554   4.115   4.196 -0.8532  1.1658  1.0334
  162OSM   C15F18274   2.642   4.293   4.275  0.0000  0.6817 -0.0094
  162OSM   H15F18275   2.708   4.379   4.249  1.5819 -0.7787 -0.9880
  162OSM   H15G18276   2.699   4.221   4.338  0.4934  0.1494 -1.0308
  162OSM   C16F18277   2.523   4.347   4.351 -0.0557  0.3567  0.4645
  162OSM   H16F18278   2.454   4.266   4.382 -1.7978  2.2558  1.8059
  162OSM   H16G18279   2.469   4.419   4.285  0.8445  2.3779  1.8138
  162OSM   C17F18280   2.556   4.424   4.477  0.0510 -0.1663 -0.4766
  162OSM   H17F18281   2.617   4.505   4.432 -0.0072 -1.4202 -2.9949
  162OSM   H17G18282   2.624   4.371   4.547  0.7628 -0.8986 -1.6875
  162OSM   C18F18283   2.442   4.486   4.562 -0.3944  0.0806 -0.3465
  162OSM   H18F18284   2.471   4.565   4.635 -3.4725 -1.1106  2.4108
  162OSM   H18G18285   2.385   4.404   4.611 -0.6286  0.3670 -0.1417
  162OSM   H18H18286   2.369   4.538   4.496 -0.5934  0.7638  0.3975
  163OSM      N18287   6.608   4.196   1.812  0.4037 -0.5840  0.1486
  163OSM    C1518288   6.739   4.247   1.772  0.2368 -0.0214  0.0453
  163OSM   H15A18289   6.732   4.300   1.678 -2.1220  0.7005  0.5689
  163OSM   H15B18290   6.811   4.168   1.764 -0.8306 -1.1715  1.3103
  163OSM   H15C18291   6.782   4.313   1.846 -2.4100  2.2857 -0.3036
  163OSM    C1418292   6.509   4.302   1.833  0.1011 -0.6139 -0.5349
  163OSM   H14A18293   6.551   4.386   1.886 -1.4801  1.7371 -2.7862
  163OSM   H14B18294   6.410   4.288   1.874  0.9749  0.3430  2.1474
  163OSM   H14C18295   6.493   4.347   1.736  2.4361 -0.6478 -0.9962
  163OSM    C1318296   6.544   4.112   1.696  0.2297  0.2232 -0.3840
  163OSM   H13A18297   6.522   4.183   1.618  1.7889  1.0720 -0.0785
  163OSM   H13B18298   6.459   4.058   1.735  0.7872 -1.0375 -0.8464
  163OSM   H13C18299   6.614   4.039   1.658  1.4873  1.3727 -0.3634
  163OSM    C1218300   6.619   4.100   1.932  0.0661  0.2079 -0.5735
  163OSM   H12A18301   6.670   4.011   1.898 -1.4473 -0.7102 -0.5086
  163OSM   H12B18302   6.524   4.062   1.966  1.3682 -1.0025  2.0715
  163OSM    C1118303   6.686   4.146   2.067 -0.1207 -0.0456  0.2959
  163OSM   H11A18304   6.645   4.099   2.159  0.0149 -1.0652 -0.1460
  163OSM   H11B18305   6.643   4.248   2.069 -2.6557 -1.0524  1.0186
  163OSM      P18306   6.913   4.038   2.058 -0.3916 -0.0789  0.6402
  163OSM    O1318307   6.837   3.927   1.996  0.5630  0.2647 -0.4902
  163OSM    O1418308   7.041   4.076   1.992  0.2864 -0.2990 -0.6963
  163OSM    O1118309   6.935   4.000   2.205  0.1182 -0.4050  0.0162
  163OSM    O1218310   6.830   4.167   2.054 -0.1201 -0.8869  0.2089
  163OSM    C1S18311   6.930   4.099   2.314 -0.3319 -0.0788 -0.1108
  163OSM    H1S18312   6.881   4.196   2.288  0.6982  0.3016 -0.6948
  163OSM    H1T18313   7.034   4.131   2.336 -1.2426  2.3757  1.0719
  163OSM     NF18314   6.873   4.152   2.549 -0.5489 -0.9271 -0.1193
  163OSM    HNF18315   6.949   4.141   2.612 -1.2072 -0.2143  0.8222
  163OSM    C2S18316   6.865   4.045   2.447  0.5564  0.0001  0.8690
  163OSM    H2S18317   6.757   4.024   2.428  1.1783 -3.9199  0.7510
  163OSM    C3S18318   6.914   3.900   2.494 -0.4714 -0.0049  0.5702
  163OSM    H3S18319   7.024   3.894   2.509 -0.3034  0.5227 -0.4044
  163OSM     O318320   6.892   3.790   2.397  0.0108  0.3903 -0.3751
  163OSM    HO318321   6.878   3.837   2.315 -3.4603  0.2597  0.0146
  163OSM    C4S18322   6.854   3.868   2.622 -0.4164  0.2224 -0.2826
  163OSM    H4S18323   6.928   3.892   2.700 -2.1991  2.1083  0.9223
  163OSM    C5S18324   6.738   3.812   2.660  0.1758 -0.1758  0.1100
  163OSM    H5S18325   6.668   3.776   2.584  0.3448  1.8911 -1.0975
  163OSM    C6S18326   6.687   3.791   2.803  0.5523 -0.3645 -0.1242
  163OSM    H6S18327   6.671   3.682   2.817 -0.7962 -0.1449  0.2159
  163OSM    H6T18328   6.592   3.846   2.820  2.1964  2.2384  1.3518
  163OSM    C7S18329   6.791   3.833   2.903  0.1599 -0.2326 -0.0239
  163OSM    H7S18330   6.817   3.941   2.897  1.9894 -0.6942 -1.4487
  163OSM    H7T18331   6.890   3.782   2.896  1.5965  2.3019  0.2982
  163OSM    C8S18332   6.730   3.820   3.047  0.6433 -0.4706  0.2399
  163OSM    H8S18333   6.716   3.712   3.070 -0.1934 -0.5671 -0.6663
  163OSM    H8T18334   6.627   3.861   3.046  0.4367 -0.9919 -0.1224
  163OSM    C9S18335   6.814   3.891   3.155  0.5181  0.6274  0.4713
  163OSM    H9S18336   6.844   3.994   3.125  2.8982  0.5366  2.2322
  163OSM    H9T18337   6.912   3.840   3.159  1.3172  2.1385  1.0957
  163OSM   C10S18338   6.751   3.889   3.299 -0.5155 -0.5661 -0.4516
  163OSM   H10S18339   6.717   3.790   3.338 -0.8574 -0.0573  0.5893
  163OSM   H10T18340   6.657   3.948   3.302 -0.2447 -0.1212 -0.8021
  163OSM   C11S18341   6.844   3.959   3.396  0.0424 -0.3638 -0.8149
  163OSM   H11S18342   6.859   4.066   3.370 -0.9258  0.1792  0.7047
  163OSM   H11T18343   6.944   3.911   3.395  0.6947  0.7350  1.8623
  163OSM   C12S18344   6.795   3.942   3.542  0.0748  0.1433 -0.1606
  163OSM   H12S18345   6.877   3.962   3.614  1.8136  0.1874 -2.0566
  163OSM   H12T18346   6.776   3.834   3.563  0.0592  0.0358 -0.7133
  163OSM   C13S18347   6.663   4.023   3.583 -0.2961 -0.5135  0.6158
  163OSM   H13S18348   6.656   4.013   3.693 -1.2985  1.8440  0.8067
  163OSM   H13T18349   6.580   3.968   3.534  1.2495 -0.3597 -2.4367
  163OSM   C14S18350   6.651   4.170   3.561 -0.0764  0.2289 -0.6240
  163OSM   H14S18351   6.543   4.198   3.563 -0.7805 -2.1592 -1.2464
  163OSM   H14T18352   6.675   4.204   3.458 -0.4756  1.4299 -0.3426
  163OSM   C15S18353   6.745   4.261   3.655 -0.0405 -0.1008  0.1258
  163OSM   H15S18354   6.848   4.254   3.615 -0.5328  0.3933 -1.2646
  163OSM   H15T18355   6.762   4.214   3.755 -0.1273  1.1167  0.7370
  163OSM   C16S18356   6.698   4.404   3.657  0.1733  0.6563 -0.4309
  163OSM   H16S18357   6.593   4.400   3.694  1.0296  1.4586  2.3331
  163OSM   H16T18358   6.678   4.446   3.556 -1.1433 -2.1344 -1.4548
  163OSM   C17S18359   6.787   4.500   3.730 -0.0130  0.1426  0.0649
  163OSM   H17S18360   6.745   4.603   3.731  1.9032  1.0445  3.3193
  163OSM   H17T18361   6.886   4.498   3.680 -0.4050 -3.7159 -0.8594
  163OSM   C18S18362   6.818   4.465   3.880 -0.9016  0.6408 -0.4885
  163OSM   H18S18363   6.871   4.550   3.929 -0.8830  0.1347  0.3854
  163OSM   H18T18364   6.882   4.375   3.892  1.6671  2.3281 -0.4883
  163OSM   H18U18365   6.721   4.458   3.933 -0.5809  0.4476  0.0831
  163OSM    C1F18366   6.803   4.260   2.543  0.4580  0.0802  0.8799
  163OSM     OF18367   6.719   4.268   2.456  0.6473 -0.3819 -0.1957
  163OSM    C2F18368   6.835   4.372   2.644 -0.3306 -0.4861 -0.4197
  163OSM    H2F18369   6.930   4.417   2.606 -1.0013 -0.8107 -2.6581
  163OSM    H2G18370   6.841   4.316   2.739 -2.9163 -1.7745 -0.9374
  163OSM    C3F18371   6.729   4.479   2.631 -0.1559 -0.0509  0.2539
  163OSM    H3F18372   6.627   4.444   2.658  0.4494 -1.2370  1.0996
  163OSM    H3G18373   6.723   4.522   2.529  0.0967  0.3198  0.3890
  163OSM    C4F18374   6.757   4.607   2.723 -0.2448  0.0819  0.2734
  163OSM    H4F18375   6.707   4.699   2.684  0.7995  0.1367 -0.9820
  163OSM    H4G18376   6.864   4.635   2.731 -0.4741  1.4107 -0.9199
  163OSM    C5F18377   6.711   4.573   2.863 -0.1727 -0.0412  0.1545
  163OSM    H5F18378   6.726   4.469   2.900  0.9991 -0.1660 -0.5922
  163OSM    H5G18379   6.602   4.589   2.863 -0.1863 -0.0839 -0.6463
  163OSM    C6F18380   6.767   4.663   2.976 -0.6661  0.2004  0.0170
  163OSM    H6F18381   6.760   4.770   2.949  0.4944  0.1470 -0.5715
  163OSM    H6G18382   6.876   4.641   2.983 -0.2989  2.0401  0.5481
  163OSM    C7F18383   6.706   4.645   3.114 -0.0114 -0.3368  0.0495
  163OSM    H7F18384   6.659   4.544   3.109 -1.2046  0.2274 -0.3363
  163OSM    H7G18385   6.634   4.725   3.138  0.6119  0.2987 -0.1686
  163OSM    C8F18386   6.807   4.633   3.225  0.3692 -0.3464 -0.0309
  163OSM    H8F18387   6.872   4.722   3.212  2.2500 -1.9352 -2.5060
  163OSM    H8G18388   6.873   4.546   3.202  1.0176  0.0845  0.1787
  163OSM    C9F18389   6.750   4.615   3.363  0.5679  0.5697 -0.7911
  163OSM    H9F18390   6.786   4.524   3.413 -3.0485 -0.1499  0.8199
  163OSM   C10F18391   6.677   4.712   3.429 -0.5120  0.7499  0.0714
  163OSM   H10F18392   6.654   4.698   3.535  1.6637 -1.3166  0.3440
  163OSM   C11F18393   6.653   4.845   3.369  0.2587  0.6566  0.1252
  163OSM   H11F18394   6.557   4.838   3.313  0.7642  0.2518 -0.7143
  163OSM   H11G18395   6.716   4.879   3.283 -0.2159  0.1769 -0.4242
  163OSM   C12F18396   6.643   4.946   3.474 -0.0073 -0.1778 -0.2413
  163OSM   H12F18397   6.544   4.932   3.523  0.3641 -3.6698 -0.2192
  163OSM   H12G18398   6.629   5.036   3.411  0.1815 -0.1237 -0.2060
  163OSM   C13F18399   6.752   4.968   3.582 -1.0700 -0.1237  0.4270
  163OSM   H13F18400   6.837   5.032   3.549 -0.6792 -1.0722 -0.4801
  163OSM   H13G18401   6.799   4.870   3.605  1.6366  1.5595  2.6931
  163OSM   C14F18402   6.692   5.042   3.707  0.0529 -0.3950  0.4563
  163OSM   H14F18403   6.605   4.988   3.749  0.0118 -1.0432 -0.4274
  163OSM   H14G18404   6.642   5.135   3.673 -1.0245 -1.0480  0.2270
  163OSM   C15F18405   6.789   5.065   3.820 -0.5599 -0.0925  0.5806
  163OSM   H15F18406   6.831   4.968   3.856 -1.5814 -0.4551  0.8235
  163OSM   H15G18407   6.735   5.098   3.911 -1.0544  3.0065 -0.7318
  163OSM   C16F18408   6.902   5.170   3.783  0.4403  0.3744 -0.4574
  163OSM   H16F18409   6.846   5.245   3.722 -1.6514 -0.9759 -0.3069
  163OSM   H16G18410   6.976   5.128   3.711  1.2229 -1.2682  1.2367
  163OSM   C17F18411   6.965   5.243   3.895 -0.3788 -0.1972  0.3110
  163OSM   H17F18412   6.880   5.289   3.949 -0.2327  0.1928  0.2144
  163OSM   H17G18413   7.019   5.335   3.864 -2.1957  1.4930  1.8332
  163OSM   C18F18414   7.050   5.149   3.984 -0.0712  0.2076  0.0381
  163OSM   H18F18415   6.972   5.074   4.013 -2.4332  0.7361 -4.0623
  163OSM   H18G18416   7.101   5.205   4.065  0.2015 -1.4076  1.0367
  163OSM   H18H18417   7.132   5.096   3.931  1.7305  0.1545  2.7118
  164OSM      N18418   4.302   2.465   1.742 -0.5816 -0.2724 -0.0759
  164OSM    C1518419   4.414   2.516   1.669  0.2692 -0.4774 -0.4155
  164OSM   H15A18420   4.461   2.458   1.590  0.8163  0.1445 -0.5560
  164OSM   H15B18421   4.498   2.528   1.735  1.6426  0.2765 -2.1942
  164OSM   H15C18422   4.391   2.612   1.625 -0.8982 -0.1429  0.8813
  164OSM    C1418423   4.178   2.500   1.667  0.2205  0.3995 -0.0255
  164OSM   H14A18424   4.093   2.440   1.698  0.5909  0.7749  1.8872
  164OSM   H14B18425   4.175   2.477   1.562 -1.0141 -0.9099  0.2678
  164OSM   H14C18426   4.144   2.601   1.681  2.6858  1.6223 -2.0908
  164OSM    C1318427   4.330   2.315   1.735  0.1165 -0.4329  0.1212
  164OSM   H13A18428   4.234   2.271   1.757  0.8900 -1.0216  2.6264
  164OSM   H13B18429   4.405   2.288   1.808 -0.1711 -0.2754  0.4853
  164OSM   H13C18430   4.366   2.288   1.637 -1.9075  1.6025 -1.2850
  164OSM    C1218431   4.293   2.519   1.884 -0.0349 -0.4548  0.8375
  164OSM   H12A18432   4.216   2.466   1.937 -1.6845  1.7977  0.8186
  164OSM   H12B18433   4.271   2.625   1.882  0.4607 -0.3297 -1.9304
  164OSM    C1118434   4.425   2.509   1.961 -0.6517 -0.2248 -0.2834
  164OSM   H11A18435   4.467   2.407   1.952 -0.9167 -0.3798  0.1812
  164OSM   H11B18436   4.409   2.532   2.069 -0.6317 -0.7396 -0.1704
  164OSM      P18437   4.519   2.749   1.970  0.0070 -0.4582  0.0641
  164OSM    O1318438   4.643   2.814   1.918 -0.2271 -0.0949 -0.5810
  164OSM    O1418439   4.385   2.816   1.942 -0.3241  0.7237 -0.1146
  164OSM    O1118440   4.526   2.741   2.121  0.0250  0.8551 -0.0628
  164OSM    O1218441   4.516   2.603   1.910  0.4115 -0.2612  0.2839
  164OSM    C1S18442   4.632   2.681   2.193 -0.3122  0.4773  0.0459
  164OSM    H1S18443   4.730   2.730   2.175 -1.1674  1.9584 -0.8824
  164OSM    H1T18444   4.643   2.573   2.170  0.1133  1.1698 -3.7591
  164OSM     NF18445   4.737   2.701   2.419 -0.5382  0.4800 -0.0178
  164OSM    HNF18446   4.779   2.613   2.435  0.8317  1.1623  0.3277
  164OSM    C2S18447   4.616   2.692   2.350  0.0695  0.4457  0.0911
  164OSM    H2S18448   4.576   2.796   2.347  2.9309  1.6368 -3.3492
  164OSM    C3S18449   4.521   2.579   2.395  0.2523  0.3686  0.3465
  164OSM    H3S18450   4.573   2.482   2.385  0.4096  0.5530 -0.7565
  164OSM     O318451   4.401   2.567   2.318 -0.2220  0.3272  0.0449
  164OSM    HO318452   4.410   2.634   2.250 -0.8657  2.1748  1.6948
  164OSM    C4S18453   4.491   2.610   2.535  0.3728  0.8728 -0.2159
  164OSM    H4S18454   4.438   2.707   2.542  1.2962  1.2936  1.2521
  164OSM    C5S18455   4.529   2.551   2.649 -0.2873 -0.0652 -0.6204
  164OSM    H5S18456   4.593   2.462   2.653  0.8326  0.7583  1.5886
  164OSM    C6S18457   4.485   2.597   2.787 -0.3964 -0.2474  1.1969
  164OSM    H6S18458   4.436   2.697   2.784  0.9403  0.4658  2.0673
  164OSM    H6T18459   4.582   2.607   2.840  0.0236 -1.0153  0.6005
  164OSM    C7S18460   4.394   2.489   2.851 -0.5535  0.7050 -0.3917
  164OSM    H7S18461   4.448   2.393   2.837  1.8195  1.9303 -0.3340
  164OSM    H7T18462   4.303   2.485   2.788 -1.3336  0.1512  0.7425
  164OSM    C8S18463   4.361   2.520   2.994 -0.4949  0.1150  0.0188
  164OSM    H8S18464   4.301   2.434   3.030 -3.8020  2.8595  1.6267
  164OSM    H8T18465   4.301   2.611   3.015  0.1461  0.3358  0.9568
  164OSM    C9S18466   4.484   2.516   3.096  0.0455  0.1349  0.1401
  164OSM    H9S18467   4.555   2.598   3.070  1.3665 -1.3321 -1.1238
  164OSM    H9T18468   4.540   2.422   3.079  1.7151  1.3594 -1.5912
  164OSM   C10S18469   4.433   2.531   3.245  0.6219  0.6884  0.3925
  164OSM   H10S18470   4.342   2.467   3.250 -0.7694  2.4580 -0.7005
  164OSM   H10T18471   4.398   2.636   3.254 -0.2613  0.6316 -1.7830
  164OSM   C11S18472   4.544   2.495   3.353  0.4061 -0.3128  0.2875
  164OSM   H11S18473   4.629   2.558   3.321  0.7541 -1.3958 -1.0308
  164OSM   H11T18474   4.580   2.390   3.350  1.4459  0.0294  0.3046
  164OSM   C12S18475   4.492   2.528   3.491  0.2800  0.2243 -0.0736
  164OSM   H12S18476   4.399   2.473   3.516 -0.2825  1.4122  0.5564
  164OSM   H12T18477   4.451   2.632   3.493 -3.0190 -0.9756  1.1996
  164OSM   C13S18478   4.594   2.510   3.601 -0.3315  0.0831  0.4165
  164OSM   H13S18479   4.678   2.581   3.590  0.4876 -0.8392  0.5039
  164OSM   H13T18480   4.649   2.413   3.597  0.1803  0.3424  0.9975
  164OSM   C14S18481   4.541   2.539   3.741 -0.3914  0.5481  0.3507
  164OSM   H14S18482   4.461   2.467   3.765 -0.4314 -0.1027 -1.5519
  164OSM   H14T18483   4.494   2.640   3.743 -0.7133  0.3853  1.2042
  164OSM   C15S18484   4.632   2.517   3.860  0.1558 -0.2117  0.1141
  164OSM   H15S18485   4.731   2.566   3.843 -0.2437  0.7323  0.4580
  164OSM   H15T18486   4.652   2.408   3.867 -1.3659 -0.4282  1.5092
  164OSM   C16S18487   4.572   2.576   3.985  0.4186  0.1899  0.4406
  164OSM   H16S18488   4.482   2.511   3.988  1.7854 -2.0462 -2.2368
  164OSM   H16T18489   4.532   2.674   3.951  0.6112 -0.4826 -1.9317
  164OSM   C17S18490   4.652   2.556   4.109  0.0384 -0.3629  0.8119
  164OSM   H17S18491   4.746   2.615   4.103 -0.4589  0.3123 -0.9141
  164OSM   H17T18492   4.681   2.449   4.116 -2.9901 -1.4011 -0.8716
  164OSM   C18S18493   4.580   2.585   4.244  0.2556  0.1474  0.3885
  164OSM   H18S18494   4.653   2.589   4.327  0.0503  1.2153  0.5254
  164OSM   H18T18495   4.510   2.498   4.252  1.9963 -1.3043  0.5608
  164OSM   H18U18496   4.526   2.681   4.232  0.1444 -0.0187 -0.5588
  164OSM    C1F18497   4.817   2.809   2.425 -0.1929 -0.0705 -0.3951
  164OSM     OF18498   4.789   2.911   2.361 -0.1341 -0.3204 -0.0488
  164OSM    C2F18499   4.937   2.802   2.520 -0.3224 -0.6352  0.0370
  164OSM    H2F18500   5.028   2.795   2.457  0.0090  2.9451 -0.0720
  164OSM    H2G18501   4.920   2.716   2.588  0.4894 -0.4144  0.5343
  164OSM    C3F18502   4.957   2.932   2.604  0.2706  0.1194 -0.9989
  164OSM    H3F18503   4.953   3.017   2.532  0.7488 -0.2140 -1.4313
  164OSM    H3G18504   5.061   2.931   2.642 -0.9826  0.5700  2.9248
  164OSM    C4F18505   4.863   2.941   2.719 -0.7053 -0.3632  0.2300
  164OSM    H4F18506   4.858   2.848   2.780  1.3182 -0.9269 -0.3729
  164OSM    H4G18507   4.760   2.956   2.680 -0.5559  0.1964  0.0360
  164OSM    C5F18508   4.887   3.067   2.806  0.0590  0.2661  0.2055
  164OSM    H5F18509   4.890   3.157   2.741 -1.2921 -1.2848 -2.1557
  164OSM    H5G18510   4.985   3.049   2.854 -0.3806 -3.2080  0.0231
  164OSM    C6F18511   4.773   3.088   2.905  0.4867  0.5559 -0.1237
  164OSM    H6F18512   4.762   3.000   2.971  1.0152  0.6024  0.0299
  164OSM    H6G18513   4.677   3.085   2.848 -0.0617 -1.7742  0.8121
  164OSM    C7F18514   4.776   3.214   2.992 -0.1795  0.2199 -0.2389
  164OSM    H7F18515   4.807   3.297   2.925  0.5356 -0.9599 -1.4286
  164OSM    H7G18516   4.854   3.207   3.070 -0.9763 -1.7261  0.4535
  164OSM    C8F18517   4.646   3.263   3.045  0.5148  0.0080  0.6471
  164OSM    H8F18518   4.574   3.280   2.963 -0.4407  1.5062  1.7675
  164OSM    H8G18519   4.650   3.366   3.085  1.1305  0.4224 -0.4428
  164OSM    C9F18520   4.588   3.163   3.143 -0.5878  0.0447  0.5693
  164OSM    H9F18521   4.556   3.069   3.096  1.2953 -0.9635  1.2078
  164OSM   C10F18522   4.600   3.173   3.277  0.3649 -0.0309 -0.1090
  164OSM   H10F18523   4.558   3.093   3.340 -0.3923 -1.1471 -1.9493
  164OSM   C11F18524   4.649   3.297   3.352 -0.1523 -0.2690  0.6006
  164OSM   H11F18525   4.553   3.340   3.387 -1.4220 -2.0008 -0.5333
  164OSM   H11G18526   4.687   3.369   3.276 -0.4038 -1.3167 -0.5713
  164OSM   C12F18527   4.744   3.274   3.471  0.6727  0.6052 -0.2507
  164OSM   H12F18528   4.840   3.249   3.421  0.0106 -1.3731 -0.5801
  164OSM   H12G18529   4.707   3.196   3.541  0.1894 -0.9038 -2.1251
  164OSM   C13F18530   4.766   3.395   3.562  0.2261 -0.5088 -0.2510
  164OSM   H13F18531   4.660   3.420   3.587 -0.4015 -2.9570 -0.2298
  164OSM   H13G18532   4.822   3.477   3.512  1.5029  0.4761  2.5736
  164OSM   C14F18533   4.828   3.363   3.704  0.1738 -0.5289  0.1636
  164OSM   H14F18534   4.934   3.333   3.695  0.3363  0.0056  0.2804
  164OSM   H14G18535   4.782   3.278   3.759 -1.8246 -0.1930 -0.8819
  164OSM   C15F18536   4.838   3.479   3.804  0.4635 -0.0093 -0.6186
  164OSM   H15F18537   4.732   3.499   3.831  0.9160  0.3376  1.0035
  164OSM   H15G18538   4.884   3.568   3.756 -0.3409  0.3460 -0.7621
  164OSM   C16F18539   4.917   3.433   3.923 -0.4766  0.0855 -0.5457
  164OSM   H16F18540   5.010   3.381   3.892 -0.5432 -0.0300 -0.5511
  164OSM   H16G18541   4.859   3.358   3.981 -1.6123  0.4012 -1.2478
  164OSM   C17F18542   4.960   3.547   4.006 -0.1651  0.3654  0.1572
  164OSM   H17F18543   4.867   3.591   4.046  0.0839  0.4068  0.7098
  164OSM   H17G18544   5.005   3.633   3.953 -2.0182  0.5160 -1.2394
  164OSM   C18F18545   5.063   3.503   4.110 -0.5689 -0.9395 -0.7369
  164OSM   H18F18546   5.021   3.413   4.161  1.4819 -1.1270  0.7521
  164OSM   H18G18547   5.085   3.592   4.173 -2.7826 -0.2738 -0.8175
  164OSM   H18H18548   5.160   3.483   4.061  0.9566 -0.1104  1.7671
  165SAPS     N18549   5.783   1.314   6.520  0.0410  0.1427 -0.1476
  165SAPS   HN118550   5.698   1.333   6.462  1.0684 -0.9760 -2.1420
  165SAPS   HN218551   5.843   1.399   6.511  1.7305 -1.0654 -0.6452
  165SAPS   HN318552   5.821   1.223   6.489 -0.6343  0.2408 -1.3353
  165SAPS   C1218553   5.734   1.287   6.665 -0.5689 -0.1324  0.3562
  165SAPS  H12A18554   5.820   1.268   6.727 -1.2431 -0.5814  1.1762
  165SAPS   C1318555   5.650   1.391   6.733 -0.0195 -0.2177 -0.7829
  165SAPS  O13A18556   5.596   1.486   6.670  0.1999 -0.4817  0.4718
  165SAPS  O13B18557   5.642   1.386   6.856  0.0276 -0.6856  0.4312
  165SAPS   C1118558   5.660   1.148   6.670 -1.2144  0.2288  1.2504
  165SAPS  H11A18559   5.567   1.149   6.610  0.4833  2.1181 -1.5619
  165SAPS  H11B18560   5.641   1.124   6.777 -2.1533  1.0035  1.2740
  165SAPS     P18561   5.743   0.900   6.637 -0.0520 -0.1673 -0.1976
  165SAPS   O1318562   5.771   0.878   6.778 -0.0838 -0.4913  0.4965
  165SAPS   O1418563   5.610   0.853   6.596  0.0306  0.5175  0.2680
  165SAPS   O1218564   5.751   1.050   6.609 -0.2346 -0.1067 -1.1620
  165SAPS   O1118565   5.853   0.839   6.543  0.2226 -0.8720 -0.1189
  165SAPS    C118566   5.848   0.718   6.478  0.2178  0.5330 -0.6116
  165SAPS    HA18567   5.849   0.633   6.548 -0.7438  1.1377  0.1550
  165SAPS    HB18568   5.762   0.709   6.408  0.4154  0.4280 -0.8464
  165SAPS    C218569   5.985   0.701   6.392  0.4019 -0.9646 -0.1522
  165SAPS    HS18570   6.059   0.712   6.474 -1.1453  0.8015  1.0993
  165SAPS   O2118571   6.000   0.807   6.291 -0.3770  0.0408 -0.2123
  165SAPS   C2118572   6.130   0.847   6.276 -0.5139 -0.5931 -0.2187
  165SAPS   O2218573   6.222   0.807   6.339 -0.8830 -0.1947  0.2068
  165SAPS   C2218574   6.138   0.932   6.151  0.8651 -0.0877  0.1927
  165SAPS   H2R18575   6.048   0.996   6.162  0.2199 -0.8706 -0.4481
  165SAPS   H2S18576   6.228   0.995   6.139  1.1182  0.0182  2.3009
  165SAPS    C318577   6.012   0.560   6.329  0.1368 -0.1715  0.0440
  165SAPS    HX18578   5.955   0.554   6.234  0.5628 -1.9114 -0.1395
  165SAPS    HY18579   5.970   0.476   6.388  2.4189 -1.6486 -0.3446
  165SAPS   O3118580   6.146   0.544   6.279 -0.8490 -0.4836 -0.0893
  165SAPS   C3118581   6.224   0.496   6.377 -0.6027 -0.1617 -0.2714
  165SAPS   O3218582   6.199   0.485   6.494  0.4952  0.0172  0.3684
  165SAPS   C3218583   6.358   0.448   6.312  0.2959  0.4559 -0.1895
  165SAPS   H2X18584   6.359   0.465   6.202 -1.5451  0.0598 -0.2877
  165SAPS   H2Y18585   6.353   0.341   6.339 -1.9981  0.0083 -2.0613
  165SAPS   C2318586   6.098   0.863   6.021  0.1302 -0.0934 -0.4415
  165SAPS   H3R18587   6.105   0.912   5.921  0.0444 -0.4210 -0.6092
  165SAPS   H3S18588   6.005   0.803   6.035  0.4701 -0.6079 -0.3856
  165SAPS   C2418589   6.201   0.749   5.984  0.2493  0.9621  0.7929
  165SAPS   H4R18590   6.166   0.708   5.886 -0.1322  0.6128  1.0694
  165SAPS   H4S18591   6.218   0.673   6.063  0.2683 -1.8219 -1.6985
  165SAPS   C2518592   6.338   0.806   5.956  0.1492 -0.8439 -0.0784
  165SAPS   H5R18593   6.363   0.883   6.031  0.7823  1.1035 -2.1794
  165SAPS   C2618594   6.424   0.791   5.853 -0.3439 -0.6075 -0.5168
  165SAPS   H6R18595   6.520   0.844   5.848 -1.4100  1.3419 -1.6721
  165SAPS   C2718596   6.394   0.704   5.732 -0.3714 -0.7756  0.3826
  165SAPS   H7R18597   6.465   0.741   5.656 -1.0044 -1.1976 -0.4369
  165SAPS   H7S18598   6.291   0.730   5.698  0.0364  0.2471 -0.1089
  165SAPS   C2818599   6.414   0.555   5.744  0.0568  0.7138  0.1239
  165SAPS   H8R18600   6.409   0.516   5.846 -1.2073  5.5127  2.1348
  165SAPS   C2918601   6.461   0.475   5.649 -0.0332  0.3888  0.4425
  165SAPS   H9R18602   6.465   0.367   5.667 -1.5124  0.1380 -0.5672
  165SAPS  C21018603   6.494   0.520   5.508  0.0133  0.1531 -1.1907
  165SAPS  H10R18604   6.604   0.533   5.500 -0.2936  3.0699 -2.1060
  165SAPS  H10S18605   6.455   0.623   5.492  0.2364  0.1096 -2.0790
  165SAPS  C21118606   6.441   0.434   5.397  0.5111  0.5811  0.1320
  165SAPS  H11R18607   6.435   0.327   5.421  0.4129  0.3668 -0.7991
  165SAPS  C21218608   6.387   0.483   5.278 -0.0698  0.8196  0.2697
  165SAPS  H12R18609   6.332   0.416   5.210  1.2489 -0.9691  0.8804
  165SAPS  C21318610   6.371   0.631   5.243 -0.7516  0.1633  0.6429
  165SAPS  H13R18611   6.467   0.677   5.212  0.3438 -2.6152 -0.4060
  165SAPS  H13S18612   6.354   0.683   5.340 -0.6422 -0.7918  1.1895
  165SAPS  C21418613   6.261   0.667   5.154  0.3401  0.1939  1.0075
  165SAPS  H14R18614   6.177   0.705   5.213 -3.2282  1.3523 -4.1681
  165SAPS  C21518615   6.256   0.665   5.020 -0.0992  0.1170 -0.0078
  165SAPS  H15R18616   6.157   0.694   4.981 -0.5520  1.4824  2.0009
  165SAPS  C21618617   6.371   0.636   4.921  0.6243  0.2137 -0.6647
  165SAPS  H16R18618   6.472   0.633   4.966  0.3972  0.8089 -0.0991
  165SAPS  H16S18619   6.374   0.715   4.843  1.2364  0.8788  0.0270
  165SAPS  C21718620   6.338   0.498   4.856 -0.4791  0.5108  0.8109
  165SAPS  H17R18621   6.296   0.421   4.923 -4.7984 -0.5681 -2.6863
  165SAPS  H17S18622   6.440   0.460   4.834 -0.7097  0.2734  0.1452
  165SAPS  C21818623   6.245   0.514   4.732 -0.4158  0.2271  0.3901
  165SAPS  H18R18624   6.273   0.599   4.667 -3.8362  1.8957  0.8361
  165SAPS  H18S18625   6.140   0.524   4.766 -0.2068 -0.0840  1.1387
  165SAPS  C21918626   6.232   0.382   4.654  0.3132 -0.6672 -0.5001
  165SAPS  H19R18627   6.179   0.296   4.700  1.1259 -1.4806 -1.0455
  165SAPS  H19S18628   6.333   0.339   4.637  1.6213  1.9869  0.1074
  165SAPS  C22018629   6.168   0.404   4.510 -0.5713  0.3747 -0.2869
  165SAPS  H20R18630   6.062   0.418   4.541 -0.1442  2.8937  0.2496
  165SAPS  H20S18631   6.190   0.317   4.446  0.6007 -0.2338  0.8970
  165SAPS  H20T18632   6.206   0.500   4.468 -1.6191  0.0996 -1.9265
  165SAPS   C3318633   6.493   0.513   6.369  0.2062  0.6595  0.6399
  165SAPS   H3X18634   6.579   0.444   6.356 -1.5615 -1.3537 -0.9960
  165SAPS   H3Y18635   6.470   0.538   6.475  0.6526  1.8013  0.4893
  165SAPS   C3418636   6.535   0.642   6.292 -0.2122  0.2218  0.1995
  165SAPS   H4X18637   6.475   0.721   6.343 -1.7958 -0.6737 -0.2003
  165SAPS   H4Y18638   6.502   0.642   6.186  0.3254 -0.7523  0.0201
  165SAPS   C3518639   6.685   0.679   6.302 -0.1193  0.0009  0.4516
  165SAPS   H5X18640   6.727   0.659   6.403 -0.1997  0.4341  0.5726
  165SAPS   H5Y18641   6.696   0.788   6.286  2.2832 -0.1991  0.4665
  165SAPS   C3618642   6.770   0.606   6.196  0.7006  0.6905  0.4069
  165SAPS   H6X18643   6.757   0.495   6.192  0.3860  0.4924  3.6828
  165SAPS   H6Y18644   6.876   0.630   6.219  0.9042  0.4450 -0.2653
  165SAPS   C3718645   6.731   0.668   6.059 -0.2496  0.0276  0.2636
  165SAPS   H7X18646   6.753   0.776   6.052 -1.2328  0.2316  0.2219
  165SAPS   H7Y18647   6.630   0.630   6.030  0.5818 -2.7481  0.6597
  165SAPS   C3818648   6.821   0.625   5.945 -0.0170  1.1246  0.5438
  165SAPS   H8X18649   6.805   0.517   5.927 -0.7477  1.5734 -1.8892
  165SAPS   H8Y18650   6.928   0.647   5.966  0.1836 -0.6378  1.5656
  165SAPS   C3918651   6.786   0.695   5.815  0.4458 -0.0759  0.2946
  165SAPS   H9X18652   6.801   0.805   5.824 -0.0498  0.4314 -3.4563
  165SAPS   H9Y18653   6.675   0.692   5.809  0.4795 -1.3021  0.0972
  165SAPS  C31018654   6.854   0.630   5.699  0.1052  0.4509 -0.7011
  165SAPS  H10X18655   6.822   0.524   5.691 -1.7053  0.9589 -0.5088
  165SAPS  H10Y18656   6.963   0.635   5.720 -0.4772  1.2379  2.9133
  165SAPS  C31118657   6.820   0.705   5.560 -0.1010  0.0581 -0.3575
  165SAPS  H11X18658   6.842   0.811   5.584 -0.1208  0.3863 -1.7508
  165SAPS  H11Y18659   6.709   0.696   5.558 -0.4710  1.7198  3.5127
  165SAPS  C31218660   6.900   0.666   5.435  0.3552  0.6998 -0.1432
  165SAPS  H12X18661   6.878   0.559   5.413  0.1631  0.9079 -0.9919
  165SAPS  H12Y18662   7.007   0.680   5.461 -0.5071  1.4157  3.6135
  165SAPS  C31318663   6.873   0.761   5.317  0.4740  0.2272  0.5327
  165SAPS  H13X18664   6.947   0.731   5.240 -1.1677 -0.7625 -0.7386
  165SAPS  H13Y18665   6.894   0.864   5.353  1.8287  0.7703 -1.6566
  165SAPS  C31418666   6.730   0.766   5.263 -0.1399  0.7415  0.0226
  165SAPS  H14X18667   6.653   0.763   5.342 -1.7333 -0.7776 -1.4910
  165SAPS  H14Y18668   6.707   0.672   5.208 -1.0242  1.1379 -0.3112
  165SAPS  C31518669   6.714   0.885   5.172  0.7922 -0.7334 -0.2875
  165SAPS  H15X18670   6.777   0.875   5.081 -1.3128  0.7965 -2.0478
  165SAPS  H15Y18671   6.745   0.969   5.238  1.2597 -2.2631  1.5401
  165SAPS  C31618672   6.572   0.897   5.117  0.2012  1.2244  0.1088
  165SAPS  H16X18673   6.505   0.890   5.205  2.5175 -0.0487  1.8642
  165SAPS  H16Y18674   6.566   0.800   5.065  1.2267  0.7973  0.7585
  165SAPS  C31718675   6.549   1.021   5.032  0.2724 -0.0774  0.1241
  165SAPS  H17X18676   6.583   1.112   5.086  0.9265  0.5491 -1.2695
  165SAPS  H17Y18677   6.439   1.036   5.035  0.2652 -0.0376 -0.2134
  165SAPS  C31818678   6.597   1.007   4.885  0.3063  0.2386  0.3397
  165SAPS  H18X18679   6.687   0.941   4.877 -0.9381 -1.9571  2.8601
  165SAPS  H18Y18680   6.627   1.109   4.852  0.8860  0.3278  1.0883
  165SAPS  H18Z18681   6.520   0.967   4.816  0.7897 -0.3405  0.1181
  166SAPS     N18682   3.322   0.790   6.996 -0.1032  0.5126 -0.1586
  166SAPS   HN118683   3.253   0.863   6.969  0.5730  0.7881 -1.1796
  166SAPS   HN218684   3.398   0.839   7.048  2.5188 -0.1245 -3.0957
  166SAPS   HN318685   3.377   0.766   6.911  1.6334  0.4515  0.9265
  166SAPS   C1218686   3.273   0.672   7.076  0.6490 -0.3905  0.0357
  166SAPS  H12A18687   3.248   0.595   7.004  0.8746 -2.0739  1.6772
  166SAPS   C1318688   3.360   0.600   7.181 -0.1012 -0.2626  0.3972
  166SAPS  O13A18689   3.469   0.653   7.203 -0.1585  0.0125 -0.5198
  166SAPS  O13B18690   3.323   0.496   7.247  0.3009  0.0685  0.0685
  166SAPS   C1118691   3.145   0.726   7.138  0.2312 -0.5383  0.0934
  166SAPS  H11A18692   3.163   0.779   7.234  1.1881  0.8315 -0.7972
  166SAPS  H11B18693   3.091   0.635   7.171  0.4107 -0.9541 -0.7445
  166SAPS     P18694   2.910   0.795   7.042  0.2828 -0.0360  0.2632
  166SAPS   O1318695   2.864   0.764   7.177 -0.4007  0.1340  0.1436
  166SAPS   O1418696   2.859   0.918   6.979 -0.0784  0.1437  0.6441
  166SAPS   O1218697   3.061   0.802   7.044  0.5214 -0.4583  0.1366
  166SAPS   O1118698   2.878   0.671   6.947 -0.0912  0.0627  0.4006
  166SAPS    C118699   2.962   0.625   6.839  0.1803 -0.9557 -0.0605
  166SAPS    HA18700   3.068   0.660   6.844 -0.0432 -0.1113 -0.9873
  166SAPS    HB18701   2.960   0.514   6.837 -2.3704 -1.0281  1.6462
  166SAPS    C218702   2.911   0.684   6.707  0.3379  0.1086 -0.1197
  166SAPS    HS18703   2.923   0.795   6.713 -0.7258  0.2034  0.5118
  166SAPS   O2118704   2.768   0.650   6.687 -0.0455  0.0723  0.2106
  166SAPS   C2118705   2.696   0.729   6.602 -0.9778  0.5810  0.1253
  166SAPS   O2218706   2.726   0.839   6.558  0.7155 -0.1069  0.0633
  166SAPS   C2218707   2.570   0.644   6.556 -0.0409 -0.3826  0.6265
  166SAPS   H2R18708   2.535   0.597   6.650 -2.4562 -1.1299 -0.5569
  166SAPS   H2S18709   2.496   0.725   6.536  2.8772  2.2114 -0.4984
  166SAPS    C318710   2.986   0.625   6.583 -0.8779  0.7290  1.3556
  166SAPS    HX18711   2.970   0.515   6.591  1.6203  0.3664  2.1269
  166SAPS    HY18712   3.095   0.638   6.600 -0.0472 -1.1067 -1.7139
  166SAPS   O3118713   2.942   0.676   6.449  0.1040  0.0535  0.2666
  166SAPS   C3118714   3.004   0.790   6.404  0.2865 -0.3419  0.6686
  166SAPS   O3218715   3.102   0.837   6.452  0.2687 -0.1008 -0.1543
  166SAPS   C3218716   2.944   0.846   6.274 -0.7217 -0.7683  0.7985
  166SAPS   H2X18717   2.918   0.952   6.294  1.6057 -0.0180  0.1162
  166SAPS   H2Y18718   2.856   0.783   6.245 -1.3626  1.1282 -1.6759
  166SAPS   C2318719   2.593   0.550   6.441 -0.1290 -0.4876  0.3669
  166SAPS   H3R18720   2.683   0.485   6.447 -0.5279 -1.1474 -0.4709
  166SAPS   H3S18721   2.604   0.599   6.342  1.2231 -2.9051 -0.7966
  166SAPS   C2418722   2.481   0.443   6.411 -0.6789  0.5884  0.3977
  166SAPS   H4R18723   2.482   0.372   6.497 -1.5687 -1.4099 -1.1541
  166SAPS   H4S18724   2.521   0.381   6.328  1.0683  0.9117  0.9551
  166SAPS   C2518725   2.346   0.495   6.381  0.3771  0.1750 -0.1775
  166SAPS   H5R18726   2.291   0.538   6.466  0.9151  0.9779 -0.2251
  166SAPS   C2618727   2.293   0.504   6.258 -0.0346 -0.3630  0.1276
  166SAPS   H6R18728   2.214   0.580   6.254 -0.5632 -0.7385  2.0996
  166SAPS   C2718729   2.366   0.472   6.129 -0.1112 -0.1140 -0.3992
  166SAPS   H7R18730   2.358   0.364   6.107 -1.1036 -0.5466  1.8234
  166SAPS   H7S18731   2.474   0.499   6.128  0.2554 -1.4456  0.7644
  166SAPS   C2818732   2.296   0.537   6.008 -0.0567  0.7735 -0.5860
  166SAPS   H8R18733   2.187   0.549   6.002 -0.3624 -1.3674  0.1087
  166SAPS   C2918734   2.355   0.563   5.895 -0.2497  0.5950 -0.2384
  166SAPS   H9R18735   2.310   0.621   5.813  1.3959 -0.6869 -2.1396
  166SAPS  C21018736   2.497   0.542   5.858 -0.3036  0.9322  1.0611
  166SAPS  H10R18737   2.564   0.553   5.946 -0.7411  1.5365  1.3266
  166SAPS  H10S18738   2.531   0.615   5.781 -1.9648 -1.4377 -2.1778
  166SAPS  C21118739   2.519   0.397   5.802  0.7147 -0.2189  0.2222
  166SAPS  H11R18740   2.514   0.320   5.881  1.5777  1.6477  2.2078
  166SAPS  C21218741   2.554   0.364   5.682 -0.3442 -0.1359  1.0587
  166SAPS  H12R18742   2.560   0.257   5.660 -0.2819  0.0427  0.1863
  166SAPS  C21318743   2.576   0.450   5.565 -1.0101  0.3011 -0.4640
  166SAPS  H13R18744   2.580   0.559   5.587 -1.5705  0.0547  0.9950
  166SAPS  H13S18745   2.493   0.435   5.492 -0.2747  2.5366 -1.8670
  166SAPS  C21418746   2.709   0.409   5.492  0.8581 -0.3507  0.1551
  166SAPS  H14R18747   2.782   0.343   5.540  1.5317 -0.8513 -1.5195
  166SAPS  C21518748   2.733   0.456   5.366  0.3601  0.2753  0.2001
  166SAPS  H15R18749   2.829   0.434   5.317 -0.8519 -1.4097 -1.6171
  166SAPS  C21618750   2.637   0.546   5.292 -0.2383  0.7915  0.2157
  166SAPS  H16R18751   2.660   0.654   5.305 -1.8536  1.0118  1.5193
  166SAPS  H16S18752   2.529   0.541   5.317 -0.3073  2.0842  0.2498
  166SAPS  C21718753   2.646   0.520   5.137 -0.1197  0.2736  0.9362
  166SAPS  H17R18754   2.586   0.598   5.085  1.0028  1.2368  1.0446
  166SAPS  H17S18755   2.599   0.422   5.114 -1.4061  1.1909 -0.5893
  166SAPS  C21818756   2.779   0.520   5.071  0.2779 -0.5056 -0.2169
  166SAPS  H18R18757   2.829   0.427   5.104  0.9545 -0.6844 -1.6726
  166SAPS  H18S18758   2.825   0.616   5.104 -2.5961  0.8281  0.2033
  166SAPS  C21918759   2.770   0.509   4.918 -0.7529  0.6590  0.7074
  166SAPS  H19R18760   2.874   0.513   4.880 -1.2195 -0.3031 -0.7391
  166SAPS  H19S18761   2.727   0.600   4.871  1.6868  2.1089  1.1323
  166SAPS  C22018762   2.720   0.375   4.864  0.0223  0.2593 -0.1351
  166SAPS  H20R18763   2.785   0.296   4.908  1.3019  0.8799 -0.8616
  166SAPS  H20S18764   2.729   0.362   4.754  1.9270 -1.3886  0.1546
  166SAPS  H20T18765   2.614   0.355   4.890  0.2465 -1.4698 -0.4070
  166SAPS   C3318766   3.042   0.863   6.150  0.1025  0.1355 -0.3881
  166SAPS   H3X18767   3.076   0.759   6.128 -0.3762 -0.3999  1.2398
  166SAPS   H3Y18768   3.140   0.906   6.180  1.1384 -1.8928 -0.6905
  166SAPS   C3418769   2.974   0.946   6.043 -0.3861 -0.2402  0.4267
  166SAPS   H4X18770   2.951   1.051   6.070 -0.3217  0.2801 -1.4331
  166SAPS   H4Y18771   2.875   0.900   6.020 -1.2371  1.5061  0.4664
  166SAPS   C3518772   3.055   0.964   5.912 -0.7437  0.3688 -0.5982
  166SAPS   H5X18773   3.085   0.864   5.873  0.1393  0.2291  0.3865
  166SAPS   H5Y18774   3.147   1.016   5.946 -0.7511  0.5886 -0.9125
  166SAPS   C3618775   2.990   1.053   5.810 -0.7714  0.6728 -0.2358
  166SAPS   H6X18776   3.020   1.155   5.842  1.6080 -0.7641  2.6186
  166SAPS   H6Y18777   2.880   1.039   5.821 -0.5035 -0.5665  1.1538
  166SAPS   C3718778   3.043   1.009   5.674 -0.4460 -0.3086 -0.1258
  166SAPS   H7X18779   3.047   0.897   5.673  0.4785 -0.3999  2.7645
  166SAPS   H7Y18780   3.145   1.053   5.666 -1.0953  1.0680 -1.0524
  166SAPS   C3818781   2.959   1.054   5.551  0.0207  0.5699 -0.0586
  166SAPS   H8X18782   2.967   1.164   5.558 -0.5325  0.5788  0.5689
  166SAPS   H8Y18783   2.856   1.015   5.571 -0.4262  2.1128  0.8008
  166SAPS   C3918784   3.011   0.993   5.425 -0.4780 -0.1048  0.4195
  166SAPS   H9X18785   2.990   0.884   5.422 -1.0873  0.0297 -1.8778
  166SAPS   H9Y18786   3.121   1.010   5.420 -0.5592  0.3716  0.2337
  166SAPS  C31018787   2.964   1.066   5.298 -0.7202 -0.0052  0.7018
  166SAPS  H10X18788   2.995   1.172   5.315 -0.7603  0.3878 -1.3426
  166SAPS  H10Y18789   2.854   1.069   5.288 -0.8122 -2.1024  0.7933
  166SAPS  C31118790   3.020   1.000   5.176  0.6885  0.2575 -0.4256
  166SAPS  H11X18791   2.991   0.893   5.163  1.1726  0.0364  0.2310
  166SAPS  H11Y18792   3.128   0.991   5.198  0.5427 -1.1032 -0.1716
  166SAPS  C31218793   2.976   1.083   5.057 -0.6149  0.0205 -1.0173
  166SAPS  H12X18794   3.015   1.186   5.069 -0.4248 -0.2368  0.8569
  166SAPS  H12Y18795   2.866   1.080   5.037 -1.1801 -1.4286  1.8628
  166SAPS  C31318796   3.035   1.029   4.918 -0.0135 -0.0231 -0.5640
  166SAPS  H13X18797   3.049   0.919   4.906  1.8492  0.2652 -1.3003
  166SAPS  H13Y18798   3.141   1.062   4.911  0.4769 -1.2742  0.5059
  166SAPS  C31418799   2.948   1.092   4.803 -0.8898 -0.0826  0.2057
  166SAPS  H14X18800   2.960   1.202   4.816  0.0416 -0.3605  1.9579
  166SAPS  H14Y18801   2.841   1.064   4.814 -0.7482 -1.0241 -0.6850
  166SAPS  C31518802   3.005   1.062   4.666 -0.4549 -0.2464  0.8598
  166SAPS  H15X18803   2.990   0.952   4.660  2.2968 -0.7116  1.4470
  166SAPS  H15Y18804   3.114   1.079   4.659 -0.2936 -1.4805  0.0284
  166SAPS  C31618805   2.924   1.128   4.547 -0.2932 -0.1123 -0.2868
  166SAPS  H16X18806   2.951   1.235   4.541 -0.0433 -0.2429 -2.1866
  166SAPS  H16Y18807   2.815   1.136   4.569 -0.5845  0.7794 -1.9032
  166SAPS  C31718808   2.949   1.052   4.416 -0.0384  0.1541 -0.9004
  166SAPS  H17X18809   2.902   0.951   4.424  0.2192 -0.0916 -2.3365
  166SAPS  H17Y18810   3.059   1.042   4.416  0.1390  1.6061  0.6099
  166SAPS  C31818811   2.902   1.126   4.291 -0.4758  0.0058  0.1986
  166SAPS  H18X18812   2.963   1.212   4.256 -1.2513 -0.1866 -1.7392
  166SAPS  H18Y18813   2.793   1.144   4.276 -0.5614 -0.2306  0.5168
  166SAPS  H18Z18814   2.935   1.062   4.206  2.5788 -0.6384  1.7494
  167SAPS     N18815   6.062   5.068   6.952  0.2128 -0.4237  0.3104
  167SAPS   HN118816   6.034   5.103   7.046 -0.6062 -1.8848  0.6406
  167SAPS   HN218817   6.085   4.967   6.965  2.0529 -0.0409  0.2870
  167SAPS   HN318818   6.144   5.117   6.910 -0.3532 -0.1686 -0.5156
  167SAPS   C1218819   5.951   5.084   6.859 -0.4259  0.3170  0.2676
  167SAPS  H12A18820   5.862   5.045   6.905  0.3634 -2.5636 -0.4353
  167SAPS   C1318821   5.927   5.234   6.829 -0.4088  1.0103  0.0809
  167SAPS  O13A18822   6.020   5.318   6.847  0.1300 -0.6978 -0.0843
  167SAPS  O13B18823   5.814   5.273   6.796  0.5102 -0.1678  0.2698
  167SAPS   C1118824   5.972   4.995   6.733 -0.1744 -0.2297 -0.1935
  167SAPS  H11A18825   6.058   5.035   6.676 -0.2053 -0.9575 -0.7622
  167SAPS  H11B18826   5.888   5.010   6.663 -2.4892 -0.8826  2.2723
  167SAPS     P18827   6.071   4.769   6.665 -0.1227 -0.2830  0.0011
  167SAPS   O1318828   6.214   4.807   6.654  0.5477  0.4080 -0.3249
  167SAPS   O1418829   6.049   4.629   6.710 -0.3995  0.2868  0.1873
  167SAPS   O1218830   5.993   4.856   6.769 -0.0789 -0.3335 -0.1575
  167SAPS   O1118831   6.002   4.795   6.525 -0.2647  0.2070  0.1691
  167SAPS    C118832   5.871   4.764   6.501  0.3139 -0.4367 -0.1241
  167SAPS    HA18833   5.822   4.713   6.586  0.5336  1.6601  1.3592
  167SAPS    HB18834   5.817   4.861   6.496 -1.3458 -1.2138  1.6763
  167SAPS    C218835   5.872   4.692   6.365  0.1245  0.7520  1.2927
  167SAPS    HS18836   5.935   4.749   6.294 -1.0893  1.4771  0.7808
  167SAPS   O2118837   5.738   4.688   6.308  0.4391 -0.3318  0.1485
  167SAPS   C2118838   5.742   4.712   6.172  0.0379  0.2504  0.5058
  167SAPS   O2218839   5.844   4.740   6.107  0.2115  0.1583 -0.1401
  167SAPS   C2218840   5.605   4.729   6.108 -0.2624 -0.0438 -0.3107
  167SAPS   H2R18841   5.545   4.644   6.146  0.4150 -0.7365 -0.7541
  167SAPS   H2S18842   5.551   4.816   6.151  0.1210 -0.2566  0.6176
  167SAPS    C318843   5.932   4.549   6.368  0.3269  0.6660 -0.7743
  167SAPS    HX18844   5.866   4.488   6.434  2.7601 -1.6259 -0.3070
  167SAPS    HY18845   6.025   4.553   6.429  1.0464 -4.1160 -1.1466
  167SAPS   O3118846   5.956   4.494   6.236  0.0278  0.2010 -0.0004
  167SAPS   C3118847   6.075   4.530   6.182 -0.4361  0.4848 -0.6240
  167SAPS   O3218848   6.155   4.604   6.239 -0.2353  0.5995 -0.4581
  167SAPS   C3218849   6.099   4.462   6.048 -0.1610 -0.3441 -1.1809
  167SAPS   H2X18850   6.095   4.550   5.980 -0.6293  2.0079  1.6823
  167SAPS   H2Y18851   6.015   4.391   6.025 -1.3440 -0.4512  2.7697
  167SAPS   C2318852   5.611   4.755   5.954 -0.6922 -0.4044  0.5431
  167SAPS   H3R18853   5.695   4.706   5.901 -1.4359  1.2081 -2.3685
  167SAPS   H3S18854   5.626   4.863   5.930  0.7563  0.1042  3.3002
  167SAPS   C2418855   5.474   4.715   5.896  0.1049 -0.3414 -0.0864
  167SAPS   H4R18856   5.394   4.770   5.949 -0.8248  1.1970 -2.8852
  167SAPS   H4S18857   5.456   4.608   5.919 -0.2081  0.0042  1.3337
  167SAPS   C2518858   5.460   4.751   5.753 -0.7286  0.7690  0.4599
  167SAPS   H5R18859   5.424   4.853   5.731 -4.0762 -0.1644  0.9802
  167SAPS   C2618860   5.491   4.668   5.648  0.9645  0.0413  0.2352
  167SAPS   H6R18861   5.468   4.696   5.544 -0.3994 -2.6422 -0.2604
  167SAPS   C2718862   5.544   4.530   5.668  0.2657  0.2973 -0.2735
  167SAPS   H7R18863   5.540   4.501   5.775  0.4838  2.8710  0.4855
  167SAPS   H7S18864   5.649   4.526   5.633 -0.6559  1.9596 -3.5983
  167SAPS   C2818865   5.455   4.428   5.586  0.3255  0.3708  0.1347
  167SAPS   H8R18866   5.374   4.386   5.648  3.0833 -1.4488  2.7811
  167SAPS   C2918867   5.474   4.397   5.455  0.2264  0.3168 -0.2836
  167SAPS   H9R18868   5.403   4.324   5.414 -2.1462  1.0301  2.2435
  167SAPS  C21018869   5.572   4.453   5.356 -0.2977  0.2646 -0.0890
  167SAPS  H10R18870   5.668   4.494   5.394  1.0359 -0.1306 -2.7602
  167SAPS  H10S18871   5.508   4.535   5.318 -1.8609 -0.5153  0.7874
  167SAPS  C21118872   5.601   4.369   5.232  0.4002 -0.0674 -0.7846
  167SAPS  H11R18873   5.513   4.315   5.194 -0.9284  0.8427  0.8660
  167SAPS  C21218874   5.723   4.343   5.184 -0.4293  0.5991 -0.0752
  167SAPS  H12R18875   5.732   4.285   5.090  2.0278 -1.4967  1.3296
  167SAPS  C21318876   5.857   4.392   5.235  0.0345 -0.6491  0.0772
  167SAPS  H13R18877   5.928   4.307   5.249 -0.7102 -1.2009  0.6041
  167SAPS  H13S18878   5.845   4.434   5.337 -0.6504  0.8038 -0.5800
  167SAPS  C21418879   5.911   4.509   5.154 -0.1368  0.5721 -0.2015
  167SAPS  H14R18880   5.836   4.573   5.106 -0.3153 -0.6111 -1.5693
  167SAPS  C21518881   6.042   4.526   5.116  0.2269  0.0913 -0.2350
  167SAPS  H15R18882   6.067   4.617   5.060  0.0164 -0.1715 -0.7695
  167SAPS  C21618883   6.158   4.436   5.146  0.4911  0.2632 -0.1322
  167SAPS  H16R18884   6.127   4.357   5.218 -1.2315 -0.2576 -1.3826
  167SAPS  H16S18885   6.238   4.496   5.194  1.2421  0.2891 -1.3857
  167SAPS  C21718886   6.210   4.366   5.022 -0.0470 -0.1730 -0.2798
  167SAPS  H17R18887   6.128   4.304   4.979 -0.2593 -0.7874  0.9768
  167SAPS  H17S18888   6.291   4.294   5.046  2.5754  2.2537 -1.2760
  167SAPS  C21818889   6.276   4.451   4.908  0.4735 -0.4221  0.5024
  167SAPS  H18R18890   6.360   4.510   4.952  0.5270 -0.6136  0.6567
  167SAPS  H18S18891   6.206   4.528   4.869  1.5173  0.6688  0.7005
  167SAPS  C21918892   6.339   4.378   4.784 -0.4639  0.2661 -0.9691
  167SAPS  H19R18893   6.444   4.348   4.805 -0.5939 -0.0560 -0.7699
  167SAPS  H19S18894   6.340   4.448   4.698 -0.0683  0.7630 -0.5662
  167SAPS  C22018895   6.265   4.259   4.730 -0.3140  0.1140  0.7034
  167SAPS  H20R18896   6.240   4.174   4.797 -0.0966 -1.8271 -1.5108
  167SAPS  H20S18897   6.331   4.209   4.655 -1.0107 -1.3026  0.9872
  167SAPS  H20T18898   6.182   4.299   4.668 -0.0799  0.7486  0.8000
  167SAPS   C3318899   6.230   4.390   6.030 -0.5092 -0.4007  0.0373
  167SAPS   H3X18900   6.247   4.311   6.106  2.0127 -2.4714 -2.4548
  167SAPS   H3Y18901   6.310   4.466   6.043  0.5551 -1.8662  3.1112
  167SAPS   C3418902   6.243   4.345   5.884  0.9028  0.0319  0.8179
  167SAPS   H4X18903   6.196   4.416   5.813  1.0646  0.0470  0.7245
  167SAPS   H4Y18904   6.186   4.249   5.877  1.1118  0.0049 -1.2480
  167SAPS   C3518905   6.389   4.320   5.845  0.0286  0.0247 -0.1049
  167SAPS   H5X18906   6.437   4.283   5.938 -0.7733 -1.6121 -0.3027
  167SAPS   H5Y18907   6.434   4.419   5.824 -2.3621  0.9207 -1.4172
  167SAPS   C3618908   6.411   4.225   5.727 -1.1416 -0.9420  0.4779
  167SAPS   H6X18909   6.329   4.252   5.656 -0.7003 -0.6046  0.0929
  167SAPS   H6Y18910   6.371   4.129   5.766 -0.4037 -2.1487 -1.5852
  167SAPS   C3718911   6.548   4.233   5.660  0.4757  0.1006  0.1198
  167SAPS   H7X18912   6.627   4.195   5.728 -0.9720 -2.3554  0.5474
  167SAPS   H7Y18913   6.574   4.340   5.646 -1.7450  0.8205  0.9629
  167SAPS   C3818914   6.547   4.161   5.526 -0.3366  0.5144 -0.0638
  167SAPS   H8X18915   6.459   4.189   5.465  0.0197 -2.5554 -2.2380
  167SAPS   H8Y18916   6.531   4.053   5.548  0.4914  0.4449  0.2524
  167SAPS   C3918917   6.672   4.173   5.447 -0.1842  0.2232  0.4517
  167SAPS   H9X18918   6.763   4.137   5.499  1.1473  2.6903  0.0339
  167SAPS   H9Y18919   6.687   4.281   5.426  1.1049  0.0709  0.4778
  167SAPS  C31018920   6.660   4.105   5.304 -0.0382  0.2091 -0.6417
  167SAPS  H10X18921   6.594   4.016   5.318 -1.2227  0.8939 -1.6831
  167SAPS  H10Y18922   6.764   4.072   5.284  0.9850  0.8573  2.8981
  167SAPS  C31118923   6.594   4.195   5.200  0.3632  0.2123  0.0942
  167SAPS  H11X18924   6.654   4.288   5.197  2.2188 -0.9620 -1.9656
  167SAPS  H11Y18925   6.489   4.220   5.226 -0.4211 -2.3475 -0.3847
  167SAPS  C31218926   6.593   4.136   5.057  0.1886 -0.8104  0.4008
  167SAPS  H12X18927   6.541   4.202   4.985 -1.1195 -1.2781  0.8955
  167SAPS  H12Y18928   6.530   4.045   5.061 -1.0610  0.0570  2.4156
  167SAPS  C31318929   6.737   4.109   5.001 -0.4224  0.8164 -0.2083
  167SAPS  H13X18930   6.785   4.051   5.083  0.1725 -0.2377 -1.2789
  167SAPS  H13Y18931   6.788   4.208   4.997 -1.2354  1.3213  1.3604
  167SAPS  C31418932   6.736   4.022   4.876  0.2661 -0.4287 -0.8933
  167SAPS  H14X18933   6.660   3.942   4.885  2.4503 -2.6726 -1.1213
  167SAPS  H14Y18934   6.842   3.989   4.872  0.8558  1.1253  0.3821
  167SAPS  C31518935   6.706   4.101   4.750  0.1575  0.1150  0.3622
  167SAPS  H15X18936   6.792   4.170   4.738  0.2179 -0.2083 -1.3613
  167SAPS  H15Y18937   6.613   4.161   4.746  1.1733  1.6833 -1.5559
  167SAPS  C31618938   6.698   4.019   4.617 -0.0871 -0.6550  0.2852
  167SAPS  H16X18939   6.795   3.968   4.597  0.9796  0.0042  3.2252
  167SAPS  H16Y18940   6.672   4.089   4.535 -1.5928 -1.3607  0.1305
  167SAPS  C31718941   6.581   3.912   4.609 -0.2230  0.1619  0.4330
  167SAPS  H17X18942   6.492   3.978   4.615 -0.8678 -0.6367 -0.0601
  167SAPS  H17Y18943   6.579   3.836   4.690 -4.4128 -1.9089 -1.2996
  167SAPS  C31818944   6.585   3.843   4.478  0.3153  0.1897 -0.1119
  167SAPS  H18X18945   6.568   3.905   4.387 -0.3630  0.7793  0.4027
  167SAPS  H18Y18946   6.515   3.760   4.458  0.2053  0.0448  0.8495
  167SAPS  H18Z18947   6.688   3.802   4.464  0.3947  0.6663 -1.0061
  168SAPS     N18948   4.415   2.090   7.018  0.4559 -0.3052  0.0040
  168SAPS   HN118949   4.420   2.026   6.936  0.5266  1.4090 -1.3944
  168SAPS   HN218950   4.459   2.182   7.001 -1.0187  1.3156  3.8195
  168SAPS   HN318951   4.471   2.062   7.101  0.1637  0.3844  0.4476
  168SAPS   C1218952   4.280   2.119   7.075 -0.3913  0.7948 -0.3548
  168SAPS  H12A18953   4.244   2.024   7.112  0.2736  0.2191 -1.1554
  168SAPS   C1318954   4.280   2.220   7.189  0.5403 -0.3871 -0.0860
  168SAPS  O13A18955   4.385   2.271   7.228 -0.0179 -0.6988  0.4187
  168SAPS  O13B18956   4.169   2.247   7.245 -0.0334 -0.0971  0.3462
  168SAPS   C1118957   4.199   2.167   6.950 -0.1160 -0.1544  0.1746
  168SAPS  H11A18958   4.254   2.252   6.906 -0.1312  0.3449  1.1020
  168SAPS  H11B18959   4.100   2.210   6.979 -1.2948 -0.9207 -2.3589
  168SAPS     P18960   4.038   1.997   6.824  0.2127  0.0425  0.2003
  168SAPS   O1318961   4.046   1.862   6.763  0.4553 -0.7327  0.0357
  168SAPS   O1418962   3.950   2.010   6.938  0.6199 -0.8819  0.0703
  168SAPS   O1218963   4.175   2.064   6.861 -0.1177 -0.5147 -0.5304
  168SAPS   O1118964   3.979   2.087   6.708  0.2068 -0.0216 -0.1160
  168SAPS    C118965   4.047   2.212   6.685  0.0462 -0.2578  0.6402
  168SAPS    HA18966   4.051   2.279   6.774  2.1009  0.4143  0.0912
  168SAPS    HB18967   4.150   2.194   6.650 -0.2636  0.3788 -0.6299
  168SAPS    C218968   3.968   2.297   6.581  0.5407  0.2785 -0.0290
  168SAPS    HS18969   3.871   2.329   6.625  1.1214  2.1507  0.0011
  168SAPS   O2118970   3.942   2.226   6.454 -0.0637  0.2227  0.1567
  168SAPS   C2118971   3.825   2.156   6.453  0.0620  0.5628  0.2956
  168SAPS   O2218972   3.745   2.149   6.541  0.0507  0.2508 -0.0444
  168SAPS   C2218973   3.814   2.079   6.321 -0.2153 -0.3884  0.0403
  168SAPS   H2R18974   3.895   2.112   6.253 -0.8451  1.9427  0.3023
  168SAPS   H2S18975   3.822   1.969   6.332  1.1313 -0.6025 -2.3391
  168SAPS    C318976   4.044   2.422   6.532  0.0591  0.5359  0.3884
  168SAPS    HX18977   4.111   2.375   6.458 -0.6204 -2.0961  1.3246
  168SAPS    HY18978   4.103   2.468   6.614 -1.7796 -0.5478  2.4376
  168SAPS   O3118979   3.959   2.513   6.466  0.1331  0.3664 -0.1583
  168SAPS   C3118980   4.020   2.604   6.401 -0.6349  0.4719  1.0624
  168SAPS   O3218981   4.138   2.611   6.370  0.5757  0.0931 -0.1303
  168SAPS   C3218982   3.922   2.713   6.350 -0.5539 -0.7282  0.2015
  168SAPS   H2X18983   3.856   2.729   6.437  0.6610 -1.1908  1.2386
  168SAPS   H2Y18984   3.867   2.670   6.263  1.3862 -1.2210 -0.8571
  168SAPS   C2318985   3.689   2.126   6.240 -0.1346 -0.4983 -0.3595
  168SAPS   H3R18986   3.685   2.237   6.231 -0.2144 -0.2172  2.2068
  168SAPS   H3S18987   3.608   2.089   6.306  1.8056 -2.1893  1.1894
  168SAPS   C2418988   3.688   2.049   6.109 -0.2291 -0.3107  0.5526
  168SAPS   H4R18989   3.690   1.944   6.146 -0.0525 -0.7683 -0.7235
  168SAPS   H4S18990   3.784   2.059   6.056 -0.6367 -1.2114 -0.3801
  168SAPS   C2518991   3.569   2.075   6.021  0.4220 -0.3547 -0.3428
  168SAPS   H5R18992   3.468   2.050   6.057  0.8406 -1.4205  0.1665
  168SAPS   C2618993   3.579   2.125   5.899  0.2923  0.3751  0.6981
  168SAPS   H6R18994   3.494   2.117   5.829 -0.1835  2.7265  0.9167
  168SAPS   C2718995   3.699   2.171   5.826 -0.6382  0.0544 -0.0294
  168SAPS   H7R18996   3.798   2.182   5.874  0.3483 -0.3466 -1.8667
  168SAPS   H7S18997   3.668   2.271   5.788 -0.0372  0.8478  1.5061
  168SAPS   C2818998   3.716   2.080   5.704 -0.1109 -0.3104  0.9395
  168SAPS   H8R18999   3.744   1.975   5.723  0.7677  0.3018  3.4117
  168SAPS   C2919000   3.691   2.119   5.577  0.3949 -0.3201 -0.0990
  168SAPS   H9R19001   3.682   2.042   5.499 -0.8129  1.9627 -2.3622
  168SAPS  C21019002   3.633   2.252   5.532 -0.3587 -0.4587 -0.3555
  168SAPS  H10R19003   3.571   2.309   5.605 -1.6947 -0.0811 -1.7453
  168SAPS  H10S19004   3.552   2.241   5.457 -0.2470 -1.5225 -0.3385
  168SAPS  C21119005   3.734   2.356   5.487  0.4047  0.3769 -0.3183
  168SAPS  H11R19006   3.764   2.437   5.555  2.9652  1.0480 -2.1011
  168SAPS  C21219007   3.787   2.361   5.364  0.5357  0.1621  0.3025
  168SAPS  H12R19008   3.864   2.438   5.355 -0.3926  1.1315  0.3955
  168SAPS  C21319009   3.768   2.254   5.254 -0.7326 -0.1794 -0.4888
  168SAPS  H13R19010   3.772   2.295   5.151 -1.0611  1.1185 -0.0035
  168SAPS  H13S19011   3.659   2.233   5.255 -0.4708 -1.8264 -1.8018
  168SAPS  C21419012   3.846   2.129   5.276 -0.1313  0.0137  0.0857
  168SAPS  H14R19013   3.907   2.123   5.368  2.1651  0.2195 -1.3543
  168SAPS  C21519014   3.832   2.024   5.195 -0.1126  0.4985  1.2362
  168SAPS  H15R19015   3.875   1.930   5.232 -0.5873  1.0427  3.2453
  168SAPS  C21619016   3.732   2.021   5.074  0.2021  0.1452 -0.4490
  168SAPS  H16R19017   3.680   2.119   5.079  0.7073  0.3389  1.5195
  168SAPS  H16S19018   3.665   1.933   5.086  2.5002 -1.3868  1.9714
  168SAPS  C21719019   3.810   2.003   4.938 -0.5762 -0.6569 -0.0190
  168SAPS  H17R19020   3.731   1.965   4.869  0.3389 -3.3032  0.2923
  168SAPS  H17S19021   3.878   1.915   4.943  0.5856  0.2356  0.4561
  168SAPS  C21819022   3.882   2.128   4.888 -0.2066 -0.4095  0.1810
  168SAPS  H18R19023   3.950   2.170   4.965 -1.7570  3.5400 -0.3604
  168SAPS  H18S19024   3.823   2.222   4.884  0.2124 -0.1692 -0.6494
  168SAPS  C21919025   3.972   2.101   4.767 -1.4335 -0.2836 -0.2709
  168SAPS  H19R19026   4.045   2.020   4.786  0.2483  1.3553  0.5529
  168SAPS  H19S19027   4.031   2.193   4.747  0.8072 -1.8180 -1.0573
  168SAPS  C22019028   3.894   2.065   4.642 -0.4485  0.1462  0.1633
  168SAPS  H20R19029   3.962   2.012   4.571  0.6918 -0.6117  1.7546
  168SAPS  H20S19030   3.855   2.161   4.603 -2.9817  0.0513  2.2006
  168SAPS  H20T19031   3.808   1.996   4.656  1.2831 -2.0065  0.9414
  168SAPS   C3319032   3.995   2.845   6.306  0.5802  0.1373  0.1130
  168SAPS   H3X19033   4.066   2.828   6.222 -0.4449  3.0921 -1.5325
  168SAPS   H3Y19034   4.028   2.909   6.390 -1.2604  1.2300  0.0686
  168SAPS   C3419035   3.900   2.948   6.245  0.2659 -0.1318  0.2525
  168SAPS   H4X19036   3.913   3.049   6.289  0.3203  0.2136 -0.5393
  168SAPS   H4Y19037   3.795   2.917   6.267  0.3121 -1.0211 -0.7260
  168SAPS   C3519038   3.922   2.963   6.091 -0.3025 -0.2229  0.7570
  168SAPS   H5X19039   4.021   3.011   6.077  0.7896 -2.4202  0.6115
  168SAPS   H5Y19040   3.851   3.038   6.051  1.5507  2.2979  1.9284
  168SAPS   C3619041   3.910   2.835   6.009 -0.1249 -0.3055 -0.8104
  168SAPS   H6X19042   3.802   2.819   5.986 -0.1030 -1.8328  0.0476
  168SAPS   H6Y19043   3.944   2.737   6.048 -0.2867 -1.5873 -3.6686
  168SAPS   C3719044   3.989   2.850   5.872  0.4579 -0.8317 -0.4545
  168SAPS   H7X19045   3.964   2.767   5.802  0.6352 -1.3138  0.0447
  168SAPS   H7Y19046   4.100   2.844   5.880  0.4894  0.6236  0.5534
  168SAPS   C3819047   3.966   2.981   5.798  0.0092  0.2197  0.3882
  168SAPS   H8X19048   4.005   3.065   5.860 -1.2145  2.0549 -1.2052
  168SAPS   H8Y19049   3.861   3.007   5.773  0.2778  1.8474  0.8260
  168SAPS   C3919050   4.046   2.984   5.658 -0.1854 -0.4795 -0.2062
  168SAPS   H9X19051   4.148   2.942   5.672 -0.0059  0.3158  1.0147
  168SAPS   H9Y19052   4.045   3.090   5.625 -0.6392 -0.5201 -0.3299
  168SAPS  C31019053   3.983   2.900   5.547 -0.1239  0.4141  0.2328
  168SAPS  H10X19054   3.883   2.938   5.519  0.1932 -0.1561 -1.8270
  168SAPS  H10Y19055   3.965   2.799   5.590 -1.6212  1.0919  1.2888
  168SAPS  C31119056   4.062   2.878   5.418 -0.4066 -0.6004 -0.2350
  168SAPS  H11X19057   4.159   2.835   5.451  0.5713  0.2366 -1.8746
  168SAPS  H11Y19058   4.098   2.972   5.370  2.9928 -2.2307 -1.1597
  168SAPS  C31219059   3.990   2.800   5.312 -0.1255 -0.9588 -0.0086
  168SAPS  H12X19060   3.896   2.856   5.295  0.4648 -0.0084 -0.2723
  168SAPS  H12Y19061   3.973   2.698   5.352  3.0486 -1.7196 -0.3133
  168SAPS  C31319062   4.082   2.792   5.189 -0.2676  0.5931 -0.4314
  168SAPS  H13X19063   4.157   2.712   5.207 -2.9639 -1.8711  0.7625
  168SAPS  H13Y19064   4.143   2.882   5.166  0.2898 -0.2295 -2.4391
  168SAPS  C31419065   4.004   2.739   5.060  0.5799 -0.3423 -0.4227
  168SAPS  H14X19066   4.084   2.697   4.994 -0.0256 -1.6024 -0.3919
  168SAPS  H14Y19067   3.947   2.821   5.012 -0.6197 -1.6138 -1.2296
  168SAPS  C31519068   3.893   2.640   5.079  0.2791 -0.4614  0.1053
  168SAPS  H15X19069   3.817   2.675   5.151  0.4034 -2.9990  1.6057
  168SAPS  H15Y19070   3.943   2.555   5.130  0.5754  0.3942  1.2876
  168SAPS  C31619071   3.822   2.601   4.954  0.1481  0.0483  0.5545
  168SAPS  H16X19072   3.764   2.688   4.916  2.0913  1.5401  0.8405
  168SAPS  H16Y19073   3.759   2.511   4.971 -0.1219  0.0384 -0.4098
  168SAPS  C31719074   3.914   2.561   4.827  0.7224  0.1526 -0.3820
  168SAPS  H17X19075   3.995   2.496   4.865  2.4072  1.6904 -1.1459
  168SAPS  H17Y19076   3.952   2.660   4.791 -1.9250  2.5277  2.7078
  168SAPS  C31819077   3.843   2.492   4.712 -0.0310 -0.0404 -0.2489
  168SAPS  H18X19078   3.739   2.530   4.717  0.2874  0.7269  2.8174
  168SAPS  H18Y19079   3.845   2.381   4.705 -3.3698 -0.2542  0.4520
  168SAPS  H18Z19080   3.899   2.531   4.624  0.5263  1.4022  0.7164
  169SAPS     N19081   5.145   4.964   7.034 -0.5270 -0.5558  0.1220
  169SAPS   HN119082   5.244   4.938   7.051 -0.2861 -0.0086 -0.4029
  169SAPS   HN219083   5.100   4.956   7.127  0.3772 -2.7049  0.4253
  169SAPS   HN319084   5.101   4.898   6.967  2.0840 -0.0741 -2.2410
  169SAPS   C1219085   5.136   5.103   6.985  0.5419 -0.1843 -0.6451
  169SAPS  H12A19086   5.035   5.136   6.998  1.7803  3.2862  1.5427
  169SAPS   C1319087   5.231   5.205   7.055  0.5275  0.5249 -0.0791
  169SAPS  O13A19088   5.288   5.164   7.161  0.3819 -0.8014  0.1985
  169SAPS  O13B19089   5.186   5.322   7.049  0.1159 -0.2694 -0.2313
  169SAPS   C1119090   5.154   5.113   6.825  0.4538 -0.7651  0.0872
  169SAPS  H11A19091   5.260   5.101   6.793  0.9065 -1.0205  1.5639
  169SAPS  H11B19092   5.133   5.219   6.800  0.6844 -0.1778  2.1758
  169SAPS     P19093   4.960   5.044   6.651 -0.0788  0.4774 -0.0822
  169SAPS   O1319094   4.870   4.925   6.672  0.1491  0.0833 -0.4027
  169SAPS   O1419095   4.894   5.173   6.666  0.2604  0.3412  0.0789
  169SAPS   O1219096   5.076   5.022   6.752 -0.3632  0.5713 -0.1605
  169SAPS   O1119097   5.020   5.023   6.512 -0.0824 -0.2575  0.0568
  169SAPS    C119098   5.033   5.132   6.419 -0.2007  0.4747  0.0967
  169SAPS    HA19099   4.950   5.205   6.433  1.0586  1.7478  1.3631
  169SAPS    HB19100   5.130   5.185   6.431 -0.4831  1.1183 -0.4202
  169SAPS    C219101   5.038   5.079   6.275 -0.1004 -0.4390 -0.0407
  169SAPS    HS19102   5.143   5.056   6.247 -0.2196 -0.4947 -0.4479
  169SAPS   O2119103   4.966   5.158   6.175  0.3584 -0.0947 -0.0390
  169SAPS   C2119104   4.993   5.286   6.156 -0.5025  0.1625 -0.2959
  169SAPS   O2219105   5.069   5.354   6.222  0.1090  0.1124 -0.3444
  169SAPS   C2219106   4.937   5.327   6.022 -0.0397 -0.7651  0.0334
  169SAPS   H2R19107   5.027   5.356   5.965 -0.4471 -1.2941 -0.8940
  169SAPS   H2S19108   4.892   5.246   5.962  0.7819 -1.1352 -0.0919
  169SAPS    C319109   4.986   4.934   6.272  0.3188  0.9967 -0.6674
  169SAPS    HX19110   4.888   4.922   6.321  0.3709 -1.2884 -1.0145
  169SAPS    HY19111   5.053   4.880   6.343 -0.2423 -0.8043 -1.4486
  169SAPS   O3119112   4.986   4.871   6.140  0.0497  0.3502 -0.0965
  169SAPS   C3119113   4.875   4.875   6.069 -0.7712 -0.3331 -0.6323
  169SAPS   O3219114   4.768   4.920   6.107 -0.9224  0.3646 -0.3781
  169SAPS   C3219115   4.904   4.847   5.922  0.5669 -0.4744  0.1883
  169SAPS   H2X19116   4.998   4.789   5.915 -0.1152 -1.6608  0.5502
  169SAPS   H2Y19117   4.907   4.946   5.871  0.9577  0.0785  1.2628
  169SAPS   C2319118   4.837   5.445   6.019 -0.4521  0.8235 -0.5079
  169SAPS   H3R19119   4.873   5.531   6.078  0.3283  0.7434 -0.8502
  169SAPS   H3S19120   4.740   5.410   6.061  0.9709 -1.3235  1.2028
  169SAPS   C2419121   4.836   5.489   5.871 -0.3286 -0.4218  0.0214
  169SAPS   H4R19122   4.850   5.400   5.806 -4.0940 -0.1894 -1.3604
  169SAPS   H4S19123   4.934   5.538   5.857 -1.2007  1.1930 -0.7378
  169SAPS   C2519124   4.710   5.574   5.834  0.5138  0.1822 -0.0094
  169SAPS   H5R19125   4.668   5.629   5.920  1.1567  0.0825  0.3734
  169SAPS   C2619126   4.661   5.584   5.710 -0.0347  0.0186 -0.4110
  169SAPS   H6R19127   4.575   5.652   5.699  0.2972  0.6672  0.8157
  169SAPS   C2719128   4.695   5.499   5.589 -0.0407  0.1138  0.5495
  169SAPS   H7R19129   4.608   5.517   5.522  0.0764  2.6915  0.9667
  169SAPS   H7S19130   4.685   5.390   5.606 -0.8449  0.3358  1.5930
  169SAPS   C2819131   4.830   5.535   5.534 -0.5160  0.2886 -0.7674
  169SAPS   H8R19132   4.902   5.588   5.599  2.1260 -2.0231 -1.6255
  169SAPS   C2919133   4.858   5.516   5.403  0.1867 -0.0980  0.9991
  169SAPS   H9R19134   4.959   5.545   5.372  0.8019 -1.3025  1.8142
  169SAPS  C21019135   4.779   5.452   5.291 -0.1857 -0.0339 -0.3976
  169SAPS  H10R19136   4.707   5.382   5.338 -0.6328  1.6832  1.6740
  169SAPS  H10S19137   4.835   5.392   5.217  1.8974  0.4514  0.6891
  169SAPS  C21119138   4.695   5.561   5.227  1.0178 -0.0289  0.4069
  169SAPS  H11R19139   4.633   5.611   5.302  0.8313  1.7921 -0.8972
  169SAPS  C21219140   4.675   5.599   5.100  0.7185  0.1427  0.4233
  169SAPS  H12R19141   4.608   5.682   5.072  0.0981 -0.3530  0.4201
  169SAPS  C21319142   4.739   5.528   4.983 -0.4347  0.7072 -0.5771
  169SAPS  H13R19143   4.777   5.428   5.013 -1.3117  0.9535  1.4924
  169SAPS  H13S19144   4.834   5.580   4.955  0.0431  0.4008  0.4327
  169SAPS  C21419145   4.643   5.515   4.867  0.0135 -0.0972 -0.3768
  169SAPS  H14R19146   4.539   5.511   4.900 -0.2711  0.4291 -1.1824
  169SAPS  C21519147   4.669   5.527   4.738  0.2244 -0.0096  0.6485
  169SAPS  H15R19148   4.586   5.516   4.667 -3.2807  2.8147  3.8622
  169SAPS  C21619149   4.799   5.543   4.673  0.2301 -0.2263 -0.5519
  169SAPS  H16R19150   4.878   5.572   4.746  1.2840 -2.4606 -0.7252
  169SAPS  H16S19151   4.788   5.617   4.591  0.2128  0.6430  0.2146
  169SAPS  C21719152   4.844   5.412   4.616 -0.7488  0.1416 -0.7074
  169SAPS  H17R19153   4.851   5.337   4.697  1.3527 -1.8971 -2.6055
  169SAPS  H17S19154   4.950   5.405   4.582 -0.6262  0.5602 -0.4208
  169SAPS  C21819155   4.749   5.354   4.517  0.2739 -0.7629 -0.1087
  169SAPS  H18R19156   4.651   5.325   4.560  0.2122 -1.1885 -0.5227
  169SAPS  H18S19157   4.795   5.258   4.485 -3.6524 -2.3215 -1.6396
  169SAPS  C21919158   4.719   5.452   4.398  0.0697  0.2954  0.4227
  169SAPS  H19R19159   4.824   5.463   4.362 -0.4322 -1.7183 -1.9493
  169SAPS  H19S19160   4.683   5.554   4.422  3.3817  1.4359  1.0453
  169SAPS  C22019161   4.637   5.381   4.292 -0.3318  0.5820 -0.0167
  169SAPS  H20R19162   4.643   5.437   4.197 -2.5908 -0.1262 -0.6401
  169SAPS  H20S19163   4.529   5.369   4.314 -1.1133  4.1565 -1.2793
  169SAPS  H20T19164   4.693   5.288   4.269 -0.1755  0.0877  2.1190
  169SAPS   C3319165   4.797   4.759   5.865  0.8748 -0.3540  0.1829
  169SAPS   H3X19166   4.750   4.814   5.780  3.1884  0.5548 -0.5863
  169SAPS   H3Y19167   4.712   4.751   5.937  0.8986 -0.3031  0.2167
  169SAPS   C3419168   4.853   4.617   5.839 -0.0694 -0.4374  0.1959
  169SAPS   H4X19169   4.899   4.579   5.933 -1.1926 -1.3582  0.4073
  169SAPS   H4Y19170   4.936   4.630   5.767  1.0192  2.0086  1.7814
  169SAPS   C3519171   4.756   4.503   5.799  0.1475  0.5673  0.8597
  169SAPS   H5X19172   4.675   4.495   5.874  1.3360 -1.7543  2.0124
  169SAPS   H5Y19173   4.804   4.403   5.804 -2.3925 -0.7291  0.8705
  169SAPS   C3619174   4.690   4.519   5.662 -0.0302  0.5962  0.2038
  169SAPS   H6X19175   4.633   4.614   5.672  0.1315  0.9524 -1.8422
  169SAPS   H6Y19176   4.625   4.431   5.640  1.9571 -0.6945 -0.7829
  169SAPS   C3719177   4.785   4.545   5.538  0.4436 -0.1894 -0.0396
  169SAPS   H7X19178   4.859   4.463   5.524  1.5634  1.0277 -1.6618
  169SAPS   H7Y19179   4.843   4.634   5.569  0.1076 -0.0257  0.1205
  169SAPS   C3819180   4.720   4.567   5.403 -0.8136 -0.0015 -0.1253
  169SAPS   H8X19181   4.797   4.608   5.334  0.0738  2.0005  1.9098
  169SAPS   H8Y19182   4.638   4.642   5.410 -2.7815 -2.0421 -0.3251
  169SAPS   C3919183   4.675   4.434   5.338 -0.0448  0.3900  0.3622
  169SAPS   H9X19184   4.572   4.411   5.374 -0.6476  2.8871  0.3677
  169SAPS   H9Y19185   4.738   4.350   5.374  0.7509 -0.0926 -1.9962
  169SAPS  C31019186   4.651   4.438   5.182  0.1372  0.1260  0.0787
  169SAPS  H10X19187   4.598   4.532   5.155  0.2345  0.3858  0.7766
  169SAPS  H10Y19188   4.584   4.353   5.159  2.6158 -2.0672  0.5324
  169SAPS  C31119189   4.778   4.421   5.100 -0.5436  0.6955  0.5819
  169SAPS  H11X19190   4.861   4.375   5.158  0.6596 -0.9725 -2.2367
  169SAPS  H11Y19191   4.821   4.524   5.100  2.1056 -0.3067  2.5749
  169SAPS  C31219192   4.761   4.348   4.968  0.2114  0.4850 -0.2933
  169SAPS  H12X19193   4.704   4.407   4.894  1.5578 -0.0089 -1.7861
  169SAPS  H12Y19194   4.706   4.254   4.988 -0.0141  0.5249 -0.7272
  169SAPS  C31319195   4.895   4.306   4.902 -0.5758  0.6322  0.0614
  169SAPS  H13X19196   4.874   4.233   4.821 -3.2705  0.7099  0.5733
  169SAPS  H13Y19197   4.953   4.257   4.982 -0.6063  0.4377 -0.0356
  169SAPS  C31419198   4.950   4.422   4.825 -0.2834 -0.2226  0.4651
  169SAPS  H14X19199   4.948   4.514   4.886 -0.2333 -0.9407  1.5730
  169SAPS  H14Y19200   4.874   4.443   4.747 -0.4518 -1.6329  0.2236
  169SAPS  C31519201   5.087   4.393   4.765  0.0884 -0.4893  0.9174
  169SAPS  H15X19202   5.163   4.382   4.846  0.3025 -1.0039  0.6500
  169SAPS  H15Y19203   5.115   4.485   4.709  1.0284 -0.9380  0.6223
  169SAPS  C31619204   5.096   4.269   4.678 -0.1611  0.2186 -0.0909
  169SAPS  H16X19205   5.016   4.254   4.603 -1.2162 -0.3986  1.1167
  169SAPS  H16Y19206   5.091   4.182   4.748  1.0824  0.3326  0.1600
  169SAPS  C31719207   5.225   4.258   4.598  0.0173  0.2930 -0.1913
  169SAPS  H17X19208   5.217   4.333   4.516 -1.8343  1.0772  0.6247
  169SAPS  H17Y19209   5.234   4.159   4.549 -2.5149 -0.0661 -0.0793
  169SAPS  C31819210   5.345   4.281   4.679 -0.1101 -0.3151  0.1945
  169SAPS  H18X19211   5.375   4.387   4.695 -1.1471 -0.2147  1.7356
  169SAPS  H18Y19212   5.436   4.246   4.627 -1.3971 -0.9184 -1.7399
  169SAPS  H18Z19213   5.349   4.221   4.773  2.4626 -0.3029  0.1531
  170SAPS     N19214   0.527   3.030   6.941  0.1248  0.2340  0.5350
  170SAPS   HN119215   0.497   3.119   6.896  1.0443 -0.7175 -2.1957
  170SAPS   HN219216   0.626   3.035   6.974 -0.3652  0.3529  2.0327
  170SAPS   HN319217   0.522   2.954   6.871 -1.7499 -1.5120  2.4539
  170SAPS   C1219218   0.450   3.003   7.064  0.3236  1.1263  0.2342
  170SAPS  H12A19219   0.487   2.909   7.103 -1.0167 -0.9625 -3.0513
  170SAPS   C1319220   0.458   3.105   7.187 -0.5546 -0.0431  0.0190
  170SAPS  O13A19221   0.534   3.204   7.177 -0.7312 -0.3998 -0.8052
  170SAPS  O13B19222   0.421   3.060   7.297 -0.0804  0.4250  0.4247
  170SAPS   C1119223   0.299   2.984   7.029  0.0400  0.2420  0.4773
  170SAPS  H11A19224   0.264   3.076   6.978  1.6660 -0.4424 -2.0720
  170SAPS  H11B19225   0.259   2.957   7.129  1.3140 -0.1990  0.8885
  170SAPS     P19226   0.132   2.832   6.905 -0.0902  0.1891  0.4220
  170SAPS   O1319227   0.136   2.735   6.793  0.3135 -0.3430 -0.0427
  170SAPS   O1419228   0.084   2.775   7.038 -0.6550 -0.3613 -0.1659
  170SAPS   O1219229   0.278   2.878   6.937  0.0440 -0.6357 -0.2144
  170SAPS   O1119230   0.067   2.967   6.857  0.0244  0.4156 -0.5725
  170SAPS    C119231   0.114   3.034   6.739  0.5246 -0.4809 -0.0477
  170SAPS    HA19232   0.208   3.089   6.758  0.3293 -0.4024  0.7010
  170SAPS    HB19233   0.144   2.964   6.658  2.9037 -0.7609  0.9793
  170SAPS    C219234   0.006   3.132   6.692  0.3566  0.1278 -0.0338
  170SAPS    HS19235  -0.030   3.199   6.773 -0.0583 -0.6549  0.4423
  170SAPS   O2119236  -0.101   3.058   6.635  0.4000 -0.3560  0.1910
  170SAPS   C2119237  -0.201   3.020   6.714 -0.1420 -1.1094  0.1901
  170SAPS   O2219238  -0.208   3.036   6.837  0.1748 -0.0389  0.8567
  170SAPS   C2219239  -0.312   2.945   6.636 -0.3484 -0.0265 -0.1817
  170SAPS   H2R19240  -0.405   2.996   6.666 -1.3407 -1.0121 -1.4575
  170SAPS   H2S19241  -0.286   2.947   6.528  1.4369  0.8494  0.2204
  170SAPS    C319242   0.069   3.225   6.579 -0.0657 -0.3419 -0.2678
  170SAPS    HX19243   0.116   3.152   6.510  1.6533 -0.5588  1.0501
  170SAPS    HY19244   0.154   3.284   6.620  0.9926 -1.4864 -0.7614
  170SAPS   O3119245  -0.031   3.306   6.510 -0.5806 -0.0327  0.0608
  170SAPS   C3119246   0.001   3.332   6.380 -0.2134 -0.2622  0.3587
  170SAPS   O3219247   0.111   3.321   6.332  0.1965  0.8604  0.4685
  170SAPS   C3219248  -0.125   3.390   6.309 -0.3170  0.4948 -0.4862
  170SAPS   H2X19249  -0.161   3.475   6.371  0.7009 -0.6965  1.8501
  170SAPS   H2Y19250  -0.200   3.308   6.311  0.0951  0.1246  1.9900
  170SAPS   C2319251  -0.323   2.799   6.681  0.3068  0.5517 -0.3058
  170SAPS   H3R19252  -0.429   2.766   6.670  0.6050 -0.2954 -0.6923
  170SAPS   H3S19253  -0.316   2.789   6.792  0.0268 -1.2826 -0.4237
  170SAPS   C2419254  -0.231   2.705   6.607  0.0012 -0.1887  0.0227
  170SAPS   H4R19255  -0.224   2.622   6.681 -0.4596 -0.4969 -0.2753
  170SAPS   H4S19256  -0.135   2.760   6.606  0.1736 -0.4862 -0.6083
  170SAPS   C2519257  -0.260   2.657   6.463 -0.1892  0.5396  0.4513
  170SAPS   H5R19258  -0.343   2.586   6.449 -0.4794  0.7217  1.1982
  170SAPS   C2619259  -0.183   2.702   6.354  0.3534  0.0796  0.1693
  170SAPS   H6R19260  -0.200   2.662   6.253 -0.6575  2.3119 -0.5992
  170SAPS   C2719261  -0.066   2.803   6.355 -0.6124 -1.1042  0.1774
  170SAPS   H7R19262   0.034   2.760   6.379  0.7629  1.8519  0.2408
  170SAPS   H7S19263  -0.072   2.870   6.444  1.8735  0.8493 -1.0019
  170SAPS   C2819264  -0.076   2.890   6.233 -0.1696 -0.3842  0.6724
  170SAPS   H8R19265  -0.170   2.947   6.233  1.6754  2.9143 -0.1991
  170SAPS   C2919266  -0.007   2.907   6.123 -0.1655 -1.2050  0.1607
  170SAPS   H9R19267  -0.053   2.980   6.055 -0.5503 -1.0001  0.6359
  170SAPS  C21019268   0.130   2.854   6.092 -0.5488 -0.4642 -0.0015
  170SAPS  H10R19269   0.115   2.772   6.019  0.5702  1.4882 -2.5650
  170SAPS  H10S19270   0.172   2.817   6.188  0.8233 -0.2548 -0.5027
  170SAPS  C21119271   0.231   2.956   6.047 -0.1393 -0.7234 -0.6740
  170SAPS  H11R19272   0.233   3.051   6.103 -0.6699 -0.0871 -1.6939
  170SAPS  C21219273   0.339   2.937   5.965 -0.3045  0.1012 -0.6787
  170SAPS  H12R19274   0.393   3.030   5.941  0.2972  0.8664  3.0464
  170SAPS  C21319275   0.367   2.815   5.871 -0.0145 -0.4845 -0.0116
  170SAPS  H13R19276   0.328   2.718   5.909 -1.2706 -0.0668 -0.1935
  170SAPS  H13S19277   0.473   2.807   5.839 -0.4591 -1.3225 -1.3475
  170SAPS  C21419278   0.287   2.846   5.741  0.2869 -0.6774  0.3107
  170SAPS  H14R19279   0.178   2.849   5.746  0.2167  1.0677 -1.1654
  170SAPS  C21519280   0.341   2.872   5.618 -0.2703 -0.0953  0.2654
  170SAPS  H15R19281   0.264   2.910   5.550 -0.2788 -1.6290 -0.6452
  170SAPS  C21619282   0.483   2.864   5.558 -0.0948 -0.2993 -0.0131
  170SAPS  H16R19283   0.561   2.906   5.625 -0.4499  1.5855 -0.7220
  170SAPS  H16S19284   0.490   2.922   5.464  0.8543  0.8286  0.7294
  170SAPS  C21719285   0.549   2.727   5.504  0.3360  0.1474 -0.1076
  170SAPS  H17R19286   0.531   2.653   5.585 -0.3374 -0.3718 -0.7269
  170SAPS  H17S19287   0.659   2.741   5.507  0.1344  1.8598  0.6501
  170SAPS  C21819288   0.482   2.671   5.377  0.4887 -0.3289  0.2864
  170SAPS  H18R19289   0.513   2.744   5.298 -2.8931 -1.7881 -2.6661
  170SAPS  H18S19290   0.372   2.677   5.387  0.5134 -0.1160  0.4493
  170SAPS  C21919291   0.528   2.530   5.340  0.1285 -0.1157  0.1186
  170SAPS  H19R19292   0.507   2.468   5.429 -1.8413 -0.0355 -0.2392
  170SAPS  H19S19293   0.638   2.527   5.322  0.0671 -0.7406 -0.1678
  170SAPS  C22019294   0.452   2.469   5.219  0.1149 -0.1792  0.0366
  170SAPS  H20R19295   0.454   2.528   5.125 -2.7075 -1.8351 -1.2213
  170SAPS  H20S19296   0.344   2.466   5.245 -0.2662  1.2118 -1.2562
  170SAPS  H20T19297   0.465   2.363   5.187 -1.7164 -0.4080 -0.0645
  170SAPS   C3319298  -0.090   3.432   6.165 -0.2954 -1.4298  0.2694
  170SAPS   H3X19299   0.000   3.495   6.171  0.5662 -2.6000  0.0316
  170SAPS   H3Y19300  -0.174   3.500   6.139 -1.0431 -1.7681  1.6410
  170SAPS   C3419301  -0.096   3.324   6.065 -0.2518  0.5023 -0.2484
  170SAPS   H4X19302  -0.189   3.273   6.097  0.1680  0.8135  1.5724
  170SAPS   H4Y19303  -0.017   3.248   6.084 -2.2037 -1.0897  2.1137
  170SAPS   C3519304  -0.110   3.372   5.917  0.1589 -0.2932  0.2902
  170SAPS   H5X19305  -0.018   3.433   5.899  0.4805 -0.7388  0.4034
  170SAPS   H5Y19306  -0.191   3.448   5.918 -0.2675 -0.6963 -1.3660
  170SAPS   C3619307  -0.134   3.267   5.807 -0.1944 -0.7815 -0.2505
  170SAPS   H6X19308  -0.233   3.219   5.825 -1.3772  0.8404 -2.0259
  170SAPS   H6Y19309  -0.052   3.192   5.807  0.2610 -0.3212 -2.1082
  170SAPS   C3719310  -0.138   3.327   5.664  0.7582  0.0417 -0.0017
  170SAPS   H7X19311  -0.053   3.397   5.646  0.2808  0.7167  0.3260
  170SAPS   H7Y19312  -0.234   3.381   5.652  1.7704  1.6669 -1.2708
  170SAPS   C3819313  -0.140   3.215   5.560  0.0487 -0.0161  0.3576
  170SAPS   H8X19314  -0.228   3.151   5.581  0.8998 -1.7490 -1.1035
  170SAPS   H8Y19315  -0.057   3.142   5.571  0.1253 -0.0080 -0.1408
  170SAPS   C3919316  -0.148   3.254   5.402  0.3749  0.0044 -0.2680
  170SAPS   H9X19317  -0.072   3.327   5.369 -0.7991  1.5921  0.4270
  170SAPS   H9Y19318  -0.253   3.289   5.389 -0.2118 -1.6946 -0.3828
  170SAPS  C31019319  -0.144   3.138   5.310 -0.7129 -0.1806  0.0705
  170SAPS  H10X19320  -0.219   3.064   5.343  1.2219 -1.4959  1.7197
  170SAPS  H10Y19321  -0.041   3.097   5.310 -0.5892  0.1258  0.0489
  170SAPS  C31119322  -0.186   3.195   5.166 -0.0238  0.3547  0.1876
  170SAPS  H11X19323  -0.147   3.292   5.132 -0.5515  0.7786  0.7494
  170SAPS  H11Y19324  -0.297   3.199   5.167 -0.0232  0.4631  1.4086
  170SAPS  C31219325  -0.155   3.089   5.060 -0.0699 -0.3594  0.0381
  170SAPS  H12X19326  -0.228   3.005   5.064 -1.1402  0.6115  2.0168
  170SAPS  H12Y19327  -0.054   3.044   5.075 -1.5823 -4.3970 -0.6967
  170SAPS  C31319328  -0.152   3.141   4.913  0.1005 -0.1339  0.1386
  170SAPS  H13X19329  -0.095   3.235   4.924 -0.0508 -0.2246  2.1452
  170SAPS  H13Y19330  -0.253   3.173   4.879 -1.2518 -1.3590  2.7047
  170SAPS  C31419331  -0.098   3.051   4.805  0.4127 -0.4793 -0.6874
  170SAPS  H14X19332   0.004   3.027   4.842  0.4710 -0.0512 -0.5566
  170SAPS  H14Y19333  -0.083   3.099   4.707 -2.3054  4.2503  0.8693
  170SAPS  C31519334  -0.188   2.925   4.797  0.6679  0.1569 -0.4391
  170SAPS  H15X19335  -0.177   2.855   4.883 -2.5472 -1.1374 -0.9373
  170SAPS  H15Y19336  -0.154   2.867   4.708  0.7036 -0.0567 -0.2861
  170SAPS  C31619337  -0.343   2.939   4.781 -0.2440 -0.0589  0.3175
  170SAPS  H16X19338  -0.350   3.020   4.707 -1.1772  0.9190  1.4362
  170SAPS  H16Y19339  -0.389   2.976   4.875 -1.3793  2.1386 -1.0213
  170SAPS  C31719340  -0.404   2.811   4.728  0.0904  0.1921 -0.6952
  170SAPS  H17X19341  -0.388   2.727   4.798 -2.2965  0.1571 -0.1137
  170SAPS  H17Y19342  -0.354   2.777   4.635  1.3125  0.1358 -0.0354
  170SAPS  C31819343  -0.560   2.817   4.710 -0.1309  0.0360 -0.1116
  170SAPS  H18X19344  -0.597   2.715   4.684  0.2780  0.0563 -0.7952
  170SAPS  H18Y19345  -0.595   2.882   4.627 -0.5577 -0.4176 -0.2886
  170SAPS  H18Z19346  -0.610   2.845   4.805  2.3546  3.1417  0.4509
  171SAPS     N19347   0.607   4.814   7.055 -0.0482 -0.4160 -0.2802
  171SAPS   HN119348   0.680   4.767   7.113  0.9901  1.1997 -0.2332
  171SAPS   HN219349   0.644   4.906   7.023  1.8850 -0.8557  0.5355
  171SAPS   HN319350   0.514   4.830   7.098  0.3262  0.7154  0.1329
  171SAPS   C1219351   0.582   4.736   6.934 -0.4101  0.7818 -0.0411
  171SAPS  H12A19352   0.674   4.738   6.876 -0.7349 -0.8967 -0.6560
  171SAPS   C1319353   0.557   4.581   6.963 -0.7365  0.1743 -0.3232
  171SAPS  O13A19354   0.558   4.548   7.085  0.6411 -0.3471 -0.8120
  171SAPS  O13B19355   0.514   4.507   6.871 -0.1859 -0.1995  0.3179
  171SAPS   C1119356   0.451   4.791   6.859  0.0107 -0.9145 -0.2107
  171SAPS  H11A19357   0.357   4.781   6.916 -1.2614  1.6610 -1.6605
  171SAPS  H11B19358   0.431   4.725   6.771 -1.4458 -1.0540  0.2166
  171SAPS     P19359   0.380   5.039   6.857 -0.5486 -0.1962 -0.2820
  171SAPS   O1319360   0.352   5.020   7.002  0.0370 -0.0083  0.4373
  171SAPS   O1419361   0.438   5.166   6.813  0.1047 -0.3976 -0.0192
  171SAPS   O1219362   0.469   4.921   6.806  0.3440 -0.1752  0.0185
  171SAPS   O1119363   0.232   5.015   6.788  0.2608  0.4237 -0.2751
  171SAPS    C119364   0.186   4.898   6.713  0.2548  0.0630  0.1953
  171SAPS    HA19365   0.210   4.809   6.774  0.1350  0.2835  0.5726
  171SAPS    HB19366   0.076   4.905   6.697  0.5748 -1.7434 -3.7967
  171SAPS    C219367   0.256   4.881   6.574  0.1852 -0.0411  0.0526
  171SAPS    HS19368   0.357   4.838   6.592 -0.6546 -1.4702  1.6118
  171SAPS   O2119369   0.274   5.004   6.497  0.4449  0.1585  0.4229
  171SAPS   C2119370   0.374   5.019   6.410 -0.2256  0.1145 -0.5866
  171SAPS   O2219371   0.466   4.940   6.399  0.3413 -0.4024  0.0308
  171SAPS   C2219372   0.354   5.147   6.336 -0.1857 -0.1604 -0.1705
  171SAPS   H2R19373   0.247   5.172   6.355 -0.1200 -0.4470  0.5967
  171SAPS   H2S19374   0.414   5.227   6.383  0.2446 -0.5745 -0.0057
  171SAPS    C319375   0.180   4.772   6.495 -0.5879  0.5171  0.5443
  171SAPS    HX19376   0.072   4.797   6.505 -1.6641 -3.5859  0.7018
  171SAPS    HY19377   0.183   4.679   6.555 -0.4761  0.3877  0.3405
  171SAPS   O3119378   0.216   4.743   6.358  0.3413 -0.1819 -0.3465
  171SAPS   C3119379   0.329   4.674   6.336 -0.4653 -0.3010  0.5353
  171SAPS   O3219380   0.405   4.635   6.427  0.6545 -0.7252  0.0399
  171SAPS   C3219381   0.323   4.637   6.185 -0.2360  0.0555  0.2341
  171SAPS   H2X19382   0.265   4.708   6.122  0.2899  0.5011  0.2470
  171SAPS   H2Y19383   0.274   4.537   6.186 -1.6422  0.7178  0.4252
  171SAPS   C2319384   0.398   5.131   6.186  1.3515 -0.4397 -0.0914
  171SAPS   H3R19385   0.498   5.090   6.162  1.0929 -2.4732  1.9449
  171SAPS   H3S19386   0.392   5.229   6.134 -0.0127 -0.0974  0.6452
  171SAPS   C2419387   0.288   5.046   6.112 -0.6304  0.9019  0.4306
  171SAPS   H4R19388   0.265   4.950   6.163  0.4459  1.0623  1.2432
  171SAPS   H4S19389   0.335   5.013   6.016  1.6355  2.5095  0.9094
  171SAPS   C2519390   0.161   5.121   6.096 -0.3626  0.5467 -0.5622
  171SAPS   H5R19391   0.113   5.136   6.194 -0.0937  2.3734 -0.6796
  171SAPS   C2619392   0.104   5.166   5.981 -0.5633 -0.3499 -0.6852
  171SAPS   H6R19393   0.019   5.236   5.991 -0.4030 -0.2777  0.3152
  171SAPS   C2719394   0.159   5.162   5.843  0.4668  0.2897 -0.3066
  171SAPS   H7R19395   0.270   5.169   5.851  0.6382 -2.8843  2.5538
  171SAPS   H7S19396   0.130   5.247   5.778 -2.7872 -0.1300  0.4346
  171SAPS   C2819397   0.122   5.033   5.774 -0.1720 -0.3701 -0.3187
  171SAPS   H8R19398   0.178   4.945   5.808  1.8664  1.4879  1.4943
  171SAPS   C2919399   0.066   5.024   5.654  0.2318 -0.0598 -0.3737
  171SAPS   H9R19400   0.031   4.931   5.607 -1.9581  1.8747 -2.8860
  171SAPS  C21019401   0.032   5.143   5.564 -0.2315  1.0145  0.3207
  171SAPS  H10R19402   0.008   5.238   5.616 -0.8507  0.8701  0.3151
  171SAPS  H10S19403  -0.058   5.112   5.506 -0.4316  0.0110  1.1450
  171SAPS  C21119404   0.135   5.166   5.458 -0.2991 -0.3233  0.2167
  171SAPS  H11R19405   0.230   5.210   5.494 -1.4215  2.7635 -0.2799
  171SAPS  C21219406   0.138   5.125   5.333 -0.3131  0.2867  0.3703
  171SAPS  H12R19407   0.226   5.150   5.272  0.2897 -0.1199  1.0682
  171SAPS  C21319408   0.034   5.056   5.257 -0.3160  0.5895  0.9445
  171SAPS  H13R19409  -0.042   5.016   5.327  0.6330  1.2898  2.4227
  171SAPS  H13S19410   0.088   4.976   5.202 -1.3030  1.4120 -1.3735
  171SAPS  C21419411  -0.045   5.156   5.167 -0.2300  0.1190 -0.0103
  171SAPS  H14R19412  -0.134   5.197   5.217  0.4581 -0.4452  1.7356
  171SAPS  C21519413  -0.004   5.190   5.044  0.4193 -0.1589  0.5116
  171SAPS  H15R19414  -0.064   5.271   5.000  0.4686 -0.2284  0.3138
  171SAPS  C21619415   0.124   5.161   4.965  1.0055  0.6443  0.0286
  171SAPS  H16R19416   0.201   5.126   5.036  1.4719  2.2921  0.3711
  171SAPS  H16S19417   0.162   5.259   4.930 -2.0587  1.6387 -0.8674
  171SAPS  C21719418   0.102   5.069   4.845  0.4207 -0.4453  0.7376
  171SAPS  H17R19419   0.000   5.085   4.802 -0.5235 -0.6856  2.7965
  171SAPS  H17S19420   0.106   4.967   4.888 -0.1616  0.0386  1.9676
  171SAPS  C21819421   0.209   5.080   4.740  0.2664  0.7112  0.0034
  171SAPS  H18R19422   0.228   4.977   4.702 -0.5569  0.9632 -1.1419
  171SAPS  H18S19423   0.304   5.122   4.778  1.0032 -0.7023 -0.2037
  171SAPS  C21919424   0.166   5.158   4.613  0.0364 -0.3445 -0.2005
  171SAPS  H19R19425   0.160   5.266   4.638 -0.1788  0.1424 -2.1298
  171SAPS  H19S19426   0.074   5.128   4.558  0.9242  0.3528 -2.1868
  171SAPS  C22019427   0.278   5.131   4.511  0.3033 -0.0123 -0.4091
  171SAPS  H20R19428   0.261   5.161   4.406  1.4681 -0.2063 -0.6670
  171SAPS  H20S19429   0.290   5.021   4.497  0.2352  0.1084 -1.4535
  171SAPS  H20T19430   0.378   5.167   4.544 -0.2164  1.1600 -0.0739
  171SAPS   C3319431   0.466   4.622   6.134 -0.3182  0.5074 -0.4515
  171SAPS   H3X19432   0.515   4.530   6.173 -0.7424 -0.4964 -2.1637
  171SAPS   H3Y19433   0.533   4.703   6.168  0.6610 -0.6415  0.4167
  171SAPS   C3419434   0.477   4.631   5.980 -0.7103 -0.0601  0.1902
  171SAPS   H4X19435   0.584   4.622   5.953 -0.4389 -0.3199  1.3027
  171SAPS   H4Y19436   0.450   4.734   5.949  0.1884  0.2595  0.4504
  171SAPS   C3519437   0.399   4.520   5.911  0.1306  0.5025  0.2719
  171SAPS   H5X19438   0.292   4.519   5.940  0.1104  0.2472  0.1940
  171SAPS   H5Y19439   0.438   4.422   5.948 -0.9639 -0.9162 -2.0772
  171SAPS   C3619440   0.405   4.519   5.759  0.0286  0.1365 -0.0390
  171SAPS   H6X19441   0.356   4.427   5.720  1.8266 -0.9135  0.0211
  171SAPS   H6Y19442   0.514   4.511   5.736 -0.1955 -0.0391 -1.0668
  171SAPS   C3719443   0.337   4.640   5.702  0.0866 -0.3079  0.1280
  171SAPS   H7X19444   0.355   4.736   5.755 -0.0164 -1.0690  1.5735
  171SAPS   H7Y19445   0.228   4.624   5.707 -0.0480 -1.0524 -3.2210
  171SAPS   C3819446   0.361   4.665   5.549  0.0866  0.1640  0.1879
  171SAPS   H8X19447   0.299   4.595   5.487  1.9483 -2.2914  0.9317
  171SAPS   H8Y19448   0.464   4.642   5.514 -0.4882 -0.4837 -1.1768
  171SAPS   C3919449   0.314   4.811   5.514  0.1742 -0.1682  0.5443
  171SAPS   H9X19450   0.320   4.875   5.605  1.0675  0.6861 -0.0941
  171SAPS   H9Y19451   0.207   4.806   5.482  0.1115  1.6230  0.3717
  171SAPS  C31019452   0.400   4.877   5.410  0.0029  0.3104  0.2709
  171SAPS  H10X19453   0.508   4.858   5.428 -0.5250  0.7208  5.1306
  171SAPS  H10Y19454   0.396   4.988   5.414  0.2365  0.3379 -0.2294
  171SAPS  C31119455   0.360   4.838   5.260 -0.5363 -0.5091  0.1322
  171SAPS  H11X19456   0.271   4.897   5.232  0.1192  0.1383 -0.6495
  171SAPS  H11Y19457   0.330   4.731   5.267 -0.6173 -0.7987 -3.0324
  171SAPS  C31219458   0.485   4.836   5.165  0.0096  0.3200  0.2878
  171SAPS  H12X19459   0.558   4.770   5.217  1.2135  1.9278  0.7032
  171SAPS  H12Y19460   0.533   4.936   5.166  0.4860  0.1013  2.1033
  171SAPS  C31319461   0.449   4.793   5.020 -0.8589 -0.2847  0.4901
  171SAPS  H13X19462   0.376   4.866   4.979 -1.3776 -0.9886  0.1522
  171SAPS  H13Y19463   0.402   4.693   5.013  1.7136 -1.7475  2.3885
  171SAPS  C31419464   0.571   4.801   4.917  0.3862 -0.1924 -0.2280
  171SAPS  H14X19465   0.622   4.704   4.933  1.4147  0.7107  2.7155
  171SAPS  H14Y19466   0.639   4.883   4.950 -0.2918  1.9943 -3.7536
  171SAPS  C31519467   0.529   4.811   4.772 -0.0720 -0.1154  0.3254
  171SAPS  H15X19468   0.456   4.893   4.758 -2.0039 -1.6800  0.6360
  171SAPS  H15Y19469   0.469   4.719   4.755 -0.1168  0.0329 -0.3253
  171SAPS  C31619470   0.643   4.817   4.672 -0.1406 -0.0837  0.1618
  171SAPS  H16X19471   0.716   4.744   4.714 -0.7654 -0.4248  0.6683
  171SAPS  H16Y19472   0.687   4.919   4.663 -0.6560  0.1387  0.1499
  171SAPS  C31719473   0.607   4.763   4.533  0.9395 -0.0586  0.2393
  171SAPS  H17X19474   0.564   4.663   4.558  0.8881 -0.1633 -0.2600
  171SAPS  H17Y19475   0.696   4.755   4.467  0.0657  1.3106 -1.1746
  171SAPS  C31819476   0.510   4.856   4.457  0.1270  0.0665  0.2669
  171SAPS  H18X19477   0.513   4.961   4.495  1.1900 -0.1730  0.8700
  171SAPS  H18Y19478   0.404   4.829   4.474  0.1968 -0.1263  0.4058
  171SAPS  H18Z19479   0.536   4.855   4.349 -1.2189 -0.7565 -0.0706
  172SAPS     N19480   1.248   2.975   6.903 -0.0185  0.9070 -0.2138
  172SAPS   HN119481   1.263   2.960   7.005  0.0336  1.4132 -0.1452
  172SAPS   HN219482   1.342   2.959   6.863  0.5454 -0.5601  1.5475
  172SAPS   HN319483   1.217   3.073   6.890 -3.2531  0.0180 -0.0751
  172SAPS   C1219484   1.159   2.873   6.838 -0.7088  0.5051 -0.1745
  172SAPS  H12A19485   1.197   2.776   6.868 -1.6689  0.1803  0.0100
  172SAPS   C1319486   1.015   2.870   6.907  0.1646 -0.1406 -0.3142
  172SAPS  O13A19487   1.012   2.910   7.025  0.1002 -0.1256  0.1321
  172SAPS  O13B19488   0.922   2.798   6.855  0.8308  0.0582 -0.3691
  172SAPS   C1119489   1.140   2.908   6.686 -0.4056  0.0087 -0.3226
  172SAPS  H11A19490   1.065   2.838   6.644 -1.6839  0.0257  1.7695
  172SAPS  H11B19491   1.238   2.904   6.635 -0.0108 -0.3221  0.4424
  172SAPS     P19492   1.147   3.146   6.562 -0.2574  0.0523  0.0056
  172SAPS   O1319493   1.087   3.278   6.592  0.1172  0.2437 -0.6406
  172SAPS   O1419494   1.294   3.134   6.548  0.6994  0.0455  0.0372
  172SAPS   O1219495   1.096   3.045   6.670  0.2223 -0.0999  0.5481
  172SAPS   O1119496   1.079   3.095   6.426 -0.5914  0.1457  0.0368
  172SAPS    C119497   0.938   3.067   6.422 -0.2061 -0.0765 -0.2699
  172SAPS    HA19498   0.930   2.959   6.396 -0.7923 -0.0480 -0.2217
  172SAPS    HB19499   0.883   3.078   6.518 -2.7678 -1.9980 -1.3814
  172SAPS    C219500   0.863   3.153   6.309  0.4273 -0.1625 -0.2299
  172SAPS    HS19501   0.755   3.140   6.330  0.9263 -1.3367  1.8085
  172SAPS   O2119502   0.906   3.111   6.176 -0.4410  0.3582  0.2106
  172SAPS   C2119503   0.801   3.076   6.102 -0.0377  0.6680  0.0643
  172SAPS   O2219504   0.682   3.085   6.129 -0.0518  0.0850  0.2411
  172SAPS   C2219505   0.857   3.014   5.968 -0.2240 -0.5291  0.2573
  172SAPS   H2R19506   0.940   3.081   5.936 -0.9513  0.6095  0.6908
  172SAPS   H2S19507   0.884   2.909   5.994 -1.2679 -0.9450 -0.2925
  172SAPS    C319508   0.892   3.295   6.329  0.1569 -0.6991 -0.6619
  172SAPS    HX19509   1.002   3.312   6.327  0.0737 -0.0226  0.0835
  172SAPS    HY19510   0.873   3.322   6.435  3.5738  1.0339 -0.3330
  172SAPS   O3119511   0.816   3.387   6.240 -0.0122  0.3563  0.1046
  172SAPS   C3119512   0.834   3.521   6.270  0.5248 -0.2741  0.1506
  172SAPS   O3219513   0.908   3.557   6.359  0.2201 -0.8608  1.2942
  172SAPS   C3219514   0.756   3.619   6.177  0.3755  0.0731 -0.2287
  172SAPS   H2X19515   0.773   3.719   6.222  2.0384 -1.4329  2.7560
  172SAPS   H2Y19516   0.647   3.595   6.178  0.5332 -1.2676 -3.2366
  172SAPS   C2319517   0.754   2.999   5.855  0.3438 -0.1177 -0.1833
  172SAPS   H3R19518   0.670   2.935   5.890 -2.5533  3.0562 -0.8090
  172SAPS   H3S19519   0.789   2.934   5.771 -0.6553 -0.8182 -0.0806
  172SAPS   C2419520   0.712   3.131   5.799 -0.5512 -0.1517  0.0332
  172SAPS   H4R19521   0.675   3.196   5.882  0.4525  1.1122 -0.4714
  172SAPS   H4S19522   0.622   3.121   5.735 -1.7473  2.9110  1.0167
  172SAPS   C2519523   0.824   3.209   5.730  0.3601 -0.5224  0.4468
  172SAPS   H5R19524   0.877   3.286   5.787  0.1620 -0.8528  1.0845
  172SAPS   C2619525   0.853   3.216   5.596 -0.3000  0.1406  0.5013
  172SAPS   H6R19526   0.928   3.292   5.573 -0.6238 -0.0185 -1.2187
  172SAPS   C2719527   0.782   3.129   5.485  0.3745  0.0682 -0.5880
  172SAPS   H7R19528   0.753   3.030   5.527  1.8579  0.0340  0.4501
  172SAPS   H7S19529   0.851   3.105   5.401  0.6513 -0.9971 -0.0770
  172SAPS   C2819530   0.658   3.209   5.443  0.1219  0.1412 -0.1496
  172SAPS   H8R19531   0.562   3.191   5.493  0.0634  0.1275 -0.2665
  172SAPS   C2919532   0.653   3.289   5.336 -0.1265  0.3324  0.3144
  172SAPS   H9R19533   0.554   3.319   5.298  0.0040 -0.3903 -0.6343
  172SAPS  C21019534   0.767   3.327   5.248 -0.3277 -0.3552  0.3434
  172SAPS  H10R19535   0.862   3.352   5.300  1.5440  0.5258 -3.1539
  172SAPS  H10S19536   0.742   3.425   5.204 -1.9449  0.3146  2.5986
  172SAPS  C21119537   0.811   3.228   5.138  0.1863 -0.2020 -0.2904
  172SAPS  H11R19538   0.775   3.124   5.142 -0.8961  0.1921  0.7500
  172SAPS  C21219539   0.896   3.268   5.044 -0.5404  0.2975 -0.3746
  172SAPS  H12R19540   0.927   3.197   4.966 -0.6088 -2.0587  1.6160
  172SAPS  C21319541   0.954   3.405   5.039 -0.3600  0.1508  0.3223
  172SAPS  H13R19542   0.979   3.437   5.143  0.2374 -1.2989  0.6528
  172SAPS  H13S19543   0.877   3.480   5.010  0.8051  2.1855  2.1318
  172SAPS  C21419544   1.085   3.423   4.967 -0.6860  0.0162  0.2383
  172SAPS  H14R19545   1.170   3.377   5.021 -0.2076 -0.5729 -0.9712
  172SAPS  C21519546   1.116   3.472   4.848  0.2070  0.1127 -0.1373
  172SAPS  H15R19547   1.222   3.476   4.820  0.3969  1.5920  0.6665
  172SAPS  C21619548   1.023   3.545   4.751  0.0406  0.6408  0.0679
  172SAPS  H16R19549   1.039   3.655   4.749  0.8526  0.5195 -0.4173
  172SAPS  H16S19550   0.914   3.532   4.767 -0.0159  0.9969 -0.0260
  172SAPS  C21719551   1.057   3.485   4.606  0.3044  0.2906 -0.6655
  172SAPS  H17R19552   0.992   3.533   4.530 -0.1252 -0.1528 -0.5815
  172SAPS  H17S19553   1.028   3.378   4.605  2.4772 -0.3565 -1.9212
  172SAPS  C21819554   1.202   3.492   4.556 -0.5278  0.2140 -0.1889
  172SAPS  H18R19555   1.209   3.450   4.453  0.3132 -2.3685  0.8414
  172SAPS  H18S19556   1.270   3.429   4.617  0.6096  1.0391 -0.5861
  172SAPS  C21919557   1.264   3.634   4.545 -0.4077  0.1251 -0.1341
  172SAPS  H19R19558   1.234   3.706   4.624 -1.7505 -0.7564  0.1845
  172SAPS  H19S19559   1.223   3.685   4.455  0.2889 -0.1430 -0.6156
  172SAPS  C22019560   1.418   3.637   4.538 -0.6523 -0.3991  0.2860
  172SAPS  H20R19561   1.462   3.598   4.633  0.4462  1.3466  0.5267
  172SAPS  H20S19562   1.446   3.743   4.522 -0.3221 -0.6225 -0.6896
  172SAPS  H20T19563   1.451   3.577   4.451 -2.1839  2.1932 -2.2430
  172SAPS   C3319564   0.802   3.607   6.025 -0.4456 -0.0799  0.5942
  172SAPS   H3X19565   0.764   3.512   5.982  1.8014 -0.9065  0.2683
  172SAPS   H3Y19566   0.912   3.600   6.008 -0.4212 -0.4185  0.8607
  172SAPS   C3419567   0.746   3.717   5.935 -0.1152 -0.0304 -0.1319
  172SAPS   H4X19568   0.773   3.692   5.830 -1.1278 -0.6254 -0.2619
  172SAPS   H4Y19569   0.796   3.812   5.966  0.0025 -0.0689 -0.2019
  172SAPS   C3519570   0.593   3.733   5.938 -0.1388  0.1297 -0.0925
  172SAPS   H5X19571   0.576   3.756   6.046  2.0760  1.9573 -0.0424
  172SAPS   H5Y19572   0.548   3.633   5.922 -0.1588 -0.2463  2.0079
  172SAPS   C3619573   0.542   3.842   5.839 -0.6790 -0.4603  0.1450
  172SAPS   H6X19574   0.572   3.938   5.885  1.4453 -0.6276 -0.7766
  172SAPS   H6Y19575   0.431   3.846   5.832 -0.7342 -2.4537 -0.9131
  172SAPS   C3719576   0.584   3.843   5.687 -0.2331  0.0972  1.3788
  172SAPS   H7X19577   0.694   3.850   5.681 -0.2860  0.1195  0.2931
  172SAPS   H7Y19578   0.551   3.939   5.643 -1.5571 -0.1693  1.7387
  172SAPS   C3819579   0.524   3.728   5.612 -0.4003 -0.2768 -0.1001
  172SAPS   H8X19580   0.418   3.700   5.628 -1.1759  2.4365 -0.0386
  172SAPS   H8Y19581   0.573   3.632   5.639 -2.5852 -0.6341  3.1975
  172SAPS   C3919582   0.532   3.754   5.460  0.3133 -0.3888 -0.3706
  172SAPS   H9X19583   0.636   3.786   5.439 -0.4650  1.2948 -1.9425
  172SAPS   H9Y19584   0.469   3.844   5.445 -0.1990 -0.6221  0.3364
  172SAPS  C31019585   0.486   3.639   5.375 -0.0617 -0.5258  0.9495
  172SAPS  H10X19586   0.475   3.548   5.437  0.8354 -1.2021  0.1491
  172SAPS  H10Y19587   0.570   3.624   5.304 -0.2799 -0.3583  0.6556
  172SAPS  C31119588   0.360   3.684   5.301 -0.4575 -0.4227  0.3458
  172SAPS  H11X19589   0.290   3.736   5.370 -1.2576  1.2256 -1.5924
  172SAPS  H11Y19590   0.305   3.593   5.268 -0.4767  0.1125 -1.1968
  172SAPS  C31219591   0.384   3.761   5.169  0.1982 -0.8766 -0.2096
  172SAPS  H12X19592   0.482   3.731   5.127  0.1024 -0.0698 -1.0356
  172SAPS  H12Y19593   0.384   3.870   5.190 -0.1634 -0.9043 -0.0513
  172SAPS  C31319594   0.277   3.733   5.066 -0.1834  0.4266  0.0057
  172SAPS  H13X19595   0.186   3.794   5.083 -0.7565 -0.6273  0.8322
  172SAPS  H13Y19596   0.251   3.626   5.075 -0.6554  0.5240 -0.1749
  172SAPS  C31419597   0.318   3.757   4.926  0.2740  0.0064 -0.2996
  172SAPS  H14X19598   0.406   3.699   4.888  0.9771  2.0463 -1.9351
  172SAPS  H14Y19599   0.342   3.865   4.916 -1.0717  0.3992  0.5337
  172SAPS  C31519600   0.208   3.727   4.817 -0.7127 -0.1826  0.4548
  172SAPS  H15X19601   0.120   3.786   4.851 -0.2613 -0.7302  2.7311
  172SAPS  H15Y19602   0.177   3.622   4.836 -1.7503 -0.4043 -2.0166
  172SAPS  C31619603   0.231   3.755   4.672 -0.2676  0.5367 -0.0258
  172SAPS  H16X19604   0.137   3.791   4.625 -1.1926 -0.3624  1.0693
  172SAPS  H16Y19605   0.308   3.833   4.654 -0.0174 -0.2355 -2.7538
  172SAPS  C31719606   0.263   3.627   4.602 -0.1182  0.5168  0.5022
  172SAPS  H17X19607   0.184   3.550   4.612  1.8396 -1.3992  2.4042
  172SAPS  H17Y19608   0.347   3.576   4.653 -0.9859 -0.2656  1.1769
  172SAPS  C31819609   0.291   3.649   4.445  0.0585  0.1404 -0.1045
  172SAPS  H18X19610   0.314   3.544   4.414 -4.8038 -0.7889 -1.4611
  172SAPS  H18Y19611   0.373   3.719   4.417 -1.9689  1.7589 -2.3674
  172SAPS  H18Z19612   0.197   3.677   4.394  0.9857  0.5053 -1.6735
  173SAPS     N19613   0.143   1.541   1.459  0.2303 -0.8976 -0.1307
  173SAPS   HN119614   0.054   1.556   1.407  0.0778  0.8820  0.5657
  173SAPS   HN219615   0.181   1.632   1.492 -0.5130 -0.7306  0.2876
  173SAPS   HN319616   0.211   1.512   1.386  0.4577  1.7244 -1.0619
  173SAPS   C1219617   0.114   1.446   1.564 -0.7195  0.0636  0.2971
  173SAPS  H12A19618   0.015   1.463   1.606 -0.6134  0.3863  0.4221
  173SAPS   C1319619   0.112   1.300   1.516  0.0427 -0.3824  0.2619
  173SAPS  O13A19620   0.138   1.270   1.393  0.4252 -0.3408 -0.5373
  173SAPS  O13B19621   0.068   1.213   1.598 -0.3264  0.2430  0.9243
  173SAPS   C1119622   0.232   1.469   1.671  0.1388  0.2284  0.4377
  173SAPS  H11A19623   0.326   1.442   1.618 -0.9679 -2.3848 -0.3294
  173SAPS  H11B19624   0.210   1.395   1.751  1.2796 -2.0229 -1.2154
  173SAPS     P19625   0.309   1.645   1.847  0.0290  0.2994 -0.0051
  173SAPS   O1319626   0.449   1.644   1.808 -0.2879 -0.6394  0.1650
  173SAPS   O1419627   0.260   1.771   1.898  0.0135 -0.2284 -0.4531
  173SAPS   O1219628   0.217   1.599   1.735 -0.6488 -0.6880  0.0685
  173SAPS   O1119629   0.289   1.536   1.961 -0.2500 -0.1599  0.0098
  173SAPS    C119630   0.162   1.536   2.027  0.5137 -0.2118  0.2253
  173SAPS    HA19631   0.131   1.637   2.063 -0.0856 -0.2555 -0.1450
  173SAPS    HB19632   0.075   1.520   1.959 -0.1941  3.0351  0.1785
  173SAPS    C219633   0.169   1.447   2.147  0.9008  0.6149  0.0110
  173SAPS    HS19634   0.066   1.416   2.176  1.4229 -2.2425 -0.8901
  173SAPS   O2119635   0.236   1.502   2.254 -0.0500  0.2335  0.3336
  173SAPS   C2119636   0.169   1.588   2.324  0.0686  0.5080  0.0120
  173SAPS   O2219637   0.054   1.624   2.295 -0.1731 -0.3317 -0.9008
  173SAPS   C2219638   0.250   1.621   2.451  0.5273 -0.1772 -0.3827
  173SAPS   H2R19639   0.339   1.556   2.470  2.0601  2.2868  1.5008
  173SAPS   H2S19640   0.286   1.725   2.442  1.9110 -0.7497 -2.1103
  173SAPS    C319641   0.240   1.312   2.107 -0.8047  0.7651  0.5090
  173SAPS    HX19642   0.346   1.329   2.079  0.9350 -3.6769  3.2895
  173SAPS    HY19643   0.182   1.283   2.017  0.4266  1.4611 -0.5302
  173SAPS   O3119644   0.243   1.209   2.210  0.2062 -0.2250  0.3632
  173SAPS   C3119645   0.122   1.150   2.235  0.2328  0.6810  0.0575
  173SAPS   O3219646   0.029   1.148   2.163  0.6090 -0.5099 -0.5999
  173SAPS   C3219647   0.132   1.089   2.370 -0.9996  0.5057 -0.5287
  173SAPS   H2X19648   0.143   1.166   2.450 -0.9958 -1.3932  1.4059
  173SAPS   H2Y19649   0.219   1.020   2.372 -2.2644 -1.1387 -0.3716
  173SAPS   C2319650   0.159   1.613   2.580  0.1264  0.2386  0.5079
  173SAPS   H3R19651   0.060   1.658   2.560 -0.2957  0.2934  2.4785
  173SAPS   H3S19652   0.198   1.667   2.669 -1.9312  2.0481  0.3956
  173SAPS   C2419653   0.125   1.462   2.606 -0.6381  0.6778  0.7184
  173SAPS   H4R19654   0.092   1.417   2.510  1.0778 -0.1644  0.4948
  173SAPS   H4S19655   0.034   1.450   2.669 -2.0538  0.4303 -1.2708
  173SAPS   C2519656   0.248   1.396   2.670 -0.5720  0.0225  0.2878
  173SAPS   H5R19657   0.323   1.354   2.601  0.8593  0.2621  1.6361
  173SAPS   C2619658   0.272   1.358   2.793  0.4908 -0.3956  1.0545
  173SAPS   H6R19659   0.372   1.323   2.820  2.3084  2.3651 -1.5118
  173SAPS   C2719660   0.177   1.394   2.902 -0.0113 -0.1365 -0.1227
  173SAPS   H7R19661   0.096   1.463   2.872 -0.6476 -1.3514 -1.2925
  173SAPS   H7S19662   0.240   1.442   2.980  0.0009 -0.1905 -0.0989
  173SAPS   C2819663   0.118   1.270   2.970 -0.2020 -0.2865  0.1479
  173SAPS   H8R19664   0.186   1.184   2.977  1.0504  0.5873 -0.8400
  173SAPS   C2919665   0.022   1.280   3.066 -0.1966  0.1400 -0.1555
  173SAPS   H9R19666  -0.009   1.189   3.120 -0.9296 -0.0965 -0.9439
  173SAPS  C21019667  -0.066   1.395   3.104  0.3527  0.0496 -0.2857
  173SAPS  H10R19668  -0.091   1.452   3.012 -0.6619  0.3806  0.1864
  173SAPS  H10S19669  -0.008   1.470   3.162  0.7853  0.7903 -1.6192
  173SAPS  C21119670  -0.192   1.355   3.177 -0.0207 -0.1039  0.2257
  173SAPS  H11R19671  -0.264   1.290   3.124 -0.2400 -0.3630  0.8220
  173SAPS  C21219672  -0.234   1.407   3.295  0.3601 -0.3071  0.4835
  173SAPS  H12R19673  -0.329   1.371   3.337  0.0952 -0.0928  0.0793
  173SAPS  C21319674  -0.160   1.503   3.382  0.0639  0.0727  0.2059
  173SAPS  H13R19675  -0.214   1.600   3.383  0.8135  0.5529  2.8248
  173SAPS  H13S19676  -0.057   1.514   3.341 -0.3820  0.5586 -0.8145
  173SAPS  C21419677  -0.141   1.438   3.518 -0.6423 -0.5558 -0.0038
  173SAPS  H14R19678  -0.117   1.331   3.522  1.8433 -0.0938 -0.8106
  173SAPS  C21519679  -0.127   1.508   3.636 -0.2994 -0.8054 -0.0601
  173SAPS  H15R19680  -0.096   1.446   3.721  1.6572  1.1927  0.7937
  173SAPS  C21619681  -0.138   1.657   3.650  0.0006  0.2311 -0.4802
  173SAPS  H16R19682  -0.245   1.686   3.657  0.4464  1.6429  1.1525
  173SAPS  H16S19683  -0.083   1.712   3.570 -0.0824 -0.6277 -1.1376
  173SAPS  C21719684  -0.080   1.715   3.785  0.5477  0.0660  0.5826
  173SAPS  H17R19685  -0.085   1.826   3.794 -0.6221  0.1912 -1.1529
  173SAPS  H17S19686   0.028   1.693   3.774  0.1584 -1.6748 -0.0348
  173SAPS  C21819687  -0.138   1.654   3.919 -0.5139  0.7153  0.6986
  173SAPS  H18R19688  -0.145   1.544   3.917  2.8295  0.3751  1.6698
  173SAPS  H18S19689  -0.246   1.681   3.922 -0.1927  2.3274 -0.5147
  173SAPS  C21919690  -0.058   1.692   4.046 -0.6462  0.3930  0.1258
  173SAPS  H19R19691  -0.128   1.679   4.131 -0.4496 -0.8298  0.1141
  173SAPS  H19S19692  -0.031   1.799   4.055 -3.6725  1.0742  3.5936
  173SAPS  C22019693   0.069   1.603   4.065 -0.0657 -0.6991 -0.3283
  173SAPS  H20R19694   0.026   1.500   4.075  1.5290 -1.3668 -0.0547
  173SAPS  H20S19695   0.128   1.619   4.157  1.8220 -0.0955 -1.5973
  173SAPS  H20T19696   0.138   1.601   3.978  1.3324 -0.8245  0.7512
  173SAPS   C3319697   0.013   0.991   2.404  0.5521  0.2668  0.2699
  173SAPS   H3X19698   0.012   0.905   2.334 -0.7996 -1.8823  2.7505
  173SAPS   H3Y19699  -0.081   1.047   2.385  0.2942 -0.7542 -1.7621
  173SAPS   C3419700   0.026   0.925   2.542 -0.2969  0.4495 -0.2707
  173SAPS   H4X19701   0.048   1.010   2.610  2.2189  0.2233 -0.7113
  173SAPS   H4Y19702   0.116   0.860   2.542  0.5475  1.5350 -2.4524
  173SAPS   C3519703  -0.109   0.848   2.570  0.0166 -0.0796  0.3413
  173SAPS   H5X19704  -0.092   0.761   2.503 -2.9836 -0.3518 -0.2046
  173SAPS   H5Y19705  -0.198   0.909   2.542 -2.1076 -1.7767  2.8819
  173SAPS   C3619706  -0.126   0.782   2.706 -0.8561 -0.2629  0.2250
  173SAPS   H6X19707  -0.058   0.695   2.710  0.4362  0.7525  1.2507
  173SAPS   H6Y19708  -0.230   0.744   2.711 -0.5517 -0.9852  1.5892
  173SAPS   C3719709  -0.107   0.873   2.824 -0.5251 -0.7718 -0.3381
  173SAPS   H7X19710  -0.177   0.956   2.803  0.5758  0.3192  0.1944
  173SAPS   H7Y19711  -0.003   0.912   2.830  0.4573 -3.2896  0.3685
  173SAPS   C3819712  -0.121   0.803   2.961 -0.3794  0.4973  0.5671
  173SAPS   H8X19713  -0.046   0.721   2.962  0.7628  1.5005 -0.2473
  173SAPS   H8Y19714  -0.221   0.754   2.961 -0.2909  0.2854 -0.6962
  173SAPS   C3919715  -0.120   0.891   3.083  0.0585 -0.7083 -0.3744
  173SAPS   H9X19716  -0.220   0.932   3.105  0.0002  0.0044 -1.8485
  173SAPS   H9Y19717  -0.056   0.981   3.076 -1.7749  0.9086  2.1958
  173SAPS  C31019718  -0.073   0.816   3.208 -0.3207  0.3099  0.1898
  173SAPS  H10X19719   0.018   0.757   3.186 -1.4247 -0.9083 -1.3325
  173SAPS  H10Y19720  -0.149   0.740   3.237  0.9776 -0.4671  1.7269
  173SAPS  C31119721  -0.037   0.908   3.318  0.3836  0.1262 -0.2512
  173SAPS  H11X19722  -0.110   0.991   3.327 -0.9622 -0.8893 -1.2764
  173SAPS  H11Y19723   0.058   0.961   3.296  0.0995  1.2092  1.0637
  173SAPS  C31219724  -0.021   0.832   3.448 -0.7849  0.5320  0.3777
  173SAPS  H12X19725   0.043   0.743   3.429  0.8917  2.0608 -1.5264
  173SAPS  H12Y19726  -0.124   0.807   3.482  0.1681 -1.1622  2.2230
  173SAPS  C31319727   0.061   0.922   3.547  0.7274  0.3570  0.1469
  173SAPS  H13X19728   0.025   1.027   3.541 -1.0393 -0.2481 -0.3637
  173SAPS  H13Y19729   0.166   0.928   3.509  1.3579 -1.3353  1.4933
  173SAPS  C31419730   0.072   0.873   3.688 -0.2450 -0.7661 -0.7521
  173SAPS  H14X19731   0.173   0.832   3.708  0.9036  1.2950 -1.9404
  173SAPS  H14Y19732  -0.012   0.804   3.710 -0.4440  0.2820  2.1691
  173SAPS  C31519733   0.049   0.989   3.794  0.2430 -0.0925 -0.0862
  173SAPS  H15X19734  -0.061   1.006   3.794  0.3534  0.6987 -0.9515
  173SAPS  H15Y19735   0.101   1.084   3.769  1.7529 -0.8718 -0.0299
  173SAPS  C31619736   0.085   0.945   3.933 -0.3428 -0.2326  0.5249
  173SAPS  H16X19737   0.196   0.937   3.930 -0.2783  0.8451 -0.8699
  173SAPS  H16Y19738   0.042   0.845   3.952  0.3359 -0.4077  1.1997
  173SAPS  C31719739   0.052   1.045   4.039  0.6051 -0.4594 -0.0318
  173SAPS  H17X19740   0.081   1.010   4.140  1.4231  0.1876 -0.0278
  173SAPS  H17Y19741  -0.057   1.056   4.055  0.5596 -0.9300 -0.0251
  173SAPS  C31819742   0.126   1.176   4.025  0.1175 -0.2013 -0.3336
  173SAPS  H18X19743   0.113   1.234   4.119  1.9019  1.0098 -0.7639
  173SAPS  H18Y19744   0.094   1.232   3.935 -0.7869  0.5333  0.4262
  173SAPS  H18Z19745   0.237   1.162   4.023 -0.2061 -3.3674 -2.3558
  174SAPS     N19746   2.835   2.615   1.843 -0.0750  0.5650  0.3815
  174SAPS   HN119747   2.847   2.714   1.814 -2.2176  0.1280 -2.4071
  174SAPS   HN219748   2.859   2.555   1.762 -0.9596  1.8565 -0.8733
  174SAPS   HN319749   2.737   2.605   1.877 -0.6079  1.3336 -0.8730
  174SAPS   C1219750   2.939   2.603   1.948 -0.7725 -0.2833  0.6003
  174SAPS  H12A19751   2.936   2.499   1.979 -0.3915 -0.9973 -1.5540
  174SAPS   C1319752   3.092   2.621   1.904  0.1438 -0.3406  1.0930
  174SAPS  O13A19753   3.122   2.635   1.783 -0.2352  0.5280  0.6829
  174SAPS  O13B19754   3.179   2.634   1.994 -0.2607 -0.3592  0.2199
  174SAPS   C1119755   2.910   2.703   2.062 -0.4138  0.5940 -0.1921
  174SAPS  H11A19756   2.924   2.801   2.012 -3.5209  0.5368 -1.4037
  174SAPS  H11B19757   2.991   2.703   2.138  0.0035 -0.0747 -0.6217
  174SAPS     P19758   2.769   2.577   2.239 -0.2327 -0.0050 -0.2990
  174SAPS   O1319759   2.628   2.573   2.271  0.1223 -0.2199  0.4456
  174SAPS   O1419760   2.824   2.448   2.195  0.6627  0.0108 -0.2764
  174SAPS   O1219761   2.781   2.693   2.134  0.8783 -0.1403 -0.2737
  174SAPS   O1119762   2.845   2.628   2.368  0.0247  0.4704 -0.0751
  174SAPS    C119763   2.882   2.540   2.475  0.1959  0.0695  0.1712
  174SAPS    HA19764   2.947   2.455   2.446 -1.6956 -1.6956  0.8408
  174SAPS    HB19765   2.935   2.597   2.553  0.0689  0.5225 -0.0714
  174SAPS    C219766   2.760   2.472   2.547 -0.2801  0.0812  0.0419
  174SAPS    HS19767   2.701   2.412   2.474 -0.4592  1.1100 -0.6968
  174SAPS   O2119768   2.692   2.577   2.612  0.6978 -0.1636 -0.0328
  174SAPS   C2119769   2.560   2.564   2.632  0.0704 -0.3852  0.0599
  174SAPS   O2219770   2.493   2.467   2.600  0.5500 -0.0306  0.2013
  174SAPS   C2219771   2.494   2.685   2.690  0.0042  0.1781  0.3968
  174SAPS   H2R19772   2.579   2.751   2.717  1.5970 -0.9122 -1.6154
  174SAPS   H2S19773   2.434   2.721   2.604 -1.4375 -2.6604  0.0705
  174SAPS    C319774   2.817   2.381   2.657 -0.2229 -0.5001  0.4445
  174SAPS    HX19775   2.877   2.442   2.728 -0.7238  0.6325 -0.0897
  174SAPS    HY19776   2.889   2.312   2.607  0.9930  0.2372  1.1410
  174SAPS   O3119777   2.709   2.310   2.713  0.3270  0.0327  0.2687
  174SAPS   C3119778   2.741   2.212   2.798  0.1638 -0.1192  0.0556
  174SAPS   O3219779   2.858   2.182   2.825  0.1259  0.3638  0.7466
  174SAPS   C3219780   2.618   2.134   2.850  0.6431 -0.2089  0.3899
  174SAPS   H2X19781   2.611   2.037   2.796 -0.7082 -0.3709  0.8234
  174SAPS   H2Y19782   2.526   2.197   2.853  0.3631 -0.5687  3.8346
  174SAPS   C2319783   2.419   2.650   2.823  0.4776 -0.2177  0.3225
  174SAPS   H3R19784   2.419   2.735   2.894 -0.8364 -1.1838  1.5325
  174SAPS   H3S19785   2.469   2.559   2.862 -0.5877 -1.2541 -0.6229
  174SAPS   C2419786   2.275   2.591   2.810  0.0545  0.3923  0.5716
  174SAPS   H4R19787   2.275   2.498   2.749 -3.4445  0.1222  0.7730
  174SAPS   H4S19788   2.223   2.675   2.759  0.4067  1.4098  1.8537
  174SAPS   C2519789   2.216   2.551   2.943 -0.0987  0.2444 -0.3264
  174SAPS   H5R19790   2.194   2.638   3.007 -3.7739 -0.9332  0.2831
  174SAPS   C2619791   2.175   2.430   2.986 -0.1801  0.0667 -0.0700
  174SAPS   H6R19792   2.132   2.421   3.087 -1.0529  2.0736 -0.2119
  174SAPS   C2719793   2.183   2.301   2.904 -0.5657 -0.8083  0.4421
  174SAPS   H7R19794   2.286   2.261   2.916 -0.5984 -1.2308 -0.5437
  174SAPS   H7S19795   2.171   2.325   2.796  2.5185 -0.9597 -0.0390
  174SAPS   C2819796   2.067   2.214   2.950 -0.0179  0.1579  0.0636
  174SAPS   H8R19797   1.967   2.242   2.915 -0.1312  0.0232  0.2834
  174SAPS   C2919798   2.081   2.116   3.037  0.1413  0.7184  0.3662
  174SAPS   H9R19799   1.988   2.079   3.084 -0.7731  2.5336  0.0919
  174SAPS  C21019800   2.207   2.066   3.101 -0.3932  0.6569 -0.2044
  174SAPS  H10R19801   2.217   2.108   3.203 -0.5536  0.7313 -0.2193
  174SAPS  H10S19802   2.296   2.103   3.046 -0.3519  1.6117  0.4781
  174SAPS  C21119803   2.217   1.920   3.111 -0.5124  0.5338 -0.0777
  174SAPS  H11R19804   2.208   1.867   3.015 -2.8608  1.2052 -0.2823
  174SAPS  C21219805   2.223   1.845   3.222  0.0882  0.1408 -0.7284
  174SAPS  H12R19806   2.238   1.739   3.194  1.7993  0.3446 -0.6884
  174SAPS  C21319807   2.233   1.897   3.371  0.1995  0.5779  0.2940
  174SAPS  H13R19808   2.127   1.899   3.403  0.6716 -0.7637  2.1038
  174SAPS  H13S19809   2.282   1.992   3.400 -0.3513  0.1384  2.8950
  174SAPS  C21419810   2.294   1.778   3.439  0.4650 -0.6382 -0.6128
  174SAPS  H14R19811   2.281   1.677   3.397  0.0450 -0.8876  0.1029
  174SAPS  C21519812   2.345   1.784   3.563 -0.1288  0.1792  0.5445
  174SAPS  H15R19813   2.399   1.696   3.601 -2.0439 -1.3448 -0.0431
  174SAPS  C21619814   2.344   1.899   3.654  0.2293  0.2673  0.4740
  174SAPS  H16R19815   2.268   1.976   3.626 -1.6719 -1.1879  1.3588
  174SAPS  H16S19816   2.448   1.936   3.656  0.6555 -0.5933 -2.1887
  174SAPS  C21719817   2.304   1.855   3.794 -0.0773  0.2200 -0.6255
  174SAPS  H17R19818   2.355   1.765   3.833 -0.5345  0.0730 -0.3542
  174SAPS  H17S19819   2.195   1.835   3.793 -0.0750 -0.6987  2.8031
  174SAPS  C21819820   2.327   1.956   3.903 -0.7853 -0.4480  0.1068
  174SAPS  H18R19821   2.309   2.057   3.862 -2.7513 -0.0822  1.7237
  174SAPS  H18S19822   2.428   1.954   3.950 -0.0145  0.8221 -1.4146
  174SAPS  C21919823   2.248   1.931   4.031  0.1531  0.8257 -0.1927
  174SAPS  H19R19824   2.283   1.830   4.060  0.8820 -0.3274 -4.4173
  174SAPS  H19S19825   2.138   1.931   4.012  0.4188 -0.9411 -2.0950
  174SAPS  C22019826   2.275   2.018   4.155 -0.5618 -0.0833 -0.1404
  174SAPS  H20R19827   2.384   2.039   4.166 -0.3851 -0.6771 -0.7034
  174SAPS  H20S19828   2.243   1.955   4.240  0.2305 -2.5973 -1.6027
  174SAPS  H20T19829   2.225   2.116   4.168  1.8116  1.2375 -0.2927
  174SAPS   C3319830   2.625   2.091   3.003 -0.2122 -0.5338  0.0484
  174SAPS   H3X19831   2.714   2.029   3.026 -0.5529 -1.6394 -1.4744
  174SAPS   H3Y19832   2.544   2.016   3.021 -0.2087 -0.3724  0.7818
  174SAPS   C3419833   2.598   2.203   3.107 -0.4016  0.3613 -0.4250
  174SAPS   H4X19834   2.492   2.236   3.098 -1.1942 -1.6338  0.8599
  174SAPS   H4Y19835   2.670   2.286   3.092 -0.9231  0.7432 -0.8242
  174SAPS   C3519836   2.614   2.158   3.250  1.2047  0.2085  0.7267
  174SAPS   H5X19837   2.722   2.133   3.258  1.2549  0.3452  0.4850
  174SAPS   H5Y19838   2.547   2.069   3.255  1.3523  0.0168 -0.3718
  174SAPS   C3619839   2.553   2.244   3.363  0.6492 -0.6942  0.1532
  174SAPS   H6X19840   2.444   2.251   3.338  0.8992  1.1142 -0.5402
  174SAPS   H6Y19841   2.592   2.347   3.351  0.2232 -0.7672 -2.4330
  174SAPS   C3719842   2.566   2.189   3.507 -0.7429 -0.2489  0.4147
  174SAPS   H7X19843   2.670   2.157   3.529  0.2082  1.8595 -0.6654
  174SAPS   H7Y19844   2.496   2.103   3.510 -1.7593  0.5210 -0.2850
  174SAPS   C3819845   2.526   2.298   3.597  1.3499 -0.7554  0.6595
  174SAPS   H8X19846   2.446   2.360   3.551  1.2686 -1.4680 -0.1985
  174SAPS   H8Y19847   2.617   2.359   3.616  1.3752 -0.0323 -1.4993
  174SAPS   C3919848   2.457   2.242   3.726  0.3324 -0.6119  0.4217
  174SAPS   H9X19849   2.524   2.162   3.765  1.3618  0.3232  0.6416
  174SAPS   H9Y19850   2.364   2.199   3.682  1.0545  0.4769 -2.3849
  174SAPS  C31019851   2.427   2.360   3.824 -0.5891  0.0092  0.5279
  174SAPS  H10X19852   2.367   2.433   3.765 -1.4298 -1.6906 -0.7983
  174SAPS  H10Y19853   2.528   2.401   3.846  0.2624 -1.0004 -1.2797
  174SAPS  C31119854   2.359   2.326   3.951  0.9531  0.5422 -0.5151
  174SAPS  H11X19855   2.407   2.239   4.001 -0.7197  0.1360  0.4723
  174SAPS  H11Y19856   2.254   2.299   3.927  0.3665  0.4578  1.8114
  174SAPS  C31219857   2.337   2.452   4.036  0.5172  0.7137  0.6729
  174SAPS  H12X19858   2.295   2.524   3.963  0.1681  1.3229  1.4553
  174SAPS  H12Y19859   2.437   2.485   4.072  1.3095 -1.7238  0.9304
  174SAPS  C31319860   2.243   2.435   4.156 -0.4901 -0.2538 -0.2559
  174SAPS  H13X19861   2.155   2.380   4.117 -0.4590 -1.1278  0.8499
  174SAPS  H13Y19862   2.199   2.525   4.204  0.1370 -0.1292  0.1000
  174SAPS  C31419863   2.301   2.352   4.277 -0.6001  0.2916  0.0109
  174SAPS  H14X19864   2.382   2.407   4.330 -0.7122 -0.4662  0.9976
  174SAPS  H14Y19865   2.363   2.265   4.246  1.6436  0.9052  2.4259
  174SAPS  C31519866   2.190   2.306   4.369  0.0088 -0.1342  0.0270
  174SAPS  H15X19867   2.103   2.272   4.310  0.1081 -1.2456  0.4909
  174SAPS  H15Y19868   2.141   2.375   4.440 -0.5884 -1.3700  0.8517
  174SAPS  C31619869   2.249   2.193   4.463 -0.2203 -0.3581  0.0394
  174SAPS  H16X19870   2.308   2.237   4.546  0.7441 -0.0574 -0.7873
  174SAPS  H16Y19871   2.321   2.131   4.404 -0.2289 -0.3539  0.0247
  174SAPS  C31719872   2.143   2.101   4.521  0.0901  0.6927  0.2645
  174SAPS  H17X19873   2.180   2.006   4.565 -2.1422 -0.4637 -0.2000
  174SAPS  H17Y19874   2.075   2.063   4.442 -0.3350  1.4122  0.2739
  174SAPS  C31819875   2.047   2.169   4.615 -0.0211  0.2296  0.0194
  174SAPS  H18X19876   2.099   2.210   4.704  0.0668  0.6361 -0.2190
  174SAPS  H18Y19877   1.968   2.098   4.649 -0.3785  0.2592 -0.7241
  174SAPS  H18Z19878   2.002   2.259   4.568 -1.1507  1.5950  3.3692
  175SAPS     N19879   6.206   0.308   1.873  0.1111  0.2548 -0.0179
  175SAPS   HN119880   6.105   0.312   1.900  0.2672  2.3536  0.4800
  175SAPS   HN219881   6.224   0.266   1.780  5.2551  0.2032  0.7324
  175SAPS   HN319882   6.254   0.248   1.943  1.5994  0.9364 -0.4257
  175SAPS   C1219883   6.272   0.446   1.872  0.6515 -0.3208  0.5903
  175SAPS  H12A19884   6.370   0.438   1.826  1.8191  0.7344  2.7659
  175SAPS   C1319885   6.211   0.550   1.771 -0.9950  0.6464  0.3331
  175SAPS  O13A19886   6.113   0.525   1.701 -0.2788  0.3721 -0.2073
  175SAPS  O13B19887   6.248   0.668   1.781 -0.6132 -0.0785 -0.0798
  175SAPS   C1119888   6.266   0.511   2.006 -0.3403  0.0299 -0.2571
  175SAPS  H11A19889   6.171   0.562   2.032 -0.8198 -0.7815 -0.3815
  175SAPS  H11B19890   6.326   0.604   2.000 -0.9376  0.3133 -5.1459
  175SAPS     P19891   6.469   0.390   2.113 -0.2614  0.5098  0.0530
  175SAPS   O1319892   6.488   0.254   2.054 -0.4465 -0.1137  0.3138
  175SAPS   O1419893   6.551   0.501   2.067  0.1849  0.3570 -0.0756
  175SAPS   O1219894   6.316   0.424   2.107 -0.6409 -0.4116  0.0729
  175SAPS   O1119895   6.491   0.381   2.278 -0.2221 -0.0210  0.1861
  175SAPS    C119896   6.400   0.313   2.369  0.0863  0.4918 -0.0871
  175SAPS    HA19897   6.375   0.380   2.454 -1.2796  0.1009 -0.1610
  175SAPS    HB19898   6.307   0.276   2.321  0.1834 -1.8096  1.3572
  175SAPS    C219899   6.464   0.173   2.437 -0.1838 -0.1362 -0.5133
  175SAPS    HS19900   6.389   0.147   2.515  0.6463  1.5927  0.9398
  175SAPS   O2119901   6.592   0.196   2.499  0.1687 -0.4981  0.3383
  175SAPS   C2119902   6.591   0.291   2.596  0.0339  0.6637  0.1921
  175SAPS   O2219903   6.489   0.340   2.644  0.1890 -0.1028 -0.1576
  175SAPS   C2219904   6.731   0.302   2.647 -0.4761 -0.0009 -0.2701
  175SAPS   H2R19905   6.778   0.203   2.629  0.4252  0.3321  0.1868
  175SAPS   H2S19906   6.788   0.371   2.582  0.9060 -0.6771  0.1794
  175SAPS    C319907   6.481   0.065   2.327  0.4417  0.8129 -0.5560
  175SAPS    HX19908   6.558   0.099   2.254  0.8071  0.3323 -0.3952
  175SAPS    HY19909   6.385   0.070   2.271  0.9315  2.1885 -1.3305
  175SAPS   O3119910   6.517  -0.063   2.387 -0.1767 -0.2026  0.0705
  175SAPS   C3119911   6.648  -0.079   2.424  0.0285 -0.0295  0.4401
  175SAPS   O3219912   6.738  -0.004   2.388  0.6044 -0.1460  0.0226
  175SAPS   C3219913   6.651  -0.201   2.519 -0.3161  0.0369 -0.6823
  175SAPS   H2X19914   6.703  -0.287   2.471 -0.6022 -0.5301 -0.0038
  175SAPS   H2Y19915   6.548  -0.239   2.530 -1.0773  1.7898 -1.3949
  175SAPS   C2319916   6.749   0.348   2.798 -0.1070  0.5232  0.5108
  175SAPS   H3R19917   6.693   0.442   2.817  1.7886  1.4181  1.8988
  175SAPS   H3S19918   6.856   0.370   2.816  1.6136 -3.8159 -2.5435
  175SAPS   C2419919   6.707   0.230   2.888  0.6571 -0.0111  0.2530
  175SAPS   H4R19920   6.792   0.159   2.880  1.4851  1.0683 -1.2390
  175SAPS   H4S19921   6.617   0.179   2.848  0.8089 -0.3600  0.3541
  175SAPS   C2519922   6.679   0.266   3.031  0.0319 -1.2273 -0.7577
  175SAPS   H5R19923   6.571   0.264   3.049  0.0406  1.3174  0.0246
  175SAPS   C2619924   6.770   0.296   3.127 -0.1663  0.1606  0.2515
  175SAPS   H6R19925   6.745   0.314   3.232  0.3032 -0.0441  0.3985
  175SAPS   C2719926   6.917   0.296   3.109  0.7903  0.0724 -0.3615
  175SAPS   H7R19927   6.950   0.249   3.014  0.1562 -0.5595 -0.2766
  175SAPS   H7S19928   6.958   0.237   3.193 -2.5195 -0.3914  1.1001
  175SAPS   C2819929   6.952   0.446   3.122  0.1178  0.5119 -0.3846
  175SAPS   H8R19930   6.940   0.506   3.031  0.5535  0.1821 -0.6650
  175SAPS   C2919931   7.003   0.510   3.227 -0.4765  1.1845 -0.1067
  175SAPS   H9R19932   7.020   0.618   3.220  1.5145  0.9514  0.4463
  175SAPS  C21019933   7.012   0.458   3.367 -0.4334 -0.1061 -0.4180
  175SAPS  H10R19934   6.927   0.389   3.381 -0.5436  0.1260  0.0700
  175SAPS  H10S19935   6.990   0.539   3.440  0.7319  2.3970 -2.6613
  175SAPS  C21119936   7.155   0.409   3.396 -0.3333  0.2860 -0.9042
  175SAPS  H11R19937   7.201   0.358   3.310  4.1575 -0.8436  1.8382
  175SAPS  C21219938   7.242   0.431   3.498  0.2206 -0.5395  0.3957
  175SAPS  H12R19939   7.343   0.387   3.491 -0.3989 -1.8636 -0.7379
  175SAPS  C21319940   7.205   0.502   3.621 -0.1462 -0.2708 -0.4320
  175SAPS  H13R19941   7.274   0.465   3.701 -1.3772 -1.0456  0.3007
  175SAPS  H13S19942   7.108   0.478   3.668  0.4200  1.0103  1.5091
  175SAPS  C21419943   7.233   0.649   3.604 -0.0838  0.6285 -0.0809
  175SAPS  H14R19944   7.164   0.688   3.528 -0.6401 -1.6776 -0.8344
  175SAPS  C21519945   7.312   0.717   3.679 -0.8110  0.0125 -0.7280
  175SAPS  H15R19946   7.325   0.822   3.648 -0.5170  0.8627  2.0756
  175SAPS  C21619947   7.409   0.675   3.785  0.6077  0.0472 -0.3457
  175SAPS  H16R19948   7.513   0.699   3.753  0.5951 -0.6852 -0.9750
  175SAPS  H16S19949   7.408   0.570   3.820  0.0080  0.4215  0.7940
  175SAPS  C21719950   7.374   0.757   3.917  0.2643 -1.1169 -0.3248
  175SAPS  H17R19951   7.354   0.867   3.914  1.0228 -0.9365  0.6271
  175SAPS  H17S19952   7.464   0.741   3.980  0.9900 -1.7938 -1.5033
  175SAPS  C21819953   7.242   0.711   3.983 -0.3317 -0.2858 -0.0294
  175SAPS  H18R19954   7.259   0.602   3.997  3.5002  0.2350  0.5170
  175SAPS  H18S19955   7.154   0.719   3.916 -1.5224  0.7084  1.5893
  175SAPS  C21919956   7.217   0.775   4.123 -0.9288 -0.5249  0.1076
  175SAPS  H19R19957   7.207   0.884   4.103  0.6160 -0.2453  0.6681
  175SAPS  H19S19958   7.316   0.760   4.172 -1.1726  0.7255  1.0365
  175SAPS  C22019959   7.110   0.712   4.207 -0.2669 -0.6518 -0.8042
  175SAPS  H20R19960   7.013   0.733   4.156 -0.4023 -0.5667 -0.5149
  175SAPS  H20S19961   7.097   0.750   4.311 -0.2658 -2.1873 -0.2237
  175SAPS  H20T19962   7.127   0.603   4.221  2.9468 -0.0699  0.6229
  175SAPS   C3319963   6.715  -0.166   2.660 -0.2833 -0.2258  0.1424
  175SAPS   H3X19964   6.634  -0.132   2.728  0.2133 -0.2021  0.7292
  175SAPS   H3Y19965   6.791  -0.088   2.637  0.6241 -1.2022 -0.2715
  175SAPS   C3419966   6.794  -0.288   2.726  0.1554  0.0127 -0.4704
  175SAPS   H4X19967   6.859  -0.335   2.649 -0.3218 -0.2612 -0.7072
  175SAPS   H4Y19968   6.722  -0.368   2.753 -1.4717  1.1727 -1.2153
  175SAPS   C3519969   6.882  -0.237   2.848 -0.2692 -0.3220 -0.1130
  175SAPS   H5X19970   6.964  -0.184   2.797  0.7558 -0.2757  1.5001
  175SAPS   H5Y19971   6.922  -0.326   2.902 -0.0167  0.4648  1.0289
  175SAPS   C3619972   6.798  -0.162   2.949 -0.0852  0.0693 -1.0126
  175SAPS   H6X19973   6.692  -0.196   2.958  0.2352 -0.7199 -0.1309
  175SAPS   H6Y19974   6.784  -0.058   2.913  3.0575  0.3385 -1.7790
  175SAPS   C3719975   6.869  -0.159   3.087  0.3115 -0.3231  0.2141
  175SAPS   H7X19976   6.964  -0.107   3.061 -0.0745 -0.8995 -2.6637
  175SAPS   H7Y19977   6.896  -0.259   3.127  0.6878 -0.0768  0.5819
  175SAPS   C3819978   6.796  -0.074   3.188 -0.4847 -0.3275 -0.7603
  175SAPS   H8X19979   6.694  -0.113   3.209 -0.3271  0.0069  0.7618
  175SAPS   H8Y19980   6.790   0.031   3.153  2.5363  0.2208  0.0068
  175SAPS   C3919981   6.875  -0.075   3.319 -0.5138  0.2310 -0.0439
  175SAPS   H9X19982   6.984  -0.055   3.309 -0.3197  0.0953  1.5074
  175SAPS   H9Y19983   6.880  -0.180   3.355  1.4558  0.6496  1.0429
  175SAPS  C31019984   6.815   0.015   3.431 -0.4368 -0.5923 -0.7602
  175SAPS  H10X19985   6.704   0.006   3.432 -0.4174 -1.3079 -2.2211
  175SAPS  H10Y19986   6.843   0.118   3.402  1.9049 -0.7542  0.6945
  175SAPS  C31119987   6.877  -0.016   3.567 -0.7995  0.2463  0.2478
  175SAPS  H11X19988   6.973  -0.070   3.560 -2.1437 -2.2125 -0.4571
  175SAPS  H11Y19989   6.809  -0.087   3.621  0.9035 -0.2311  1.8876
  175SAPS  C31219990   6.898   0.108   3.657 -0.4459  0.6434 -0.7131
  175SAPS  H12X19991   6.815   0.181   3.653 -0.1373  1.2289  1.7040
  175SAPS  H12Y19992   6.974   0.173   3.609 -0.9870  0.3602 -1.9760
  175SAPS  C31319993   6.946   0.068   3.803  0.0927  0.1546  0.4101
  175SAPS  H13X19994   6.987  -0.035   3.797  0.5452  0.4006 -1.5150
  175SAPS  H13Y19995   6.855   0.044   3.863  0.8002 -1.8435  0.7475
  175SAPS  C31419996   7.030   0.177   3.865  0.1229 -0.1878  0.3721
  175SAPS  H14X19997   6.998   0.272   3.818  2.7161 -1.0842 -3.7274
  175SAPS  H14Y19998   7.138   0.173   3.841  0.3186  3.7497 -0.0635
  175SAPS  C31519999   7.006   0.182   4.018 -0.0627 -0.0246  0.4118
  175SAPS  H15X20000   7.042   0.085   4.059  1.6396  0.4981  0.2363
  175SAPS  H15Y20001   6.900   0.206   4.042 -0.1873  0.5887 -0.6937
  175SAPS  C31620002   7.091   0.286   4.100  1.3803  0.6801  0.2300
  175SAPS  H16X20003   7.063   0.386   4.059 -0.8596  1.4976  3.4251
  175SAPS  H16Y20004   7.198   0.269   4.076  1.1438  0.4545 -0.7028
  175SAPS  C31720005   7.072   0.275   4.251 -0.2079  0.2745 -0.2306
  175SAPS  H17X20006   6.964   0.293   4.268 -0.4596  0.4774 -1.8426
  175SAPS  H17Y20007   7.129   0.357   4.299 -0.8919  1.5961 -1.5909
  175SAPS  C31820008   7.116   0.136   4.302 -1.0282  0.6183 -0.9210
  175SAPS  H18X20009   7.116   0.138   4.413  1.1884 -0.3043 -0.8597
  175SAPS  H18Y20010   7.219   0.124   4.263 -0.8141 -1.8998  0.2484
  175SAPS  H18Z20011   7.050   0.052   4.270 -0.6017 -0.3688  0.7010
  176SAPS     N20012   6.304   3.431   2.083 -0.1027  0.5371 -0.0454
  176SAPS   HN120013   6.218   3.401   2.033  1.3677  1.5088 -3.4199
  176SAPS   HN220014   6.353   3.341   2.099 -0.4127  0.2403 -0.7316
  176SAPS   HN320015   6.295   3.487   2.170  1.2713 -0.6053  0.8811
  176SAPS   C1220016   6.385   3.519   1.981 -0.3186 -0.3225  0.1840
  176SAPS  H12A20017   6.478   3.545   2.029 -1.0008  0.5864  1.0627
  176SAPS   C1320018   6.410   3.445   1.851  0.0693  0.5207  0.8660
  176SAPS  O13A20019   6.374   3.323   1.823  0.2672 -0.4283 -0.0333
  176SAPS  O13B20020   6.471   3.514   1.760 -0.2032  0.1710  0.1242
  176SAPS   C1120021   6.296   3.652   1.961 -0.1010 -0.2388 -0.1780
  176SAPS  H11A20022   6.195   3.620   1.928 -0.0287 -1.5079  0.7589
  176SAPS  H11B20023   6.336   3.726   1.888  0.4493  0.7010  1.0305
  176SAPS     P20024   6.382   3.828   2.124  0.3049  0.1916  0.2928
  176SAPS   O1320025   6.510   3.764   2.149 -0.0771 -0.3965 -0.1830
  176SAPS   O1420026   6.381   3.934   2.020  0.2074 -0.1626  0.4456
  176SAPS   O1220027   6.277   3.717   2.089  0.1932 -0.4491 -0.6099
  176SAPS   O1120028   6.327   3.891   2.255 -0.2738  0.1029  0.6848
  176SAPS    C120029   6.407   3.963   2.349 -0.1321 -0.4227 -0.3275
  176SAPS    HA20030   6.515   3.943   2.330 -0.1556  0.3553 -1.3508
  176SAPS    HB20031   6.394   4.073   2.340 -3.6065 -0.6678  0.4587
  176SAPS    C220032   6.354   3.921   2.483 -0.1658 -0.6185 -0.0168
  176SAPS    HS20033   6.248   3.952   2.494  0.1169  0.4960 -0.2356
  176SAPS   O2120034   6.443   3.988   2.577  0.1245  0.3939  0.0247
  176SAPS   C2120035   6.383   4.081   2.653 -0.0531  0.1009  0.4342
  176SAPS   O2220036   6.264   4.104   2.660  0.3682 -0.1935 -0.3768
  176SAPS   C2220037   6.490   4.145   2.742 -0.7931  0.0541  0.0554
  176SAPS   H2R20038   6.548   4.066   2.794 -1.7882 -0.9684 -0.3574
  176SAPS   H2S20039   6.558   4.206   2.680 -0.5744  0.0131  0.2528
  176SAPS    C320040   6.369   3.772   2.515 -0.8852 -1.0175  0.8878
  176SAPS    HX20041   6.477   3.750   2.504 -0.3705  0.7428  2.0341
  176SAPS    HY20042   6.306   3.719   2.440 -1.0217  1.4192 -0.8619
  176SAPS   O3120043   6.319   3.750   2.652 -0.5224 -0.1505  0.9478
  176SAPS   C3120044   6.362   3.632   2.709  0.1626 -0.3996  0.3437
  176SAPS   O3220045   6.417   3.546   2.644  0.3418  0.0212  0.1443
  176SAPS   C3220046   6.347   3.641   2.850 -0.3923 -0.4578 -0.1575
  176SAPS   H2X20047   6.251   3.693   2.872  0.1809 -0.0326  1.5066
  176SAPS   H2Y20048   6.430   3.708   2.883 -1.8611 -0.1977  3.5552
  176SAPS   C2320049   6.439   4.245   2.843  0.5724  0.4386 -0.8702
  176SAPS   H3R20050   6.364   4.313   2.796 -0.6603  0.8737  1.5891
  176SAPS   H3S20051   6.525   4.308   2.873  0.4968  1.5923 -2.8693
  176SAPS   C2420052   6.376   4.169   2.957 -0.3446 -1.2423  0.3334
  176SAPS   H4R20053   6.337   4.074   2.914 -1.1567 -0.2074 -1.3238
  176SAPS   H4S20054   6.288   4.215   3.006 -0.2538 -3.4123  2.7157
  176SAPS   C2520055   6.478   4.133   3.065  0.2562  0.8327  0.3292
  176SAPS   H5R20056   6.560   4.070   3.028 -0.9279 -0.9384  0.5953
  176SAPS   C2620057   6.482   4.186   3.190  0.5838  0.1590  0.8533
  176SAPS   H6R20058   6.573   4.165   3.248  2.3519 -0.2076 -1.8617
  176SAPS   C2720059   6.386   4.285   3.243 -0.3668 -0.3848  0.0811
  176SAPS   H7R20060   6.363   4.242   3.343  2.4170 -0.7370  0.6394
  176SAPS   H7S20061   6.287   4.288   3.192  0.0778  0.1245 -0.7770
  176SAPS   C2820062   6.438   4.423   3.262  0.0766 -0.2246 -0.6076
  176SAPS   H8R20063   6.513   4.456   3.188  0.2017  0.6010 -0.1188
  176SAPS   C2920064   6.395   4.515   3.351 -0.1690  0.4973  0.4626
  176SAPS   H9R20065   6.438   4.614   3.333  0.1095  0.0424 -1.6370
  176SAPS  C21020066   6.303   4.490   3.462 -0.2513 -0.1313  0.8202
  176SAPS  H10R20067   6.357   4.435   3.542  0.6445 -1.3716 -0.5804
  176SAPS  H10S20068   6.217   4.437   3.415  0.0614  0.0905 -0.0178
  176SAPS  C21120069   6.233   4.617   3.526 -1.1556  0.6140 -0.2486
  176SAPS  H11R20070   6.133   4.649   3.493 -0.9308  0.9112 -0.6553
  176SAPS  C21220071   6.276   4.672   3.645  0.3577 -0.1319 -0.1807
  176SAPS  H12R20072   6.235   4.771   3.670  1.7399  0.3677  0.1782
  176SAPS  C21320073   6.392   4.624   3.729 -0.4298  0.3531 -0.3142
  176SAPS  H13R20074   6.468   4.567   3.673 -1.4062 -1.3356 -0.0104
  176SAPS  H13S20075   6.353   4.546   3.799  1.0775  0.3675  0.5899
  176SAPS  C21420076   6.450   4.737   3.810 -0.5952 -0.6622 -0.1194
  176SAPS  H14R20077   6.521   4.802   3.758  0.1662 -0.1767  1.4830
  176SAPS  C21520078   6.403   4.782   3.927  0.0205  0.4675  0.2572
  176SAPS  H15R20079   6.452   4.869   3.973  0.7349  1.2643 -1.9158
  176SAPS  C21620080   6.297   4.716   4.010  0.2641  0.3933  0.1237
  176SAPS  H16R20081   6.257   4.629   3.953 -0.7296  0.4418  0.7208
  176SAPS  H16S20082   6.205   4.779   4.013 -0.3222 -0.3112 -1.5332
  176SAPS  C21720083   6.339   4.683   4.150 -1.0551  0.1012  0.5647
  176SAPS  H17R20084   6.256   4.630   4.201 -1.0219  0.6923  1.2503
  176SAPS  H17S20085   6.353   4.779   4.204  0.1967 -0.8966  2.1179
  176SAPS  C21820086   6.467   4.595   4.165 -0.5376  0.2797  0.3291
  176SAPS  H18R20087   6.560   4.637   4.121  0.8032 -0.9276  1.8569
  176SAPS  H18S20088   6.447   4.500   4.111 -0.2772  0.6860 -0.4902
  176SAPS  C21920089   6.506   4.550   4.305  0.1113  0.4916 -0.8069
  176SAPS  H19R20090   6.496   4.633   4.378 -2.4045 -0.3319 -0.1221
  176SAPS  H19S20091   6.611   4.514   4.299 -0.5392 -1.3033 -3.4214
  176SAPS  C22020092   6.414   4.445   4.366  0.2060  0.9869  0.9994
  176SAPS  H20R20093   6.468   4.391   4.446  1.0156  1.8996  1.0859
  176SAPS  H20S20094   6.382   4.366   4.295  2.8464  0.7613 -0.0317
  176SAPS  H20T20095   6.330   4.497   4.418 -0.0172  0.8886  0.7420
  176SAPS   C3320096   6.354   3.509   2.929 -0.3849 -0.1960  0.3519
  176SAPS   H3X20097   6.454   3.460   2.935 -0.7114 -0.8924  0.1907
  176SAPS   H3Y20098   6.297   3.433   2.872  0.4603 -1.3065  0.9395
  176SAPS   C3420099   6.305   3.514   3.078  0.9258  0.4447 -0.2657
  176SAPS   H4X20100   6.305   3.417   3.132 -1.9407 -0.0263 -0.9512
  176SAPS   H4Y20101   6.197   3.540   3.070 -0.5407 -3.6721  2.6930
  176SAPS   C3520102   6.374   3.620   3.162 -0.5093  0.1732 -0.1757
  176SAPS   H5X20103   6.369   3.729   3.139 -0.0779  0.4041  0.7636
  176SAPS   H5Y20104   6.482   3.597   3.159 -0.6982 -0.6375 -2.3837
  176SAPS   C3620105   6.345   3.600   3.312 -0.1806 -0.1604 -1.1117
  176SAPS   H6X20106   6.339   3.490   3.323 -0.1694  0.0339  1.4421
  176SAPS   H6Y20107   6.248   3.635   3.353  0.5499  0.8531 -0.1922
  176SAPS   C3720108   6.457   3.650   3.406  0.2051  0.3213  0.3491
  176SAPS   H7X20109   6.451   3.761   3.408  3.2536  0.5712  0.4436
  176SAPS   H7Y20110   6.553   3.622   3.357  0.1866 -0.5761  0.7958
  176SAPS   C3820111   6.474   3.586   3.545 -0.0719  0.1107 -0.0721
  176SAPS   H8X20112   6.466   3.476   3.540 -1.2234  0.1921 -0.2824
  176SAPS   H8Y20113   6.386   3.615   3.607 -0.2061 -3.1468  1.4550
  176SAPS   C3920114   6.608   3.622   3.610  0.1819 -0.7389 -0.4065
  176SAPS   H9X20115   6.606   3.731   3.629  0.9549 -0.6406 -0.8690
  176SAPS   H9Y20116   6.695   3.593   3.547  0.6761 -2.9956  1.1650
  176SAPS  C31020117   6.626   3.555   3.744  0.7734  0.9104 -0.0137
  176SAPS  H10X20118   6.729   3.570   3.784  0.9821  1.1545 -0.6243
  176SAPS  H10Y20119   6.621   3.446   3.724  1.2150  0.6855  1.0119
  176SAPS  C31120120   6.528   3.612   3.854  0.4528 -0.1486  0.1184
  176SAPS  H11X20121   6.532   3.567   3.955  1.2002  0.0022  0.1626
  176SAPS  H11Y20122   6.423   3.592   3.823  1.2019 -3.4708 -0.6652
  176SAPS  C31220123   6.544   3.762   3.878 -0.1287 -0.7095  0.1306
  176SAPS  H12X20124   6.505   3.818   3.790  0.9425 -0.2049 -0.0439
  176SAPS  H12Y20125   6.653   3.774   3.893  0.3167 -2.6057 -1.2802
  176SAPS  C31320126   6.476   3.810   4.001 -0.5221  0.6193 -0.7681
  176SAPS  H13X20127   6.522   3.776   4.096 -0.1974 -0.3465 -1.2536
  176SAPS  H13Y20128   6.369   3.781   3.992 -0.6224  1.0200 -0.8983
  176SAPS  C31420129   6.486   3.966   3.993 -0.2578  0.4034  0.4060
  176SAPS  H14X20130   6.442   3.994   3.895  2.5402  0.6171 -0.9109
  176SAPS  H14Y20131   6.596   3.982   3.990 -0.3387  0.9427  0.1109
  176SAPS  C31520132   6.428   4.040   4.113  0.1430  0.1426 -0.5250
  176SAPS  H15X20133   6.432   4.147   4.085 -0.4163  0.0759 -0.8729
  176SAPS  H15Y20134   6.485   4.024   4.207  2.6483  1.2354 -1.7729
  176SAPS  C31620135   6.283   4.005   4.155 -0.4206  0.1127 -0.3072
  176SAPS  H16X20136   6.268   3.898   4.180 -1.0644 -0.3493 -2.4494
  176SAPS  H16Y20137   6.228   4.018   4.060  1.4347 -0.4214 -1.4952
  176SAPS  C31720138   6.223   4.079   4.272  0.2514  0.0843  0.3768
  176SAPS  H17X20139   6.231   4.187   4.247 -1.2192 -0.0713 -0.8766
  176SAPS  H17Y20140   6.293   4.059   4.356 -0.9787 -1.3856  1.0945
  176SAPS  C31820141   6.083   4.035   4.305 -0.5012  0.4807  0.2143
  176SAPS  H18X20142   6.041   4.078   4.398 -2.5463  0.1782 -0.5095
  176SAPS  H18Y20143   6.085   3.926   4.327  2.9467 -0.1199 -2.3155
  176SAPS  H18Z20144   6.009   4.058   4.225  0.3001  1.4837 -0.2530
  177SAPS     N20145   0.994   4.291   1.880 -0.1019  0.2030  0.1817
  177SAPS   HN120146   1.079   4.245   1.842  0.6688  0.9385  0.9720
  177SAPS   HN220147   0.954   4.220   1.946  3.3552 -1.6589  0.5308
  177SAPS   HN320148   0.927   4.317   1.805  1.4942  0.9267 -1.0506
  177SAPS   C1220149   1.023   4.409   1.957  0.9631  0.5678 -0.0325
  177SAPS  H12A20150   1.066   4.367   2.046 -0.4130 -1.3190 -0.1830
  177SAPS   C1320151   1.118   4.520   1.896  0.3534  0.1756  0.1474
  177SAPS  O13A20152   1.153   4.496   1.777  0.3510  0.0530  1.7607
  177SAPS  O13B20153   1.142   4.629   1.948  0.2152  0.2786 -0.1539
  177SAPS   C1120154   0.887   4.464   2.006 -0.4734  0.0887 -0.0739
  177SAPS  H11A20155   0.822   4.487   1.919 -1.9255 -1.1048  0.6444
  177SAPS  H11B20156   0.911   4.557   2.062  0.5218  0.5792 -1.2570
  177SAPS     P20157   0.851   4.367   2.244 -0.2518  0.3944 -0.0954
  177SAPS   O1320158   0.723   4.340   2.316  0.5499 -0.4411 -0.8046
  177SAPS   O1420159   0.962   4.266   2.252  0.3015 -0.1709 -0.7091
  177SAPS   O1220160   0.813   4.380   2.094  0.8441  0.3616  0.7435
  177SAPS   O1120161   0.907   4.512   2.276  0.0608  0.3320  0.4704
  177SAPS    C120162   1.040   4.532   2.313 -0.5097 -0.8700 -0.1056
  177SAPS    HA20163   1.090   4.439   2.347  0.7984 -0.1897 -0.1185
  177SAPS    HB20164   1.093   4.585   2.231 -1.6781 -0.5461 -0.6763
  177SAPS    C220165   1.066   4.619   2.440 -1.0221 -0.1567  0.0725
  177SAPS    HS20166   1.174   4.645   2.436 -0.9880 -0.2362  0.4665
  177SAPS   O2120167   1.037   4.545   2.557  0.3292 -0.0483 -0.1669
  177SAPS   C2120168   1.125   4.445   2.580  0.5330  0.2242  0.1413
  177SAPS   O2220169   1.235   4.436   2.530  0.1379 -0.2981 -0.3608
  177SAPS   C2220170   1.072   4.341   2.679 -0.3120 -0.6286 -0.6395
  177SAPS   H2R20171   1.160   4.332   2.747 -0.5764 -1.0818 -0.3503
  177SAPS   H2S20172   0.988   4.386   2.735  1.4975  0.4873  1.3502
  177SAPS    C320173   0.987   4.754   2.434 -0.7933 -0.2654 -0.3080
  177SAPS    HX20174   0.887   4.725   2.471 -1.1509  0.0297 -1.0301
  177SAPS    HY20175   0.991   4.807   2.336 -1.6915  1.9979  0.7976
  177SAPS   O3120176   1.047   4.843   2.531 -0.5544  0.0958  0.4176
  177SAPS   C3120177   1.054   4.973   2.506 -0.5103  0.3703  0.5665
  177SAPS   O3220178   1.055   5.026   2.396  0.2324 -0.3149  0.1489
  177SAPS   C3220179   1.041   5.048   2.637  1.2518 -0.0806  0.3783
  177SAPS   H2X20180   0.979   4.982   2.701  1.8114 -2.0040 -0.9663
  177SAPS   H2Y20181   0.979   5.139   2.618  0.5035 -0.3298  1.5527
  177SAPS   C2320182   1.050   4.205   2.610 -0.3299 -0.2226 -0.8252
  177SAPS   H3R20183   1.144   4.151   2.585 -1.9513 -3.1675 -1.0783
  177SAPS   H3S20184   0.994   4.207   2.515 -0.6624  2.0631 -0.6144
  177SAPS   C2420185   0.973   4.103   2.709 -0.2073  0.5794 -0.3880
  177SAPS   H4R20186   0.933   4.025   2.640 -1.0129  0.5428  0.1029
  177SAPS   H4S20187   0.878   4.152   2.741 -0.3885 -0.5191  0.8516
  177SAPS   C2520188   1.046   4.053   2.831 -0.2058  0.7537  0.9678
  177SAPS   H5R20189   1.116   3.971   2.808  0.5540  0.7748  3.0305
  177SAPS   C2620190   1.021   4.081   2.956 -0.6285 -0.4843 -1.0625
  177SAPS   H6R20191   1.057   4.016   3.036 -0.2308  1.2657  0.2456
  177SAPS   C2720192   0.911   4.174   3.012 -0.9390  0.6555  0.2744
  177SAPS   H7R20193   0.845   4.111   3.076 -1.4211 -1.1081 -1.8112
  177SAPS   H7S20194   0.846   4.197   2.924 -0.5832  1.5590  0.2347
  177SAPS   C2820195   0.964   4.306   3.074  1.1566 -0.4802 -0.2516
  177SAPS   H8R20196   1.000   4.374   2.995 -0.5755 -0.7699 -1.3284
  177SAPS   C2920197   0.972   4.338   3.202 -0.1554 -0.2315  0.5209
  177SAPS   H9R20198   1.013   4.437   3.226  2.6849 -1.0617 -0.4315
  177SAPS  C21020199   0.932   4.257   3.320 -0.8435  0.0582  1.1924
  177SAPS  H10R20200   0.839   4.203   3.295 -1.2640  1.3502 -0.2296
  177SAPS  H10S20201   0.906   4.322   3.406  0.2418  2.8033 -0.4170
  177SAPS  C21120202   1.037   4.157   3.362 -0.3993  0.6687  0.0381
  177SAPS  H11R20203   1.090   4.109   3.279 -2.2971 -0.7316 -0.4103
  177SAPS  C21220204   1.061   4.109   3.484  0.4129 -0.3690 -0.3909
  177SAPS  H12R20205   1.144   4.038   3.493  1.0610  0.5263  1.0401
  177SAPS  C21320206   0.989   4.148   3.617 -0.0836 -0.0769  0.4002
  177SAPS  H13R20207   0.922   4.062   3.640  0.2334 -0.3018  0.4903
  177SAPS  H13S20208   0.915   4.230   3.605 -0.4892 -0.1803  1.9300
  177SAPS  C21420209   1.074   4.180   3.740 -0.7358 -0.6871  0.4291
  177SAPS  H14R20210   1.175   4.217   3.717 -1.1174 -0.3804 -0.8398
  177SAPS  C21520211   1.020   4.187   3.869  0.3777  0.9091 -0.5875
  177SAPS  H15R20212   1.084   4.213   3.955 -1.2715 -1.3111  1.4292
  177SAPS  C21620213   0.877   4.151   3.902  0.8203 -0.3550 -0.3219
  177SAPS  H16R20214   0.822   4.098   3.821 -0.1245  1.3388 -0.8497
  177SAPS  H16S20215   0.822   4.242   3.935  1.7271 -0.0571  0.3986
  177SAPS  C21720216   0.865   4.056   4.023 -0.2849 -0.7927 -0.1019
  177SAPS  H17R20217   0.894   4.128   4.103  3.6038  1.7031 -3.3564
  177SAPS  H17S20218   0.937   3.972   4.020 -0.3092 -0.8405  0.5832
  177SAPS  C21820219   0.715   4.022   4.050 -0.1790 -0.5504  1.1650
  177SAPS  H18R20220   0.689   3.939   3.980 -0.8634 -0.1151  0.8953
  177SAPS  H18S20221   0.659   4.117   4.045 -1.0447 -1.0992 -0.6036
  177SAPS  C21920222   0.697   3.968   4.191  0.5476 -0.0919 -0.4798
  177SAPS  H19R20223   0.723   4.049   4.263  1.4200 -1.9944  1.4542
  177SAPS  H19S20224   0.751   3.873   4.213 -1.2791 -0.8965  0.7757
  177SAPS  C22020225   0.552   3.936   4.223  0.1932 -0.0071  0.7196
  177SAPS  H20R20226   0.547   3.899   4.327  2.4173 -1.0524  0.5015
  177SAPS  H20S20227   0.516   3.854   4.156 -0.7108  0.4223  0.6667
  177SAPS  H20T20228   0.481   4.021   4.215  1.2922  0.7870 -1.3499
  177SAPS   C3320229   1.182   5.100   2.665  0.5582 -0.4335 -0.3091
  177SAPS   H3X20230   1.205   5.173   2.584 -0.6934  0.7209  0.3381
  177SAPS   H3Y20231   1.260   5.024   2.644  1.3165  1.0335 -3.3982
  177SAPS   C3420232   1.203   5.153   2.810 -0.4434  0.0188 -0.1646
  177SAPS   H4X20233   1.197   5.072   2.886  1.4621 -1.2845 -1.3125
  177SAPS   H4Y20234   1.126   5.229   2.837  0.6424  0.5445  1.6066
  177SAPS   C3520235   1.331   5.230   2.828 -0.1934 -0.0801  0.4696
  177SAPS   H5X20236   1.330   5.314   2.755 -0.2324  1.8794  2.6011
  177SAPS   H5Y20237   1.419   5.168   2.801 -0.8467 -0.7677 -0.1367
  177SAPS   C3620238   1.347   5.289   2.965 -0.4802 -1.0856  0.3882
  177SAPS   H6X20239   1.267   5.364   2.986  1.3542  0.7289  1.2311
  177SAPS   H6Y20240   1.438   5.352   2.977 -0.6146 -0.6901 -0.5628
  177SAPS   C3720241   1.366   5.185   3.078  0.1126 -0.3045 -0.4886
  177SAPS   H7X20242   1.460   5.127   3.064 -0.2188 -1.8921  2.9388
  177SAPS   H7Y20243   1.286   5.109   3.094  1.2778 -1.8709 -1.7422
  177SAPS   C3820244   1.384   5.276   3.210  0.2204 -0.2826 -0.0362
  177SAPS   H8X20245   1.286   5.310   3.251 -0.4405 -1.1281 -0.8826
  177SAPS   H8Y20246   1.449   5.366   3.203  1.0830 -0.4073  4.0708
  177SAPS   C3920247   1.457   5.188   3.315  0.6652  0.1432  0.3324
  177SAPS   H9X20248   1.565   5.178   3.293  0.5073 -0.9939 -0.0276
  177SAPS   H9Y20249   1.415   5.085   3.324  0.2176  0.3583  0.7807
  177SAPS  C31020250   1.432   5.255   3.452  0.2192  0.6278  0.2421
  177SAPS  H10X20251   1.325   5.243   3.476 -0.3406  1.7207 -1.5223
  177SAPS  H10Y20252   1.441   5.366   3.455  0.8708  0.6020 -0.3949
  177SAPS  C31120253   1.528   5.195   3.554  0.3169 -0.4463  0.1356
  177SAPS  H11X20254   1.632   5.213   3.520 -0.3018 -2.0989 -3.0341
  177SAPS  H11Y20255   1.520   5.084   3.543  1.6067 -0.4952 -0.5965
  177SAPS  C31220256   1.493   5.234   3.693 -0.6620  0.4692  0.1425
  177SAPS  H12X20257   1.390   5.200   3.717 -0.7550 -0.5871 -1.6129
  177SAPS  H12Y20258   1.493   5.345   3.705  0.3642  0.6380 -1.2119
  177SAPS  C31320259   1.584   5.178   3.805 -0.0359  0.4353  0.2435
  177SAPS  H13X20260   1.685   5.196   3.763 -0.7447 -0.5550 -2.0557
  177SAPS  H13Y20261   1.572   5.068   3.815  0.4490  0.4311  0.8520
  177SAPS  C31420262   1.568   5.250   3.933 -0.4018  0.5652 -0.5726
  177SAPS  H14X20263   1.466   5.243   3.975 -0.1293 -0.1798 -0.0030
  177SAPS  H14Y20264   1.586   5.357   3.910 -1.5165  0.9676  0.3604
  177SAPS  C31520265   1.675   5.212   4.042 -0.0229 -0.0238  0.4336
  177SAPS  H15X20266   1.772   5.249   4.002 -1.1258 -0.0545 -2.5548
  177SAPS  H15Y20267   1.698   5.103   4.044  0.0079 -0.0281 -0.0001
  177SAPS  C31620268   1.653   5.273   4.175 -0.1612 -0.2888  0.0048
  177SAPS  H16X20269   1.575   5.352   4.172 -1.0636 -1.1940 -1.8965
  177SAPS  H16Y20270   1.738   5.333   4.215 -2.6540  3.3705  0.3133
  177SAPS  C31720271   1.618   5.170   4.278 -0.9118  0.0049  0.1077
  177SAPS  H17X20272   1.688   5.083   4.274 -0.9139 -0.0612  1.3200
  177SAPS  H17Y20273   1.525   5.119   4.244 -0.6779  1.4719 -3.1578
  177SAPS  C31820274   1.611   5.220   4.415  0.1691 -0.2837 -0.5392
  177SAPS  H18X20275   1.705   5.270   4.448  0.1207  0.2184 -1.1617
  177SAPS  H18Y20276   1.608   5.129   4.479  0.0348  0.7816  1.0381
  177SAPS  H18Z20277   1.523   5.285   4.432 -0.0171  0.0660 -2.6228
  178SAPS     N20278   0.803   1.370   2.030  0.2756  0.3575 -0.2361
  178SAPS   HN120279   0.707   1.401   2.006  0.3765  0.7148 -0.1899
  178SAPS   HN220280   0.800   1.286   2.091 -1.0023  0.6718  0.1567
  178SAPS   HN320281   0.860   1.441   2.082  0.1669 -0.2669  0.7698
  178SAPS   C1220282   0.873   1.333   1.906  0.4801  0.0320 -0.3774
  178SAPS  H12A20283   0.804   1.258   1.871  1.2054 -0.4404 -0.8151
  178SAPS   C1320284   0.875   1.453   1.814  0.2592 -0.1923 -0.4892
  178SAPS  O13A20285   0.821   1.560   1.845 -0.2311 -0.3016  0.3330
  178SAPS  O13B20286   0.922   1.434   1.703  0.2253  0.5089  0.0519
  178SAPS   C1120287   1.018   1.271   1.925  0.3283 -0.1510 -0.5516
  178SAPS  H11A20288   1.080   1.341   1.984 -0.2651  0.7268 -0.9369
  178SAPS  H11B20289   1.062   1.268   1.823  1.6416 -0.9259  0.0201
  178SAPS     P20290   1.037   1.111   2.132  0.2309 -0.5953 -0.1428
  178SAPS   O1320291   1.032   0.964   2.150 -0.0927  0.3094  0.2672
  178SAPS   O1420292   1.156   1.184   2.170 -0.3090  0.4574  0.3834
  178SAPS   O1220293   1.005   1.134   1.981  0.1293 -0.4156 -0.7887
  178SAPS   O1120294   0.911   1.185   2.198 -0.1225  1.0878  0.1345
  178SAPS    C120295   0.901   1.225   2.333 -0.2717 -0.8470  0.7134
  178SAPS    HA20296   0.992   1.281   2.364  0.0899  0.4433 -2.2634
  178SAPS    HB20297   0.807   1.283   2.342 -0.7444 -1.3086 -0.9076
  178SAPS    C220298   0.862   1.106   2.419  0.8262 -0.3452  0.0290
  178SAPS    HS20299   0.820   1.143   2.515  0.0994 -1.1037  0.0225
  178SAPS   O2120300   0.973   1.022   2.458 -0.0929  0.1766 -0.3442
  178SAPS   C2120301   1.053   1.075   2.546  0.2435  0.1023  0.5913
  178SAPS   O2220302   1.047   1.190   2.588 -0.0981 -0.2385 -0.3842
  178SAPS   C2220303   1.167   0.976   2.566  0.3272 -0.0701 -0.0572
  178SAPS   H2R20304   1.112   0.880   2.573 -0.7165  0.6129  1.6934
  178SAPS   H2S20305   1.234   0.968   2.478  1.2234  0.2598  0.5760
  178SAPS    C320306   0.749   1.020   2.355  0.8178 -0.2304 -0.1746
  178SAPS    HX20307   0.798   0.938   2.298  0.0891 -0.1645 -0.9248
  178SAPS    HY20308   0.689   1.068   2.275  2.4693 -1.3229 -2.1632
  178SAPS   O3120309   0.665   0.961   2.459 -0.0251  0.0533 -0.3010
  178SAPS   C3120310   0.546   1.018   2.472 -0.4540 -0.1300 -0.4195
  178SAPS   O3220311   0.508   1.114   2.412 -0.1853 -0.0114  0.3172
  178SAPS   C3220312   0.450   0.937   2.567 -0.6928 -0.2078  0.8477
  178SAPS   H2X20313   0.515   0.878   2.635 -1.0165 -3.0096 -1.0969
  178SAPS   H2Y20314   0.380   0.861   2.527 -2.3093  0.6578  1.9163
  178SAPS   C2320315   1.246   0.999   2.700  0.9141 -1.0360 -0.2109
  178SAPS   H3R20316   1.264   1.108   2.708  0.4741 -0.9679 -0.1304
  178SAPS   H3S20317   1.346   0.951   2.689  0.6265 -1.7281  0.1313
  178SAPS   C2420318   1.173   0.967   2.829  0.1162 -0.4556 -0.4436
  178SAPS   H4R20319   1.241   0.907   2.893 -2.0038 -0.4303  1.9880
  178SAPS   H4S20320   1.095   0.894   2.800 -0.8180  0.0490  0.7175
  178SAPS   C2520321   1.127   1.089   2.905  0.4590  0.2542  0.0881
  178SAPS   H5R20322   1.068   1.157   2.841  2.5087  0.7758 -1.3371
  178SAPS   C2620323   1.152   1.119   3.037  0.2749 -0.1735 -0.0424
  178SAPS   H6R20324   1.106   1.211   3.076 -3.6692 -1.8136 -0.3632
  178SAPS   C2720325   1.234   1.031   3.131  0.0200 -0.7449 -0.1689
  178SAPS   H7R20326   1.339   1.027   3.093  0.3938 -2.2851  0.9313
  178SAPS   H7S20327   1.199   0.926   3.122  2.1683 -1.7968  2.2587
  178SAPS   C2820328   1.234   1.069   3.274  0.1070 -0.0675 -0.0561
  178SAPS   H8R20329   1.324   1.119   3.315 -0.0691 -0.0133  0.2632
  178SAPS   C2920330   1.126   1.050   3.350  0.2845 -0.4087 -0.9512
  178SAPS   H9R20331   1.127   1.083   3.455 -0.3420  0.3558 -1.1714
  178SAPS  C21020332   0.993   0.983   3.308  0.1506 -0.1849 -0.1082
  178SAPS  H10R20333   0.990   0.939   3.206 -2.7456 -1.0277  0.2610
  178SAPS  H10S20334   0.913   1.058   3.324  0.7219 -0.1274  3.2209
  178SAPS  C21120335   0.968   0.873   3.414 -0.1443 -0.7944  0.3796
  178SAPS  H11R20336   1.032   0.788   3.384  1.8950  1.4170 -1.9689
  178SAPS  C21220337   0.881   0.871   3.522 -0.0371  0.1170  0.5889
  178SAPS  H12R20338   0.872   0.776   3.577 -1.9022 -0.1489 -0.0920
  178SAPS  C21320339   0.800   0.988   3.574  0.1234  0.5058 -0.7183
  178SAPS  H13R20340   0.843   1.089   3.559  0.6224  0.5893  1.0521
  178SAPS  H13S20341   0.804   0.972   3.684 -1.0024 -0.7232 -0.8373
  178SAPS  C21420342   0.656   1.005   3.517  0.3718  0.3654  0.8661
  178SAPS  H14R20343   0.640   0.931   3.438 -0.3036  0.5794  0.8013
  178SAPS  C21520344   0.565   1.092   3.557  0.0207  0.6836  0.2879
  178SAPS  H15R20345   0.476   1.110   3.494  0.8228  0.0179 -1.0749
  178SAPS  C21620346   0.582   1.198   3.665 -0.3178  0.4856 -0.0947
  178SAPS  H16R20347   0.573   1.299   3.619  2.4332  1.0913  0.5170
  178SAPS  H16S20348   0.685   1.200   3.705  1.0860  1.1958 -3.4085
  178SAPS  C21720349   0.476   1.179   3.778 -0.3619 -0.0956 -0.2868
  178SAPS  H17R20350   0.519   1.104   3.848 -1.3783 -0.6610 -0.2444
  178SAPS  H17S20351   0.376   1.139   3.752 -2.4785  3.6577  1.3254
  178SAPS  C21820352   0.463   1.307   3.858 -0.4085  0.0726  0.3296
  178SAPS  H18R20353   0.389   1.301   3.941 -1.2749  0.4419 -0.3952
  178SAPS  H18S20354   0.431   1.390   3.791  1.5265  0.5192 -0.1041
  178SAPS  C21920355   0.589   1.360   3.923 -0.9729  0.1992  0.0908
  178SAPS  H19R20356   0.660   1.403   3.850  0.4656 -1.2126  0.5960
  178SAPS  H19S20357   0.639   1.281   3.984 -0.5331  0.5018  0.1275
  178SAPS  C22020358   0.566   1.485   4.008  0.0395 -0.0270  0.1300
  178SAPS  H20R20359   0.465   1.481   4.053 -0.2558 -3.9985 -0.5224
  178SAPS  H20S20360   0.575   1.583   3.957  0.5880 -0.6720 -1.0411
  178SAPS  H20T20361   0.646   1.497   4.085  1.5155  0.7776 -1.4746
  178SAPS   C3320362   0.362   1.039   2.659 -0.6761 -0.6126  0.7306
  178SAPS   H3X20363   0.293   1.092   2.590 -2.5095 -2.4197  1.0830
  178SAPS   H3Y20364   0.445   1.094   2.708  0.5722 -1.5770 -0.2412
  178SAPS   C3420365   0.281   0.965   2.764  0.3082  0.0060  0.5474
  178SAPS   H4X20366   0.243   0.870   2.721 -0.2790  0.7881 -0.6863
  178SAPS   H4Y20367   0.190   1.025   2.783 -1.0418 -1.8317  0.2454
  178SAPS   C3520368   0.351   0.949   2.903  0.2449 -0.4616  0.0151
  178SAPS   H5X20369   0.362   1.056   2.932 -1.5112  0.9109 -3.6308
  178SAPS   H5Y20370   0.451   0.906   2.882  1.3076  1.0942  1.6388
  178SAPS   C3620371   0.274   0.870   3.010 -0.0943  0.8832  0.1853
  178SAPS   H6X20372   0.237   0.777   2.962  0.4999 -0.2115  1.7506
  178SAPS   H6Y20373   0.182   0.924   3.040 -2.3081 -3.6355  2.5609
  178SAPS   C3720374   0.360   0.836   3.136 -0.5203  0.6170 -0.2478
  178SAPS   H7X20375   0.295   0.795   3.216  2.3504  3.2363  3.8178
  178SAPS   H7Y20376   0.390   0.933   3.182 -0.3179 -0.1599  1.2877
  178SAPS   C3820377   0.489   0.749   3.103  0.2807  0.3787 -1.0364
  178SAPS   H8X20378   0.550   0.785   3.018  2.2499  1.2460  0.6500
  178SAPS   H8Y20379   0.448   0.647   3.084  1.4310 -1.3008  3.8955
  178SAPS   C3920380   0.580   0.722   3.229  0.4157  0.3660  0.5990
  178SAPS   H9X20381   0.504   0.705   3.307  0.0810 -2.7341 -0.2432
  178SAPS   H9Y20382   0.644   0.812   3.243  2.4234 -0.7111 -1.1155
  178SAPS  C31020383   0.680   0.603   3.213 -0.8443 -0.3975 -0.0606
  178SAPS  H10X20384   0.742   0.611   3.121 -2.2293 -0.6707 -1.0390
  178SAPS  H10Y20385   0.616   0.516   3.187 -2.3212  0.5885  0.1335
  178SAPS  C31120386   0.752   0.577   3.344 -0.1665 -0.0923  0.1952
  178SAPS  H11X20387   0.677   0.587   3.425 -1.9118  1.0992 -1.4817
  178SAPS  H11Y20388   0.827   0.660   3.345  0.2381 -0.4116  3.2368
  178SAPS  C31220389   0.829   0.447   3.345  0.2808  0.3735 -0.5689
  178SAPS  H12X20390   0.901   0.455   3.261  2.3350 -1.9336  0.8445
  178SAPS  H12Y20391   0.754   0.365   3.336  0.5948 -0.0089  0.2013
  178SAPS  C31320392   0.916   0.429   3.471  0.2727  0.1291 -0.6983
  178SAPS  H13X20393   0.971   0.526   3.473  0.3181  0.1191 -1.1684
  178SAPS  H13Y20394   0.998   0.354   3.467 -0.4442 -0.6782 -0.4922
  178SAPS  C31420395   0.824   0.409   3.594  0.2768 -0.0397  0.5991
  178SAPS  H14X20396   0.746   0.334   3.570  1.3742 -1.3658  1.0377
  178SAPS  H14Y20397   0.771   0.505   3.612 -0.4272 -0.0412 -1.2790
  178SAPS  C31520398   0.888   0.367   3.723 -0.5869 -0.8657 -0.3289
  178SAPS  H15X20399   0.986   0.317   3.705  0.3070  1.1848 -1.5542
  178SAPS  H15Y20400   0.819   0.298   3.775  0.3701  0.3332  2.7939
  178SAPS  C31620401   0.930   0.493   3.817  0.7342 -0.3573 -0.8137
  178SAPS  H16X20402   0.945   0.440   3.913  1.4479 -2.0663 -1.8264
  178SAPS  H16Y20403   0.843   0.561   3.831 -0.2098 -1.5189 -0.8333
  178SAPS  C31720404   1.051   0.577   3.777 -0.0949  0.2945  0.5909
  178SAPS  H17X20405   1.043   0.597   3.668 -2.3070 -0.7251  0.5144
  178SAPS  H17Y20406   1.137   0.510   3.795  0.6595  0.7322 -1.1656
  178SAPS  C31820407   1.074   0.715   3.848  0.1696 -0.0582  0.1075
  178SAPS  H18X20408   1.030   0.798   3.788  1.1595  2.0047  2.0731
  178SAPS  H18Y20409   1.181   0.745   3.846  0.2517 -0.1427 -3.4971
  178SAPS  H18Z20410   1.027   0.719   3.948 -2.5694 -0.4010 -1.0979
  179SAPS     N20411   3.119   4.990   1.964  0.0743  0.1802  0.4527
  179SAPS   HN120412   3.189   5.056   2.003  2.6563 -1.1487 -1.6084
  179SAPS   HN220413   3.184   4.943   1.898 -2.1589 -1.8972 -0.4198
  179SAPS   HN320414   3.050   5.052   1.916 -0.3627  0.0057  0.8488
  179SAPS   C1220415   3.047   4.905   2.068 -0.2593 -0.3613 -0.0175
  179SAPS  H12A20416   2.982   4.835   2.019 -1.2221  1.0747 -0.8468
  179SAPS   C1320417   3.145   4.810   2.144  0.5921 -0.0044 -0.5549
  179SAPS  O13A20418   3.257   4.801   2.093  0.0109  0.0633 -0.3909
  179SAPS  O13B20419   3.108   4.748   2.245  0.1469  0.4393  0.1349
  179SAPS   C1120420   2.960   4.996   2.158  0.8379  0.0520 -0.3349
  179SAPS  H11A20421   3.011   5.077   2.213  0.3251 -0.1958  0.5266
  179SAPS  H11B20422   2.919   4.929   2.236  0.5114  0.0851 -0.4792
  179SAPS     P20423   2.706   5.007   2.092  0.3330 -0.0406 -0.3100
  179SAPS   O1320424   2.641   5.081   1.980 -0.2761  0.3146  0.1372
  179SAPS   O1420425   2.700   4.858   2.098 -0.3182  0.4492  0.1519
  179SAPS   O1220426   2.859   5.053   2.079  0.7108 -0.4912 -0.4667
  179SAPS   O1120427   2.650   5.055   2.236  0.2037  0.4045  0.1418
  179SAPS    C120428   2.531   4.985   2.294  0.0916  0.1156 -0.1284
  179SAPS    HA20429   2.445   5.054   2.278 -1.0989 -1.2754  0.1083
  179SAPS    HB20430   2.502   4.901   2.228  0.7568  1.1582 -1.8476
  179SAPS    C220431   2.554   4.952   2.440  0.0048 -0.1300 -0.3738
  179SAPS    HS20432   2.457   4.918   2.483 -0.1561  0.3137 -0.3809
  179SAPS   O2120433   2.599   5.067   2.511  0.5090  0.6122 -0.8418
  179SAPS   C2120434   2.493   5.145   2.547 -0.6716  0.0247 -0.9554
  179SAPS   O2220435   2.375   5.129   2.513 -0.3185 -0.4583 -0.4247
  179SAPS   C2220436   2.535   5.260   2.639  0.9326 -0.0416 -0.9836
  179SAPS   H2R20437   2.646   5.261   2.643  0.9868  1.4275 -2.0827
  179SAPS   H2S20438   2.501   5.358   2.600  1.5914  0.5667 -0.0736
  179SAPS    C320439   2.658   4.835   2.444 -0.0334 -0.3262 -0.3160
  179SAPS    HX20440   2.741   4.873   2.381 -1.3683  1.3034 -1.1731
  179SAPS    HY20441   2.598   4.754   2.399 -2.8837  0.3554  2.0019
  179SAPS   O3120442   2.712   4.792   2.575  0.2716 -0.4845  0.1931
  179SAPS   C3120443   2.648   4.696   2.636  0.5846  0.0984  0.5977
  179SAPS   O3220444   2.548   4.638   2.602 -0.0967  0.2633 -0.0877
  179SAPS   C3220445   2.721   4.674   2.770 -0.0945 -0.3173 -0.0325
  179SAPS   H2X20446   2.697   4.760   2.837  1.9562 -1.0228  1.7384
  179SAPS   H2Y20447   2.829   4.667   2.747 -0.2564 -2.1149 -0.3797
  179SAPS   C2320448   2.477   5.254   2.789 -0.1700 -0.5350  0.3137
  179SAPS   H3R20449   2.367   5.238   2.796  0.0692 -2.0953  0.9014
  179SAPS   H3S20450   2.494   5.362   2.805 -0.3053 -0.1533 -1.8324
  179SAPS   C2420451   2.580   5.186   2.878  0.3890  0.0323 -0.0938
  179SAPS   H4R20452   2.561   5.215   2.983  0.6918 -0.5367  0.1226
  179SAPS   H4S20453   2.680   5.216   2.840  1.3053  0.2843  2.3661
  179SAPS   C2520454   2.556   5.040   2.854 -0.5222  0.4213  0.0877
  179SAPS   H5R20455   2.578   4.998   2.755 -0.5047 -0.7341  0.5691
  179SAPS   C2620456   2.522   4.951   2.955  0.2942  0.0426  0.2246
  179SAPS   H6R20457   2.507   4.843   2.942  1.0304 -0.5920  3.7264
  179SAPS   C2720458   2.478   4.991   3.098 -0.8013 -0.1969 -0.0023
  179SAPS   H7R20459   2.460   5.101   3.097  5.0433  1.0705 -0.9755
  179SAPS   H7S20460   2.555   4.959   3.171 -0.0673 -1.0079 -1.0941
  179SAPS   C2820461   2.353   4.911   3.131  0.2969  0.6232 -0.7135
  179SAPS   H8R20462   2.334   4.815   3.082 -0.2248 -0.2566  1.1017
  179SAPS   C2920463   2.274   4.928   3.246 -0.5259  0.2963  0.1490
  179SAPS   H9R20464   2.183   4.866   3.255 -0.6449  0.7000  2.2180
  179SAPS  C21020465   2.280   5.040   3.343 -0.0465 -0.4813 -0.6595
  179SAPS  H10R20466   2.204   5.015   3.420  1.8674  1.2719  1.9645
  179SAPS  H10S20467   2.250   5.134   3.291 -0.7514 -0.8620 -0.9610
  179SAPS  C21120468   2.410   5.073   3.423 -0.0473  0.4350  0.5529
  179SAPS  H11R20469   2.469   4.982   3.443 -0.8339 -0.2205 -0.0467
  179SAPS  C21220470   2.433   5.197   3.476 -0.2244  0.4717 -0.1788
  179SAPS  H12R20471   2.534   5.200   3.520  0.5492 -2.2984 -1.5578
  179SAPS  C21320472   2.346   5.316   3.480  0.2612 -0.2176 -0.6016
  179SAPS  H13R20473   2.240   5.283   3.485  0.1732  0.1622  0.1575
  179SAPS  H13S20474   2.361   5.383   3.392  1.7107  1.4724  0.8575
  179SAPS  C21420475   2.364   5.404   3.608  0.2716 -0.2218 -0.0434
  179SAPS  H14R20476   2.464   5.394   3.653  0.8373 -0.3644 -1.2785
  179SAPS  C21520477   2.278   5.493   3.658  0.6717 -0.2294 -0.0826
  179SAPS  H15R20478   2.325   5.564   3.727 -0.5510  0.7240 -0.1852
  179SAPS  C21620479   2.140   5.541   3.618 -0.4782 -0.1812  0.1159
  179SAPS  H16R20480   2.111   5.471   3.537  2.9270  1.1825 -2.5013
  179SAPS  H16S20481   2.143   5.643   3.573 -0.8560  0.9595  2.4974
  179SAPS  C21720482   2.027   5.550   3.722 -0.2212 -0.1010 -0.1258
  179SAPS  H17R20483   2.014   5.449   3.766 -1.3969  1.3435  3.2207
  179SAPS  H17S20484   1.928   5.580   3.682  0.2578 -0.1863 -1.4209
  179SAPS  C21820485   2.072   5.640   3.826 -0.2886 -0.6697  0.1047
  179SAPS  H18R20486   2.072   5.743   3.784 -0.0573 -0.3461  0.8689
  179SAPS  H18S20487   2.174   5.618   3.864  0.2759  2.7505  0.9578
  179SAPS  C21920488   1.971   5.649   3.944  0.9820  0.2752  0.0503
  179SAPS  H19R20489   1.874   5.680   3.898  1.4744  1.3672 -0.2811
  179SAPS  H19S20490   1.983   5.732   4.016  0.6656 -0.7545  1.3300
  179SAPS  C22020491   1.946   5.510   4.015 -0.1848 -0.3373 -0.4626
  179SAPS  H20R20492   1.848   5.466   3.985 -1.4189  2.3078 -0.5581
  179SAPS  H20S20493   1.951   5.519   4.126  0.2355  0.7947 -0.5607
  179SAPS  H20T20494   2.026   5.437   3.991  1.0116  0.6885  0.2445
  179SAPS   C3320495   2.665   4.540   2.826  0.1430 -0.0622  0.1015
  179SAPS   H3X20496   2.685   4.451   2.763  2.7253 -0.1370  0.8990
  179SAPS   H3Y20497   2.555   4.540   2.840  0.0983  0.2586 -0.2647
  179SAPS   C3420498   2.723   4.503   2.967 -0.4224  0.2158 -0.1715
  179SAPS   H4X20499   2.833   4.490   2.952 -0.2555  2.1886 -1.0348
  179SAPS   H4Y20500   2.683   4.409   3.008 -1.6850  0.4000 -0.9222
  179SAPS   C3520501   2.700   4.603   3.080  0.0030  0.2130 -0.0240
  179SAPS   H5X20502   2.604   4.654   3.062  0.2780  0.5219 -0.6484
  179SAPS   H5Y20503   2.766   4.686   3.047 -1.6213  1.5827  0.0729
  179SAPS   C3620504   2.716   4.536   3.223  0.1935 -0.6397 -0.2903
  179SAPS   H6X20505   2.817   4.491   3.237  0.1812 -0.1635  1.6867
  179SAPS   H6Y20506   2.648   4.449   3.227  2.2096 -2.2665  0.3463
  179SAPS   C3720507   2.682   4.641   3.328  0.2824  0.3090 -0.3267
  179SAPS   H7X20508   2.574   4.652   3.308  0.2946 -1.6910 -1.7516
  179SAPS   H7Y20509   2.734   4.737   3.306  0.8810  0.1968  0.5343
  179SAPS   C3820510   2.708   4.602   3.474  0.1575 -0.0014 -0.4079
  179SAPS   H8X20511   2.813   4.568   3.487  0.0089 -0.1359  0.5117
  179SAPS   H8Y20512   2.643   4.518   3.506 -0.3279  0.9418  1.1716
  179SAPS   C3920513   2.688   4.712   3.581 -0.9712 -0.0794 -1.0844
  179SAPS   H9X20514   2.584   4.749   3.596 -1.5409 -2.8118  4.2459
  179SAPS   H9Y20515   2.761   4.795   3.568  0.0508 -0.8366 -0.3391
  179SAPS  C31020516   2.710   4.642   3.719 -0.5269  0.5700 -0.5879
  179SAPS  H10X20517   2.805   4.585   3.708 -0.9653 -0.4035  0.4735
  179SAPS  H10Y20518   2.634   4.562   3.727  0.0002  0.2272  1.4910
  179SAPS  C31120519   2.718   4.724   3.847 -0.1053  0.0481 -0.1103
  179SAPS  H11X20520   2.627   4.787   3.847 -0.6095 -0.6478  0.7613
  179SAPS  H11Y20521   2.805   4.793   3.845 -0.8207  0.9820  0.0505
  179SAPS  C31220522   2.720   4.649   3.983  0.2275 -0.3016 -0.0090
  179SAPS  H12X20523   2.802   4.574   3.974  2.2339  1.3620  2.7527
  179SAPS  H12Y20524   2.627   4.588   3.978  0.1625 -0.1494 -0.7238
  179SAPS  C31320525   2.726   4.733   4.105 -0.4811  0.1653  0.5539
  179SAPS  H13X20526   2.707   4.672   4.196  2.4826 -1.9332 -0.0554
  179SAPS  H13Y20527   2.651   4.814   4.100  0.1345  0.7181  0.0363
  179SAPS  C31420528   2.859   4.798   4.127 -0.3518 -0.0050  0.1299
  179SAPS  H14X20529   2.875   4.878   4.051 -2.1126  1.0073  0.7769
  179SAPS  H14Y20530   2.932   4.714   4.127  0.0522  0.3263  1.7445
  179SAPS  C31520531   2.855   4.871   4.262  0.4518 -0.0742 -0.2968
  179SAPS  H15X20532   2.758   4.923   4.275 -0.5147 -1.3192 -2.0527
  179SAPS  H15Y20533   2.934   4.948   4.271  1.2969 -1.1598  2.8923
  179SAPS  C31620534   2.885   4.778   4.382  0.2092 -0.4132  0.1304
  179SAPS  H16X20535   2.961   4.705   4.347 -1.3630 -1.8553 -0.3987
  179SAPS  H16Y20536   2.791   4.729   4.413 -1.7953  2.8550 -0.3026
  179SAPS  C31720537   2.928   4.851   4.517 -0.2120 -0.4258 -0.1115
  179SAPS  H17X20538   2.851   4.924   4.549 -1.1284 -0.0286 -2.9377
  179SAPS  H17Y20539   3.016   4.916   4.499  1.3102 -2.3022  0.1939
  179SAPS  C31820540   2.962   4.754   4.626  0.3027  0.1002 -1.0069
  179SAPS  H18X20541   2.880   4.682   4.646  0.3476 -0.2220 -1.9142
  179SAPS  H18Y20542   2.986   4.809   4.719  1.4416 -0.2927 -1.0503
  179SAPS  H18Z20543   3.051   4.692   4.604 -0.6678 -1.0829 -1.7496
  180SAPS     N20544   0.150   4.966   2.209 -0.4305 -0.1492 -0.5348
  180SAPS   HN120545   0.052   4.938   2.188  0.0472 -2.4284 -0.0432
  180SAPS   HN220546   0.202   4.895   2.265 -0.3671  0.2208 -0.1222
  180SAPS   HN320547   0.150   5.049   2.272 -0.2210  0.4219 -1.2705
  180SAPS   C1220548   0.222   4.994   2.081 -0.0079  0.2633 -0.4346
  180SAPS  H12A20549   0.286   4.908   2.065  2.7764  1.9410  0.8421
  180SAPS   C1320550   0.136   5.007   1.951  0.8190  0.2351 -0.2543
  180SAPS  O13A20551   0.014   5.009   1.971 -0.0472 -0.4227  0.5024
  180SAPS  O13B20552   0.186   5.012   1.843  0.0389  0.3375  0.1358
  180SAPS   C1120553   0.324   5.113   2.096 -0.1647  0.6826  0.7120
  180SAPS  H11A20554   0.264   5.206   2.092 -1.1023  0.0538 -0.6194
  180SAPS  H11B20555   0.384   5.122   2.003 -1.2723  0.0846 -0.0943
  180SAPS     P20556   0.542   5.173   2.229 -0.1535  0.0531 -0.4981
  180SAPS   O1320557   0.638   5.080   2.167  0.0557  0.5886  0.3816
  180SAPS   O1420558   0.533   5.309   2.169 -0.4504  0.1133  0.2199
  180SAPS   O1220559   0.398   5.107   2.222  0.1972 -0.5439  0.4791
  180SAPS   O1120560   0.574   5.192   2.383 -0.2408 -0.2803  0.1599
  180SAPS    C120561   0.486   5.124   2.473 -0.4206 -0.4709  0.4040
  180SAPS    HA20562   0.414   5.191   2.523 -1.6771 -1.4183 -0.0821
  180SAPS    HB20563   0.424   5.041   2.433  0.0446 -0.4898 -0.3070
  180SAPS    C220564   0.564   5.043   2.584 -0.3042  1.0703 -0.0695
  180SAPS    HS20565   0.485   4.977   2.625  0.1332 -2.2952 -4.0227
  180SAPS   O2120566   0.631   5.127   2.677 -0.6405 -0.1391  0.1131
  180SAPS   C2120567   0.642   5.072   2.796 -0.3428 -0.0701  0.6324
  180SAPS   O2220568   0.597   4.962   2.826  0.2944  0.0880 -0.6110
  180SAPS   C2220569   0.687   5.181   2.894  0.6839  0.2972  0.0644
  180SAPS   H2R20570   0.795   5.199   2.873  0.5843 -0.1384 -0.8573
  180SAPS   H2S20571   0.620   5.269   2.885  2.0330  1.1214 -3.2446
  180SAPS    C320572   0.669   4.941   2.515  0.4426 -0.1975 -0.2950
  180SAPS    HX20573   0.732   5.019   2.467 -1.5093  1.2090 -0.7023
  180SAPS    HY20574   0.625   4.880   2.433  1.0873 -1.8366  0.5465
  180SAPS   O3120575   0.743   4.855   2.602 -0.4032  0.6936  0.1715
  180SAPS   C3120576   0.692   4.744   2.654 -0.4641 -0.6402 -0.1759
  180SAPS   O3220577   0.593   4.692   2.612  0.6107  0.3700  0.3501
  180SAPS   C3220578   0.803   4.692   2.762  0.0105 -0.6112  0.2007
  180SAPS   H2X20579   0.828   4.776   2.830 -0.7166  1.2885 -1.7864
  180SAPS   H2Y20580   0.889   4.660   2.699 -1.3213  0.6311 -2.3952
  180SAPS   C2320581   0.674   5.137   3.041 -0.0633 -0.4868 -0.0923
  180SAPS   H3R20582   0.567   5.108   3.050 -0.0299 -0.0700  2.1926
  180SAPS   H3S20583   0.686   5.229   3.102 -0.7346 -0.5516  0.1365
  180SAPS   C2420584   0.769   5.028   3.107 -0.3522  0.1874  0.3600
  180SAPS   H4R20585   0.784   4.945   3.035 -1.5140  0.3733 -0.1151
  180SAPS   H4S20586   0.705   4.995   3.191 -0.4287 -4.6919 -1.3247
  180SAPS   C2520587   0.909   5.085   3.152 -0.7170  0.9511 -0.2982
  180SAPS   H5R20588   0.978   5.095   3.067  0.2090 -1.2144  0.1214
  180SAPS   C2620589   0.947   5.108   3.281 -0.6199  0.0206  0.5145
  180SAPS   H6R20590   1.048   5.149   3.299  0.2613 -0.2750 -3.0206
  180SAPS   C2720591   0.855   5.095   3.403  0.4630 -0.3880  0.4968
  180SAPS   H7R20592   0.837   4.987   3.420  0.9877 -0.4469  0.6804
  180SAPS   H7S20593   0.756   5.141   3.380 -0.0919 -2.0904 -0.7733
  180SAPS   C2820594   0.903   5.152   3.532  0.5391  0.3507  0.4486
  180SAPS   H8R20595   0.980   5.231   3.526  0.7627  0.1201  0.2164
  180SAPS   C2920596   0.840   5.131   3.652  0.0835 -0.1143 -0.1242
  180SAPS   H9R20597   0.862   5.185   3.745 -1.0645  0.7838 -0.3441
  180SAPS  C21020598   0.729   5.026   3.680  0.0234 -0.1258 -0.6240
  180SAPS  H10R20599   0.776   4.928   3.701 -1.0052 -0.2348  1.4105
  180SAPS  H10S20600   0.673   5.026   3.584  1.1217 -2.4623 -1.3226
  180SAPS  C21120601   0.627   5.049   3.797 -0.3645  0.0629  0.4803
  180SAPS  H11R20602   0.528   5.087   3.766  0.8147  2.9442 -0.1309
  180SAPS  C21220603   0.644   5.046   3.928 -0.5957 -0.4665  0.8236
  180SAPS  H12R20604   0.562   5.073   3.996  0.2438 -0.0254  1.6914
  180SAPS  C21320605   0.771   4.998   3.995 -0.2333  0.7796 -0.3099
  180SAPS  H13R20606   0.845   5.081   4.007  1.1964 -0.5317  0.2517
  180SAPS  H13S20607   0.821   4.927   3.926  0.4540  0.9317  0.0199
  180SAPS  C21420608   0.748   4.945   4.135 -0.3287 -0.0122 -0.2882
  180SAPS  H14R20609   0.687   4.854   4.146  1.3207 -1.1490 -0.2064
  180SAPS  C21520610   0.810   4.982   4.250  0.2476  0.2746  0.2958
  180SAPS  H15R20611   0.771   4.954   4.349  0.9548 -0.4421  0.3821
  180SAPS  C21620612   0.923   5.082   4.277  0.7250  0.2383  0.9159
  180SAPS  H16R20613   0.864   5.171   4.309 -1.6487 -1.2130  0.8550
  180SAPS  H16S20614   0.984   5.107   4.188 -0.2758 -0.2928  0.0673
  180SAPS  C21720615   1.007   5.036   4.399  0.0146  0.0457  1.2100
  180SAPS  H17R20616   1.069   5.126   4.420 -1.5844  1.5899 -0.2623
  180SAPS  H17S20617   1.079   4.953   4.385  1.2703  1.1091  1.1755
  180SAPS  C21820618   0.926   5.009   4.532  0.6352 -0.1030  0.3235
  180SAPS  H18R20619   0.870   4.913   4.522  0.3603  0.0454  0.4373
  180SAPS  H18S20620   0.850   5.089   4.546 -0.8873 -1.4708  0.1223
  180SAPS  C21920621   1.019   5.006   4.657  0.5645 -0.5435 -0.3027
  180SAPS  H19R20622   1.090   5.090   4.642 -0.4732  0.0568 -2.1149
  180SAPS  H19S20623   1.073   4.909   4.670 -0.0705 -0.7465  1.0261
  180SAPS  C22020624   0.934   5.027   4.787  0.5318 -0.3665 -0.2246
  180SAPS  H20R20625   0.989   5.070   4.874 -2.4756 -0.6005  1.9234
  180SAPS  H20S20626   0.850   5.097   4.768  1.0960  0.4438  0.1659
  180SAPS  H20T20627   0.888   4.931   4.817  0.3228 -0.6407 -1.3489
  180SAPS   C3320628   0.755   4.586   2.857  0.3434  0.5988 -0.3888
  180SAPS   H3X20629   0.840   4.560   2.923 -1.3083 -0.5383  1.3903
  180SAPS   H3Y20630   0.707   4.495   2.813  1.5152  0.2626 -1.0047
  180SAPS   C3420631   0.641   4.644   2.954  0.2679  0.0580 -0.2896
  180SAPS   H4X20632   0.542   4.644   2.904  1.2418  1.1371 -2.3161
  180SAPS   H4Y20633   0.680   4.744   2.984 -0.5970  0.9027 -1.8950
  180SAPS   C3520634   0.632   4.565   3.082  0.6285 -0.4373  0.1638
  180SAPS   H5X20635   0.734   4.570   3.126  1.2203  0.0879 -1.2236
  180SAPS   H5Y20636   0.602   4.458   3.076  1.0146 -0.5848  0.7525
  180SAPS   C3620637   0.544   4.634   3.186 -0.5043  0.3990  0.4975
  180SAPS   H6X20638   0.436   4.610   3.181 -0.4705  0.2956  0.2692
  180SAPS   H6Y20639   0.549   4.745   3.173  0.8447  0.3339  0.3329
  180SAPS   C3720640   0.593   4.615   3.336 -0.5986  0.1987 -0.7818
  180SAPS   H7X20641   0.604   4.508   3.365 -1.4549 -0.3983 -2.5223
  180SAPS   H7Y20642   0.506   4.663   3.386  0.4182  1.0583  0.2011
  180SAPS   C3820643   0.722   4.693   3.373  0.5849 -0.2816  0.4576
  180SAPS   H8X20644   0.701   4.795   3.334  0.3448 -0.7367 -0.6481
  180SAPS   H8Y20645   0.818   4.650   3.337  1.8843  2.8966 -0.2093
  180SAPS   C3920646   0.746   4.709   3.523 -0.1304 -0.4890  0.0479
  180SAPS   H9X20647   0.660   4.767   3.562 -2.3960 -3.2620 -0.5344
  180SAPS   H9Y20648   0.845   4.759   3.535 -0.3626 -0.4365  2.1536
  180SAPS  C31020649   0.751   4.578   3.610 -0.0932 -0.4141  0.0691
  180SAPS  H10X20650   0.813   4.494   3.572 -0.6465 -0.6441 -0.3557
  180SAPS  H10Y20651   0.645   4.542   3.607  0.4337 -2.4008  2.0612
  180SAPS  C31120652   0.778   4.605   3.766 -0.1624  0.1285  0.2654
  180SAPS  H11X20653   0.723   4.525   3.820 -0.7233 -1.5524 -2.6265
  180SAPS  H11Y20654   0.750   4.708   3.795 -1.8080 -0.7095  1.9026
  180SAPS  C31220655   0.922   4.582   3.796  0.1556 -0.3677  0.5621
  180SAPS  H12X20656   0.993   4.587   3.711  0.5846 -2.4800  0.7254
  180SAPS  H12Y20657   0.942   4.478   3.832  1.2142  0.5789  2.9322
  180SAPS  C31320658   0.967   4.689   3.899  0.2392 -0.5611  0.1655
  180SAPS  H13X20659   0.950   4.793   3.863 -1.1668 -0.6854  0.3975
  180SAPS  H13Y20660   1.077   4.681   3.915 -0.0481 -2.2366  1.5682
  180SAPS  C31420661   0.894   4.671   4.036  0.4494 -0.6722  0.0604
  180SAPS  H14X20662   0.784   4.669   4.025  0.3459 -3.2728  0.9569
  180SAPS  H14Y20663   0.942   4.756   4.089  4.4347 -2.6866  0.0590
  180SAPS  C31520664   0.928   4.536   4.106 -0.4246  0.8181 -0.5566
  180SAPS  H15X20665   1.039   4.532   4.112  0.1384  3.9162 -4.4641
  180SAPS  H15Y20666   0.894   4.454   4.039  0.3784 -0.9546  1.0837
  180SAPS  C31620667   0.862   4.516   4.239  0.6815  0.9055  0.1789
  180SAPS  H16X20668   0.809   4.608   4.274  1.3415  0.1105  3.5372
  180SAPS  H16Y20669   0.931   4.486   4.320 -0.2611 -1.1171  0.2789
  180SAPS  C31720670   0.754   4.394   4.236  0.3045 -0.7231 -0.4865
  180SAPS  H17X20671   0.822   4.306   4.227 -0.9309 -1.8820  1.0289
  180SAPS  H17Y20672   0.690   4.396   4.145  0.6801 -0.6232 -0.7547
  180SAPS  C31820673   0.678   4.389   4.367 -0.6311  0.0979 -0.2333
  180SAPS  H18X20674   0.595   4.316   4.363 -1.0541  0.4966  0.9052
  180SAPS  H18Y20675   0.641   4.491   4.392 -1.2590 -0.6410  2.1032
  180SAPS  H18Z20676   0.735   4.359   4.457 -0.2714  0.9696 -0.1576
  181POPC     N20677   0.280   5.830   6.813 -0.1386 -0.0937 -0.1546
  181POPC   C1220678   0.164   5.731   6.798  0.4055 -0.3402  0.0460
  181POPC  H12A20679   0.134   5.689   6.893 -2.7191  0.5206 -0.4501
  181POPC  H12B20680   0.196   5.639   6.751 -1.4982 -0.4219 -1.1717
  181POPC   C1320681   0.377   5.788   6.918 -0.7321  0.2872  0.2987
  181POPC  H13A20682   0.324   5.760   7.008 -0.1307 -3.6593 -0.3950
  181POPC  H13B20683   0.426   5.700   6.879 -1.3283  0.1859 -0.2489
  181POPC  H13C20684   0.452   5.862   6.940  0.1844 -1.2912  2.9752
  181POPC   C1420685   0.331   5.862   6.675 -0.5284 -0.3587 -0.0582
  181POPC  H14A20686   0.260   5.916   6.614 -0.7017 -0.7383 -0.1935
  181POPC  H14B20687   0.414   5.931   6.683  1.6952 -2.8512 -0.2058
  181POPC  H14C20688   0.366   5.783   6.611  0.4633 -0.5968  0.7428
  181POPC   C1520689   0.222   5.959   6.866  0.6067 -0.2893 -0.1561
  181POPC  H15A20690   0.174   5.934   6.959 -0.4412 -0.8824 -0.8264
  181POPC  H15B20691   0.133   5.986   6.809  0.3165 -0.4823  0.2048
  181POPC  H15C20692   0.289   6.042   6.878 -1.4274  1.4714 -0.2523
  181POPC   C1120693   0.042   5.760   6.710 -0.2938 -0.2774  0.3062
  181POPC  H11A20694   0.007   5.862   6.735 -2.1640 -1.1668  1.5374
  181POPC  H11B20695  -0.045   5.692   6.721 -0.2480 -0.4714 -0.4732
  181POPC     P20696   0.100   5.626   6.497 -0.1164 -0.5649  0.4044
  181POPC   O1320697   0.138   5.519   6.589  0.4049 -0.1144 -0.3745
  181POPC   O1420698   0.191   5.661   6.389 -0.3769 -0.4573 -0.2450
  181POPC   O1220699   0.085   5.758   6.574 -0.1173 -0.2771  0.3597
  181POPC   O1120700  -0.045   5.595   6.439 -0.2506 -0.0213 -0.2488
  181POPC    C120701  -0.128   5.691   6.381  0.3440 -0.3896  0.5605
  181POPC    HA20702  -0.074   5.767   6.320 -0.5101 -0.2109  0.0057
  181POPC    HB20703  -0.168   5.747   6.468 -0.4393 -1.5195  0.9496
  181POPC    C220704  -0.257   5.640   6.313  0.1805  0.0301  0.7342
  181POPC    HS20705  -0.315   5.568   6.374 -0.7976  0.0318 -0.1674
  181POPC   O2120706  -0.227   5.581   6.187 -0.2785  0.4697  0.4166
  181POPC   C2120707  -0.320   5.505   6.137  0.1327 -0.4172 -0.3168
  181POPC   O2220708  -0.426   5.483   6.185 -0.5499  0.5186 -0.2134
  181POPC   C2220709  -0.285   5.446   6.002 -0.1158  0.3180  0.5063
  181POPC   H2R20710  -0.197   5.501   5.965 -0.6541  0.2175 -0.9772
  181POPC   H2S20711  -0.362   5.473   5.927  0.8191 -0.5147 -0.7958
  181POPC    C320712  -0.365   5.751   6.288  0.1012  0.5120 -0.2019
  181POPC    HX20713  -0.379   5.786   6.392  1.8548 -0.7307  0.4975
  181POPC    HY20714  -0.464   5.710   6.261  0.1314  0.5662 -0.3970
  181POPC   O3120715  -0.325   5.853   6.192  0.4052  0.5969  0.1129
  181POPC   C3120716  -0.340   5.973   6.235 -0.1057 -0.4143  0.2581
  181POPC   O3220717  -0.401   6.005   6.334  0.5634  0.0106  0.6685
  181POPC   C3220718  -0.278   6.064   6.126  0.3668  0.1494 -0.5261
  181POPC   H2X20719  -0.177   6.029   6.097 -0.4778 -2.7781 -0.2616
  181POPC   H2Y20720  -0.284   6.166   6.170 -2.1804 -0.2063  0.1062
  181POPC   C2320721  -0.268   5.289   5.999  0.8676 -0.7824 -0.8552
  181POPC   H3R20722  -0.355   5.231   6.037  2.1813 -0.7676  2.5106
  181POPC   H3S20723  -0.182   5.275   6.068  1.5758  1.1672 -1.2812
  181POPC   C2420724  -0.243   5.238   5.855 -0.3429  0.1104 -0.4367
  181POPC   H4R20725  -0.170   5.155   5.869 -0.4403  0.5357  4.2291
  181POPC   H4S20726  -0.178   5.315   5.810 -0.4306  0.1724 -0.4576
  181POPC   C2520727  -0.373   5.201   5.775 -0.3010 -0.2729  0.1039
  181POPC   H5R20728  -0.432   5.295   5.772  2.1079  1.3164 -2.2215
  181POPC   H5S20729  -0.423   5.119   5.830  0.2804 -0.1913  0.7756
  181POPC   C2620730  -0.334   5.157   5.643  0.1494  0.9007  1.0195
  181POPC   H6R20731  -0.286   5.057   5.653 -0.1721  0.4957 -1.0773
  181POPC   H6S20732  -0.267   5.226   5.588  2.3836 -3.3021 -2.1300
  181POPC   C2720733  -0.466   5.150   5.556  0.1412 -0.0723  0.4219
  181POPC   H7R20734  -0.512   5.251   5.559 -1.6065 -0.7380 -1.2915
  181POPC   H7S20735  -0.541   5.075   5.589  0.0475 -0.2400 -0.1456
  181POPC   C2820736  -0.450   5.116   5.409 -0.7199  0.6509  0.2894
  181POPC   H8R20737  -0.548   5.077   5.374  0.6179 -1.5668 -1.2395
  181POPC   H8S20738  -0.395   5.020   5.402 -3.8701 -1.2699 -0.3548
  181POPC   C2920739  -0.393   5.233   5.330  0.7988  0.3836  0.7364
  181POPC   H9120740  -0.286   5.247   5.349  1.0037 -0.1153 -0.0075
  181POPC  C21020741  -0.467   5.306   5.242  0.6048  0.5092  0.0628
  181POPC  H10120742  -0.433   5.407   5.214 -0.2638  1.2934  1.6520
  181POPC  C21120743  -0.616   5.284   5.210  0.5862 -0.3536  0.4005
  181POPC  H11R20744  -0.663   5.368   5.265  3.7746  0.9883  1.2843
  181POPC  H11S20745  -0.655   5.190   5.254 -1.2030  0.9729  1.8032
  181POPC  C21220746  -0.638   5.298   5.058  0.3630  0.2414 -1.0587
  181POPC  H12R20747  -0.747   5.294   5.035  0.7660 -0.1315 -3.0351
  181POPC  H12S20748  -0.602   5.204   5.011 -1.9156 -2.0001  1.3168
  181POPC  C21320749  -0.584   5.426   4.985  0.6342  0.2611 -0.2477
  181POPC  H13R20750  -0.476   5.414   4.959  1.1013  0.4492  1.4847
  181POPC  H13S20751  -0.608   5.510   5.052 -0.7687 -0.2969 -0.0344
  181POPC  C21420752  -0.658   5.445   4.850 -0.9665 -0.6428 -0.4994
  181POPC  H14R20753  -0.767   5.423   4.854 -0.8370 -1.4827 -1.2004
  181POPC  H14S20754  -0.608   5.371   4.784  2.0804  0.8603 -0.0542
  181POPC  C21520755  -0.653   5.595   4.806 -0.4437 -0.3204  0.0775
  181POPC  H15R20756  -0.558   5.636   4.846  0.5184 -1.3768 -1.0657
  181POPC  H15S20757  -0.743   5.641   4.855  1.2480  1.1678  1.9745
  181POPC  C21620758  -0.662   5.605   4.656 -0.1224 -0.1531  0.2706
  181POPC  H16R20759  -0.564   5.602   4.604 -0.7544  0.9862 -1.0645
  181POPC  H16S20760  -0.695   5.707   4.626  1.7375 -0.2916 -2.6192
  181POPC  C21720761  -0.753   5.502   4.592 -0.3718  0.2520 -0.4517
  181POPC  H17R20762  -0.855   5.492   4.635 -0.1216 -0.9318 -0.0810
  181POPC  H17S20763  -0.708   5.402   4.614 -0.8655  0.5957  2.6144
  181POPC  C21820764  -0.768   5.522   4.442 -0.8344 -0.2001 -0.1098
  181POPC  H18R20765  -0.844   5.452   4.402  0.0054 -1.9225  1.1833
  181POPC  H18S20766  -0.668   5.500   4.400 -0.3452  2.0006 -0.2451
  181POPC  H18T20767  -0.779   5.627   4.406 -1.6278 -0.5711 -0.9819
  181POPC   C3320768  -0.367   6.052   6.002  0.1927 -0.1389 -0.1875
  181POPC   H3X20769  -0.466   6.092   6.032  0.6010 -1.5690  3.7097
  181POPC   H3Y20770  -0.382   5.945   5.976  0.6492 -0.5165  1.0455
  181POPC   C3420771  -0.309   6.123   5.882  0.0348 -0.9504 -0.7264
  181POPC   H4X20772  -0.212   6.081   5.847  0.8154  1.6770 -1.9915
  181POPC   H4Y20773  -0.285   6.224   5.922  3.1305 -1.2701 -1.4768
  181POPC   C3520774  -0.395   6.121   5.753 -0.3300  0.3452  0.1431
  181POPC   H5X20775  -0.495   6.164   5.776  0.2859  1.4953  0.7176
  181POPC   H5Y20776  -0.392   6.012   5.729 -1.1132  0.1329  0.9234
  181POPC   C3620777  -0.338   6.190   5.632  0.0797 -0.3277 -0.3157
  181POPC   H6X20778  -0.237   6.156   5.600  1.4145  0.5110  2.6784
  181POPC   H6Y20779  -0.332   6.294   5.672  1.9118 -0.3980 -0.3265
  181POPC   C3720780  -0.442   6.211   5.523  0.4664  0.7265 -0.0257
  181POPC   H7X20781  -0.496   6.306   5.545  1.2226  1.7252 -2.2580
  181POPC   H7Y20782  -0.508   6.121   5.520  0.1508  0.9729 -1.8264
  181POPC   C3820783  -0.385   6.219   5.380 -0.2970  0.3114  0.0829
  181POPC   H8X20784  -0.359   6.117   5.343  2.3239  0.3369  1.5856
  181POPC   H8Y20785  -0.288   6.272   5.387 -0.7624  1.1840 -0.0256
  181POPC   C3920786  -0.484   6.294   5.295 -0.1717 -0.0632 -0.4255
  181POPC   H9X20787  -0.502   6.392   5.345 -0.4444  0.6304 -1.8430
  181POPC   H9Y20788  -0.575   6.230   5.288 -0.1116 -0.1238 -0.6661
  181POPC  C31020789  -0.406   6.315   5.162 -0.0639 -0.2971 -0.8380
  181POPC  H10X20790  -0.385   6.219   5.110 -1.9095 -1.0027 -0.3715
  181POPC  H10Y20791  -0.320   6.380   5.186 -1.1531  0.6681  0.5944
  181POPC  C31120792  -0.494   6.399   5.068 -0.2921  0.1397 -0.2184
  181POPC  H11X20793  -0.514   6.497   5.114  0.7661  0.7074 -0.9191
  181POPC  H11Y20794  -0.588   6.341   5.059 -1.2007  1.7880 -2.0439
  181POPC  C31220795  -0.440   6.436   4.924 -0.0165 -0.1170 -0.3749
  181POPC  H12X20796  -0.420   6.342   4.869  3.5899 -0.1945  0.8110
  181POPC  H12Y20797  -0.340   6.476   4.952 -1.0367  1.2847  1.5577
  181POPC  C31320798  -0.524   6.545   4.856 -0.3856  0.2920 -0.1225
  181POPC  H13X20799  -0.549   6.625   4.929 -0.7815 -0.3787  0.4860
  181POPC  H13Y20800  -0.618   6.501   4.816  0.1941 -1.5571  0.4576
  181POPC  C31420801  -0.459   6.591   4.724 -0.3295  0.4981  0.7705
  181POPC  H14X20802  -0.444   6.507   4.653  0.0366  0.0122  1.4038
  181POPC  H14Y20803  -0.359   6.634   4.745  0.2414  0.4722 -1.6491
  181POPC  C31520804  -0.545   6.699   4.655  0.1922  0.7031  0.1106
  181POPC  H15X20805  -0.648   6.659   4.646  0.2254  0.5493  0.3869
  181POPC  H15Y20806  -0.522   6.712   4.547 -0.9205 -1.5151 -0.4586
  181POPC  C31620807  -0.542   6.836   4.721  0.1575 -0.0002 -0.2127
  181POPC  H16X20808  -0.441   6.878   4.737  0.4799 -1.6010  2.4559
  181POPC  H16Y20809  -0.582   6.840   4.824 -1.3965  2.3508 -0.8109
  181POPC  H16Z20810  -0.605   6.910   4.665 -0.8172 -2.3223 -2.3956
  182POPC     N20811   2.003   2.140   6.833 -0.1130  0.2108  0.1428
  182POPC   C1220812   1.979   2.236   6.718 -0.6592 -0.7216  0.0679
  182POPC  H12A20813   1.908   2.313   6.747 -1.3556 -1.5209  0.5526
  182POPC  H12B20814   1.931   2.185   6.636  0.0089 -1.0553 -0.1142
  182POPC   C1320815   1.879   2.110   6.886  0.2182 -0.0944  0.1179
  182POPC  H13A20816   1.815   2.087   6.803 -0.0034 -0.2785  0.3360
  182POPC  H13B20817   1.882   2.037   6.966 -0.7619  1.0533  1.2363
  182POPC  H13C20818   1.839   2.201   6.929 -0.6901 -0.6679  0.5176
  182POPC   C1420819   2.086   2.023   6.787 -0.8170  0.4889 -0.4310
  182POPC  H14A20820   2.017   1.959   6.734 -1.7030  2.1256 -1.3388
  182POPC  H14B20821   2.161   2.058   6.718 -0.9428  0.5921 -0.5171
  182POPC  H14C20822   2.135   1.970   6.867  0.5571  2.3119 -0.0170
  182POPC   C1520823   2.093   2.198   6.933  0.4322 -0.1265 -0.1424
  182POPC  H15A20824   2.185   2.225   6.884  0.6166 -0.3173  0.0924
  182POPC  H15B20825   2.120   2.127   7.010  1.7861 -1.1476 -1.4881
  182POPC  H15C20826   2.050   2.286   6.978 -1.2352 -0.2434 -1.4084
  182POPC   C1120827   2.101   2.301   6.642 -0.5096  0.1943  0.6598
  182POPC  H11A20828   2.060   2.342   6.547 -2.2830 -1.2512  0.7522
  182POPC  H11B20829   2.168   2.222   6.600 -0.3928  0.6209  0.0210
  182POPC     P20830   2.160   2.544   6.714  0.1998  0.0418  0.0027
  182POPC   O1320831   2.271   2.611   6.779  0.5942 -0.4205 -0.1207
  182POPC   O1420832   2.020   2.569   6.750  0.2511  0.3991 -0.3044
  182POPC   O1220833   2.180   2.388   6.721  0.1741  0.1702  0.2192
  182POPC   O1120834   2.183   2.570   6.559 -0.1453  0.0419 -0.0315
  182POPC    C120835   2.310   2.530   6.511  0.0161  0.9238 -0.6159
  182POPC    HA20836   2.298   2.491   6.407  0.8433  0.3468 -0.5105
  182POPC    HB20837   2.365   2.449   6.564  1.3025  0.8179 -2.0325
  182POPC    C220838   2.412   2.645   6.484  0.4617  0.1972 -0.1079
  182POPC    HS20839   2.450   2.680   6.582 -1.9428 -0.1644  1.0221
  182POPC   O2120840   2.337   2.755   6.435  0.3101 -0.6865 -0.3114
  182POPC   C2120841   2.401   2.873   6.433  0.3369  0.1356  0.1344
  182POPC   O2220842   2.519   2.890   6.453 -0.2792  0.3616  0.2160
  182POPC   C2220843   2.300   2.982   6.387 -0.3689  0.8781 -0.3426
  182POPC   H2R20844   2.197   2.940   6.390 -0.2554  0.3718 -2.2143
  182POPC   H2S20845   2.322   3.005   6.280 -0.6393 -0.1524 -0.6304
  182POPC    C320846   2.531   2.605   6.411  0.6700 -0.0553  0.3899
  182POPC    HX20847   2.551   2.502   6.447 -1.1300 -0.4295  0.4122
  182POPC    HY20848   2.622   2.662   6.438  2.7032 -3.2430  0.8919
  182POPC   O3120849   2.504   2.584   6.269 -0.2800  0.0280  0.5010
  182POPC   C3120850   2.611   2.592   6.188 -0.1508  0.3147 -0.2537
  182POPC   O3220851   2.725   2.611   6.217 -0.5604 -0.0772 -0.3385
  182POPC   C3220852   2.567   2.569   6.047 -0.0360 -0.0946 -0.2634
  182POPC   H2X20853   2.497   2.653   6.027 -2.3766 -1.9820 -0.4313
  182POPC   H2Y20854   2.503   2.480   6.030  1.2298 -1.3224  1.1166
  182POPC   C2320855   2.308   3.117   6.464 -0.1942 -0.1136 -0.4355
  182POPC   H3R20856   2.407   3.164   6.446 -0.0333  1.3924  3.4084
  182POPC   H3S20857   2.305   3.082   6.569  2.2925 -2.5805 -1.0821
  182POPC   C2420858   2.197   3.214   6.422  0.1815  0.7119 -0.5529
  182POPC   H4R20859   2.217   3.311   6.472  0.6100  1.0752 -1.4162
  182POPC   H4S20860   2.105   3.163   6.459  1.5223 -1.0824  0.4568
  182POPC   C2520861   2.184   3.252   6.270 -0.2573  0.0881 -0.3613
  182POPC   H5R20862   2.168   3.171   6.195  1.1503  0.0524 -0.6430
  182POPC   H5S20863   2.277   3.311   6.255 -1.2082  2.1456  1.3242
  182POPC   C2620864   2.060   3.343   6.244 -0.3109 -0.1162 -0.2463
  182POPC   H6R20865   2.064   3.419   6.324 -1.3297  1.5043 -1.6623
  182POPC   H6S20866   1.973   3.275   6.238  0.8318 -1.5135 -2.2258
  182POPC   C2720867   2.063   3.432   6.110 -0.1253 -0.0299 -0.3684
  182POPC   H7R20868   2.154   3.497   6.111  1.5168 -2.2108 -0.4760
  182POPC   H7S20869   1.974   3.498   6.120  0.8342  1.1447  0.8542
  182POPC   C2820870   2.064   3.347   5.977  0.0796 -0.0740 -0.1076
  182POPC   H8R20871   2.159   3.289   5.979 -0.3312 -0.7611 -0.3663
  182POPC   H8S20872   2.066   3.425   5.899  0.0963  1.1923  1.1239
  182POPC   C2920873   1.943   3.263   5.956 -0.1759  0.2844 -0.2595
  182POPC   H9120874   1.911   3.209   6.046  1.0305  0.1174  0.0803
  182POPC  C21020875   1.850   3.270   5.858  0.9368 -0.6387  0.5403
  182POPC  H10120876   1.763   3.203   5.857  1.1791 -0.9710 -1.3028
  182POPC  C21120877   1.853   3.355   5.735 -0.2811  0.7211 -0.1907
  182POPC  H11R20878   1.952   3.358   5.685 -0.8893  2.4125 -1.4121
  182POPC  H11S20879   1.836   3.460   5.767 -0.4287  0.9780 -1.0740
  182POPC  C21220880   1.746   3.323   5.626 -0.3264  0.8124 -0.4968
  182POPC  H12R20881   1.642   3.327   5.667 -0.1315  1.1951 -0.0411
  182POPC  H12S20882   1.773   3.220   5.593 -0.2275  0.8502 -0.5334
  182POPC  C21320883   1.761   3.396   5.489  0.3509 -0.2376 -0.5237
  182POPC  H13R20884   1.713   3.496   5.479  1.1535  0.0748 -1.4340
  182POPC  H13S20885   1.702   3.346   5.409 -1.3452  1.1109 -0.1883
  182POPC  C21420886   1.898   3.419   5.424 -0.1520  0.7035  0.6235
  182POPC  H14R20887   1.953   3.323   5.415 -0.4824  0.4177  1.5707
  182POPC  H14S20888   1.958   3.487   5.488  1.2103  0.7659 -0.6507
  182POPC  C21520889   1.894   3.476   5.284 -0.1575 -0.6866 -0.0126
  182POPC  H15R20890   1.847   3.577   5.293  0.4782 -0.5152  1.7324
  182POPC  H15S20891   1.828   3.413   5.221 -0.7535 -0.1669  0.0767
  182POPC  C21620892   2.035   3.481   5.215 -0.6003 -0.0471 -0.1829
  182POPC  H16R20893   2.076   3.384   5.179 -0.3216 -0.0546  0.1484
  182POPC  H16S20894   2.107   3.516   5.293 -1.0094 -1.4946  0.8850
  182POPC  C21720895   2.051   3.579   5.096  0.6364 -0.2951 -1.0306
  182POPC  H17R20896   2.133   3.561   5.023  0.9536  2.0490 -1.3276
  182POPC  H17S20897   2.073   3.681   5.134  1.7029 -0.5136 -1.0204
  182POPC  C21820898   1.930   3.596   5.003  0.4440 -0.3211 -0.3828
  182POPC  H18R20899   1.843   3.641   5.053 -0.2274 -1.4993 -0.4393
  182POPC  H18S20900   1.892   3.493   4.982  1.4006 -0.6272 -0.7043
  182POPC  H18T20901   1.955   3.648   4.908  0.3866 -2.0326 -1.3761
  182POPC   C3320902   2.677   2.578   5.934  0.2574 -0.3277  0.0272
  182POPC   H3X20903   2.767   2.520   5.964  1.4980  1.2320 -0.5480
  182POPC   H3Y20904   2.707   2.684   5.917  0.0366 -0.3417 -0.4582
  182POPC   C3420905   2.645   2.496   5.806  0.3816 -0.3168  0.3310
  182POPC   H4X20906   2.550   2.537   5.768 -1.1263 -2.0904  1.9992
  182POPC   H4Y20907   2.620   2.389   5.817 -2.4634  0.2738  0.2244
  182POPC   C3520908   2.748   2.522   5.702  0.5612 -0.1042  0.4855
  182POPC   H5X20909   2.845   2.480   5.737  1.2121  2.3096  1.8478
  182POPC   H5Y20910   2.763   2.631   5.685  3.6199 -0.0883  2.5054
  182POPC   C3620911   2.710   2.462   5.570 -0.4119  0.1600  0.5928
  182POPC   H6X20912   2.607   2.487   5.538 -0.6246 -1.9761 -0.6407
  182POPC   H6Y20913   2.712   2.353   5.591 -1.3913 -0.2337 -1.1408
  182POPC   C3720914   2.804   2.488   5.449 -0.4268  0.7223 -0.3853
  182POPC   H7X20915   2.775   2.415   5.370 -1.1847  0.2844  0.2886
  182POPC   H7Y20916   2.908   2.461   5.476 -0.1786  0.7320 -1.2857
  182POPC   C3820917   2.814   2.640   5.394  0.2302  0.0961 -0.3700
  182POPC   H8X20918   2.842   2.713   5.473  0.8675  2.2488 -2.4634
  182POPC   H8Y20919   2.712   2.667   5.358 -0.0893 -1.6569 -0.8519
  182POPC   C3920920   2.913   2.662   5.275 -0.0025 -0.4232  0.2197
  182POPC   H9X20921   3.014   2.620   5.295 -0.2198 -0.6870  0.7945
  182POPC   H9Y20922   2.924   2.771   5.256  0.3351 -0.7891 -1.9218
  182POPC  C31020923   2.862   2.596   5.150  0.3972  0.0024 -0.7858
  182POPC  H10X20924   2.757   2.634   5.148  0.1526  0.1072  3.3942
  182POPC  H10Y20925   2.849   2.489   5.178  1.0484  0.3842  1.1685
  182POPC  C31120926   2.946   2.618   5.024  0.3074 -0.5156 -0.5844
  182POPC  H11X20927   3.048   2.573   5.028 -0.4576 -2.2590  0.2395
  182POPC  H11Y20928   2.968   2.727   5.021  3.8426 -1.0392  1.2262
  182POPC  C31220929   2.869   2.582   4.895 -0.3643  0.4114 -0.6872
  182POPC  H12X20930   2.775   2.639   4.882 -0.1069  0.9215 -0.3548
  182POPC  H12Y20931   2.846   2.473   4.891  1.2603 -0.0279  0.7386
  182POPC  C31320932   2.964   2.619   4.779  0.2349  0.2677  0.2320
  182POPC  H13X20933   3.058   2.560   4.786 -0.9405 -1.5996  1.1528
  182POPC  H13Y20934   2.980   2.729   4.777 -2.9379  0.8572 -2.8663
  182POPC  C31420935   2.906   2.605   4.638 -0.3993 -0.4510  0.5682
  182POPC  H14X20936   2.859   2.505   4.627  0.2163 -0.5963 -0.9366
  182POPC  H14Y20937   2.985   2.604   4.559 -1.2879  0.9065 -0.3816
  182POPC  C31520938   2.812   2.723   4.599  0.2899  0.6179 -0.1645
  182POPC  H15X20939   2.862   2.820   4.617  0.4444  0.4474  0.3449
  182POPC  H15Y20940   2.718   2.717   4.657 -0.0374 -1.6416 -0.8154
  182POPC  C31620941   2.764   2.720   4.458  0.2115 -0.1915 -0.2037
  182POPC  H16X20942   2.702   2.812   4.447  1.8844  1.0715  0.6205
  182POPC  H16Y20943   2.692   2.635   4.450 -0.1556  0.0110  0.7842
  182POPC  H16Z20944   2.842   2.720   4.379  1.0257 -0.5103  0.5899
  183POPC     N20945   5.156   2.250   6.871 -0.2110  0.8981 -0.0006
  183POPC   C1220946   5.064   2.301   6.763  0.1591  0.5558 -0.2129
  183POPC  H12A20947   5.121   2.353   6.687 -1.5338  1.3535 -0.9850
  183POPC  H12B20948   5.010   2.383   6.808  3.1077  0.4841  3.9869
  183POPC   C1320949   5.273   2.185   6.806 -0.7390 -0.0207  0.1724
  183POPC  H13A20950   5.314   2.238   6.721 -2.6590  1.5367  0.1314
  183POPC  H13B20951   5.345   2.149   6.878 -0.7140 -1.2417 -0.4357
  183POPC  H13C20952   5.236   2.094   6.761  0.6487  0.1013 -1.3200
  183POPC   C1420953   5.218   2.352   6.951 -0.5059 -0.2859 -0.2872
  183POPC  H14A20954   5.285   2.407   6.887 -0.2747  0.4218  0.5401
  183POPC  H14B20955   5.151   2.421   7.002  1.1561  0.0721  1.5562
  183POPC  H14C20956   5.271   2.312   7.036  0.9452  2.2800  0.1413
  183POPC   C1520957   5.089   2.150   6.965 -0.1371 -0.3052 -0.3336
  183POPC  H15A20958   5.014   2.199   7.025 -0.2843 -0.9894  0.0559
  183POPC  H15B20959   5.155   2.111   7.042 -3.2057 -0.5781  2.3412
  183POPC  H15C20960   5.052   2.056   6.928  1.2428 -1.1263  0.2559
  183POPC   C1120961   4.973   2.188   6.701 -0.2834 -0.3318  0.1894
  183POPC  H11A20962   4.903   2.244   6.636 -1.1006 -1.9257 -0.3680
  183POPC  H11B20963   4.909   2.141   6.779  0.5184 -0.1393  0.9814
  183POPC     P20964   5.028   2.077   6.467  0.5130  0.4760 -0.2522
  183POPC   O1320965   5.118   1.970   6.429 -0.9236  0.2745 -0.4423
  183POPC   O1420966   5.046   2.210   6.407 -0.4681  0.5274 -0.1527
  183POPC   O1220967   5.041   2.097   6.622  0.5347 -0.1100  0.4919
  183POPC   O1120968   4.882   2.027   6.455 -0.4676 -0.0850  0.9106
  183POPC    C120969   4.843   1.897   6.388  0.8295  0.3417  0.4056
  183POPC    HA20970   4.738   1.877   6.415  0.8515  0.7897  0.8131
  183POPC    HB20971   4.909   1.813   6.419  1.0924 -0.0628 -1.1263
  183POPC    C220972   4.861   1.905   6.233  0.2258  0.8379  0.0945
  183POPC    HS20973   4.945   1.971   6.202  0.8282 -0.7994 -1.9964
  183POPC   O2120974   4.743   1.961   6.174 -0.0904  0.1597  0.2797
  183POPC   C2120975   4.755   2.024   6.067  0.1680 -0.3648  0.1574
  183POPC   O2220976   4.852   2.035   5.990  0.0782  0.1122  0.0102
  183POPC   C2220977   4.631   2.103   6.042  0.2329 -0.1919 -0.2175
  183POPC   H2R20978   4.652   2.195   5.984 -0.3720 -1.4557 -2.5531
  183POPC   H2S20979   4.592   2.137   6.141  2.5882  1.5784  0.1875
  183POPC    C320980   4.868   1.758   6.181 -0.4374 -0.6779  0.6087
  183POPC    HX20981   4.786   1.698   6.227 -0.8416 -1.9702 -1.6443
  183POPC    HY20982   4.963   1.718   6.222 -0.5414  1.4159  3.1332
  183POPC   O3120983   4.862   1.753   6.040 -0.4745  0.6781  0.3475
  183POPC   C3120984   4.985   1.765   5.979  0.8179  0.2988  0.2998
  183POPC   O3220985   5.091   1.771   6.039  0.5463 -0.4892 -0.4216
  183POPC   C3220986   4.954   1.793   5.830  0.0051 -0.5465  0.2796
  183POPC   H2X20987   4.944   1.903   5.817 -1.2533 -0.9308 -2.9967
  183POPC   H2Y20988   4.863   1.735   5.803 -0.4406  0.3327 -0.1401
  183POPC   C2320989   4.521   2.025   5.963 -0.1431  0.7708 -0.1687
  183POPC   H3R20990   4.445   2.103   5.944 -0.1526  0.9166  0.4567
  183POPC   H3S20991   4.484   1.931   6.011 -1.1196  0.5731 -1.2738
  183POPC   C2420992   4.558   1.977   5.817  0.0112  0.0927 -0.3130
  183POPC   H4R20993   4.475   1.910   5.785  0.9941 -1.6587  0.6052
  183POPC   H4S20994   4.643   1.907   5.835  0.2052  0.5218  0.4943
  183POPC   C2520995   4.589   2.087   5.718  0.9467  0.6701  0.5038
  183POPC   H5R20996   4.639   2.165   5.778 -0.4999  1.7475  0.3804
  183POPC   H5S20997   4.494   2.121   5.671  1.8757  1.7461 -0.6441
  183POPC   C2620998   4.683   2.049   5.600  0.3220  0.1442  0.0661
  183POPC   H6R20999   4.775   2.014   5.651 -0.0335  1.8267  2.0060
  183POPC   H6S21000   4.701   2.141   5.540  0.4098  0.5423  0.6909
  183POPC   C2721001   4.613   1.946   5.509 -0.3859 -0.2039 -0.3950
  183POPC   H7R21002   4.521   1.999   5.475 -1.7481 -2.2692 -0.0968
  183POPC   H7S21003   4.587   1.856   5.567  2.0278  0.3992  1.7864
  183POPC   C2821004   4.692   1.899   5.379 -0.0440 -0.5304 -0.0850
  183POPC   H8R21005   4.613   1.843   5.326  0.7552 -0.4475 -1.4038
  183POPC   H8S21006   4.765   1.820   5.407  0.2593  0.3217  1.7337
  183POPC   C2921007   4.762   2.001   5.296  0.5198 -0.1908  0.2452
  183POPC   H9121008   4.851   2.035   5.351 -1.2627  3.2583  1.2393
  183POPC  C21021009   4.735   2.030   5.168 -0.7613 -0.4047  0.1791
  183POPC  H10121010   4.792   2.108   5.116 -3.1490 -1.4121 -4.5122
  183POPC  C21121011   4.617   1.976   5.080 -0.5481  0.1977 -0.3597
  183POPC  H11R21012   4.514   2.010   5.103 -0.0106  1.9429 -0.3550
  183POPC  H11S21013   4.619   1.866   5.093  0.5275  0.1638 -0.7078
  183POPC  C21221014   4.641   1.989   4.930  0.3331 -0.1712  0.2451
  183POPC  H12R21015   4.749   1.972   4.912  0.0248 -1.9076 -0.1994
  183POPC  H12S21016   4.616   2.093   4.902 -0.1574  0.2417  2.1244
  183POPC  C21321017   4.566   1.894   4.834 -0.4355  0.0144  0.8134
  183POPC  H13R21018   4.455   1.893   4.844 -0.5519 -0.8095 -0.3204
  183POPC  H13S21019   4.597   1.790   4.860 -1.9185 -1.9925 -4.2166
  183POPC  C21421020   4.592   1.925   4.683 -0.3892 -0.3002 -0.0879
  183POPC  H14R21021   4.700   1.946   4.665  0.2964 -2.1581  1.4945
  183POPC  H14S21022   4.534   2.016   4.657 -0.7645 -0.9078 -1.4613
  183POPC  C21521023   4.541   1.814   4.584  0.0441 -0.1691 -0.4284
  183POPC  H15R21024   4.463   1.761   4.643  0.9327 -0.7655  0.2365
  183POPC  H15S21025   4.615   1.734   4.563  1.6626  1.4134 -1.0206
  183POPC  C21621026   4.467   1.866   4.459 -0.1236 -0.1802 -0.4632
  183POPC  H16R21027   4.532   1.937   4.404  0.3951 -1.2316 -1.2571
  183POPC  H16S21028   4.387   1.933   4.496  0.2644  0.6573 -1.1167
  183POPC  C21721029   4.414   1.748   4.380  0.2259 -0.1640  0.3810
  183POPC  H17R21030   4.365   1.691   4.462  2.1457  0.7670  2.2987
  183POPC  H17S21031   4.494   1.686   4.334 -0.2792 -0.9877  0.5923
  183POPC  C21821032   4.308   1.801   4.279 -0.1949 -0.2563  0.0455
  183POPC  H18R21033   4.220   1.852   4.321 -0.9433 -2.8991  1.9745
  183POPC  H18S21034   4.269   1.711   4.226  0.2557  0.3434 -1.3341
  183POPC  H18T21035   4.357   1.861   4.199  1.6586  0.1047  1.3648
  183POPC   C3321036   5.072   1.752   5.740 -0.0310  0.2783  0.1734
  183POPC   H3X21037   5.100   1.645   5.750  2.6660  1.0705  1.8207
  183POPC   H3Y21038   5.159   1.813   5.772  2.3860 -3.1565  0.6730
  183POPC   C3421039   5.027   1.751   5.591  0.2691  0.0200  0.2869
  183POPC   H4X21040   4.996   1.855   5.569 -0.0207  0.1685  1.3697
  183POPC   H4Y21041   4.942   1.682   5.574  1.5961 -1.5857 -0.1243
  183POPC   C3521042   5.135   1.709   5.493 -0.2741  0.3822 -0.0834
  183POPC   H5X21043   5.166   1.603   5.496  0.1155  0.4930 -0.1893
  183POPC   H5Y21044   5.232   1.761   5.507  0.3949 -0.8374 -0.1018
  183POPC   C3621045   5.084   1.732   5.347 -0.1768  0.4045  0.2486
  183POPC   H6X21046   5.048   1.837   5.337 -0.9635  0.0099 -1.4204
  183POPC   H6Y21047   5.001   1.668   5.310  0.5723  0.8115 -2.3486
  183POPC   C3721048   5.193   1.710   5.240 -0.1230 -0.3360 -0.2290
  183POPC   H7X21049   5.237   1.608   5.239 -0.3911 -0.4530 -0.0648
  183POPC   H7Y21050   5.279   1.776   5.265  0.7966 -2.1467  1.7094
  183POPC   C3821051   5.142   1.736   5.097 -0.2757 -0.2437  0.7290
  183POPC   H8X21052   5.053   1.674   5.075  1.1461 -1.9188 -0.5819
  183POPC   H8Y21053   5.225   1.694   5.036  0.4534 -1.2363  2.3449
  183POPC   C3921054   5.111   1.876   5.064  0.0709 -0.3659 -0.1757
  183POPC   H9X21055   5.189   1.949   5.092 -0.3001  0.0205 -0.1362
  183POPC   H9Y21056   5.017   1.909   5.114 -0.0553  0.5838 -0.9863
  183POPC  C31021057   5.078   1.905   4.906 -0.3312 -0.5702  0.3562
  183POPC  H10X21058   4.985   1.851   4.881  0.3327 -0.9038 -1.5316
  183POPC  H10Y21059   5.156   1.862   4.841 -0.4529  0.7555 -0.7225
  183POPC  C31121060   5.066   2.055   4.875  0.3040 -0.1827 -0.3071
  183POPC  H11X21061   5.155   2.115   4.900 -0.5324  0.3924  1.4469
  183POPC  H11Y21062   4.984   2.100   4.936  0.6658  0.2344 -0.1272
  183POPC  C31221063   5.036   2.057   4.723 -0.2934 -0.7578 -0.1548
  183POPC  H12X21064   4.951   1.991   4.697 -1.3541 -0.8842  3.1608
  183POPC  H12Y21065   5.128   2.017   4.676  0.5320  2.0026 -1.1054
  183POPC  C31321066   5.012   2.195   4.669 -0.4892  0.5118 -0.0737
  183POPC  H13X21067   5.012   2.189   4.558 -2.2930  2.4594 -0.2566
  183POPC  H13Y21068   5.100   2.262   4.682  0.2636 -0.2111 -1.2271
  183POPC  C31421069   4.894   2.273   4.726 -0.2750  0.2075 -0.2392
  183POPC  H14X21070   4.914   2.288   4.834  1.5139  0.2563 -0.5452
  183POPC  H14Y21071   4.802   2.215   4.704  2.3851 -4.1564 -1.1981
  183POPC  C31521072   4.886   2.414   4.668  0.2870 -0.2389 -0.2485
  183POPC  H15X21073   4.874   2.394   4.559  0.5926 -0.6401 -0.2067
  183POPC  H15Y21074   4.985   2.462   4.680 -0.1103  0.3805  0.7257
  183POPC  C31621075   4.771   2.491   4.735 -0.4095 -0.4749 -0.3469
  183POPC  H16X21076   4.768   2.496   4.846  0.1066 -0.2240 -0.3440
  183POPC  H16Y21077   4.672   2.443   4.717 -0.0324 -0.5563 -2.4749
  183POPC  H16Z21078   4.768   2.595   4.696 -1.3183 -0.3814 -0.0658
  184POPC     N21079   4.018   1.430   7.275 -0.1734 -0.4736  0.5179
  184POPC   C1221080   3.967   1.456   7.134 -0.2884 -0.5208 -0.5547
  184POPC  H12A21081   3.979   1.364   7.078  1.1351 -0.1002 -0.9709
  184POPC  H12B21082   4.029   1.530   7.086 -1.8381 -0.1885 -2.1886
  184POPC   C1321083   3.955   1.308   7.332 -0.0781  0.5256  0.8575
  184POPC  H13A21084   3.978   1.224   7.269 -2.2782 -0.1845  0.9236
  184POPC  H13B21085   3.979   1.293   7.437  0.1396 -1.8836  0.5094
  184POPC  H13C21086   3.848   1.309   7.328 -0.1041 -1.9098 -1.0358
  184POPC   C1421087   4.160   1.404   7.266  0.0205  0.3162  0.3326
  184POPC  H14A21088   4.189   1.309   7.225 -2.7604 -0.6396  0.4100
  184POPC  H14B21089   4.208   1.492   7.225 -0.1927 -0.3242 -1.3575
  184POPC  H14C21090   4.202   1.409   7.365 -1.1638  0.3339  0.8545
  184POPC   C1521091   3.997   1.541   7.368  0.0817 -0.1101  0.1333
  184POPC  H15A21092   3.890   1.551   7.385  0.2462  3.6267 -0.1977
  184POPC  H15B21093   4.029   1.634   7.323 -2.3480  0.9463  0.4296
  184POPC  H15C21094   4.043   1.536   7.466 -0.7106 -2.7006  0.4434
  184POPC   C1121095   3.813   1.486   7.115  0.1919  0.5515  0.0551
  184POPC  H11A21096   3.794   1.503   7.007 -0.9573 -1.1891 -0.0623
  184POPC  H11B21097   3.780   1.576   7.171  0.8716  1.5170 -1.0383
  184POPC     P21098   3.690   1.264   7.069 -0.4612  0.5702 -0.0430
  184POPC   O1321099   3.593   1.185   7.154  0.0008 -0.1300 -0.1013
  184POPC   O1421100   3.811   1.190   7.021 -0.3727 -0.0170 -0.0191
  184POPC   O1221101   3.730   1.380   7.164 -0.1202 -0.1009  0.0791
  184POPC   O1121102   3.618   1.340   6.943  0.2983  0.0645 -0.0770
  184POPC    C121103   3.545   1.266   6.841 -1.2683 -0.2030 -0.3968
  184POPC    HA21104   3.459   1.208   6.880  0.6839 -2.8054  0.3008
  184POPC    HB21105   3.617   1.189   6.805 -1.7719 -0.6239 -0.5127
  184POPC    C221106   3.540   1.355   6.713 -0.1934  0.4455  0.4650
  184POPC    HS21107   3.460   1.428   6.739  0.2407 -0.2698  4.5520
  184POPC   O2121108   3.511   1.262   6.607 -0.2886  0.6814 -0.5951
  184POPC   C2121109   3.398   1.290   6.544  0.7649 -0.3912  0.5494
  184POPC   O2221110   3.325   1.389   6.566 -0.4924  0.1960 -0.2947
  184POPC   C2221111   3.360   1.168   6.465 -0.3033 -0.0989 -0.4242
  184POPC   H2R21112   3.333   1.080   6.529  0.4534 -0.3900 -0.4888
  184POPC   H2S21113   3.456   1.142   6.415  0.6097  0.7200  0.8335
  184POPC    C321114   3.676   1.432   6.700 -0.0685 -0.1943  0.1307
  184POPC    HX21115   3.755   1.353   6.703 -0.1192 -0.3854 -2.0600
  184POPC    HY21116   3.678   1.503   6.786 -2.4083  0.4262 -0.2644
  184POPC   O3121117   3.688   1.510   6.574 -0.2808  0.0509  0.4030
  184POPC   C3121118   3.614   1.620   6.568  0.0040  0.2438 -0.0419
  184POPC   O3221119   3.562   1.679   6.661  0.4064  0.1258 -0.8267
  184POPC   C3221120   3.631   1.689   6.431 -0.3086  0.1303 -0.3501
  184POPC   H2X21121   3.733   1.690   6.387  0.3652  2.2416  1.0845
  184POPC   H2Y21122   3.595   1.791   6.457  0.7049  0.1733  1.0111
  184POPC   C2321123   3.259   1.183   6.358  0.7723  0.4518  0.2086
  184POPC   H3R21124   3.156   1.209   6.388  0.6048 -1.6411  1.7142
  184POPC   H3S21125   3.240   1.084   6.309  0.7837  0.9340 -0.8010
  184POPC   C2421126   3.287   1.267   6.231  0.2499 -0.3720  0.0061
  184POPC   H4R21127   3.326   1.366   6.263  3.0364 -0.3811 -2.8782
  184POPC   H4S21128   3.190   1.266   6.177 -0.8287  0.7966  1.8124
  184POPC   C2521129   3.394   1.213   6.132  1.2662 -0.1484 -1.2521
  184POPC   H5R21130   3.343   1.127   6.083 -2.1011  0.5324  0.7410
  184POPC   H5S21131   3.481   1.172   6.186  0.4442 -0.0703  0.1856
  184POPC   C2621132   3.452   1.315   6.032 -0.3803 -0.4034  0.2334
  184POPC   H6R21133   3.520   1.255   5.967 -1.2621 -2.4797  1.1526
  184POPC   H6S21134   3.521   1.384   6.086 -0.3975 -1.4180  1.6167
  184POPC   C2721135   3.363   1.402   5.940 -0.1711 -0.3535  0.3482
  184POPC   H7R21136   3.424   1.484   5.898 -1.4560 -1.1171 -3.4257
  184POPC   H7S21137   3.286   1.443   6.009  0.2073  1.3829 -0.2135
  184POPC   C2821138   3.312   1.325   5.819  0.0496  0.7988  0.2741
  184POPC   H8R21139   3.221   1.386   5.800 -1.4192 -0.8031  1.8556
  184POPC   H8S21140   3.279   1.223   5.848 -2.9121  1.0931 -1.5880
  184POPC   C2921141   3.406   1.322   5.703 -0.6205 -0.7376 -0.3479
  184POPC   H9121142   3.512   1.301   5.727 -0.1671  0.1899 -1.4675
  184POPC  C21021143   3.375   1.352   5.579 -0.0205  0.0596  0.2141
  184POPC  H10121144   3.455   1.383   5.509  1.4048 -0.5904  1.4940
  184POPC  C21121145   3.233   1.379   5.528  0.5612  0.9509 -0.1212
  184POPC  H11R21146   3.217   1.487   5.505 -0.8013  1.1110  1.3883
  184POPC  H11S21147   3.143   1.364   5.592  0.4028  0.2199 -0.5047
  184POPC  C21221148   3.207   1.299   5.394 -0.3655  0.2026  0.3791
  184POPC  H12R21149   3.104   1.321   5.360 -0.4885  0.7600  1.0906
  184POPC  H12S21150   3.201   1.189   5.409 -0.8972  0.2715  0.6945
  184POPC  C21321151   3.300   1.331   5.278  0.1585  0.2123  0.2719
  184POPC  H13R21152   3.394   1.277   5.301 -0.5719 -0.1940  2.5526
  184POPC  H13S21153   3.323   1.440   5.278  0.2307  0.1999  0.6352
  184POPC  C21421154   3.244   1.287   5.143  0.0858  0.5063  0.2052
  184POPC  H14R21155   3.151   1.340   5.113  0.8548  1.9695  0.2906
  184POPC  H14S21156   3.229   1.178   5.150  1.8108  0.3349  4.0471
  184POPC  C21521157   3.350   1.325   5.034  0.2522  0.0077 -0.1679
  184POPC  H15R21158   3.434   1.254   5.047 -0.0747  0.0146  2.3564
  184POPC  H15S21159   3.376   1.426   5.072 -1.2416  0.0045  0.9593
  184POPC  C21621160   3.292   1.325   4.891 -0.2878 -0.0888  0.4645
  184POPC  H16R21161   3.268   1.219   4.865  1.8859 -0.1220 -1.7919
  184POPC  H16S21162   3.371   1.350   4.818 -1.0329 -1.2443 -0.7973
  184POPC  C21721163   3.169   1.415   4.861  0.3779 -1.2286  0.1012
  184POPC  H17R21164   3.189   1.520   4.890 -3.6600  0.2679 -1.8270
  184POPC  H17S21165   3.081   1.382   4.920 -0.7872  2.8935  0.9757
  184POPC  C21821166   3.117   1.425   4.713 -0.6041  0.5533  0.5178
  184POPC  H18R21167   3.196   1.481   4.658  1.5393 -1.3945  1.4907
  184POPC  H18S21168   3.022   1.483   4.705 -1.7611 -1.4847 -2.6480
  184POPC  H18T21169   3.088   1.322   4.683 -2.9726  1.4707 -0.5998
  184POPC   C3321170   3.532   1.616   6.330  0.3602  0.2272  0.3195
  184POPC   H3X21171   3.428   1.646   6.358 -0.0186  1.2218 -1.9546
  184POPC   H3Y21172   3.556   1.508   6.337  1.9454  0.3511 -2.0416
  184POPC   C3421173   3.535   1.666   6.184 -0.7857 -0.5490 -1.5513
  184POPC   H4X21174   3.509   1.773   6.173 -1.6830 -0.5040  0.5838
  184POPC   H4Y21175   3.457   1.618   6.122  0.1872 -0.2761 -3.0370
  184POPC   C3521176   3.668   1.639   6.113  0.5323  1.3489  0.6640
  184POPC   H5X21177   3.681   1.528   6.107  1.7478  1.5140 -0.0626
  184POPC   H5Y21178   3.759   1.682   6.159  0.1455  1.3853  1.4139
  184POPC   C3621179   3.649   1.689   5.962 -0.6613  0.0976  0.0872
  184POPC   H6X21180   3.698   1.786   5.939 -1.2628  0.5019  0.4856
  184POPC   H6Y21181   3.541   1.706   5.941 -0.9486 -0.3670  1.1026
  184POPC   C3721182   3.704   1.603   5.849 -0.3806  0.1549  0.0325
  184POPC   H7X21183   3.670   1.498   5.852 -1.4844  0.5206  1.2455
  184POPC   H7Y21184   3.814   1.598   5.866 -0.1626  0.4242 -1.2250
  184POPC   C3821185   3.676   1.653   5.706  0.2706  0.7852 -0.4901
  184POPC   H8X21186   3.717   1.752   5.678  1.4523  0.2127 -0.8749
  184POPC   H8Y21187   3.565   1.657   5.705 -0.2269 -4.6369 -1.0939
  184POPC   C3921188   3.728   1.558   5.598 -0.3180  0.1747 -0.4393
  184POPC   H9X21189   3.704   1.457   5.637 -1.9876  1.7507  2.9977
  184POPC   H9Y21190   3.839   1.565   5.590 -0.4661  0.6267 -3.5991
  184POPC  C31021191   3.677   1.582   5.459 -0.3966 -0.0073 -0.2666
  184POPC  H10X21192   3.718   1.677   5.419  1.0448  0.4569  2.1414
  184POPC  H10Y21193   3.566   1.595   5.455 -0.3592  0.4156  0.0524
  184POPC  C31121194   3.736   1.478   5.358 -0.1788  0.1200 -0.0249
  184POPC  H11X21195   3.720   1.374   5.390  0.2962 -0.5791 -1.9132
  184POPC  H11Y21196   3.847   1.488   5.368  0.0711 -2.2011 -0.0767
  184POPC  C31221197   3.702   1.486   5.206 -0.1536  0.3631 -0.4082
  184POPC  H12X21198   3.725   1.591   5.180  3.4478  0.4321  2.2872
  184POPC  H12Y21199   3.594   1.461   5.196 -0.3913  0.7922  0.9242
  184POPC  C31321200   3.797   1.400   5.113 -0.5623 -0.3936  0.4600
  184POPC  H13X21201   3.792   1.298   5.157 -1.5544  0.1791  1.7258
  184POPC  H13Y21202   3.898   1.446   5.107  0.0958 -1.9265 -0.9736
  184POPC  C31421203   3.726   1.393   4.972  0.3263  0.0320 -0.5098
  184POPC  H14X21204   3.730   1.491   4.919 -3.1590  0.4660 -0.2183
  184POPC  H14Y21205   3.618   1.393   4.997  0.3358 -0.4836 -0.4636
  184POPC  C31521206   3.773   1.279   4.892  0.3310 -0.1456 -0.9764
  184POPC  H15X21207   3.740   1.182   4.934 -0.5600  0.3515 -0.4785
  184POPC  H15Y21208   3.884   1.285   4.885  0.2126  1.0058 -2.3514
  184POPC  C31621209   3.707   1.288   4.749 -0.4086 -0.2904 -0.1630
  184POPC  H16X21210   3.740   1.200   4.690 -1.2001 -0.0735 -0.9490
  184POPC  H16Y21211   3.736   1.381   4.695 -1.8832 -0.3602 -1.1270
  184POPC  H16Z21212   3.597   1.275   4.760 -0.4391  1.0306  1.5707
  185POPC     N21213   3.465   0.691   2.037  0.1127  0.0735  0.0694
  185POPC   C1221214   3.532   0.732   2.164 -0.0376  0.3013  0.5512
  185POPC  H12A21215   3.593   0.819   2.145 -1.1874  1.1576  0.6918
  185POPC  H12B21216   3.594   0.653   2.204 -2.3861 -2.8777 -1.5837
  185POPC   C1321217   3.413   0.813   1.971  0.0005  0.5447 -0.0381
  185POPC  H13A21218   3.366   0.808   1.874 -0.7058  1.6309  0.2316
  185POPC  H13B21219   3.334   0.858   2.030 -0.5639 -0.4814  0.0284
  185POPC  H13C21220   3.493   0.884   1.959  0.7436 -0.2398  0.2090
  185POPC   C1421221   3.572   0.634   1.943 -0.0194 -0.5210 -1.1636
  185POPC  H14A21222   3.534   0.633   1.842  1.7325  0.0577 -1.8600
  185POPC  H14B21223   3.656   0.701   1.950 -1.0616  0.6854  0.7168
  185POPC  H14C21224   3.603   0.536   1.975  1.8417 -0.2116 -1.8881
  185POPC   C1521225   3.349   0.595   2.055 -0.7220 -1.0853 -0.2763
  185POPC  H15A21226   3.289   0.611   2.144  0.3059 -0.6092  0.3515
  185POPC  H15B21227   3.394   0.499   2.074  2.6636  0.6470  1.2662
  185POPC  H15C21228   3.294   0.582   1.963  0.3735 -1.5281 -0.8845
  185POPC   C1121229   3.436   0.766   2.283  0.8950 -0.2865 -0.0330
  185POPC  H11A21230   3.490   0.790   2.377  1.1483  0.8358 -0.4435
  185POPC  H11B21231   3.376   0.676   2.309 -0.6205  0.6113 -0.2972
  185POPC     P21232   3.376   1.018   2.284  0.1999  0.3304 -0.0725
  185POPC   O1321233   3.279   1.124   2.239  0.1358  0.5182  0.0258
  185POPC   O1421234   3.517   1.033   2.244 -0.7863  0.7867 -0.8044
  185POPC   O1221235   3.338   0.865   2.254  0.1159 -0.6087  0.6721
  185POPC   O1121236   3.360   1.005   2.443  0.0942  0.3053  0.0916
  185POPC    C121237   3.221   0.983   2.485 -0.9727  0.4009  0.1598
  185POPC    HA21238   3.176   0.897   2.431 -0.6750  0.8158 -0.7727
  185POPC    HB21239   3.151   1.068   2.468 -2.3581 -0.8837 -0.9256
  185POPC    C221240   3.202   0.935   2.628  0.5791  0.8221  0.6277
  185POPC    HS21241   3.101   0.891   2.645  1.8935 -2.1714  1.3061
  185POPC   O2121242   3.223   1.042   2.721  0.3451  0.1221  0.0493
  185POPC   C2121243   3.125   1.127   2.736 -0.4134 -0.1325 -0.3750
  185POPC   O2221244   3.023   1.130   2.671 -0.3832  0.3620 -0.3948
  185POPC   C2221245   3.155   1.213   2.860 -0.0529 -0.0512  0.1515
  185POPC   H2R21246   3.141   1.318   2.826  0.3668 -0.0225  0.0696
  185POPC   H2S21247   3.257   1.205   2.903 -0.3362  1.1521  1.1135
  185POPC    C321248   3.305   0.816   2.651  0.1045  0.2375  0.0602
  185POPC    HX21249   3.398   0.869   2.622  0.4160 -1.2295 -1.8433
  185POPC    HY21250   3.304   0.730   2.581  1.3816  0.2506 -0.0008
  185POPC   O3121251   3.304   0.766   2.788 -0.0881 -0.3261  0.6461
  185POPC   C3121252   3.419   0.795   2.870 -0.1223 -0.1809 -0.7593
  185POPC   O3221253   3.513   0.861   2.833 -0.6523  0.5915  0.4498
  185POPC   C3221254   3.391   0.751   3.013  0.4868  0.4023  0.8681
  185POPC   H2X21255   3.483   0.698   3.045  0.4557 -0.8501 -0.9553
  185POPC   H2Y21256   3.303   0.682   3.012  0.3562  0.5643  0.0370
  185POPC   C2321257   3.049   1.196   2.974 -0.1487 -0.1274  0.2232
  185POPC   H3R21258   3.037   1.085   2.984 -2.8260 -0.1285 -1.7196
  185POPC   H3S21259   2.946   1.225   2.942  0.1857  1.1308  0.2580
  185POPC   C2421260   3.091   1.274   3.104  0.4449  0.5141  0.1247
  185POPC   H4R21261   3.108   1.382   3.083 -0.6429  0.9958  1.5752
  185POPC   H4S21262   3.190   1.232   3.132 -0.4893 -1.9598 -0.0408
  185POPC   C2521263   2.982   1.271   3.208  0.3066 -0.3434 -0.5996
  185POPC   H5R21264   2.962   1.170   3.248  1.0437  0.6625  2.6376
  185POPC   H5S21265   2.889   1.300   3.155 -0.6938  0.5501  1.4917
  185POPC   C2621266   2.996   1.354   3.334  0.2311 -0.7508 -0.1019
  185POPC   H6R21267   3.010   1.463   3.317 -0.0542 -0.9112 -1.5322
  185POPC   H6S21268   3.082   1.323   3.397  1.1500  3.3559  0.9138
  185POPC   C2721269   2.877   1.348   3.427  0.8521  0.1069 -0.1809
  185POPC   H7R21270   2.841   1.243   3.417  1.0391  0.2310 -2.7187
  185POPC   H7S21271   2.797   1.418   3.396 -0.2287 -0.1919  1.7394
  185POPC   C2821272   2.915   1.380   3.574 -0.1691  0.1884  0.3312
  185POPC   H8R21273   2.965   1.480   3.581  0.7858 -0.3154  0.9505
  185POPC   H8S21274   2.985   1.302   3.611  1.1008  0.6756 -0.9429
  185POPC   C2921275   2.796   1.387   3.659  1.2545 -0.2121 -0.4221
  185POPC   H9121276   2.708   1.419   3.601  2.2476  0.0477 -1.8191
  185POPC  C21021277   2.784   1.357   3.792 -0.9046  0.1045  0.3513
  185POPC  H10121278   2.682   1.370   3.831 -1.0770 -1.6831  0.5950
  185POPC  C21121279   2.892   1.310   3.891 -0.1859 -0.4886  1.0521
  185POPC  H11R21280   2.975   1.265   3.833 -1.0881 -1.8858  0.7840
  185POPC  H11S21281   2.840   1.237   3.957 -0.8143  0.0017  1.1065
  185POPC  C21221282   2.946   1.423   3.982 -0.0663 -0.1365 -0.0684
  185POPC  H12R21283   2.971   1.508   3.916  0.4424  0.1419  0.4793
  185POPC  H12S21284   3.038   1.396   4.038 -1.0963  2.1607  3.0274
  185POPC  C21321285   2.859   1.470   4.095 -0.7289 -0.1238 -0.4364
  185POPC  H13R21286   2.917   1.538   4.161  0.1790 -1.8419  0.5909
  185POPC  H13S21287   2.819   1.387   4.157 -0.0014 -0.0184  0.1777
  185POPC  C21421288   2.725   1.543   4.060  0.3180 -0.4660  0.4727
  185POPC  H14R21289   2.647   1.470   4.030  0.9656 -0.1585 -2.1798
  185POPC  H14S21290   2.737   1.620   3.980 -0.6628  0.8968  1.5842
  185POPC  C21521291   2.697   1.619   4.184  0.7959  0.3594 -0.5345
  185POPC  H15R21292   2.773   1.691   4.221  1.7877 -2.2611  3.0766
  185POPC  H15S21293   2.687   1.538   4.260 -1.6029 -0.7878 -1.9627
  185POPC  C21621294   2.559   1.689   4.176 -0.7128 -0.0282  0.1326
  185POPC  H16R21295   2.478   1.619   4.148  0.5892 -0.4510 -3.0823
  185POPC  H16S21296   2.583   1.765   4.098  0.2158 -1.3727 -0.9412
  185POPC  C21721297   2.526   1.767   4.300 -0.3902  0.5609 -0.7818
  185POPC  H17R21298   2.426   1.815   4.292  0.0647  1.8449  0.5803
  185POPC  H17S21299   2.606   1.841   4.323  2.5375 -2.2056 -1.2933
  185POPC  C21821300   2.522   1.676   4.425 -0.7574  0.1139  0.5012
  185POPC  H18R21301   2.625   1.637   4.440 -0.3545  1.6632  2.0600
  185POPC  H18S21302   2.454   1.591   4.403 -2.1963  1.4610 -0.5901
  185POPC  H18T21303   2.504   1.732   4.520 -0.2844 -1.0566  1.2954
  185POPC   C3321304   3.360   0.872   3.101 -0.0400  0.0094  0.2765
  185POPC   H3X21305   3.266   0.919   3.064  0.4957  1.1473  0.3308
  185POPC   H3Y21306   3.442   0.946   3.091  0.3037 -0.0714  2.1933
  185POPC   C3421307   3.360   0.851   3.256  0.9860 -0.3274 -0.0661
  185POPC   H4X21308   3.453   0.795   3.277  2.1671  1.1921 -1.0336
  185POPC   H4Y21309   3.282   0.775   3.276  0.6992 -0.0813 -0.2428
  185POPC   C3521310   3.344   0.973   3.350  0.1431 -0.1153  0.1854
  185POPC   H5X21311   3.278   1.053   3.309  1.1218  0.1224 -0.9685
  185POPC   H5Y21312   3.450   1.005   3.354  1.0060 -2.2128 -2.7803
  185POPC   C3621313   3.299   0.934   3.489  0.1215  0.1512  0.2540
  185POPC   H6X21314   3.356   0.841   3.509  2.9819  1.5664 -0.7668
  185POPC   H6Y21315   3.192   0.906   3.482  0.1180  0.2800 -0.2271
  185POPC   C3721316   3.327   1.045   3.591  0.1199 -0.2325  0.4307
  185POPC   H7X21317   3.273   1.142   3.582  1.6192  0.5703 -0.1844
  185POPC   H7Y21318   3.432   1.063   3.562 -0.4664 -1.1579 -2.6315
  185POPC   C3821319   3.319   1.003   3.740  0.4502 -0.1025 -0.2632
  185POPC   H8X21320   3.408   0.943   3.766 -1.8798 -3.5953  0.3098
  185POPC   H8Y21321   3.226   0.949   3.768  0.3689  0.4073  0.4801
  185POPC   C3921322   3.332   1.128   3.834 -0.4566  0.9197 -0.3883
  185POPC   H9X21323   3.256   1.206   3.813 -0.0592  1.4396  0.0653
  185POPC   H9Y21324   3.430   1.173   3.807 -0.7791  2.1844  0.4739
  185POPC  C31021325   3.338   1.083   3.978  0.5989  1.1332  0.1501
  185POPC  H10X21326   3.411   1.000   3.987  0.9859  1.2124 -1.7532
  185POPC  H10Y21327   3.242   1.040   4.013  1.3684  0.5776  1.6263
  185POPC  C31121328   3.380   1.197   4.074 -0.0604  0.6853 -0.5481
  185POPC  H11X21329   3.346   1.300   4.049  3.7428  1.8999 -1.4004
  185POPC  H11Y21330   3.490   1.200   4.059 -0.0682 -2.2692 -1.7891
  185POPC  C31221331   3.359   1.151   4.220 -0.0743 -0.5241  0.2863
  185POPC  H12X21332   3.399   1.049   4.237  0.0059 -0.6994 -0.8394
  185POPC  H12Y21333   3.248   1.157   4.229  0.0124  0.9762  0.6269
  185POPC  C31321334   3.410   1.257   4.317  0.2608  0.6215 -0.3977
  185POPC  H13X21335   3.373   1.358   4.291 -0.2401  0.1389 -1.6470
  185POPC  H13Y21336   3.517   1.265   4.291 -0.0308 -1.4660 -2.5932
  185POPC  C31421337   3.396   1.229   4.470 -0.0834  0.4887  0.0587
  185POPC  H14X21338   3.288   1.252   4.487  0.5545  3.4455  0.6618
  185POPC  H14Y21339   3.447   1.302   4.536 -0.9225  2.8067 -1.7326
  185POPC  C31521340   3.431   1.086   4.519 -0.1485  0.2648 -0.4278
  185POPC  H15X21341   3.349   1.015   4.493  0.1248 -0.3527  0.3446
  185POPC  H15Y21342   3.435   1.102   4.628  2.4483  2.7953 -0.7681
  185POPC  C31621343   3.563   1.023   4.463  0.5009  0.2011 -0.5361
  185POPC  H16X21344   3.650   1.078   4.506  1.4836 -1.4510 -0.3542
  185POPC  H16Y21345   3.564   1.028   4.352 -0.6271 -0.5653 -0.5918
  185POPC  H16Z21346   3.573   0.917   4.492  1.0852  0.1706 -0.8313
  186POPC     N21347   2.113   3.596   1.915 -0.8436  0.2899 -0.2524
  186POPC   C1221348   2.048   3.729   1.918  0.7498  0.1434  0.0916
  186POPC  H12A21349   2.085   3.771   1.825  1.6804  0.7449  0.7135
  186POPC  H12B21350   2.096   3.788   1.995  0.8000 -1.7124  1.5589
  186POPC   C1321351   2.090   3.522   2.048  0.0547  0.0229  0.6636
  186POPC  H13A21352   2.145   3.577   2.123  0.8086 -1.2709  1.0866
  186POPC  H13B21353   1.983   3.520   2.063 -0.4761  2.3351 -1.9337
  186POPC  H13C21354   2.119   3.418   2.051  0.7886  0.2451  1.9938
  186POPC   C1421355   2.043   3.512   1.811 -0.5540 -0.6575 -0.9647
  186POPC  H14A21356   1.939   3.496   1.835 -0.2978  1.2637  1.8563
  186POPC  H14B21357   2.052   3.549   1.710 -0.1766 -2.0243 -1.4596
  186POPC  H14C21358   2.099   3.420   1.801  2.2769  0.9546 -0.8025
  186POPC   C1521359   2.261   3.596   1.876 -0.0037  0.3052  0.2315
  186POPC  H15A21360   2.294   3.493   1.866  2.1965  1.0723 -1.1510
  186POPC  H15B21361   2.317   3.655   1.947  1.4576 -0.1469 -0.4953
  186POPC  H15C21362   2.268   3.652   1.784 -2.0504 -0.6062 -0.5349
  186POPC   C1121363   1.894   3.736   1.933  0.0097 -0.8511 -0.0619
  186POPC  H11A21364   1.851   3.682   1.845 -2.4475  0.9413 -0.0705
  186POPC  H11B21365   1.867   3.842   1.916  1.1181 -0.9398 -2.8118
  186POPC     P21366   1.871   3.760   2.192 -0.2944  0.6747  0.0685
  186POPC   O1321367   2.012   3.801   2.210  0.3877 -0.0172 -0.3456
  186POPC   O1421368   1.808   3.679   2.298  0.3785 -0.1436 -0.1123
  186POPC   O1221369   1.857   3.677   2.054 -0.0895  0.1020  0.2167
  186POPC   O1121370   1.788   3.889   2.172  0.0773 -0.4025 -0.1646
  186POPC    C121371   1.805   4.004   2.253  0.2393  0.3100  0.6801
  186POPC    HA21372   1.773   4.087   2.186  2.9109 -1.1610 -2.7212
  186POPC    HB21373   1.911   4.021   2.281  0.7472 -1.2497 -0.1950
  186POPC    C221374   1.709   4.019   2.372  0.0846 -0.3007  0.1450
  186POPC    HS21375   1.734   4.119   2.412 -0.5678  1.3843 -3.2739
  186POPC   O2121376   1.727   3.915   2.471  0.6350 -0.0061 -0.0149
  186POPC   C2121377   1.836   3.917   2.545 -0.9272  1.1281  0.2347
  186POPC   O2221378   1.923   4.000   2.535 -0.0916 -0.5835 -0.5070
  186POPC   C2221379   1.848   3.795   2.642 -0.0594 -0.2042  0.4152
  186POPC   H2R21380   1.898   3.714   2.585  1.0543  0.9314 -0.2637
  186POPC   H2S21381   1.747   3.765   2.678 -1.0846  1.4454 -0.9086
  186POPC    C321382   1.559   4.045   2.336 -0.2640  0.3503  0.0054
  186POPC    HX21383   1.523   3.969   2.265  0.4410  1.6292 -1.8075
  186POPC    HY21384   1.545   4.142   2.284 -1.6704 -0.3036 -0.8775
  186POPC   O3121385   1.480   4.050   2.459  0.2088 -0.0605  0.0820
  186POPC   C3121386   1.435   3.940   2.503 -0.5325  0.6225  0.2769
  186POPC   O3221387   1.444   3.829   2.446  0.2624 -0.9817 -0.5220
  186POPC   C3221388   1.372   3.962   2.641  0.8788 -1.1874 -0.2004
  186POPC   H2X21389   1.271   3.915   2.639  0.1756  0.2928 -1.1719
  186POPC   H2Y21390   1.361   4.072   2.651  1.3396 -1.2332  0.9637
  186POPC   C2321391   1.949   3.816   2.765  0.1486 -0.8179  0.0530
  186POPC   H3R21392   2.011   3.903   2.734 -1.9321  1.1042  0.9964
  186POPC   H3S21393   2.008   3.723   2.782  3.0500  0.7320 -0.7160
  186POPC   C2421394   1.878   3.847   2.899 -0.4168 -0.2767 -0.3925
  186POPC   H4R21395   1.782   3.793   2.912 -0.2545 -0.3829  0.4431
  186POPC   H4S21396   1.845   3.953   2.898  0.6181  0.1830  2.6419
  186POPC   C2521397   1.973   3.830   3.024  0.2131  0.6480  0.7259
  186POPC   H5R21398   2.046   3.911   3.001  1.5181 -0.3597  1.1469
  186POPC   H5S21399   2.025   3.732   3.026  2.6913  1.8207 -1.2284
  186POPC   C2621400   1.906   3.868   3.154  0.1493 -0.5140 -0.1375
  186POPC   H6R21401   1.831   3.950   3.140  0.8686 -0.1902 -2.6169
  186POPC   H6S21402   1.977   3.915   3.225  0.0277  0.0483 -0.3826
  186POPC   C2721403   1.841   3.751   3.230 -0.2865 -0.4466  0.0971
  186POPC   H7R21404   1.929   3.689   3.256 -0.9220 -1.2737  0.3110
  186POPC   H7S21405   1.778   3.697   3.156 -0.8419  0.3536 -0.0283
  186POPC   C2821406   1.761   3.795   3.351  1.2428 -0.0250 -0.3447
  186POPC   H8R21407   1.828   3.859   3.411  1.8280 -0.3641 -0.6309
  186POPC   H8S21408   1.740   3.700   3.405  2.3692  0.9293  1.8835
  186POPC   C2921409   1.640   3.875   3.320 -0.2127  0.0116 -0.2613
  186POPC   H9121410   1.641   3.951   3.240 -1.8589 -0.3390 -0.6550
  186POPC  C21021411   1.524   3.879   3.391  0.3991  0.3445  0.1447
  186POPC  H10121412   1.438   3.932   3.348  0.4574 -0.6897 -1.3627
  186POPC  C21121413   1.484   3.802   3.508  0.7850  0.7539 -0.1162
  186POPC  H11R21414   1.540   3.707   3.519  1.6518  1.4622  1.9326
  186POPC  H11S21415   1.376   3.775   3.498  1.0386 -0.0219 -0.8869
  186POPC  C21221416   1.503   3.877   3.636 -0.2941 -0.5271 -0.0758
  186POPC  H12R21417   1.462   3.979   3.654  2.7750  0.6022  1.2999
  186POPC  H12S21418   1.612   3.867   3.659 -0.6214 -1.5654  1.1072
  186POPC  C21321419   1.445   3.796   3.762 -0.2044 -0.3369  0.3972
  186POPC  H13R21420   1.496   3.698   3.756 -0.3837 -0.3339 -3.0013
  186POPC  H13S21421   1.337   3.775   3.747 -0.4333  0.6637  0.5719
  186POPC  C21421422   1.461   3.868   3.902 -0.9222  0.0627 -0.3502
  186POPC  H14R21423   1.427   3.973   3.892 -1.2373  0.1149  1.0645
  186POPC  H14S21424   1.570   3.874   3.924 -0.5598  2.0235 -2.3329
  186POPC  C21521425   1.389   3.801   4.013  1.1404 -0.0314  0.1793
  186POPC  H15R21426   1.447   3.714   4.049  0.0201 -2.1468 -2.7645
  186POPC  H15S21427   1.289   3.759   3.988 -0.3492  2.8319  0.8969
  186POPC  C21621428   1.367   3.889   4.141  0.3119  0.5732  0.1942
  186POPC  H16R21429   1.466   3.938   4.152  0.0563  1.2909 -0.5837
  186POPC  H16S21430   1.350   3.839   4.238 -1.5714  0.6040 -0.0730
  186POPC  C21721431   1.260   4.000   4.127 -0.0950  0.1780  0.2868
  186POPC  H17R21432   1.171   3.959   4.075 -0.4868  0.1573  0.9587
  186POPC  H17S21433   1.300   4.086   4.069 -0.8329  0.5357  0.2961
  186POPC  C21821434   1.216   4.051   4.262  0.5824  0.6880  0.4298
  186POPC  H18R21435   1.169   3.978   4.331  1.5929 -0.5702 -0.1859
  186POPC  H18S21436   1.299   4.092   4.323  1.8434 -0.2370 -0.6219
  186POPC  H18T21437   1.144   4.134   4.245  0.0256  0.0830 -0.2458
  186POPC   C3321438   1.452   3.902   2.759 -0.0571 -0.7083 -0.3816
  186POPC   H3X21439   1.434   3.968   2.847 -0.4169  2.8139 -2.8569
  186POPC   H3Y21440   1.560   3.904   2.733  0.9235  2.0436  3.1416
  186POPC   C3421441   1.409   3.761   2.795 -0.3852  0.4732 -0.4745
  186POPC   H4X21442   1.420   3.697   2.705  0.8861  3.2366 -2.4103
  186POPC   H4Y21443   1.301   3.766   2.819 -0.1629 -0.0388  0.7241
  186POPC   C3521444   1.491   3.708   2.915 -0.2209  0.1419  0.3966
  186POPC   H5X21445   1.476   3.776   3.002  1.7271  1.0085  0.1013
  186POPC   H5Y21446   1.598   3.692   2.892  0.2341  2.1571  0.9163
  186POPC   C3621447   1.449   3.575   2.962 -0.4613  0.7875 -0.0386
  186POPC   H6X21448   1.458   3.495   2.885  1.2035  1.0529 -0.1452
  186POPC   H6Y21449   1.342   3.586   2.991 -0.4172 -1.0213  0.9530
  186POPC   C3721450   1.522   3.520   3.088 -0.4183  0.8306  0.8215
  186POPC   H7X21451   1.478   3.562   3.180 -2.5063 -0.4121  0.4609
  186POPC   H7Y21452   1.629   3.548   3.084  0.5059 -2.3253  0.3285
  186POPC   C3821453   1.509   3.366   3.099  0.6406  0.2129  0.8374
  186POPC   H8X21454   1.580   3.328   3.174 -0.3928  0.7052  2.1090
  186POPC   H8Y21455   1.522   3.324   2.996 -0.2299  1.6821  0.0918
  186POPC   C3921456   1.367   3.312   3.136  0.2122  0.6928  0.4171
  186POPC   H9X21457   1.378   3.201   3.145 -0.9339  0.5122 -0.1498
  186POPC   H9Y21458   1.290   3.319   3.056 -2.2943 -0.1900  2.5965
  186POPC  C31021459   1.317   3.364   3.277 -0.0306 -0.6343 -0.0765
  186POPC  H10X21460   1.208   3.351   3.290  0.0104  0.6012  1.7982
  186POPC  H10Y21461   1.337   3.473   3.281 -0.8370 -0.5013  0.4866
  186POPC  C31121462   1.393   3.302   3.401  0.0201 -0.5658  0.9320
  186POPC  H11X21463   1.495   3.280   3.364  0.2385 -0.1476  1.2807
  186POPC  H11Y21464   1.347   3.204   3.425  0.7541 -1.0074  0.5850
  186POPC  C31221465   1.396   3.397   3.529 -0.0728  0.2873  0.4318
  186POPC  H12X21466   1.298   3.450   3.532 -0.4602 -0.2368 -1.5424
  186POPC  H12Y21467   1.473   3.475   3.510 -1.3602  1.9087  1.5596
  186POPC  C31321468   1.420   3.329   3.663 -0.0203 -0.0943 -0.4524
  186POPC  H13X21469   1.338   3.254   3.669 -1.7176  1.5941 -1.6933
  186POPC  H13Y21470   1.415   3.391   3.755  1.2631 -0.4197 -0.1402
  186POPC  C31421471   1.562   3.264   3.674  0.6726  0.8584  0.1419
  186POPC  H14X21472   1.634   3.348   3.685  0.9031  0.4436  2.0968
  186POPC  H14Y21473   1.572   3.208   3.578 -1.6589  1.3194 -0.4310
  186POPC  C31521474   1.561   3.157   3.793  0.0995  0.6163  0.6607
  186POPC  H15X21475   1.511   3.062   3.766  2.4154 -0.8394  1.2889
  186POPC  H15Y21476   1.499   3.201   3.875  1.9583  1.4130  1.6992
  186POPC  C31621477   1.701   3.125   3.828 -0.0224 -0.1904  0.3243
  186POPC  H16X21478   1.687   3.053   3.911 -1.2583 -0.0605  0.2417
  186POPC  H16Y21479   1.741   3.221   3.868 -3.3185  1.5831 -0.3298
  186POPC  H16Z21480   1.757   3.072   3.747 -2.0904  0.4740 -1.6624
  187POPC     N21481   5.488   0.275   1.938 -0.0802 -0.3561 -0.5489
  187POPC   C1221482   5.519   0.386   2.038  0.7361 -0.3193 -0.6965
  187POPC  H12A21483   5.425   0.412   2.083  0.6788  2.0377 -2.0373
  187POPC  H12B21484   5.560   0.476   1.994  2.9581 -0.4477  0.9196
  187POPC   C1321485   5.598   0.248   1.846  0.3072  0.5278  0.1680
  187POPC  H13A21486   5.620   0.338   1.791  1.7935  1.5947  2.3633
  187POPC  H13B21487   5.691   0.228   1.897 -0.1144  0.5604  0.9622
  187POPC  H13C21488   5.580   0.160   1.786  1.5239  1.3486 -1.4816
  187POPC   C1421489   5.454   0.148   2.011  0.1234  0.4695  0.0049
  187POPC  H14A21490   5.544   0.106   2.053  1.6672  1.6585 -1.9831
  187POPC  H14B21491   5.386   0.176   2.090  0.4124  0.4048  0.2786
  187POPC  H14C21492   5.393   0.078   1.955 -0.0480  0.7740 -0.1957
  187POPC   C1521493   5.359   0.312   1.861  0.0474  0.1442 -0.1031
  187POPC  H15A21494   5.347   0.246   1.776  2.2473  0.7777 -0.9939
  187POPC  H15B21495   5.361   0.415   1.829 -0.4727  0.3227  0.4285
  187POPC  H15C21496   5.271   0.302   1.922 -0.4576  0.4873 -0.7687
  187POPC   C1121497   5.617   0.357   2.152 -0.4426 -0.3924 -1.1404
  187POPC  H11A21498   5.566   0.292   2.227  0.4847  2.0723  1.8480
  187POPC  H11B21499   5.640   0.450   2.208  1.7800 -0.6554 -1.5183
  187POPC     P21500   5.848   0.396   2.061  0.1060 -0.0170 -0.0201
  187POPC   O1321501   5.793   0.502   1.972 -0.5821 -0.4702  0.3739
  187POPC   O1421502   5.963   0.314   2.001  0.4931  0.0917 -0.4220
  187POPC   O1221503   5.729   0.295   2.098  0.1205 -0.3386 -0.2288
  187POPC   O1121504   5.889   0.471   2.195 -0.0019  0.1949 -0.2059
  187POPC    C121505   5.989   0.411   2.280 -0.2940  0.2829 -0.7659
  187POPC    HA21506   6.080   0.474   2.282  1.0714 -1.6255  1.5426
  187POPC    HB21507   6.019   0.307   2.254 -1.8510 -0.0516 -1.3307
  187POPC    C221508   5.933   0.406   2.429 -0.2721 -0.3540  0.3054
  187POPC    HS21509   5.881   0.500   2.457 -1.7889 -0.5428 -1.5788
  187POPC   O2121510   6.046   0.376   2.512  0.0827 -0.3877 -0.4148
  187POPC   C2121511   6.060   0.445   2.623  0.0190 -0.3243  0.1309
  187POPC   O2221512   5.995   0.544   2.655 -0.0467 -0.5374  1.1963
  187POPC   C2221513   6.175   0.395   2.703  0.2514 -0.4458  0.2102
  187POPC   H2R21514   6.260   0.448   2.655  2.4786 -1.5004  2.7421
  187POPC   H2S21515   6.193   0.288   2.682  0.3526 -0.1751 -1.2163
  187POPC    C321516   5.830   0.289   2.455 -0.2501 -0.0320  0.2940
  187POPC    HX21517   5.881   0.192   2.441 -0.1394  0.1842 -0.9382
  187POPC    HY21518   5.747   0.299   2.382  1.2709  0.0735 -1.4926
  187POPC   O3121519   5.780   0.297   2.594  0.0338 -0.0835 -0.0398
  187POPC   C3121520   5.677   0.385   2.613 -0.9538  0.2146  0.0178
  187POPC   O3221521   5.632   0.456   2.527  0.5260 -0.2616  0.7776
  187POPC   C3221522   5.613   0.353   2.748 -0.3356  0.5059 -0.3279
  187POPC   H2X21523   5.575   0.250   2.735 -1.0944  0.8456 -0.8061
  187POPC   H2Y21524   5.521   0.414   2.755 -2.8424 -2.8785 -1.4144
  187POPC   C2321525   6.157   0.425   2.852 -0.2637 -0.5219 -0.0101
  187POPC   H3R21526   6.081   0.356   2.893 -1.2625  0.4030 -0.2657
  187POPC   H3S21527   6.102   0.522   2.855 -2.4949 -1.7198  0.0702
  187POPC   C2421528   6.283   0.435   2.933  0.0735  0.7156  0.0013
  187POPC   H4R21529   6.351   0.514   2.893  0.0984 -0.0419 -1.5002
  187POPC   H4S21530   6.338   0.338   2.932 -2.1542 -0.7046  2.4257
  187POPC   C2521531   6.267   0.462   3.085 -0.2995 -0.2789  0.2191
  187POPC   H5R21532   6.212   0.377   3.130  1.4133 -1.3405  0.4108
  187POPC   H5S21533   6.199   0.548   3.102  0.3340  0.2603  0.0803
  187POPC   C2621534   6.396   0.487   3.159 -1.0349  0.5393 -0.2431
  187POPC   H6R21535   6.462   0.557   3.103 -2.1534  0.8938 -1.1453
  187POPC   H6S21536   6.467   0.404   3.176  1.5571  2.6182 -0.1975
  187POPC   C2721537   6.365   0.533   3.301  0.0366 -0.0013  0.0516
  187POPC   H7R21538   6.263   0.507   3.336 -0.3514  1.1269 -0.2192
  187POPC   H7S21539   6.370   0.643   3.289  0.6516 -0.0799 -0.4682
  187POPC   C2821540   6.454   0.468   3.418 -0.2144 -0.7225  0.2769
  187POPC   H8R21541   6.439   0.360   3.397  0.4398 -1.2148  2.1554
  187POPC   H8S21542   6.415   0.503   3.516  1.5404  1.7342  0.2132
  187POPC   C2921543   6.604   0.492   3.423  0.4287  0.4076  0.2790
  187POPC   H9121544   6.648   0.473   3.324  1.3465 -1.7385  1.0397
  187POPC  C21021545   6.683   0.517   3.527 -0.1570 -0.8685 -0.1846
  187POPC  H10121546   6.791   0.515   3.508 -0.1646  0.1798 -0.4195
  187POPC  C21121547   6.644   0.536   3.672  0.6736 -0.7455  0.2012
  187POPC  H11R21548   6.550   0.482   3.697 -0.3961  0.2958 -1.4476
  187POPC  H11S21549   6.627   0.644   3.689 -1.1139 -1.1551  1.3022
  187POPC  C21221550   6.751   0.492   3.778  0.0507  0.3554  0.2699
  187POPC  H12R21551   6.839   0.560   3.769  2.0998 -2.3901 -2.6467
  187POPC  H12S21552   6.803   0.396   3.755  0.6763  0.6801  0.3009
  187POPC  C21321553   6.696   0.479   3.918  0.3082 -0.5802  0.1845
  187POPC  H13R21554   6.786   0.444   3.973 -0.4601 -2.0867  0.5425
  187POPC  H13S21555   6.624   0.395   3.923  1.5907 -1.7218  0.1745
  187POPC  C21421556   6.627   0.602   3.971 -0.2649 -0.7003  0.2521
  187POPC  H14R21557   6.555   0.637   3.894 -0.0668 -1.8325 -0.4725
  187POPC  H14S21558   6.698   0.685   3.992 -1.0187 -0.4255  1.9216
  187POPC  C21521559   6.543   0.580   4.095  0.2569 -0.3557 -1.1784
  187POPC  H15R21560   6.613   0.547   4.175 -1.5241 -1.5085 -0.0351
  187POPC  H15S21561   6.485   0.486   4.080  1.7709 -1.2724 -1.5853
  187POPC  C21621562   6.467   0.696   4.149  0.7449 -0.2559 -0.5857
  187POPC  H16R21563   6.424   0.761   4.070 -1.5979 -0.6642  0.2772
  187POPC  H16S21564   6.539   0.757   4.208  0.1646  0.5398 -0.6949
  187POPC  C21721565   6.353   0.651   4.244 -0.1922 -0.4002 -0.3256
  187POPC  H17R21566   6.389   0.566   4.306 -0.9187 -2.5106 -2.6549
  187POPC  H17S21567   6.272   0.597   4.191 -0.8840 -1.7530  1.9820
  187POPC  C21821568   6.290   0.766   4.322 -0.7169 -0.5352  0.2368
  187POPC  H18R21569   6.381   0.821   4.356 -0.8368  0.3277 -0.7729
  187POPC  H18S21570   6.223   0.738   4.406 -0.0372  0.9818  1.3303
  187POPC  H18T21571   6.233   0.820   4.243 -0.8768 -1.6892 -0.4628
  187POPC   C3321572   5.708   0.376   2.871 -0.2435  0.4500  0.5097
  187POPC   H3X21573   5.801   0.318   2.853 -0.6758 -0.0506 -0.1755
  187POPC   H3Y21574   5.661   0.345   2.966 -0.3660 -0.9365  0.0235
  187POPC   C3421575   5.741   0.517   2.902  0.5675  0.9326  0.5625
  187POPC   H4X21576   5.646   0.575   2.903 -0.6405 -0.8366 -1.5929
  187POPC   H4Y21577   5.800   0.566   2.822  0.0951  2.3961  1.0755
  187POPC   C3521578   5.811   0.534   3.036 -0.3425 -0.7084  0.5776
  187POPC   H5X21579   5.874   0.626   3.035  0.9761 -1.5821  0.9549
  187POPC   H5Y21580   5.878   0.448   3.053 -1.6521 -1.9930 -0.5070
  187POPC   C3621581   5.708   0.544   3.144 -0.9186  0.0405 -0.0083
  187POPC   H6X21582   5.613   0.491   3.123  0.1319 -2.5043  1.1164
  187POPC   H6Y21583   5.690   0.652   3.162  1.5333  0.7509 -1.3974
  187POPC   C3721584   5.753   0.480   3.276 -0.1314 -0.4301 -0.5362
  187POPC   H7X21585   5.791   0.382   3.239  0.6691 -0.7718  1.0954
  187POPC   H7Y21586   5.654   0.475   3.326  0.5583  1.8630  1.2065
  187POPC   C3821587   5.860   0.563   3.354 -0.7355  0.0889 -0.2278
  187POPC   H8X21588   5.811   0.660   3.377  0.0357  0.3646  0.2987
  187POPC   H8Y21589   5.949   0.584   3.290  1.2302 -0.0940  2.3123
  187POPC   C3921590   5.908   0.510   3.492  0.3703  0.2176  0.3698
  187POPC   H9X21591   5.955   0.411   3.472  0.4661  0.2250  0.5485
  187POPC   H9Y21592   5.820   0.491   3.557  0.4348  2.0864  1.0592
  187POPC  C31021593   6.016   0.594   3.567  0.1611 -0.0360  0.3247
  187POPC  H10X21594   5.966   0.691   3.588 -0.5198  0.0343 -1.4333
  187POPC  H10Y21595   6.106   0.625   3.511  0.8265  2.9670  2.8000
  187POPC  C31121596   6.059   0.524   3.692  0.2494  0.2519  0.9676
  187POPC  H11X21597   6.098   0.425   3.659  1.9877  1.1685  0.1617
  187POPC  H11Y21598   5.970   0.520   3.759 -0.1953 -4.1360  0.4401
  187POPC  C31221599   6.177   0.587   3.770  0.1244 -0.2510  0.3175
  187POPC  H12X21600   6.160   0.697   3.769  1.9485  0.0620 -0.4668
  187POPC  H12Y21601   6.276   0.572   3.721  1.7419  0.8001  3.0559
  187POPC  C31321602   6.205   0.545   3.916  0.0617  0.1825 -0.1755
  187POPC  H13X21603   6.124   0.585   3.980  0.1341  4.1717 -2.2716
  187POPC  H13Y21604   6.294   0.593   3.962  0.4260 -1.3654  0.8244
  187POPC  C31421605   6.218   0.389   3.939 -0.5397 -0.3324  0.5423
  187POPC  H14X21606   6.311   0.349   3.893 -1.1143 -0.1091 -0.8371
  187POPC  H14Y21607   6.145   0.338   3.872 -2.0973  1.8387  0.4836
  187POPC  C31521608   6.191   0.348   4.082  0.8502  0.0331  0.1921
  187POPC  H15X21609   6.083   0.367   4.100  0.5459 -1.3788  0.0018
  187POPC  H15Y21610   6.259   0.383   4.162  1.3100 -3.1930  1.3856
  187POPC  C31621611   6.201   0.199   4.108  0.0778  0.2502 -0.5531
  187POPC  H16X21612   6.304   0.159   4.117  0.7417  1.8247 -0.7168
  187POPC  H16Y21613   6.148   0.146   4.026 -0.7837 -1.5832  1.1076
  187POPC  H16Z21614   6.152   0.159   4.200  3.1068 -0.5249  0.8481
  188POPC     N21615   2.325   6.176   1.781 -0.1032  0.3453 -0.6849
  188POPC   C1221616   2.418   6.053   1.801  0.0325 -0.1835 -0.4411
  188POPC  H12A21617   2.509   6.057   1.742  0.2924 -2.5567 -0.3135
  188POPC  H12B21618   2.366   5.968   1.760 -0.8352  1.8243 -3.9140
  188POPC   C1321619   2.383   6.300   1.843  1.0175 -0.1131  0.0478
  188POPC  H13A21620   2.491   6.299   1.834  0.9857 -2.5492 -1.1008
  188POPC  H13B21621   2.341   6.391   1.804  0.1362 -0.9178 -0.9458
  188POPC  H13C21622   2.373   6.293   1.950 -0.3506 -0.1691 -0.0634
  188POPC   C1421623   2.308   6.192   1.636 -0.0826 -0.0972 -0.2600
  188POPC  H14A21624   2.246   6.267   1.590  0.0034 -1.2346 -2.3742
  188POPC  H14B21625   2.402   6.213   1.588  0.7509 -1.0401  0.9113
  188POPC  H14C21626   2.280   6.095   1.597 -3.3311 -0.7869  3.1761
  188POPC   C1521627   2.188   6.142   1.846  0.0815 -0.3476  0.0449
  188POPC  H15A21628   2.137   6.061   1.796  0.0177  1.3943 -2.9481
  188POPC  H15B21629   2.127   6.231   1.846  2.7918  1.6394 -0.4128
  188POPC  H15C21630   2.213   6.105   1.945  1.0832 -0.5746 -0.2773
  188POPC   C1121631   2.449   6.023   1.945  0.1713  0.1458  0.3255
  188POPC  H11A21632   2.507   5.928   1.947  0.7990  0.5162 -0.0084
  188POPC  H11B21633   2.353   6.000   1.996  0.6390 -0.4062  0.9757
  188POPC     P21634   2.661   6.122   2.065 -0.4948 -0.1923  0.1855
  188POPC   O1321635   2.691   6.251   2.131  0.4200  0.3684 -0.2978
  188POPC   O1421636   2.744   6.091   1.947  0.0470  0.2778 -0.2188
  188POPC   O1221637   2.511   6.125   2.022  0.4905  0.1330  0.1395
  188POPC   O1121638   2.677   6.014   2.181 -0.4151  0.3173 -0.3502
  188POPC    C121639   2.791   6.022   2.273  0.2942  0.2411  0.0831
  188POPC    HA21640   2.859   6.103   2.240 -0.1146  1.5552  2.2759
  188POPC    HB21641   2.859   5.934   2.265  1.8404  1.4909 -1.1915
  188POPC    C221642   2.748   6.043   2.424  0.5975  0.0241 -0.3347
  188POPC    HS21643   2.832   6.054   2.495  1.8238 -1.3658 -1.5069
  188POPC   O2121644   2.664   5.935   2.482  0.6821  0.4656  0.4098
  188POPC   C2121645   2.723   5.824   2.486 -0.2102  0.8735  0.1208
  188POPC   O2221646   2.845   5.800   2.483  0.3873 -0.1235  0.3975
  188POPC   C2221647   2.615   5.717   2.522 -0.2137  0.4105 -0.4523
  188POPC   H2R21648   2.561   5.695   2.428 -5.3091  0.6251  2.0960
  188POPC   H2S21649   2.530   5.761   2.579 -1.0836  1.7276 -2.6258
  188POPC    C321650   2.668   6.180   2.432  0.8128  0.3042  0.4530
  188POPC    HX21651   2.567   6.162   2.390  0.4429  1.3534  0.8619
  188POPC    HY21652   2.710   6.269   2.381 -0.0025 -1.0248 -2.7713
  188POPC   O3121653   2.640   6.220   2.566  0.6957  0.0737 -0.0856
  188POPC   C3121654   2.560   6.324   2.566  0.6178  0.5389  0.2622
  188POPC   O3221655   2.510   6.370   2.460  0.0402  0.7143 -0.8645
  188POPC   C3221656   2.527   6.382   2.705 -0.3406 -0.3701 -0.3433
  188POPC   H2X21657   2.584   6.338   2.790  0.8578  2.6484  0.5650
  188POPC   H2Y21658   2.419   6.378   2.731 -0.3286 -1.2856 -0.4301
  188POPC   C2321659   2.681   5.590   2.594  0.1399 -0.1886  0.3954
  188POPC   H3R21660   2.789   5.593   2.569  0.2391 -1.6089  0.5903
  188POPC   H3S21661   2.628   5.500   2.556 -0.3601  0.0912  0.4207
  188POPC   C2421662   2.676   5.603   2.749  0.1391 -0.9692  0.5897
  188POPC   H4R21663   2.576   5.578   2.789 -0.3502 -1.4188 -0.8652
  188POPC   H4S21664   2.688   5.711   2.771  1.0069 -0.1498 -3.1861
  188POPC   C2521665   2.782   5.526   2.820  0.4314  0.0770  0.0332
  188POPC   H5R21666   2.884   5.550   2.783  0.7745 -1.1069  0.1677
  188POPC   H5S21667   2.762   5.423   2.785 -1.4461  0.4792 -0.1709
  188POPC   C2621668   2.782   5.542   2.978 -0.1355  0.0777 -0.2551
  188POPC   H6R21669   2.687   5.489   3.000 -0.1433 -0.4253 -1.4241
  188POPC   H6S21670   2.773   5.651   2.995 -0.4488  0.1840 -1.0634
  188POPC   C2721671   2.906   5.480   3.054 -0.4493  0.0457  0.1679
  188POPC   H7R21672   2.880   5.372   3.052  1.2477 -0.4089  0.8920
  188POPC   H7S21673   2.908   5.525   3.156  0.3910  2.4866 -0.8653
  188POPC   C2821674   3.049   5.505   2.993 -0.2158 -0.3555  0.2782
  188POPC   H8R21675   3.068   5.463   2.891  1.5618  0.1241  0.3797
  188POPC   H8S21676   3.122   5.446   3.052 -1.5126 -2.4583 -0.1121
  188POPC   C2921677   3.075   5.651   2.983 -0.0939 -0.0183 -0.3894
  188POPC   H9121678   2.999   5.711   2.930 -0.3901 -0.9437 -1.0425
  188POPC  C21021679   3.177   5.715   3.039 -0.2740 -0.1613 -0.5039
  188POPC  H10121680   3.180   5.822   3.014 -0.4281  0.3141  1.3704
  188POPC  C21121681   3.288   5.660   3.120 -0.9065  0.0822 -0.5143
  188POPC  H11R21682   3.379   5.655   3.056 -0.9582  1.0842 -0.6848
  188POPC  H11S21683   3.274   5.554   3.150  3.8984 -0.7798 -0.4197
  188POPC  C21221684   3.310   5.725   3.264  0.6657 -0.1569 -0.2890
  188POPC  H12R21685   3.303   5.836   3.260  0.9728 -0.1315 -0.1464
  188POPC  H12S21686   3.408   5.680   3.293  0.6504 -0.4889 -0.7361
  188POPC  C21321687   3.216   5.674   3.375 -0.1667 -0.4146 -0.5517
  188POPC  H13R21688   3.237   5.565   3.386  0.5859 -0.2420 -0.2371
  188POPC  H13S21689   3.112   5.707   3.352  0.9017  1.2975 -3.4725
  188POPC  C21421690   3.253   5.736   3.514  0.1042  0.0077  0.1849
  188POPC  H14R21691   3.277   5.845   3.507 -0.3294  0.0505 -0.7505
  188POPC  H14S21692   3.354   5.693   3.534  1.0805  0.9645 -2.2623
  188POPC  C21521693   3.142   5.712   3.629  0.5763 -0.1867  0.0029
  188POPC  H15R21694   3.126   5.602   3.628  2.1203 -0.4467  1.2528
  188POPC  H15S21695   3.045   5.756   3.597  0.6094  0.9708  1.4453
  188POPC  C21621696   3.181   5.766   3.768  0.4870  0.6889  0.4594
  188POPC  H16R21697   3.173   5.876   3.781  0.8311  0.7209  0.4175
  188POPC  H16S21698   3.291   5.746   3.774  0.2285 -1.3427 -0.5085
  188POPC  C21721699   3.102   5.695   3.886 -0.0805  0.4423  0.3266
  188POPC  H17R21700   3.126   5.586   3.893 -1.3185  0.2481  2.1421
  188POPC  H17S21701   2.995   5.711   3.864 -0.4083 -1.8041  0.0724
  188POPC  C21821702   3.122   5.768   4.022  0.0575  0.2536  0.8196
  188POPC  H18R21703   3.068   5.711   4.101  0.8698 -2.5214 -0.5253
  188POPC  H18S21704   3.084   5.872   4.010  0.7377  0.3725 -0.3863
  188POPC  H18T21705   3.228   5.763   4.055  0.6713 -1.4514 -1.2383
  188POPC   C3321706   2.552   6.542   2.711  0.3127  0.0799 -0.2498
  188POPC   H3X21707   2.496   6.590   2.628 -1.0566  1.6390  1.4932
  188POPC   H3Y21708   2.661   6.557   2.694  1.4007 -2.4724  3.3124
  188POPC   C3421709   2.504   6.601   2.843  0.8064  0.1483  0.2096
  188POPC   H4X21710   2.551   6.536   2.920 -0.3143  0.0369  0.8148
  188POPC   H4Y21711   2.394   6.593   2.855  0.8171 -0.3247  0.0212
  188POPC   C3521712   2.541   6.750   2.847 -0.5823  0.1691  0.2355
  188POPC   H5X21713   2.497   6.797   2.757 -3.3792  0.0189  1.4056
  188POPC   H5Y21714   2.650   6.762   2.830 -0.2065  0.1980  2.3549
  188POPC   C3621715   2.496   6.827   2.970  0.6397 -0.1043  0.1059
  188POPC   H6X21716   2.429   6.757   3.025  0.7008  0.0418  0.3674
  188POPC   H6Y21717   2.443   6.915   2.926  3.0105  0.4454 -1.8568
  188POPC   C3721718   2.617   6.873   3.057  0.2132 -0.2439 -0.0487
  188POPC   H7X21719   2.675   6.942   2.993 -2.7697 -0.4977 -3.3701
  188POPC   H7Y21720   2.671   6.784   3.093  0.8090  0.4256  0.7501
  188POPC   C3821721   2.567   6.945   3.180  0.3283  0.0094  0.3625
  188POPC   H8X21722   2.488   6.889   3.236 -0.6885  1.4103  0.3638
  188POPC   H8Y21723   2.524   7.039   3.141 -0.7994 -0.7607 -0.2857
  188POPC   C3921724   2.684   6.972   3.278  0.5036 -0.1017  0.1274
  188POPC   H9X21725   2.775   7.022   3.237  0.7084  0.2698  0.9981
  188POPC   H9Y21726   2.712   6.873   3.318 -2.3463  0.2356  3.4651
  188POPC  C31021727   2.637   7.067   3.395  0.4470 -0.4250  0.4434
  188POPC  H10X21728   2.553   7.013   3.444 -1.3210  0.0603 -1.9045
  188POPC  H10Y21729   2.594   7.165   3.364 -0.0334 -0.4255  1.0770
  188POPC  C31121730   2.751   7.105   3.491 -0.7137 -0.0423  0.8255
  188POPC  H11X21731   2.836   7.144   3.431 -1.7406 -1.0642 -1.4552
  188POPC  H11Y21732   2.788   7.005   3.523 -0.0017 -0.1328 -0.2223
  188POPC  C31221733   2.714   7.200   3.603  0.0428 -0.0271  0.3019
  188POPC  H12X21734   2.659   7.290   3.566 -1.3061 -1.1726 -0.6182
  188POPC  H12Y21735   2.804   7.237   3.656 -0.4034  0.5542  0.6763
  188POPC  C31321736   2.612   7.152   3.711  0.4225  0.7375 -0.0830
  188POPC  H13X21737   2.633   7.048   3.744 -1.1506  0.2328 -0.5770
  188POPC  H13Y21738   2.511   7.144   3.666  1.0250 -2.9060 -1.0567
  188POPC  C31421739   2.604   7.249   3.830 -0.1757 -0.2766  0.3981
  188POPC  H14X21740   2.597   7.346   3.776  0.5344 -0.7406 -0.5574
  188POPC  H14Y21741   2.696   7.241   3.891  0.3129  1.4446 -0.0642
  188POPC  C31521742   2.479   7.229   3.920 -0.1727 -0.1584  0.3548
  188POPC  H15X21743   2.480   7.123   3.953  0.8472 -0.1236  0.4650
  188POPC  H15Y21744   2.384   7.235   3.862 -1.4730  0.3447  2.4142
  188POPC  C31621745   2.477   7.313   4.053 -0.8035 -0.1081  0.7124
  188POPC  H16X21746   2.569   7.284   4.109  0.4599 -1.6474 -1.9618
  188POPC  H16Y21747   2.387   7.284   4.111 -2.1006  1.1167 -0.6027
  188POPC  H16Z21748   2.470   7.421   4.029 -1.2910 -0.4696 -0.8499
  189SAPI   C1221749   4.004   4.393   6.970  1.0832  0.1530 -0.4627
  189SAPI    H221750   4.073   4.310   6.997 -0.5154 -1.3459 -0.8045
  189SAPI    O221751   3.906   4.393   7.078 -0.2932  0.2972  0.5300
  189SAPI   HO221752   3.952   4.401   7.163  0.2737 -0.6327  0.3299
  189SAPI   C1321753   4.072   4.520   6.958  0.7334 -0.0529 -0.1852
  189SAPI    H321754   4.139   4.517   6.870  0.4553 -0.9746 -0.3728
  189SAPI    O321755   4.145   4.551   7.077 -0.1613  0.1678 -0.0604
  189SAPI   HO321756   4.162   4.644   7.061 -0.5071  0.3706  0.6703
  189SAPI   C1421757   3.963   4.625   6.940  0.1443  0.2386  0.2379
  189SAPI    H421758   3.904   4.634   7.034 -1.8800 -0.2146 -0.9340
  189SAPI    O421759   4.024   4.752   6.914 -0.8319 -0.1051  0.1170
  189SAPI   HO421760   3.989   4.813   6.979  1.0787  1.6361 -0.3993
  189SAPI   C1521761   3.850   4.596   6.841 -0.3512 -0.2283  0.6748
  189SAPI    H521762   3.879   4.646   6.746 -0.4335 -1.0093  0.2343
  189SAPI    O521763   3.726   4.656   6.877  0.1199 -0.1228  0.0974
  189SAPI   HO521764   3.703   4.619   6.962  0.0147 -1.0941 -0.3402
  189SAPI   C1621765   3.830   4.453   6.802 -0.5306 -0.0077  0.0071
  189SAPI    H621766   3.742   4.424   6.864 -0.3912  0.1839  0.2950
  189SAPI    O621767   3.790   4.441   6.672 -0.0252 -0.2390  0.5419
  189SAPI   HO621768   3.727   4.368   6.671 -3.4349  2.4349  0.7098
  189SAPI   C1121769   3.929   4.347   6.845  0.5784  0.5623  0.3437
  189SAPI    H121770   4.009   4.350   6.768  1.1322  1.6119  0.9395
  189SAPI     P21771   3.952   4.073   6.843 -0.5395 -0.3247 -0.2282
  189SAPI   O1321772   3.862   3.964   6.878  0.4546  0.0531  0.9455
  189SAPI   O1421773   4.090   4.074   6.905 -0.4249 -0.0645  0.5926
  189SAPI   O1221774   3.872   4.215   6.854 -0.4241 -0.4322  0.1729
  189SAPI   O1121775   3.986   4.066   6.690  0.2559  0.3275  0.0677
  189SAPI    C121776   3.889   4.031   6.592  0.5380 -0.3252  0.3973
  189SAPI    HA21777   3.886   3.921   6.577 -1.7957 -0.2859  0.2401
  189SAPI    HB21778   3.787   4.062   6.626  0.5377 -3.6964  4.2157
  189SAPI    C221779   3.932   4.077   6.446  0.8733 -0.6878  0.4494
  189SAPI    HS21780   3.837   4.079   6.389  1.0226  0.4308  0.2234
  189SAPI   O2121781   4.030   3.987   6.394 -0.1350  0.2702 -0.1943
  189SAPI   C2121782   3.993   3.933   6.281 -0.0574  0.1451 -0.7007
  189SAPI   O2221783   3.905   3.972   6.205 -0.3601 -0.5468  0.2771
  189SAPI   C2221784   4.074   3.807   6.249 -0.0446  0.6944 -0.3162
  189SAPI   H2R21785   4.041   3.717   6.305  2.5029 -0.8924 -1.2099
  189SAPI   H2S21786   4.068   3.772   6.144  0.0624 -4.1473  1.0697
  189SAPI    C321787   3.992   4.217   6.454 -0.4748 -0.4173  0.0832
  189SAPI    HX21788   4.092   4.213   6.502 -0.2163 -1.8929 -0.5264
  189SAPI    HY21789   3.938   4.288   6.521 -0.0649 -0.6730  0.6958
  189SAPI   O3121790   3.996   4.277   6.324  0.2128 -0.1745 -0.2501
  189SAPI   C3121791   4.111   4.277   6.258 -0.0137 -0.0765 -0.9410
  189SAPI   O3221792   4.215   4.239   6.305 -0.3492  0.2249 -0.2069
  189SAPI   C3221793   4.095   4.337   6.125 -0.2806  0.6836  0.5281
  189SAPI   H2X21794   4.062   4.442   6.135  0.3296  1.0185 -0.8256
  189SAPI   H2Y21795   4.014   4.281   6.074  1.1367 -0.1533 -0.8588
  189SAPI   C2321796   4.226   3.830   6.249 -0.0859  0.4274 -0.5913
  189SAPI   H3R21797   4.284   3.740   6.217 -0.5789 -0.5479  1.1541
  189SAPI   H3S21798   4.259   3.846   6.353 -0.1148  1.6731 -0.7527
  189SAPI   C2421799   4.276   3.959   6.172  0.1846  0.3308 -0.4249
  189SAPI   H4R21800   4.378   3.985   6.208 -0.1722  1.1454  0.0023
  189SAPI   H4S21801   4.204   4.041   6.191 -1.6390 -1.3321  0.2008
  189SAPI   C2521802   4.268   3.933   6.018 -0.1235 -0.1689 -0.1606
  189SAPI   H5R21803   4.164   3.914   5.989 -0.2277 -0.6093  0.5103
  189SAPI   C2621804   4.363   3.935   5.924 -0.7680 -0.1575  0.8044
  189SAPI   H6R21805   4.333   3.929   5.818 -1.1799 -0.5785  0.9386
  189SAPI   C2721806   4.509   3.957   5.956  0.3981  0.3655  0.3866
  189SAPI   H7R21807   4.570   3.865   5.948  0.8006  0.6898 -0.3267
  189SAPI   H7S21808   4.518   3.976   6.065 -1.2450 -0.6841  0.7462
  189SAPI   C2821809   4.590   4.073   5.885 -0.0890 -0.5864 -0.1357
  189SAPI   H8R21810   4.627   4.148   5.956  2.4930 -1.7348 -0.1427
  189SAPI   C2921811   4.626   4.094   5.754 -0.5462  0.1767 -0.4651
  189SAPI   H9R21812   4.681   4.187   5.734 -0.1007  0.2094  0.7960
  189SAPI  C21021813   4.611   4.005   5.643  0.0701  0.1461  0.4053
  189SAPI  H10R21814   4.545   3.920   5.667 -0.6532  0.7829  0.7103
  189SAPI  H10S21815   4.714   3.971   5.620  0.0410  0.4376 -0.1950
  189SAPI  C21121816   4.548   4.085   5.534  0.5998 -0.4648 -0.2172
  189SAPI  H11R21817   4.471   4.154   5.570 -0.6297 -2.1900  0.5847
  189SAPI  C21221818   4.588   4.087   5.408  0.0805 -0.1834  0.5079
  189SAPI  H12R21819   4.540   4.165   5.346  2.2738  0.7958 -0.0693
  189SAPI  C21321820   4.685   3.991   5.339  0.1481  0.1125  0.1605
  189SAPI  H13R21821   4.613   3.924   5.287 -0.2105  0.1044  0.6634
  189SAPI  H13S21822   4.743   3.930   5.411 -1.5729  0.1254  1.6257
  189SAPI  C21421823   4.780   4.045   5.235  0.3681 -1.1309 -0.3785
  189SAPI  H14R21824   4.785   4.154   5.241  2.1573 -1.1049 -1.5120
  189SAPI  C21521825   4.864   3.990   5.154 -0.4333  0.4347  0.4694
  189SAPI  H15R21826   4.923   4.053   5.085  1.0015  1.3576  2.4482
  189SAPI  C21621827   4.892   3.845   5.126 -0.0479  0.1361 -0.9309
  189SAPI  H16R21828   4.829   3.790   5.199 -1.1007  0.3815 -1.6481
  189SAPI  H16S21829   4.996   3.814   5.150 -0.6611 -0.7289  0.8101
  189SAPI  C21721830   4.852   3.810   4.984  0.8723  0.0335  0.1450
  189SAPI  H17R21831   4.743   3.828   4.974  0.4591 -1.7618  1.0299
  189SAPI  H17S21832   4.868   3.702   4.968 -0.6872 -0.3593  1.0481
  189SAPI  C21821833   4.939   3.872   4.867  0.7850  0.3802 -0.3856
  189SAPI  H18R21834   4.950   3.982   4.882 -0.0080  0.3930  0.1665
  189SAPI  H18S21835   4.877   3.865   4.775 -1.6310  3.5394  0.7800
  189SAPI  C21921836   5.062   3.791   4.861 -0.5308  0.1536  0.1553
  189SAPI  H19R21837   5.048   3.681   4.855  0.2447  0.0031  0.9865
  189SAPI  H19S21838   5.109   3.812   4.959  1.3592 -0.8186 -0.4888
  189SAPI  C22021839   5.157   3.851   4.754 -0.2684 -0.2655 -0.1640
  189SAPI  H20R21840   5.103   3.865   4.658 -2.0444  2.6598  1.0973
  189SAPI  H20S21841   5.249   3.789   4.751 -0.1834 -0.1020 -2.5082
  189SAPI  H20T21842   5.185   3.957   4.775 -0.0882 -0.1865 -0.7790
  189SAPI   C3321843   4.220   4.333   6.035 -0.4133 -0.3189 -0.2841
  189SAPI   H3X21844   4.281   4.244   6.060 -0.1927 -0.7122 -2.0906
  189SAPI   H3Y21845   4.290   4.417   6.052 -0.7705 -0.1152  0.1699
  189SAPI   C3421846   4.171   4.312   5.888  0.3709 -0.0391 -0.0633
  189SAPI   H4X21847   4.123   4.405   5.852  0.4325  0.0431  0.0679
  189SAPI   H4Y21848   4.094   4.232   5.892  0.0021  0.3721  1.9480
  189SAPI   C3521849   4.288   4.281   5.793  1.4568 -0.6112  0.6349
  189SAPI   H5X21850   4.291   4.175   5.759  4.9593 -1.5941  3.4285
  189SAPI   H5Y21851   4.383   4.290   5.849  1.8656  1.6366 -0.2905
  189SAPI   C3621852   4.302   4.377   5.673  0.3429  0.2967  0.8650
  189SAPI   H6X21853   4.407   4.361   5.640 -0.0155 -1.1292  0.3223
  189SAPI   H6Y21854   4.285   4.481   5.708 -0.8346  0.2382  0.5032
  189SAPI   C3721855   4.209   4.345   5.548 -0.5723 -0.5764 -0.2574
  189SAPI   H7X21856   4.116   4.406   5.552 -1.8214 -2.4121  0.5660
  189SAPI   H7Y21857   4.191   4.236   5.535  0.2001 -0.7088 -0.2460
  189SAPI   C3821858   4.284   4.382   5.415  0.0624  0.1628 -0.0833
  189SAPI   H8X21859   4.353   4.297   5.395 -0.1147 -0.2562  1.0342
  189SAPI   H8Y21860   4.341   4.473   5.442  0.7296 -0.5377  0.9121
  189SAPI   C3921861   4.191   4.408   5.297  0.7735 -0.0739 -0.2658
  189SAPI   H9X21862   4.126   4.497   5.307 -0.9553 -1.2816 -0.2415
  189SAPI   H9Y21863   4.111   4.331   5.301  1.4337 -0.7437  0.5438
  189SAPI  C31021864   4.259   4.406   5.160 -0.1939  0.3774  0.5182
  189SAPI  H10X21865   4.327   4.318   5.162 -2.9916 -1.9436  0.2382
  189SAPI  H10Y21866   4.317   4.500   5.147 -0.4328  0.3635 -0.8336
  189SAPI  C31121867   4.162   4.391   5.039  0.1141 -0.2594  0.4894
  189SAPI  H11X21868   4.095   4.478   5.054  3.3338  2.1617  2.1467
  189SAPI  H11Y21869   4.098   4.301   5.050 -0.3164 -0.2836 -1.7916
  189SAPI  C31221870   4.232   4.382   4.905  0.3581 -0.6613 -0.4508
  189SAPI  H12X21871   4.301   4.295   4.910 -0.3613 -1.1821  2.2583
  189SAPI  H12Y21872   4.280   4.478   4.879 -0.5971 -0.2156 -0.6174
  189SAPI  C31321873   4.131   4.359   4.787 -0.0959  0.7105  0.8505
  189SAPI  H13X21874   4.054   4.439   4.785  0.2662  1.0487 -0.6170
  189SAPI  H13Y21875   4.079   4.264   4.813  0.4960 -0.2636 -1.2954
  189SAPI  C31421876   4.194   4.355   4.650 -0.3072 -0.0379  0.1904
  189SAPI  H14X21877   4.269   4.272   4.649 -0.9157 -0.6391  1.7362
  189SAPI  H14Y21878   4.254   4.448   4.638 -1.3243  0.5502 -0.3778
  189SAPI  C31521879   4.094   4.347   4.537 -0.3354 -0.6063 -0.5624
  189SAPI  H15X21880   4.006   4.408   4.567 -0.4465 -0.2428 -1.5930
  189SAPI  H15Y21881   4.053   4.245   4.523  1.0833 -1.4565  1.1096
  189SAPI  C31621882   4.141   4.408   4.398 -0.2668  0.1812  0.9526
  189SAPI  H16X21883   4.196   4.502   4.419 -1.4647  0.9828  0.6029
  189SAPI  H16Y21884   4.058   4.437   4.330  0.3449 -2.0788 -0.9119
  189SAPI  C31721885   4.238   4.315   4.326  0.2259 -0.1339  0.2357
  189SAPI  H17X21886   4.320   4.276   4.389 -1.6299 -2.8142  1.2253
  189SAPI  H17Y21887   4.283   4.377   4.246  0.2738  0.8944  1.0493
  189SAPI  C31821888   4.161   4.196   4.256  0.5269  0.0129 -0.0205
  189SAPI  H18X21889   4.081   4.238   4.192  0.5620 -0.4392 -0.3662
  189SAPI  H18Y21890   4.106   4.131   4.328 -2.0532  0.2841 -1.6262
  189SAPI  H18Z21891   4.225   4.127   4.197  0.4614  1.2869 -1.6463
  190SAPI   C1221892   5.798   2.046   6.872  0.3042 -0.1425 -0.5563
  190SAPI    H221893   5.895   2.033   6.818  0.0500  0.5335 -1.1848
  190SAPI    O221894   5.717   1.950   6.816  0.2657 -0.2978  0.0567
  190SAPI   HO221895   5.722   1.864   6.858 -1.3371 -0.4860 -0.0566
  190SAPI   C1321896   5.832   2.013   7.017  0.0406  0.5810 -0.2552
  190SAPI    H321897   5.907   2.084   7.057  1.0576  0.1838 -1.3782
  190SAPI    O321898   5.894   1.883   7.041  0.3848  0.8500  0.9896
  190SAPI   HO321899   5.989   1.882   7.026  0.2500  0.1613  0.0647
  190SAPI   C1421900   5.699   2.015   7.092 -0.1670  0.5543  0.4893
  190SAPI    H421901   5.646   1.923   7.063  2.6331 -1.0504  0.0766
  190SAPI    O421902   5.716   1.994   7.231  0.0730  0.3235  0.0463
  190SAPI   HO421903   5.718   1.901   7.256  0.4350  0.7431  1.6835
  190SAPI   C1521904   5.599   2.124   7.047  0.4394 -0.6819  0.0230
  190SAPI    H521905   5.611   2.202   7.125 -1.0824 -0.1500 -0.2387
  190SAPI    O521906   5.463   2.080   7.061  0.5557 -0.5941 -0.4646
  190SAPI   HO521907   5.460   1.991   7.026 -2.4329 -1.2122  0.9671
  190SAPI   C1621908   5.603   2.193   6.913 -0.3275 -0.4056  0.0295
  190SAPI    H621909   5.546   2.127   6.844  0.8723  0.2242 -1.6247
  190SAPI    O621910   5.533   2.315   6.905  0.3872  0.3551  0.2805
  190SAPI   HO621911   5.569   2.364   6.831 -0.2443 -0.6755 -0.7405
  190SAPI   C1121912   5.745   2.190   6.863 -0.3705 -0.0921 -1.0595
  190SAPI    H121913   5.812   2.246   6.932 -1.0049  0.3043 -0.7467
  190SAPI     P21914   5.775   2.391   6.687  0.2026 -0.2083 -0.2848
  190SAPI   O1321915   5.891   2.456   6.761  0.3758  0.7107  0.4417
  190SAPI   O1421916   5.641   2.449   6.692  0.3491  0.6785 -0.0074
  190SAPI   O1221917   5.760   2.231   6.737 -0.1864 -0.6063  0.5353
  190SAPI   O1121918   5.812   2.364   6.540  0.2863 -0.1881 -0.1862
  190SAPI    C121919   5.928   2.291   6.499  1.1716  0.1547  0.5486
  190SAPI    HA21920   6.013   2.307   6.568  1.0857 -0.8355  0.8907
  190SAPI    HB21921   5.905   2.183   6.510 -1.4207  0.5281 -0.3279
  190SAPI    C221922   5.967   2.325   6.352  0.2620 -0.1141 -0.5636
  190SAPI    HS21923   6.044   2.249   6.324 -0.2984  0.1090 -2.9719
  190SAPI   O2121924   6.023   2.461   6.335  0.0446  0.1270 -0.0041
  190SAPI   C2121925   6.143   2.468   6.374  0.5304 -0.3659  0.6660
  190SAPI   O2221926   6.212   2.379   6.421 -0.5781 -0.4093  0.5670
  190SAPI   C2221927   6.179   2.611   6.360 -0.2748  0.2875 -1.0509
  190SAPI   H2R21928   6.099   2.683   6.331 -1.3526 -0.1027  0.7957
  190SAPI   H2S21929   6.224   2.643   6.457 -0.4160  0.9277 -1.1932
  190SAPI    C321930   5.853   2.311   6.256 -0.5769  0.1460  0.2457
  190SAPI    HX21931   5.795   2.406   6.247 -0.6570  0.3154  2.0586
  190SAPI    HY21932   5.780   2.238   6.299 -0.5215  1.2873  2.4079
  190SAPI   O3121933   5.900   2.283   6.118  0.3378  0.0894 -0.3326
  190SAPI   C3121934   5.919   2.160   6.091  0.5045  0.3952 -0.1342
  190SAPI   O3221935   5.927   2.070   6.170 -0.3257 -0.2599 -0.3101
  190SAPI   C3221936   5.944   2.147   5.938  0.1960 -0.6596  0.5071
  190SAPI   H2X21937   6.051   2.172   5.921 -0.4621  1.8138 -0.4286
  190SAPI   H2Y21938   5.887   2.230   5.890 -0.0806  0.2561  2.3349
  190SAPI   C2321939   6.277   2.629   6.245  0.1085 -0.1472 -0.4183
  190SAPI   H3R21940   6.359   2.554   6.252 -0.6657 -1.0447 -0.7095
  190SAPI   H3S21941   6.332   2.724   6.263  0.7708 -0.4326 -0.9106
  190SAPI   C2421942   6.218   2.640   6.104 -0.1263  0.1371  0.5266
  190SAPI   H4R21943   6.283   2.702   6.039  2.0625  1.5643  3.8014
  190SAPI   H4S21944   6.129   2.705   6.119 -1.3054 -0.9907 -1.1403
  190SAPI   C2521945   6.173   2.512   6.044  0.4430  0.1279  0.8606
  190SAPI   H5R21946   6.075   2.479   6.080  0.2691  1.0267  1.2538
  190SAPI   C2621947   6.219   2.450   5.933  0.1146 -0.6059 -0.3473
  190SAPI   H6R21948   6.175   2.358   5.893 -0.8077 -0.3520  0.0666
  190SAPI   C2721949   6.344   2.491   5.861  0.2318  0.6992  0.3269
  190SAPI   H7R21950   6.425   2.417   5.879 -1.2831 -1.0835  0.0893
  190SAPI   H7S21951   6.390   2.585   5.897  0.1781  0.1809  1.8109
  190SAPI   C2821952   6.307   2.496   5.715 -0.4308 -0.1965 -0.1877
  190SAPI   H8R21953   6.254   2.587   5.687 -0.3135  0.0453  0.3573
  190SAPI   C2921954   6.334   2.410   5.617  0.9731  0.3614 -0.3919
  190SAPI   H9R21955   6.299   2.423   5.514 -1.8264 -0.0628  0.4182
  190SAPI  C21021956   6.407   2.279   5.639  0.3031 -0.0637  0.0705
  190SAPI  H10R21957   6.358   2.194   5.587  0.8452 -0.4353  0.1533
  190SAPI  H10S21958   6.423   2.255   5.746 -2.5400 -1.5356  0.2444
  190SAPI  C21121959   6.546   2.292   5.578  0.2384  0.0113 -0.3666
  190SAPI  H11R21960   6.629   2.319   5.645  0.0817  1.6848 -0.7966
  190SAPI  C21221961   6.575   2.278   5.446  0.0087  0.6223  0.2205
  190SAPI  H12R21962   6.675   2.309   5.413 -0.2617  2.0412  0.6559
  190SAPI  C21321963   6.476   2.244   5.336 -0.2782  0.4328 -0.0902
  190SAPI  H13R21964   6.415   2.333   5.314  0.2972  1.6397  2.6774
  190SAPI  H13S21965   6.414   2.161   5.377 -2.1810  1.3547 -1.0011
  190SAPI  C21421966   6.553   2.195   5.216  0.3637  0.0736  0.1306
  190SAPI  H14R21967   6.575   2.087   5.217  0.6570  0.0058  4.0265
  190SAPI  C21521968   6.600   2.267   5.112 -0.6024 -0.4548  0.4237
  190SAPI  H15R21969   6.657   2.205   5.040  1.1888  1.5601 -0.0060
  190SAPI  C21621970   6.572   2.416   5.086  0.1609  0.5780 -0.1797
  190SAPI  H16R21971   6.530   2.476   5.170 -0.4399  0.4126 -0.3549
  190SAPI  H16S21972   6.505   2.415   4.998  0.3402  1.6426 -0.3378
  190SAPI  C21721973   6.688   2.502   5.035 -0.1218  0.7435 -0.0479
  190SAPI  H17R21974   6.767   2.501   5.114  1.4360  1.6528 -1.5059
  190SAPI  H17S21975   6.659   2.607   5.014  0.5555  1.8707  3.9390
  190SAPI  C21821976   6.768   2.453   4.911 -0.3048 -0.3901 -0.1721
  190SAPI  H18R21977   6.716   2.480   4.817 -0.1919  1.6572  0.3201
  190SAPI  H18S21978   6.770   2.342   4.917  0.8402 -0.4135 -0.7155
  190SAPI  C21921979   6.911   2.497   4.926  0.3151 -0.2864 -0.5827
  190SAPI  H19R21980   6.946   2.451   5.022  0.4787 -3.6066 -2.0803
  190SAPI  H19S21981   6.918   2.606   4.941  2.1052 -0.5495  0.8642
  190SAPI  C22021982   7.023   2.454   4.830 -0.1763 -0.0679  0.3775
  190SAPI  H20R21983   7.119   2.483   4.879 -0.3840 -0.2810  0.9199
  190SAPI  H20S21984   7.012   2.505   4.732 -0.6203 -1.9494 -0.6096
  190SAPI  H20T21985   7.018   2.343   4.821  1.9596 -0.3478  1.7488
  190SAPI   C3321986   5.914   2.013   5.871  0.6427  0.5759 -0.4128
  190SAPI   H3X21987   5.816   1.970   5.899  0.6593 -0.3446 -1.6873
  190SAPI   H3Y21988   5.991   1.942   5.907 -0.5571 -0.9869 -0.8218
  190SAPI   C3421989   5.937   2.029   5.723  0.2332  0.3299  0.5795
  190SAPI   H4X21990   5.870   2.107   5.681 -1.3668 -1.7017 -0.8366
  190SAPI   H4Y21991   5.897   1.942   5.667  0.9735  0.2531  0.1700
  190SAPI   C3521992   6.079   2.057   5.683 -0.5250 -0.2078 -0.5834
  190SAPI   H5X21993   6.137   2.017   5.768 -0.4728 -0.6635 -0.8261
  190SAPI   H5Y21994   6.106   2.165   5.681 -1.9952  0.1838 -0.2129
  190SAPI   C3621995   6.122   1.987   5.556 -0.6984  0.4551  0.2277
  190SAPI   H6X21996   6.119   1.876   5.555  1.5164  0.3294  1.6627
  190SAPI   H6Y21997   6.232   1.993   5.544 -0.6342 -2.2300 -1.5688
  190SAPI   C3721998   6.047   2.043   5.435  0.5943 -0.0957  0.0528
  190SAPI   H7X21999   6.057   2.154   5.435 -0.0924  0.0260  2.1928
  190SAPI   H7Y22000   5.940   2.012   5.443  1.0298 -1.1907  2.3628
  190SAPI   C3822001   6.104   1.987   5.305  0.5327 -0.4272  0.1029
  190SAPI   H8X22002   6.066   1.885   5.325 -0.1910  0.2834  2.8494
  190SAPI   H8Y22003   6.213   1.982   5.284  1.2305 -1.1884  3.2665
  190SAPI   C3922004   6.028   2.027   5.177  0.0674 -0.4654 -0.2856
  190SAPI   H9X22005   5.930   2.070   5.204  1.0702  0.4736  2.2225
  190SAPI   H9Y22006   6.018   1.938   5.111 -1.6837 -0.2715 -0.3305
  190SAPI  C31022007   6.097   2.131   5.087 -0.3991 -0.4652  0.6070
  190SAPI  H10X22008   6.197   2.091   5.060 -0.7280 -0.7800 -0.1889
  190SAPI  H10Y22009   6.106   2.229   5.138 -0.4478 -0.6517  0.9794
  190SAPI  C31122010   6.005   2.160   4.966 -0.2751  0.1265 -0.3876
  190SAPI  H11X22011   5.907   2.171   5.017  0.7080 -1.8196  2.1952
  190SAPI  H11Y22012   5.991   2.083   4.887  0.8540  0.4406 -0.9243
  190SAPI  C31222013   6.061   2.283   4.903  0.2363  0.1700 -0.3969
  190SAPI  H12X22014   6.058   2.364   4.979 -0.8900 -0.0685 -0.1652
  190SAPI  H12Y22015   5.994   2.315   4.820  1.4731  2.3068 -0.6450
  190SAPI  C31322016   6.196   2.259   4.838 -0.1430 -0.1675 -0.6680
  190SAPI  H13X22017   6.189   2.169   4.772  0.9069 -1.0193  0.3469
  190SAPI  H13Y22018   6.265   2.234   4.920  0.1016  0.0881 -0.7958
  190SAPI  C31422019   6.255   2.383   4.771 -0.2870  0.2859 -0.1442
  190SAPI  H14X22020   6.278   2.452   4.855 -0.7508 -0.3621  0.5312
  190SAPI  H14Y22021   6.173   2.432   4.714 -0.0613  0.2076 -0.5412
  190SAPI  C31522022   6.372   2.353   4.677  0.4952 -0.2425 -0.8098
  190SAPI  H15X22023   6.447   2.289   4.729  0.0235 -1.5049 -1.6283
  190SAPI  H15Y22024   6.438   2.438   4.650 -1.4450  1.8415  0.6158
  190SAPI  C31622025   6.341   2.291   4.538  0.8694  0.1573 -0.0377
  190SAPI  H16X22026   6.273   2.203   4.541 -2.0624  2.2624  3.2477
  190SAPI  H16Y22027   6.441   2.271   4.495  0.9808 -1.6283  0.9459
  190SAPI  C31722028   6.269   2.390   4.445  0.4536  0.3184 -0.0845
  190SAPI  H17X22029   6.286   2.492   4.484 -1.6061  1.4036 -1.8424
  190SAPI  H17Y22030   6.163   2.360   4.454  0.3762  0.0235 -1.7558
  190SAPI  C31822031   6.319   2.392   4.301  0.0427  0.5509  0.2077
  190SAPI  H18X22032   6.239   2.438   4.238 -1.4404 -3.6744 -1.3509
  190SAPI  H18Y22033   6.321   2.287   4.266 -0.4054  0.3057  0.8914
  190SAPI  H18Z22034   6.423   2.431   4.299 -0.1971  1.1796 -0.8590
  191SAPI   C1222035   4.080   4.677   2.373  0.2917  0.0254 -0.9301
  191SAPI    H222036   4.095   4.732   2.468 -0.5623 -0.3692 -0.5507
  191SAPI    O222037   4.117   4.540   2.393  0.0716 -0.0121 -0.2942
  191SAPI   HO222038   4.212   4.533   2.403 -0.1138 -0.7035  1.3016
  191SAPI   C1322039   3.928   4.680   2.354  0.2531  0.2960 -0.4053
  191SAPI    H322040   3.912   4.790   2.362 -1.9793  0.0295 -0.7003
  191SAPI    O322041   3.857   4.623   2.469 -0.0149 -0.3702  0.0918
  191SAPI   HO322042   3.914   4.555   2.505  1.1049  0.3500 -0.2703
  191SAPI   C1422043   3.888   4.634   2.220 -0.2906 -0.3753  0.1459
  191SAPI    H422044   3.872   4.525   2.235 -0.7162 -0.2035  1.0181
  191SAPI    O422045   3.754   4.677   2.183 -0.0686  0.6894 -0.1504
  191SAPI   HO422046   3.719   4.601   2.135  1.1414 -0.5214  0.8070
  191SAPI   C1522047   3.986   4.642   2.103 -1.1407 -0.0940 -0.1301
  191SAPI    H522048   3.956   4.729   2.040  3.6604  1.6181 -0.4207
  191SAPI    O522049   3.981   4.530   2.006  0.4333 -0.0997  0.1167
  191SAPI   HO522050   3.966   4.575   1.923 -0.2536  0.2505  0.4192
  191SAPI   C1622051   4.132   4.678   2.133  0.5504 -0.9715 -0.6113
  191SAPI    H622052   4.175   4.576   2.134  0.8464 -0.8540 -1.0636
  191SAPI    O622053   4.197   4.757   2.030  0.2383  0.2771 -0.1232
  191SAPI   HO622054   4.172   4.849   2.041  2.2301  0.5957  2.5716
  191SAPI   C1122055   4.157   4.740   2.259  0.0309 -0.0952  0.3274
  191SAPI    H122056   4.124   4.846   2.248  1.0837  0.0214 -2.6871
  191SAPI     P22057   4.371   4.874   2.351  0.1611 -0.0591  0.4501
  191SAPI   O1322058   4.309   4.992   2.282  0.5599 -0.4127  0.3753
  191SAPI   O1422059   4.516   4.863   2.357 -0.3557 -0.2425  0.4178
  191SAPI   O1222060   4.295   4.738   2.286 -0.3184  0.3387  0.2928
  191SAPI   O1122061   4.324   4.866   2.503  0.2743 -0.0015  0.9636
  191SAPI    C122062   4.369   4.753   2.584 -0.4408 -0.0887 -0.3183
  191SAPI    HA22063   4.312   4.664   2.552  0.4651 -0.3789 -1.2069
  191SAPI    HB22064   4.476   4.725   2.566 -0.2365  0.9865 -0.8820
  191SAPI    C222065   4.339   4.774   2.735  0.1092  0.3888 -0.2603
  191SAPI    HS22066   4.367   4.679   2.786 -0.3042  0.6218  0.4150
  191SAPI   O2122067   4.199   4.801   2.751  0.5106 -0.2358  0.6636
  191SAPI   C2122068   4.120   4.689   2.752 -0.6570 -0.1788  0.0902
  191SAPI   O2222069   4.162   4.572   2.734 -0.3544 -0.1960 -0.0873
  191SAPI   C2222070   3.981   4.730   2.785 -0.3078 -0.0693  0.2030
  191SAPI   H2R22071   3.985   4.795   2.875 -0.3704  1.0828 -0.6009
  191SAPI   H2S22072   3.944   4.785   2.696 -2.0667  0.9032  1.4732
  191SAPI    C322073   4.423   4.893   2.788 -0.7046  0.7105 -0.2058
  191SAPI    HX22074   4.385   4.977   2.727 -0.0157  0.2013 -1.3790
  191SAPI    HY22075   4.528   4.877   2.755 -0.2798  1.2642  0.8140
  191SAPI   O3122076   4.415   4.898   2.927  0.2256 -0.0055 -0.3627
  191SAPI   C3122077   4.375   5.004   2.991  0.2221  0.2191 -0.0323
  191SAPI   O3222078   4.335   5.111   2.950  0.2130  0.4795  0.2026
  191SAPI   C3222079   4.380   4.963   3.136  0.3375 -0.5049  0.4652
  191SAPI   H2X22080   4.486   4.962   3.169  0.7210  1.7508 -0.5266
  191SAPI   H2Y22081   4.336   4.861   3.143  0.2816 -0.5197 -0.0651
  191SAPI   C2322082   3.892   4.621   2.834  0.4398  0.2718 -0.2631
  191SAPI   H3R22083   3.903   4.529   2.772  0.2558  0.1847 -0.1665
  191SAPI   H3S22084   3.785   4.643   2.813  0.8535  0.7479 -1.9930
  191SAPI   C2422085   3.890   4.600   2.991 -0.4126 -0.0181 -0.3984
  191SAPI   H4R22086   3.821   4.515   3.010  1.3611 -1.3812  0.1805
  191SAPI   H4S22087   3.844   4.689   3.038 -1.5287 -0.3493 -0.8418
  191SAPI   C2522088   4.027   4.557   3.052  0.2403  0.0344  0.2425
  191SAPI   H5R22089   4.090   4.504   2.979 -0.7508 -1.7699  0.6502
  191SAPI   C2622090   4.077   4.590   3.172 -0.0729 -0.1504  0.4491
  191SAPI   H6R22091   4.183   4.564   3.185 -0.4218 -1.3545  1.0027
  191SAPI   C2722092   4.009   4.679   3.272  0.1747 -0.4263 -0.1016
  191SAPI   H7R22093   3.900   4.662   3.259  0.4967 -1.1723 -2.0490
  191SAPI   H7S22094   4.005   4.786   3.241  0.4593 -0.3076  0.2530
  191SAPI   C2822095   4.057   4.663   3.418 -1.1145 -0.2372  0.2658
  191SAPI   H8R22096   4.167   4.653   3.423 -0.6139  3.0289 -1.7506
  191SAPI   C2922097   3.979   4.655   3.523  0.4967 -0.3976  0.3451
  191SAPI   H9R22098   4.030   4.671   3.620 -0.2026 -1.4205  0.8917
  191SAPI  C21022099   3.823   4.671   3.527  0.4454 -0.0729 -0.4838
  191SAPI  H10R22100   3.786   4.567   3.515 -0.9406  0.1560  1.4817
  191SAPI  H10S22101   3.786   4.731   3.441 -2.2822  0.4820  0.9893
  191SAPI  C21122102   3.755   4.722   3.650  0.5943 -0.9955 -0.0654
  191SAPI  H11R22103   3.750   4.653   3.735 -0.5364  0.7653  1.3808
  191SAPI  C21222104   3.695   4.841   3.672 -0.0397 -0.2321 -0.0546
  191SAPI  H12R22105   3.647   4.855   3.770  2.6492 -0.3709  1.3737
  191SAPI  C21322106   3.675   4.958   3.581  0.1210  0.0298 -0.0201
  191SAPI  H13R22107   3.579   5.011   3.599 -0.9101 -1.1085 -1.9040
  191SAPI  H13S22108   3.670   4.929   3.474  2.8122  2.4540 -0.9274
  191SAPI  C21422109   3.796   5.054   3.591  0.3008 -0.1847  0.0904
  191SAPI  H14R22110   3.844   5.054   3.690  1.1542  1.2463 -0.2933
  191SAPI  C21522111   3.834   5.132   3.493 -0.3094  0.1451 -0.4909
  191SAPI  H15R22112   3.929   5.183   3.516 -0.7776  0.0706  1.8007
  191SAPI  C21622113   3.783   5.147   3.351  0.0637 -0.1356  0.0762
  191SAPI  H16R22114   3.759   5.254   3.332 -1.4037 -0.2507  1.1241
  191SAPI  H16S22115   3.686   5.092   3.350 -2.5853  4.0293  1.3424
  191SAPI  C21722116   3.879   5.078   3.252  0.9696 -0.2746  0.0452
  191SAPI  H17R22117   3.906   4.982   3.301 -1.5117 -0.8914  0.3712
  191SAPI  H17S22118   3.970   5.141   3.245 -0.9083  2.5147 -1.5708
  191SAPI  C21822119   3.818   5.060   3.109 -0.1435  0.8186 -0.3736
  191SAPI  H18R22120   3.761   5.150   3.075 -1.8676  0.5904  1.7151
  191SAPI  H18S22121   3.749   4.974   3.122  1.1629 -0.5333 -1.8783
  191SAPI  C21922122   3.932   5.029   3.013 -0.8101  0.3799 -0.0085
  191SAPI  H19R22123   3.873   4.985   2.930  1.2856  0.9566 -1.9183
  191SAPI  H19S22124   3.999   4.954   3.061 -2.0256 -0.4525  0.4413
  191SAPI  C22022125   4.016   5.147   2.973 -0.3839 -0.1967  0.1950
  191SAPI  H20R22126   3.950   5.221   2.924 -0.1113 -1.1527 -1.7203
  191SAPI  H20S22127   4.084   5.125   2.888 -1.4714 -0.9847 -0.4939
  191SAPI  H20T22128   4.063   5.192   3.063 -1.6224 -2.2241  1.9601
  191SAPI   C3322129   4.299   5.054   3.229 -1.4225  0.6727  0.1342
  191SAPI   H3X22130   4.190   5.049   3.207 -0.8976  1.7866 -3.4054
  191SAPI   H3Y22131   4.324   5.162   3.222  0.1921  0.4533  1.9260
  191SAPI   C3422132   4.330   5.018   3.375 -0.1579 -0.1473  0.3545
  191SAPI   H4X22133   4.430   5.057   3.403  0.2126 -0.3218 -0.6848
  191SAPI   H4Y22134   4.328   4.908   3.383  0.1279 -0.1122  1.0356
  191SAPI   C3522135   4.218   5.066   3.471  0.4188  0.1530 -0.7173
  191SAPI   H5X22136   4.115   5.037   3.445  0.5157 -0.3413 -0.5554
  191SAPI   H5Y22137   4.221   5.176   3.455 -0.6780  0.6024  1.6972
  191SAPI   C3622138   4.230   5.038   3.618 -0.4886 -0.1668 -0.8353
  191SAPI   H6X22139   4.216   4.929   3.632 -1.4641  0.1403  0.7755
  191SAPI   H6Y22140   4.144   5.079   3.674 -0.0375  0.1764 -0.3769
  191SAPI   C3722141   4.363   5.071   3.686  0.7637 -0.0619  0.7867
  191SAPI   H7X22142   4.371   5.181   3.689  0.6492 -0.0658  3.5436
  191SAPI   H7Y22143   4.449   5.029   3.630  0.7645 -1.6489  1.9178
  191SAPI   C3822144   4.375   5.006   3.827 -0.2257 -0.5554  0.6312
  191SAPI   H8X22145   4.363   4.896   3.830  0.0152 -0.5744  0.9071
  191SAPI   H8Y22146   4.295   5.043   3.894  0.4907  0.7350  0.8154
  191SAPI   C3922147   4.501   5.033   3.905 -0.8596 -0.3525 -0.3504
  191SAPI   H9X22148   4.509   5.143   3.898 -0.4289 -0.3371  0.2243
  191SAPI   H9Y22149   4.586   4.994   3.846 -0.9495 -0.3565 -0.4761
  191SAPI  C31022150   4.510   4.980   4.050 -0.4956  0.1479  0.0558
  191SAPI  H10X22151   4.518   4.869   4.055  1.2264  0.2989  2.9374
  191SAPI  H10Y22152   4.412   4.994   4.100 -1.6041 -0.6596 -1.8013
  191SAPI  C31122153   4.622   5.032   4.135  0.1069 -0.1977 -0.0448
  191SAPI  H11X22154   4.634   4.978   4.231  3.5054 -2.4553 -1.5312
  191SAPI  H11Y22155   4.599   5.139   4.157 -0.3923 -0.4424  0.6435
  191SAPI  C31222156   4.760   5.021   4.062  0.5889  0.1306  0.0404
  191SAPI  H12X22157   4.790   5.124   4.033  0.8076  0.9755  2.9372
  191SAPI  H12Y22158   4.745   4.959   3.972 -0.5385 -1.0616  1.0097
  191SAPI  C31322159   4.873   4.955   4.150 -0.2271  0.2048  0.2513
  191SAPI  H13X22160   4.964   4.940   4.087 -1.4592  0.3719 -1.6433
  191SAPI  H13Y22161   4.836   4.857   4.185  0.7685 -0.0469  0.6326
  191SAPI  C31422162   4.922   5.044   4.261 -0.1716  0.2696  0.1928
  191SAPI  H14X22163   4.971   4.985   4.340 -0.3164  1.6633  1.3640
  191SAPI  H14Y22164   4.841   5.095   4.318  1.0366  2.0470  0.4057
  191SAPI  C31522165   5.011   5.157   4.214 -0.2651 -0.6620 -0.4702
  191SAPI  H15X22166   4.948   5.247   4.197  1.3997  0.7818  0.6376
  191SAPI  H15Y22167   5.075   5.124   4.130  0.1843 -2.4670  0.5171
  191SAPI  C31622168   5.120   5.188   4.316  0.8750  0.2188 -1.3256
  191SAPI  H16X22169   5.207   5.119   4.325  0.7135  0.0856 -0.8032
  191SAPI  H16Y22170   5.060   5.186   4.409  0.8000 -1.0215 -1.3785
  191SAPI  C31722171   5.187   5.323   4.292 -0.3244  0.0301 -0.1300
  191SAPI  H17X22172   5.103   5.389   4.264 -1.6252 -1.6567 -0.3460
  191SAPI  H17Y22173   5.257   5.318   4.206 -0.9994 -0.9609 -0.6410
  191SAPI  C31822174   5.265   5.364   4.416  0.6157  0.0245  0.2806
  191SAPI  H18X22175   5.196   5.393   4.498 -0.7107  0.6549 -1.0249
  191SAPI  H18Y22176   5.318   5.461   4.405 -1.9161  1.3599 -1.0249
  191SAPI  H18Z22177   5.340   5.285   4.437  2.2613  0.2504 -3.7300
  192SAPI   C1222178   0.256   0.759   1.830 -0.6241  0.7657 -0.2385
  192SAPI    H222179   0.263   0.743   1.939 -1.3212 -4.0100 -0.6850
  192SAPI    O222180   0.124   0.722   1.788 -0.0952 -0.1260  0.4469
  192SAPI   HO222181   0.064   0.720   1.863 -2.4032  1.5766 -1.1840
  192SAPI   C1322182   0.301   0.905   1.796  0.0952 -0.8801 -0.2085
  192SAPI    H322183   0.407   0.904   1.829 -0.2512  1.7704  1.2913
  192SAPI    O322184   0.232   0.994   1.885 -0.1858  0.5308 -0.7020
  192SAPI   HO322185   0.142   0.970   1.909  0.2159  1.6290  2.3854
  192SAPI   C1422186   0.276   0.931   1.650  0.2263 -0.0270  0.2278
  192SAPI    H422187   0.167   0.909   1.640  0.1112  0.3316  0.6821
  192SAPI    O422188   0.301   1.064   1.603  0.5615 -0.2935  0.2634
  192SAPI   HO422189   0.232   1.129   1.616  0.7446 -0.1880  0.7133
  192SAPI   C1522190   0.353   0.831   1.567  0.3390 -0.7309  0.2539
  192SAPI    H522191   0.457   0.870   1.558  0.6502 -1.9034 -1.9334
  192SAPI    O522192   0.310   0.828   1.428 -0.7235  0.0171  0.7018
  192SAPI   HO522193   0.351   0.897   1.376 -0.4107 -0.7316 -0.0780
  192SAPI   C1622194   0.377   0.688   1.624  0.1967 -0.6619  0.3850
  192SAPI    H622195   0.305   0.623   1.570  0.0188  0.0827 -0.2955
  192SAPI    O622196   0.504   0.635   1.579 -0.7036  0.1203  0.3576
  192SAPI   HO622197   0.572   0.679   1.631  0.6528 -0.2379 -1.0413
  192SAPI   C1122198   0.361   0.666   1.772  0.5140 -0.1386  0.6711
  192SAPI    H122199   0.460   0.681   1.819  1.1577 -2.6572  0.2417
  192SAPI     P22200   0.346   0.466   1.954 -0.1402  0.2552  0.1216
  192SAPI   O1322201   0.344   0.317   1.950 -0.1159  0.2760 -0.1616
  192SAPI   O1422202   0.254   0.535   2.047  0.5544  0.6282 -0.4677
  192SAPI   O1222203   0.340   0.528   1.792 -0.0337  0.6237  0.3125
  192SAPI   O1122204   0.502   0.506   1.985  0.4122  0.0904 -0.5967
  192SAPI    C122205   0.543   0.618   2.070  0.5990  0.6999  0.1093
  192SAPI    HA22206   0.643   0.652   2.035  0.6010  1.5688  0.9185
  192SAPI    HB22207   0.482   0.709   2.052  0.7822  0.9954  0.9673
  192SAPI    C222208   0.576   0.580   2.210 -1.0025 -0.2794  0.7991
  192SAPI    HS22209   0.658   0.506   2.199 -0.4046  0.5210 -0.2844
  192SAPI   O2122210   0.457   0.534   2.274  0.2111 -0.1403  0.8674
  192SAPI   C2122211   0.482   0.445   2.366  0.6460 -0.5653  0.3883
  192SAPI   O2222212   0.590   0.411   2.411  0.5913 -0.1809  0.5875
  192SAPI   C2222213   0.353   0.397   2.432 -0.0058 -0.6449  0.5980
  192SAPI   H2R22214   0.305   0.341   2.349 -0.0274 -0.3500  0.4110
  192SAPI   H2S22215   0.388   0.328   2.512  1.0727  0.0706  0.7523
  192SAPI    C322216   0.634   0.707   2.281  0.1670  0.3005 -1.1268
  192SAPI    HX22217   0.564   0.793   2.293  0.8563  0.6282  1.1204
  192SAPI    HY22218   0.718   0.746   2.219 -0.3587 -1.1385 -2.8141
  192SAPI   O3122219   0.687   0.685   2.410  0.0100 -0.2203 -0.2905
  192SAPI   C3122220   0.808   0.626   2.417 -0.2215  0.2204 -0.0711
  192SAPI   O3222221   0.866   0.579   2.320 -0.1218  0.2537 -0.0257
  192SAPI   C3222222   0.874   0.628   2.557 -0.4017 -0.0773  0.4971
  192SAPI   H2X22223   0.981   0.652   2.536  0.2023 -2.5905  0.4200
  192SAPI   H2Y22224   0.868   0.528   2.605 -1.5663 -0.7447 -0.9582
  192SAPI   C2322225   0.259   0.509   2.481 -0.3056 -0.4859 -0.6535
  192SAPI   H3R22226   0.155   0.469   2.483 -0.8701  0.9555  0.7000
  192SAPI   H3S22227   0.250   0.592   2.408 -1.0048  0.8762  0.9321
  192SAPI   C2422228   0.300   0.564   2.621  0.1068 -0.2325  0.6403
  192SAPI   H4R22229   0.231   0.647   2.647  1.7925  0.6159  2.6144
  192SAPI   H4S22230   0.401   0.605   2.604 -0.4311  1.4401  1.3615
  192SAPI   C2522231   0.299   0.462   2.734  0.7682  0.8995 -0.4641
  192SAPI   H5R22232   0.215   0.390   2.729  2.4372 -1.1007 -1.0160
  192SAPI   C2622233   0.384   0.414   2.819 -0.4501  0.6767 -0.0306
  192SAPI   H6R22234   0.358   0.323   2.876  0.1702  0.9548  0.7149
  192SAPI   C2722235   0.522   0.466   2.849 -0.6785  0.3934 -0.2430
  192SAPI   H7R22236   0.526   0.465   2.960 -3.6192 -1.5855 -0.0283
  192SAPI   H7S22237   0.536   0.573   2.822  1.0257  0.3752  0.5120
  192SAPI   C2822238   0.624   0.380   2.784 -0.0968 -0.0598  0.9611
  192SAPI   H8R22239   0.604   0.353   2.679 -0.8480  0.2261  1.0266
  192SAPI   C2922240   0.721   0.300   2.831 -0.7806 -0.0957  0.0700
  192SAPI   H9R22241   0.783   0.232   2.770 -1.9178 -2.9516  1.8936
  192SAPI  C21022242   0.769   0.307   2.980 -0.4955  0.2975 -0.1220
  192SAPI  H10R22243   0.685   0.271   3.043 -0.1749  0.2357  0.2765
  192SAPI  H10S22244   0.787   0.412   3.012  0.4021  0.4904 -1.1714
  192SAPI  C21122245   0.896   0.232   3.009 -0.1889  0.6224 -0.0902
  192SAPI  H11R22246   0.877   0.130   3.047  0.0088  1.1120  1.3595
  192SAPI  C21222247   1.024   0.270   3.016 -0.1791 -0.3926 -0.1560
  192SAPI  H12R22248   1.101   0.205   3.060 -2.3596 -2.4097  0.9476
  192SAPI  C21322249   1.073   0.408   2.976 -0.5393  0.6968  0.3301
  192SAPI  H13R22250   1.060   0.476   3.063  1.4997  0.8784  0.5468
  192SAPI  H13S22251   1.015   0.447   2.890  0.5171 -1.4058 -1.4497
  192SAPI  C21422252   1.213   0.412   2.935 -0.1571  0.3786  0.5746
  192SAPI  H14R22253   1.257   0.336   2.869 -1.0729  2.0918 -2.1509
  192SAPI  C21522254   1.301   0.508   2.969 -0.1154  0.1025  0.1173
  192SAPI  H15R22255   1.408   0.502   2.943 -0.3606  0.4568 -1.0383
  192SAPI  C21622256   1.265   0.635   3.049  0.3136  0.2569  0.6171
  192SAPI  H16R22257   1.157   0.660   3.043  0.1336 -0.6085  0.0355
  192SAPI  H16S22258   1.310   0.727   3.007 -0.0561  0.7589  1.3029
  192SAPI  C21722259   1.306   0.629   3.194 -0.4388  0.3117 -0.4112
  192SAPI  H17R22260   1.303   0.733   3.233  1.7254  0.5053 -0.6215
  192SAPI  H17S22261   1.414   0.617   3.214 -0.6038  1.5390  1.4876
  192SAPI  C21822262   1.222   0.542   3.294 -0.7200  0.4353  1.1803
  192SAPI  H18R22263   1.223   0.437   3.256 -0.2454  0.7537  0.2902
  192SAPI  H18S22264   1.123   0.587   3.315 -1.3058 -0.3593  0.2149
  192SAPI  C21922265   1.289   0.538   3.433 -0.0888 -0.1520  0.5767
  192SAPI  H19R22266   1.378   0.472   3.425  0.2171  0.4853 -3.1950
  192SAPI  H19S22267   1.209   0.489   3.494 -0.7707  0.1771 -0.0280
  192SAPI  C22022268   1.332   0.668   3.504  0.0758  0.9859  0.4759
  192SAPI  H20R22269   1.363   0.646   3.608 -1.0971 -0.7740  0.5027
  192SAPI  H20S22270   1.250   0.742   3.511 -0.2263  0.6987  0.0144
  192SAPI  H20T22271   1.422   0.718   3.462  0.1524  1.4316  1.1477
  192SAPI   C3322272   0.805   0.733   2.648 -0.6398 -0.0601  0.1087
  192SAPI   H3X22273   0.694   0.724   2.652 -0.8332  1.4899 -1.0768
  192SAPI   H3Y22274   0.833   0.833   2.611 -0.3300  0.0465  0.6209
  192SAPI   C3422275   0.858   0.710   2.792  0.0613 -0.9154 -0.6323
  192SAPI   H4X22276   0.967   0.728   2.796 -0.4313  4.0937 -2.1222
  192SAPI   H4Y22277   0.835   0.606   2.822  0.0097 -0.4254  1.1452
  192SAPI   C3522278   0.777   0.792   2.899  0.3061  0.0699 -0.2734
  192SAPI   H5X22279   0.824   0.791   3.000 -1.3843  1.5561  0.5893
  192SAPI   H5Y22280   0.688   0.730   2.921 -0.6137  1.3774 -0.1461
  192SAPI   C3622281   0.749   0.939   2.857  0.7140  0.0963  0.1571
  192SAPI   H6X22282   0.673   0.939   2.776 -0.4577  0.4679  1.2237
  192SAPI   H6Y22283   0.846   0.981   2.821  1.1155 -2.2069 -1.7069
  192SAPI   C3722284   0.701   1.035   2.973  0.3620  0.1176 -0.3632
  192SAPI   H7X22285   0.771   1.022   3.058 -1.2919  0.0947  1.0352
  192SAPI   H7Y22286   0.605   1.005   3.019  0.4176  2.2431  1.2684
  192SAPI   C3822287   0.697   1.179   2.948  0.2482  0.4606  0.5222
  192SAPI   H8X22288   0.617   1.205   2.875  0.1119 -0.3428  0.3840
  192SAPI   H8Y22289   0.785   1.216   2.892 -0.0793 -0.2666 -0.4869
  192SAPI   C3922290   0.652   1.271   3.068 -0.6769  0.0573  0.7645
  192SAPI   H9X22291   0.675   1.375   3.038  0.1805 -0.6383 -1.2120
  192SAPI   H9Y22292   0.716   1.252   3.157 -0.3259  0.6471  0.6447
  192SAPI  C31022293   0.508   1.256   3.105  0.4882 -0.6018 -0.8553
  192SAPI  H10X22294   0.484   1.147   3.097  1.0540 -1.1241  2.7676
  192SAPI  H10Y22295   0.433   1.311   3.045 -2.3112 -0.7316  2.2875
  192SAPI  C31122296   0.473   1.297   3.248  0.6742 -0.0556 -0.6129
  192SAPI  H11X22297   0.500   1.403   3.267  1.6230 -1.0281  5.8214
  192SAPI  H11Y22298   0.535   1.235   3.317 -0.7522 -2.1318 -1.1034
  192SAPI  C31222299   0.325   1.285   3.283  0.0447 -1.2355 -0.6283
  192SAPI  H12X22300   0.302   1.177   3.271  2.2689 -1.6501 -1.6743
  192SAPI  H12Y22301   0.255   1.337   3.215  0.1456 -0.8933 -0.4712
  192SAPI  C31322302   0.280   1.327   3.423 -0.4753 -0.5725 -0.2401
  192SAPI  H13X22303   0.356   1.294   3.498 -0.0763 -1.2363 -0.9238
  192SAPI  H13Y22304   0.183   1.278   3.446 -0.5107 -0.8466 -0.9540
  192SAPI  C31422305   0.275   1.487   3.432  0.1374 -0.4215 -0.6442
  192SAPI  H14X22306   0.168   1.507   3.457  0.5896  1.1412  0.1839
  192SAPI  H14Y22307   0.294   1.536   3.335 -0.7337  1.2950  0.0090
  192SAPI  C31522308   0.374   1.545   3.539 -0.2997  0.7139  0.3603
  192SAPI  H15X22309   0.478   1.518   3.510 -0.0560  0.3788  1.4983
  192SAPI  H15Y22310   0.345   1.508   3.640  0.0733 -0.3110  0.1032
  192SAPI  C31622311   0.374   1.704   3.559  0.3494 -0.0091 -0.6051
  192SAPI  H16X22312   0.270   1.736   3.581  0.0305 -0.6993 -1.0704
  192SAPI  H16Y22313   0.402   1.734   3.455  0.2161  0.4178 -0.5211
  192SAPI  C31722314   0.465   1.759   3.676 -0.0626  0.1862  0.1573
  192SAPI  H17X22315   0.419   1.731   3.773  1.6259  0.9786  1.2537
  192SAPI  H17Y22316   0.467   1.870   3.675 -0.4297  0.2054  0.8602
  192SAPI  C31822317   0.608   1.697   3.677  1.4168 -0.2151 -0.4651
  192SAPI  H18X22318   0.589   1.592   3.706 -3.2650  0.4700 -0.2949
  192SAPI  H18Y22319   0.670   1.757   3.747 -1.6804  2.8954 -0.0911
  192SAPI  H18Z22320   0.662   1.713   3.580  1.2430 -1.5538 -0.7943
  193SOD    SOD22321   0.726   5.867   6.541 -0.0766 -0.2958  0.2859
  194SOD    SOD22322   5.522   5.824   0.651 -0.0059 -0.5452 -0.6227
  195SOD    SOD22323   1.092   5.042   2.179  0.5036 -0.0898  0.1263
  196SOD    SOD22324   4.613   4.947   1.857  0.5779 -0.5814 -0.2436
  197SOD    SOD22325   1.420   4.371   8.003 -0.3395 -0.0808  0.3335
  198SOD    SOD22326   6.599   4.916   0.894 -0.1250 -0.0260 -0.0535
  199SOD    SOD22327   2.108   0.903   8.136  0.3980 -0.4245 -0.3161
  200SOD    SOD22328   4.861   6.195   6.849  0.0976  0.2417 -0.8538
  201SOD    SOD22329   0.120   2.466   8.452 -0.4134  0.1144 -0.2442
  202SOD    SOD22330   1.442   1.195   1.822 -0.1776 -0.0292  0.3170
  203SOD    SOD22331   4.271   3.859   8.114 -0.3155  0.1817 -0.6873
  204SOD    SOD22332   4.678   3.921   1.725  0.5486 -0.1399 -0.0373
  205SOD    SOD22333   4.346   0.539   1.794  0.0571  0.3212 -0.1430
  206SOD    SOD22334   0.723   4.158   7.066  0.0798  0.3326  0.7062
  207SOD    SOD22335   2.370   2.362   2.442  0.4593  0.2872 -0.0622
  208SOD    SOD22336   6.769   5.650   7.738 -0.1225 -0.6973  0.3415
  209SOD    SOD22337   0.607   2.515   6.938  0.3544  0.3136 -0.4310
  210SOD    SOD22338   6.817   1.568   8.449 -0.5928  0.3674  0.0540
  211SOD    SOD22339   0.660   5.940   1.142 -0.6862 -0.3146 -0.3266
  212SOD    SOD22340   1.020   6.015   7.402 -0.0411 -0.4838  0.0244
  213SOD    SOD22341   1.705   4.865   1.429 -0.4018 -0.6405 -0.2933
  214SOD    SOD22342   2.222   6.668   6.912 -0.0142 -0.0467 -0.0192
  215SOD    SOD22343   4.817   6.542   8.134 -0.1913  0.4964 -0.1027
  216SOD    SOD22344   5.073   1.554   7.360 -0.3953 -0.7944 -0.2378
  217SOD    SOD22345   0.036   3.660   1.648  0.0850  0.6224 -0.3051
  218SOD    SOD22346   1.822   6.355   2.122  0.0461  0.1320  0.2233
  219SOD    SOD22347   1.175   2.495   7.892  0.2300  0.1032  0.0123
  220SOD    SOD22348   2.247   1.970   1.898  0.0129  0.3239  0.1933
  221SOD    SOD22349   5.813   1.091   7.178 -0.1689  0.2267  0.0766
  222SOD    SOD22350   5.707   5.173   7.457  0.2731 -0.2211  0.0043
  223SOD    SOD22351   3.246   1.774   7.185 -0.5628 -0.3535  0.0672
  224SOD    SOD22352   0.604   0.192   0.228  0.0107 -0.2073  0.1647
  225SOD    SOD22353   3.841   3.465   2.581  0.1043 -0.0922  0.1656
  226SOD    SOD22354   3.606   0.756   7.771  0.8030  0.3840 -0.5136
  227SOD    SOD22355   6.455   2.310   6.834  0.5257 -0.2420 -0.2830
  228SOD    SOD22356   4.304   5.688   8.070  0.1002  0.0673  0.0541
  229SOD    SOD22357   6.333   0.969   0.731 -0.5320 -0.7609  0.0095
  230CLA    CLA22358   0.528   2.665   8.745  0.0857 -0.0452 -0.4598
  231CLA    CLA22359   1.943   5.995   1.312  0.0934 -0.0611  0.1105
  232CLA    CLA22360   2.981   5.713   8.813 -0.0401 -0.2306 -0.1502
  233CLA    CLA22361   0.497   0.752   7.304  0.3067 -0.0997 -0.0759
  234CLA    CLA22362   6.135   5.046   0.311 -0.2013  0.5714  0.7340
  235CLA    CLA22363   4.546   4.046   7.741  0.4221 -0.1090 -0.2357
  236CLA    CLA22364   3.151   0.570   8.152  0.0783 -0.0110  0.4479
  237CLA    CLA22365   3.005   4.987   7.477 -0.0532 -0.0127  0.2788
  238CLA    CLA22366   0.467   6.395   1.193  0.0082 -0.2210 -0.1482
  239CLA    CLA22367   3.012   0.550   0.382  0.0284 -0.3625 -0.4565
  240CLA    CLA22368   4.307   6.542   8.547  0.2104 -0.1003  0.3353
  241CLA    CLA22369   3.425   1.179   8.050  0.3111  0.2041 -0.7591
  242CLA    CLA22370   2.807   2.502   1.376  0.3167  0.2255 -0.1201
  243CLA    CLA22371   3.434   3.051   0.779  0.6664  0.3044 -0.2899
  244CLA    CLA22372   6.719   1.160   8.697 -0.3575 -0.1757  0.0628
  245CLA    CLA22373   1.284   4.464   0.409  0.2081 -0.2137 -0.0308
  246CLA    CLA22374   3.355   1.867   1.317 -0.0103 -0.1496 -0.2261
  247TIP3   OH222375   3.092   2.634   0.688  0.4337 -0.3013  0.0334
  247TIP3    H122376   3.042   2.573   0.741  0.6301 -0.3244  0.1943
  247TIP3    H222377   3.153   2.579   0.639 -0.1984 -0.3408 -0.7190
  248TIP3   OH222378   1.577   4.013   0.699  0.7203 -0.0606  0.6815
  248TIP3    H122379   1.647   3.983   0.756  0.0855 -1.6173  0.6966
  248TIP3    H222380   1.496   3.981   0.741  0.2245 -0.9756 -0.8690
  249TIP3   OH222381   2.174   2.401   1.395  0.3302  0.5079  0.1530
  249TIP3    H122382   2.112   2.355   1.453  0.5447  0.5551  0.4240
  249TIP3    H222383   2.143   2.382   1.307 -0.2123  0.7318  0.2918
  250TIP3   OH222384   4.338   6.636   1.064 -0.1512 -0.3632 -0.3129
  250TIP3    H122385   4.268   6.597   1.011 -0.8786  0.3068  0.1272
  250TIP3    H222386   4.376   6.563   1.113 -1.8757 -0.4700  0.9400
  251TIP3   OH222387   4.550   0.173   7.723  0.2913 -0.2578  0.0983
  251TIP3    H122388   4.558   0.106   7.791 -0.2424 -1.3621 -0.8864
  251TIP3    H222389   4.602   0.140   7.650 -1.1686 -0.3723 -0.9554
  252TIP3   OH222390   2.891   3.925   6.660  0.4384 -0.0263  0.2146
  252TIP3    H122391   2.823   3.962   6.604 -0.2205  1.8092  2.1073
  252TIP3    H222392   2.854   3.842   6.691  0.8413 -1.1094 -1.9895
  253TIP3   OH222393   2.170   1.518   0.230 -0.0814 -0.1399  0.3911
  253TIP3    H122394   2.086   1.474   0.219 -0.7063  1.5857 -3.1625
  253TIP3    H222395   2.231   1.469   0.176  0.4681  0.3587  0.5383
  254TIP3   OH222396   5.521   3.461   7.297 -0.0254  0.3356  0.3451
  254TIP3    H122397   5.596   3.515   7.271  0.4291  0.9879  2.7728
  254TIP3    H222398   5.520   3.465   7.392 -2.9407  0.0193  0.4273
  255TIP3   OH222399   5.756   5.437   0.685 -0.3963 -0.4414 -0.2291
  255TIP3    H122400   5.815   5.460   0.613  0.5065  1.9773  1.1840
  255TIP3    H222401   5.671   5.470   0.658  0.0246  0.8410 -0.0684
  256TIP3   OH222402   0.393   0.162   0.306 -0.1420  0.9452 -0.6923
  256TIP3    H122403   0.343   0.241   0.324 -0.9002 -0.0118  1.8699
  256TIP3    H222404   0.331   0.105   0.260 -0.9325  0.4182  0.9462
  257TIP3   OH222405   5.173   6.679   8.296 -0.0524  0.2605 -0.5125
  257TIP3    H122406   5.167   6.601   8.350  0.2055  1.0589  0.7108
  257TIP3    H222407   5.249   6.727   8.331 -0.7082  1.4566 -0.6684
  258TIP3   OH222408   6.730   0.556   7.436 -0.5302  0.2963 -0.0257
  258TIP3    H122409   6.819   0.525   7.448 -0.5506  0.0068 -0.6114
  258TIP3    H222410   6.686   0.537   7.519 -0.1146  0.2215  0.1772
  259TIP3   OH222411   5.182   5.118   1.763  0.4457  0.7117  0.4156
  259TIP3    H122412   5.147   5.059   1.697 -4.5294  1.7522  1.7084
  259TIP3    H222413   5.208   5.061   1.835 -0.4167 -0.1205  0.0809
  260TIP3   OH222414   5.889   1.725   1.222 -0.8217  0.6138 -0.1330
  260TIP3    H122415   5.934   1.671   1.158 -0.1330  0.3360  0.5814
  260TIP3    H222416   5.916   1.815   1.201 -0.0755  0.4657  0.1741
  261TIP3   OH222417   2.836   3.224   0.376  0.5393 -0.3434 -0.5771
  261TIP3    H122418   2.833   3.299   0.435  1.3940 -0.3358 -0.5239
  261TIP3    H222419   2.781   3.158   0.418 -0.6281  0.4042 -0.8696
  262TIP3   OH222420   1.197   5.895   7.503  0.1897 -0.0812 -0.0540
  262TIP3    H122421   1.276   5.912   7.554 -0.3835 -1.3084  1.3090
  262TIP3    H222422   1.213   5.812   7.460  0.1397  0.2988 -0.8146
  263TIP3   OH222423   4.867   5.997   7.053  0.0342  0.1871  0.1713
  263TIP3    H122424   4.805   6.010   7.125  0.4342  0.4082  0.4854
  263TIP3    H222425   4.945   5.960   7.095 -0.3464 -1.3402 -0.4122
  264TIP3   OH222426   5.912   6.208   1.385 -0.0877  0.5567 -0.6756
  264TIP3    H122427   6.007   6.217   1.374 -0.1084 -0.4794 -2.0954
  264TIP3    H222428   5.902   6.134   1.446  0.0093  1.1900  0.1190
  265TIP3   OH222429   5.515   6.503   8.318  0.4178  0.6488 -0.2753
  265TIP3    H122430   5.524   6.444   8.243 -0.7246  1.8953 -1.4598
  265TIP3    H222431   5.544   6.588   8.285 -2.2813  1.7464 -0.1309
  266TIP3   OH222432   6.087   5.338   7.723 -0.5962  0.5648 -0.0015
  266TIP3    H122433   5.998   5.347   7.757  0.5078  1.6663  2.9071
  266TIP3    H222434   6.121   5.259   7.764  0.7784  1.9394  1.7384
  267TIP3   OH222435   4.381   5.256   1.479  0.6495  0.1764  0.3074
  267TIP3    H122436   4.416   5.342   1.457  0.7506 -0.2816 -1.4872
  267TIP3    H222437   4.323   5.234   1.405  0.5032 -1.2231  0.8042
  268TIP3   OH222438   2.742   4.235   2.333  0.1881  0.3164  0.4234
  268TIP3    H122439   2.757   4.148   2.295  2.0942  0.7705  0.0282
  268TIP3    H222440   2.830   4.265   2.358 -0.5002  1.9445  0.9551
  269TIP3   OH222441   0.627   1.093   8.177 -0.0045  0.5069  0.1328
  269TIP3    H122442   0.628   1.026   8.109 -0.2021  0.7204 -0.0781
  269TIP3    H222443   0.561   1.063   8.240  0.9782 -0.2844  0.8279
  270TIP3   OH222444   2.634   2.634   6.916 -0.1925  0.1661  0.0037
  270TIP3    H122445   2.725   2.654   6.894  0.5173 -1.2982  1.4379
  270TIP3    H222446   2.603   2.580   6.843  0.3984 -0.1186 -0.0434
  271TIP3   OH222447   6.112   1.986   1.097 -0.5183  0.4450 -0.3384
  271TIP3    H122448   6.127   1.979   1.003 -0.6803 -3.1811 -0.2248
  271TIP3    H222449   6.198   2.001   1.134 -0.1810  0.0616 -0.9511
  272TIP3   OH222450   5.859   4.712   7.228  0.9120  0.6087 -0.0195
  272TIP3    H122451   5.953   4.714   7.246  0.8941  0.2721  0.1205
  272TIP3    H222452   5.852   4.680   7.138  0.9235  0.3714  0.0622
  273TIP3   OH222453   3.181   6.647   6.836 -0.0081  0.0148 -0.3449
  273TIP3    H122454   3.253   6.690   6.789  0.6393  0.6172  1.1518
  273TIP3    H222455   3.213   6.636   6.925 -1.2390 -1.0505 -0.0058
  274TIP3   OH222456   0.069   5.719   8.572  0.4621 -0.4211  0.1844
  274TIP3    H122457   0.164   5.725   8.584  0.6013 -1.7742 -0.0668
  274TIP3    H222458   0.049   5.627   8.587 -0.7269 -0.2759 -0.3886
  275TIP3   OH222459   1.633   2.278   7.334 -0.1651  0.1661  0.0228
  275TIP3    H122460   1.637   2.366   7.297  1.5368 -0.0891 -0.4756
  275TIP3    H222461   1.700   2.229   7.287  0.2086 -0.8943  1.5805
  276TIP3   OH222462   1.814   6.381   7.608  0.7919  0.4961 -0.1318
  276TIP3    H122463   1.810   6.334   7.691 -0.9206 -2.0268 -1.5220
  276TIP3    H222464   1.868   6.326   7.552  1.7715  2.0720 -0.8093
  277TIP3   OH222465   1.832   2.400   0.214 -0.1051 -0.5878  0.3539
  277TIP3    H122466   1.892   2.426   0.284 -0.8906 -0.2848  0.9305
  277TIP3    H222467   1.766   2.469   0.212 -0.5118 -0.9807 -0.1803
  278TIP3   OH222468   2.433   6.473   1.391 -1.1020 -0.2709  0.2397
  278TIP3    H122469   2.341   6.458   1.414 -0.7437  0.5840  2.4618
  278TIP3    H222470   2.468   6.522   1.465  2.0296 -3.4107  1.0743
  279TIP3   OH222471   5.596   2.142   2.300  0.6116  0.1527 -0.3930
  279TIP3    H122472   5.663   2.131   2.233  1.4559  1.3695  0.2104
  279TIP3    H222473   5.523   2.184   2.253 -0.8066 -3.2769 -1.6157
  280TIP3   OH222474   3.921   4.943   7.600 -0.7856  0.1441 -0.3127
  280TIP3    H122475   3.997   4.892   7.573 -0.5779  0.8493 -1.1099
  280TIP3    H222476   3.861   4.879   7.638 -0.9553 -0.8753 -2.1971
  281TIP3   OH222477   4.752   5.387   7.182 -0.3862 -0.1318  0.2668
  281TIP3    H122478   4.843   5.412   7.194 -0.3452 -0.4400  0.6325
  281TIP3    H222479   4.720   5.442   7.110  0.5558 -1.2181 -1.0161
  282TIP3   OH222480   6.162   3.389   0.919  0.2411 -0.2730 -0.1013
  282TIP3    H122481   6.159   3.323   0.988 -0.5509 -0.6760 -0.4923
  282TIP3    H222482   6.072   3.390   0.884  0.8103 -0.6675 -1.6475
  283TIP3   OH222483   1.381   1.684   7.541 -0.1583 -0.1398 -0.1897
  283TIP3    H122484   1.357   1.592   7.540 -0.5402 -0.0390 -1.0928
  283TIP3    H222485   1.299   1.730   7.524 -0.2243  0.4436  1.4662
  284TIP3   OH222486   3.887   4.514   7.516 -0.2738  0.4371 -0.2459
  284TIP3    H122487   3.931   4.439   7.477  0.9425  0.7150  0.5501
  284TIP3    H222488   3.872   4.574   7.444 -0.7880 -0.3380 -0.7994
  285TIP3   OH222489   0.076   2.504   0.396  0.6647 -0.4024  0.2433
  285TIP3    H122490   0.132   2.443   0.348  1.2667 -1.3918  2.1006
  285TIP3    H222491   0.015   2.447   0.444 -0.9496  0.6085 -0.5407
  286TIP3   OH222492   5.925   2.344   1.518  0.4494  0.2650  0.2407
  286TIP3    H122493   6.017   2.324   1.535 -0.0078 -1.1168  1.2604
  286TIP3    H222494   5.880   2.322   1.599 -0.7294  1.4251 -0.0595
  287TIP3   OH222495   4.038   5.101   0.908  0.3439  0.4604 -0.1732
  287TIP3    H122496   3.988   5.154   0.969 -0.0179 -1.2786  1.1077
  287TIP3    H222497   4.110   5.158   0.880  0.3845  1.3878  1.6880
  288TIP3   OH222498   6.054   6.544   7.603  0.7930  0.3027 -0.1319
  288TIP3    H122499   6.056   6.635   7.572  1.0848 -0.0642 -1.2592
  288TIP3    H222500   5.962   6.518   7.596  0.9514  0.0037 -1.4539
  289TIP3   OH222501   3.720   1.172   1.314  0.3015 -0.4980 -0.2452
  289TIP3    H122502   3.685   1.235   1.377 -0.5691  0.5083 -1.6912
  289TIP3    H222503   3.682   1.088   1.340 -0.0174 -0.1171  0.5660
  290TIP3   OH222504   5.902   1.033   6.939 -0.2200 -0.1227 -0.4005
  290TIP3    H122505   5.941   1.061   6.857 -0.7984  2.6652  0.1860
  290TIP3    H222506   5.831   0.974   6.913  2.4077 -3.0752 -1.5909
  291TIP3   OH222507   2.628   3.124   6.822 -0.4181 -0.1468  0.1799
  291TIP3    H122508   2.684   3.137   6.899 -0.6337  0.9471  0.1652
  291TIP3    H222509   2.649   3.035   6.792  1.0597  0.1119  0.3786
  292TIP3   OH222510   4.286   1.199   7.888  0.4179 -0.2357  0.1727
  292TIP3    H122511   4.302   1.178   7.980 -1.0855 -2.8237 -0.0692
  292TIP3    H222512   4.373   1.220   7.853  1.3298 -1.2558  1.6952
  293TIP3   OH222513   2.043   4.555   0.379 -0.5485  0.0437  0.1184
  293TIP3    H122514   1.966   4.538   0.432 -1.6798  0.5657 -1.2986
  293TIP3    H222515   2.052   4.478   0.323 -1.4643  0.9715 -1.3528
  294TIP3   OH222516   1.323   6.511   0.519 -0.1246  0.7216  0.2204
  294TIP3    H122517   1.251   6.573   0.519  0.3479  1.3007 -1.2636
  294TIP3    H222518   1.297   6.444   0.583 -0.7145  2.3195  1.7473
  295TIP3   OH222519   2.521   4.436   7.498 -0.2761  0.2609  0.1449
  295TIP3    H122520   2.452   4.450   7.434 -1.0457  0.5289  1.0091
  295TIP3    H222521   2.479   4.453   7.582  0.7995  0.2520  0.6983
  296TIP3   OH222522   1.236   5.052   7.347 -0.0908 -0.1051  0.1348
  296TIP3    H122523   1.278   5.057   7.433  0.0927 -0.2649  0.0531
  296TIP3    H222524   1.161   5.112   7.354  0.6697  0.8923 -0.0222
  297TIP3   OH222525   5.690   4.605   1.229  0.0514  0.3744  0.0670
  297TIP3    H122526   5.711   4.637   1.141  0.2428  1.2789  0.4305
  297TIP3    H222527   5.618   4.660   1.258 -0.1890 -0.0982  0.3762
  298TIP3   OH222528   2.908   0.436   7.754 -0.6505 -0.3578  0.7561
  298TIP3    H122529   2.995   0.469   7.774 -0.8679  0.3356  0.5770
  298TIP3    H222530   2.915   0.396   7.668 -0.9917  1.6307 -0.2442
  299TIP3   OH222531   5.910   5.290   0.223 -0.1733  0.3207  0.3559
  299TIP3    H122532   5.975   5.227   0.254 -0.7444  0.4082  1.8292
  299TIP3    H222533   5.826   5.245   0.235 -0.4243  0.1687 -1.6100
  300TIP3   OH222534   6.185   1.169   7.954  0.2686 -0.2206 -0.1598
  300TIP3    H122535   6.193   1.257   7.990 -1.2234 -0.2419  0.3024
  300TIP3    H222536   6.095   1.143   7.973 -0.1397 -0.8338 -2.5681
  301TIP3   OH222537   6.777   1.052   0.699  0.2360 -0.6940  0.1651
  301TIP3    H122538   6.792   1.137   0.657 -0.1747 -0.5458  0.3173
  301TIP3    H222539   6.745   1.075   0.787  0.8528 -1.0003  0.4813
  302TIP3   OH222540   3.499   5.703   0.889  0.1072  0.3792 -0.4385
  302TIP3    H122541   3.567   5.740   0.946  1.3568 -1.1441 -0.8726
  302TIP3    H222542   3.433   5.772   0.883  1.4537  1.7968  0.2642
  303TIP3   OH222543   6.088   3.379   8.527 -0.3531 -0.0940 -0.3889
  303TIP3    H122544   6.180   3.368   8.503 -0.0536  2.0661 -0.4429
  303TIP3    H222545   6.089   3.391   8.622 -0.8018 -1.7503 -0.1415
  304TIP3   OH222546   1.605   2.098   1.769  0.6025  0.0706  0.0180
  304TIP3    H122547   1.633   2.169   1.711  2.5348 -0.0189  0.7366
  304TIP3    H222548   1.584   2.142   1.852  0.1682 -0.0312 -0.0375
  305TIP3   OH222549   0.067   5.308   8.076 -0.2943 -0.4099  0.3745
  305TIP3    H122550   0.158   5.298   8.046 -0.4045  0.1246 -0.1533
  305TIP3    H222551   0.030   5.220   8.069 -0.0983 -0.4460 -0.3605
  306TIP3   OH222552   0.239   4.565   6.920 -0.9475  0.0053  0.1945
  306TIP3    H122553   0.225   4.527   7.007 -0.1063  0.0202  0.3394
  306TIP3    H222554   0.330   4.545   6.899 -0.3919  2.0810  0.3700
  307TIP3   OH222555   3.126   4.876   0.666 -0.4362  0.2981 -0.1590
  307TIP3    H122556   3.064   4.815   0.625 -1.2394  0.3664  0.9123
  307TIP3    H222557   3.100   4.878   0.758  0.2424  1.4620  0.0223
  308TIP3   OH222558   1.143   4.318   7.053  0.2143 -0.2410  0.0753
  308TIP3    H122559   1.133   4.252   7.121  0.3221 -0.9619 -0.5924
  308TIP3    H222560   1.070   4.303   6.993  1.9040 -1.7997 -1.7456
  309TIP3   OH222561   4.515   0.224   1.990  0.3031  0.1402  0.4986
  309TIP3    H122562   4.549   0.136   1.975 -0.2983 -0.1252  0.6666
  309TIP3    H222563   4.575   0.263   2.054  1.8544  0.6483 -1.1592
  310TIP3   OH222564   1.002   1.241   0.360  0.1415  0.3448 -0.0682
  310TIP3    H122565   1.088   1.281   0.371  0.0185  0.3279  1.0990
  310TIP3    H222566   1.019   1.155   0.323  0.7597 -0.2279  1.4790
  311TIP3   OH222567   6.245   1.757   0.268  0.6621  1.1577 -0.6448
  311TIP3    H122568   6.253   1.673   0.312  1.6241 -0.2572 -3.2973
  311TIP3    H222569   6.156   1.758   0.234  1.0997  0.5356 -1.8363
  312TIP3   OH222570   6.568   6.381   8.098 -0.6625 -0.2698 -0.5617
  312TIP3    H122571   6.628   6.406   8.028  1.4724  1.5691  1.7178
  312TIP3    H222572   6.481   6.397   8.063  0.3498  1.2629 -2.5469
  313TIP3   OH222573   3.261   1.813   6.956  0.6017 -0.1803 -0.3445
  313TIP3    H122574   3.172   1.843   6.940  0.4408 -0.6083 -0.2495
  313TIP3    H222575   3.316   1.871   6.903  0.2437 -0.1326 -0.6658
  314TIP3   OH222576   0.147   5.907   8.278 -0.0675 -0.0222 -0.3183
  314TIP3    H122577   0.205   5.832   8.293 -0.2514 -0.3217 -1.0423
  314TIP3    H222578   0.194   5.981   8.316 -0.8137 -0.7950  2.2910
  315TIP3   OH222579   6.665   3.702   7.588 -0.2881  0.8087  0.1569
  315TIP3    H122580   6.718   3.638   7.541 -0.0066  0.3969  1.0107
  315TIP3    H222581   6.709   3.712   7.673 -1.2791  0.8463  0.6869
  316TIP3   OH222582   3.610   5.764   7.878  0.0389  0.2557 -0.2471
  316TIP3    H122583   3.570   5.683   7.847 -1.6383  1.0940 -0.3902
  316TIP3    H222584   3.599   5.761   7.974  3.6829 -1.5356  0.2700
  317TIP3   OH222585   6.508   2.919   2.310 -1.3548  0.1172  0.0965
  317TIP3    H122586   6.541   2.842   2.357 -0.1747  0.2527 -0.4827
  317TIP3    H222587   6.510   2.894   2.218  1.4422  1.6221 -0.3634
  318TIP3   OH222588   4.666   4.098   2.368 -0.1349 -0.0024  0.4201
  318TIP3    H122589   4.641   4.168   2.307  2.1964  0.0981 -0.4998
  318TIP3    H222590   4.672   4.141   2.453  0.1877  0.6826  0.0585
  319TIP3   OH222591   2.264   2.184   2.313  0.3549 -0.1439 -0.7503
  319TIP3    H122592   2.176   2.202   2.280 -0.1319  0.2902  0.7388
  319TIP3    H222593   2.251   2.118   2.381  1.1036  0.3478 -0.1194
  320TIP3   OH222594   0.675   1.931   1.377 -0.0510  0.2970 -0.2335
  320TIP3    H122595   0.632   1.967   1.454  0.8761  0.4365  0.2404
  320TIP3    H222596   0.769   1.933   1.399  0.2049  0.0494 -1.2368
  321TIP3   OH222597   1.072   4.483   0.960 -0.2615 -0.0078  0.3473
  321TIP3    H122598   1.113   4.402   0.928 -1.6576 -0.1241 -1.3163
  321TIP3    H222599   0.978   4.466   0.952 -0.5825  1.5166  0.6963
  322TIP3   OH222600   3.430   3.009   8.143  0.3082  0.0050  0.6707
  322TIP3    H122601   3.348   2.985   8.187  0.9077 -0.6371  1.4834
  322TIP3    H222602   3.414   3.097   8.109 -0.9943 -0.4304  0.0899
  323TIP3   OH222603   6.032   5.145   7.224 -0.0672 -0.6051 -0.1212
  323TIP3    H122604   6.005   5.087   7.296 -2.1100  0.5043  0.0912
  323TIP3    H222605   6.091   5.208   7.265 -2.9451  1.4200  1.2495
  324TIP3   OH222606   0.281   0.082   2.358 -0.2862 -0.0176  0.1536
  324TIP3    H122607   0.194   0.121   2.346 -1.1535 -0.8799  2.9082
  324TIP3    H222608   0.332   0.114   2.283 -2.1665  2.7555 -0.1029
  325TIP3   OH222609   3.622   6.704   7.867  0.5610  0.6519  0.3472
  325TIP3    H122610   3.533   6.732   7.886  0.6235 -0.1377  1.9518
  325TIP3    H222611   3.676   6.751   7.931  1.2527  0.7906 -0.3210
  326TIP3   OH222612   2.094   5.258   8.012  0.3146  0.4618 -0.0505
  326TIP3    H122613   2.038   5.266   8.089 -1.0770 -0.5655 -0.9005
  326TIP3    H222614   2.183   5.251   8.048  0.1381  3.4939  1.2886
  327TIP3   OH222615   3.985   4.096   0.141 -0.1144 -0.3004  0.4679
  327TIP3    H122616   3.995   4.182   0.099  0.6195 -1.1774 -1.2238
  327TIP3    H222617   3.891   4.078   0.136 -0.3588  0.6167  1.3353
  328TIP3   OH222618   5.079   6.340   0.858 -0.3683 -0.3613  0.2874
  328TIP3    H122619   5.119   6.268   0.809  1.0991  0.7654 -0.2239
  328TIP3    H222620   4.994   6.305   0.886 -0.8231 -1.4190 -2.1526
  329TIP3   OH222621   6.231   0.475   0.913  0.4768 -0.1302 -0.0626
  329TIP3    H122622   6.229   0.402   0.975 -1.5817  0.1570  0.2768
  329TIP3    H222623   6.139   0.500   0.902  0.9312  0.8926 -1.9877
  330TIP3   OH222624   2.034   3.907   1.376  0.3940 -0.4245 -0.5908
  330TIP3    H122625   1.939   3.896   1.372  0.4918 -0.9968 -2.1316
  330TIP3    H222626   2.061   3.858   1.453 -0.3106 -2.3904 -1.5384
  331TIP3   OH222627   0.218   6.013   0.819  0.5966  0.0629 -0.5920
  331TIP3    H122628   0.303   6.017   0.776  1.8519 -0.1940  1.7444
  331TIP3    H222629   0.228   5.949   0.889 -0.5554  2.1455  1.6486
  332TIP3   OH222630   1.111   3.986   6.951 -0.4917  0.3493 -0.3328
  332TIP3    H122631   1.154   3.901   6.940 -3.5483 -1.4617  0.4353
  332TIP3    H222632   1.079   4.008   6.863 -0.0813  0.4802 -0.4499
  333TIP3   OH222633   2.755   4.757   8.238  0.2229 -0.2000  0.4126
  333TIP3    H122634   2.805   4.697   8.183 -2.2429  0.7218 -3.1908
  333TIP3    H222635   2.680   4.706   8.267 -1.3317  0.6799 -1.7949
  334TIP3   OH222636   5.228   5.291   0.534 -0.0678 -0.5062  0.2962
  334TIP3    H122637   5.204   5.269   0.445  1.8505 -0.1301 -0.3635
  334TIP3    H222638   5.226   5.208   0.581  1.3748 -1.1800 -0.7460
  335TIP3   OH222639   5.301   5.760   1.931  0.0104 -0.1900  0.3043
  335TIP3    H122640   5.369   5.781   1.867  0.3930 -0.1951  0.6999
  335TIP3    H222641   5.294   5.840   1.985  2.3540 -1.3752  2.6175
  336TIP3   OH222642   0.196   3.493   8.639  0.7971  0.0966  0.2168
  336TIP3    H122643   0.111   3.536   8.648  0.3452 -0.2124 -1.9019
  336TIP3    H222644   0.211   3.450   8.723 -1.4622 -0.3767  0.4450
  337TIP3   OH222645   3.774   5.502   6.870 -0.4598 -0.1167  0.2663
  337TIP3    H122646   3.836   5.517   6.799  0.3493 -1.1661  0.7189
  337TIP3    H222647   3.828   5.495   6.948 -1.1252 -1.1898  0.6538
  338TIP3   OH222648   6.043   4.312   7.603  0.0280 -0.4319 -1.2270
  338TIP3    H122649   6.069   4.266   7.683  0.7834  4.0020  1.4283
  338TIP3    H222650   6.119   4.302   7.545  1.9676  0.7555  0.9148
  339TIP3   OH222651   6.736   3.050   0.892  0.5303  0.5133 -0.4664
  339TIP3    H122652   6.740   3.039   0.987  1.3661  2.4202 -0.2568
  339TIP3    H222653   6.765   2.965   0.857 -0.1979 -0.3577  0.9420
  340TIP3   OH222654   4.537   1.790   8.376 -0.8457 -0.2218 -0.2796
  340TIP3    H122655   4.479   1.865   8.361  0.6971  1.1243  0.2566
  340TIP3    H222656   4.495   1.742   8.447 -0.3120  1.8847  1.5741
  341TIP3   OH222657   5.000   4.760   6.911 -0.2338 -0.0051  0.0809
  341TIP3    H122658   4.924   4.817   6.899  0.0796  0.2531 -0.6955
  341TIP3    H222659   4.985   4.687   6.850 -0.3069 -0.4315  0.5938
  342TIP3   OH222660   3.669   2.986   8.233 -0.3589  0.0691  0.6154
  342TIP3    H122661   3.661   2.903   8.279  0.6301 -0.6334 -0.4404
  342TIP3    H222662   3.580   3.010   8.210 -0.5479 -1.5601 -0.5315
  343TIP3   OH222663   5.770   2.369   7.395 -0.1924 -0.0040  0.6845
  343TIP3    H122664   5.743   2.438   7.455 -0.4819  0.5150 -0.0231
  343TIP3    H222665   5.692   2.315   7.382 -0.4629  0.5728 -0.1322
  344TIP3   OH222666   6.509   5.837   0.343 -0.3383 -0.3667  0.0950
  344TIP3    H122667   6.543   5.857   0.256  1.0699  0.5935  0.8189
  344TIP3    H222668   6.554   5.899   0.401 -0.6801 -1.4734  1.6115
  345TIP3   OH222669   0.917   5.638   8.241 -0.4610  0.4098 -0.0454
  345TIP3    H122670   0.942   5.602   8.156 -1.1905  0.8004 -0.4336
  345TIP3    H222671   0.877   5.722   8.221 -1.5833  0.0469  0.5992
  346TIP3   OH222672   2.875   4.555   8.065 -0.1725 -0.2814  0.1856
  346TIP3    H122673   2.912   4.473   8.032 -0.9109 -0.0383 -1.3674
  346TIP3    H222674   2.906   4.622   8.003  1.6553  0.9079  2.2497
  347TIP3   OH222675   2.121   4.615   1.320  0.9210 -0.4529  0.4500
  347TIP3    H122676   2.122   4.579   1.231 -0.6131 -0.2649  0.3231
  347TIP3    H222677   2.065   4.555   1.370  1.9410 -0.6738  1.3540
  348TIP3   OH222678   6.479   0.587   8.210 -0.5067 -0.3243 -0.2769
  348TIP3    H122679   6.400   0.631   8.178  0.0603  0.8041 -0.1708
  348TIP3    H222680   6.551   0.639   8.176  0.1633 -0.5502  0.7519
  349TIP3   OH222681   0.186   2.603   8.048  0.8636 -0.7571  0.0460
  349TIP3    H122682   0.279   2.604   8.071  0.4957  0.0389  1.6284
  349TIP3    H222683   0.181   2.546   7.971  2.8246  0.1949 -0.8521
  350TIP3   OH222684   3.340   3.298   8.638 -0.0853 -0.2342  0.1188
  350TIP3    H122685   3.270   3.296   8.703 -1.3954 -0.9203 -1.2474
  350TIP3    H222686   3.295   3.287   8.554  1.6508 -0.4339 -0.8310
  351TIP3   OH222687   4.503   0.963   7.215 -0.4708  0.6719 -0.6847
  351TIP3    H122688   4.416   0.938   7.244  0.7386 -1.5542  1.4132
  351TIP3    H222689   4.531   0.893   7.156  0.6087  0.2623  0.2669
  352TIP3   OH222690   2.443   2.029   7.205  0.5799  0.4643  0.2902
  352TIP3    H122691   2.498   1.958   7.241 -0.0002  0.2421  0.7577
  352TIP3    H222692   2.426   2.003   7.114 -0.9955 -0.8685  0.9124
  353TIP3   OH222693   6.641   4.259   0.031 -0.3556 -0.0183 -0.1939
  353TIP3    H122694   6.602   4.282   0.115 -0.5096 -1.0675  0.0377
  353TIP3    H222695   6.693   4.180   0.050  0.5084  0.3772 -0.8492
  354TIP3   OH222696   0.708   4.128   1.866 -0.0871  0.3399 -0.1939
  354TIP3    H122697   0.633   4.086   1.907  0.6410 -0.7425  0.0599
  354TIP3    H222698   0.781   4.108   1.924  0.3819  1.5116 -0.3531
  355TIP3   OH222699   4.691   2.787   1.450 -0.2000  0.0598  0.0650
  355TIP3    H122700   4.658   2.844   1.381 -0.7397  0.1907  0.4209
  355TIP3    H222701   4.688   2.699   1.413 -0.9111  0.0772  0.0778
  356TIP3   OH222702   1.771   3.293   8.717  0.1698  0.2271  0.5996
  356TIP3    H122703   1.741   3.247   8.796 -3.4910 -0.3328 -0.9149
  356TIP3    H222704   1.752   3.386   8.735 -0.1602  0.1596  0.6139
  357TIP3   OH222705   1.149   4.668   0.243  0.5485 -0.2320 -0.0117
  357TIP3    H122706   1.221   4.731   0.239 -0.7802  1.3604  0.3377
  357TIP3    H222707   1.188   4.591   0.285  2.4364 -0.0077 -1.2216
  358TIP3   OH222708   2.534   1.819   2.257  0.0100 -0.5088  0.1251
  358TIP3    H122709   2.552   1.734   2.216 -1.4471 -0.5223 -0.5256
  358TIP3    H222710   2.594   1.880   2.214  1.1988 -1.2167  0.7269
  359TIP3   OH222711   4.205   3.058   1.483 -0.2838  0.3048  0.2587
  359TIP3    H122712   4.169   3.015   1.561  1.0851 -0.6087  0.4219
  359TIP3    H222713   4.267   3.122   1.517  1.6821 -1.3350 -0.0450
  360TIP3   OH222714   4.893   6.083   7.946  0.0877  0.0242  0.1342
  360TIP3    H122715   4.969   6.068   7.891  0.1162  1.0539 -0.1146
  360TIP3    H222716   4.886   6.003   7.999 -1.2421 -1.9980 -2.8281
  361TIP3   OH222717   2.792   4.428   7.382 -0.0039  0.3722 -0.0772
  361TIP3    H122718   2.823   4.405   7.470 -0.0872  1.4894  0.2585
  361TIP3    H222719   2.723   4.364   7.364  0.6076 -0.4076  0.3071
  362TIP3   OH222720   6.726   1.012   1.204 -0.0139  0.5930  0.1403
  362TIP3    H122721   6.709   1.103   1.228 -1.3014  0.1761  0.9274
  362TIP3    H222722   6.674   0.960   1.266  0.8773 -0.6954 -0.1338
  363TIP3   OH222723   4.985   4.961   7.275 -0.3158 -0.4949  0.1222
  363TIP3    H122724   4.912   4.987   7.219  0.9645  1.3546 -0.7860
  363TIP3    H222725   4.947   4.899   7.337 -2.6001  0.2698 -0.4361
  364TIP3   OH222726   2.228   2.151   7.292  0.4817 -0.4542 -0.6967
  364TIP3    H122727   2.169   2.081   7.264  0.9322 -0.9290 -0.4730
  364TIP3    H222728   2.301   2.146   7.231 -0.3053  1.0009 -1.8213
  365TIP3   OH222729   2.489   3.026   0.887 -0.3835  0.1528  0.0289
  365TIP3    H122730   2.554   3.095   0.883 -0.0416 -0.2047 -0.9998
  365TIP3    H222731   2.409   3.069   0.918 -0.0704  0.9199 -0.2174
  366TIP3   OH222732   1.549   5.582   0.938  0.2353 -0.7579  0.5184
  366TIP3    H122733   1.578   5.610   0.851 -2.1772 -0.8023 -0.3945
  366TIP3    H222734   1.508   5.659   0.976 -0.3384 -1.2177  0.8527
  367TIP3   OH222735   0.629   6.372   7.181  0.2940  0.3688 -0.1166
  367TIP3    H122736   0.581   6.450   7.209 -1.9388 -0.4407 -1.4102
  367TIP3    H222737   0.679   6.400   7.105 -2.6325  0.0879 -2.3373
  368TIP3   OH222738   5.844   4.415   7.367 -0.0737 -0.6321 -0.4790
  368TIP3    H122739   5.760   4.371   7.379 -1.4711  1.6112 -1.4418
  368TIP3    H222740   5.831   4.501   7.407  1.0201  0.5295 -2.4947
  369TIP3   OH222741   5.458   1.822   6.876 -0.0969 -0.2431  0.7744
  369TIP3    H122742   5.544   1.787   6.854  1.5149  3.2690  0.8887
  369TIP3    H222743   5.425   1.857   6.793  0.6301  2.2920  1.4722
  370TIP3   OH222744   0.490   3.856   7.389 -0.1063  0.6365  0.7833
  370TIP3    H122745   0.400   3.825   7.387 -0.3546  1.2375 -1.9197
  370TIP3    H222746   0.542   3.779   7.412 -1.0526 -0.7074 -1.2914
  371TIP3   OH222747   3.293   3.155   1.284 -0.5337  0.3105 -0.2689
  371TIP3    H122748   3.223   3.156   1.219 -0.8170 -1.7277 -0.0423
  371TIP3    H222749   3.302   3.063   1.309  1.2443  0.7170  0.7772
  372TIP3   OH222750   3.656   1.328   7.930  0.1152 -0.2656  0.2138
  372TIP3    H122751   3.591   1.305   7.997 -0.0874 -0.1231  0.0645
  372TIP3    H222752   3.611   1.314   7.847  0.1229  0.2774  0.1140
  373TIP3   OH222753   6.782   2.410   6.516  0.3897  0.1829 -0.2522
  373TIP3    H122754   6.869   2.373   6.503  0.9854  1.0134  1.1520
  373TIP3    H222755   6.766   2.464   6.439  1.7223  1.1116  0.0856
  374TIP3   OH222756   3.772   4.968   8.462 -0.2538 -0.6788 -0.5346
  374TIP3    H122757   3.760   4.990   8.370  1.3306  0.3971 -0.5166
  374TIP3    H222758   3.682   4.960   8.496 -0.9797  2.3096 -1.3983
  375TIP3   OH222759   4.185   1.992   8.666  0.2481  0.0661  0.2889
  375TIP3    H122760   4.137   1.918   8.629  0.6544  0.4548 -1.0486
  375TIP3    H222761   4.135   2.069   8.640  1.1540  0.4247 -0.4390
  376TIP3   OH222762   0.413   3.359   7.738 -0.3377  0.4095  0.1331
  376TIP3    H122763   0.369   3.442   7.723 -1.3384 -0.0395  0.5213
  376TIP3    H222764   0.345   3.292   7.725  1.0865 -0.6013 -3.2798
  377TIP3   OH222765   6.044   4.591   0.121  0.4062 -0.2461 -1.0481
  377TIP3    H122766   6.113   4.594   0.187 -0.5929  0.6932 -0.0157
  377TIP3    H222767   6.020   4.499   0.116  0.0876 -0.2579  0.3557
  378TIP3   OH222768   5.404   1.074   7.683  0.1623  0.5513 -0.3919
  378TIP3    H122769   5.443   1.004   7.630  5.5199  1.5068  1.7273
  378TIP3    H222770   5.397   1.037   7.771 -2.3521  1.0484 -0.3171
  379TIP3   OH222771   4.604   3.653   7.467 -0.0932 -0.4931 -0.0569
  379TIP3    H122772   4.664   3.728   7.461  1.6915 -1.9305 -1.2196
  379TIP3    H222773   4.612   3.610   7.382 -3.4470 -0.3337 -0.5633
  380TIP3   OH222774   5.018   4.091   7.747 -0.6671  0.6013 -0.4564
  380TIP3    H122775   5.097   4.057   7.790 -2.8128 -0.6848  2.9351
  380TIP3    H222776   5.012   4.182   7.777 -0.3479  0.7994 -0.9769
  381TIP3   OH222777   0.744   2.350   8.428  0.1221 -0.0253  0.1298
  381TIP3    H122778   0.663   2.340   8.477 -0.2033  0.8465 -0.2165
  381TIP3    H222779   0.760   2.445   8.425  0.5028 -0.1035 -0.8359
  382TIP3   OH222780   0.011   0.485   2.186 -0.4430 -0.2034 -0.7087
  382TIP3    H122781  -0.046   0.516   2.116  1.4202  0.1165 -2.1577
  382TIP3    H222782   0.100   0.499   2.153  0.5443  0.4881  1.9512
  383TIP3   OH222783   6.666   1.623   7.063  0.0223  0.5680 -0.6492
  383TIP3    H122784   6.676   1.613   6.968  0.8053 -3.0352 -0.3273
  383TIP3    H222785   6.749   1.593   7.099 -1.7159 -2.6094  1.2080
  384TIP3   OH222786   6.361   4.335   7.123  0.1853  0.3064 -0.1771
  384TIP3    H122787   6.390   4.274   7.191 -3.2138 -0.7495  0.5018
  384TIP3    H222788   6.356   4.281   7.044 -3.5014 -0.7633  0.5651
  385TIP3   OH222789   5.261   0.835   8.231  0.5520  0.1984  0.6973
  385TIP3    H122790   5.247   0.914   8.178  1.6609 -0.2410 -0.2991
  385TIP3    H222791   5.340   0.796   8.195  1.1316 -0.3393  2.4579
  386TIP3   OH222792   1.595   6.454   2.136 -0.5904  0.4366 -0.4153
  386TIP3    H122793   1.621   6.544   2.153 -0.0886  0.1528  0.3712
  386TIP3    H222794   1.501   6.452   2.152 -0.7320  0.9684 -1.1199
  387TIP3   OH222795   2.497   1.647   8.123  0.1474 -0.4978 -0.7200
  387TIP3    H122796   2.428   1.640   8.058 -0.8784 -0.2767  0.3142
  387TIP3    H222797   2.576   1.663   8.072 -0.5396 -0.8072 -1.9330
  388TIP3   OH222798   3.062   6.623   8.271  0.1982  0.0874 -0.3674
  388TIP3    H122799   2.993   6.610   8.335  0.4182 -0.2351 -0.1915
  388TIP3    H222800   3.043   6.708   8.231 -0.5089 -0.1620 -0.5826
  389TIP3   OH222801   5.994   1.006   7.282 -0.3829  0.2046  0.1566
  389TIP3    H122802   5.999   1.028   7.375 -0.6825  1.4588 -0.1052
  389TIP3    H222803   6.082   0.975   7.259 -1.0216 -2.9698  1.4956
  390TIP3   OH222804   2.612   6.245   1.523  0.3913 -0.1672 -0.2996
  390TIP3    H122805   2.621   6.331   1.482 -1.0977 -0.9157 -2.3577
  390TIP3    H222806   2.635   6.260   1.615  0.5026  2.3419 -0.6650
  391TIP3   OH222807   6.158   2.510   1.787 -0.2557 -0.5818 -0.4332
  391TIP3    H122808   6.206   2.551   1.859 -0.2891  0.4730 -0.9905
  391TIP3    H222809   6.093   2.454   1.830 -1.7102  1.6652  0.4424
  392TIP3   OH222810   0.097   3.093   8.260 -0.1659 -0.5103  0.2968
  392TIP3    H122811   0.089   3.174   8.311 -1.4417 -0.6172  0.2941
  392TIP3    H222812   0.010   3.054   8.262  0.5699 -2.2492  0.8539
  393TIP3   OH222813   1.043   3.641   7.532  0.2219  0.5007  0.2692
  393TIP3    H122814   1.116   3.702   7.544 -0.8877  1.5217  2.3928
  393TIP3    H222815   0.971   3.697   7.502 -0.8964  0.3452  2.5116
  394TIP3   OH222816   4.812   3.785   7.045  0.2671 -0.3559 -0.0859
  394TIP3    H122817   4.895   3.832   7.053 -0.1580  0.1694  1.6593
  394TIP3    H222818   4.834   3.694   7.067  0.0350  0.1854  2.7495
  395TIP3   OH222819   5.707   6.285   2.247 -0.1947 -0.1189  0.4390
  395TIP3    H122820   5.616   6.309   2.268 -0.5614 -0.7551 -0.3520
  395TIP3    H222821   5.701   6.195   2.215  0.6765 -0.0495  0.0537
  396TIP3   OH222822   0.565   5.714   7.503 -0.0653 -0.2328 -0.3137
  396TIP3    H122823   0.581   5.755   7.418  0.0940 -0.4732 -0.3997
  396TIP3    H222824   0.471   5.725   7.518  0.0435  0.5257 -0.1495
  397TIP3   OH222825   6.149   4.876   1.317 -0.3959  0.1966  0.3161
  397TIP3    H122826   6.122   4.959   1.357 -2.1878 -0.4044  0.4338
  397TIP3    H222827   6.102   4.809   1.366  0.3969 -0.8469 -0.3091
  398TIP3   OH222828   2.568   4.570   8.354  0.2894  0.7815 -0.1181
  398TIP3    H122829   2.627   4.495   8.352  1.3352  1.6029 -1.0609
  398TIP3    H222830   2.555   4.588   8.447  0.3462 -0.3020  0.1107
  399TIP3   OH222831   6.698   0.500   7.150 -0.7466 -0.7852  0.0448
  399TIP3    H122832   6.734   0.509   7.238  2.5294  0.1354 -1.2532
  399TIP3    H222833   6.607   0.531   7.158 -0.8741 -1.7196  3.2357
  400TIP3   OH222834   6.353   6.371   1.649  0.6847 -0.1934 -0.1717
  400TIP3    H122835   6.305   6.349   1.729  1.2435 -2.2755 -0.3481
  400TIP3    H222836   6.430   6.419   1.681 -0.1243  0.8177  0.3315
  401TIP3   OH222837   2.960   5.505   7.680  0.3456  0.0633 -0.0082
  401TIP3    H122838   2.941   5.414   7.657 -3.3078  0.7040 -0.1527
  401TIP3    H222839   3.012   5.538   7.606  0.6570 -1.5507 -0.5443
  402TIP3   OH222840   6.567   6.529   8.326 -0.2398  0.4173 -0.1730
  402TIP3    H122841   6.481   6.499   8.356  0.4872  1.0341  2.8240
  402TIP3    H222842   6.587   6.472   8.251 -3.1491  0.1734 -0.9089
  403TIP3   OH222843   5.091   4.232   7.069  0.2147 -0.2018  0.2889
  403TIP3    H122844   5.052   4.313   7.036  2.2174  1.2517  1.3463
  403TIP3    H222845   5.145   4.200   6.997 -0.9590 -0.9209 -0.3079
  404TIP3   OH222846   1.030   0.592   7.897 -0.5799  0.0672 -0.6798
  404TIP3    H122847   1.079   0.569   7.976  1.3184  0.4185 -1.6898
  404TIP3    H222848   1.029   0.511   7.846 -0.4864  0.2251 -0.9345
  405TIP3   OH222849   0.281   5.215   8.663 -0.3011 -0.4752  0.9131
  405TIP3    H122850   0.293   5.249   8.574  0.7186 -1.7446  0.5201
  405TIP3    H222851   0.213   5.148   8.653 -0.7150 -0.1022  1.2355
  406TIP3   OH222852   4.546   3.381   7.562  0.0859 -0.5783  0.5683
  406TIP3    H122853   4.567   3.473   7.580  2.3312 -1.1355  1.1111
  406TIP3    H222854   4.470   3.363   7.618  1.1928  0.2947  2.4710
  407TIP3   OH222855   2.959   0.290   7.507  0.0070  0.1797 -0.1790
  407TIP3    H122856   3.007   0.371   7.489  2.1795 -0.9140  0.3444
  407TIP3    H222857   2.934   0.257   7.421  1.6461 -0.0291 -0.6008
  408TIP3   OH222858   4.163   5.672   0.818  0.2357  0.2801 -0.1087
  408TIP3    H122859   4.129   5.602   0.763 -0.3502 -0.9665  1.7595
  408TIP3    H222860   4.237   5.708   0.768  0.8882 -2.0010 -0.8880
  409TIP3   OH222861   1.244   4.701   0.913  0.0449  0.2410 -0.6180
  409TIP3    H122862   1.194   4.620   0.923 -0.8312  0.9038  0.4548
  409TIP3    H222863   1.239   4.720   0.819 -0.0196 -0.7464 -0.8355
  410TIP3   OH222864   1.418   2.917   2.300  0.3612  0.4495  0.2618
  410TIP3    H122865   1.488   2.937   2.363  0.1867  0.0268  0.6035
  410TIP3    H222866   1.352   2.984   2.315  0.9224  1.1645 -0.4317
  411TIP3   OH222867   1.608   0.943   2.033  0.6038  0.5580  0.7203
  411TIP3    H122868   1.542   0.966   1.967 -2.2274 -2.1413  2.3304
  411TIP3    H222869   1.669   0.886   1.987 -0.0375  0.4898 -0.0734
  412TIP3   OH222870   3.946   5.788   7.030  0.0076  0.1144 -0.1174
  412TIP3    H122871   4.000   5.749   6.961  0.9260 -1.3144  1.3386
  412TIP3    H222872   3.905   5.864   6.988  1.6120  0.1133 -1.8439
  413TIP3   OH222873   3.812   6.792   1.972  0.2389 -0.1536 -0.2680
  413TIP3    H122874   3.750   6.720   1.968  0.1626 -0.0382 -2.0527
  413TIP3    H222875   3.762   6.869   1.944  0.4063  0.5516  1.2720
  414TIP3   OH222876   2.032   0.168   1.376 -0.2306 -0.1455 -0.4137
  414TIP3    H122877   2.091   0.097   1.400  0.4376  0.7879  0.8248
  414TIP3    H222878   1.948   0.144   1.416  0.6496  0.9678  2.3793
  415TIP3   OH222879   4.261   3.538   0.993 -0.1390  0.2341  0.3914
  415TIP3    H122880   4.166   3.546   0.994 -0.1864  0.5794 -1.6872
  415TIP3    H222881   4.278   3.447   0.969  0.0797  0.0260  1.3029
  416TIP3   OH222882   1.469   1.538   1.608  0.7523 -0.0015  0.7761
  416TIP3    H122883   1.469   1.596   1.684 -0.0209 -0.5440  1.1985
  416TIP3    H222884   1.407   1.469   1.630  1.1029 -0.5927 -0.0279
  417TIP3   OH222885   0.073   6.770   7.579 -0.0915 -0.3895  0.6495
  417TIP3    H122886   0.147   6.721   7.543 -0.3230 -1.0078  1.0099
  417TIP3    H222887   0.095   6.785   7.671  0.0092  0.2575  0.5309
  418TIP3   OH222888   5.995   0.140   8.809  0.2001  0.1337  0.1235
  418TIP3    H122889   6.080   0.151   8.851  0.4719 -1.6706  0.1096
  418TIP3    H222890   5.955   0.066   8.855 -0.6383 -0.1339 -1.0050
  419TIP3   OH222891   3.428   2.261   7.810 -0.3574 -0.5671 -0.6854
  419TIP3    H122892   3.397   2.352   7.816 -1.1799 -0.8639 -0.3072
  419TIP3    H222893   3.483   2.249   7.887 -0.1991 -0.3775 -0.7666
  420TIP3   OH222894   6.346   1.552   7.471  0.6861 -0.2479 -0.6400
  420TIP3    H122895   6.436   1.583   7.466 -0.0160  2.1444  0.2482
  420TIP3    H222896   6.300   1.621   7.519 -1.2059 -2.3528  0.7403
  421TIP3   OH222897   0.672   1.638   7.483 -0.3211  0.8830  0.9572
  421TIP3    H122898   0.742   1.581   7.515 -0.8777 -0.7572 -0.5936
  421TIP3    H222899   0.718   1.713   7.444  0.5478  0.1625  0.5654
  422TIP3   OH222900   5.513   2.999   6.652 -0.2081 -0.0241 -0.3781
  422TIP3    H122901   5.430   2.962   6.622 -0.2496 -0.0074 -0.2846
  422TIP3    H222902   5.579   2.939   6.619 -0.4031 -1.4273  1.6704
  423TIP3   OH222903   3.299   5.682   1.462 -0.3902  0.1054  0.2896
  423TIP3    H122904   3.366   5.614   1.466  0.7821  1.2238  0.4031
  423TIP3    H222905   3.277   5.700   1.553 -0.4931  0.0824  0.2697
  424TIP3   OH222906   4.592   4.442   7.218 -0.2413 -0.0056 -0.0444
  424TIP3    H122907   4.613   4.385   7.292 -1.4259 -0.2948  0.1010
  424TIP3    H222908   4.515   4.491   7.248  1.3603  2.5151  0.2571
  425TIP3   OH222909   3.189   4.959   7.024 -0.3035 -0.6349  0.1424
  425TIP3    H122910   3.211   4.892   7.089  0.6907  0.3167  0.8250
  425TIP3    H222911   3.188   4.912   6.941 -0.2772 -1.6210  0.6793
  426TIP3   OH222912   4.319   6.622   0.160 -0.6741 -0.0263 -0.5410
  426TIP3    H122913   4.234   6.665   0.152 -0.4598  0.3913 -0.5856
  426TIP3    H222914   4.343   6.632   0.252  0.7542  2.6225 -1.0916
  427TIP3   OH222915   2.212   2.465   7.766  0.0558  0.3386  0.1578
  427TIP3    H122916   2.196   2.390   7.708 -1.6285 -0.7366  1.8722
  427TIP3    H222917   2.229   2.425   7.851 -3.1942  1.8227  1.6947
  428TIP3   OH222918   6.448   0.195   0.851  0.3036 -0.0440  0.0732
  428TIP3    H122919   6.367   0.151   0.877  1.7847 -1.7037  2.3414
  428TIP3    H222920   6.497   0.128   0.804  0.6386  0.7297 -0.6996
  429TIP3   OH222921   2.420   3.895   0.890  0.1880  0.0211  0.4924
  429TIP3    H122922   2.420   3.989   0.912  1.0373  0.4466 -1.2053
  429TIP3    H222923   2.457   3.853   0.968  0.5698  1.1855  0.9633
  430TIP3   OH222924   2.505   5.507   2.224  0.0783 -0.0450 -0.2489
  430TIP3    H122925   2.438   5.526   2.290 -0.0848 -0.6241 -0.2453
  430TIP3    H222926   2.541   5.593   2.202 -0.5878  0.2647 -0.1677
  431TIP3   OH222927   2.023   6.583   0.873  0.0485 -0.1325 -0.4566
  431TIP3    H122928   2.042   6.609   0.963 -2.9331  0.5981  0.0852
  431TIP3    H222929   2.011   6.488   0.878 -0.1468 -0.0904 -0.0520
  432TIP3   OH222930   0.608   2.051   7.041  0.1624 -0.0333 -0.2904
  432TIP3    H122931   0.586   1.958   7.033  1.5144 -0.4171  0.1743
  432TIP3    H222932   0.523   2.094   7.052 -0.4031 -1.4038  1.1717
  433TIP3   OH222933   3.581   0.436   1.619 -0.6081  0.3118 -0.0082
  433TIP3    H122934   3.606   0.393   1.701 -1.1567 -0.4650 -0.2455
  433TIP3    H222935   3.631   0.518   1.619 -0.3326  0.1507  0.9308
  434TIP3   OH222936   6.812   5.785   0.825 -0.0446  0.1760 -0.0239
  434TIP3    H122937   6.881   5.730   0.788  0.0749  0.3352 -0.0434
  434TIP3    H222938   6.781   5.837   0.750  0.2927  0.5976  0.1237
  435TIP3   OH222939   0.861   3.640   2.148  0.4034 -0.3422 -0.5650
  435TIP3    H122940   0.866   3.698   2.072  0.9866 -2.8768 -2.6109
  435TIP3    H222941   0.771   3.649   2.179  0.7049  2.2192 -0.2560
  436TIP3   OH222942   2.069   1.768   0.344 -0.0268 -0.1737 -0.6024
  436TIP3    H122943   2.098   1.694   0.291 -1.2589 -0.0740 -1.4730
  436TIP3    H222944   2.147   1.795   0.392  0.9081 -0.8823 -1.6527
  437TIP3   OH222945   2.089   2.127   8.805  0.0817 -0.3282  0.0720
  437TIP3    H122946   2.066   2.095   8.892  1.3185  0.1418  0.6093
  437TIP3    H222947   2.163   2.187   8.821  0.8380 -0.8319 -1.3782
  438TIP3   OH222948   6.013   3.470   6.407 -0.4453  0.0532  0.5115
  438TIP3    H122949   6.049   3.385   6.379 -2.4756 -0.7741  0.2627
  438TIP3    H222950   6.019   3.468   6.502 -0.6908 -0.4883  0.5226
  439TIP3   OH222951   0.106   3.838   0.921  0.2867  0.4588 -1.1170
  439TIP3    H122952   0.043   3.906   0.943 -0.1018  0.1363 -1.2067
  439TIP3    H222953   0.053   3.768   0.881 -0.2719 -2.2974  3.6853
  440TIP3   OH222954   3.060   4.437   0.734 -0.1347  0.2892  0.5569
  440TIP3    H122955   3.060   4.516   0.787 -0.8822  1.0007 -0.4867
  440TIP3    H222956   3.139   4.390   0.763  0.5366  1.5802  0.9241
  441TIP3   OH222957   2.381   3.139   1.602  0.1622 -0.3993 -0.1003
  441TIP3    H122958   2.372   3.050   1.636  0.4253 -0.8147 -1.0882
  441TIP3    H222959   2.333   3.138   1.519 -0.6488  0.6579  0.3370
  442TIP3   OH222960   4.734   3.169   7.175 -0.0153 -0.0480  0.1460
  442TIP3    H122961   4.789   3.182   7.098 -2.1982  1.8319 -1.2120
  442TIP3    H222962   4.644   3.181   7.143 -1.1486 -1.1221  2.6250
  443TIP3   OH222963   1.141   2.676   7.399  0.2466  0.0710 -0.6020
  443TIP3    H122964   1.237   2.674   7.395  0.4097  2.9694 -0.6064
  443TIP3    H222965   1.121   2.732   7.474 -1.6175 -2.9786  1.4366
  444TIP3   OH222966   1.202   3.752   6.852 -0.3003 -0.0237  0.6082
  444TIP3    H122967   1.265   3.700   6.803  0.2541 -0.2221  1.4997
  444TIP3    H222968   1.121   3.747   6.801 -0.0554 -1.1469  0.2970
  445TIP3   OH222969   1.159   3.943   1.455 -0.2313  0.2923  0.0384
  445TIP3    H122970   1.102   3.871   1.431 -1.4822  1.0262  0.7251
  445TIP3    H222971   1.128   4.017   1.402 -0.4916  0.9211  1.0497
  446TIP3   OH222972   5.747   1.254   7.333 -0.5006 -0.1619  0.5890
  446TIP3    H122973   5.711   1.238   7.420  1.6171  2.1240  2.0027
  446TIP3    H222974   5.687   1.319   7.294 -0.0629  0.7312  1.3816
  447TIP3   OH222975   5.684   1.685   6.875  0.1782  0.1379  0.8337
  447TIP3    H122976   5.668   1.617   6.810  1.1652  0.4665  0.2273
  447TIP3    H222977   5.749   1.647   6.934  0.6308  0.5066  0.5731
  448TIP3   OH222978   5.436   4.193   1.444  0.0325 -0.2489  0.8159
  448TIP3    H122979   5.525   4.178   1.473 -0.0842 -1.1850  0.7016
  448TIP3    H222980   5.416   4.282   1.473  0.4704 -0.5745  2.1681
  449TIP3   OH222981   6.163   1.689   1.542  0.2548  0.4790 -0.3496
  449TIP3    H122982   6.182   1.669   1.451 -0.1836 -1.4735 -0.0466
  449TIP3    H222983   6.237   1.655   1.591 -0.1751  0.2055  0.1284
  450TIP3   OH222984   1.662   1.902   7.542 -0.1733  0.6741 -0.1969
  450TIP3    H122985   1.626   1.851   7.614 -0.6116  0.9345 -0.2269
  450TIP3    H222986   1.685   1.837   7.475  1.0035  0.3585  0.4959
  451TIP3   OH222987   1.905   4.458   0.715 -0.5950  1.3277 -0.2106
  451TIP3    H122988   1.869   4.394   0.776  0.0657 -0.0082 -1.1674
  451TIP3    H222989   1.874   4.429   0.629 -0.3895  2.3824 -0.6553
  452TIP3   OH222990   2.088   2.559   0.044  0.2920  0.0887  0.1993
  452TIP3    H122991   1.997   2.556   0.072 -0.3806  0.0078 -1.8127
  452TIP3    H222992   2.133   2.610   0.111 -1.3284  0.5645  0.9529
  453TIP3   OH222993   3.871   0.369   0.047 -0.3476 -0.7947 -0.5897
  453TIP3    H122994   3.947   0.415   0.082  0.7254 -2.3554 -0.7669
  453TIP3    H222995   3.809   0.367   0.120  0.1706 -0.3500 -0.1297
  454TIP3   OH222996   3.707   4.035   0.122 -0.1629 -0.0346 -0.3057
  454TIP3    H122997   3.644   4.056   0.192  0.3598  0.8968 -0.1033
  454TIP3    H222998   3.675   3.953   0.085 -1.6294  0.5314 -0.3512
  455TIP3   OH222999   1.904   2.038   6.455 -0.1771 -0.0134 -0.0412
  455TIP3    H123000   1.854   2.104   6.408 -0.8602 -0.6125 -0.1793
  455TIP3    H223001   1.838   1.988   6.502  0.2022 -1.3866 -0.9252
  456TIP3   OH223002   1.596   1.963   0.724  0.1759  0.0866 -0.0737
  456TIP3    H123003   1.524   1.955   0.661 -0.8521  4.4788  0.2271
  456TIP3    H223004   1.559   1.928   0.806 -0.3805 -0.7508 -0.6586
  457TIP3   OH223005   1.547   1.315   0.895 -0.1507  0.1050 -0.4625
  457TIP3    H123006   1.452   1.307   0.905 -0.2361  1.2516 -0.1303
  457TIP3    H223007   1.569   1.252   0.827 -0.8737 -1.4825  0.6929
  458TIP3   OH223008   5.872   4.452   6.669 -0.5729  0.4107 -0.1332
  458TIP3    H123009   5.795   4.501   6.697  0.6004  1.8409  0.7545
  458TIP3    H223010   5.946   4.503   6.700  0.7656 -1.9696  0.8920
  459TIP3   OH223011   1.104   6.147   1.809 -0.1679  0.1559 -0.7057
  459TIP3    H123012   1.180   6.088   1.815 -0.0496  0.1517 -2.0780
  459TIP3    H223013   1.030   6.089   1.793 -0.8092 -0.0207  2.2657
  460TIP3   OH223014   4.958   0.682   1.447  0.5745  0.1265  0.2035
  460TIP3    H123015   4.935   0.694   1.354  0.0048  0.4426  0.3752
  460TIP3    H223016   4.937   0.767   1.487 -1.5780 -0.7547  1.0839
  461TIP3   OH223017   3.088   3.001   1.532  0.0926  0.2344  0.7942
  461TIP3    H123018   3.080   2.976   1.440  0.0612 -1.1907  1.1670
  461TIP3    H223019   3.141   2.933   1.571  0.6850  1.1904  1.7069
  462TIP3   OH223020   2.719   2.332   8.495 -0.0115 -0.3709  0.0590
  462TIP3    H123021   2.811   2.360   8.496  0.3179 -0.7016 -3.9538
  462TIP3    H223022   2.722   2.241   8.465 -1.5860  0.3530 -2.7257
  463TIP3   OH223023   2.358   1.409   0.040 -0.1303 -0.0362 -0.0469
  463TIP3    H123024   2.325   1.442  -0.043  0.7579 -0.0922 -0.4339
  463TIP3    H223025   2.440   1.364   0.018  1.2578  1.7635  1.1019
  464TIP3   OH223026   3.381   3.222   0.113 -0.3711 -0.3493  0.3664
  464TIP3    H123027   3.416   3.303   0.076  1.4518 -2.0062 -1.8555
  464TIP3    H223028   3.330   3.250   0.189 -0.4036  2.9008 -0.7061
  465TIP3   OH223029   6.587   6.035   0.973 -0.3594 -0.1564  0.4521
  465TIP3    H123030   6.651   6.053   1.041 -1.5540  0.7745  1.3820
  465TIP3    H223031   6.538   5.959   1.004  0.5637 -1.1753 -0.4860
  466TIP3   OH223032   3.938   5.783   0.949  0.0028 -0.2732  0.7995
  466TIP3    H123033   4.013   5.764   0.892 -1.0419 -1.1810 -0.3245
  466TIP3    H223034   3.881   5.837   0.895  0.4426  1.6410  2.1314
  467TIP3   OH223035   2.241   3.217   1.024  0.4093 -0.1067  0.3713
  467TIP3    H123036   2.268   3.308   1.015  0.0032  0.0083  0.3091
  467TIP3    H223037   2.171   3.219   1.089 -1.1114 -0.0700 -1.1882
  468TIP3   OH223038   4.484   5.177   0.128  0.4432  0.1048  0.0354
  468TIP3    H123039   4.540   5.255   0.125 -0.5791  0.8436 -0.4814
  468TIP3    H223040   4.517   5.122   0.056  1.5588 -0.2505  0.7810
  469TIP3   OH223041   2.776   1.713   7.101 -0.1522  0.0675 -1.1393
  469TIP3    H123042   2.756   1.788   7.044 -0.8091  0.6700 -0.1651
  469TIP3    H223043   2.702   1.654   7.088 -0.9424  0.7725 -0.0197
  470TIP3   OH223044   1.492   3.426   8.600 -0.0018 -0.0483  0.0739
  470TIP3    H123045   1.517   3.474   8.521 -0.5718  0.3764  0.1520
  470TIP3    H223046   1.571   3.377   8.624  0.7583  1.2610  0.3085
  471TIP3   OH223047   3.814   3.507   0.161  0.7942  0.4833 -0.2056
  471TIP3    H123048   3.726   3.546   0.163 -0.1094 -1.3394  2.6414
  471TIP3    H223049   3.805   3.430   0.105 -0.1788 -1.0043  1.8607
  472TIP3   OH223050   3.309   3.494   7.617  0.5196  0.0713  0.3250
  472TIP3    H123051   3.236   3.495   7.679 -1.8048 -1.0259 -2.2076
  472TIP3    H223052   3.351   3.409   7.631 -0.4877 -0.5123 -0.1057
  473TIP3   OH223053   0.313   0.543   0.612 -0.2364  0.2751  0.2063
  473TIP3    H123054   0.253   0.580   0.549 -0.4666  0.7224  0.6802
  473TIP3    H223055   0.284   0.577   0.697  0.8724  0.7574  0.4081
  474TIP3   OH223056   4.099   0.819   2.136  0.0415 -0.1262  0.4914
  474TIP3    H123057   4.063   0.894   2.183  0.7884 -0.8004  2.2257
  474TIP3    H223058   4.172   0.790   2.190 -0.1142 -1.9883 -0.2289
  475TIP3   OH223059   4.417   3.692   6.554  0.2420  0.2688 -0.1842
  475TIP3    H123060   4.386   3.644   6.477 -1.2395 -1.5351  1.4289
  475TIP3    H223061   4.460   3.625   6.607 -2.6881  0.3868  2.5886
  476TIP3   OH223062   2.390   2.367   1.646  0.2960 -0.7643 -0.2914
  476TIP3    H123063   2.440   2.432   1.597 -0.5876  1.3869  1.5204
  476TIP3    H223064   2.302   2.371   1.608 -0.0704  0.0061  0.6175
  477TIP3   OH223065   3.701   5.112   7.680  0.5162 -0.0220 -0.8546
  477TIP3    H123066   3.784   5.074   7.651  0.5581 -1.2922  0.7628
  477TIP3    H223067   3.638   5.085   7.613  1.0517 -0.7506 -1.0839
  478TIP3   OH223068   3.931   0.167   7.691 -0.4669  0.0340 -0.4044
  478TIP3    H123069   3.988   0.094   7.665 -0.1987  0.2691 -0.4778
  478TIP3    H223070   3.950   0.236   7.627  0.1651  0.6018  0.3732
  479TIP3   OH223071   6.228   0.277   1.119  0.0312 -0.3694 -0.3455
  479TIP3    H123072   6.158   0.246   1.178 -0.2139 -0.1546 -0.5211
  479TIP3    H223073   6.291   0.319   1.178  0.7979 -1.9442  0.0024
  480TIP3   OH223074   2.876   2.071   7.875 -0.0878  0.1594 -0.3472
  480TIP3    H123075   2.838   2.043   7.958  0.6125 -1.1188 -0.4274
  480TIP3    H223076   2.817   2.037   7.809 -0.0614  0.2280 -0.4060
  481TIP3   OH223077   4.265   2.967   2.282  0.8820 -0.3090 -0.1313
  481TIP3    H123078   4.319   2.953   2.360  0.7444 -2.3483 -0.3581
  481TIP3    H223079   4.203   3.035   2.307  3.1247  1.7240  0.3315
  482TIP3   OH223080   3.784   0.082   8.402 -0.5263 -0.1479 -0.2516
  482TIP3    H123081   3.845   0.013   8.428 -1.1342 -0.3750  0.6184
  482TIP3    H223082   3.786   0.144   8.474 -1.8398 -0.5174  0.1282
  483TIP3   OH223083   1.140   4.635   8.413 -0.2741  0.1950  0.0953
  483TIP3    H123084   1.121   4.618   8.505 -1.5862 -0.0094 -0.2032
  483TIP3    H223085   1.126   4.551   8.369  1.7012 -0.0744 -0.1172
  484TIP3   OH223086   6.777   3.229   8.552 -0.5738 -0.0589 -0.0600
  484TIP3    H123087   6.846   3.262   8.495 -1.2219  0.9783 -0.2841
  484TIP3    H223088   6.700   3.224   8.495 -0.2056 -3.5266 -0.4724
  485TIP3   OH223089   4.651   2.034   0.605  0.2062  0.0649 -0.0307
  485TIP3    H123090   4.613   1.957   0.646 -1.5179  0.8972  0.0406
  485TIP3    H223091   4.705   2.074   0.674  0.1089 -0.4103  0.3216
  486TIP3   OH223092   4.251   1.171   1.937 -0.1134  0.5180  0.0668
  486TIP3    H123093   4.289   1.169   2.025  0.5955 -1.1533 -0.2442
  486TIP3    H223094   4.171   1.223   1.947 -0.1179  0.2524  1.7253
  487TIP3   OH223095   1.951   5.004   8.660 -0.1020 -0.4645 -0.0372
  487TIP3    H123096   2.008   4.991   8.735  0.7700 -1.2720 -0.8027
  487TIP3    H223097   1.868   5.034   8.697 -0.1335 -2.1451  1.3569
  488TIP3   OH223098   4.431   4.523   2.144 -0.0092  0.4729 -0.0168
  488TIP3    H123099   4.374   4.598   2.159  0.6312  0.9295  0.1581
  488TIP3    H223100   4.469   4.540   2.057 -0.0336  0.2382 -0.0733
  489TIP3   OH223101   2.414   0.466   8.218  0.4333 -0.5410  0.1504
  489TIP3    H123102   2.508   0.456   8.226  0.8378  2.6878  0.7537
  489TIP3    H223103   2.393   0.435   8.130  2.3563  0.2740 -0.6355
  490TIP3   OH223104   0.389   3.352   8.440  0.3568 -0.4882  0.1501
  490TIP3    H123105   0.399   3.261   8.466 -1.1978 -0.8180 -0.3276
  490TIP3    H223106   0.324   3.388   8.500  1.5152  0.5539  0.8412
  491TIP3   OH223107   4.659   5.161   6.178  0.4478  0.0317 -0.5409
  491TIP3    H123108   4.637   5.154   6.271 -0.2242  0.0491 -0.6883
  491TIP3    H223109   4.712   5.084   6.160 -3.6141 -2.8976 -1.2723
  492TIP3   OH223110   0.677   5.523   8.018  0.4159  0.0159  0.1246
  492TIP3    H123111   0.642   5.552   7.933 -0.5612  0.3305  0.6184
  492TIP3    H223112   0.701   5.431   8.003 -2.8185 -0.9974  0.3194
  493TIP3   OH223113   0.473   3.942   7.646  0.3274 -0.1812  0.2078
  493TIP3    H123114   0.471   3.929   7.552  1.1388 -1.9274  0.4073
  493TIP3    H223115   0.424   4.024   7.660  0.3762  0.2116 -1.7166
  494TIP3   OH223116   1.006   3.361   7.022  0.3058 -0.7184  0.1244
  494TIP3    H123117   1.006   3.380   7.116 -0.5548 -0.0078  0.0012
  494TIP3    H223118   1.098   3.352   6.999  0.4931 -1.7061  1.1807
  495TIP3   OH223119   0.812   5.015   8.717  0.0606 -0.3197 -0.1201
  495TIP3    H123120   0.806   5.089   8.777 -0.4316  1.9657 -2.7875
  495TIP3    H223121   0.721   4.995   8.695  0.2757  0.2111 -1.5798
  496TIP3   OH223122   6.034   3.341   8.195 -0.6645  0.2711 -0.0264
  496TIP3    H123123   6.064   3.253   8.218  0.5849  0.7738  0.3429
  496TIP3    H223124   5.940   3.331   8.184 -0.7329 -0.8758  1.2215
  497TIP3   OH223125   2.035   3.312   8.437  0.2340 -0.3525  0.2467
  497TIP3    H123126   1.998   3.400   8.439  2.7042  0.7709  0.1396
  497TIP3    H223127   2.125   3.322   8.467  0.4525 -2.9574  0.7688
  498TIP3   OH223128   2.733   4.714   7.324  0.1777 -0.1128 -0.4370
  498TIP3    H123129   2.641   4.728   7.304 -0.1735 -1.3151  0.1836
  498TIP3    H223130   2.743   4.618   7.324  1.4654  0.0010 -0.6802
  499TIP3   OH223131   3.610   1.962   7.128  0.0228 -0.1624  0.0640
  499TIP3    H123132   3.684   1.933   7.182 -0.3912 -3.6581 -0.9731
  499TIP3    H223133   3.565   2.027   7.182  0.9720 -1.7093  2.9584
  500TIP3   OH223134   5.490   0.952   1.679  0.4510 -0.3936 -0.4688
  500TIP3    H123135   5.397   0.933   1.668  0.6412 -0.9343 -1.2425
  500TIP3    H223136   5.494   1.046   1.699 -0.2507 -0.3679 -0.4358
  501TIP3   OH223137   4.735   3.474   7.898  0.3850  0.5805 -0.4327
  501TIP3    H123138   4.789   3.471   7.819  0.7557  0.9330 -0.1919
  501TIP3    H223139   4.796   3.494   7.969  0.0840  0.0655 -0.0208
  502TIP3   OH223140   5.752   0.548   1.066  0.1262  0.3654  0.6489
  502TIP3    H123141   5.723   0.460   1.043  1.4301 -0.0020  0.3084
  502TIP3    H223142   5.818   0.535   1.133 -1.5214  1.2640  2.5510
  503TIP3   OH223143   0.167   3.904   1.350 -0.1050 -0.0797 -0.3505
  503TIP3    H123144   0.109   3.835   1.383  0.1960 -0.9627 -1.6065
  503TIP3    H223145   0.108   3.974   1.322 -0.6507 -1.2954 -2.3608
  504TIP3   OH223146   0.618   6.440   8.615  0.4011  0.0223  0.0533
  504TIP3    H123147   0.594   6.374   8.679  1.3444 -3.3552 -2.7461
  504TIP3    H223148   0.694   6.485   8.654  0.8927 -1.8290  1.3496
  505TIP3   OH223149   1.622   4.401   6.743 -0.1553  0.2349 -0.2210
  505TIP3    H123150   1.574   4.474   6.705  1.4381  1.0246 -0.8169
  505TIP3    H223151   1.636   4.341   6.669 -2.0990 -1.0835  0.4159
  506TIP3   OH223152   1.261   4.094   8.729  0.1153 -0.4394  0.2839
  506TIP3    H123153   1.321   4.056   8.665 -0.6933 -1.2034 -0.0285
  506TIP3    H223154   1.186   4.034   8.732 -1.9482  1.8669 -1.3702
  507TIP3   OH223155   6.684   2.371   6.773  0.1370 -0.9235 -0.0340
  507TIP3    H123156   6.701   2.391   6.681  0.3109  0.5768  0.3043
  507TIP3    H223157   6.759   2.408   6.820 -0.2915 -1.0553  0.7780
  508TIP3   OH223158   3.717   4.324   0.040 -0.2329 -0.1538  1.0763
  508TIP3    H123159   3.666   4.401   0.066 -0.2334 -0.0919  0.8953
  508TIP3    H223160   3.694   4.257   0.104 -0.5808 -0.1433  0.9626
  509TIP3   OH223161   4.827   3.994   8.236  0.0349  0.1292 -0.3776
  509TIP3    H123162   4.753   4.001   8.296  1.2431  1.1629  1.0768
  509TIP3    H223163   4.798   4.036   8.156 -0.6129  1.4454  0.5183
  510TIP3   OH223164   2.042   1.077   7.974 -0.1580  0.3123 -0.1428
  510TIP3    H123165   2.017   1.168   7.967 -0.5684  0.0725 -2.6714
  510TIP3    H223166   2.116   1.067   7.914  1.5409 -0.5382  1.9215
  511TIP3   OH223167   5.642   3.273   7.658  0.0090  0.1550  0.3381
  511TIP3    H123168   5.599   3.351   7.625  2.0610  0.7010 -1.2867
  511TIP3    H223169   5.605   3.201   7.607  0.1747  0.4702 -0.2357
  512TIP3   OH223170   4.024   3.010   7.574  0.2826  0.1103  0.4456
  512TIP3    H123171   4.119   2.999   7.566  0.2074  0.2871 -0.9301
  512TIP3    H223172   3.999   2.951   7.645  1.6624  1.5105  2.1913
  513TIP3   OH223173   0.049   1.466   7.347  0.6357 -0.6986  0.2492
  513TIP3    H123174   0.033   1.542   7.291  2.2579 -1.6457 -1.6427
  513TIP3    H223175   0.075   1.504   7.431 -0.2334  0.7954 -0.1032
  514TIP3   OH223176   0.834   5.468   7.105 -0.2600 -0.7696  0.6287
  514TIP3    H123177   0.870   5.496   7.189 -0.0439  0.9384 -0.0014
  514TIP3    H223178   0.828   5.372   7.113 -1.1568 -0.5923  2.9325
  515TIP3   OH223179   4.905   6.231   0.471  0.2251 -0.0957  0.0659
  515TIP3    H123180   4.864   6.174   0.405 -0.4938 -0.1720  0.5669
  515TIP3    H223181   4.864   6.316   0.457 -0.4761 -0.2844  0.8797
  516TIP3   OH223182   6.813   4.131   8.598  0.3183  0.2457  0.3699
  516TIP3    H123183   6.831   4.199   8.663 -0.4458 -0.0846  0.9385
  516TIP3    H223184   6.738   4.083   8.634 -0.0082 -0.0424 -0.6779
  517TIP3   OH223185   2.283   4.764   1.945  0.1196 -0.7628  0.0366
  517TIP3    H123186   2.370   4.733   1.968  1.4837  0.8004 -2.6166
  517TIP3    H223187   2.272   4.845   1.994  0.2543 -0.8028  0.1341
  518TIP3   OH223188   0.146   1.218   7.066 -0.2235  0.2713 -0.4833
  518TIP3    H123189   0.107   1.246   7.148  2.5051 -0.3586  1.1699
  518TIP3    H223190   0.187   1.297   7.031  0.2796  0.1415 -0.1984
  519TIP3   OH223191   1.396   1.760   1.353  0.3445  0.2558 -0.0436
  519TIP3    H123192   1.375   1.669   1.329 -1.4704  1.1279 -2.0955
  519TIP3    H223193   1.350   1.773   1.436 -0.6213 -0.2940 -0.4672
  520TIP3   OH223194   2.375   6.259   7.680 -0.7369  0.9500  0.3804
  520TIP3    H123195   2.407   6.305   7.602 -0.5983  0.3579  0.0840
  520TIP3    H223196   2.371   6.327   7.748  0.6242  1.1626  0.2742
  521TIP3   OH223197   4.778   4.710   0.238  0.7486 -0.2123 -0.3440
  521TIP3    H123198   4.741   4.727   0.151 -0.2940 -2.1675 -0.3408
  521TIP3    H223199   4.829   4.629   0.227  1.2210 -0.0768  0.7065
  522TIP3   OH223200   6.594   4.192   8.148 -0.1578 -0.3915 -0.7592
  522TIP3    H123201   6.557   4.237   8.224 -1.4523 -0.2731 -1.4283
  522TIP3    H223202   6.572   4.249   8.074 -1.0548 -1.6717 -1.5179
  523TIP3   OH223203   6.537   4.514   8.529 -0.0104  0.4307  0.3022
  523TIP3    H123204   6.614   4.547   8.576  1.1159  2.1471 -2.4831
  523TIP3    H223205   6.468   4.579   8.548 -1.0357 -1.2898  3.0814
  524TIP3   OH223206   6.256   4.796   0.445 -0.2050 -0.0400 -0.4261
  524TIP3    H123207   6.346   4.828   0.447  1.2467 -3.5703 -0.8288
  524TIP3    H223208   6.214   4.844   0.374  2.4005 -0.4877 -2.4154
  525TIP3   OH223209   1.398   3.717   0.689 -0.3590 -0.0738 -0.5987
  525TIP3    H123210   1.487   3.688   0.710 -1.3294 -1.5006  1.9996
  525TIP3    H223211   1.361   3.645   0.638 -1.0795 -1.1310  1.3286
  526TIP3   OH223212   1.726   6.408   0.530  0.0871  0.1306 -0.2538
  526TIP3    H123213   1.775   6.340   0.575  0.4458  1.5460  1.6218
  526TIP3    H223214   1.685   6.459   0.600 -1.5371  0.8663 -1.6515
  527TIP3   OH223215   5.633   0.713   2.413 -0.3129  0.5080 -0.1147
  527TIP3    H123216   5.665   0.761   2.489 -0.0479  0.1073  0.0264
  527TIP3    H223217   5.579   0.643   2.449 -0.9146  0.8494 -0.3306
  528TIP3   OH223218   6.619   0.930   0.339 -0.0990  0.6790  0.2044
  528TIP3    H123219   6.657   1.002   0.289 -0.1272  0.2602 -0.4337
  528TIP3    H223220   6.566   0.882   0.275  1.1768 -0.8254  0.2015
  529TIP3   OH223221   6.553   1.500   0.712  0.5298  0.0535 -0.4823
  529TIP3    H123222   6.464   1.509   0.745  0.7396  0.2924  0.0205
  529TIP3    H223223   6.587   1.421   0.755 -0.3747 -1.7271 -2.7966
  530TIP3   OH223224   6.171   2.030   1.743 -0.1804  0.4897  0.0818
  530TIP3    H123225   6.140   1.944   1.716 -2.3429  1.1442  0.3148
  530TIP3    H223226   6.263   2.016   1.766 -0.2516 -1.5586 -0.6812
  531TIP3   OH223227   1.266   1.180   6.535  0.0497 -0.3562 -0.3569
  531TIP3    H123228   1.177   1.180   6.500  0.3422 -0.3062 -1.1275
  531TIP3    H223229   1.311   1.247   6.485  0.5665 -0.5037 -0.0949
  532TIP3   OH223230   0.301   4.757   0.788 -0.5673 -0.1098 -0.2512
  532TIP3    H123231   0.264   4.722   0.869 -1.5506  0.2245 -0.5407
  532TIP3    H223232   0.393   4.731   0.791 -0.5734 -0.0677  0.9865
  533TIP3   OH223233   0.123   0.348   7.503 -0.1160  0.1230 -0.4069
  533TIP3    H123234   0.160   0.433   7.524  0.5050  0.3060 -2.0962
  533TIP3    H223235   0.162   0.325   7.418 -1.2862 -1.2351 -0.6141
  534TIP3   OH223236   2.286   3.790   8.703 -0.2943 -0.0839  0.5443
  534TIP3    H123237   2.358   3.788   8.765  0.4156  0.9650 -0.2033
  534TIP3    H223238   2.309   3.725   8.637  0.5787  1.0343 -0.3009
  535TIP3   OH223239   5.157   6.443   7.136 -0.8386 -0.1317  0.1147
  535TIP3    H123240   5.109   6.366   7.167 -0.7626 -0.4882 -0.6175
  535TIP3    H223241   5.187   6.418   7.048 -0.9692  0.7999 -0.2014
  536TIP3   OH223242   5.884   6.718   1.112  0.3442  0.2717 -0.4541
  536TIP3    H123243   5.856   6.633   1.078 -0.2026  0.4315 -0.4227
  536TIP3    H223244   5.802   6.761   1.138  0.6441  0.6825 -0.1816
  537TIP3   OH223245   2.801   0.480   0.814 -0.3165  0.6447  0.1125
  537TIP3    H123246   2.815   0.523   0.729  0.3063  1.8971  0.8279
  537TIP3    H223247   2.786   0.552   0.875 -0.6836 -0.2435  1.0874
  538TIP3   OH223248   6.479   5.860   1.301 -0.2864  0.0082 -0.0613
  538TIP3    H123249   6.481   5.853   1.206  0.6173  0.2948 -0.0721
  538TIP3    H223250   6.399   5.815   1.327 -0.8454  0.4418 -0.9961
  539TIP3   OH223251   5.965   1.276   7.068 -0.0148 -0.3550 -0.0019
  539TIP3    H123252   5.947   1.202   7.011  0.1222 -0.5911  0.2575
  539TIP3    H223253   5.996   1.345   7.010 -0.2854 -0.4522 -0.2624
  540TIP3   OH223254   5.187   0.271   6.893 -0.2634  0.6879  0.5580
  540TIP3    H123255   5.114   0.324   6.926 -1.5092 -0.0944 -0.8139
  540TIP3    H223256   5.210   0.312   6.810  0.1625  0.3178  0.4919
  541TIP3   OH223257   6.831   5.007   6.959 -0.4809  0.8003 -0.2531
  541TIP3    H123258   6.826   4.913   6.977 -0.4512  0.6451 -1.0443
  541TIP3    H223259   6.883   5.014   6.879  0.4870  1.5715  0.4158
  542TIP3   OH223260   2.937   4.093   8.140  0.6020  0.2864  0.5868
  542TIP3    H123261   2.990   4.036   8.196 -0.7165 -1.2379  0.3398
  542TIP3    H223262   2.847   4.066   8.157  0.0975  0.7041 -1.2960
  543TIP3   OH223263   0.986   1.001   7.554  0.1736  0.0121 -0.1728
  543TIP3    H123264   1.051   0.975   7.489  0.1358  0.5844 -0.4478
  543TIP3    H223265   0.902   0.989   7.509  0.1846  1.2875 -0.5676
  544TIP3   OH223266   2.101   4.201   2.466  0.3361 -0.3517 -0.0852
  544TIP3    H123267   2.148   4.134   2.515  0.2864  0.1025  0.6019
  544TIP3    H223268   2.008   4.180   2.479  0.3317 -0.7929 -0.7929
  545TIP3   OH223269   0.856   1.296   8.412  0.7290 -0.4653  0.6500
  545TIP3    H123270   0.818   1.209   8.426  0.0124 -0.0119  1.5948
  545TIP3    H223271   0.795   1.357   8.454 -0.7752  0.9061 -3.1119
  546TIP3   OH223272   5.050   3.396   0.711 -0.0490 -0.1194  0.2132
  546TIP3    H123273   5.015   3.374   0.625 -0.4003  4.3044 -0.9862
  546TIP3    H223274   5.142   3.415   0.696  0.3590 -1.1133  1.2619
  547TIP3   OH223275   1.430   3.849   6.963  0.2512  0.1335  0.5526
  547TIP3    H123276   1.442   3.915   6.894  2.6060 -1.5301 -0.7653
  547TIP3    H223277   1.362   3.791   6.928  0.9644 -0.3234 -0.1123
  548TIP3   OH223278   0.028   1.753   0.427  0.0715 -0.6579 -0.1638
  548TIP3    H123279  -0.053   1.781   0.383  0.2943  0.6106  0.1722
  548TIP3    H223280   0.011   1.770   0.520 -0.6643 -3.9664  0.4021
  549TIP3   OH223281   3.738   4.010   1.179  0.1472 -0.1400 -0.1688
  549TIP3    H123282   3.733   3.918   1.152 -3.0373 -0.6235  1.5340
  549TIP3    H223283   3.783   4.006   1.264  0.4224 -0.0483 -0.3092
  550TIP3   OH223284   3.753   6.637   8.643  0.3187 -0.2013 -0.5714
  550TIP3    H123285   3.692   6.663   8.574  1.9761  0.1176 -1.9933
  550TIP3    H223286   3.719   6.677   8.723 -0.0412  1.9528 -1.7495
  551TIP3   OH223287   1.926   2.611   8.341 -0.2812 -0.1193 -0.2768
  551TIP3    H123288   1.936   2.549   8.414  0.1659 -0.1609 -0.3727
  551TIP3    H223289   1.841   2.588   8.302  1.3240 -2.9978 -2.4616
  552TIP3   OH223290   4.437   6.095   7.811  0.0568  0.6466  0.4382
  552TIP3    H123291   4.372   6.161   7.837  0.1370  0.3918  1.3273
  552TIP3    H223292   4.408   6.015   7.854  0.9719  0.5378  0.8680
  553TIP3   OH223293   0.366   3.843   1.146 -0.4264 -0.1165  0.2373
  553TIP3    H123294   0.300   3.871   1.083 -1.4179 -1.4888  0.6445
  553TIP3    H223295   0.317   3.822   1.225  0.6985  0.6128  1.1609
  554TIP3   OH223296   6.312   2.482   7.628 -0.1598  0.1104 -0.3007
  554TIP3    H123297   6.306   2.575   7.605 -0.2671  0.0207 -0.6285
  554TIP3    H223298   6.388   2.477   7.687 -0.8993  0.6134  0.7273
  555TIP3   OH223299   5.212   4.651   7.359  0.3456 -0.2156  0.0200
  555TIP3    H123300   5.157   4.577   7.383 -1.1585  0.3668 -1.4036
  555TIP3    H223301   5.209   4.653   7.263  0.7233  1.3865  0.0060
  556TIP3   OH223302   5.889   0.715   8.683 -0.2297 -0.2068 -0.1504
  556TIP3    H123303   5.955   0.704   8.615  1.8382  1.4468  1.4217
  556TIP3    H223304   5.833   0.638   8.676  1.3410 -1.2564 -2.1362
  557TIP3   OH223305   5.797   4.774   0.711 -0.6104 -0.3284 -0.0329
  557TIP3    H123306   5.886   4.804   0.731 -0.7372  0.5453 -0.6924
  557TIP3    H223307   5.801   4.749   0.618 -1.0566 -0.2665 -0.0676
  558TIP3   OH223308   0.111   4.354   8.707 -0.1301 -0.2994 -0.4443
  558TIP3    H123309   0.200   4.351   8.674 -0.1588 -1.0281 -0.4659
  558TIP3    H223310   0.120   4.374   8.800 -0.0224  1.1365 -0.7294
  559TIP3   OH223311   3.794   2.626   8.523 -0.5076  0.0850 -0.3783
  559TIP3    H123312   3.715   2.573   8.534 -0.1553 -0.3029  0.3780
  559TIP3    H223313   3.777   2.705   8.574 -0.1086 -0.3435  0.4392
  560TIP3   OH223314   2.686   5.427   1.758 -0.6227  0.9176  0.2385
  560TIP3    H123315   2.599   5.446   1.723 -0.5882 -1.0622 -1.0923
  560TIP3    H223316   2.671   5.408   1.851 -1.5588  0.9029  0.0926
  561TIP3   OH223317   1.954   2.838   7.374 -0.8815 -0.2105 -0.4589
  561TIP3    H123318   2.007   2.886   7.436  1.0287 -1.8003 -0.7683
  561TIP3    H223319   2.002   2.842   7.292 -2.2672  0.0058 -1.2984
  562TIP3   OH223320   4.912   2.574   2.076 -0.8172 -0.3567 -0.2727
  562TIP3    H123321   4.884   2.482   2.078 -0.9123 -0.3066  1.3288
  562TIP3    H223322   4.952   2.589   2.161 -1.0870  1.1901 -0.3969
  563TIP3   OH223323   5.233   5.939   8.653 -0.0371  0.4087 -0.4529
  563TIP3    H123324   5.142   5.920   8.676  0.7252  0.1125  2.9315
  563TIP3    H223325   5.255   6.015   8.707  1.7019  0.5461 -1.3095
  564TIP3   OH223326   4.596   3.055   8.500  0.4223 -0.0109 -0.0660
  564TIP3    H123327   4.621   3.005   8.422 -0.2216  2.6915 -2.1694
  564TIP3    H223328   4.675   3.105   8.522  0.5589 -0.6636  0.9934
  565TIP3   OH223329   1.815   2.975   8.689 -0.0212  0.0489 -0.0587
  565TIP3    H123330   1.885   2.934   8.638 -0.2351 -0.1854 -0.1660
  565TIP3    H223331   1.792   3.053   8.640  2.8149  2.3304  1.8792
  566TIP3   OH223332   5.524   3.706   1.156 -0.2283  0.1280  0.1097
  566TIP3    H123333   5.498   3.663   1.238 -1.9844  2.0622  0.6638
  566TIP3    H223334   5.455   3.684   1.094  1.1830 -1.4647 -0.9721
  567TIP3   OH223335   0.802   3.866   8.342  1.0580 -0.0573 -0.2780
  567TIP3    H123336   0.784   3.890   8.432  2.8829 -0.1374  0.1580
  567TIP3    H223337   0.720   3.828   8.309  0.5222 -0.5279  1.5053
  568TIP3   OH223338   4.709   5.782   8.611  0.3157 -0.4015  0.0360
  568TIP3    H123339   4.704   5.809   8.520  0.0011 -1.6995 -0.3487
  568TIP3    H223340   4.652   5.844   8.658 -0.3795 -0.3942 -0.8034
  569TIP3   OH223341   3.209   5.241   6.480 -0.6028 -0.2441  0.1283
  569TIP3    H123342   3.187   5.167   6.424  0.3168  0.3320 -1.0517
  569TIP3    H223343   3.149   5.310   6.454  0.6457  0.4314 -1.1082
  570TIP3   OH223344   4.890   6.374   6.413  0.0631 -0.0107 -0.0820
  570TIP3    H123345   4.826   6.345   6.348 -0.1586  0.2507  0.0171
  570TIP3    H223346   4.896   6.469   6.400  1.6097 -0.2251 -1.1552
  571TIP3   OH223347   2.803   1.439   0.776  0.5408 -0.3529  0.2282
  571TIP3    H123348   2.748   1.482   0.842 -0.5004 -1.0350 -0.1647
  571TIP3    H223349   2.744   1.378   0.732  1.3895 -0.4239 -0.8607
  572TIP3   OH223350   0.992   5.252   8.591  0.2853 -0.4862  0.3471
  572TIP3    H123351   1.025   5.193   8.658  3.4646  0.5519 -0.1103
  572TIP3    H223352   0.968   5.331   8.639  0.6382 -0.4594  0.4859
  573TIP3   OH223353   3.305   3.218   1.742  0.4389  0.3752  0.1791
  573TIP3    H123354   3.226   3.269   1.722 -0.5184 -0.7762  0.8861
  573TIP3    H223355   3.296   3.195   1.835  0.3604 -1.8468 -0.3251
  574TIP3   OH223356   4.276   4.321   1.272  0.0068  0.2323 -0.5870
  574TIP3    H123357   4.321   4.273   1.342 -0.0612 -1.1281 -1.4407
  574TIP3    H223358   4.347   4.361   1.222  0.0385  1.5487  0.4640
  575TIP3   OH223359   1.663   4.500   1.179 -0.2565  0.9011 -0.2624
  575TIP3    H123360   1.649   4.539   1.265 -0.4307  1.1053 -0.3829
  575TIP3    H223361   1.576   4.499   1.139  0.0147  1.9022 -0.9021
  576TIP3   OH223362   2.042   4.885   2.330 -0.1156  0.4812 -0.0177
  576TIP3    H123363   2.086   4.969   2.346 -0.5619  0.7017  0.0628
  576TIP3    H223364   1.977   4.905   2.263 -0.8381  0.3982  0.6518
  577TIP3   OH223365   4.090   5.498   8.467  0.2035 -0.6109 -0.2865
  577TIP3    H123366   3.999   5.488   8.437  0.4901 -0.2677 -1.3089
  577TIP3    H223367   4.093   5.585   8.504  0.2248 -0.4314 -0.6992
  578TIP3   OH223368   5.554   4.045   7.805  0.1749  0.3241 -0.0708
  578TIP3    H123369   5.567   4.123   7.859  2.5858 -0.1095  0.1087
  578TIP3    H223370   5.634   4.039   7.752 -1.0261 -0.6849 -1.8669
  579TIP3   OH223371   4.206   0.554   6.986  0.1906 -0.2178 -0.0242
  579TIP3    H123372   4.115   0.535   6.964 -0.1716 -1.3031  2.1196
  579TIP3    H223373   4.206   0.647   7.011 -0.3699 -0.2454  0.0931
  580TIP3   OH223374   4.044   4.744   0.605 -0.0308  0.4617 -0.5671
  580TIP3    H123375   3.979   4.788   0.550 -1.0730  2.3727  1.9982
  580TIP3    H223376   4.127   4.782   0.577 -0.2682 -0.0892 -2.1284
  581TIP3   OH223377   0.492   5.653   0.562 -0.0094  0.4425  0.5333
  581TIP3    H123378   0.579   5.688   0.579  0.1494  0.4100 -0.1787
  581TIP3    H223379   0.491   5.569   0.609  1.0812 -0.5247 -1.0557
  582TIP3   OH223380   0.617   1.503   8.265 -0.2648 -0.5864 -0.5635
  582TIP3    H123381   0.641   1.450   8.342 -0.0921 -0.2321 -0.3738
  582TIP3    H223382   0.643   1.448   8.190 -0.7930 -1.0995 -0.3789
  583TIP3   OH223383   5.810   3.251   6.705 -0.2726 -0.1746 -0.1831
  583TIP3    H123384   5.863   3.208   6.773 -0.6485 -0.5435 -0.1172
  583TIP3    H223385   5.719   3.236   6.733 -0.4807 -1.4936 -1.4449
  584TIP3   OH223386   2.901   0.127   7.209  0.3508 -0.5401  0.5317
  584TIP3    H123387   2.828   0.100   7.264 -1.6402 -1.5367 -2.4261
  584TIP3    H223388   2.949   0.046   7.190  1.0216 -0.2037  0.7242
  585TIP3   OH223389   1.009   6.348   1.620  0.1359  0.7580  0.3185
  585TIP3    H123390   0.916   6.345   1.641  0.2212 -1.5863  0.5964
  585TIP3    H223391   1.048   6.279   1.673  1.7324  0.4012 -1.2326
  586TIP3   OH223392   3.048   0.045   8.126  0.3813 -0.1835 -0.1652
  586TIP3    H123393   3.115   0.107   8.155  0.1309 -1.0913  2.7031
  586TIP3    H223394   2.994   0.095   8.064  2.4803  1.1731 -1.0068
  587TIP3   OH223395   3.461   3.661   2.364 -0.1535  0.2342  0.2365
  587TIP3    H123396   3.368   3.636   2.363 -0.3663  0.9320 -1.8905
  587TIP3    H223397   3.460   3.757   2.364  0.5955  0.2517  0.5757
  588TIP3   OH223398   4.132   3.519   7.698 -0.3452  0.1743 -1.2595
  588TIP3    H123399   4.169   3.561   7.620 -3.7035  0.9816 -2.5967
  588TIP3    H223400   4.075   3.586   7.737 -0.5749 -0.9819  0.5333
  589TIP3   OH223401   1.233   3.247   6.894 -0.2374 -0.3500 -0.0498
  589TIP3    H123402   1.319   3.278   6.924 -1.1443  1.9304  0.4138
  589TIP3    H223403   1.221   3.292   6.810 -0.8926 -0.7981 -0.1941
  590TIP3   OH223404   6.589   1.176   1.601  0.1138 -0.4666 -0.2091
  590TIP3    H123405   6.587   1.083   1.579  1.7795 -0.5154 -0.2598
  590TIP3    H223406   6.646   1.181   1.678  0.2622  0.5486 -0.3818
  591TIP3   OH223407   5.686   2.941   0.266  0.0009 -0.1919  0.1242
  591TIP3    H123408   5.602   2.900   0.246  0.3262 -0.4865 -0.6543
  591TIP3    H223409   5.663   3.021   0.313 -0.6709 -0.8408  0.9428
  592TIP3   OH223410   4.452   3.918   7.998  0.2042  0.1249 -0.4631
  592TIP3    H123411   4.469   3.992   7.940  1.7321 -0.3164 -0.6339
  592TIP3    H223412   4.524   3.857   7.980 -0.8992 -1.3184 -0.1820
  593TIP3   OH223413   3.727   5.060   8.201 -0.2475 -0.1030  0.1859
  593TIP3    H123414   3.711   5.027   8.112 -0.2577  1.5499 -0.4650
  593TIP3    H223415   3.788   5.133   8.189  0.5849 -0.5125  1.6714
  594TIP3   OH223416   5.522   1.217   1.706 -0.3708  0.0546  0.3715
  594TIP3    H123417   5.533   1.268   1.787  2.3944 -0.0973  0.1921
  594TIP3    H223418   5.545   1.279   1.636 -0.4321 -0.4660 -0.1147
  595TIP3   OH223419   3.507   3.419   0.376 -0.5036  0.3776  0.4195
  595TIP3    H123420   3.543   3.465   0.301  0.4963 -2.8836 -1.2732
  595TIP3    H223421   3.416   3.447   0.380 -0.5816  0.6703 -2.0126
  596TIP3   OH223422   4.637   1.205   6.471  0.6341  0.0411 -0.3867
  596TIP3    H123423   4.618   1.284   6.421  0.7693  0.5249  0.3159
  596TIP3    H223424   4.696   1.234   6.540 -2.3354  0.1468  2.3212
  597TIP3   OH223425   2.791   0.243   0.940 -0.4834  0.4597  0.1181
  597TIP3    H123426   2.870   0.195   0.914 -0.9883 -0.0318 -0.5463
  597TIP3    H223427   2.788   0.318   0.882 -1.1797 -0.2069 -0.7281
  598TIP3   OH223428   0.123   3.415   0.387  0.1548  0.3939 -0.2346
  598TIP3    H123429   0.090   3.329   0.363  2.2737 -0.4277 -0.4142
  598TIP3    H223430   0.059   3.476   0.350 -0.7914 -1.0601 -1.1046
  599TIP3   OH223431   0.171   5.493   8.246  0.2084 -0.1993  0.5850
  599TIP3    H123432   0.130   5.435   8.182  4.0070 -0.7318 -1.6510
  599TIP3    H223433   0.162   5.447   8.329 -1.0586 -1.6184 -0.2860
  600TIP3   OH223434   0.468   0.097   6.977  0.0330  0.0036  0.4825
  600TIP3    H123435   0.462   0.007   7.009 -0.7711  0.4021  1.5178
  600TIP3    H223436   0.387   0.110   6.929  0.9556 -0.3851 -1.2404
  601TIP3   OH223437   3.619   3.552   1.870 -0.2532 -0.3634 -0.0134
  601TIP3    H123438   3.710   3.535   1.892  0.3813  2.2662 -0.2904
  601TIP3    H223439   3.570   3.535   1.950  0.9844  1.5755  1.2145
  602TIP3   OH223440   2.513   3.795   6.935 -0.4439  0.6357 -0.1116
  602TIP3    H123441   2.534   3.887   6.918 -1.2948  1.1658  1.4922
  602TIP3    H223442   2.581   3.765   6.994 -1.5907  1.0455  1.4877
  603TIP3   OH223443   5.551   3.025   0.617  0.7450  0.6554  0.4181
  603TIP3    H123444   5.479   3.040   0.555  1.1897 -0.5884 -0.4309
  603TIP3    H223445   5.531   3.083   0.691 -1.1885  0.2907  0.2449
  604TIP3   OH223446   5.290   6.463   6.888 -0.2140  0.0162 -0.3038
  604TIP3    H123447   5.371   6.509   6.865 -1.9386  2.0399 -2.9454
  604TIP3    H223448   5.280   6.396   6.820  0.1441 -1.5790  1.1366
  605TIP3   OH223449   4.918   6.539   2.100 -0.3801  0.2380 -0.4470
  605TIP3    H123450   4.832   6.515   2.065  0.3445 -0.5667 -1.7487
  605TIP3    H223451   4.970   6.559   2.023 -0.0644  3.2650  0.4049
  606TIP3   OH223452   4.410   3.504   1.981  0.0641 -0.0935  0.2461
  606TIP3    H123453   4.494   3.541   2.007  0.6559 -2.4224  1.9231
  606TIP3    H223454   4.405   3.521   1.886  3.2870 -1.4557 -0.2962
  607TIP3   OH223455   5.556   0.429   0.245  0.0030  0.0356 -0.3925
  607TIP3    H123456   5.580   0.366   0.313 -0.4667  1.8502  1.5440
  607TIP3    H223457   5.463   0.413   0.229  0.1040 -0.3615 -0.6225
  608TIP3   OH223458   1.497   3.869   0.154 -0.1027 -0.3087 -0.0020
  608TIP3    H123459   1.521   3.871   0.246 -2.1977  1.1891  0.5739
  608TIP3    H223460   1.487   3.961   0.129 -0.1756 -0.7032 -1.5679
  609TIP3   OH223461   0.518   2.052   8.095  0.5472  0.3010  0.7733
  609TIP3    H123462   0.465   1.979   8.127 -0.0547  1.0264  1.4774
  609TIP3    H223463   0.538   2.103   8.173 -1.0145  2.1560  0.0378
  610TIP3   OH223464   2.201   3.207   7.185 -0.3424  0.8157  0.6894
  610TIP3    H123465   2.176   3.203   7.092 -0.5400 -0.4745  0.7844
  610TIP3    H223466   2.260   3.133   7.197 -0.7698  0.6277  1.7189
  611TIP3   OH223467   4.605   1.771   7.359  0.2775 -0.4189 -0.6910
  611TIP3    H123468   4.672   1.719   7.314  0.6832 -0.1071 -0.4438
  611TIP3    H223469   4.579   1.717   7.434  0.6205 -0.3173 -0.4969
  612TIP3   OH223470   4.320   2.530   7.187 -0.5349 -0.3476  0.3545
  612TIP3    H123471   4.389   2.582   7.145  0.0455 -0.5356  1.0656
  612TIP3    H223472   4.353   2.440   7.184 -1.6514 -0.7556 -1.1248
  613TIP3   OH223473   6.589   4.360   6.834 -0.1556  0.1494  0.2896
  613TIP3    H123474   6.550   4.391   6.752 -0.5932  1.9467  1.1205
  613TIP3    H223475   6.646   4.432   6.861  1.9649 -1.4682  0.3025
  614TIP3   OH223476   3.286   1.995   7.210 -0.2429 -0.2764 -0.3399
  614TIP3    H123477   3.287   2.059   7.281  2.1834 -0.8286  0.2152
  614TIP3    H223478   3.293   2.048   7.130 -3.4056  0.3739 -0.3224
  615TIP3   OH223479   1.436   3.159   6.302 -0.3290 -0.3022  0.0565
  615TIP3    H123480   1.454   3.249   6.274 -0.6107 -0.2735 -0.0357
  615TIP3    H223481   1.397   3.169   6.389 -2.7526 -0.1573 -0.9710
  616TIP3   OH223482   0.564   1.420   1.910  0.0798  0.0965 -0.3472
  616TIP3    H123483   0.534   1.476   1.839 -0.6725  1.3276  0.8770
  616TIP3    H223484   0.513   1.449   1.986  0.4720 -1.5194  0.5814
  617TIP3   OH223485   2.843   5.994   8.164 -0.0621  0.3358 -0.9519
  617TIP3    H123486   2.797   5.988   8.081 -0.7867 -0.6356 -0.4953
  617TIP3    H223487   2.927   5.950   8.149  0.3650  1.3105 -1.5222
  618TIP3   OH223488   0.320   3.440   2.175 -0.5583 -0.3653  0.8833
  618TIP3    H123489   0.352   3.526   2.203  0.0947 -0.5159  0.6292
  618TIP3    H223490   0.225   3.446   2.184 -0.5376  0.4453  0.6950
  619TIP3   OH223491   6.508   3.230   0.859 -0.6840  0.0241  0.3300
  619TIP3    H123492   6.523   3.292   0.788 -1.5276  0.2264  0.3157
  619TIP3    H223493   6.575   3.162   0.847 -0.1890  0.5721 -0.0574
  620TIP3   OH223494   2.319   0.506   1.849  0.2565  0.6820 -0.2510
  620TIP3    H123495   2.296   0.512   1.757  1.0621  0.3251 -0.4850
  620TIP3    H223496   2.243   0.466   1.891  0.1871  0.1239 -0.8905
  621TIP3   OH223497   2.886   4.716   6.711  0.1706  0.2417  0.6366
  621TIP3    H123498   2.916   4.732   6.622 -0.6404  0.8508  0.4636
  621TIP3    H223499   2.791   4.728   6.708 -0.0369 -1.0812  1.2935
  622TIP3   OH223500   3.306   2.715   8.539  0.7452 -0.3844 -0.1504
  622TIP3    H123501   3.369   2.659   8.586 -1.5360 -2.8551  0.1957
  622TIP3    H223502   3.264   2.656   8.477  0.4091  1.7723 -2.1018
  623TIP3   OH223503   2.098   3.944   0.216  0.1955  0.5982  0.9594
  623TIP3    H123504   2.151   3.897   0.153  0.2491 -0.0252  1.4594
  623TIP3    H223505   2.085   4.031   0.178  0.9274  0.4987  0.4876
  624TIP3   OH223506   3.040   4.710   7.628  0.3718 -0.0063  0.6840
  624TIP3    H123507   3.059   4.795   7.586 -0.2268 -0.9276 -1.6114
  624TIP3    H223508   2.944   4.709   7.637  0.0808 -1.4210 -1.7418
  625TIP3   OH223509   0.366   3.336   1.176  0.3987 -0.0068 -0.0270
  625TIP3    H123510   0.391   3.425   1.199 -2.8210  0.8511  0.5657
  625TIP3    H223511   0.301   3.311   1.242  1.2660 -2.8780 -0.1027
  626TIP3   OH223512   6.817   4.541   6.795 -0.2517  0.1170  0.2774
  626TIP3    H123513   6.911   4.542   6.816 -0.0562 -0.2436 -0.5292
  626TIP3    H223514   6.813   4.501   6.708 -1.2625 -1.1213  0.8632
  627TIP3   OH223515   4.901   6.818   7.847  0.7704 -0.4018  0.1153
  627TIP3    H123516   4.899   6.758   7.921  0.7026 -0.0548  0.3961
  627TIP3    H223517   4.871   6.901   7.883  0.3042 -0.3448 -0.4046
  628TIP3   OH223518   0.522   4.548   8.806 -0.2513  0.4315  0.4154
  628TIP3    H123519   0.605   4.570   8.765 -0.8152  1.6936 -0.1010
  628TIP3    H223520   0.546   4.493   8.881  0.9486 -0.1153 -0.3392
  629TIP3   OH223521   0.220   2.975   1.024  0.0674  0.1668  0.7446
  629TIP3    H123522   0.199   2.970   1.118  0.0926  0.3115  0.7574
  629TIP3    H223523   0.179   2.897   0.987 -1.1987  0.8563  0.6361
  630TIP3   OH223524   3.793   3.838   8.428 -0.0469  0.3262 -0.2588
  630TIP3    H123525   3.830   3.873   8.509 -1.5625  0.2006  0.5393
  630TIP3    H223526   3.765   3.749   8.451  0.8199 -0.2577 -1.3530
  631TIP3   OH223527   0.583   2.102   0.740 -0.0837 -0.0810 -0.5515
  631TIP3    H123528   0.570   2.096   0.646 -3.5949 -0.8981 -0.1490
  631TIP3    H223529   0.553   2.190   0.763 -0.6427 -0.3830 -0.0715
  632TIP3   OH223530   1.280   1.250   6.890 -0.2257  0.9348  0.1560
  632TIP3    H123531   1.312   1.330   6.849  0.5532  0.7500  0.3920
  632TIP3    H223532   1.193   1.237   6.852  0.4673  0.7598 -1.4494
  633TIP3   OH223533   6.154   3.194   2.488  0.4769  0.3195 -0.4886
  633TIP3    H123534   6.112   3.195   2.574  0.2048  0.0326 -0.6156
  633TIP3    H223535   6.081   3.193   2.426  0.6726  0.4149 -0.7204
  634TIP3   OH223536   5.316   0.071   7.719  0.4693 -0.2272  0.3768
  634TIP3    H123537   5.277   0.131   7.783  0.5039  0.3969 -0.1720
  634TIP3    H223538   5.282  -0.015   7.743 -0.2446  0.1284  0.6853
  635TIP3   OH223539   2.924   0.650   1.763 -0.1763 -0.0561  0.4346
  635TIP3    H123540   2.830   0.657   1.748 -0.4685  0.4171  2.3111
  635TIP3    H223541   2.932   0.607   1.848  1.3370 -0.8632 -0.0730
  636TIP3   OH223542   6.365   5.406   7.838 -0.4171 -0.2770  0.3187
  636TIP3    H123543   6.281   5.452   7.843 -0.8597 -0.9081 -0.7936
  636TIP3    H223544   6.417   5.442   7.909 -1.7741 -0.1555  1.2803
  637TIP3   OH223545   4.990   4.351   7.858  0.0011  0.1968  0.3288
  637TIP3    H123546   5.043   4.430   7.866  0.5261  0.2471 -2.5651
  637TIP3    H223547   4.900   4.382   7.861  0.0458  0.3261  3.3924
  638TIP3   OH223548   6.659   1.053   6.800  0.1327 -0.5342 -1.0664
  638TIP3    H123549   6.734   1.051   6.859 -1.2273  1.3790  0.8560
  638TIP3    H223550   6.658   1.142   6.765 -0.5628 -0.8927 -2.0172
  639TIP3   OH223551   3.584   3.826   8.245 -0.1906  0.2258  0.6479
  639TIP3    H123552   3.616   3.913   8.223  1.1967  0.0391  1.7339
  639TIP3    H223553   3.659   3.783   8.288 -0.8543 -1.4730  0.2046
  640TIP3   OH223554   2.685   3.367   1.877  0.1494 -0.1170 -0.6723
  640TIP3    H123555   2.774   3.384   1.909 -0.3061  0.6135  0.2559
  640TIP3    H223556   2.642   3.323   1.949 -1.0885  2.1223  0.0559
  641TIP3   OH223557   3.378   4.811   0.938 -0.2599  0.3916  0.1487
  641TIP3    H123558   3.309   4.746   0.923  0.4329 -0.2738 -0.2672
  641TIP3    H223559   3.413   4.828   0.850  1.0245 -0.3286  0.5066
  642TIP3   OH223560   4.416   6.594   0.695 -0.2028 -0.0136 -0.9684
  642TIP3    H123561   4.506   6.594   0.663 -0.3167  0.0573 -1.2972
  642TIP3    H223562   4.396   6.502   0.713  0.3139  0.0906  0.2076
  643TIP3   OH223563   5.876   2.983   8.414 -0.1322  0.3521  0.6599
  643TIP3    H123564   5.862   3.056   8.475 -1.2155  0.4228  0.3461
  643TIP3    H223565   5.820   3.003   8.340 -0.1598 -0.6226  0.4100
  644TIP3   OH223566   6.515   4.186   0.482  0.2504  0.1024 -0.5856
  644TIP3    H123567   6.499   4.114   0.543 -2.7733  0.2257 -1.0671
  644TIP3    H223568   6.483   4.264   0.528  2.4436  1.0186 -0.5132
  645TIP3   OH223569   3.601   1.671   1.429  0.5508  0.6083  0.5989
  645TIP3    H123570   3.562   1.583   1.426  0.8320  0.5046 -1.0833
  645TIP3    H223571   3.529   1.730   1.406  0.1973  0.9189  2.3619
  646TIP3   OH223572   6.543   0.059   0.224 -0.4634 -0.1203  0.3457
  646TIP3    H123573   6.455   0.036   0.254 -1.1495 -0.3905 -1.7112
  646TIP3    H223574   6.582  -0.025   0.200 -0.7634  0.2192 -1.5072
  647TIP3   OH223575   0.901   1.287   8.149  0.2118 -0.4540 -0.1345
  647TIP3    H123576   0.885   1.271   8.242  1.0742 -0.1394  0.0728
  647TIP3    H223577   0.813   1.292   8.111 -0.1923  0.4272  0.8376
  648TIP3   OH223578   0.282   5.740   0.907  0.2240 -0.0586 -0.1458
  648TIP3    H123579   0.278   5.716   1.000  0.7886 -1.3830 -0.4366
  648TIP3    H223580   0.242   5.666   0.862 -1.1766  1.1237 -0.9092
  649TIP3   OH223581   3.765   0.392   1.888  0.2016  0.4066 -0.7124
  649TIP3    H123582   3.716   0.324   1.934  0.2167  0.0425 -1.2362
  649TIP3    H223583   3.808   0.347   1.816  1.5433  0.6708 -0.1024
  650TIP3   OH223584   5.653   5.930   1.876 -0.2244 -0.4038  0.4635
  650TIP3    H123585   5.744   5.930   1.846  0.3077 -1.0833  1.9596
  650TIP3    H223586   5.619   5.844   1.853 -1.5148  0.8465 -2.8118
  651TIP3   OH223587   1.528   1.195   1.199  0.4101  0.2009  0.6699
  651TIP3    H123588   1.440   1.199   1.236 -0.9331 -2.5526 -1.8090
  651TIP3    H223589   1.516   1.217   1.107  1.9728 -1.6630 -0.0566
  652TIP3   OH223590   4.451   3.641   0.752  0.5099  0.1408  0.6158
  652TIP3    H123591   4.492   3.639   0.839  1.3348 -1.3985  0.2311
  652TIP3    H223592   4.515   3.601   0.694 -0.7325 -0.4887 -0.3839
  653TIP3   OH223593   4.951   0.467   0.045 -0.2451 -0.1003  0.1599
  653TIP3    H123594   5.028   0.484   0.099  1.1073  1.4446 -2.0631
  653TIP3    H223595   4.879   0.455   0.107  1.0745  2.1373  2.2973
  654TIP3   OH223596   3.387   2.921   7.269 -0.2921  0.4135  0.2194
  654TIP3    H123597   3.313   2.930   7.329 -0.6192 -0.6583  0.0003
  654TIP3    H223598   3.373   2.989   7.203 -0.9895  0.3368  0.2779
  655TIP3   OH223599   6.295   5.129   6.837  0.3719 -0.1940 -0.5941
  655TIP3    H123600   6.379   5.173   6.823  0.3690 -0.2787 -0.9021
  655TIP3    H223601   6.275   5.090   6.752  0.2756 -0.6146 -0.3855
  656TIP3   OH223602   2.688   1.244   8.550  0.3488 -0.9365  0.8174
  656TIP3    H123603   2.675   1.266   8.458  0.1292  0.4332  1.1468
  656TIP3    H223604   2.727   1.156   8.549  3.3918  0.2560 -0.7608
  657TIP3   OH223605   0.590   5.402   8.677  0.8754  0.2033 -0.1915
  657TIP3    H123606   0.504   5.364   8.665  1.9254 -1.8204 -2.0236
  657TIP3    H223607   0.574   5.482   8.727 -2.0136 -0.1475 -0.3810
  658TIP3   OH223608   5.331   2.288   8.595  0.3000 -0.0429 -0.3773
  658TIP3    H123609   5.256   2.322   8.644  1.3823 -0.0362  1.3529
  658TIP3    H223610   5.298   2.209   8.552 -0.6225 -0.2030  0.6046
  659TIP3   OH223611   2.164   1.518   1.400  0.0635 -0.0883 -0.0002
  659TIP3    H123612   2.183   1.553   1.313 -0.6934  0.7316  0.1430
  659TIP3    H223613   2.135   1.429   1.385  1.1138 -0.3696 -0.4720
  660TIP3   OH223614   3.586   4.680   6.304 -0.1353 -0.0223 -0.5948
  660TIP3    H123615   3.666   4.631   6.321 -0.5157 -0.3543  0.2874
  660TIP3    H223616   3.611   4.743   6.236  0.8035 -0.2910 -0.5184
  661TIP3   OH223617   5.504   5.101   8.038  1.0021 -0.3644  0.0110
  661TIP3    H123618   5.439   5.033   8.057 -1.0240  0.7113 -2.4371
  661TIP3    H223619   5.495   5.163   8.110 -0.3214 -0.5469  0.0348
  662TIP3   OH223620   6.350   2.932   6.971 -0.0211  0.8180 -0.4049
  662TIP3    H123621   6.266   2.963   7.006 -0.3318 -0.6657  0.2105
  662TIP3    H223622   6.331   2.845   6.936  1.3796  0.2107  0.2826
  663TIP3   OH223623   5.651   4.265   2.690 -0.5173  0.1962 -0.7443
  663TIP3    H123624   5.718   4.301   2.747  0.8849 -0.2452 -2.0565
  663TIP3    H223625   5.574   4.321   2.705  0.0036  0.4681  1.0556
  664TIP3   OH223626   2.325   0.586   2.274 -0.3370 -0.2453 -0.5866
  664TIP3    H123627   2.363   0.498   2.282 -1.4327 -0.5773  2.1678
  664TIP3    H223628   2.378   0.640   2.332 -1.3075  0.2952 -0.1954
  665TIP3   OH223629   1.165   0.325   6.810 -0.4141  0.5427  0.3526
  665TIP3    H123630   1.088   0.328   6.753 -0.3966 -0.9151  0.1971
  665TIP3    H223631   1.139   0.268   6.882 -0.5846  2.7391  2.1013
  666TIP3   OH223632   3.391   2.542   1.775 -0.2267  0.0705 -0.0092
  666TIP3    H123633   3.443   2.591   1.839  0.1572  1.2436 -1.1813
  666TIP3    H223634   3.302   2.545   1.810  0.2784 -1.0515  1.4833
  667TIP3   OH223635   1.832   1.466   0.619  0.4548 -0.4199 -0.3555
  667TIP3    H123636   1.817   1.416   0.699  0.8321 -0.6730 -0.4411
  667TIP3    H223637   1.759   1.527   0.615  1.1892  0.5744  0.9268
  668TIP3   OH223638   0.061   2.407   0.045 -0.2044 -0.1161  0.3923
  668TIP3    H123639   0.005   2.383   0.118  0.3335  0.1711  0.9051
  668TIP3    H223640   0.128   2.339   0.042 -0.0595  0.0265  0.3523
  669TIP3   OH223641   1.038   2.222   0.854  0.4910  0.5791  0.7477
  669TIP3    H123642   0.999   2.232   0.768  0.8961  0.4818  0.5475
  669TIP3    H223643   1.076   2.308   0.873 -0.2528  0.8241  1.1652
  670TIP3   OH223644   3.511   2.511   8.190  0.1787  0.0620  0.8042
  670TIP3    H123645   3.579   2.512   8.122 -0.6106  0.3083  0.0156
  670TIP3    H223646   3.529   2.430   8.239  0.2161 -0.5860 -0.2458
  671TIP3   OH223647   3.853   6.534   0.451 -0.3340  0.2870 -0.2066
  671TIP3    H123648   3.936   6.493   0.477 -0.2781  0.3630 -0.2669
  671TIP3    H223649   3.843   6.513   0.358 -0.6943 -0.2618 -0.0542
  672TIP3   OH223650   2.416   6.528   7.815  0.2901 -0.1713 -0.4670
  672TIP3    H123651   2.417   6.556   7.907  0.8374 -0.5150 -0.3610
  672TIP3    H223652   2.509   6.524   7.790  0.5011 -4.0243  0.2207
  673TIP3   OH223653   4.932   3.158   1.418  0.5867  0.1009  0.0454
  673TIP3    H123654   4.883   3.203   1.487  3.2060  0.8179  1.5817
  673TIP3    H223655   5.022   3.186   1.431  1.5517 -1.6714 -2.1988
  674TIP3   OH223656   3.616   4.276   2.720 -0.5902 -0.3396  0.1667
  674TIP3    H123657   3.632   4.185   2.693 -0.8932 -1.0195  2.1274
  674TIP3    H223658   3.523   4.290   2.701 -0.1308  0.2646 -1.9354
  675TIP3   OH223659   5.113   4.782   0.428 -0.1471 -0.2149 -0.3115
  675TIP3    H123660   5.060   4.857   0.453  0.6941  0.0339  0.8380
  675TIP3    H223661   5.150   4.805   0.343 -1.0668  0.0286 -0.6550
  676TIP3   OH223662   5.084   2.366   1.608 -0.6395  0.0691 -0.1801
  676TIP3    H123663   5.018   2.356   1.677 -2.6101  0.9939 -1.8130
  676TIP3    H223664   5.098   2.461   1.602  0.6779 -0.0987 -0.0511
  677TIP3   OH223665   1.687   1.911   1.187  0.3395  0.0081 -0.0570
  677TIP3    H123666   1.754   1.975   1.210 -0.6866  0.5959  1.5254
  677TIP3    H223667   1.604   1.959   1.194 -0.4926 -1.4974  1.4376
  678TIP3   OH223668   2.846   5.020   8.522  0.2446  0.3782  0.6024
  678TIP3    H123669   2.764   4.990   8.483  1.7304 -2.1812 -0.8419
  678TIP3    H223670   2.819   5.080   8.592 -2.7612  0.6579 -0.6246
  679TIP3   OH223671   5.093   0.754   7.375 -0.8926  0.4599  0.1148
  679TIP3    H123672   5.161   0.821   7.378  1.1032 -1.4200 -0.5713
  679TIP3    H223673   5.092   0.725   7.284 -3.0560  0.8082 -0.0183
  680TIP3   OH223674   3.892   1.837   1.640 -0.0368 -0.2381 -0.4032
  680TIP3    H123675   3.858   1.748   1.645  0.1860 -0.4029 -1.4047
  680TIP3    H223676   3.840   1.887   1.702  0.7461 -1.3383  1.1965
  681TIP3   OH223677   6.105   2.095   0.061  0.0256  0.1806 -0.0974
  681TIP3    H123678   6.169   2.165   0.071 -1.8565  1.9348  0.3120
  681TIP3    H223679   6.088   2.065   0.150 -0.0136 -0.0009 -0.1653
  682TIP3   OH223680   4.149   5.942   6.324 -0.4727 -0.5663  0.6387
  682TIP3    H123681   4.058   5.927   6.301 -1.1382 -0.1305  2.7157
  682TIP3    H223682   4.159   6.038   6.324  0.7974 -0.6012 -2.2086
  683TIP3   OH223683   5.765   6.156   0.838  0.1556  0.8860  0.0189
  683TIP3    H123684   5.739   6.198   0.920 -0.8859 -0.2103  0.2758
  683TIP3    H223685   5.747   6.222   0.771  0.4600  1.5796  0.6059
  684TIP3   OH223686   0.196   2.388   7.863  0.0979 -0.3534 -0.2873
  684TIP3    H123687   0.119   2.363   7.813  0.2453  0.0893 -0.7412
  684TIP3    H223688   0.270   2.353   7.814  0.2440  0.1052 -0.4036
  685TIP3   OH223689   6.630   5.130   2.442 -0.2820 -0.3934 -0.4334
  685TIP3    H123690   6.604   5.214   2.478  0.1131 -0.2397 -0.4963
  685TIP3    H223691   6.658   5.149   2.352 -1.9197 -0.8824 -1.0767
  686TIP3   OH223692   6.357   4.002   7.179 -0.0257  0.0298 -0.1219
  686TIP3    H123693   6.425   4.031   7.119  0.2287 -1.9680 -0.8805
  686TIP3    H223694   6.354   3.907   7.168 -2.7451  0.0083  0.0872
  687TIP3   OH223695   4.917   2.581   0.458  0.3097 -0.1220 -0.2573
  687TIP3    H123696   5.007   2.604   0.435  0.0431 -0.0388 -1.2563
  687TIP3    H223697   4.911   2.599   0.552  1.0096  0.9324 -0.3971
  688TIP3   OH223698   6.638   6.063   7.130 -0.1015  0.1359 -0.5912
  688TIP3    H123699   6.628   6.074   7.035  3.5333  0.7049 -1.0699
  688TIP3    H223700   6.720   6.016   7.140 -0.5922 -0.2895  2.3098
  689TIP3   OH223701   1.293   4.841   8.601 -0.3881 -0.9408 -0.2302
  689TIP3    H123702   1.242   4.872   8.526  0.3949 -2.5359 -1.4630
  689TIP3    H223703   1.344   4.918   8.628 -0.2384 -0.5023 -1.7055
  690TIP3   OH223704   6.436   2.156   6.666  0.0933  0.7583  0.1166
  690TIP3    H123705   6.449   2.195   6.580  0.2945  2.0707  0.7178
  690TIP3    H223706   6.345   2.127   6.665  1.3024 -3.8477 -2.2822
  691TIP3   OH223707   3.541   6.222   7.237 -0.3005  0.7238  0.2541
  691TIP3    H123708   3.615   6.171   7.271 -0.4519  0.6644  0.4935
  691TIP3    H223709   3.467   6.198   7.293 -0.2066  1.7712  0.8491
  692TIP3   OH223710   3.884   5.239   7.985  0.6106 -0.3186 -0.0883
  692TIP3    H123711   3.912   5.157   7.946  1.2615  0.0791 -0.4762
  692TIP3    H223712   3.799   5.258   7.945  0.6556 -0.5891 -0.3077
  693TIP3   OH223713   6.772   3.227   0.263 -0.1297 -0.1699 -0.2021
  693TIP3    H123714   6.786   3.212   0.169 -0.1543  1.2959 -0.4639
  693TIP3    H223715   6.690   3.183   0.282 -1.0329  0.9767 -1.2837
  694TIP3   OH223716   2.111   1.672   2.155 -0.7292  0.7467  0.6600
  694TIP3    H123717   2.040   1.610   2.136  1.4303 -1.4389 -0.9400
  694TIP3    H223718   2.115   1.728   2.077 -0.6219  0.7690  0.6817
  695TIP3   OH223719   4.643   4.432   8.842 -0.1285  0.3550  0.2564
  695TIP3    H123720   4.610   4.374   8.911  2.2397  1.0545  2.1438
  695TIP3    H223721   4.694   4.498   8.889  0.8176  1.4502 -2.1344
  696TIP3   OH223722   1.052   2.055   8.194 -0.0233  0.5312 -0.1101
  696TIP3    H123723   1.146   2.044   8.204 -0.1457  0.2876  0.8286
  696TIP3    H223724   1.028   2.125   8.256 -0.5970 -0.0766  0.3733
  697TIP3   OH223725   1.218   6.534   1.285 -0.0948  0.4261 -0.7270
  697TIP3    H123726   1.212   6.439   1.279 -0.6170  0.4347 -0.3960
  697TIP3    H223727   1.146   6.559   1.343  1.3351  0.8126  0.9914
  698TIP3   OH223728   5.228   0.015   1.838  0.1845  0.3041 -0.1617
  698TIP3    H123729   5.260  -0.067   1.876  1.9098  0.4619 -1.2087
  698TIP3    H223730   5.267   0.018   1.750 -0.8326  1.6743 -0.6017
  699TIP3   OH223731   1.619   4.902   8.184 -0.2145 -0.9763  0.2337
  699TIP3    H123732   1.621   4.848   8.264 -0.7995  0.1404  1.0197
  699TIP3    H223733   1.704   4.885   8.142 -0.2531 -2.2584  0.6107
  700TIP3   OH223734   5.123   6.056   1.594  0.2260  0.4444  0.8615
  700TIP3    H123735   5.131   6.051   1.689 -0.9873  2.0817  1.1063
  700TIP3    H223736   5.033   6.029   1.576  0.9492 -1.5320 -0.0360
  701TIP3   OH223737   0.831   0.165   8.047  0.3070 -0.1165  0.2272
  701TIP3    H123738   0.760   0.168   8.111  0.2668  1.7023  0.1454
  701TIP3    H223739   0.786   0.163   7.962  0.3661 -1.1693  0.2097
  702TIP3   OH223740   2.001   0.551   7.852  0.1486  0.5433 -0.7044
  702TIP3    H123741   1.986   0.486   7.920  0.4201  0.8910 -0.3094
  702TIP3    H223742   2.035   0.501   7.778 -1.6218 -0.0677 -1.1515
  703TIP3   OH223743   4.691   5.228   0.793  0.3423 -0.2093 -0.3370
  703TIP3    H123744   4.634   5.293   0.832  0.8135  0.1825 -0.2986
  703TIP3    H223745   4.676   5.148   0.844  0.7581  0.2245  0.4694
  704TIP3   OH223746   4.284   3.882   2.105 -0.4035  0.2253  0.4976
  704TIP3    H123747   4.354   3.823   2.132 -0.7039 -0.4752 -0.2007
  704TIP3    H223748   4.305   3.966   2.145  0.4763 -0.1513  0.8305
  705TIP3   OH223749   3.958   5.516   6.424 -0.4033 -0.4037 -0.2461
  705TIP3    H123750   3.905   5.444   6.390  0.0418 -1.4264  1.1491
  705TIP3    H223751   4.045   5.478   6.439 -0.3508  0.2198  1.1771
  706TIP3   OH223752   6.241   5.731   1.385  0.3724 -0.1891 -0.0210
  706TIP3    H123753   6.245   5.680   1.304  1.5272  0.6864 -0.5502
  706TIP3    H223754   6.210   5.669   1.451  1.6894 -1.5670 -0.6416
  707TIP3   OH223755   4.802   5.504   8.095 -0.0960 -0.3987  0.0291
  707TIP3    H123756   4.794   5.420   8.050  1.1107 -1.0675  1.0009
  707TIP3    H223757   4.722   5.511   8.147 -0.0812 -1.0873  0.1561
  708TIP3   OH223758   4.247   2.067   2.600 -0.0984  0.4033 -0.9703
  708TIP3    H123759   4.309   2.080   2.673  0.6225  0.3456 -1.5594
  708TIP3    H223760   4.237   1.972   2.594 -1.4598  0.4437  0.1048
  709TIP3   OH223761   1.924   1.604   0.881 -0.1549  0.0866  0.1704
  709TIP3    H123762   1.929   1.675   0.817 -0.1851  1.1165  1.2898
  709TIP3    H223763   2.003   1.552   0.865 -0.1786  0.2998 -0.7170
  710TIP3   OH223764   0.787   6.135   0.698 -0.1871 -0.4514 -0.8205
  710TIP3    H123765   0.699   6.141   0.660 -0.3969 -2.1507 -0.6902
  710TIP3    H223766   0.838   6.199   0.649 -1.4562  0.5085 -0.9637
  711TIP3   OH223767   4.363   0.615   2.267  0.2707 -0.0107  0.2137
  711TIP3    H123768   4.448   0.628   2.310  0.3426  0.9740 -0.2009
  711TIP3    H223769   4.298   0.646   2.330  0.3307  0.7601 -0.0934
  712TIP3   OH223770   3.035   3.456   1.480  0.7325  0.1428  0.5522
  712TIP3    H123771   3.021   3.364   1.454  0.1661  0.8776 -2.1232
  712TIP3    H223772   3.124   3.475   1.449  0.0077  1.0916 -1.0367
  713TIP3   OH223773   6.825   0.953   6.428  0.2355 -0.0379 -0.0231
  713TIP3    H123774   6.808   0.983   6.339 -0.2311  0.5307  0.2486
  713TIP3    H223775   6.748   0.902   6.453  0.2682 -0.0159  0.1280
  714TIP3   OH223776   3.996   1.874   0.608  0.4941 -0.0312 -0.3001
  714TIP3    H123777   3.962   1.897   0.695  0.7653  0.4678 -0.3236
  714TIP3    H223778   3.947   1.930   0.548 -0.7540 -1.4068 -0.6294
  715TIP3   OH223779   1.299   6.340   8.417 -0.0868 -0.7176  0.5330
  715TIP3    H123780   1.283   6.283   8.342 -1.2861 -2.8003  2.2684
  715TIP3    H223781   1.290   6.429   8.382  3.2293 -1.3729 -2.5941
  716TIP3   OH223782   2.089   1.255   8.372 -0.1406 -0.5917 -0.5828
  716TIP3    H123783   2.059   1.258   8.463  0.4605 -0.0438 -0.3934
  716TIP3    H223784   2.180   1.228   8.378 -0.5513 -2.2283 -1.1552
  717TIP3   OH223785   0.408   2.470   1.834  0.0329 -0.0120 -0.4338
  717TIP3    H123786   0.454   2.441   1.755 -1.1998 -0.1275 -1.1460
  717TIP3    H223787   0.462   2.438   1.906  0.3843 -1.3131 -1.2254
  718TIP3   OH223788   6.234   6.502   0.649  0.3476  0.2047 -0.0785
  718TIP3    H123789   6.263   6.425   0.600 -1.3058 -0.6775  0.2852
  718TIP3    H223790   6.308   6.524   0.706  1.0150 -0.8127 -0.5414
  719TIP3   OH223791   3.619   6.460   8.096 -0.5335 -0.2684  0.2959
  719TIP3    H123792   3.629   6.549   8.131 -3.5725 -0.0927  0.9615
  719TIP3    H223793   3.558   6.469   8.023 -1.3399 -1.8508  0.7199
  720TIP3   OH223794   4.297   6.000   8.484 -0.3190 -0.5051 -0.3576
  720TIP3    H123795   4.273   5.992   8.576 -0.6953 -0.3627 -0.4423
  720TIP3    H223796   4.253   6.080   8.455 -0.5812 -0.8012 -0.7835
  721TIP3   OH223797   3.081   4.937   8.383  0.5425  0.1053  0.5482
  721TIP3    H123798   3.092   4.842   8.380  1.9635  0.2503  0.6966
  721TIP3    H223799   3.000   4.950   8.432 -0.5609 -1.0670 -0.8616
  722TIP3   OH223800   0.353   2.030   1.384  0.0796 -0.0959 -0.1810
  722TIP3    H123801   0.309   2.087   1.321  0.2452  0.3652  0.1127
  722TIP3    H223802   0.367   2.086   1.461 -0.6541 -0.8035  0.5012
  723TIP3   OH223803   4.711   0.029   0.840  0.1107  0.2314 -0.4059
  723TIP3    H123804   4.755  -0.047   0.878  0.3226  0.5878  0.0684
  723TIP3    H223805   4.708   0.093   0.911 -0.2173  0.6040 -0.7533
  724TIP3   OH223806   0.874   6.372   1.340 -0.3444 -0.5648  0.1557
  724TIP3    H123807   0.951   6.347   1.289  1.2122  1.1366  1.5164
  724TIP3    H223808   0.835   6.290   1.367  1.9352 -1.5477  0.7363
  725TIP3   OH223809   5.674   2.350   2.476 -0.3011  0.1738 -0.3801
  725TIP3    H123810   5.657   2.266   2.434 -0.7773  0.3997 -0.6518
  725TIP3    H223811   5.761   2.375   2.445 -1.1572  0.9550 -2.3110
  726TIP3   OH223812   1.760   0.246   7.755  0.3393 -0.1984 -0.1172
  726TIP3    H123813   1.810   0.173   7.721  1.8123  0.8322 -0.2474
  726TIP3    H223814   1.747   0.303   7.679  1.9399  1.1653  0.5612
  727TIP3   OH223815   5.422   4.391   0.481  0.3528 -0.4131 -0.0323
  727TIP3    H123816   5.367   4.313   0.491  2.3346 -2.2141 -2.0029
  727TIP3    H223817   5.365   4.455   0.438 -1.0097 -1.1617  0.6028
  728TIP3   OH223818   2.971   0.812   8.689  0.2134  0.0237  0.0942
  728TIP3    H123819   2.984   0.904   8.713  2.9355 -0.2538  0.0213
  728TIP3    H223820   2.957   0.767   8.772  1.9450  0.1382  0.4998
  729TIP3   OH223821   1.506   4.649   1.510 -0.5982 -0.4969  0.3012
  729TIP3    H123822   1.429   4.667   1.564 -1.1223  0.8308 -0.8299
  729TIP3    H223823   1.471   4.641   1.421  0.2658 -2.5063  0.0944
  730TIP3   OH223824   4.642   2.406   7.315 -0.9858 -0.2158  0.0899
  730TIP3    H123825   4.588   2.356   7.255 -0.0977  1.4432 -2.2459
  730TIP3    H223826   4.581   2.464   7.360 -1.4842 -0.3463 -0.4065
  731TIP3   OH223827   4.502   2.777   0.913 -0.3385 -0.0556  0.5372
  731TIP3    H123828   4.464   2.822   0.838  1.4550  3.3213  1.4544
  731TIP3    H223829   4.559   2.710   0.875  0.1436  1.2375 -1.1251
  732TIP3   OH223830   5.775   2.749   8.512 -0.4249 -0.0624  0.5047
  732TIP3    H123831   5.842   2.741   8.579 -0.0400  0.5364  0.1920
  732TIP3    H223832   5.795   2.831   8.467  1.1047 -1.8057 -2.2642
  733TIP3   OH223833   3.324   3.223   7.307 -0.0167  0.8749  0.2603
  733TIP3    H123834   3.239   3.264   7.319 -0.2196  0.6278 -0.3008
  733TIP3    H223835   3.318   3.179   7.222  0.7130  0.9698  0.1505
  734TIP3   OH223836   1.286   4.130   1.235  0.6422  0.1838 -0.1763
  734TIP3    H123837   1.321   4.196   1.295  1.6173 -0.2651 -0.2393
  734TIP3    H223838   1.320   4.156   1.149 -1.0079  1.0139 -0.6224
  735TIP3   OH223839   4.503   3.440   6.973  0.3976  0.0119 -0.1108
  735TIP3    H123840   4.517   3.476   7.061 -0.2581  1.1133 -0.4466
  735TIP3    H223841   4.513   3.345   6.985  0.1096  0.1184  1.1950
  736TIP3   OH223842   3.577   4.836   0.710 -0.3093 -0.0327  0.0311
  736TIP3    H123843   3.635   4.893   0.761 -0.8512 -0.6997  1.4374
  736TIP3    H223844   3.636   4.772   0.669  0.1732  0.7712 -0.5538
  737TIP3   OH223845   0.533   6.756   0.336 -0.2567  0.0652  0.3646
  737TIP3    H123846   0.593   6.748   0.261  0.9851 -0.2110  1.3471
  737TIP3    H223847   0.452   6.716   0.305  0.7785 -1.6698 -0.2805
  738TIP3   OH223848   0.105   2.226   1.989  0.4562 -0.4989 -0.9022
  738TIP3    H123849   0.125   2.284   1.916  1.5928  0.2775 -0.0102
  738TIP3    H223850   0.134   2.139   1.961  0.5879 -0.2673 -1.4820
  739TIP3   OH223851   1.076   1.461   8.258 -0.3094 -0.3545  0.2418
  739TIP3    H123852   1.157   1.417   8.282  0.6349  1.2733  0.1542
  739TIP3    H223853   1.016   1.390   8.234  0.3383 -1.7378  2.4359
  740TIP3   OH223854   0.409   3.793   7.907  0.3616  0.4055 -0.2379
  740TIP3    H123855   0.423   3.815   7.815 -1.3088 -0.7248 -0.8088
  740TIP3    H223856   0.481   3.733   7.929 -0.1315 -0.6193 -1.3139
  741TIP3   OH223857   1.070   0.436   7.331 -0.3444 -0.1054 -0.4711
  741TIP3    H123858   1.106   0.470   7.413  1.9760  1.2686 -1.9411
  741TIP3    H223859   1.022   0.510   7.293 -0.0453 -0.2233 -1.0902
  742TIP3   OH223860   4.460   6.195   6.559  0.6744  0.5419  0.4735
  742TIP3    H123861   4.401   6.235   6.623 -2.7169 -0.6820 -1.6325
  742TIP3    H223862   4.438   6.101   6.562  1.5834  0.2261 -1.3266
  743TIP3   OH223863   5.459   1.098   8.443 -0.1006 -0.2350  0.4523
  743TIP3    H123864   5.447   1.171   8.382 -0.0595 -0.0332  0.6816
  743TIP3    H223865   5.490   1.140   8.524  0.6311 -0.5799  0.3593
  744TIP3   OH223866   3.219   1.555   1.838  0.2066  0.2843  0.6856
  744TIP3    H123867   3.172   1.492   1.783  0.9747 -0.7344  1.1475
  744TIP3    H223868   3.303   1.567   1.793  0.2580  0.5854  0.8632
  745TIP3   OH223869   5.994   2.558   0.130 -0.3095  0.1310 -0.4399
  745TIP3    H123870   5.950   2.478   0.162 -0.5913  0.8724  1.1390
  745TIP3    H223871   5.923   2.622   0.121  0.1696  0.7906  0.3207
  746TIP3   OH223872   5.300   0.796   0.590 -0.1330 -0.4664 -0.0008
  746TIP3    H123873   5.321   0.728   0.526 -1.4242 -0.0282 -0.9319
  746TIP3    H223874   5.211   0.823   0.568  0.4990  1.8501  0.0571
  747TIP3   OH223875   2.119   2.156   0.638  0.4255  0.0708 -0.3706
  747TIP3    H123876   2.182   2.228   0.646  0.6860 -0.2104  0.1951
  747TIP3    H223877   2.125   2.110   0.722  2.3407 -2.3114 -1.6909
  748TIP3   OH223878   6.562   2.234   7.043 -0.4666 -0.1209 -0.2164
  748TIP3    H123879   6.496   2.211   7.108  1.3607 -1.6450  1.2591
  748TIP3    H223880   6.596   2.318   7.073  0.1350 -0.6571  0.6775
  749TIP3   OH223881   0.501   6.747   7.948 -0.1547 -0.5384  0.2051
  749TIP3    H123882   0.552   6.736   8.029  0.1326  0.1382  0.1250
  749TIP3    H223883   0.533   6.829   7.911 -1.3462 -0.0504  0.1928
  750TIP3   OH223884   3.351   2.506   0.097 -0.0578 -0.0936 -0.1585
  750TIP3    H123885   3.327   2.431   0.150 -0.1592  0.3673  0.4562
  750TIP3    H223886   3.269   2.534   0.055 -0.1169 -0.0234  0.0040
  751TIP3   OH223887   1.538   5.843   8.787 -0.2043 -0.1345  0.7290
  751TIP3    H123888   1.474   5.887   8.843  0.0787 -0.6921  1.5084
  751TIP3    H223889   1.581   5.780   8.844  0.6489 -0.1697  0.0769
  752TIP3   OH223890   6.669   2.301   0.238  0.2052  0.6928 -0.6870
  752TIP3    H123891   6.591   2.307   0.183  0.7202 -0.5488 -1.5978
  752TIP3    H223892   6.682   2.207   0.251 -0.5685  0.9012  2.5992
  753TIP3   OH223893   0.361   3.581   0.440 -0.3675 -0.2585  0.1947
  753TIP3    H123894   0.296   3.512   0.430 -0.7940  0.2445 -0.6545
  753TIP3    H223895   0.323   3.657   0.395 -0.0352  0.6141  1.3117
  754TIP3   OH223896   5.674   6.370   7.748  0.4894 -0.1589  0.4138
  754TIP3    H123897   5.719   6.290   7.721 -1.4969 -1.5043  0.8720
  754TIP3    H223898   5.716   6.440   7.697  2.0936 -1.4984 -0.1920
  755TIP3   OH223899   4.206   5.915   1.425  0.0748 -0.0532 -0.0262
  755TIP3    H123900   4.255   5.908   1.343 -1.4730 -2.3440 -0.8596
  755TIP3    H223901   4.121   5.952   1.399  0.0819  0.5649  0.8019
  756TIP3   OH223902   6.578   3.232   7.866  0.3563 -0.0274 -0.1332
  756TIP3    H123903   6.628   3.151   7.869 -0.5340 -0.6916 -1.9635
  756TIP3    H223904   6.640   3.299   7.897  0.7757 -1.4769  2.4612
  757TIP3   OH223905   2.390   6.672   1.107  0.6371 -0.5515  0.2485
  757TIP3    H123906   2.376   6.641   1.017 -1.3257  0.4855  0.1441
  757TIP3    H223907   2.458   6.614   1.141  2.1956 -0.3266 -2.2114
  758TIP3   OH223908   0.834   6.651   8.755 -0.5025  0.3182  0.2071
  758TIP3    H123909   0.865   6.712   8.689 -2.8801  0.9739 -0.4138
  758TIP3    H223910   0.906   6.589   8.768  1.1203  1.9213 -0.7885
  759TIP3   OH223911   3.761   0.892   2.307 -0.4006  0.3174  0.3034
  759TIP3    H123912   3.682   0.944   2.300 -0.5532 -0.0258 -0.6597
  759TIP3    H223913   3.829   0.944   2.264 -0.4918 -0.1268 -0.4053
  760TIP3   OH223914   3.795   1.844   7.298 -0.5636  0.1241 -0.2140
  760TIP3    H123915   3.782   1.920   7.356  1.8010 -0.0174  0.5999
  760TIP3    H223916   3.795   1.769   7.357 -2.4748 -0.5398 -0.9736
  761TIP3   OH223917   5.314   1.121   6.677 -0.2292  0.2496  0.9629
  761TIP3    H123918   5.345   1.077   6.598 -1.3697  0.7759  0.2071
  761TIP3    H223919   5.301   1.050   6.740  4.8141  0.0765  2.2883
  762TIP3   OH223920   5.615   3.411   8.585 -0.4128 -0.1481  0.6081
  762TIP3    H123921   5.662   3.434   8.666 -0.1497 -0.0156  0.4199
  762TIP3    H223922   5.657   3.465   8.518 -0.9445  0.0861  0.4636
  763TIP3   OH223923   4.571   4.255   2.171  0.0036  0.1907  0.2624
  763TIP3    H123924   4.535   4.342   2.156 -3.1057 -1.2122 -1.2781
  763TIP3    H223925   4.629   4.240   2.096  1.5293  1.2754  1.1475
  764TIP3   OH223926   6.025   0.313   8.591 -0.1151 -0.1337  0.5580
  764TIP3    H123927   5.949   0.371   8.588 -1.7494 -2.1414 -2.3361
  764TIP3    H223928   6.009   0.255   8.666 -0.3086  0.8121  1.2594
  765TIP3   OH223929   4.211   5.833   0.375  0.3652 -0.2276 -0.6552
  765TIP3    H123930   4.219   5.742   0.403  1.2061  0.3988  1.3308
  765TIP3    H223931   4.133   5.866   0.420  1.3444  0.6235  0.4741
  766TIP3   OH223932   0.045   6.273   2.425  0.2190  0.8968 -0.3328
  766TIP3    H123933  -0.049   6.254   2.426  0.7579 -2.1714  0.2448
  766TIP3    H223934   0.058   6.319   2.342 -1.9121  2.3996  0.0661
  767TIP3   OH223935   4.743   5.593   2.519  0.2041  0.1589 -0.1441
  767TIP3    H123936   4.700   5.677   2.501 -0.3432  0.0322  0.5282
  767TIP3    H223937   4.680   5.527   2.490  0.9270 -0.0259 -1.3293
  768TIP3   OH223938   6.179   2.275   1.585 -1.1649 -0.5854 -0.0112
  768TIP3    H123939   6.245   2.335   1.618 -1.4016  0.7606 -1.8343
  768TIP3    H223940   6.189   2.196   1.639  2.5504 -0.8086 -0.7495
  769TIP3   OH223941   5.708   3.861   0.799  0.2228  0.1640  0.0655
  769TIP3    H123942   5.648   3.930   0.769 -1.5501 -1.8621 -1.3841
  769TIP3    H223943   5.747   3.828   0.718  0.4461 -1.0244  0.6437
  770TIP3   OH223944   4.228   0.676   8.659 -0.4431  0.2423 -0.1206
  770TIP3    H123945   4.149   0.689   8.605 -0.4613  0.6134 -0.0094
  770TIP3    H223946   4.299   0.711   8.605 -0.3488 -0.1380 -0.2413
  771TIP3   OH223947   3.095   1.792   0.108 -0.3724 -0.8222  0.1802
  771TIP3    H123948   3.082   1.705   0.145  1.2278 -3.0299 -3.7812
  771TIP3    H223949   3.021   1.803   0.047 -1.2292  1.2444  1.4799
  772TIP3   OH223950   3.939   3.426   6.442  0.0962 -0.1884  0.2670
  772TIP3    H123951   3.912   3.480   6.517  0.6078 -0.8166  0.9069
  772TIP3    H223952   3.880   3.453   6.372  1.4693  2.5500  0.0123
  773TIP3   OH223953   4.184   4.004   7.454  0.0008 -0.1974 -0.0576
  773TIP3    H123954   4.219   3.916   7.466 -0.5198 -0.2285  1.4593
  773TIP3    H223955   4.257   4.062   7.475  0.3189 -0.2508 -0.9724
  774TIP3   OH223956   3.785   6.466   6.591 -0.0680 -0.4603  0.2077
  774TIP3    H123957   3.798   6.534   6.524 -0.1100 -0.4223  0.2377
  774TIP3    H223958   3.851   6.484   6.657  1.3539 -1.7285 -0.7932
  775TIP3   OH223959   3.157   1.327   8.346  0.1891 -0.0256 -0.7144
  775TIP3    H123960   3.226   1.329   8.412  0.3392 -0.3494 -0.8612
  775TIP3    H223961   3.182   1.256   8.286  0.5714  0.9076 -1.6864
  776TIP3   OH223962   2.556   2.275   0.116 -0.2182 -0.2010 -0.7684
  776TIP3    H123963   2.590   2.282   0.026 -0.7011 -1.1007 -1.0306
  776TIP3    H223964   2.583   2.188   0.145  1.9902  0.9094  0.8475
  777TIP3   OH223965   2.828   3.420   1.016  0.1286 -0.5449  1.0393
  777TIP3    H123966   2.791   3.474   1.086 -0.6928  1.7638 -0.9938
  777TIP3    H223967   2.921   3.411   1.038  0.3117  1.8033  1.5023
  778TIP3   OH223968   3.275   0.652   8.428  0.1032 -0.2591  0.3834
  778TIP3    H123969   3.227   0.603   8.361 -1.0791  0.2421  0.8575
  778TIP3    H223970   3.341   0.590   8.460  1.4328 -0.1773 -1.9853
  779TIP3   OH223971   0.501   1.834   8.846  0.1574 -0.1015  0.0229
  779TIP3    H123972   0.541   1.766   8.792  0.0065  1.0479 -1.5861
  779TIP3    H223973   0.454   1.785   8.914  2.1320 -1.5224  0.4458
  780TIP3   OH223974   2.970   6.534   1.333 -0.1472 -0.3632 -0.5905
  780TIP3    H123975   2.897   6.488   1.374 -0.6450  0.3109 -0.7179
  780TIP3    H223976   2.962   6.514   1.240  1.8974 -3.2116 -0.2938
  781TIP3   OH223977   5.336   3.935   1.359 -0.0790 -0.2311 -0.1437
  781TIP3    H123978   5.356   4.029   1.353 -0.2938 -0.1922 -0.2462
  781TIP3    H223979   5.376   3.897   1.281  0.1595 -0.2501 -0.0115
  782TIP3   OH223980   4.757   3.287   1.609  0.2862  0.3745 -0.2604
  782TIP3    H123981   4.663   3.291   1.625  0.3937  2.5467  0.0358
  782TIP3    H223982   4.796   3.315   1.691  1.3489 -2.7114  0.4392
  783TIP3   OH223983   3.459   2.421   7.325 -0.0039  0.1008  0.2048
  783TIP3    H123984   3.537   2.386   7.281  1.2356  1.4059  1.2291
  783TIP3    H223985   3.386   2.398   7.268  1.1837 -0.7947 -1.0144
  784TIP3   OH223986   2.234   6.270   8.681 -0.2140  0.1812 -0.1278
  784TIP3    H123987   2.229   6.205   8.611 -1.4365  1.6665 -1.4995
  784TIP3    H223988   2.314   6.320   8.661  0.2165 -0.2938  0.3844
  785TIP3   OH223989   5.610   0.272   7.422  0.0183 -0.2537  0.4047
  785TIP3    H123990   5.583   0.204   7.360 -0.7582  1.7449 -1.5761
  785TIP3    H223991   5.684   0.315   7.380 -0.3030  0.9482  1.0243
  786TIP3   OH223992   4.190   3.113   8.498 -0.5510 -0.1606  0.4658
  786TIP3    H123993   4.185   3.186   8.436  1.6953 -1.1660 -1.0464
  786TIP3    H223994   4.238   3.149   8.572  0.3957 -0.0025 -0.1963
  787TIP3   OH223995   4.657   6.034   7.222 -0.5233  0.1438 -0.1568
  787TIP3    H123996   4.584   5.973   7.213 -1.3417  1.2856 -1.7383
  787TIP3    H223997   4.633   6.090   7.295 -1.3508  0.6240 -0.7788
  788TIP3   OH223998   6.410   0.016   1.482  0.0525 -0.0813 -0.4130
  788TIP3    H123999   6.412  -0.023   1.570  2.8673 -2.1143 -1.2484
  788TIP3    H224000   6.371  -0.052   1.427  0.9550  0.0138 -1.1916
  789TIP3   OH224001   5.417   2.210   1.899 -0.5049  0.5742 -0.6702
  789TIP3    H124002   5.328   2.177   1.885 -1.1432  1.9455 -0.1637
  789TIP3    H224003   5.419   2.233   1.992  1.4807 -2.3879  0.1558
  790TIP3   OH224004   5.625   5.323   7.603 -0.2869  0.4929 -0.3976
  790TIP3    H124005   5.646   5.297   7.692 -0.8825  0.2470 -0.3286
  790TIP3    H224006   5.549   5.380   7.611 -1.0236 -0.4134 -0.8363
  791TIP3   OH224007   5.602   0.209   0.440 -0.1004 -0.3373  0.3023
  791TIP3    H124008   5.529   0.197   0.501 -0.6432 -0.6840 -0.3947
  791TIP3    H224009   5.585   0.146   0.370  0.5773 -0.0362 -0.1440
  792TIP3   OH224010   4.908   4.461   0.826  0.0034 -0.1907 -0.0089
  792TIP3    H124011   4.897   4.366   0.827  0.0282 -0.2349 -1.8210
  792TIP3    H224012   4.861   4.491   0.748  0.1198  1.2743  0.4503
  793TIP3   OH224013   4.579   4.039   8.377  0.3580  0.1299 -0.0782
  793TIP3    H124014   4.626   4.090   8.443  1.0511 -0.5638 -0.0321
  793TIP3    H224015   4.536   4.105   8.323  0.7835  0.7439  0.3193
  794TIP3   OH224016   5.080   5.767   1.719 -0.6776  0.4878 -0.0263
  794TIP3    H124017   5.100   5.844   1.773  1.9727 -0.9492  1.2413
  794TIP3    H224018   5.152   5.706   1.737 -2.7519 -2.3888 -0.8003
  795TIP3   OH224019   6.430   3.415   6.459 -0.1491 -0.0633 -0.1514
  795TIP3    H124020   6.447   3.464   6.378 -1.0727 -0.4210 -0.5773
  795TIP3    H224021   6.495   3.448   6.521  0.3619  0.4539 -0.9426
  796TIP3   OH224022   3.163   6.689   7.358  0.0570  0.4713  0.3919
  796TIP3    H124023   3.072   6.678   7.333  1.1421 -2.6549 -3.0095
  796TIP3    H224024   3.167   6.660   7.449 -2.3573  1.2632  0.8171
  797TIP3   OH224025   6.521   3.915   7.518  0.0878 -0.2010 -0.2409
  797TIP3    H124026   6.560   3.947   7.437  0.4508  1.3999  0.5342
  797TIP3    H224027   6.565   3.832   7.535  1.6311  0.5419 -0.5107
  798TIP3   OH224028   0.510   0.740   8.193 -0.1267 -0.9354 -0.5634
  798TIP3    H124029   0.497   0.817   8.248  0.5799 -0.9211 -0.4008
  798TIP3    H224030   0.518   0.774   8.104 -3.7033 -1.1338 -1.0963
  799TIP3   OH224031   2.496   5.851   7.915 -0.0985  0.2014 -0.4616
  799TIP3    H124032   2.591   5.849   7.923 -0.0057 -1.0918 -1.5410
  799TIP3    H224033   2.466   5.895   7.994  1.2392 -1.9819  1.3724
  800TIP3   OH224034   4.764   2.559   1.760 -0.5596 -0.2239 -0.5228
  800TIP3    H124035   4.790   2.480   1.808 -0.0281 -0.4404 -1.1417
  800TIP3    H224036   4.678   2.581   1.794 -0.8630 -1.2670 -0.5653
  801TIP3   OH224037   4.840   0.691   2.535  0.0444 -0.1856 -0.6476
  801TIP3    H124038   4.886   0.621   2.581 -0.4449  0.1068  0.3220
  801TIP3    H224039   4.784   0.731   2.602 -0.8298  0.1395 -1.5402
  802TIP3   OH224040   5.697   0.691   7.634 -0.8094  0.2013  0.2503
  802TIP3    H124041   5.603   0.676   7.646 -1.1257  1.3372 -0.7098
  802TIP3    H224042   5.710   0.781   7.662 -0.6290  1.1785 -2.6971
  803TIP3   OH224043   3.602   4.751   1.283  0.6476  0.3840 -0.1968
  803TIP3    H124044   3.602   4.730   1.376 -5.0260 -0.0849  0.0701
  803TIP3    H224045   3.635   4.671   1.240 -1.7975 -1.6468  1.4155
  804TIP3   OH224046   6.281   6.022   1.076  0.6402  0.3106  0.2537
  804TIP3    H124047   6.304   6.112   1.101  0.3940  0.7358 -0.9500
  804TIP3    H224048   6.209   5.998   1.134  0.8489  0.8127  0.7288
  805TIP3   OH224049   4.280   1.763   0.630 -0.1885  0.0506 -0.4557
  805TIP3    H124050   4.309   1.851   0.657  0.5345  0.5334 -2.6287
  805TIP3    H224051   4.197   1.779   0.584 -0.5972 -0.5609  0.0544
  806TIP3   OH224052   0.999   3.091   0.233  0.7194 -0.8270 -0.0941
  806TIP3    H124053   1.031   3.010   0.273 -0.5063 -1.0702  0.4577
  806TIP3    H224054   0.925   3.062   0.179 -0.0335 -0.0359  0.4822
  807TIP3   OH224055   3.201   3.556   8.303  0.2190  0.8440 -0.7519
  807TIP3    H124056   3.259   3.591   8.236  0.9506  0.4637 -0.3334
  807TIP3    H224057   3.165   3.633   8.346 -0.2562  1.0878 -1.5739
  808TIP3   OH224058   2.519   2.791   8.056 -0.5703  0.1826  0.2929
  808TIP3    H124059   2.518   2.757   8.146 -1.1457  1.4309  0.7977
  808TIP3    H224060   2.608   2.823   8.043 -0.4911  0.0201  0.4389
  809TIP3   OH224061   1.624   6.465   7.375  0.0007  0.6362 -0.1452
  809TIP3    H124062   1.547   6.513   7.408 -0.0646  0.1701  0.4071
  809TIP3    H224063   1.667   6.433   7.454  0.1398 -0.0593 -0.4970
  810TIP3   OH224064   5.793   3.273   8.063  0.0057 -0.0776  0.2520
  810TIP3    H124065   5.839   3.209   8.009 -1.9770 -1.2936 -0.1071
  810TIP3    H224066   5.750   3.331   8.000 -0.4449 -0.0912  0.5425
  811TIP3   OH224067   3.979   3.188   0.215 -0.5621  0.5254  0.4524
  811TIP3    H124068   3.995   3.144   0.132  0.9935  1.7233  0.0719
  811TIP3    H224069   3.884   3.182   0.227 -0.6454 -0.9141 -0.6764
  812TIP3   OH224070   1.604   1.814   6.864  0.0632 -0.2445 -0.2406
  812TIP3    H124071   1.514   1.824   6.833 -0.7523 -3.2611  0.9127
  812TIP3    H224072   1.650   1.775   6.790  0.0091 -0.2492 -0.2720
  813TIP3   OH224073   0.983   1.971   2.150  0.1841 -0.2900 -0.2690
  813TIP3    H124074   1.011   2.061   2.136  0.1377  0.0246  1.3878
  813TIP3    H224075   1.042   1.939   2.219 -1.9008 -0.3993  1.5921
  814TIP3   OH224076   0.505   0.723   0.556 -0.0247  0.2001 -0.2544
  814TIP3    H124077   0.553   0.741   0.637 -1.2748  3.5513 -0.0920
  814TIP3    H224078   0.438   0.659   0.582 -0.1610  0.9214  1.3224
  815TIP3   OH224079   2.369   5.424   0.057  0.7391 -0.0617  0.0997
  815TIP3    H124080   2.289   5.400   0.103  1.1077 -1.7946 -0.0939
  815TIP3    H224081   2.434   5.359   0.085  1.2602 -0.5320 -2.0158
  816TIP3   OH224082   6.458   1.562   1.385 -0.0578 -0.1125 -0.1428
  816TIP3    H124083   6.466   1.485   1.441 -0.5613 -0.1022 -0.0472
  816TIP3    H224084   6.505   1.631   1.432 -0.9110  0.0334  0.5436
  817TIP3   OH224085   6.389   4.957   1.114  0.2851 -0.0724 -0.3612
  817TIP3    H124086   6.376   5.052   1.115  0.8254  0.0224 -1.2712
  817TIP3    H224087   6.431   4.938   1.198 -0.7001  0.3464  0.2483
  818TIP3   OH224088   2.758   5.821   1.924  0.2556  0.3418  0.2185
  818TIP3    H124089   2.800   5.795   1.841 -1.1814 -0.0259 -0.4249
  818TIP3    H224090   2.754   5.916   1.919 -1.3229  0.2576 -0.9465
  819TIP3   OH224091   5.668   2.271   0.787 -0.3682  0.3970  0.0467
  819TIP3    H124092   5.755   2.234   0.802  0.2812  1.2078 -1.4924
  819TIP3    H224093   5.609   2.195   0.788  0.5305 -0.3211 -0.1318
  820TIP3   OH224094   4.677   2.752   8.480  0.1924  0.0035  0.1899
  820TIP3    H124095   4.631   2.800   8.411  1.7927  0.9663 -0.2663
  820TIP3    H224096   4.635   2.666   8.482 -1.7582  0.8958 -0.0158
  821TIP3   OH224097   3.159   2.091   2.203  0.2962 -0.5125  0.6432
  821TIP3    H124098   3.071   2.130   2.204  0.3976 -0.2691  0.1591
  821TIP3    H224099   3.195   2.113   2.289 -0.6621 -1.8870  1.4412
  822TIP3   OH224100   2.180   2.527   7.466 -0.5500 -0.1311  0.0597
  822TIP3    H124101   2.174   2.529   7.562 -0.3803  1.8852  0.0736
  822TIP3    H224102   2.268   2.561   7.448 -0.0154 -1.8442 -0.8190
  823TIP3   OH224103   3.258   3.876   0.620  0.2858 -0.0866 -0.1358
  823TIP3    H124104   3.308   3.951   0.589 -2.1226  1.3598 -0.7954
  823TIP3    H224105   3.252   3.818   0.544  2.2507 -1.0845  0.4079
  824TIP3   OH224106   5.892   0.036   2.108 -0.0512 -0.2161 -0.0980
  824TIP3    H124107   5.891   0.132   2.104  1.0200 -0.1693  0.3768
  824TIP3    H224108   5.809   0.013   2.150 -0.7080  0.4512 -0.9948
  825TIP3   OH224109   6.294   5.568   8.398  0.3384 -0.1217 -0.2479
  825TIP3    H124110   6.352   5.528   8.463 -0.5121  0.6305  1.0248
  825TIP3    H224111   6.346   5.636   8.357  0.0595  1.3914  1.7487
  826TIP3   OH224112   2.332   1.867   0.481  0.2056  0.2759 -0.5273
  826TIP3    H124113   2.354   1.776   0.503  1.6970  0.7200 -0.0920
  826TIP3    H224114   2.332   1.913   0.565 -0.4984  0.7031 -0.7523
  827TIP3   OH224115   4.651   1.026   1.912  0.2080  0.1553  0.3275
  827TIP3    H124116   4.725   1.027   1.974  0.2639 -2.8824  0.4439
  827TIP3    H224117   4.672   1.095   1.849  1.5283  1.4871  2.0963
  828TIP3   OH224118   0.491   6.603   6.436 -0.2632 -0.4146  1.0343
  828TIP3    H124119   0.546   6.542   6.387 -0.3301  0.2273  0.1413
  828TIP3    H224120   0.529   6.603   6.524  0.0410 -1.3558  0.9188
  829TIP3   OH224121   2.036   5.162   1.975 -0.2845 -0.5026 -0.0897
  829TIP3    H124122   1.986   5.107   1.914 -1.0788  0.8009 -0.6511
  829TIP3    H224123   1.985   5.242   1.983  0.8566  0.1800  0.7037
  830TIP3   OH224124   3.629   1.237   7.426  0.4230 -0.2460 -0.1110
  830TIP3    H124125   3.602   1.222   7.336 -1.1040  0.9137  0.1110
  830TIP3    H224126   3.711   1.189   7.435 -0.2757 -1.8203 -1.5932
  831TIP3   OH224127   2.723   6.353   6.947  0.2213  0.3807 -0.1836
  831TIP3    H124128   2.702   6.284   7.011  0.2609  1.1399  0.6727
  831TIP3    H224129   2.815   6.340   6.927  0.7191  1.2211  1.3349
  832TIP3   OH224130   1.740   5.855   6.937 -0.2124 -0.1336 -0.3780
  832TIP3    H124131   1.695   5.940   6.939  0.0464 -0.0024  0.7456
  832TIP3    H224132   1.776   5.845   7.026 -0.5686 -1.5944 -0.3767
  833TIP3   OH224133   3.487   0.210   8.102 -0.9503  0.3403 -0.6996
  833TIP3    H124134   3.513   0.282   8.045  0.7395 -0.4094 -0.9528
  833TIP3    H224135   3.394   0.225   8.120 -1.1758  1.3776 -2.4897
  834TIP3   OH224136   3.628   5.842   2.152  0.5213 -0.2000 -0.3447
  834TIP3    H124137   3.565   5.901   2.192  1.9709  1.4491 -0.3702
  834TIP3    H224138   3.709   5.857   2.201  1.4383 -0.6921 -1.6545
  835TIP3   OH224139   0.410   0.326   0.928 -0.4817  0.0402  0.3976
  835TIP3    H124140   0.405   0.259   0.996 -0.4206  0.5380  0.9031
  835TIP3    H224141   0.401   0.408   0.976  0.0228  0.4160 -0.1494
  836TIP3   OH224142   4.867   2.225   7.421  0.4054  0.5204 -0.5834
  836TIP3    H124143   4.827   2.309   7.399 -1.5790 -0.3652 -0.5744
  836TIP3    H224144   4.923   2.245   7.496  0.2010  1.8765 -0.7534
  837TIP3   OH224145   1.478   2.442   7.570 -0.0186  0.3543 -0.0222
  837TIP3    H124146   1.541   2.409   7.505  0.9343 -0.2827  1.1698
  837TIP3    H224147   1.406   2.379   7.568 -0.4786  0.9052 -1.1699
  838TIP3   OH224148   0.864   1.661   0.523 -0.3070  0.4768 -0.5112
  838TIP3    H124149   0.943   1.695   0.481 -0.0105 -0.2326 -0.5455
  838TIP3    H224150   0.889   1.574   0.555 -0.4095  1.1387  1.4845
  839TIP3   OH224151   4.172   0.576   1.214 -0.8069 -0.5554  0.0795
  839TIP3    H124152   4.090   0.526   1.221 -2.1260  1.5732  0.8646
  839TIP3    H224153   4.152   0.645   1.151 -0.1518  0.9304  1.4496
  840TIP3   OH224154   4.157   5.040   2.086 -0.2201 -0.6488  0.0181
  840TIP3    H124155   4.211   5.038   2.165 -0.0215  0.3352 -0.0807
  840TIP3    H224156   4.119   5.127   2.086 -2.4278 -1.5352  0.4842
  841TIP3   OH224157   2.950   2.293   7.618  0.0616 -0.0194 -0.3708
  841TIP3    H124158   2.979   2.250   7.699 -0.8015 -1.2327 -0.6800
  841TIP3    H224159   3.027   2.291   7.561  1.3161  2.6153  1.0430
  842TIP3   OH224160   2.031   6.283   2.080  0.2466  0.1025  0.0211
  842TIP3    H124161   2.075   6.322   2.004  0.3955 -0.4615 -0.1830
  842TIP3    H224162   2.101   6.266   2.143 -0.1208  2.7121  1.2713
  843TIP3   OH224163   5.433   2.996   8.185  0.3866 -0.4237 -0.1760
  843TIP3    H124164   5.368   2.963   8.246 -0.0586  0.2027 -0.3002
  843TIP3    H224165   5.395   2.982   8.098  1.0005 -1.2777 -0.3254
  844TIP3   OH224166   4.774   2.600   7.174 -0.4800 -0.0191  0.0188
  844TIP3    H124167   4.819   2.555   7.102 -1.4757 -0.2220 -0.4852
  844TIP3    H224168   4.737   2.530   7.227 -0.7129  0.1703  0.1054
  845TIP3   OH224169   1.237   2.264   1.815  0.6040  0.2468 -0.6146
  845TIP3    H124170   1.214   2.246   1.906  0.3864  1.7607 -0.3477
  845TIP3    H224171   1.277   2.351   1.816  0.6933  0.2499 -1.9527
  846TIP3   OH224172   5.906   6.159   7.361 -0.1191 -0.3610  0.3646
  846TIP3    H124173   5.829   6.203   7.326  0.3001  0.0628 -0.0483
  846TIP3    H224174   5.973   6.170   7.294  0.5328 -0.0283  1.0459
  847TIP3   OH224175   5.524   3.954   8.719  0.4751  0.7997 -0.1663
  847TIP3    H124176   5.450   3.967   8.659 -1.2927 -1.5187  1.3427
  847TIP3    H224177   5.601   3.963   8.663 -1.0046  0.8498 -2.3519
  848TIP3   OH224178   2.326   1.521   7.812 -0.2160  0.2957 -0.1477
  848TIP3    H124179   2.269   1.549   7.741  0.2796  0.0037 -0.6743
  848TIP3    H224180   2.400   1.582   7.810 -0.2048  0.2902  0.1139
  849TIP3   OH224181   2.598   1.019   8.389  0.5302  0.4634  0.0582
  849TIP3    H124182   2.690   1.036   8.366  0.4805 -0.4873 -0.8927
  849TIP3    H224183   2.587   0.925   8.375 -0.8759  0.7420 -0.8605
  850TIP3   OH224184   3.009   4.291   2.412  0.3387  0.1196 -0.4591
  850TIP3    H124185   2.992   4.385   2.420  0.2705  0.1770 -1.2653
  850TIP3    H224186   3.068   4.283   2.338 -2.5660 -0.7533 -2.8786
  851TIP3   OH224187   4.194   4.842   8.487 -0.8811 -0.0339 -0.0704
  851TIP3    H124188   4.284   4.831   8.456 -0.7703  0.4296  0.0722
  851TIP3    H224189   4.149   4.762   8.461 -0.7412  0.2508 -1.2608
  852TIP3   OH224190   0.210   4.755   1.749  0.3835  0.5214  0.2874
  852TIP3    H124191   0.152   4.704   1.692  0.3644 -1.9459  2.3371
  852TIP3    H224192   0.162   4.835   1.767 -0.9721 -0.0452 -0.6250
  853TIP3   OH224193   1.105   1.296   1.174 -0.2820  0.1098  0.5578
  853TIP3    H124194   1.094   1.254   1.089  0.4622 -0.1609  0.5906
  853TIP3    H224195   1.017   1.325   1.198 -1.1995 -2.9011  1.3006
  854TIP3   OH224196   3.683   1.683   1.106  0.1939  0.4683  0.0829
  854TIP3    H124197   3.649   1.652   1.190 -0.7987  0.6733 -0.2192
  854TIP3    H224198   3.680   1.779   1.113 -0.0090  0.4867 -0.2193
  855TIP3   OH224199   2.063   0.050   8.540 -0.3411  0.2903  0.4763
  855TIP3    H124200   2.116  -0.028   8.520  0.6159  1.3651 -1.4345
  855TIP3    H224201   2.102   0.085   8.620 -0.4382 -0.8740  1.0584
  856TIP3   OH224202   5.084   2.426   0.213  0.1517  0.6363  0.3722
  856TIP3    H124203   5.152   2.455   0.273  0.3415  0.3762  0.2863
  856TIP3    H224204   5.046   2.507   0.179  1.4703  0.8190 -0.7693
  857TIP3   OH224205   3.855   3.014   1.816 -0.1782  0.2037 -0.0068
  857TIP3    H124206   3.898   3.047   1.737 -3.1360  0.5116 -1.6683
  857TIP3    H224207   3.878   2.921   1.819  0.1507  0.2355 -1.1318
  858TIP3   OH224208   0.186   2.622   1.947  0.2233  0.3143  0.4716
  858TIP3    H124209   0.209   2.708   1.980  1.1312  0.2559  0.0292
  858TIP3    H224210   0.267   2.588   1.909  0.2756 -1.3281  1.8996
  859TIP3   OH224211   6.313   1.519   0.093  0.1559 -0.1172  0.5324
  859TIP3    H124212   6.249   1.485   0.156 -1.1024 -0.4864 -0.9034
  859TIP3    H224213   6.374   1.446   0.080  1.0519  0.3035  2.0565
  860TIP3   OH224214   1.125   3.332   0.254 -0.2346 -0.6704  0.4043
  860TIP3    H124215   1.080   3.248   0.256 -2.1987  0.3019  1.8043
  860TIP3    H224216   1.082   3.383   0.323  0.9031  1.4636 -0.3698
  861TIP3   OH224217   1.570   0.882   7.250  0.2570  0.1522 -0.3127
  861TIP3    H124218   1.655   0.923   7.237  0.4944 -0.6626 -1.4124
  861TIP3    H224219   1.508   0.941   7.207  0.3543  0.3302 -0.2120
  862TIP3   OH224220   6.033   5.855   8.680  0.0582  0.1897  0.1737
  862TIP3    H124221   6.041   5.839   8.586 -0.8215 -0.4469  0.2023
  862TIP3    H224222   5.947   5.894   8.691 -0.0631 -0.2268  0.7713
  863TIP3   OH224223   4.901   0.296   7.358 -0.3062  0.1061 -0.3561
  863TIP3    H124224   4.921   0.333   7.445  1.2850 -0.4566 -0.4391
  863TIP3    H224225   4.967   0.335   7.301  0.4530 -1.6778 -0.7421
  864TIP3   OH224226   4.741   1.653   8.259  0.2182  0.1224 -0.1267
  864TIP3    H124227   4.658   1.691   8.286  0.2525  0.8806 -1.0131
  864TIP3    H224228   4.792   1.646   8.340 -0.4150  0.3778  0.3022
  865TIP3   OH224229   4.621   2.282   7.587  0.1860 -0.5075 -0.1077
  865TIP3    H124230   4.598   2.246   7.502  2.8507 -3.6415  0.2862
  865TIP3    H224231   4.642   2.374   7.569 -1.4691 -0.4816 -2.3358
  866TIP3   OH224232   0.122   6.812   7.851  0.0531 -0.8361  0.1230
  866TIP3    H124233   0.191   6.759   7.892  0.4047 -0.1787  0.3865
  866TIP3    H224234   0.049   6.807   7.912  0.3053 -0.5006  0.4530
  867TIP3   OH224235   6.598   5.549   7.606 -0.1125 -0.2667  0.0040
  867TIP3    H124236   6.585   5.602   7.528  1.1988  0.0299 -0.0461
  867TIP3    H224237   6.573   5.460   7.580  1.4792 -0.4155 -1.1597
  868TIP3   OH224238   4.048   5.193   7.661 -0.0745  0.0162 -1.1074
  868TIP3    H124239   4.054   5.157   7.750 -0.6730  3.0000  0.2735
  868TIP3    H224240   4.005   5.124   7.610  0.3303 -1.8137  0.8707
  869TIP3   OH224241   3.363   5.202   1.816  0.3268  0.3235 -0.4169
  869TIP3    H124242   3.330   5.212   1.906  0.8391  0.1466 -0.2059
  869TIP3    H224243   3.335   5.114   1.790 -1.6854  1.1515 -1.2263
  870TIP3   OH224244   5.572   3.280   0.102  0.5579 -0.2469  0.1798
  870TIP3    H124245   5.648   3.225   0.083  1.7714  1.0599  0.9859
  870TIP3    H224246   5.503   3.248   0.044  1.9636 -0.9487 -1.1749
  871TIP3   OH224247   3.160   5.359   8.149  0.5661 -0.3643 -0.4492
  871TIP3    H124248   3.099   5.285   8.155  0.7483 -0.4958 -0.1596
  871TIP3    H224249   3.182   5.366   8.057  2.2609 -2.0804 -0.2389
  872TIP3   OH224250   3.069   6.668   7.906 -0.0162  0.0283 -0.2424
  872TIP3    H124251   2.974   6.657   7.914 -0.0281  0.6167  0.5867
  872TIP3    H224252   3.094   6.713   7.987  0.7264  1.4784 -1.2451
  873TIP3   OH224253   5.439   2.493   0.000 -0.3256 -0.2050 -0.0832
  873TIP3    H124254   5.450   2.490  -0.095 -0.4163  0.8866 -0.1321
  873TIP3    H224255   5.428   2.401   0.025 -0.3419 -0.5016 -1.1293
  874TIP3   OH224256   2.817   5.942   7.505 -0.1136 -0.4760 -0.3353
  874TIP3    H124257   2.740   5.888   7.484 -0.2120  0.2949 -2.1625
  874TIP3    H224258   2.787   6.002   7.573 -1.3571  0.2441 -1.4759
  875TIP3   OH224259   6.373   5.923   8.116 -0.1907 -0.7872  0.0371
  875TIP3    H124260   6.399   5.881   8.198 -1.1827 -2.1495 -0.2988
  875TIP3    H224261   6.446   5.980   8.094  0.4642 -1.0389  1.4247
  876TIP3   OH224262   3.470   4.787   8.023  0.3148  0.0533  0.4201
  876TIP3    H124263   3.537   4.855   8.025  0.0140  0.3708 -0.0844
  876TIP3    H224264   3.517   4.706   8.044  0.9858  0.1636 -0.6018
  877TIP3   OH224265   5.932   0.967   1.864 -0.2982 -0.2694 -0.7083
  877TIP3    H124266   5.925   0.873   1.853 -0.3651 -0.2140 -1.1403
  877TIP3    H224267   5.883   1.004   1.791 -2.4584  0.1217  0.8296
  878TIP3   OH224268   1.774   0.597   1.465 -0.2841 -0.2001 -0.2258
  878TIP3    H124269   1.868   0.593   1.480 -0.1328  1.3576 -0.5919
  878TIP3    H224270   1.765   0.619   1.372 -1.0200 -0.4743 -0.2300
  879TIP3   OH224271   5.950   6.685   7.983  0.5268 -0.1172  0.2008
  879TIP3    H124272   5.953   6.749   7.911  0.1056 -0.5174 -0.1775
  879TIP3    H224273   5.865   6.643   7.975 -0.7508  1.7609  2.6609
  880TIP3   OH224274   6.788   4.433   7.813  0.6103  0.2005  0.1885
  880TIP3    H124275   6.828   4.372   7.751  1.4427  2.2174 -1.3608
  880TIP3    H224276   6.809   4.396   7.899  0.0235 -2.3037 -0.6353
  881TIP3   OH224277   4.239   5.276   0.865  0.3062  0.0924  0.2421
  881TIP3    H124278   4.280   5.347   0.914 -2.5591  0.9481  1.6660
  881TIP3    H224279   4.213   5.316   0.781  2.1411 -0.4287 -0.6260
  882TIP3   OH224280   4.348   6.388   6.375  0.2246  0.2873  0.2460
  882TIP3    H124281   4.372   6.320   6.438  1.5896  1.2235  0.7838
  882TIP3    H224282   4.411   6.459   6.390  0.3163  0.7327 -1.8657
  883TIP3   OH224283   5.450   3.252   1.569  0.4738  0.0333  0.0313
  883TIP3    H124284   5.525   3.308   1.550  1.6276 -0.4194  2.7284
  883TIP3    H224285   5.484   3.163   1.565 -0.0735 -0.2128  0.5999
  884TIP3   OH224286   4.169   6.132   8.137 -0.1057 -0.0184  0.3889
  884TIP3    H124287   4.107   6.186   8.185 -0.1633 -0.2194  0.5416
  884TIP3    H224288   4.255   6.168   8.159  0.0235 -1.3832  2.2872
  885TIP3   OH224289   0.382   1.067   7.051 -0.2263 -0.3820 -0.2233
  885TIP3    H124290   0.299   1.110   7.035 -0.5977 -0.9885  0.0379
  885TIP3    H224291   0.385   0.996   6.987 -0.4766 -1.1204  0.5703
  886TIP3   OH224292   6.379   0.188   0.555 -0.0880 -0.2166 -0.4088
  886TIP3    H124293   6.336   0.103   0.563  0.5562 -0.5069  0.0306
  886TIP3    H224294   6.470   0.171   0.579  0.0492  0.5969 -0.3438
  887TIP3   OH224295   2.612   6.029   0.703  0.2312 -0.4728 -0.3048
  887TIP3    H124296   2.524   6.068   0.701  0.2634 -0.3549  0.4858
  887TIP3    H224297   2.669   6.101   0.730  0.5539 -0.5870 -0.6778
  888TIP3   OH224298   0.175   5.696   1.151  0.4104  0.4332 -0.4762
  888TIP3    H124299   0.207   5.757   1.217 -0.2951  2.7923 -2.2066
  888TIP3    H224300   0.080   5.704   1.154  0.2172 -1.5408  0.0764
  889TIP3   OH224301   5.263   6.209   8.437 -0.3875 -0.6012 -0.5415
  889TIP3    H124302   5.268   6.305   8.441 -0.4126 -0.6219  0.2520
  889TIP3    H224303   5.208   6.186   8.512  1.8609 -1.3976  0.9523
  890TIP3   OH224304   1.421   4.258   2.057  0.2866 -0.3804 -0.1562
  890TIP3    H124305   1.394   4.302   2.137  0.9988 -0.5516  0.1768
  890TIP3    H224306   1.432   4.329   1.994  0.4870 -0.1747  0.1107
  891TIP3   OH224307   3.235   5.366   8.656 -0.1277 -0.3746  0.2546
  891TIP3    H124308   3.176   5.389   8.584 -0.7753 -0.4141  0.7667
  891TIP3    H224309   3.303   5.434   8.654 -0.9121  0.4382  0.4723
  892TIP3   OH224310   5.144   2.685   7.861  0.4893 -0.3267 -0.0012
  892TIP3    H124311   5.194   2.615   7.903 -1.2469 -1.4682  0.2509
  892TIP3    H224312   5.070   2.641   7.819 -0.5510  1.3217 -0.0068
  893TIP3   OH224313   3.237   1.420   7.935 -0.1927  0.1605 -0.3154
  893TIP3    H124314   3.280   1.335   7.943 -0.5040  0.0001 -0.3409
  893TIP3    H224315   3.302   1.483   7.968 -0.8126 -0.3174  2.0510
  894TIP3   OH224316   3.963   6.537   1.756 -0.4465  0.1486  0.1528
  894TIP3    H124317   3.953   6.628   1.727  3.3230  0.8422  0.5079
  894TIP3    H224318   3.946   6.539   1.850 -0.8108  0.3735  0.0830
  895TIP3   OH224319   3.382   5.456   6.569 -0.1222 -0.5260 -0.4766
  895TIP3    H124320   3.319   5.392   6.537 -1.4579  1.0816 -1.2194
  895TIP3    H224321   3.445   5.467   6.498 -0.8868  0.2140 -1.0636
  896TIP3   OH224322   5.590   2.971   1.567 -0.6103  0.3352 -0.5375
  896TIP3    H124323   5.603   2.879   1.545 -0.6687 -0.0982  1.1261
  896TIP3    H224324   5.497   2.978   1.588 -0.5218  0.6691 -0.2382
  897TIP3   OH224325   3.523   2.550   8.629  0.0201 -0.2850 -0.1165
  897TIP3    H124326   3.533   2.570   8.722 -1.3230 -1.0687  0.2114
  897TIP3    H224327   3.531   2.455   8.624  0.8843 -0.1881 -0.9313
  898TIP3   OH224328   0.763   0.351   1.185  0.9172 -0.2881 -0.3935
  898TIP3    H124329   0.825   0.374   1.255  1.4885  1.0214 -1.2930
  898TIP3    H224330   0.722   0.271   1.216  1.7889 -0.2272  1.0478
  899TIP3   OH224331   4.670   2.019   7.589  1.0225 -0.3933  0.1217
  899TIP3    H124332   4.736   2.069   7.541  0.0934 -0.0261 -0.8153
  899TIP3    H224333   4.595   2.078   7.596  0.5059 -1.0766  0.4666
  900TIP3   OH224334   3.009   0.944   7.740  0.0380  0.1661  0.0652
  900TIP3    H124335   2.915   0.929   7.740 -0.7535  3.6252 -2.8637
  900TIP3    H224336   3.022   1.017   7.801  0.5454  0.5889 -0.5264
  901TIP3   OH224337   1.424   5.046   8.346 -0.1150 -0.1576 -0.1368
  901TIP3    H124338   1.348   4.994   8.373 -1.4684  1.7844  0.0130
  901TIP3    H224339   1.458   4.999   8.270 -3.0121  0.1527 -1.8039
  902TIP3   OH224340   6.517   0.561   0.048  0.3079 -0.4267 -0.0942
  902TIP3    H124341   6.433   0.538   0.085  0.8524  0.8366  2.0881
  902TIP3    H224342   6.577   0.494   0.079  1.0231  1.3172  2.5963
  903TIP3   OH224343   1.115   4.444   8.229 -0.0490  0.0926  0.4785
  903TIP3    H124344   1.178   4.497   8.181 -0.8644  0.4028 -0.2801
  903TIP3    H224345   1.069   4.394   8.161  0.0084 -0.8268  1.0935
  904TIP3   OH224346   1.931   6.799   8.315 -0.0561 -0.5699 -0.5268
  904TIP3    H124347   1.878   6.727   8.348 -2.0497  1.1172  0.1848
  904TIP3    H224348   1.970   6.838   8.393 -0.8062  0.4510 -0.6448
  905TIP3   OH224349   6.742   1.430   0.460 -0.1337 -0.1221 -0.0011
  905TIP3    H124350   6.711   1.520   0.472  0.5968 -0.0472  1.4257
  905TIP3    H224351   6.775   1.429   0.370 -1.1435  0.7298 -0.4058
  906TIP3   OH224352   1.547   1.182   0.206  0.4646 -0.3587 -0.2602
  906TIP3    H124353   1.549   1.270   0.168 -2.3781 -0.0155  0.1833
  906TIP3    H224354   1.617   1.135   0.161 -0.0207  1.2205 -2.8539
  907TIP3   OH224355   2.775   3.610   1.757  0.2422 -0.1528 -0.5568
  907TIP3    H124356   2.724   3.533   1.781 -0.2832  0.6344  1.0107
  907TIP3    H224357   2.769   3.614   1.661 -3.8388  0.6086 -0.4632
  908TIP3   OH224358   4.321   5.976   1.166  0.6018  0.6681  0.3982
  908TIP3    H124359   4.288   6.020   1.087  1.0092  0.0850 -0.0976
  908TIP3    H224360   4.345   5.889   1.137 -0.9267 -0.1896  1.5262
  909TIP3   OH224361   3.037   0.178   0.772  0.4124  0.1848 -0.1802
  909TIP3    H124362   3.032   0.260   0.724  3.2392 -0.7140 -2.3408
  909TIP3    H224363   3.103   0.193   0.839 -1.1031  0.4339  1.3187
  910TIP3   OH224364   6.452   2.672   1.806 -0.1007 -0.0869  0.5643
  910TIP3    H124365   6.542   2.651   1.828  0.2401 -0.2661 -0.9063
  910TIP3    H224366   6.405   2.667   1.889  1.1579 -0.4027  1.2763
  911TIP3   OH224367   5.643   0.867   1.108 -0.0822 -0.4458  0.5390
  911TIP3    H124368   5.710   0.925   1.143 -1.2722  1.6291 -0.4170
  911TIP3    H224369   5.598   0.833   1.185  0.7382 -0.2234  1.1260
  912TIP3   OH224370   2.736   3.034   7.068  0.2220  0.5798 -0.0900
  912TIP3    H124371   2.800   3.033   7.139 -0.5608  0.6407  0.6251
  912TIP3    H224372   2.658   2.993   7.105 -0.4416  1.2951 -0.6792
  913TIP3   OH224373   6.260   4.068   0.195 -0.3157  0.8335  0.3858
  913TIP3    H124374   6.260   3.978   0.227 -0.3862  0.2594 -1.1721
  913TIP3    H224375   6.182   4.107   0.234  0.3310  0.5885  1.9945
  914TIP3   OH224376   0.795   2.743   1.561 -0.5179 -0.1824  0.1629
  914TIP3    H124377   0.876   2.721   1.606 -0.2399 -0.7447 -0.5890
  914TIP3    H224378   0.801   2.837   1.544  1.4612 -0.7056 -2.6857
  915TIP3   OH224379   3.482   3.417   8.330  0.0841  0.5676 -0.4199
  915TIP3    H124380   3.470   3.384   8.241 -0.5495  1.5596 -0.7281
  915TIP3    H224381   3.395   3.446   8.356  0.1301 -0.3673  0.8017
  916TIP3   OH224382   5.715   4.693   0.191  0.1576  0.2370 -0.8372
  916TIP3    H124383   5.749   4.778   0.164  0.4837  0.0514 -1.0148
  916TIP3    H224384   5.634   4.713   0.238 -0.6794  0.5450 -2.3526
  917TIP3   OH224385   4.853   5.562   0.969 -0.0105 -0.6134 -0.5312
  917TIP3    H124386   4.824   5.636   0.917 -0.5094 -0.6112 -0.2618
  917TIP3    H224387   4.790   5.492   0.949 -1.4333 -0.0156  1.5458
  918TIP3   OH224388   4.822   3.579   8.375  0.4229 -0.1446 -0.0247
  918TIP3    H124389   4.782   3.613   8.456 -1.7914 -0.4610 -0.9028
  918TIP3    H224390   4.776   3.625   8.305  1.6029 -0.6048 -1.1337
  919TIP3   OH224391   3.523   3.123   2.798 -0.0056  0.0738 -0.9350
  919TIP3    H124392   3.530   3.095   2.707 -2.3207  0.9069 -1.4618
  919TIP3    H224393   3.432   3.104   2.821  0.3924  0.3922  1.0372
  920TIP3   OH224394   3.668   0.379   0.222 -1.5705  0.2699 -0.1971
  920TIP3    H124395   3.709   0.381   0.309  0.8795 -0.8295 -1.2148
  920TIP3    H224396   3.659   0.471   0.197 -1.0297  0.5700  0.6815
  921TIP3   OH224397   5.530   2.377   1.133  0.3014 -0.0486 -0.1615
  921TIP3    H124398   5.557   2.353   1.044  2.2346 -1.6936  0.7803
  921TIP3    H224399   5.611   2.374   1.184 -1.0679 -1.4227  2.1126
  922TIP3   OH224400   4.557   1.557   1.506  0.6995 -0.0107  0.0003
  922TIP3    H124401   4.639   1.537   1.461  1.1505  1.5893  0.0447
  922TIP3    H224402   4.552   1.491   1.576  2.7763  0.8061  0.9948
  923TIP3   OH224403   2.539   0.615   2.092  0.0095  0.4031  0.2527
  923TIP3    H124404   2.506   0.612   2.002  1.0975  2.7307 -0.3015
  923TIP3    H224405   2.462   0.633   2.146 -0.6190 -0.8281 -0.2026
  924TIP3   OH224406   5.591   4.602   7.481  0.3859  0.1902 -0.6397
  924TIP3    H124407   5.574   4.676   7.423 -3.2527 -1.5532 -2.1173
  924TIP3    H224408   5.515   4.600   7.540  1.1433 -1.4963  0.3551
  925TIP3   OH224409   1.584   5.674   6.795 -0.3104  0.1401 -0.0036
  925TIP3    H124410   1.641   5.689   6.719  0.5814  0.7075  0.7612
  925TIP3    H224411   1.606   5.744   6.856 -0.4858 -0.7286  1.0877
  926TIP3   OH224412   3.697   2.967   8.633 -0.4480  0.4370 -0.6218
  926TIP3    H124413   3.622   3.003   8.680 -0.5181  1.7591 -1.6586
  926TIP3    H224414   3.736   2.904   8.693 -2.1625 -0.0005  0.0772
  927TIP3   OH224415   6.442   5.586   0.813  0.3381 -0.3729  0.0858
  927TIP3    H124416   6.397   5.642   0.750 -1.8207 -0.0555  1.8114
  927TIP3    H224417   6.417   5.497   0.787  1.8393 -0.4588 -1.2111
  928TIP3   OH224418   0.943   2.173   2.429  0.6920 -0.5516 -0.4357
  928TIP3    H124419   0.966   2.084   2.455 -1.3706 -1.1917 -0.6067
  928TIP3    H224420   0.911   2.214   2.510  0.3508 -0.4205 -0.6362
  929TIP3   OH224421   1.184   6.719   7.751  0.2102  0.2396  0.3051
  929TIP3    H124422   1.274   6.686   7.743 -0.1713 -0.5063 -1.3512
  929TIP3    H224423   1.187   6.780   7.824  2.1093  0.3715  0.1613
  930TIP3   OH224424   1.584   5.228   7.305  0.1034 -0.3089 -0.1612
  930TIP3    H124425   1.566   5.136   7.287 -1.0661 -0.1042 -0.1007
  930TIP3    H224426   1.679   5.233   7.314  0.3235 -1.2103 -1.7873
  931TIP3   OH224427   3.991   2.056   7.633  0.0827 -0.2454  0.2854
  931TIP3    H124428   4.031   2.035   7.549  0.9805  0.2511  0.5672
  931TIP3    H224429   4.064   2.089   7.686 -0.1341 -2.0012  1.7759
  932TIP3   OH224430   4.489   4.391   0.319 -0.2694  0.3251 -0.2073
  932TIP3    H124431   4.547   4.463   0.341  0.4488 -0.3466  0.1707
  932TIP3    H224432   4.476   4.344   0.402  0.2553 -0.6631 -0.6583
  933TIP3   OH224433   6.272   3.572   0.756  0.5881 -0.2080  0.1607
  933TIP3    H124434   6.187   3.609   0.781  1.7690  1.6049  1.7570
  933TIP3    H224435   6.277   3.489   0.803  0.6880  0.8566  2.1408
  934TIP3   OH224436   0.651   2.932   2.619 -0.4905  0.0922 -0.4100
  934TIP3    H124437   0.599   2.875   2.677  0.8494 -0.4944  0.2457
  934TIP3    H224438   0.593   2.949   2.545 -0.9101 -2.2491 -0.7002
  935TIP3   OH224439   0.327   6.644   1.717  0.0453 -0.2949  0.2468
  935TIP3    H124440   0.315   6.683   1.631 -0.0301  1.3724  0.9644
  935TIP3    H224441   0.360   6.716   1.771 -0.5134 -1.1231  1.7592
  936TIP3   OH224442   1.051   0.760   6.525  0.0341  0.8118 -0.0549
  936TIP3    H124443   1.063   0.790   6.435 -0.7574  0.0855 -0.4190
  936TIP3    H224444   1.057   0.664   6.519  1.0050  0.8028  0.8334
  937TIP3   OH224445   0.553   1.302   7.178 -0.2486  0.6279  0.1080
  937TIP3    H124446   0.466   1.340   7.189 -1.0872 -0.8827 -0.9373
  937TIP3    H224447   0.537   1.208   7.177  1.5489  0.2802  0.9901
  938TIP3   OH224448   1.533   0.742   1.455  0.2226 -0.5137 -0.7129
  938TIP3    H124449   1.563   0.821   1.411 -0.4109 -0.1175 -0.4480
  938TIP3    H224450   1.613   0.694   1.476  0.6661  0.4748 -0.0940
  939TIP3   OH224451   6.206   2.245   0.999  0.4522  0.1032 -0.0436
  939TIP3    H124452   6.133   2.281   1.050  0.9674  1.6801 -0.3824
  939TIP3    H224453   6.258   2.195   1.063 -0.1189  0.1861  0.4985
  940TIP3   OH224454   4.552   5.373   2.516 -0.4075 -0.4792  0.2298
  940TIP3    H124455   4.501   5.350   2.593  0.1552 -1.4743  0.3333
  940TIP3    H224456   4.573   5.288   2.476 -1.4898  0.0360 -1.5579
  941TIP3   OH224457   6.511   3.213   7.597 -0.4012 -0.4566  0.6561
  941TIP3    H124458   6.517   3.194   7.690  0.3932  2.2531  1.2467
  941TIP3    H224459   6.450   3.287   7.591  0.3379  0.0770 -0.8525
  942TIP3   OH224460   6.106   0.873   2.253  0.1443  0.2427  0.6765
  942TIP3    H124461   6.100   0.896   2.160  2.2688 -1.8437 -0.0624
  942TIP3    H224462   6.032   0.814   2.268 -0.9605  1.5771  0.6984
  943TIP3   OH224463   4.581   0.437   1.775 -0.1449  0.2494 -0.3810
  943TIP3    H124464   4.628   0.488   1.709  0.7783  1.3845  1.0886
  943TIP3    H224465   4.646   0.419   1.843 -1.5409  0.9920  1.2448
  944TIP3   OH224466   1.316   3.996   2.008 -0.5729  0.0296  0.1646
  944TIP3    H124467   1.403   3.956   2.014 -0.8070 -0.5904 -0.4892
  944TIP3    H224468   1.333   4.090   2.014  0.4143  0.0874 -2.3804
  945TIP3   OH224469   3.675   0.540   1.057  0.1429  0.4246 -0.0260
  945TIP3    H124470   3.717   0.626   1.058  0.7663  0.1214  1.0364
  945TIP3    H224471   3.601   0.549   1.118  0.8000 -0.0696  0.8584
  946TIP3   OH224472   5.660   0.600   7.142 -0.1084  0.1462 -0.0013
  946TIP3    H124473   5.730   0.596   7.076  2.3634 -1.7276  2.5101
  946TIP3    H224474   5.583   0.565   7.097  1.5761 -1.5164 -1.8222
  947TIP3   OH224475   2.923   5.243   7.646 -0.0904 -0.3516  0.4818
  947TIP3    H124476   2.907   5.163   7.595 -1.5830 -0.3830  0.9505
  947TIP3    H224477   2.930   5.212   7.736  0.4149 -0.0635  0.5438
  948TIP3   OH224478   0.667   4.711   7.904  0.4350  0.0918  0.0954
  948TIP3    H124479   0.696   4.731   7.815 -0.5942  1.9816  0.1256
  948TIP3    H224480   0.741   4.735   7.960  0.8192 -0.4040 -0.2035
  949TIP3   OH224481   5.706   2.696   7.370  0.0482 -0.2078 -0.1349
  949TIP3    H124482   5.715   2.700   7.465  0.8886  0.4737 -0.2294
  949TIP3    H224483   5.737   2.782   7.340  2.0122 -1.2344 -1.1806
  950TIP3   OH224484   5.478   0.645   8.176  0.3013 -0.0876 -0.1129
  950TIP3    H124485   5.529   0.621   8.253  0.9078 -0.8701 -0.7392
  950TIP3    H224486   5.534   0.623   8.102 -0.3377  0.4843 -0.7907
  951TIP3   OH224487   3.298   0.886   0.694  0.3232  0.4776  0.1584
  951TIP3    H124488   3.354   0.812   0.718 -0.3917 -0.4602 -0.9501
  951TIP3    H224489   3.250   0.856   0.617 -0.4239  1.8949  0.0323
  952TIP3   OH224490   3.092   4.158   1.091 -0.1816 -0.6684 -0.0657
  952TIP3    H124491   3.045   4.212   1.027 -0.1489 -0.3528  0.1724
  952TIP3    H224492   3.145   4.099   1.038 -2.2454 -2.3356 -0.3779
  953TIP3   OH224493   2.951   3.756   7.889  0.1661 -0.6118  0.3051
  953TIP3    H124494   2.919   3.749   7.979  2.0291  0.0012  1.0677
  953TIP3    H224495   2.901   3.829   7.851 -0.4854 -0.7406  0.8941
  954TIP3   OH224496   1.505   0.888   8.118 -0.0091  0.6188 -0.4603
  954TIP3    H124497   1.480   0.966   8.169 -0.6477 -0.1795  0.4911
  954TIP3    H224498   1.576   0.850   8.168 -1.4437 -0.8523  0.5705
  955TIP3   OH224499   6.158   2.612   1.156  0.0086  0.2311  0.1582
  955TIP3    H124500   6.150   2.517   1.161  0.6658  0.1097 -0.7967
  955TIP3    H224501   6.133   2.634   1.066  1.0271  0.8174 -0.0063
  956TIP3   OH224502   3.054   3.138   7.574 -0.0710 -0.7928  0.1094
  956TIP3    H124503   3.006   3.221   7.578  4.6675  2.4057 -0.2649
  956TIP3    H224504   3.091   3.127   7.661  2.0255 -0.5852 -0.7039
  957TIP3   OH224505   5.498   5.651   0.786 -0.7242 -0.2546 -0.2316
  957TIP3    H124506   5.465   5.566   0.755 -0.2827 -0.5480  0.0946
  957TIP3    H224507   5.506   5.640   0.881  0.1038 -0.1150 -0.2833
  958TIP3   OH224508   5.782   0.134   6.730  0.1857  0.2737 -0.3134
  958TIP3    H124509   5.710   0.083   6.694 -1.4247  1.2389  1.3622
  958TIP3    H224510   5.796   0.098   6.818  0.2932  1.4373  0.1747
  959TIP3   OH224511   0.453   4.222   8.340  0.4235  0.2738 -0.2570
  959TIP3    H124512   0.385   4.184   8.397 -0.3629  0.7910 -0.8309
  959TIP3    H224513   0.481   4.149   8.285 -0.8272  0.3960 -1.1057
  960TIP3   OH224514   5.614   3.425   7.922  0.2086  0.4673  0.3662
  960TIP3    H124515   5.621   3.396   7.831  0.4940 -2.1020  1.1349
  960TIP3    H224516   5.534   3.478   7.923 -0.0105  0.2412 -1.2867
  961TIP3   OH224517   0.684   0.984   1.682 -0.5826 -0.2320 -0.3502
  961TIP3    H124518   0.722   1.040   1.614 -1.4729 -0.2382 -0.8656
  961TIP3    H224519   0.618   1.039   1.723 -0.0245 -0.2172  0.5476
  962TIP3   OH224520   5.588   2.643   0.194 -0.1436  0.3799  0.6961
  962TIP3    H124521   5.534   2.598   0.129 -1.2591 -0.3809  2.1118
  962TIP3    H224522   5.667   2.590   0.201  1.2488  1.8616 -1.8912
  963TIP3   OH224523   3.192   2.664   1.518  0.7508 -0.0757  0.5504
  963TIP3    H124524   3.169   2.607   1.591  2.6364 -0.2208  1.0714
  963TIP3    H224525   3.210   2.749   1.559  1.1378  0.0276  0.1742
  964TIP3   OH224526   5.681   5.190   0.826 -0.0590 -0.4702  0.2385
  964TIP3    H124527   5.658   5.262   0.767  1.2053 -0.7430 -0.6336
  964TIP3    H224528   5.654   5.111   0.780 -0.7540 -0.6091  0.8616
  965TIP3   OH224529   6.155   1.348   1.751  0.1103  0.1851  0.3562
  965TIP3    H124530   6.236   1.384   1.714  0.2869 -0.3920  0.1768
  965TIP3    H224531   6.184   1.294   1.824 -0.1230  0.0353  0.3370
  966TIP3   OH224532   2.340   5.844   8.563  0.1449  0.4441 -0.2151
  966TIP3    H124533   2.388   5.771   8.523  1.9600  0.9607  0.8911
  966TIP3    H224534   2.393   5.921   8.541  0.2083  0.9564  1.6048
  967TIP3   OH224535   4.745   2.859   0.552  0.0445  0.1259  0.2538
  967TIP3    H124536   4.742   2.772   0.593  1.3850 -0.8893 -1.6783
  967TIP3    H224537   4.706   2.846   0.466  2.0260  0.9378 -0.8332
  968TIP3   OH224538   3.268   0.827   7.886  0.3104  0.3422 -0.5494
  968TIP3    H124539   3.192   0.882   7.865  1.9752  2.7573 -0.6058
  968TIP3    H224540   3.258   0.807   7.979 -0.9311 -0.3084 -0.7985
  969TIP3   OH224541   4.731   1.638   0.533  0.2713 -0.0636 -0.1943
  969TIP3    H124542   4.785   1.700   0.483  1.3080 -1.6320 -1.0952
  969TIP3    H224543   4.646   1.639   0.489  0.3105  0.6310 -0.2616
  970TIP3   OH224544   3.256   1.051   1.842 -0.0178 -0.2035 -0.9542
  970TIP3    H124545   3.196   1.108   1.793  1.2667  0.5625 -1.7026
  970TIP3    H224546   3.246   0.965   1.802  0.9597  0.3934 -2.6004
  971TIP3   OH224547   2.711   1.579   1.613 -0.4930 -0.0596  0.1134
  971TIP3    H124548   2.637   1.602   1.669 -0.8903 -0.5731 -0.1952
  971TIP3    H224549   2.682   1.600   1.524 -1.0652 -2.1091 -0.2528
  972TIP3   OH224550   6.215   3.740   6.559 -0.1120  0.4443 -0.0396
  972TIP3    H124551   6.221   3.835   6.549  0.0266  0.4652  0.2393
  972TIP3    H224552   6.266   3.705   6.487 -0.7604  0.5707 -0.5756
  973TIP3   OH224553   3.277   3.544   0.850 -0.1581 -0.6344 -0.4074
  973TIP3    H124554   3.307   3.473   0.906 -0.7840  0.3406  1.2182
  973TIP3    H224555   3.222   3.599   0.906  1.8332  2.2309 -0.9977
  974TIP3   OH224556   4.584   3.978   0.845 -0.2653 -0.4547  0.3431
  974TIP3    H124557   4.654   3.969   0.909 -0.1526 -0.2269  0.2551
  974TIP3    H224558   4.549   3.890   0.834 -0.0040 -0.5660  0.4025
  975TIP3   OH224559   4.414   1.022   1.762 -0.2896 -0.5551  0.2603
  975TIP3    H124560   4.489   1.012   1.821  0.0691  1.4693  0.2052
  975TIP3    H224561   4.347   1.065   1.816 -1.4711 -2.3507  0.3183
  976TIP3   OH224562   1.488   5.328   0.718  0.0311  0.1802 -0.3483
  976TIP3    H124563   1.557   5.350   0.781 -0.4366  1.8932 -0.3965
  976TIP3    H224564   1.424   5.398   0.727 -1.0177 -0.6106 -1.3382
  977TIP3   OH224565   5.092   2.680   1.631  0.5101  0.9329  0.0864
  977TIP3    H124566   5.023   2.679   1.697 -1.7081 -1.2306 -2.0707
  977TIP3    H224567   5.054   2.727   1.557  0.6352 -1.6359 -1.7420
  978TIP3   OH224568   2.216   6.636   8.751 -0.6772 -0.2261 -0.0796
  978TIP3    H124569   2.123   6.623   8.765 -0.4449 -2.3945 -0.2372
  978TIP3    H224570   2.237   6.584   8.673  0.6058  0.4245 -0.2011
  979TIP3   OH224571   3.052   0.402   0.654  0.1808  0.3377 -0.2814
  979TIP3    H124572   3.065   0.483   0.703 -1.7072  0.1187  0.6565
  979TIP3    H224573   3.008   0.430   0.573  0.9954  0.4109 -0.7086
  980TIP3   OH224574   6.469   3.091   7.250 -0.0340 -0.0132  0.0034
  980TIP3    H124575   6.427   3.012   7.216 -0.1449  0.0403  0.0157
  980TIP3    H224576   6.523   3.123   7.177  0.3289 -0.3261  0.1329
  981TIP3   OH224577   3.894   2.283   1.459  0.3688 -0.0116  0.0773
  981TIP3    H124578   3.891   2.189   1.439  0.6098 -0.1299  0.5752
  981TIP3    H224579   3.971   2.315   1.412  0.1015  0.0032 -0.3558
  982TIP3   OH224580   4.309   2.042   0.661  0.0363  0.9604 -0.0460
  982TIP3    H124581   4.343   2.044   0.750  1.2950  1.3626 -0.5150
  982TIP3    H224582   4.314   2.132   0.630 -0.8088  0.9050 -0.3795
  983TIP3   OH224583   6.429   2.916   7.868  0.0359  0.3421 -0.4407
  983TIP3    H124584   6.364   2.950   7.806  1.2290 -0.2631 -2.1136
  983TIP3    H224585   6.417   2.968   7.947 -1.9941  0.7092 -0.9364
  984TIP3   OH224586   2.606   2.292   2.096  0.1488 -0.1810 -0.0287
  984TIP3    H124587   2.623   2.300   2.003  1.0152 -1.2534  0.0258
  984TIP3    H224588   2.673   2.347   2.138 -0.3296  0.4169 -0.0251
  985TIP3   OH224589   0.019   4.243   7.084  0.3103  0.4418  0.0189
  985TIP3    H124590   0.026   4.334   7.113  3.6557 -0.1631  1.5674
  985TIP3    H224591   0.104   4.224   7.044 -1.2753 -1.2755 -2.9416
  986TIP3   OH224592   1.452   4.056   6.770  0.2185 -0.6876 -0.0852
  986TIP3    H124593   1.424   4.049   6.678  0.9994 -0.0954 -0.3759
  986TIP3    H224594   1.401   4.130   6.805 -1.5453 -2.1188  0.5396
  987TIP3   OH224595   3.954   5.928   0.600  0.3057  0.1884  0.5946
  987TIP3    H124596   3.923   5.845   0.635  0.2874 -0.0009  0.1435
  987TIP3    H224597   3.875   5.970   0.563  0.6003 -0.4078 -0.7834
  988TIP3   OH224598   0.851   1.534   0.958  0.3974 -0.3132  0.4899
  988TIP3    H124599   0.895   1.452   0.937  0.1830 -0.5327  0.8983
  988TIP3    H224600   0.919   1.587   1.001  1.4676  0.9506 -2.5228
  989TIP3   OH224601   4.204   6.309   7.074 -0.2543 -0.6496  0.3128
  989TIP3    H124602   4.118   6.337   7.041  0.3166  1.4441  0.4971
  989TIP3    H224603   4.190   6.219   7.103 -2.4576 -0.2701  0.5929
  990TIP3   OH224604   2.825   3.828   1.945 -0.7499  0.4201  0.5273
  990TIP3    H124605   2.786   3.820   2.032 -2.0518  0.1189 -0.0472
  990TIP3    H224606   2.804   3.745   1.902 -3.3262  1.8506 -1.2622
  991TIP3   OH224607   5.682   6.642   7.483 -0.2674 -0.3415 -0.5217
  991TIP3    H124608   5.740   6.590   7.428 -1.8875 -2.1581 -0.6202
  991TIP3    H224609   5.735   6.716   7.511  2.1153 -1.9568 -0.4942
  992TIP3   OH224610   0.623   5.143   8.510 -0.2711 -0.4193 -0.5026
  992TIP3    H124611   0.561   5.215   8.514  0.8097  0.5062  0.0572
  992TIP3    H224612   0.697   5.172   8.562  0.4156 -1.7208 -0.7127
  993TIP3   OH224613   6.551   0.754   2.085 -0.2111 -0.1809 -0.1335
  993TIP3    H124614   6.562   0.659   2.082  2.1648 -0.0290  1.1969
  993TIP3    H224615   6.499   0.770   2.163 -0.8688 -0.3918 -0.5232
  994TIP3   OH224616   3.451   6.691   0.141  0.5520  0.3719 -0.4150
  994TIP3    H124617   3.399   6.625   0.187  0.4403  0.6035 -0.2053
  994TIP3    H224618   3.389   6.763   0.126  1.2378  1.4013  1.3946
  995TIP3   OH224619   6.770   3.210   8.826 -0.4229 -0.2373 -0.0513
  995TIP3    H124620   6.737   3.229   8.738 -0.0853 -0.7780 -0.2966
  995TIP3    H224621   6.848   3.158   8.812  0.7734  1.3367  0.5070
  996TIP3   OH224622   2.306   6.485   7.000 -0.2636 -0.1395 -0.5245
  996TIP3    H124623   2.315   6.429   7.077 -1.0869 -0.0032 -0.3153
  996TIP3    H224624   2.369   6.450   6.937  0.1592 -0.4825  0.0722
  997TIP3   OH224625   0.108   0.011   0.459  0.0122  0.3457 -0.0966
  997TIP3    H124626   0.159  -0.061   0.496  0.4405  1.3789  1.4038
  997TIP3    H224627   0.146   0.090   0.497 -2.3942  1.1948  0.7606
  998TIP3   OH224628   4.313   5.774   1.627 -0.4408 -0.1170 -0.0276
  998TIP3    H124629   4.252   5.831   1.581  1.7757  2.2263 -0.2950
  998TIP3    H224630   4.375   5.834   1.668  0.8257 -2.3153  1.4852
  999TIP3   OH224631   4.066   5.131   7.318 -0.0343  0.1569 -0.1371
  999TIP3    H124632   4.062   5.204   7.380 -0.1902  1.0903 -1.1890
  999TIP3    H224633   4.156   5.134   7.285  0.4966 -1.2585  1.0707
 1000TIP3   OH224634   2.820   1.036   8.745 -0.4107 -0.1994 -0.1806
 1000TIP3    H124635   2.790   1.021   8.835 -0.1606  0.0676 -0.0496
 1000TIP3    H224636   2.771   0.973   8.692 -2.0257  0.9756 -0.1490
 1001TIP3   OH224637   0.531   2.721   1.716  0.3433 -0.1457  0.1080
 1001TIP3    H124638   0.513   2.698   1.808 -0.5820 -1.7889 -0.4436
 1001TIP3    H224639   0.618   2.685   1.699  0.7161  0.5682  0.4504
 1002TIP3   OH224640   6.815   4.980   7.262 -0.0751  0.1063  0.2083
 1002TIP3    H124641   6.838   4.887   7.259 -1.8686 -0.3559  0.0708
 1002TIP3    H224642   6.839   5.014   7.176  0.5734 -0.2198  0.2548
 1003TIP3   OH224643   5.151   0.277   0.828  0.3614 -0.2576 -0.4472
 1003TIP3    H124644   5.205   0.298   0.904  2.4585 -0.3732 -1.8380
 1003TIP3    H224645   5.174   0.187   0.805 -1.2914 -0.7250 -0.4268
 1004TIP3   OH224646   6.579   3.753   0.429  0.2400  0.5308  0.2520
 1004TIP3    H124647   6.499   3.701   0.435  0.1109  0.6835 -0.1503
 1004TIP3    H224648   6.557   3.837   0.469  0.1293  0.6537 -0.0638
 1005TIP3   OH224649   5.413   0.253   1.001  0.0508 -0.3552 -0.1433
 1005TIP3    H124650   5.385   0.167   1.032 -1.2694  0.3257  0.6207
 1005TIP3    H224651   5.359   0.315   1.050  0.5680  0.8935 -1.1071
 1006TIP3   OH224652   3.787   0.231   8.659  0.0830  0.1190  0.3428
 1006TIP3    H124653   3.731   0.171   8.708  0.9853  0.1354  1.4260
 1006TIP3    H224654   3.820   0.293   8.724 -1.2391  2.1628 -0.8239
 1007TIP3   OH224655   2.682   0.682   8.700  0.7572  0.3167 -0.6858
 1007TIP3    H124656   2.745   0.682   8.772  1.2149  0.5541 -1.0796
 1007TIP3    H224657   2.600   0.653   8.740  1.4446 -1.4191 -0.4549
 1008TIP3   OH224658   1.951   0.380   7.398 -0.2288 -0.3036 -0.1144
 1008TIP3    H124659   1.952   0.298   7.349 -0.8432 -0.9776  0.9536
 1008TIP3    H224660   1.881   0.431   7.359  0.7600  0.1348 -1.3987
 1009TIP3   OH224661   0.855   4.421   0.729  0.1518  0.4065  0.3606
 1009TIP3    H124662   0.920   4.467   0.676 -1.3267  0.8469 -1.1752
 1009TIP3    H224663   0.792   4.488   0.753 -0.0661 -0.1249  1.3100
 1010TIP3   OH224664   0.139   3.187   0.795 -0.4927  0.2095  0.7712
 1010TIP3    H124665   0.052   3.147   0.804 -0.2983 -0.3765  0.1558
 1010TIP3    H224666   0.197   3.131   0.847  0.2256 -1.8591 -2.0139
 1011TIP3   OH224667   5.446   2.562   0.418  0.4625 -0.2732 -0.2061
 1011TIP3    H124668   5.502   2.615   0.361 -0.4988 -0.5091 -1.4215
 1011TIP3    H224669   5.503   2.492   0.449  1.2685  0.4327 -0.0600
 1012TIP3   OH224670   4.191   3.090   8.126 -0.0640 -0.3991 -0.6511
 1012TIP3    H124671   4.097   3.078   8.140  0.0291  0.6209  1.0930
 1012TIP3    H224672   4.203   3.185   8.122  1.2485 -0.3161  2.5070
 1013TIP3   OH224673   2.656   3.767   0.577  0.3375 -0.2586 -0.1804
 1013TIP3    H124674   2.739   3.785   0.532 -0.7825  1.8165 -1.5972
 1013TIP3    H224675   2.670   3.800   0.666  1.4588 -1.2186  0.0259
 1014TIP3   OH224676   0.606   6.791   8.191 -0.1657  0.0498 -0.4893
 1014TIP3    H124677   0.576   6.844   8.265 -0.6747  1.3436 -1.5800
 1014TIP3    H224678   0.652   6.718   8.231 -2.5564 -0.6455  1.1949
 1015TIP3   OH224679   4.467   0.788   6.412 -0.2064 -0.0152  0.1168
 1015TIP3    H124680   4.548   0.816   6.455 -0.9507  2.4402  0.1092
 1015TIP3    H224681   4.467   0.693   6.419  1.1335  0.1040  2.9249
 1016TIP3   OH224682   6.653   6.279   0.480 -0.3876 -0.6033 -0.1061
 1016TIP3    H124683   6.610   6.327   0.550 -0.3773 -0.4750 -0.1863
 1016TIP3    H224684   6.613   6.192   0.482 -1.2473 -0.2382 -0.7039
 1017TIP3   OH224685   6.313   6.199   7.424 -0.6180  0.1247  0.5828
 1017TIP3    H124686   6.281   6.153   7.502 -0.1911  0.0384  0.7118
 1017TIP3    H224687   6.279   6.148   7.351  0.4277 -0.8148  0.7279
 1018TIP3   OH224688   0.628   0.252   8.534  0.1367  0.0354  0.0071
 1018TIP3    H124689   0.561   0.184   8.537 -0.6412  0.8078  0.7425
 1018TIP3    H224690   0.695   0.224   8.597 -1.0115  0.7641  1.6127
 1019TIP3   OH224691   0.408   3.939   1.468  0.1119  0.1521 -0.3357
 1019TIP3    H124692   0.402   4.027   1.504 -0.7821  0.3359 -0.9096
 1019TIP3    H224693   0.322   3.922   1.429  0.0344 -1.2344  0.3632
 1020TIP3   OH224694   6.471   5.859   0.053 -0.1908 -0.2932 -0.1485
 1020TIP3    H124695   6.551   5.841   0.003 -0.9313 -0.2354 -1.3738
 1020TIP3    H224696   6.403   5.807   0.011 -0.8140 -0.3787  0.9061
 1021TIP3   OH224697   1.228   6.379   7.037  0.1774  0.4482 -0.1962
 1021TIP3    H124698   1.134   6.390   7.051  0.1686  1.6722 -1.0223
 1021TIP3    H224699   1.263   6.354   7.123 -1.0601 -1.3927 -0.1788
 1022TIP3   OH224700   2.737   4.099   0.858  0.4215  0.8673 -0.5558
 1022TIP3    H124701   2.689   4.124   0.937 -0.4617 -2.2148  0.0397
 1022TIP3    H224702   2.822   4.141   0.867 -0.2332  1.9062  1.2213
 1023TIP3   OH224703   5.268   5.857   1.438  0.1923 -0.4719 -0.1972
 1023TIP3    H124704   5.187   5.900   1.413 -1.0603 -1.9457  1.0940
 1023TIP3    H224705   5.307   5.915   1.504 -0.2329 -0.1519 -0.2230
 1024TIP3   OH224706   5.770   3.754   6.902  0.0550 -0.3328 -0.3270
 1024TIP3    H124707   5.807   3.760   6.814  2.0739 -1.2261  0.3684
 1024TIP3    H224708   5.844   3.773   6.960 -0.8274 -1.2296  1.1789
 1025TIP3   OH224709   4.226   2.074   1.412  0.4278  0.0569  0.9469
 1025TIP3    H124710   4.310   2.116   1.396  0.9767 -0.3955  2.5037
 1025TIP3    H224711   4.223   2.002   1.349  2.0442 -1.0317  2.0269
 1026TIP3   OH224712   0.902   5.634   0.942  0.5370  0.4406 -0.0446
 1026TIP3    H124713   0.841   5.705   0.964  0.7632  0.3723  0.8537
 1026TIP3    H224714   0.874   5.561   0.998  1.3782  0.3805  0.3114
 1027TIP3   OH224715   3.415   5.164   7.842 -0.6444 -0.4855 -0.2898
 1027TIP3    H124716   3.376   5.215   7.770 -1.6684 -0.7912  0.0374
 1027TIP3    H224717   3.345   5.105   7.871 -0.7154  0.5574  1.8637
 1028TIP3   OH224718   5.530   5.391   0.977  0.8781  0.4469  0.7257
 1028TIP3    H124719   5.577   5.317   0.937  0.8239  0.3356  0.8650
 1028TIP3    H224720   5.598   5.442   1.021  0.9657  0.6847  0.3173
 1029TIP3   OH224721   0.736   4.797   7.646  0.1350  0.6949 -0.2074
 1029TIP3    H124722   0.760   4.768   7.558 -0.8541  1.7822 -0.8746
 1029TIP3    H224723   0.815   4.837   7.682  0.4053  0.6996 -0.8046
 1030TIP3   OH224724   5.820   3.355   1.119 -0.6600 -1.1886  0.5252
 1030TIP3    H124725   5.837   3.431   1.174  0.4983 -0.1265 -1.2053
 1030TIP3    H224726   5.801   3.284   1.181  0.4384 -0.0327  2.2669
 1031TIP3   OH224727   4.436   2.940   2.476 -0.1167  0.3526 -0.3336
 1031TIP3    H124728   4.517   2.988   2.491 -0.3925  0.2558  1.7261
 1031TIP3    H224729   4.395   2.934   2.562 -3.0974  1.7348 -1.5226
 1032TIP3   OH224730   4.301   0.329   1.862 -0.1650 -0.1176  0.3569
 1032TIP3    H124731   4.343   0.293   1.939  2.1959  0.6142 -0.4944
 1032TIP3    H224732   4.304   0.258   1.797 -1.3900 -0.4588  0.6513
 1033TIP3   OH224733   5.500   2.157   8.226  0.0796  0.2978 -0.0318
 1033TIP3    H124734   5.531   2.068   8.245  0.4541  0.5932  0.7563
 1033TIP3    H224735   5.565   2.192   8.165  0.0246  0.1002 -0.2088
 1034TIP3   OH224736   0.363   1.042   1.091  0.3823  0.0321 -0.4129
 1034TIP3    H124737   0.347   0.994   1.010  2.3959 -0.0124 -0.8389
 1034TIP3    H224738   0.292   1.015   1.150 -0.4933 -0.7648 -1.7881
 1035TIP3   OH224739   4.568   5.882   1.437 -0.4063  0.1515 -0.0730
 1035TIP3    H124740   4.646   5.937   1.444 -0.0470 -0.4654  1.0343
 1035TIP3    H224741   4.536   5.875   1.527 -1.7310  0.3640 -0.5063
 1036TIP3   OH224742   5.303   6.162   1.215 -0.0328  0.1409 -0.6754
 1036TIP3    H124743   5.357   6.132   1.142 -0.3039 -0.3258 -0.6875
 1036TIP3    H224744   5.353   6.139   1.294  0.8822  1.8270 -0.7166
 1037TIP3   OH224745   2.751   0.427   1.612  0.2740  0.5578  0.3498
 1037TIP3    H124746   2.831   0.422   1.664  0.6602  0.4984 -0.2411
 1037TIP3    H224747   2.768   0.369   1.537 -0.2649  0.6550  0.1508
 1038TIP3   OH224748   0.870   1.141   7.757  0.2243  0.0248 -0.1095
 1038TIP3    H124749   0.920   1.104   7.684  0.3671  1.1165 -0.5763
 1038TIP3    H224750   0.936   1.187   7.809  0.2224 -1.1826  1.0357
 1039TIP3   OH224751   1.242   0.383   0.190  0.3754 -0.3744  0.9658
 1039TIP3    H124752   1.179   0.352   0.255  0.9757 -0.1343  1.6830
 1039TIP3    H224753   1.189   0.410   0.115 -0.2713 -1.3897  1.0513
 1040TIP3   OH224754   2.727   4.939   7.809 -0.0578  0.3895 -0.2373
 1040TIP3    H124755   2.650   4.889   7.837  1.3430 -2.4706 -1.1298
 1040TIP3    H224756   2.720   4.942   7.714  0.1878  1.4774 -0.2369
 1041TIP3   OH224757   0.645   2.274   7.377  0.4017  0.5470 -0.2682
 1041TIP3    H124758   0.617   2.183   7.389  0.7496  0.4993  0.2217
 1041TIP3    H224759   0.602   2.322   7.447  0.9698  0.5963  0.0488
 1042TIP3   OH224760   0.431   2.977   7.959  0.1391  0.3963 -0.0735
 1042TIP3    H124761   0.433   3.013   8.048 -0.9224 -0.4259  0.2972
 1042TIP3    H224762   0.495   3.030   7.911  1.0534  0.5760  1.2805
 1043TIP3   OH224763   1.184   1.928   2.335 -0.1438  0.2180  0.2101
 1043TIP3    H124764   1.278   1.931   2.317  0.1097 -0.4156  1.3306
 1043TIP3    H224765   1.178   1.928   2.431 -1.3810  2.7250  0.2164
 1044TIP3   OH224766   6.402   2.546   0.404 -0.1573  0.5021  0.0047
 1044TIP3    H124767   6.374   2.481   0.340  0.2784  0.7012 -0.3923
 1044TIP3    H224768   6.424   2.495   0.482  0.0213  0.1877 -0.2508
 1045TIP3   OH224769   0.780   0.572   0.320 -0.1839  0.4692 -0.0633
 1045TIP3    H124770   0.807   0.634   0.388  2.0273 -0.2101 -0.2707
 1045TIP3    H224771   0.808   0.612   0.238  0.0411 -0.1869 -0.3113
 1046TIP3   OH224772   3.895   5.032   0.286 -0.2360 -0.3360 -0.3834
 1046TIP3    H124773   3.973   5.085   0.273 -0.4301  0.0168 -0.1500
 1046TIP3    H224774   3.836   5.058   0.215  0.0844 -1.0314 -0.9051
 1047TIP3   OH224775   3.687   3.294   7.702  0.0320 -0.5485  0.0153
 1047TIP3    H124776   3.727   3.280   7.616  1.8509 -0.8234  0.8609
 1047TIP3    H224777   3.606   3.244   7.699 -0.0861 -0.3240 -1.6358
 1048TIP3   OH224778   5.854   3.115   0.638  0.6628  0.3932 -0.0663
 1048TIP3    H124779   5.922   3.051   0.618  0.2545  0.4102 -1.6777
 1048TIP3    H224780   5.879   3.151   0.723  3.1513  0.9812 -0.9452
 1049TIP3   OH224781   5.573   2.602   8.624 -0.9001 -0.1687  0.1190
 1049TIP3    H124782   5.499   2.602   8.564 -2.1945  0.8040  1.6633
 1049TIP3    H224783   5.640   2.653   8.578 -1.1070 -1.1304 -1.3257
 1050TIP3   OH224784   4.723   4.497   2.340 -0.3381  0.1608 -0.0715
 1050TIP3    H124785   4.809   4.469   2.310  0.4911  1.2101  1.2471
 1050TIP3    H224786   4.696   4.564   2.277 -1.1593 -1.5933 -1.6921
 1051TIP3   OH224787   1.482   6.424   6.885  0.6669  0.5635  0.5702
 1051TIP3    H124788   1.415   6.389   6.944  0.3697  2.6049  1.5278
 1051TIP3    H224789   1.447   6.410   6.797 -0.7044  0.9680  1.0341
 1052TIP3   OH224790   6.707   3.944   1.079 -0.0943  0.0674 -0.3098
 1052TIP3    H124791   6.665   4.010   1.134 -0.5632  0.1763 -0.7998
 1052TIP3    H224792   6.653   3.866   1.091  0.2289 -0.1210 -0.0467
 1053TIP3   OH224793   0.449   0.136   2.156 -0.0776  0.2405  0.0516
 1053TIP3    H124794   0.458   0.047   2.122 -0.2403 -0.1937  1.1207
 1053TIP3    H224795   0.401   0.183   2.088  0.3498 -0.3797 -0.6922
 1054TIP3   OH224796   4.148   5.223   1.299  0.3389 -0.1861  0.1186
 1054TIP3    H124797   4.178   5.197   1.212  0.8932 -1.3058  0.6110
 1054TIP3    H224798   4.070   5.168   1.314  0.5120 -0.3277  0.5005
 1055TIP3   OH224799   0.719   1.173   0.263 -0.5233  0.0697 -0.1350
 1055TIP3    H124800   0.812   1.182   0.243 -0.9697  0.9617 -2.0184
 1055TIP3    H224801   0.712   1.087   0.304  1.2324  0.3350  0.8302
 1056TIP3   OH224802   6.060   2.373   6.975 -0.1063 -0.1149 -0.0899
 1056TIP3    H124803   6.015   2.410   6.898 -0.2073  2.0943  0.9430
 1056TIP3    H224804   5.996   2.381   7.046 -0.3820 -3.0471  0.1106
 1057TIP3   OH224805   1.524   3.077   8.614  0.1882 -0.2123 -0.5466
 1057TIP3    H124806   1.563   3.121   8.690  1.5827 -0.7211 -0.9545
 1057TIP3    H224807   1.528   2.984   8.636  0.0340 -0.3232 -0.9884
 1058TIP3   OH224808   5.301   5.423   7.325 -0.1883  0.3178  0.0921
 1058TIP3    H124809   5.273   5.353   7.267  1.3475  0.4619 -0.8745
 1058TIP3    H224810   5.381   5.458   7.285 -0.2300  1.8021  1.1987
 1059TIP3   OH224811   0.620   0.890   7.977 -0.1453 -0.2585 -0.0997
 1059TIP3    H124812   0.690   0.881   7.911 -0.0615  0.2410 -0.0818
 1059TIP3    H224813   0.542   0.912   7.926 -0.4141 -1.3156 -0.1709
 1060TIP3   OH224814   3.399   0.458   0.486  0.7297  0.5393 -0.0176
 1060TIP3    H124815   3.415   0.487   0.396  0.8985  0.6068  0.0337
 1060TIP3    H224816   3.376   0.365   0.477 -0.9907  0.9474 -0.2994
 1061TIP3   OH224817   5.518   2.198   6.536  0.2912 -0.6813  0.8110
 1061TIP3    H124818   5.433   2.240   6.553  0.3491  0.1860 -0.8431
 1061TIP3    H224819   5.581   2.254   6.581  0.2442  0.3752 -0.3746
 1062TIP3   OH224820   2.197   0.819   1.706  0.0885 -0.0159 -0.0205
 1062TIP3    H124821   2.136   0.808   1.778 -0.9216  0.4606 -0.7719
 1062TIP3    H224822   2.253   0.892   1.732 -1.0089  0.9107 -0.1821
 1063TIP3   OH224823   0.313   4.214   7.417 -0.0493 -0.2797  0.0573
 1063TIP3    H124824   0.394   4.193   7.463 -0.2215 -0.4772  0.2767
 1063TIP3    H224825   0.334   4.289   7.363 -0.0030  0.3491  0.9257
 1064TIP3   OH224826   5.341   6.808   0.555 -0.5469  0.2147  0.2525
 1064TIP3    H124827   5.286   6.844   0.486 -0.9280  0.4567  0.6699
 1064TIP3    H224828   5.342   6.876   0.623  0.5784  0.3616  0.0974
 1065TIP3   OH224829   6.182   0.622   1.224  0.2876  0.1625 -0.5799
 1065TIP3    H124830   6.271   0.592   1.244  0.5237  0.2526 -1.4416
 1065TIP3    H224831   6.194   0.713   1.195  0.0217 -0.0782 -1.4700
 1066TIP3   OH224832   5.662   5.426   8.657 -0.4347 -0.6740 -0.3680
 1066TIP3    H124833   5.576   5.402   8.624 -0.1180 -1.4321 -0.6594
 1066TIP3    H224834   5.694   5.348   8.702 -0.4992  0.0747  1.0176
 1067TIP3   OH224835   1.253   5.428   2.419 -0.0320 -0.1265  0.4837
 1067TIP3    H124836   1.230   5.511   2.377 -0.3315 -1.1055 -1.4047
 1067TIP3    H224837   1.194   5.422   2.494 -1.8675  0.1663 -0.8768
 1068TIP3   OH224838   1.381   5.428   8.833 -0.1067  1.0190 -0.2907
 1068TIP3    H124839   1.362   5.419   8.926 -0.8204 -1.6389 -0.5942
 1068TIP3    H224840   1.308   5.480   8.799 -0.5728  0.8696  0.4514
 1069TIP3   OH224841   1.456   3.970   1.444  0.2367  0.0999 -0.2773
 1069TIP3    H124842   1.425   3.988   1.533  1.1597  2.4104 -0.3406
 1069TIP3    H224843   1.386   4.004   1.388  0.8614  1.2169 -0.4060
 1070TIP3   OH224844   3.478   0.172   0.923 -0.4110 -0.3013 -0.4224
 1070TIP3    H124845   3.466   0.267   0.916 -1.3570 -0.3314  0.5670
 1070TIP3    H224846   3.444   0.150   1.009  1.6779 -1.2698  0.2209
 1071TIP3   OH224847   2.469   5.757   1.725  0.1749 -0.3560  0.3454
 1071TIP3    H124848   2.437   5.715   1.805  0.5053  0.7731  1.1033
 1071TIP3    H224849   2.565   5.749   1.730  0.1628 -1.0014 -0.3528
 1072TIP3   OH224850   2.814   3.381   6.905  0.0388 -0.3483 -0.4832
 1072TIP3    H124851   2.854   3.399   6.819  0.8209 -0.2373 -0.1021
 1072TIP3    H224852   2.887   3.355   6.960 -0.2553  0.8595  0.5130
 1073TIP3   OH224853   0.561   1.504   6.883  0.3494 -0.1859 -0.0723
 1073TIP3    H124854   0.551   1.421   6.930 -0.5717 -0.8532 -1.3455
 1073TIP3    H224855   0.495   1.562   6.921 -1.8909 -1.3966 -1.8281
 1074TIP3   OH224856   5.287   0.603   2.405 -0.1227  0.5851 -0.1292
 1074TIP3    H124857   5.302   0.537   2.338 -1.0999  2.0062 -1.8325
 1074TIP3    H224858   5.195   0.626   2.397 -0.4732  0.3352  2.2115
 1075TIP3   OH224859   5.621   4.361   1.105 -0.1114  0.1418 -0.2167
 1075TIP3    H124860   5.532   4.392   1.087 -1.4793 -2.2651  1.8087
 1075TIP3    H224861   5.658   4.428   1.163 -1.3119  0.2461  0.4648
 1076TIP3   OH224862   4.763   4.860   2.538  0.2048  0.2063  0.1099
 1076TIP3    H124863   4.829   4.891   2.476  0.2995  0.9735  0.5833
 1076TIP3    H224864   4.680   4.873   2.492  0.4455 -3.1144 -1.5151
 1077TIP3   OH224865   4.085   3.748   8.230  0.1670  0.1282 -0.4631
 1077TIP3    H124866   3.993   3.727   8.220 -0.3710  2.1363 -0.2523
 1077TIP3    H224867   4.107   3.718   8.319 -0.3524 -0.1225 -0.4170
 1078TIP3   OH224868   1.527   0.550   0.843  0.1907 -0.3824 -0.2380
 1078TIP3    H124869   1.524   0.565   0.938  0.3467  0.2839 -0.3358
 1078TIP3    H224870   1.620   0.537   0.825  0.0507 -1.6212 -0.1379
 1079TIP3   OH224871   1.207   0.552   7.560 -0.3784  0.2556 -0.4009
 1079TIP3    H124872   1.218   0.629   7.505  0.5900  0.6480  0.3163
 1079TIP3    H224873   1.294   0.535   7.597 -0.9562 -0.0663  0.8870
 1080TIP3   OH224874   1.912   0.104   8.068 -0.6089  0.3553  0.6924
 1080TIP3    H124875   1.898   0.054   8.149 -2.7146 -0.2528  0.0170
 1080TIP3    H224876   1.931   0.038   8.002 -1.0238  0.6580  0.2647
 1081TIP3   OH224877   1.436   3.206   7.583  0.5386 -0.2694 -0.3214
 1081TIP3    H124878   1.425   3.111   7.586  2.0151 -0.5089 -1.2364
 1081TIP3    H224879   1.355   3.239   7.544 -0.2108 -1.0903  0.5065
 1082TIP3   OH224880   5.773   5.014   7.279 -0.0163  0.5467  0.1895
 1082TIP3    H124881   5.745   5.012   7.188 -0.1024  1.5161  0.1831
 1082TIP3    H224882   5.854   4.964   7.281 -0.0821  0.4146 -0.3898
 1083TIP3   OH224883   2.598   5.295   8.332 -0.0237 -0.0179 -0.0621
 1083TIP3    H124884   2.638   5.357   8.272 -0.3399 -0.0385 -0.2942
 1083TIP3    H224885   2.627   5.323   8.419  0.3509  0.0707 -0.2163
 1084TIP3   OH224886   6.290   3.481   0.053  0.5129 -0.2696  0.1412
 1084TIP3    H124887   6.202   3.453   0.027 -0.2967  2.1309  0.0168
 1084TIP3    H224888   6.326   3.406   0.100 -1.5521 -1.3731  0.1073
 1085TIP3   OH224889   1.464   4.731   6.995  0.3500  0.4024  0.1731
 1085TIP3    H124890   1.449   4.812   7.044 -1.5577  0.4445 -0.3852
 1085TIP3    H224891   1.411   4.665   7.040 -0.9788  0.3137 -1.3974
 1086TIP3   OH224892   3.043   5.943   7.054 -0.2199  0.0252  0.2934
 1086TIP3    H124893   3.119   5.933   7.111 -0.1363  0.5061  0.2689
 1086TIP3    H224894   3.070   6.007   6.988 -1.5585  2.4433  1.9125
 1087TIP3   OH224895   3.392   5.163   7.092  0.0007 -0.5927 -0.3856
 1087TIP3    H124896   3.335   5.094   7.058 -1.2977 -0.2740  0.9998
 1087TIP3    H224897   3.457   5.116   7.144  0.7250 -0.9278 -1.5660
 1088TIP3   OH224898   3.551   2.750   7.386 -0.1460 -0.4822  0.2254
 1088TIP3    H124899   3.495   2.814   7.342 -1.3408 -1.5327  0.1882
 1088TIP3    H224900   3.491   2.685   7.422  1.0699 -2.0584 -0.4683
 1089TIP3   OH224901   4.908   0.358   1.904  0.0374 -0.0509  0.1359
 1089TIP3    H124902   4.902   0.441   1.857 -0.0367 -0.6835 -1.0068
 1089TIP3    H224903   4.923   0.383   1.995 -0.3858  1.2168 -0.1241
 1090TIP3   OH224904   2.915   0.459   7.143  0.0663  0.2330  0.4097
 1090TIP3    H124905   2.905   0.553   7.123 -0.2488  0.1147 -0.0181
 1090TIP3    H224906   2.831   0.421   7.117  0.4625 -0.2844 -0.1153
 1091TIP3   OH224907   0.848   0.137   8.406  0.5043  0.0032  0.9655
 1091TIP3    H124908   0.761   0.177   8.394  0.6306 -0.0475 -0.2955
 1091TIP3    H224909   0.909   0.209   8.391  0.6988 -0.2406  0.5769
 1092TIP3   OH224910   0.682   5.027   1.911  0.2828 -0.0639 -0.2064
 1092TIP3    H124911   0.598   5.029   1.865 -0.6955 -0.8047  1.4613
 1092TIP3    H224912   0.660   5.047   2.002  1.9125 -0.3505  0.2862
 1093TIP3   OH224913   6.373   1.102   7.766 -0.3213 -0.4004  0.2868
 1093TIP3    H124914   6.296   1.111   7.823 -0.5971  0.8195 -0.2400
 1093TIP3    H224915   6.346   1.142   7.683  0.6372 -0.6403 -0.1554
 1094TIP3   OH224916   0.415   0.456   1.190 -0.0530 -0.4501 -0.0730
 1094TIP3    H124917   0.481   0.513   1.229 -0.0873 -0.6822  0.3290
 1094TIP3    H224918   0.405   0.385   1.253 -0.0784 -0.8508 -0.5299
 1095TIP3   OH224919   2.159   0.408   2.113  0.6972  0.4548 -0.3930
 1095TIP3    H124920   2.086   0.378   2.167  1.8159 -2.0390 -0.1491
 1095TIP3    H224921   2.191   0.487   2.158 -1.4075  1.2630 -0.1947
 1096TIP3   OH224922   3.834   0.846   0.577 -0.0100  0.1144 -0.1817
 1096TIP3    H124923   3.824   0.899   0.655  0.1406  0.1583 -0.1934
 1096TIP3    H224924   3.802   0.901   0.506  1.4979  0.7455 -0.4070
 1097TIP3   OH224925   1.287   2.574   1.078 -0.2511 -0.1160  0.4403
 1097TIP3    H124926   1.219   2.565   1.011 -3.0817 -1.1518  3.1972
 1097TIP3    H224927   1.355   2.512   1.051 -1.4396 -0.7827 -1.2581
 1098TIP3   OH224928   4.301   3.049   7.548  0.5509 -0.2239 -1.1371
 1098TIP3    H124929   4.280   3.126   7.601  0.3069 -2.0059  1.5412
 1098TIP3    H224930   4.389   3.067   7.514  0.2869  1.4335 -1.0420
 1099TIP3   OH224931   0.110   0.158   6.643 -0.1268 -0.5651  0.2144
 1099TIP3    H124932   0.045   0.166   6.712  1.2133 -1.5651  1.6726
 1099TIP3    H224933   0.133   0.249   6.621 -0.5408 -0.2263  1.1262
 1100TIP3   OH224934   5.093   2.240   1.381  0.3556 -0.4357  0.1247
 1100TIP3    H124935   5.164   2.279   1.330 -0.4518 -0.8755 -1.4113
 1100TIP3    H224936   5.085   2.296   1.457  1.9780 -0.0557  0.0683
 1101TIP3   OH224937   1.683   0.378   7.287 -0.6766 -0.7077  0.2797
 1101TIP3    H124938   1.667   0.454   7.231  0.1253 -1.2740 -0.7518
 1101TIP3    H224939   1.728   0.315   7.231 -0.0031 -1.3766  1.5113
 1102TIP3   OH224940   2.481   2.226   0.753 -0.3588 -0.0753 -0.2572
 1102TIP3    H124941   2.568   2.267   0.754 -0.0268 -0.7661 -0.1070
 1102TIP3    H224942   2.430   2.279   0.692 -0.2829  1.2436  0.7809
 1103TIP3   OH224943   1.120   2.300   7.766 -0.0785  0.2748  0.5640
 1103TIP3    H124944   1.140   2.290   7.673 -2.0172  1.2980 -0.0284
 1103TIP3    H224945   1.062   2.226   7.786 -0.1314  0.3803  0.8065
 1104TIP3   OH224946   5.806   2.849   1.907  1.2035  0.6152  0.3057
 1104TIP3    H124947   5.867   2.814   1.972 -0.1338 -0.9849  0.7685
 1104TIP3    H224948   5.808   2.786   1.836 -0.6120 -0.0327  0.7712
 1105TIP3   OH224949   4.958   5.108   8.054  0.3971  0.0265  0.0002
 1105TIP3    H124950   4.866   5.135   8.051  0.1978 -0.6874 -2.0776
 1105TIP3    H224951   4.967   5.063   8.138 -0.7179  1.4555  0.9455
 1106TIP3   OH224952   3.241   4.235   0.805 -0.0151 -0.0105  0.0915
 1106TIP3    H124953   3.248   4.145   0.838 -0.5665 -0.3213 -0.6257
 1106TIP3    H224954   3.329   4.256   0.773  0.5497  0.3158  1.7672
 1107TIP3   OH224955   0.009   5.416   6.251 -0.4025  0.2411  0.0890
 1107TIP3    H124956  -0.034   5.496   6.220 -0.5013  0.0281 -0.3186
 1107TIP3    H224957  -0.042   5.390   6.328  0.1649  1.0675  0.7776
 1108TIP3   OH224958   1.462   0.309   6.341 -0.4434  0.4432  0.5903
 1108TIP3    H124959   1.483   0.221   6.311 -0.4363  1.0160 -1.1779
 1108TIP3    H224960   1.511   0.319   6.423  0.8413 -0.6115 -0.0199
 1109TIP3   OH224961   2.888   2.389   1.668  0.3574 -0.1377 -0.2021
 1109TIP3    H124962   2.877   2.419   1.578  0.2834 -1.5544 -0.6919
 1109TIP3    H224963   2.895   2.294   1.661  0.3924 -0.2712  1.2876
 1110TIP3   OH224964   3.217   2.542   2.509  0.3848 -0.3132  0.2174
 1110TIP3    H124965   3.181   2.515   2.593 -0.5123 -0.5860 -0.2363
 1110TIP3    H224966   3.177   2.481   2.446  1.3594 -0.3769 -0.3509
 1111TIP3   OH224967   3.522   5.231   8.721  0.4097 -0.2246 -0.2169
 1111TIP3    H124968   3.453   5.297   8.714 -1.0729 -1.7285 -0.7711
 1111TIP3    H224969   3.592   5.262   8.664 -1.4803 -0.5093 -2.8839
 1112TIP3   OH224970   0.753   2.002   6.454  0.4246 -0.4490 -0.1520
 1112TIP3    H124971   0.731   2.082   6.405  0.1583 -0.8246 -0.6593
 1112TIP3    H224972   0.685   1.940   6.429  0.5065 -0.7697  0.4097
 1113TIP3   OH224973   1.192   2.821   0.719  0.1967 -0.2928 -0.0149
 1113TIP3    H124974   1.148   2.831   0.804 -0.1879  1.0345 -0.3480
 1113TIP3    H224975   1.139   2.756   0.673  0.2876 -0.8673  0.6708
 1114TIP3   OH224976   5.983   4.502   0.601 -0.7479 -0.1882 -0.6923
 1114TIP3    H124977   6.028   4.584   0.622 -1.7821 -0.0947  1.3273
 1114TIP3    H224978   5.927   4.524   0.527 -0.7725  0.8462 -0.3854
 1115TIP3   OH224979   2.111   0.239   0.173  0.6816  0.6137 -0.4873
 1115TIP3    H124980   2.099   0.145   0.188 -0.1379  0.6252 -0.9777
 1115TIP3    H224981   2.134   0.275   0.259  1.8463 -0.1523 -0.4672
 1116TIP3   OH224982   1.803   3.798   7.562  0.0002  0.0475 -0.8841
 1116TIP3    H124983   1.856   3.864   7.517  0.9367  0.6790  1.0325
 1116TIP3    H224984   1.814   3.719   7.510  0.1055  0.9897 -2.3786
 1117TIP3   OH224985   3.866   1.455   0.257 -0.3923 -0.0455 -0.3810
 1117TIP3    H124986   3.777   1.420   0.267 -0.9957  0.7264 -2.5731
 1117TIP3    H224987   3.922   1.383   0.286 -1.6941 -0.9957 -0.0917
 1118TIP3   OH224988   2.285   2.667   8.695 -0.7524 -0.7424 -0.1850
 1118TIP3    H124989   2.217   2.631   8.638 -0.6595 -1.6818  0.2651
 1118TIP3    H224990   2.258   2.642   8.783  0.2936 -1.3572 -0.0241
 1119TIP3   OH224991   1.168   2.113   6.697 -0.7271 -0.6327  0.2201
 1119TIP3    H124992   1.102   2.133   6.631  0.4211 -0.9719 -1.0639
 1119TIP3    H224993   1.121   2.120   6.780 -2.0242  0.5277 -0.5692
 1120TIP3   OH224994   0.496   0.052   0.566 -0.8874 -0.0816  0.1011
 1120TIP3    H124995   0.514   0.014   0.480  0.0937  2.2717 -0.8241
 1120TIP3    H224996   0.428   0.118   0.549 -1.1263 -0.0131  1.2481
 1121TIP3   OH224997   1.812   2.578   7.353  0.5361 -0.0763  0.4610
 1121TIP3    H124998   1.834   2.521   7.427 -1.7463  1.1723  2.2259
 1121TIP3    H224999   1.856   2.661   7.374 -0.6537  0.4889  0.8322
 1122TIP3   OH225000   6.831   1.394   0.178 -0.5248 -0.0297 -0.1362
 1122TIP3    H125001   6.909   1.342   0.156 -1.2564 -1.2687  0.1352
 1122TIP3    H225002   6.861   1.485   0.170  0.5861 -0.4624 -1.3244
 1123TIP3   OH225003   0.702   2.906   0.373  0.0155 -0.5609  0.2865
 1123TIP3    H125004   0.653   2.948   0.302  0.9139  0.2284  0.1114
 1123TIP3    H225005   0.674   2.951   0.452  1.1609  0.6137  0.0719
 1124TIP3   OH225006   0.807   4.120   8.255 -0.6605 -0.1513  0.9266
 1124TIP3    H125007   0.834   4.029   8.255  0.0977  0.0383 -0.3748
 1124TIP3    H225008   0.712   4.117   8.269 -0.8905 -1.2636 -0.5298
 1125TIP3   OH225009   0.781   4.730   0.535 -0.0133  0.2866  0.7237
 1125TIP3    H125010   0.704   4.716   0.480 -0.0766  0.4591  0.7677
 1125TIP3    H225011   0.854   4.699   0.482  0.1337  1.9642 -0.1387
 1126TIP3   OH225012   2.744   3.445   1.534 -0.5404 -0.9064 -0.2314
 1126TIP3    H125013   2.831   3.407   1.525 -0.2125 -0.3630  0.5810
 1126TIP3    H225014   2.684   3.376   1.506  0.2037 -0.7382 -2.4677
 1127TIP3   OH225015   0.512   5.920   0.945  0.1091 -0.4197 -0.4589
 1127TIP3    H125016   0.492   6.013   0.955  2.7314  0.1161  0.5200
 1127TIP3    H225017   0.513   5.905   0.850  0.3217  0.7181 -0.6491
 1128TIP3   OH225018   0.346   5.759   7.284  0.1860  0.3169  0.3181
 1128TIP3    H125019   0.302   5.799   7.359 -1.0834  1.2477 -0.8695
 1128TIP3    H225020   0.318   5.668   7.285  2.0375 -0.3050  2.2765
 1129TIP3   OH225021   6.286   6.247   0.556  1.0789 -0.2018 -0.1814
 1129TIP3    H125022   6.336   6.188   0.500 -1.4295 -1.5527 -1.1831
 1129TIP3    H225023   6.238   6.188   0.615 -1.3117  0.7507 -1.0549
 1130TIP3   OH225024   5.484   3.149   7.930 -0.2601  0.0938 -0.8561
 1130TIP3    H125025   5.530   3.175   7.851  0.7179  0.6258 -0.1205
 1130TIP3    H225026   5.437   3.069   7.905 -0.6763  0.7380 -2.2043
 1131TIP3   OH225027   5.860   5.089   8.431  0.6327  0.2676  0.3058
 1131TIP3    H125028   5.852   4.996   8.453  1.2969  0.3510  0.9357
 1131TIP3    H225029   5.907   5.127   8.505  1.9913  0.7653 -0.7736
 1132TIP3   OH225030   1.618   4.595   8.689 -0.0588  0.1324 -0.2645
 1132TIP3    H125031   1.576   4.656   8.750 -1.4029 -0.4799 -0.5346
 1132TIP3    H225032   1.559   4.520   8.687  1.6381 -1.2603  0.1762
 1133TIP3   OH225033   2.087   4.099   7.300 -0.1914 -0.6495  0.0117
 1133TIP3    H125034   2.172   4.137   7.322  0.9007 -0.9439 -3.2725
 1133TIP3    H225035   2.050   4.073   7.385  1.0931  3.1905  1.9714
 1134TIP3   OH225036   3.880   0.417   0.905  0.5563  0.4272 -0.1839
 1134TIP3    H125037   3.851   0.462   0.985 -0.0944  0.0106 -0.1812
 1134TIP3    H225038   3.828   0.337   0.902 -0.3509  1.0030 -1.6581
 1135TIP3   OH225039   0.186   1.150   8.661 -0.4379 -0.3528  0.3011
 1135TIP3    H125040   0.186   1.060   8.692 -1.8563 -0.0364  1.2652
 1135TIP3    H225041   0.095   1.178   8.666 -0.6067  0.1520 -2.9853
 1136TIP3   OH225042   2.153   5.539   6.420  0.0738  0.0125  0.1493
 1136TIP3    H125043   2.216   5.553   6.491  1.9851 -1.4020 -1.2008
 1136TIP3    H225044   2.186   5.464   6.372 -1.8285  0.1822 -1.5681
 1137TIP3   OH225045   6.390   1.819   2.296 -0.9353  0.6666 -0.6145
 1137TIP3    H125046   6.419   1.899   2.340 -0.4652  0.2990 -0.2427
 1137TIP3    H225047   6.469   1.782   2.258 -0.8694 -0.3940  0.4851
 1138TIP3   OH225048   2.964   1.366   2.556 -0.8454  0.1112 -0.3896
 1138TIP3    H125049   2.868   1.365   2.552 -0.8159 -0.9598 -1.6419
 1138TIP3    H225050   2.990   1.283   2.516  0.6170  0.5014 -0.2971
 1139TIP3   OH225051   4.945   3.697   1.220 -0.1895 -0.5749 -0.4799
 1139TIP3    H125052   4.876   3.676   1.157 -0.8432  0.7693 -0.2470
 1139TIP3    H225053   4.929   3.639   1.294 -0.2588 -1.1900 -0.9657
 1140TIP3   OH225054   5.637   2.947   0.888 -0.2207  0.5078 -0.3523
 1140TIP3    H125055   5.682   2.878   0.937 -0.9356 -0.0821 -0.5031
 1140TIP3    H225056   5.645   2.921   0.796 -2.9247 -0.9742 -0.2879
 1141TIP3   OH225057   0.339   1.903   7.483 -0.3396  0.3818  0.4090
 1141TIP3    H125058   0.341   1.934   7.393  1.1739  1.5868  0.8330
 1141TIP3    H225059   0.291   1.820   7.478 -1.4494  1.0652 -1.2758
 1142TIP3   OH225060   2.952   3.166   1.809  0.1052 -0.2792  0.4763
 1142TIP3    H125061   2.991   3.219   1.739 -2.9019 -0.2101 -1.3769
 1142TIP3    H225062   2.959   3.220   1.887  0.9007  0.9969 -0.4323
 1143TIP3   OH225063   4.474   0.759   1.717  0.4731 -0.1826  0.1413
 1143TIP3    H125064   4.438   0.845   1.736  1.2392 -0.2478  1.9960
 1143TIP3    H225065   4.478   0.756   1.621 -1.4874  1.0142 -0.0452
 1144TIP3   OH225066   5.755   5.607   6.470 -0.5275 -0.1477  0.2431
 1144TIP3    H125067   5.677   5.565   6.435  0.6823 -0.9549 -1.6689
 1144TIP3    H225068   5.750   5.697   6.438 -1.3237  0.2130  1.3088
 1145TIP3   OH225069   0.215   3.617   8.257  0.6966 -0.0762 -0.2915
 1145TIP3    H125070   0.268   3.675   8.312 -0.4181 -0.8602  1.7143
 1145TIP3    H225071   0.131   3.661   8.251  0.2405 -0.8734  0.1827
 1146TIP3   OH225072   6.583   1.486   1.862  0.0215 -0.1478  0.0531
 1146TIP3    H125073   6.652   1.421   1.872  1.9312  2.0215  1.9318
 1146TIP3    H225074   6.540   1.490   1.947 -0.8985  0.1720 -0.4089
 1147TIP3   OH225075   5.157   1.111   0.720  0.0014 -0.0847  1.0649
 1147TIP3    H125076   5.109   1.180   0.673  0.5844  1.4611  2.6260
 1147TIP3    H225077   5.248   1.124   0.694  0.2201  0.2736  1.9755
 1148TIP3   OH225078   5.322   0.633   6.863 -0.1752 -0.7351 -0.1347
 1148TIP3    H125079   5.342   0.553   6.911  1.2425 -0.6819 -0.5743
 1148TIP3    H225080   5.353   0.617   6.774  2.0994  0.9744  0.2445
 1149TIP3   OH225081   1.546   4.187   0.474 -0.3550  0.1473 -0.7087
 1149TIP3    H125082   1.561   4.165   0.566  0.9305 -2.4311 -1.4708
 1149TIP3    H225083   1.452   4.175   0.462 -0.1070 -2.5839 -0.4093
 1150TIP3   OH225084   0.242   4.249   1.448  0.2674 -0.1717  0.1092
 1150TIP3    H125085   0.320   4.275   1.399 -1.8097  3.2431 -1.8227
 1150TIP3    H225086   0.270   4.246   1.539  2.4212  2.2191 -0.3723
 1151TIP3   OH225087   5.499   3.205   8.488 -0.0589 -0.4847  0.8043
 1151TIP3    H125088   5.572   3.188   8.428 -0.5299 -0.8595  0.3283
 1151TIP3    H225089   5.528   3.279   8.540 -0.1076  0.6214 -0.6702
 1152TIP3   OH225090   0.022   6.192   8.066 -0.4400  0.1593  0.7914
 1152TIP3    H125091   0.058   6.281   8.055  0.3352 -0.2843 -0.5651
 1152TIP3    H225092   0.079   6.137   8.012 -1.2012 -1.0973  1.2342
 1153TIP3   OH225093   6.049   1.914   0.820 -0.1102 -0.1969  0.0894
 1153TIP3    H125094   6.007   1.829   0.816 -0.7131  0.0122  1.5101
 1153TIP3    H225095   6.133   1.901   0.775  0.3367 -1.8752  1.2859
 1154TIP3   OH225096   3.650   0.292   0.650 -0.1805 -0.1133  0.3022
 1154TIP3    H125097   3.584   0.238   0.607 -1.5427  0.8579  1.0829
 1154TIP3    H225098   3.601   0.368   0.682  1.1491  0.1614  1.7950
 1155TIP3   OH225099   0.662   0.724   7.034  0.1447  0.1065 -0.2545
 1155TIP3    H125100   0.625   0.653   6.982 -1.5681  0.1537  0.8162
 1155TIP3    H225101   0.609   0.725   7.114  2.7728 -0.0859  1.6094
 1156TIP3   OH225102   0.671   1.331   0.633  0.0047  0.5207  0.0318
 1156TIP3    H125103   0.612   1.317   0.560  0.3080 -1.5788  0.1238
 1156TIP3    H225104   0.662   1.253   0.687  0.4111  1.6360  1.8180
 1157TIP3   OH225105   3.475   2.878   0.518 -0.0361  0.5077  0.5022
 1157TIP3    H125106   3.497   2.930   0.595 -2.4007  1.2505  0.7497
 1157TIP3    H225107   3.428   2.802   0.554 -2.7752  1.7449 -0.1902
 1158TIP3   OH225108   0.836   0.193   0.186 -0.1572 -0.0485  0.4717
 1158TIP3    H125109   0.853   0.183   0.092 -0.0052 -0.3314  0.5282
 1158TIP3    H225110   0.923   0.193   0.226 -0.2592 -1.1688  0.7279
 1159TIP3   OH225111   1.847   6.383   8.210 -0.5389  0.1338  0.9461
 1159TIP3    H125112   1.873   6.406   8.299  0.7176 -2.0269  1.1999
 1159TIP3    H225113   1.915   6.323   8.179 -1.0941  0.5775 -1.3870
 1160TIP3   OH225114   6.564   2.931   1.751 -0.0783 -0.1172 -0.2624
 1160TIP3    H125115   6.655   2.913   1.725 -0.3770 -1.6278 -0.3616
 1160TIP3    H225116   6.519   2.847   1.739 -0.6332 -0.5222  3.5766
 1161TIP3   OH225117   3.893   4.547   7.792 -0.1380  0.1440  0.1647
 1161TIP3    H125118   3.814   4.492   7.786 -1.6102  2.2214 -1.1708
 1161TIP3    H225119   3.919   4.561   7.701  1.2660  0.2157  0.5616
 1162TIP3   OH225120   1.298   1.565   8.688  0.4169  0.2431 -0.0863
 1162TIP3    H125121   1.336   1.652   8.691  0.0091  0.5063 -1.6198
 1162TIP3    H225122   1.207   1.580   8.662 -0.6518 -0.4090  2.8743
 1163TIP3   OH225123   6.535   6.809   7.131 -0.3569  0.1203 -0.1140
 1163TIP3    H125124   6.532   6.880   7.067 -0.3585  0.1636 -0.0650
 1163TIP3    H225125   6.558   6.851   7.214  1.9596 -0.2366 -0.5114
 1164TIP3   OH225126   4.507   6.177   0.170  0.4863 -0.2255  0.4627
 1164TIP3    H125127   4.498   6.265   0.207  0.2661 -0.1836  0.3133
 1164TIP3    H225128   4.477   6.186   0.080  1.3471 -0.2467  0.1604
 1165TIP3   OH225129   1.826   3.898   0.179  0.1234 -0.5333  0.1571
 1165TIP3    H125130   1.913   3.863   0.158  0.4218  1.0229 -1.3924
 1165TIP3    H225131   1.843   3.974   0.233 -0.3393 -0.7223  0.5767
 1166TIP3   OH225132   2.766   1.812   7.822 -0.5237  0.0469  0.6322
 1166TIP3    H125133   2.846   1.789   7.775 -0.2727  0.3049  0.9289
 1166TIP3    H225134   2.797   1.849   7.905 -0.9300  0.8797  0.4247
 1167TIP3   OH225135   2.771   5.308   6.967 -0.2175 -0.1893  0.0689
 1167TIP3    H125136   2.815   5.388   6.996  1.8392 -1.3767  0.4603
 1167TIP3    H225137   2.824   5.238   7.003 -0.5159 -1.7520 -2.2965
 1168TIP3   OH225138   4.087   2.115   1.660 -0.2775 -0.0861 -0.1308
 1168TIP3    H125139   4.146   2.156   1.596  1.6317 -0.0046  1.5895
 1168TIP3    H225140   4.092   2.021   1.640 -1.1984  0.0680 -1.2498
 1169TIP3   OH225141   5.998   1.758   0.136  0.0324 -0.4502  0.2600
 1169TIP3    H125142   5.945   1.821   0.185  0.3332  1.8652 -2.1892
 1169TIP3    H225143   5.939   1.724   0.069  0.8114 -0.1197 -0.6101
 1170TIP3   OH225144   5.670   3.977   7.039 -0.3800  0.1088 -0.2323
 1170TIP3    H125145   5.611   4.032   6.988 -1.2330 -0.0583  0.5569
 1170TIP3    H225146   5.686   3.901   6.982  0.8381  1.1347 -1.3389
 1171TIP3   OH225147   1.734   4.011   7.352  0.0635  0.4712 -0.0029
 1171TIP3    H125148   1.800   3.950   7.318 -0.6340 -1.0734  1.3016
 1171TIP3    H225149   1.657   3.996   7.297 -0.2891 -0.2633  0.6760
 1172TIP3   OH225150   1.420   0.222   0.408  0.5199 -0.7939 -0.1680
 1172TIP3    H125151   1.499   0.263   0.443  1.2934 -2.2368 -0.1054
 1172TIP3    H225152   1.387   0.284   0.343 -0.5988  1.6895  2.5507
 1173TIP3   OH225153   0.528   5.302   0.189 -0.3054  0.3349  0.3363
 1173TIP3    H125154   0.481   5.232   0.234 -1.0520  0.6118  0.0121
 1173TIP3    H225155   0.534   5.272   0.098  1.3918 -0.3243  0.6356
 1174TIP3   OH225156   1.636   3.389   1.170 -0.0108  0.1068 -0.5527
 1174TIP3    H125157   1.661   3.384   1.262 -1.6680  0.1064 -0.0657
 1174TIP3    H225158   1.717   3.413   1.124  0.6628  0.9863  1.0047
 1175TIP3   OH225159   1.522   6.707   0.433  0.0672  0.1329 -0.3623
 1175TIP3    H125160   1.541   6.752   0.515 -2.7509  0.9452 -0.0485
 1175TIP3    H225161   1.449   6.649   0.454  0.5087 -1.0458 -1.8862
 1176TIP3   OH225162   0.833   0.500   6.884 -0.1707  0.5864  0.5802
 1176TIP3    H125163   0.749   0.459   6.905  0.0718 -0.7156 -0.8178
 1176TIP3    H225164   0.833   0.505   6.789  0.8148  1.7476  0.6326
 1177TIP3   OH225165   1.434   6.322   7.211 -0.5241 -0.1867 -0.2654
 1177TIP3    H125166   1.478   6.378   7.274 -0.7964 -0.4053  0.1238
 1177TIP3    H225167   1.502   6.263   7.179 -0.5770 -0.6876  0.5161
 1178TIP3   OH225168   5.775   2.157   8.551  0.3443  0.2219 -0.5298
 1178TIP3    H125169   5.805   2.099   8.481  0.3312 -1.2183  0.6077
 1178TIP3    H225170   5.804   2.114   8.632 -0.3330  1.4279  0.3851
 1179TIP3   OH225171   4.929   0.060   7.581 -0.3845 -0.6843 -0.2129
 1179TIP3    H125172   4.959   0.148   7.560  1.5195 -1.2939 -0.2380
 1179TIP3    H225173   4.936   0.054   7.677  0.1034 -0.9995 -0.2636
 1180TIP3   OH225174   1.022   3.751   6.646  0.0067 -0.5418  0.6006
 1180TIP3    H125175   1.037   3.674   6.592 -0.5878 -0.5923  0.5085
 1180TIP3    H225176   0.951   3.799   6.602 -0.3333 -0.4714  1.2137
 1181TIP3   OH225177   0.169   3.589   1.873 -0.4328 -0.2948 -0.1690
 1181TIP3    H125178   0.176   3.498   1.902  0.3833  0.2143  1.3304
 1181TIP3    H225179   0.185   3.641   1.952 -1.0594  1.1555 -0.9592
 1182TIP3   OH225180   1.763   3.005   1.189 -0.2080  0.2688  0.2164
 1182TIP3    H125181   1.706   2.953   1.131 -0.7230  1.3861 -0.3074
 1182TIP3    H225182   1.815   3.059   1.129  1.3862 -0.6764  0.6886
 1183TIP3   OH225183   3.314   5.066   8.355  0.0884 -0.3863  0.0789
 1183TIP3    H125184   3.312   5.139   8.293 -0.1606  0.5521  1.1540
 1183TIP3    H225185   3.229   5.023   8.344 -0.1027 -0.0015  0.0420
 1184TIP3   OH225186   0.061   1.267   7.656  0.1422 -0.4951 -0.1883
 1184TIP3    H125187   0.013   1.222   7.726  1.0353 -1.1344  0.0287
 1184TIP3    H225188   0.125   1.202   7.626  0.9984  0.4134 -0.3462
 1185TIP3   OH225189   6.762   5.849   7.568 -0.0373 -0.1333 -0.0442
 1185TIP3    H125190   6.704   5.921   7.592 -0.6899 -0.5654 -0.3032
 1185TIP3    H225191   6.819   5.885   7.501 -0.7718 -0.0295 -0.6172
 1186TIP3   OH225192   4.505   2.571   7.906 -0.4119  0.1664  0.3711
 1186TIP3    H125193   4.544   2.591   7.991 -1.4529 -2.3268  1.5084
 1186TIP3    H225194   4.411   2.581   7.919 -0.5494  0.6164 -0.7838
 1187TIP3   OH225195   2.234   2.452   8.372  0.5231  0.1158 -0.5297
 1187TIP3    H125196   2.312   2.426   8.422 -0.1252 -0.9796 -0.0692
 1187TIP3    H225197   2.171   2.478   8.439 -0.4374 -1.5887 -0.7210
 1188TIP3   OH225198   0.727   2.619   8.382 -0.5316  0.8670 -0.5633
 1188TIP3    H125199   0.683   2.661   8.309  3.2342 -0.0935 -3.7273
 1188TIP3    H225200   0.792   2.684   8.411 -1.0028  0.6819  1.0452
 1189TIP3   OH225201   6.283   6.742   0.300  0.0703  0.1383 -0.1451
 1189TIP3    H125202   6.280   6.716   0.392 -2.1024 -0.8105 -0.4302
 1189TIP3    H225203   6.314   6.664   0.254  0.7219  0.4739 -0.3035
 1190TIP3   OH225204   0.057   0.105   0.129  0.0298 -0.1440 -0.3852
 1190TIP3    H125205   0.009   0.023   0.138  0.3858 -0.3965 -0.7534
 1190TIP3    H225206  -0.004   0.172   0.159  0.1112 -0.6446  0.9419
 1191TIP3   OH225207   5.037   5.690   6.699 -0.1789  0.5022  0.6569
 1191TIP3    H125208   4.987   5.632   6.641  1.2095  0.7287 -0.8185
 1191TIP3    H225209   5.120   5.644   6.714  0.7295  1.8397 -0.1012
 1192TIP3   OH225210   3.320   5.138   0.478 -0.8057 -0.4636  0.4162
 1192TIP3    H125211   3.410   5.128   0.449 -0.7709  1.3531 -0.2074
 1192TIP3    H225212   3.324   5.124   0.573  0.6065  2.0502  0.8022
 1193TIP3   OH225213   0.173   1.018   1.285  0.2809  0.2385  0.3438
 1193TIP3    H125214   0.097   1.032   1.229  1.4699  0.6331 -1.2168
 1193TIP3    H225215   0.148   1.057   1.369 -0.2534  2.8399 -0.9239
 1194TIP3   OH225216   2.604   6.788   1.447  0.2301  0.4633  0.0518
 1194TIP3    H125217   2.566   6.815   1.364 -0.3890 -2.0916 -0.5531
 1194TIP3    H225218   2.534   6.800   1.511  1.1924  4.0771  0.7068
 1195TIP3   OH225219   2.253   1.029   0.837  0.0900  0.1547 -0.3980
 1195TIP3    H125220   2.329   1.046   0.893  0.9738 -1.9552 -0.8547
 1195TIP3    H225221   2.223   1.116   0.810  2.8171  1.0539 -0.8338
 1196TIP3   OH225222   3.665   5.466   0.249  0.5261 -0.1632  0.0276
 1196TIP3    H125223   3.694   5.448   0.159  0.7690 -0.7481  0.2197
 1196TIP3    H225224   3.571   5.484   0.240  0.1168 -2.1364 -0.1276
 1197TIP3   OH225225   5.530   6.666   8.774  0.1393  0.2568 -0.0000
 1197TIP3    H125226   5.484   6.628   8.849  0.0138 -0.0846 -0.2510
 1197TIP3    H225227   5.465   6.725   8.735  1.3188  3.4626  2.3540
 1198TIP3   OH225228   3.296   4.489   0.506 -0.1135 -0.4012  0.0705
 1198TIP3    H125229   3.338   4.420   0.558 -0.5600 -1.6625 -1.1756
 1198TIP3    H225230   3.327   4.571   0.544 -0.6698 -1.2515  2.5153
 1199TIP3   OH225231   4.777   4.985   0.244 -0.0250 -0.3893  0.6773
 1199TIP3    H125232   4.697   4.973   0.194  0.2075 -0.5485  0.3364
 1199TIP3    H225233   4.804   4.896   0.269  1.1827 -0.5624 -1.0301
 1200TIP3   OH225234   5.438   2.648   7.395 -0.2304 -0.1115 -0.4981
 1200TIP3    H125235   5.530   2.634   7.374 -0.2773  0.6495 -1.2601
 1200TIP3    H225236   5.439   2.715   7.464 -0.1878 -0.6227  0.0007
 1201TIP3   OH225237   0.823   0.747   6.684  0.5154  0.4428 -0.8684
 1201TIP3    H125238   0.801   0.658   6.657 -0.2092  0.3336  0.0281
 1201TIP3    H225239   0.906   0.766   6.641  0.5389 -0.5667 -1.2821
 1202TIP3   OH225240   5.248   2.414   0.625  0.3861 -0.6072 -0.1768
 1202TIP3    H125241   5.238   2.449   0.714 -0.0012 -2.1609  0.4203
 1202TIP3    H225242   5.250   2.492   0.569 -0.0918  0.3770  1.1146
 1203TIP3   OH225243   6.335   4.784   6.403  0.0463 -0.1639 -0.2524
 1203TIP3    H125244   6.309   4.698   6.371  0.4501 -0.0874 -0.8037
 1203TIP3    H225245   6.289   4.794   6.487  0.4934 -1.1833  0.1289
 1204TIP3   OH225246   6.411   3.596   8.693 -0.0252 -0.1104  0.3038
 1204TIP3    H125247   6.370   3.547   8.765 -1.5274 -1.7565 -1.5520
 1204TIP3    H225248   6.350   3.667   8.674  0.2481  0.1741  0.4840
 1205TIP3   OH225249   4.195   5.372   1.781 -0.9489  0.3433  0.2342
 1205TIP3    H125250   4.177   5.383   1.874  2.2338 -0.0243  1.0406
 1205TIP3    H225251   4.284   5.407   1.770 -1.6375  1.4559 -2.9383
 1206TIP3   OH225252   4.634   4.150   1.709 -0.0292  0.3535 -0.7421
 1206TIP3    H125253   4.704   4.213   1.693 -0.1720  1.3339  1.9943
 1206TIP3    H225254   4.554   4.197   1.687  0.0098  0.2074 -1.2001
 1207TIP3   OH225255   1.144   1.791   0.056 -0.1227 -0.2212 -0.0156
 1207TIP3    H125256   1.109   1.706   0.028  2.6851 -1.1455 -1.0054
 1207TIP3    H225257   1.117   1.851  -0.014  1.1556 -1.1516 -1.3697
 1208TIP3   OH225258   5.528   2.941   1.867  0.1445 -0.6991 -0.8031
 1208TIP3    H125259   5.617   2.907   1.859  0.4332 -0.3810  0.6887
 1208TIP3    H225260   5.539   3.036   1.875 -0.3501 -0.6348 -0.8427
 1209TIP3   OH225261   3.645   1.955   1.214  0.3600 -0.6870 -0.4169
 1209TIP3    H125262   3.687   1.961   1.299 -0.2552 -1.7845 -0.0152
 1209TIP3    H225263   3.554   1.935   1.234 -0.0976  0.3938 -1.3046
 1210TIP3   OH225264   1.673   3.503   1.932 -0.7269  0.4093 -0.8993
 1210TIP3    H125265   1.728   3.566   1.978 -1.0551  0.1259 -0.0979
 1210TIP3    H225266   1.703   3.418   1.962 -2.6885  0.2675  0.9217
 1211TIP3   OH225267   5.307   2.868   7.991  0.2611  0.5880 -0.1840
 1211TIP3    H125268   5.241   2.809   7.955 -0.9809  2.3433 -0.9262
 1211TIP3    H225269   5.382   2.812   8.009 -1.7709 -1.7253  1.7530
 1212TIP3   OH225270   5.829   1.621   7.803 -0.4304 -0.5012  0.0160
 1212TIP3    H125271   5.869   1.538   7.827 -0.2595 -0.4905 -0.2265
 1212TIP3    H225272   5.853   1.681   7.874  2.1474  0.1842 -1.3105
 1213TIP3   OH225273   5.755   3.650   8.039  0.0797 -0.3874 -0.3001
 1213TIP3    H125274   5.726   3.707   7.968  1.4666 -0.5737 -1.0512
 1213TIP3    H225275   5.702   3.571   8.030 -0.6414  0.0922 -0.3199
 1214TIP3   OH225276   1.304   3.661   0.202 -0.3516 -0.5631 -0.7676
 1214TIP3    H125277   1.365   3.723   0.162  0.3916 -0.9075 -0.1938
 1214TIP3    H225278   1.230   3.715   0.231  0.3158  0.0673 -0.2111
 1215TIP3   OH225279   1.620   2.894   6.242  0.9825 -0.0500  0.4273
 1215TIP3    H125280   1.675   2.962   6.281  1.7585 -0.8768  0.8221
 1215TIP3    H225281   1.531   2.930   6.245  1.7295  2.6661 -3.0426
 1216TIP3   OH225282   4.722   4.224   6.196 -0.1742 -0.2600 -0.1722
 1216TIP3    H125283   4.777   4.158   6.155 -0.9452 -0.3381 -1.1277
 1216TIP3    H225284   4.728   4.206   6.290  1.8491  0.0905 -0.1836
 1217TIP3   OH225285   6.292   4.036   7.432 -0.0216  0.2859 -0.3855
 1217TIP3    H125286   6.344   3.972   7.482 -0.0899  0.1842 -0.4429
 1217TIP3    H225287   6.330   4.034   7.345  0.1560  0.5299 -0.3144
 1218TIP3   OH225288   3.367   1.129   0.734 -0.0371 -0.9623 -0.0098
 1218TIP3    H125289   3.318   1.047   0.738 -0.0318 -1.0763 -1.5888
 1218TIP3    H225290   3.404   1.130   0.645 -1.1889  1.3852 -0.5300
 1219TIP3   OH225291   0.848   3.718   1.708 -0.2164 -0.3906  0.1525
 1219TIP3    H125292   0.811   3.633   1.730  1.1388 -1.0131  0.1201
 1219TIP3    H225293   0.856   3.717   1.613  2.0014 -1.2312  0.2862
 1220TIP3   OH225294   4.096   3.393   0.392  0.3795 -0.0454 -0.5823
 1220TIP3    H125295   4.039   3.334   0.342  0.6377 -0.6346 -0.1972
 1220TIP3    H225296   4.070   3.380   0.483 -0.2302  1.1754 -0.5592
 1221TIP3   OH225297   2.518   2.779   0.510 -0.1774  0.3670 -0.0754
 1221TIP3    H125298   2.541   2.692   0.478 -1.6025 -0.2774  0.5981
 1221TIP3    H225299   2.551   2.781   0.600 -0.1688  0.5342 -0.0808
 1222TIP3   OH225300   5.684   2.005   1.290  0.3011 -0.4462  0.3408
 1222TIP3    H125301   5.653   2.029   1.378 -0.5524  0.8769 -0.2864
 1222TIP3    H225302   5.776   2.031   1.289  0.0827  0.3849  0.5755
 1223TIP3   OH225303   1.546   6.172   8.218  0.2664 -0.8726 -0.3129
 1223TIP3    H125304   1.482   6.242   8.205  0.0907 -1.1757 -1.1484
 1223TIP3    H225305   1.498   6.104   8.265 -0.4217 -1.6005 -1.9597
 1224TIP3   OH225306   3.949   3.271   1.035 -0.1168 -0.2188 -0.6579
 1224TIP3    H125307   4.014   3.204   1.053  1.1161  1.3137  1.0053
 1224TIP3    H225308   3.881   3.226   0.986  1.0165 -2.4717 -0.3018
 1225TIP3   OH225309   4.663   2.287   0.493  0.3523  0.2319 -0.4317
 1225TIP3    H125310   4.713   2.217   0.450  0.6053 -0.1272  0.4119
 1225TIP3    H225311   4.657   2.258   0.584 -2.2871 -0.2218 -0.6943
 1226TIP3   OH225312   0.566   0.944   0.398 -0.4306  0.0757  0.3656
 1226TIP3    H125313   0.569   0.873   0.462 -1.5658 -0.7457 -0.4574
 1226TIP3    H225314   0.593   0.903   0.316 -2.1811  0.2912 -0.3494
 1227TIP3   OH225315   2.221   1.190   2.798 -0.1054 -0.2839 -0.1871
 1227TIP3    H125316   2.231   1.271   2.847 -0.1746 -1.3411  1.6866
 1227TIP3    H225317   2.305   1.145   2.808 -0.3036 -0.7582 -0.6053
 1228TIP3   OH225318   6.253   6.208   8.756  0.0621  0.4645  0.1833
 1228TIP3    H125319   6.249   6.151   8.679 -3.3821  0.1209  0.4472
 1228TIP3    H225320   6.199   6.284   8.732  0.3948  1.1983  1.6304
 1229TIP3   OH225321   3.687   2.681   2.269 -0.1775 -0.4322  0.0224
 1229TIP3    H125322   3.757   2.644   2.322  0.5825 -0.6746 -1.1223
 1229TIP3    H225323   3.619   2.704   2.332  0.2737 -1.6471  0.9986
 1230TIP3   OH225324   3.868   0.815   7.854  0.8044 -0.2704  0.0674
 1230TIP3    H125325   3.924   0.892   7.845  1.8051 -0.9652  0.2299
 1230TIP3    H225326   3.868   0.796   7.948  0.3179 -0.3033  0.0645
 1231TIP3   OH225327   4.665   5.114   2.377  0.1408  0.5264  0.1594
 1231TIP3    H125328   4.591   5.057   2.358 -0.1005  1.3057 -1.4061
 1231TIP3    H225329   4.738   5.054   2.395 -0.5363 -0.2492  0.3357
 1232TIP3   OH225330   0.901   5.190   0.695 -0.1649 -0.1004  0.3768
 1232TIP3    H125331   0.904   5.096   0.681 -1.6514 -0.2800  1.1006
 1232TIP3    H225332   0.989   5.213   0.726 -0.3396 -1.5960  2.1466
 1233TIP3   OH225333   4.926   5.731   6.976 -0.2624  0.7225  0.3823
 1233TIP3    H125334   4.895   5.822   6.980  1.8262  1.4352  1.9950
 1233TIP3    H225335   4.950   5.719   6.884 -3.6224  0.5918 -0.6426
 1234TIP3   OH225336   3.365   0.171   0.443  0.5634 -0.0965 -0.2342
 1234TIP3    H125337   3.280   0.131   0.463 -0.8969  1.9463 -1.9280
 1234TIP3    H225338   3.429   0.108   0.476 -1.5699 -1.3153  1.9251
 1235TIP3   OH225339   2.221   1.375   8.652  0.4244 -0.7755 -0.2551
 1235TIP3    H125340   2.136   1.402   8.689  0.0155  0.5065 -2.0090
 1235TIP3    H225341   2.203   1.293   8.606 -0.0939 -0.0347 -1.3977
 1236TIP3   OH225342   4.460   2.564   0.471 -0.0334 -0.2381  0.0622
 1236TIP3    H125343   4.538   2.576   0.418  0.2635 -1.1411  0.2797
 1236TIP3    H225344   4.409   2.644   0.457  0.9965  0.4354  0.0430
 1237TIP3   OH225345   5.208   3.169   1.457  0.2252  0.5878  0.4651
 1237TIP3    H125346   5.214   3.079   1.489  1.2321 -0.1306 -1.5660
 1237TIP3    H225347   5.296   3.205   1.470  0.1696  0.8546  0.1160
 1238TIP3   OH225348   1.526   0.795   7.730 -0.1030 -0.3827  0.3814
 1238TIP3    H125349   1.571   0.810   7.813  0.3912 -2.0019  0.4390
 1238TIP3    H225350   1.491   0.706   7.737 -0.8015 -0.2266 -0.8144
 1239TIP3   OH225351   3.451   4.778   7.021  0.0308 -0.6037  0.1427
 1239TIP3    H125352   3.428   4.686   7.006 -0.4890 -0.1646 -2.1494
 1239TIP3    H225353   3.478   4.810   6.935  0.1116  1.4166  0.8758
 1240TIP3   OH225354   5.052   2.411   7.563  0.3634 -0.2421 -0.3503
 1240TIP3    H125355   5.001   2.492   7.571  0.8529  0.2215 -1.6135
 1240TIP3    H225356   5.143   2.440   7.563  0.5284 -0.7314 -1.3136
 1241TIP3   OH225357   1.935   6.128   7.548  0.4229 -0.1210  0.4656
 1241TIP3    H125358   1.846   6.115   7.579  0.6839  1.6689  2.1412
 1241TIP3    H225359   1.991   6.109   7.623  1.4938 -1.0783 -0.5149
 1242TIP3   OH225360   3.763   2.305   7.998 -0.3639 -0.3171  0.1585
 1242TIP3    H125361   3.786   2.238   7.934  1.1492  1.0087 -0.7614
 1242TIP3    H225362   3.720   2.373   7.946 -0.3099  0.1975  0.7759
 1243TIP3   OH225363   5.372   6.554   1.085  0.0981  0.4678 -0.2540
 1243TIP3    H125364   5.429   6.534   1.160 -0.6751 -0.4998  0.1031
 1243TIP3    H225365   5.420   6.521   1.009  0.0113 -0.3827  0.0483
 1244TIP3   OH225366   2.022   3.950   7.522 -0.5316 -0.5981  0.2495
 1244TIP3    H125367   2.055   3.877   7.470 -0.4029  1.2450 -2.4202
 1244TIP3    H225368   2.098   3.983   7.569  0.2423  0.0319 -1.3843
 1245TIP3   OH225369   4.312   2.379   0.699  0.6102 -0.4861  0.5890
 1245TIP3    H125370   4.331   2.445   0.632 -2.2972  0.0200  0.1025
 1245TIP3    H225371   4.222   2.352   0.680  0.2035 -1.4445  3.4040
 1246TIP3   OH225372   5.318   1.641   1.741  0.1112 -0.4873  0.0392
 1246TIP3    H125373   5.347   1.602   1.659  3.5574 -1.8934  1.7369
 1246TIP3    H225374   5.372   1.720   1.750 -1.5121  0.6646  0.1997
 1247TIP3   OH225375   1.130   2.672   6.407  0.1910  0.0242 -0.5840
 1247TIP3    H125376   1.208   2.622   6.430 -0.2361 -0.6855 -0.6549
 1247TIP3    H225377   1.160   2.763   6.406  1.1519 -0.2810 -1.1616
 1248TIP3   OH225378   2.268   6.707   6.691 -0.0899 -0.1561  0.0747
 1248TIP3    H125379   2.196   6.745   6.640  1.3908  0.8035 -1.4204
 1248TIP3    H225380   2.333   6.681   6.625  1.4138  0.0249  1.4200
 1249TIP3   OH225381   4.994   0.715   1.857 -0.0199  0.0352 -0.4219
 1249TIP3    H125382   4.982   0.810   1.847  0.3960 -0.0180 -1.5443
 1249TIP3    H225383   5.054   0.707   1.931 -0.9363  0.5841  0.4260
 1250TIP3   OH225384   1.023   5.598   7.303 -0.0582 -0.2803 -0.0979
 1250TIP3    H125385   1.028   5.680   7.253 -0.0072  0.8105  1.6164
 1250TIP3    H225386   1.086   5.610   7.374  0.3183 -2.0366 -0.0851
 1251TIP3   OH225387   6.583   0.969   7.206  0.1373  0.2764 -0.6788
 1251TIP3    H125388   6.604   0.906   7.275 -0.0557  1.1461  0.2080
 1251TIP3    H225389   6.666   0.985   7.162  0.3725  0.0803 -0.3151
 1252TIP3   OH225390   5.941   1.086   8.090 -0.4114  0.0636  0.2267
 1252TIP3    H125391   5.857   1.122   8.119  0.3187  0.7638  1.6169
 1252TIP3    H225392   5.968   1.030   8.163  0.4106  0.0202 -0.1072
 1253TIP3   OH225393   5.539   0.361   6.553 -0.6390 -0.3650  0.1224
 1253TIP3    H125394   5.556   0.433   6.613  2.0917  1.5284 -2.6298
 1253TIP3    H225395   5.589   0.287   6.590  0.6792  0.6428  0.4453
 1254TIP3   OH225396   6.225   0.435   7.205  0.4136 -0.5239  0.1202
 1254TIP3    H125397   6.212   0.488   7.284 -1.0504  1.4363 -1.3139
 1254TIP3    H225398   6.320   0.434   7.192  0.5626  0.7896  0.8674
 1255TIP3   OH225399   4.336   1.254   7.498 -0.0651 -0.3248  0.3092
 1255TIP3    H125400   4.406   1.228   7.558  0.4557  2.5710  1.1197
 1255TIP3    H225401   4.290   1.325   7.544 -1.2991  0.2363 -1.6581
 1256TIP3   OH225402   4.350   4.083   7.163 -0.0842  0.3127 -0.0822
 1256TIP3    H125403   4.425   4.143   7.166 -0.9509  1.4187  1.9346
 1256TIP3    H225404   4.382   4.003   7.205  0.1772  0.5436  0.1687
 1257TIP3   OH225405   1.449   2.117   1.407 -0.1240 -1.1262  0.3614
 1257TIP3    H125406   1.396   2.127   1.486  2.3887  0.2709  1.9847
 1257TIP3    H225407   1.393   2.066   1.348 -2.9064 -0.4929  2.2194
 1258TIP3   OH225408   5.043   4.690   2.027  0.0810 -0.3427  0.8329
 1258TIP3    H125409   5.038   4.768   2.083 -1.1100 -1.1322  1.8867
 1258TIP3    H225410   5.129   4.652   2.047  1.2528  1.3500 -0.6607
 1259TIP3   OH225411   5.192   0.282   7.874  0.2443  0.0793 -0.3020
 1259TIP3    H125412   5.164   0.349   7.936 -0.9742 -0.1662 -0.5573
 1259TIP3    H225413   5.162   0.315   7.788 -0.7774 -0.9609 -0.3784
 1260TIP3   OH225414   2.465   1.923   6.948  0.1595  0.3969 -0.0322
 1260TIP3    H125415   2.442   1.951   6.859 -0.0949  1.2161  0.2757
 1260TIP3    H225416   2.558   1.901   6.943 -0.1963 -1.0274 -0.8413
 1261TIP3   OH225417   2.385   0.286   8.649 -0.0659 -0.3442  0.1535
 1261TIP3    H125418   2.472   0.309   8.683  0.2512 -0.8652 -0.2807
 1261TIP3    H225419   2.367   0.351   8.582 -0.5658  0.5129  1.0825
 1262TIP3   OH225420   1.096   3.692   0.611 -0.3152  0.3684  0.0349
 1262TIP3    H125421   1.106   3.604   0.649 -0.0060 -0.3218 -1.5541
 1262TIP3    H225422   1.098   3.751   0.686  0.1672 -0.9337  1.0888
 1263TIP3   OH225423   5.678   6.235   8.461  0.0762 -0.4349 -0.1318
 1263TIP3    H125424   5.593   6.191   8.452 -1.2238  1.9377 -0.2404
 1263TIP3    H225425   5.714   6.236   8.372  0.5489 -1.9536  0.0067
 1264TIP3   OH225426   1.747   5.748   7.662  0.0239 -0.1411 -0.1779
 1264TIP3    H125427   1.813   5.770   7.728 -1.9946 -0.8111  2.2255
 1264TIP3    H225428   1.743   5.825   7.605  1.3875  0.7509  0.8727
 1265TIP3   OH225429   6.308   1.403   0.938 -0.2172 -0.5870 -0.9284
 1265TIP3    H125430   6.341   1.418   1.027  1.3677 -1.5480 -1.3335
 1265TIP3    H225431   6.241   1.336   0.949 -0.8544  0.1189 -0.3319
 1266TIP3   OH225432   0.712   5.998   0.016  0.3333  0.0344 -0.1778
 1266TIP3    H125433   0.634   5.946   0.036  0.3180 -0.3190 -1.1390
 1266TIP3    H225434   0.782   5.956   0.066  0.0624 -0.1022  0.0928
 1267TIP3   OH225435   6.460   4.221   6.503 -0.4874  0.2355 -0.4604
 1267TIP3    H125436   6.468   4.308   6.541 -1.0520 -0.0358  0.2979
 1267TIP3    H225437   6.368   4.198   6.514 -0.6713  0.1190 -1.9624
 1268TIP3   OH225438   1.468   0.942   0.973 -0.1711 -0.7076 -0.1378
 1268TIP3    H125439   1.401   1.010   0.979  0.6526  0.1584 -0.4289
 1268TIP3    H225440   1.420   0.863   0.948 -0.9855  0.0732 -1.1482
 1269TIP3   OH225441   5.648   4.130   0.742  0.3539 -0.5525  0.4722
 1269TIP3    H125442   5.559   4.155   0.717  1.0820  0.3702 -1.3492
 1269TIP3    H225443   5.698   4.212   0.738  1.5451 -1.2712  0.2426
 1270TIP3   OH225444   4.201   1.533   8.805  0.1267 -0.7050  0.1229
 1270TIP3    H125445   4.137   1.462   8.799  0.1809 -0.8479  1.0866
 1270TIP3    H225446   4.186   1.573   8.890  0.7007 -0.1366 -0.0288
 1271TIP3   OH225447   5.692   0.205   7.088  0.3930 -0.0190  0.4886
 1271TIP3    H125448   5.750   0.280   7.102  0.2479  0.4011 -1.0041
 1271TIP3    H225449   5.745   0.144   7.037  0.4320 -0.8558  1.4978
 1272TIP3   OH225450   0.897   2.988   0.837  0.5086 -0.1955 -0.3185
 1272TIP3    H125451   0.835   3.007   0.907 -0.7926  1.2320 -1.7678
 1272TIP3    H225452   0.983   2.998   0.877 -0.1491 -1.7898  1.6358
 1273TIP3   OH225453   3.463   1.353   8.313  0.1644 -0.4868 -0.0889
 1273TIP3    H125454   3.431   1.317   8.230  2.1768 -0.2554 -1.0108
 1273TIP3    H225455   3.552   1.383   8.294 -0.4725  2.6045  1.3159
 1274TIP3   OH225456   1.473   5.000   0.781 -0.1460 -0.4161 -0.4606
 1274TIP3    H125457   1.393   5.012   0.833 -1.2205 -2.0111 -1.6748
 1274TIP3    H225458   1.544   5.010   0.845 -1.3903 -1.3451  1.1487
 1275TIP3   OH225459   1.781   6.446   6.906 -0.3714 -0.3212  0.0581
 1275TIP3    H125460   1.689   6.441   6.933 -0.1643  1.3506  1.2131
 1275TIP3    H225461   1.778   6.444   6.811 -1.3995 -2.7127  0.0458
 1276TIP3   OH225462   5.001   1.765   8.085  0.1069  0.1739 -0.5492
 1276TIP3    H125463   4.922   1.730   8.125  1.5394 -0.4371  1.9924
 1276TIP3    H225464   5.010   1.717   8.003 -0.4044 -2.2493  0.7153
 1277TIP3   OH225465   2.013   4.939   1.278 -0.3965 -0.5774  0.3591
 1277TIP3    H125466   1.995   4.990   1.198  1.3670 -1.1040 -0.4295
 1277TIP3    H225467   2.089   4.982   1.317 -1.2814 -0.2910  1.8297
 1278TIP3   OH225468   1.244   5.211   2.241 -0.5939 -0.3124 -0.2211
 1278TIP3    H125469   1.247   5.253   2.328 -0.4870  0.1296 -0.4347
 1278TIP3    H225470   1.316   5.252   2.193 -1.0055 -0.1554 -0.7018
 1279TIP3   OH225471   4.790   3.193   7.608  0.6821  0.0622 -0.1784
 1279TIP3    H125472   4.786   3.111   7.658  0.6471 -0.0991 -0.4429
 1279TIP3    H225473   4.701   3.205   7.574  1.0339 -0.5935 -1.4092
 1280TIP3   OH225474   4.401   3.140   0.422  0.6379  0.8621  0.4955
 1280TIP3    H125475   4.336   3.093   0.371  0.1600 -0.6397  2.3858
 1280TIP3    H225476   4.432   3.209   0.363 -0.1891 -0.4709 -1.6271
 1281TIP3   OH225477   4.945   0.116   6.863 -0.5044 -0.2576 -0.2232
 1281TIP3    H125478   5.030   0.138   6.899 -0.5185 -1.2364  0.4314
 1281TIP3    H225479   4.964   0.087   6.774 -0.1754 -0.3133 -0.1365
 1282TIP3   OH225480   4.187   4.487   6.490 -0.5467  0.0973  0.1290
 1282TIP3    H125481   4.146   4.569   6.514  1.9459  1.2306  0.8842
 1282TIP3    H225482   4.210   4.497   6.398  0.7992  0.7733  0.5157
 1283TIP3   OH225483   1.248   4.092   7.218 -0.2472  0.5654 -0.6511
 1283TIP3    H125484   1.242   4.036   7.296 -2.8729  2.0436  0.3431
 1283TIP3    H225485   1.227   4.033   7.146  1.4549 -0.6639 -0.2027
 1284TIP3   OH225486   1.722   5.733   6.583 -0.1124  0.9633 -0.0835
 1284TIP3    H125487   1.683   5.795   6.521  1.8996  1.7324 -0.6729
 1284TIP3    H225488   1.807   5.711   6.544 -0.2480 -1.2522  0.7232
 1285TIP3   OH225489   1.540   6.123   2.364  0.0683 -0.7768  0.1249
 1285TIP3    H125490   1.452   6.100   2.394  0.1527  0.7806  1.7348
 1285TIP3    H225491   1.530   6.211   2.327  0.5719 -1.4543 -1.7580
 1286TIP3   OH225492   5.407   3.135   1.183  0.2802  0.7632 -0.4528
 1286TIP3    H125493   5.430   3.225   1.204 -0.4474  0.6708  0.8000
 1286TIP3    H225494   5.313   3.137   1.165  0.3358  0.3180 -0.8358
 1287TIP3   OH225495   0.938   0.399   8.699 -0.4414  0.0686 -0.2015
 1287TIP3    H125496   0.970   0.405   8.609 -1.2788 -1.5198 -0.6315
 1287TIP3    H225497   0.935   0.305   8.718 -0.6918  0.3596  1.3359
 1288TIP3   OH225498   5.661   3.452   0.565  0.0018  0.1714  0.0234
 1288TIP3    H125499   5.620   3.415   0.644  0.5492  0.5178  0.4823
 1288TIP3    H225500   5.661   3.546   0.580 -0.5266  0.2944 -0.7140
 1289TIP3   OH225501   5.020   2.893   1.414 -0.0489  0.2588 -0.2833
 1289TIP3    H125502   4.933   2.853   1.423  0.2808 -0.9390 -1.8203
 1289TIP3    H225503   5.004   2.987   1.418 -1.0662  0.0483  1.9722
 1290TIP3   OH225504   0.597   4.369   1.922  0.1158 -0.2681 -0.0590
 1290TIP3    H125505   0.646   4.314   1.861  1.3429  3.3056 -2.5551
 1290TIP3    H225506   0.662   4.397   1.986  0.3267  0.9207 -0.7756
 1291TIP3   OH225507   2.044   1.287   0.171 -0.4831  0.1941 -0.7169
 1291TIP3    H125508   1.992   1.210   0.192 -0.6409  0.2033 -1.0727
 1291TIP3    H225509   2.092   1.263   0.092  0.7236 -0.1337  0.0770
 1292TIP3   OH225510   6.459   1.569   7.802  0.0629  0.0715 -0.1735
 1292TIP3    H125511   6.455   1.612   7.716 -0.5957  0.0605 -0.1567
 1292TIP3    H225512   6.467   1.642   7.864  1.4488  0.0391 -0.2848
 1293TIP3   OH225513   6.530   4.945   8.475  0.5028  0.8560 -0.5343
 1293TIP3    H125514   6.507   4.876   8.537 -0.4266  0.1836 -1.5961
 1293TIP3    H225515   6.495   5.025   8.513  0.2798  0.5096 -0.0051
 1294TIP3   OH225516   5.799   5.908   7.266  0.0008  0.2419  0.1875
 1294TIP3    H125517   5.825   5.993   7.301  0.4774 -0.4317  1.5241
 1294TIP3    H225518   5.865   5.847   7.299  0.6248 -0.4323 -2.0923
 1295TIP3   OH225519   3.116   5.664   0.425  0.3174  0.1692 -0.0994
 1295TIP3    H125520   3.100   5.672   0.519  0.7164  0.7787 -0.0752
 1295TIP3    H225521   3.204   5.626   0.419 -0.7560 -2.4711 -0.2288
 1296TIP3   OH225522   6.288   4.648   1.244  0.5713 -0.0740  0.2515
 1296TIP3    H125523   6.342   4.618   1.170  0.1533 -0.8684  0.2707
 1296TIP3    H225524   6.257   4.735   1.216  1.0310 -0.0419 -0.1845
 1297TIP3   OH225525   0.842   3.882   6.487  0.4962  0.2876 -0.2883
 1297TIP3    H125526   0.796   3.868   6.404 -0.3884  1.8559 -0.0987
 1297TIP3    H225527   0.774   3.905   6.549  1.4130  1.9258  0.1862
 1298TIP3   OH225528   1.920   2.420   1.208  0.2624  0.1378  0.0848
 1298TIP3    H125529   1.935   2.511   1.234  0.8401  0.0821 -0.0306
 1298TIP3    H225530   1.833   2.420   1.169  0.6107  0.8305 -0.7389
 1299TIP3   OH225531   3.884   5.044   1.659 -0.2073 -0.0886 -0.3120
 1299TIP3    H125532   3.817   4.994   1.705  2.4065 -2.1790  1.5257
 1299TIP3    H225533   3.933   4.979   1.609 -0.2823  1.5575 -2.6952
 1300TIP3   OH225534   2.508   0.069   1.216 -0.3629  0.0568  0.1152
 1300TIP3    H125535   2.469  -0.011   1.181 -0.4504 -0.2027  0.7965
 1300TIP3    H225536   2.568   0.099   1.147 -1.1523  0.0180 -0.6007
 1301TIP3   OH225537   1.027   6.577   1.485  0.1535 -0.3537 -0.1995
 1301TIP3    H125538   1.025   6.496   1.535  0.2861 -0.7349 -0.7995
 1301TIP3    H225539   1.094   6.631   1.527 -0.1981 -0.4027  0.4306
 1302TIP3   OH225540   0.544   6.185   8.723  0.3805  0.0946  0.3644
 1302TIP3    H125541   0.504   6.187   8.810 -3.0357 -1.5512 -0.9862
 1302TIP3    H225542   0.608   6.115   8.727  1.2806  0.9522  1.8684
 1303TIP3   OH225543   4.144   3.680   8.498 -0.3967  0.4653  0.3037
 1303TIP3    H125544   4.097   3.676   8.581 -0.8889  0.4658  0.0254
 1303TIP3    H225545   4.187   3.765   8.499 -0.1119  0.3195  0.7130
 1304TIP3   OH225546   1.445   0.497   7.686 -0.3521 -0.1746 -0.5441
 1304TIP3    H125547   1.532   0.478   7.652  0.3794  1.1584  0.4353
 1304TIP3    H225548   1.421   0.420   7.738  1.0712  0.1454  0.6628
 1305TIP3   OH225549   5.692   6.316   0.651 -0.4097  0.4783  0.0053
 1305TIP3    H125550   5.714   6.409   0.654 -0.0810  0.3977  0.1506
 1305TIP3    H225551   5.658   6.302   0.563 -1.1771  0.8951  0.2247
 1306TIP3   OH225552   6.015   5.440   0.789  0.1025 -0.2049  0.3605
 1306TIP3    H125553   5.932   5.409   0.752  0.7892  0.7488 -2.2533
 1306TIP3    H225554   5.994   5.523   0.831 -0.1576  0.5950 -1.2554
 1307TIP3   OH225555   4.055   3.909   0.937  0.5611  0.7317  0.4498
 1307TIP3    H125556   4.050   3.909   1.032  2.4078  0.0815  0.5731
 1307TIP3    H225557   4.053   4.001   0.912 -1.7722  0.8915  0.9427
 1308TIP3   OH225558   6.220   5.131   1.860  0.1119  0.6854 -0.5018
 1308TIP3    H125559   6.265   5.201   1.813 -0.0246  1.3623  0.3673
 1308TIP3    H225560   6.136   5.169   1.886 -1.1592 -0.6497 -2.3500
 1309TIP3   OH225561   0.189   3.281   8.066  0.8198  0.2380  0.1364
 1309TIP3    H125562   0.165   3.207   8.122 -1.3621  2.6278  2.6307
 1309TIP3    H225563   0.269   3.316   8.106  0.9941  0.1306 -0.1167
 1310TIP3   OH225564   5.060   4.192   6.695  0.1703 -0.3511  0.0461
 1310TIP3    H125565   5.115   4.157   6.765  0.0752 -0.4463  0.0731
 1310TIP3    H225566   5.005   4.118   6.668 -0.0536 -0.2142  0.1243
 1311TIP3   OH225567   2.681   3.854   1.125  0.2760  0.2873 -0.6419
 1311TIP3    H125568   2.762   3.854   1.176 -0.5655  1.2696  0.7554
 1311TIP3    H225569   2.642   3.940   1.140 -1.8762 -0.7356  0.1247
 1312TIP3   OH225570   0.272   5.506   7.348 -0.6258  0.7168  0.8698
 1312TIP3    H125571   0.276   5.475   7.438 -1.3051  0.9840  0.9943
 1312TIP3    H225572   0.191   5.469   7.313 -0.0216  0.0410  0.1481
 1313TIP3   OH225573   0.040   0.284   7.034 -0.0884  0.1286  0.1118
 1313TIP3    H125574  -0.016   0.347   7.079  0.1073  0.8882 -0.6749
 1313TIP3    H225575  -0.020   0.217   7.001 -0.2762 -0.2141  1.1224
 1314TIP3   OH225576   3.430   2.566   2.360 -0.1177 -0.6441 -0.5993
 1314TIP3    H125577   3.354   2.539   2.411 -0.1777  1.1186  0.3006
 1314TIP3    H225578   3.502   2.568   2.423 -0.0161  0.7865 -0.7441
 1315TIP3   OH225579   1.440   4.799   0.590  0.4820 -0.2577 -0.5472
 1315TIP3    H125580   1.349   4.771   0.591 -0.1267  1.5891 -0.8257
 1315TIP3    H225581   1.440   4.883   0.635  2.0284 -0.1676 -0.6663
 1316TIP3   OH225582   0.098   2.437   7.252 -0.4474  0.0093  0.1794
 1316TIP3    H125583   0.143   2.520   7.235  0.4918 -0.6487 -0.6689
 1316TIP3    H225584   0.051   2.452   7.334 -1.2516  1.7660 -0.5432
 1317TIP3   OH225585   6.117   5.395   1.227 -0.0198 -0.3462  0.6209
 1317TIP3    H125586   6.180   5.326   1.248  0.1650 -0.8389 -1.3775
 1317TIP3    H225587   6.031   5.352   1.236  0.0237 -0.3683  0.9432
 1318TIP3   OH225588   2.108   3.317   1.551  0.2221 -0.4671 -0.5541
 1318TIP3    H125589   2.142   3.245   1.498  4.0350  1.7515 -1.4851
 1318TIP3    H225590   2.156   3.311   1.634 -0.9310 -0.1247  0.1755
 1319TIP3   OH225591   1.858   4.705   1.402 -0.1503  0.1155  0.2550
 1319TIP3    H125592   1.943   4.743   1.380 -0.0777 -0.9041 -1.4666
 1319TIP3    H225593   1.879   4.626   1.453 -0.0735  0.0679  0.1507
 1320TIP3   OH225594   5.271   4.044   7.838 -0.7013 -0.2160 -0.6871
 1320TIP3    H125595   5.258   4.071   7.929  0.2729 -0.4066 -0.4744
 1320TIP3    H225596   5.366   4.054   7.824 -1.1540  2.6454 -2.5787
 1321TIP3   OH225597   5.386   5.354   8.659  0.1983 -1.0653 -0.1321
 1321TIP3    H125598   5.323   5.375   8.590  0.7294 -0.0953 -0.3440
 1321TIP3    H225599   5.337   5.302   8.722 -0.7102 -0.6555 -0.4869
 1322TIP3   OH225600   1.106   4.009   0.962 -0.5443 -0.0712 -0.6486
 1322TIP3    H125601   1.044   4.081   0.956 -0.0274  0.2475 -3.2775
 1322TIP3    H225602   1.070   3.941   0.905 -0.0420 -1.1245  0.2505
 1323TIP3   OH225603   4.248   6.762   6.754 -0.2770  0.1603  0.4181
 1323TIP3    H125604   4.269   6.685   6.701  2.0270 -0.2052  1.7454
 1323TIP3    H225605   4.153   6.772   6.745 -0.3444 -1.5217 -1.5027
 1324TIP3   OH225606   3.703   5.716   6.516  0.0605 -0.1029  0.3070
 1324TIP3    H125607   3.795   5.719   6.490 -0.4588  0.4487 -1.6489
 1324TIP3    H225608   3.663   5.793   6.475 -1.7335 -1.6066 -1.0015
 1325TIP3   OH225609   4.360   1.294   1.357  0.2673 -0.5311 -0.0214
 1325TIP3    H125610   4.275   1.274   1.396  0.2927  1.6965  1.3520
 1325TIP3    H225611   4.424   1.259   1.420  0.3011  2.3602  1.7499
 1326TIP3   OH225612   2.192   3.116   1.373  0.1050  0.2523  0.6308
 1326TIP3    H125613   2.215   3.031   1.336 -0.5049 -0.3556  1.5946
 1326TIP3    H225614   2.122   3.149   1.317  1.2534  0.7732 -0.5640
 1327TIP3   OH225615   0.870   0.357   0.942  0.1604 -0.0883  0.0416
 1327TIP3    H125616   0.923   0.436   0.926 -1.5527  0.9702 -0.6542
 1327TIP3    H225617   0.841   0.366   1.033 -1.1819  0.8307 -0.4580
 1328TIP3   OH225618   5.500   0.163   8.311 -0.0032 -0.5291 -0.3462
 1328TIP3    H125619   5.511   0.068   8.307  4.7907 -0.2407  0.1906
 1328TIP3    H225620   5.520   0.193   8.222 -0.6064  0.0722 -0.2887
 1329TIP3   OH225621   3.743   2.052   7.502  0.0694  0.0584 -0.0985
 1329TIP3    H125622   3.817   2.034   7.560  0.4448 -0.0525 -0.6087
 1329TIP3    H225623   3.750   2.146   7.483 -0.4063  0.2271  0.5107
 1330TIP3   OH225624   5.198   0.632   1.997  0.7171 -0.2699  0.7291
 1330TIP3    H125625   5.168   0.575   2.068 -0.4380 -0.0658  0.4201
 1330TIP3    H225626   5.282   0.666   2.027  0.4675 -0.5633  1.7899
 1331TIP3   OH225627   4.349   1.291   0.826 -0.2959 -0.0590 -0.3318
 1331TIP3    H125628   4.288   1.268   0.896 -0.1918  0.9337  0.0900
 1331TIP3    H225629   4.430   1.246   0.849  0.1028  1.2044  0.8293
 1332TIP3   OH225630   1.121   2.602   1.340  0.2353  0.4879  0.6001
 1332TIP3    H125631   1.172   2.582   1.261 -0.2895 -1.2882  0.6517
 1332TIP3    H225632   1.112   2.697   1.340  1.6985  0.6606 -0.5554
 1333TIP3   OH225633   0.370   5.694   0.331  0.4317 -0.0614  0.1990
 1333TIP3    H125634   0.369   5.790   0.330  3.9905  0.1402 -1.2985
 1333TIP3    H225635   0.410   5.672   0.415  2.5901  0.0456 -0.7238
 1334TIP3   OH225636   4.383   2.253   0.439  0.2735  0.4560  0.5654
 1334TIP3    H125637   4.475   2.254   0.468  0.3628  0.9653  0.2818
 1334TIP3    H225638   4.370   2.338   0.398  0.2772 -0.3750 -1.2736
 1335TIP3   OH225639   5.747   3.489   8.816 -0.3225  0.8275 -0.6730
 1335TIP3    H125640   5.701   3.431   8.876 -0.4248  1.7623  0.1760
 1335TIP3    H225641   5.696   3.570   8.817 -0.1478  0.9740 -1.7839
 1336TIP3   OH225642   5.661   0.315   0.023  0.3990 -0.5262  0.3770
 1336TIP3    H125643   5.576   0.285   0.055  0.3786  1.1087  2.0113
 1336TIP3    H225644   5.705   0.350   0.101  1.1341  1.9220 -1.0346
 1337TIP3   OH225645   3.852   3.603   8.165 -0.1470  0.2976 -0.0728
 1337TIP3    H125646   3.814   3.660   8.098 -1.4988  0.6174  0.8969
 1337TIP3    H225647   3.876   3.523   8.119 -1.1438  0.4702 -0.9269
 1338TIP3   OH225648   5.125   6.473   1.177  0.5236 -0.1408 -0.3214
 1338TIP3    H125649   5.118   6.378   1.187  0.0545 -0.2443 -1.4540
 1338TIP3    H225650   5.218   6.488   1.159  0.6614 -0.3403  0.2010
 1339TIP3   OH225651   2.052   6.326   0.964 -0.4182  0.8550 -1.2981
 1339TIP3    H125652   2.114   6.311   1.035  1.2246  2.9837 -2.1600
 1339TIP3    H225653   2.003   6.245   0.957  1.5907 -0.5738  0.1042
 1340TIP3   OH225654   0.376   5.341   8.433 -0.0108 -0.1823  0.2373
 1340TIP3    H125655   0.420   5.412   8.387 -1.6405  0.1338 -0.9441
 1340TIP3    H225656   0.351   5.279   8.364 -2.6243  0.3597  0.5651
 1341TIP3   OH225657   5.761   6.811   8.824 -0.1717 -0.2549 -0.6516
 1341TIP3    H125658   5.783   6.891   8.776 -0.5948  0.6211  0.5739
 1341TIP3    H225659   5.670   6.792   8.799 -0.8067  0.8898  0.6895
 1342TIP3   OH225660   0.515   4.630   1.719 -0.3642 -0.0686 -0.0843
 1342TIP3    H125661   0.506   4.535   1.713 -0.4028 -0.0644 -0.0916
 1342TIP3    H225662   0.443   4.666   1.668 -0.2999 -0.0358 -0.1523
 1343TIP3   OH225663   6.515   4.681   8.167  0.5459 -0.5262 -0.3393
 1343TIP3    H125664   6.580   4.710   8.102  0.1623 -0.1740 -0.5705
 1343TIP3    H225665   6.548   4.596   8.197  0.6896 -0.7305 -1.0507
 1344TIP3   OH225666   1.064   1.134   7.091  0.4059  0.2751  0.1260
 1344TIP3    H125667   1.084   1.227   7.087  1.2690  0.0802 -0.4302
 1344TIP3    H225668   1.150   1.091   7.097  0.1306 -0.5637 -1.5186
 1345TIP3   OH225669   0.135   2.740   1.229  0.0441 -0.5767 -0.1252
 1345TIP3    H125670   0.111   2.804   1.296 -0.8990 -1.9058  0.8543
 1345TIP3    H225671   0.226   2.718   1.248 -0.2234 -0.9687  0.7649
 1346TIP3   OH225672   4.884   0.935   1.586  0.1515 -0.4297  0.4658
 1346TIP3    H125673   4.903   1.016   1.539 -1.4454 -0.6911 -0.7376
 1346TIP3    H225674   4.889   0.959   1.679 -0.7820  1.1909  0.1363
 1347TIP3   OH225675   3.750   5.679   0.395 -0.5594 -0.2728  0.0499
 1347TIP3    H125676   3.837   5.673   0.434 -0.4250  0.0971 -0.1858
 1347TIP3    H225677   3.735   5.593   0.355  0.3929  0.1718 -1.3522
 1348TIP3   OH225678   1.122   3.349   8.273  0.1532  0.2170  0.0920
 1348TIP3    H125679   1.110   3.441   8.251 -0.6512  0.3075  0.8415
 1348TIP3    H225680   1.138   3.349   8.368  1.1913 -0.3319 -0.0771
 1349TIP3   OH225681   0.451   4.225   2.229 -0.0135  0.7390  0.2612
 1349TIP3    H125682   0.516   4.248   2.295  0.0719  0.4142  0.2889
 1349TIP3    H225683   0.492   4.250   2.146 -0.6162  2.3344  0.4010
 1350TIP3   OH225684   5.265   4.459   8.351 -0.3835  0.3347 -0.4668
 1350TIP3    H125685   5.333   4.523   8.374 -0.9505  0.7791 -0.0014
 1350TIP3    H225686   5.198   4.510   8.307 -1.1946  0.2085  0.5971
 1351TIP3   OH225687   5.957   1.020   0.872  0.0229  0.0683 -0.8024
 1351TIP3    H125688   5.896   0.947   0.872 -0.2263  0.2673 -1.2939
 1351TIP3    H225689   5.926   1.077   0.801  0.4106  0.4799 -0.6482
 1352TIP3   OH225690   3.665   3.777   0.526 -0.1851  0.1574 -0.5228
 1352TIP3    H125691   3.609   3.780   0.603  0.4549 -0.8207  0.0099
 1352TIP3    H225692   3.615   3.821   0.457 -0.9116  0.7273  0.3572
 1353TIP3   OH225693   3.052   1.710   2.841  0.7624 -0.3058  0.0694
 1353TIP3    H125694   3.092   1.776   2.897  0.5644  0.5163 -0.7375
 1353TIP3    H225695   2.982   1.756   2.795 -1.2026 -1.6888  1.4578
 1354TIP3   OH225696   0.547   4.473   0.549  0.0859  0.0348 -0.3202
 1354TIP3    H125697   0.487   4.512   0.612  1.5066  0.2941  0.9221
 1354TIP3    H225698   0.589   4.402   0.597  0.3922 -0.4846 -1.3299
 1355TIP3   OH225699   6.525   5.510   8.051  0.1328 -0.4145  0.3968
 1355TIP3    H125700   6.499   5.599   8.074 -0.8254 -0.5867  0.0229
 1355TIP3    H225701   6.607   5.520   8.002 -0.3913  0.3326 -0.3427
 1356TIP3   OH225702   4.268   5.585   6.777 -0.2717  0.0796 -0.2032
 1356TIP3    H125703   4.313   5.523   6.720 -2.3404 -1.6969 -0.0003
 1356TIP3    H225704   4.313   5.577   6.862  0.4386  0.0236 -0.5753
 1357TIP3   OH225705   6.543   4.836   7.160  0.0892  0.4441  0.5410
 1357TIP3    H125706   6.550   4.906   7.096  0.9391 -0.3321 -0.2353
 1357TIP3    H225707   6.453   4.841   7.191 -0.0384  1.4762  0.0474
 1358TIP3   OH225708   5.880   5.341   7.412  0.1219 -0.5869 -0.4055
 1358TIP3    H125709   5.881   5.395   7.332 -0.6928  1.0659  0.6428
 1358TIP3    H225710   5.969   5.349   7.447 -0.3131  1.1545  0.3918
 1359TIP3   OH225711   3.265   6.101   0.688  0.2653 -0.2335 -0.0207
 1359TIP3    H125712   3.341   6.153   0.663 -0.7720  0.4884 -1.8679
 1359TIP3    H225713   3.235   6.061   0.607 -0.6558 -1.4480  0.8725
 1360TIP3   OH225714   1.417   1.204   2.081 -0.1931 -0.0366 -0.2268
 1360TIP3    H125715   1.458   1.273   2.134  0.5933  0.7785 -1.8207
 1360TIP3    H225716   1.323   1.213   2.099 -0.0024  0.6923  0.4662
 1361TIP3   OH225717   2.133   1.233   0.721  0.2378  0.4296 -0.2827
 1361TIP3    H125718   2.040   1.234   0.744 -0.0449  2.4909 -1.2534
 1361TIP3    H225719   2.136   1.191   0.635  0.1464  0.6087 -0.3758
 1362TIP3   OH225720   5.357   6.020   2.139  0.2360  0.4231  0.3781
 1362TIP3    H125721   5.277   6.022   2.193 -0.9495  0.4927 -1.3133
 1362TIP3    H225722   5.401   6.103   2.159  0.8495 -0.3897  2.6641
 1363TIP3   OH225723   1.154   3.950   7.442 -0.7408  0.4750  0.5013
 1363TIP3    H125724   1.151   4.027   7.499 -2.7341  0.0896  0.9800
 1363TIP3    H225725   1.182   3.879   7.500 -0.0593  0.5913  0.3285
 1364TIP3   OH225726   5.587   4.973   0.677  0.1172 -0.0994  0.4177
 1364TIP3    H125727   5.652   4.906   0.697  0.6162  0.4923  0.7858
 1364TIP3    H225728   5.561   4.955   0.587  0.9256 -0.2260  0.2030
 1365TIP3   OH225729   5.685   0.137   0.769  1.2470  0.7698 -0.1256
 1365TIP3    H125730   5.750   0.200   0.736  1.4959 -0.2442 -1.6194
 1365TIP3    H225731   5.709   0.054   0.728 -0.6309  0.2389 -0.2078
 1366TIP3   OH225732   5.737   1.716   7.239  0.1061  0.2859 -0.2587
 1366TIP3    H125733   5.824   1.727   7.277 -0.2207 -0.0678  0.6055
 1366TIP3    H225734   5.748   1.645   7.176  0.1267 -0.8052  0.9365
 1367TIP3   OH225735   3.011   2.017   1.973  0.6270  0.4269 -0.2106
 1367TIP3    H125736   3.065   2.059   2.040 -0.0661 -0.8737  1.2155
 1367TIP3    H225737   3.055   1.934   1.955  1.7747  1.4714 -2.7251
 1368TIP3   OH225738   4.360   5.232   7.549 -0.2909  0.1635 -0.2743
 1368TIP3    H125739   4.282   5.239   7.495 -0.1191 -1.4911 -0.7927
 1368TIP3    H225740   4.394   5.144   7.532  0.2457 -0.1207  1.8764
 1369TIP3   OH225741   3.807   0.886   6.965 -0.6461  0.0284 -0.1849
 1369TIP3    H125742   3.818   0.837   6.883 -0.3387  0.0422 -0.1539
 1369TIP3    H225743   3.877   0.952   6.963  1.3412 -1.8556  1.4430
 1370TIP3   OH225744   2.135   2.440   2.072  0.0264  0.0023 -0.3538
 1370TIP3    H125745   2.110   2.380   2.143 -1.0138  1.6285  0.7271
 1370TIP3    H225746   2.205   2.494   2.110 -0.3081  0.6680 -0.6669
 1371TIP3   OH225747   5.523   1.968   2.009 -0.0766 -0.5068  0.1595
 1371TIP3    H125748   5.585   1.981   2.080 -0.3705 -0.2774  0.3740
 1371TIP3    H225749   5.477   2.052   2.001  0.1205 -0.4510 -0.4589
 1372TIP3   OH225750   4.590   3.672   7.156 -0.0447  0.2420 -0.1760
 1372TIP3    H125751   4.656   3.602   7.153  1.4926  1.6070 -3.1655
 1372TIP3    H225752   4.631   3.744   7.109 -3.1744  1.6832 -0.9269
 1373TIP3   OH225753   3.713   0.161   7.147  0.0730  0.2031  0.6130
 1373TIP3    H125754   3.704   0.256   7.139 -2.1203 -0.0779 -1.9152
 1373TIP3    H225755   3.695   0.143   7.239 -0.8991  2.1231  0.8566
 1374TIP3   OH225756   2.216   4.786   8.703  0.3208  0.1907  0.0563
 1374TIP3    H125757   2.199   4.724   8.632 -0.6939 -0.1054  0.5416
 1374TIP3    H225758   2.298   4.755   8.743 -0.1896 -0.8749  0.3150
 1375TIP3   OH225759   5.195   3.161   6.745  0.3782 -0.2798 -0.6183
 1375TIP3    H125760   5.249   3.123   6.676  1.1350  1.1000 -0.8353
 1375TIP3    H225761   5.173   3.249   6.713 -0.7339 -0.2525  0.1429
 1376TIP3   OH225762   4.096   3.967   7.968 -0.3124 -0.5823 -0.3771
 1376TIP3    H125763   4.052   4.051   7.983 -2.1062 -1.6364  0.6173
 1376TIP3    H225764   4.048   3.927   7.896  1.1760 -0.3679 -1.5318
 1377TIP3   OH225765   5.036   3.212   7.931 -0.2293 -0.3316  0.7432
 1377TIP3    H125766   4.961   3.185   7.984 -0.2649 -0.5598  0.5770
 1377TIP3    H225767   5.038   3.150   7.858  0.0668 -0.2712  0.6978
 1378TIP3   OH225768   1.090   6.315   6.769  0.5940 -0.0727  0.1040
 1378TIP3    H125769   1.022   6.252   6.746  0.6035 -0.7599  1.7749
 1378TIP3    H225770   1.079   6.387   6.707  1.1991 -2.0894 -2.4792
 1379TIP3   OH225771   3.314   3.985   1.597  0.0322  0.7265  0.3438
 1379TIP3    H125772   3.324   4.060   1.537 -1.3791 -0.2010 -1.1292
 1379TIP3    H225773   3.315   3.909   1.540 -2.8519 -0.1352  1.2860
 1380TIP3   OH225774   3.210   4.300   1.771  0.6825  0.1734 -0.3139
 1380TIP3    H125775   3.276   4.306   1.702  0.7404  0.6147 -0.2224
 1380TIP3    H225776   3.218   4.383   1.819  0.8623 -0.2592  0.4157
 1381TIP3   OH225777   2.484   6.414   8.676 -0.5654 -0.0688  0.5458
 1381TIP3    H125778   2.489   6.486   8.739  0.1853  0.2496  0.1490
 1381TIP3    H225779   2.522   6.339   8.721 -0.6983 -0.0278  0.7236
 1382TIP3   OH225780   6.793   2.452   0.953 -0.1984 -0.5750  0.4618
 1382TIP3    H125781   6.790   2.512   0.879 -0.8533  0.7556  1.5299
 1382TIP3    H225782   6.886   2.439   0.970 -0.0489 -0.0410  0.0732
 1383TIP3   OH225783   5.910   3.159   0.302 -0.4383 -0.0303  0.1549
 1383TIP3    H125784   5.951   3.245   0.294  0.3438 -0.1435  2.3832
 1383TIP3    H225785   5.832   3.174   0.354  0.0064 -0.7289  1.0584
 1384TIP3   OH225786   6.596   2.693   1.127 -0.0772  0.2785  0.3220
 1384TIP3    H125787   6.506   2.667   1.143 -0.1026  0.1304 -0.0593
 1384TIP3    H225788   6.648   2.626   1.171 -0.1417 -0.5156 -0.7590
 1385TIP3   OH225789   4.521   1.707   0.141  0.4724 -0.0251  0.4153
 1385TIP3    H125790   4.501   1.790   0.097 -1.2326  0.3806  1.8773
 1385TIP3    H225791   4.479   1.714   0.226  2.2600 -1.4879  1.4894
 1386TIP3   OH225792   0.337   1.136   6.725 -0.0259 -0.0846  0.1014
 1386TIP3    H125793   0.342   1.055   6.775 -0.5681 -0.4956 -0.4880
 1386TIP3    H225794   0.247   1.139   6.693  0.1572  0.4401 -0.3913
 1387TIP3   OH225795   5.883   5.390   7.148 -0.2255 -0.3573  0.4289
 1387TIP3    H125796   5.912   5.299   7.154  0.4822 -0.2449 -0.9313
 1387TIP3    H225797   5.890   5.411   7.055 -2.6150  0.3678  0.3565
 1388TIP3   OH225798   2.597   5.794   7.411  0.3617 -0.5849 -0.0849
 1388TIP3    H125799   2.550   5.712   7.396 -1.0201  0.0328  0.6702
 1388TIP3    H225800   2.532   5.862   7.393  1.7807  0.3989 -1.7564
 1389TIP3   OH225801   4.587   0.700   1.163 -0.5811 -0.4771 -0.0941
 1389TIP3    H125802   4.659   0.653   1.119 -1.2473 -0.6833 -0.9936
 1389TIP3    H225803   4.511   0.643   1.151 -1.3570  0.7142 -1.0077
 1390TIP3   OH225804   0.943   4.912   1.784 -0.3389 -0.2053  0.4291
 1390TIP3    H125805   0.904   4.834   1.824 -0.1206  0.3306  1.7443
 1390TIP3    H225806   0.936   4.980   1.852  0.7238  0.5459 -0.1778
 1391TIP3   OH225807   0.996   5.944   0.759  0.3479  0.9385 -0.3322
 1391TIP3    H125808   0.921   6.002   0.742 -2.2198 -2.0041  0.0375
 1391TIP3    H225809   1.048   5.947   0.679  0.7663  4.1863 -0.0620
 1392TIP3   OH225810   6.164   5.310   8.771 -0.2608  0.3739 -0.0780
 1392TIP3    H125811   6.193   5.258   8.846  0.3062  0.6437 -0.1058
 1392TIP3    H225812   6.116   5.383   8.810  0.4653  0.7920  0.0615
 1393TIP3   OH225813   4.987   5.551   1.188  0.1473 -0.4124 -0.7043
 1393TIP3    H125814   4.934   5.580   1.113  0.9307  1.4906 -0.5852
 1393TIP3    H225815   5.011   5.461   1.166 -0.5194 -0.2576 -2.2535
 1394TIP3   OH225816   3.513   0.812   1.179 -0.4394 -0.7281 -0.0288
 1394TIP3    H125817   3.536   0.833   1.269 -0.5711 -0.5163 -0.0426
 1394TIP3    H225818   3.431   0.762   1.185 -0.0062 -1.4424  0.0178
 1395TIP3   OH225819   6.640   1.718   2.211 -0.7784 -0.1891  0.2725
 1395TIP3    H125820   6.682   1.800   2.183 -0.4578  0.0910  1.4906
 1395TIP3    H225821   6.712   1.666   2.247 -0.9153 -1.2012 -0.8726
 1396TIP3   OH225822   6.076   3.381   7.851  0.5139 -0.0796 -0.4211
 1396TIP3    H125823   6.144   3.381   7.918 -0.7929 -0.4785  0.9754
 1396TIP3    H225824   6.057   3.474   7.836  0.9998  0.0187 -0.4354
 1397TIP3   OH225825   6.172   3.228   7.119 -0.0001  0.0158  0.0606
 1397TIP3    H125826   6.128   3.148   7.089 -0.0915  0.0897 -0.0067
 1397TIP3    H225827   6.258   3.224   7.078 -0.5773  0.7531 -1.3055
 1398TIP3   OH225828   4.647   2.870   7.263  0.2793 -0.3641  0.5084
 1398TIP3    H125829   4.611   2.914   7.187  1.6504  0.2664  0.1817
 1398TIP3    H225830   4.685   2.789   7.228 -0.4802 -0.8574  0.7931
 1399TIP3   OH225831   0.597   1.581   7.213  0.0204  0.0350  0.5328
 1399TIP3    H125832   0.599   1.581   7.309 -0.1677 -2.7864  0.6290
 1399TIP3    H225833   0.648   1.504   7.188 -0.1275  0.5797 -1.6287
 1400TIP3   OH225834   0.763   5.304   0.484  0.2129  0.3207  0.4779
 1400TIP3    H125835   0.816   5.263   0.552 -0.4146  0.4504  1.0468
 1400TIP3    H225836   0.674   5.276   0.501  0.2624 -1.1950 -1.4337
 1401TIP3   OH225837   2.212   2.038   8.389 -0.3201  0.0273  0.1125
 1401TIP3    H125838   2.135   2.056   8.442 -0.6116  0.8903 -0.5814
 1401TIP3    H225839   2.276   2.001   8.451 -0.5064  1.3748  1.1449
 1402TIP3   OH225840   4.723   0.176   8.822 -0.5685 -0.0561  0.2527
 1402TIP3    H125841   4.637   0.137   8.809 -0.9926  1.1183 -0.6111
 1402TIP3    H225842   4.723   0.255   8.767  1.7200 -1.0170 -1.2885
 1403TIP3   OH225843   5.284   5.370   0.849  0.0903 -0.3054 -0.1611
 1403TIP3    H125844   5.367   5.399   0.887 -0.1614  1.5712 -0.8993
 1403TIP3    H225845   5.308   5.330   0.766  0.1854  2.5427 -1.6307
 1404TIP3   OH225846   6.220   5.708   0.019  0.1484 -0.0002 -0.6681
 1404TIP3    H125847   6.165   5.738  -0.054 -0.8933 -2.8618 -1.1717
 1404TIP3    H225848   6.177   5.629   0.050  1.0713  0.6436  2.5473
 1405TIP3   OH225849   4.594   5.829   0.218 -0.2606  0.4759 -0.0068
 1405TIP3    H125850   4.501   5.810   0.217 -0.1007 -0.4048 -0.8929
 1405TIP3    H225851   4.634   5.750   0.256  0.1621  0.5677 -0.2499
 1406TIP3   OH225852   5.474   1.553   8.763 -0.1487 -0.1231  0.4947
 1406TIP3    H125853   5.450   1.636   8.805 -0.8991 -0.1624  0.1455
 1406TIP3    H225854   5.392   1.516   8.732  0.0277 -1.5322  1.5896
 1407TIP3   OH225855   2.437   4.133   7.638  0.1853  0.9757  0.1993
 1407TIP3    H125856   2.509   4.070   7.624 -0.9601  0.1392 -2.9450
 1407TIP3    H225857   2.479   4.208   7.680  2.5600 -0.1237  0.0009
 1408TIP3   OH225858   5.438   2.754   0.651 -0.0717 -0.3212  0.4113
 1408TIP3    H125859   5.497   2.827   0.633  0.2072 -0.4824  0.6507
 1408TIP3    H225860   5.444   2.697   0.574  0.1879 -0.4022  0.4905
 1409TIP3   OH225861   2.210   4.066   6.760 -0.2991  0.6519  0.0555
 1409TIP3    H125862   2.297   4.104   6.747 -0.0256  0.2176  0.5804
 1409TIP3    H225863   2.164   4.080   6.677  0.1578  1.1801 -0.1101
 1410TIP3   OH225864   5.390   5.144   7.740 -0.0331 -0.6817 -0.5645
 1410TIP3    H125865   5.319   5.145   7.803  0.2751 -0.7091 -0.2155
 1410TIP3    H225866   5.379   5.226   7.691 -0.3085 -0.6902 -0.5160
 1411TIP3   OH225867   5.696   4.268   0.037  0.2593  0.0423  0.1153
 1411TIP3    H125868   5.773   4.213   0.048 -0.1239 -0.4770  0.2448
 1411TIP3    H225869   5.623   4.213   0.066 -0.0584  0.8645  0.9387
 1412TIP3   OH225870   2.378   5.007   0.373  0.1372  0.3992 -0.1728
 1412TIP3    H125871   2.293   4.973   0.345  1.7574 -1.9092 -2.8122
 1412TIP3    H225872   2.390   5.087   0.321  0.5448 -0.5807 -1.6353
 1413TIP3   OH225873   0.503   1.228   0.418 -0.0261  0.2400  0.2067
 1413TIP3    H125874   0.574   1.238   0.355  0.6277 -0.0989  0.8701
 1413TIP3    H225875   0.481   1.135   0.416  0.0514  0.2112  0.5211
 1414TIP3   OH225876   4.941   3.969   0.396  0.3970 -0.1884 -0.7777
 1414TIP3    H125877   4.917   4.045   0.450  0.2443 -0.5995 -0.2623
 1414TIP3    H225878   4.859   3.921   0.385  1.2099 -2.9356  3.0320
 1415TIP3   OH225879   0.433   0.687   0.007 -0.0628 -0.5870 -0.4556
 1415TIP3    H125880   0.422   0.696   0.102  0.7261  1.0118 -0.4979
 1415TIP3    H225881   0.344   0.689  -0.027 -0.3060 -0.2496  0.1791
 1416TIP3   OH225882   5.072   5.316   1.070 -0.5688  0.2545  0.0211
 1416TIP3    H125883   5.148   5.262   1.091 -1.0620 -0.0658  1.0452
 1416TIP3    H225884   5.059   5.303   0.976 -0.3814 -1.0488  0.1543
 1417TIP3   OH225885   6.132   3.566   1.409  0.0137  0.0002  0.0064
 1417TIP3    H125886   6.202   3.625   1.435 -0.4769 -0.0958  1.6789
 1417TIP3    H225887   6.107   3.521   1.489 -1.8287 -0.1068 -0.5767
 1418TIP3   OH225888   0.579   1.905   7.869 -0.2001 -0.0417  0.2173
 1418TIP3    H125889   0.560   1.962   7.943  0.8123 -0.5648  0.9070
 1418TIP3    H225890   0.609   1.823   7.909  0.9841 -0.1113 -0.7526
 1419TIP3   OH225891   0.988   2.589   6.719  0.1150  0.0533  0.4174
 1419TIP3    H125892   1.083   2.583   6.728  0.1877 -1.5182 -1.0202
 1419TIP3    H225893   0.964   2.669   6.767  2.2515  0.9565  0.0554
 1420TIP3   OH225894   2.891   3.193   1.477 -0.0263  0.1266  0.2260
 1420TIP3    H125895   2.945   3.136   1.532 -0.6397 -0.2199  0.4887
 1420TIP3    H225896   2.855   3.134   1.410 -1.1940  0.0452  0.8875
 1421TIP3   OH225897   6.776   6.502   0.359 -0.0783 -0.0343 -0.4731
 1421TIP3    H125898   6.705   6.500   0.424  1.0357 -0.7933  0.7748
 1421TIP3    H225899   6.778   6.412   0.324 -0.4754  0.2931 -1.3747
 1422TIP3   OH225900   1.331   5.317   7.045 -0.3289 -0.1787  0.4877
 1422TIP3    H125901   1.366   5.233   7.015  0.2830 -0.0479  0.8301
 1422TIP3    H225902   1.370   5.381   6.987 -1.4952 -0.2022 -0.3507
 1423TIP3   OH225903   5.831   6.052   8.591 -0.4108 -0.0258 -0.2554
 1423TIP3    H125904   5.765   5.982   8.587 -0.6530  0.2363 -2.1229
 1423TIP3    H225905   5.788   6.127   8.550  0.2905  0.8437  0.5663
 1424TIP3   OH225906   4.141   2.567   2.465  0.8341 -0.3597 -0.0969
 1424TIP3    H125907   4.142   2.604   2.553  2.7007 -0.6968  0.0553
 1424TIP3    H225908   4.223   2.596   2.425 -0.0523 -0.0699 -1.8028
 1425TIP3   OH225909   5.724   2.144   0.071  0.3403  0.2094  0.2351
 1425TIP3    H125910   5.803   2.118   0.024  0.7434 -0.3671  1.2104
 1425TIP3    H225911   5.658   2.154   0.002  1.0844  0.0521 -0.5242
 1426TIP3   OH225912   6.717   2.281   8.571 -0.5422  0.1969 -0.1611
 1426TIP3    H125913   6.745   2.359   8.619 -0.7695 -0.4450  1.0547
 1426TIP3    H225914   6.798   2.237   8.547 -0.3109  1.6900 -2.4899
 1427TIP3   OH225915   5.057   3.598   0.329 -0.2075  0.2214  0.0722
 1427TIP3    H125916   4.991   3.647   0.279  1.7436  0.4185 -2.4911
 1427TIP3    H225917   5.019   3.510   0.338 -1.8045  0.9324  0.7949
 1428TIP3   OH225918   0.136   5.090   0.448 -0.6052 -0.2639  0.4828
 1428TIP3    H125919   0.079   5.150   0.400  0.4093 -0.0237 -0.4557
 1428TIP3    H225920   0.105   5.003   0.425  0.9063 -0.2167 -2.0145
 1429TIP3   OH225921   5.130   3.119   1.141  0.5924 -0.0856  0.2426
 1429TIP3    H125922   5.122   3.098   1.234 -1.0545  1.2043  0.4419
 1429TIP3    H225923   5.041   3.111   1.106  0.9841  0.5153 -0.9674
 1430TIP3   OH225924   4.554   2.355   6.966  0.2085 -0.0723 -0.0334
 1430TIP3    H125925   4.511   2.440   6.977  0.6918  0.2991 -0.9101
 1430TIP3    H225926   4.608   2.366   6.888  0.5994 -1.0600  0.0913
 1431TIP3   OH225927   6.147   5.235   0.904  0.0882  0.0621 -0.2897
 1431TIP3    H125928   6.120   5.324   0.881  0.1529 -0.1847 -1.3532
 1431TIP3    H225929   6.064   5.188   0.919 -0.0680 -0.3182 -2.1325
 1432TIP3   OH225930   5.978   6.498   1.323 -0.3291 -0.0472  0.1221
 1432TIP3    H125931   5.916   6.429   1.346 -0.9052  0.3027 -0.3334
 1432TIP3    H225932   5.970   6.562   1.393 -1.9620  0.9394 -0.8820
 1433TIP3   OH225933   1.849   6.774   0.610  0.0162 -0.5236  0.2007
 1433TIP3    H125934   1.943   6.765   0.589  0.6508  3.0359  0.9502
 1433TIP3    H225935   1.844   6.757   0.704 -0.1676 -1.0124  0.1054
 1434TIP3   OH225936   3.897   1.106   6.785  0.7424  0.4360  0.0154
 1434TIP3    H125937   3.951   1.185   6.782 -0.1382  1.1379  1.5556
 1434TIP3    H225938   3.852   1.111   6.869 -0.0021 -1.2799 -0.2443
 1435TIP3   OH225939   3.265   6.385   0.803 -0.3123 -0.0403 -0.1287
 1435TIP3    H125940   3.214   6.318   0.759 -1.1093  0.2528  0.3325
 1435TIP3    H225941   3.339   6.337   0.841 -1.2142 -0.7884  0.7593
 1436TIP3   OH225942   6.826   0.041   8.675 -0.2639  0.2302 -0.1394
 1436TIP3    H125943   6.757   0.100   8.646  0.4627  0.2526 -1.9392
 1436TIP3    H225944   6.834  -0.024   8.605  1.7248  0.4014 -0.1361
 1437TIP3   OH225945   2.817   0.711   1.319 -0.1392 -0.1178  0.0720
 1437TIP3    H125946   2.861   0.630   1.294  0.7509 -0.1633  1.6898
 1437TIP3    H225947   2.875   0.752   1.383 -0.6576  1.7229 -0.5761
 1438TIP3   OH225948   4.190   6.035   0.642 -0.5219  0.0978  0.0741
 1438TIP3    H125949   4.200   6.063   0.551 -0.3359 -0.9227 -0.2331
 1438TIP3    H225950   4.104   5.996   0.645  0.1696 -1.5094 -0.1297
 1439TIP3   OH225951   2.371   0.790   1.913 -0.7828 -0.3742 -0.2258
 1439TIP3    H125952   2.313   0.805   1.988 -1.6264 -0.7824 -0.7833
 1439TIP3    H225953   2.345   0.705   1.879 -3.0069  1.3116 -3.2367
 1440TIP3   OH225954   3.116   5.032   1.557  0.9310  0.5129 -0.4791
 1440TIP3    H125955   3.172   5.109   1.561  2.2856 -0.4275 -0.4032
 1440TIP3    H225956   3.167   4.968   1.507 -0.5545 -0.0260 -1.3617
 1441TIP3   OH225957   3.934   6.472   6.994  0.9666 -0.0655  0.7100
 1441TIP3    H125958   3.917   6.499   6.903  3.8208  1.2151  0.4678
 1441TIP3    H225959   3.851   6.434   7.023  0.1359 -1.1370 -2.6179
 1442TIP3   OH225960   6.778   4.242   0.691  0.1279  0.3875 -0.4221
 1442TIP3    H125961   6.827   4.322   0.672 -2.0748  1.6620 -1.1677
 1442TIP3    H225962   6.769   4.198   0.607  1.5887 -0.8682  0.0354
 1443TIP3   OH225963   3.386   1.727   1.039  0.0305 -0.3447 -0.4607
 1443TIP3    H125964   3.319   1.660   1.054 -0.9676  0.3640 -1.5638
 1443TIP3    H225965   3.394   1.773   1.123 -2.0042  0.5256 -0.6791
 1444TIP3   OH225966   1.988   4.770   7.300 -0.4494  0.4563 -0.1864
 1444TIP3    H125967   1.895   4.765   7.318 -0.2961  1.1821  0.9114
 1444TIP3    H225968   1.996   4.755   7.206 -1.5808 -0.4807 -0.1454
 1445TIP3   OH225969   0.792   1.217   1.085  0.0349 -0.3186  0.0091
 1445TIP3    H125970   0.709   1.255   1.057 -0.2461 -0.0324  1.1725
 1445TIP3    H225971   0.812   1.261   1.168 -0.4743 -2.8791  1.6263
 1446TIP3   OH225972   0.758   1.089   0.762 -0.2408 -0.6101 -0.2952
 1446TIP3    H125973   0.814   1.077   0.686  0.3725  0.8658 -0.1131
 1446TIP3    H225974   0.766   1.007   0.812  0.0617 -1.2274 -1.3408
 1447TIP3   OH225975   6.560   4.390   7.957 -0.3158 -0.0367 -0.8249
 1447TIP3    H125976   6.524   4.371   7.870  0.7045 -1.8157 -0.8868
 1447TIP3    H225977   6.643   4.434   7.939  0.2432 -1.0490 -0.7885
 1448TIP3   OH225978   4.342   6.614   8.260  0.3453  0.2124 -0.2378
 1448TIP3    H125979   4.322   6.595   8.352  1.4281 -0.9328 -0.2203
 1448TIP3    H225980   4.260   6.649   8.225  0.1747  1.5432  1.3736
 1449TIP3   OH225981   1.356   2.071   2.124 -0.0839  0.0091 -0.4544
 1449TIP3    H125982   1.395   2.049   2.209 -0.6564 -1.6765 -0.5842
 1449TIP3    H225983   1.426   2.113   2.075  0.6556 -0.2328  0.3790
 1450TIP3   OH225984   2.487   2.506   0.357 -0.1204 -0.3165  0.3051
 1450TIP3    H125985   2.451   2.425   0.322 -0.8338 -0.3077  0.9855
 1450TIP3    H225986   2.578   2.485   0.378  0.0713 -0.5565 -0.7296
 1451TIP3   OH225987   0.104   2.485   6.788 -0.3540  0.5557 -0.6994
 1451TIP3    H125988   0.121   2.472   6.695  0.4530  1.2179 -0.6533
 1451TIP3    H225989   0.116   2.579   6.802  1.5360  0.1869  0.4513
 1452TIP3   OH225990   1.026   0.391   0.379 -0.0272  0.2900  0.5267
 1452TIP3    H125991   0.947   0.442   0.362  0.8012  0.7262 -2.7181
 1452TIP3    H225992   1.083   0.450   0.430 -1.9532 -0.3422  3.7053
 1453TIP3   OH225993   2.898   6.414   2.134 -0.2217 -0.4802  0.4428
 1453TIP3    H125994   2.854   6.481   2.082 -0.3418 -0.7927  0.1412
 1453TIP3    H225995   2.827   6.358   2.165 -0.2295  0.0765  1.4956
 1454TIP3   OH225996   0.302   2.241   1.220  0.2845  0.5143 -0.3812
 1454TIP3    H125997   0.381   2.199   1.189  1.0937  0.5158  1.5083
 1454TIP3    H225998   0.280   2.306   1.153  1.7783  0.3952 -1.0099
 1455TIP3   OH225999   2.818   0.094   8.626 -0.2685  0.3319 -0.0702
 1455TIP3    H126000   2.810   0.123   8.535 -0.0172  1.2884  0.2023
 1455TIP3    H226001   2.902   0.130   8.655  0.2479 -1.0234  0.1685
 1456TIP3   OH226002   2.551   0.159   7.574  0.1398 -0.5132 -0.5087
 1456TIP3    H126003   2.586   0.072   7.555 -1.2898 -0.9916 -1.1230
 1456TIP3    H226004   2.600   0.189   7.651  0.3321 -2.0712  0.0140
 1457TIP3   OH226005   3.458   0.088   1.637 -0.0665 -0.3718  0.2481
 1457TIP3    H126006   3.399   0.060   1.567  0.0705 -2.6893  0.9748
 1457TIP3    H226007   3.401   0.123   1.704 -0.3224  0.4090 -0.3611
 1458TIP3   OH226008   4.900   0.010   7.257 -0.0883  0.3631 -0.5913
 1458TIP3    H126009   4.971  -0.044   7.290 -0.9838  0.1634  1.1198
 1458TIP3    H226010   4.905   0.091   7.309 -1.7093 -0.0735  0.3174
 1459TIP3   OH226011   1.924   1.433   0.363  0.1403  0.1214  0.3031
 1459TIP3    H126012   1.913   1.344   0.329  0.8569  0.5858 -1.2716
 1459TIP3    H226013   1.903   1.426   0.456 -0.9280 -1.4553 -0.0038
 1460TIP3   OH226014   5.239   0.852   1.625  0.8196 -0.1686  0.1106
 1460TIP3    H126015   5.166   0.914   1.620  1.8770  1.1930  0.9501
 1460TIP3    H226016   5.237   0.807   1.540 -0.7281  0.1243 -0.0410
 1461TIP3   OH226017   1.256   2.682   7.999 -0.5990  0.1440  0.3522
 1461TIP3    H126018   1.277   2.699   8.091  0.8659 -1.3253  0.3217
 1461TIP3    H226019   1.290   2.759   7.953  2.2306 -0.8431  0.6510
 1462TIP3   OH226020   0.180   0.646   7.739  1.1521  0.3650 -1.0159
 1462TIP3    H126021   0.144   0.726   7.702 -1.5392 -1.1955 -2.0868
 1462TIP3    H226022   0.245   0.617   7.675  1.8746  1.4644 -0.8016
 1463TIP3   OH226023   4.049   4.252   7.615  0.2494 -0.5432 -0.2571
 1463TIP3    H126024   4.124   4.193   7.623  0.6691  0.1685  1.4655
 1463TIP3    H226025   4.084   4.338   7.637 -1.0082 -0.1551  0.2865
 1464TIP3   OH226026   2.733   2.083   8.411  0.0099  0.3468 -0.0168
 1464TIP3    H126027   2.773   2.012   8.461  0.9852  1.1104  0.3145
 1464TIP3    H226028   2.690   2.039   8.337 -0.1355 -0.6512  0.6386
 1465TIP3   OH226029   0.714   3.699   0.096 -0.2440 -0.1860  0.2604
 1465TIP3    H126030   0.782   3.643   0.061 -0.6921 -0.2592 -0.5239
 1465TIP3    H226031   0.735   3.786   0.061 -1.7068 -0.5723 -1.7936
 1466TIP3   OH226032   3.283   1.152   7.689  0.0364 -0.1797 -0.5918
 1466TIP3    H126033   3.270   1.142   7.595 -0.7392 -3.3785 -0.2600
 1466TIP3    H226034   3.210   1.207   7.717 -1.0445 -1.0270 -1.5963
 1467TIP3   OH226035   5.070   5.122   0.834  0.1087  0.0546 -0.3749
 1467TIP3    H126036   5.020   5.041   0.827 -0.0979 -0.5095  4.1973
 1467TIP3    H226037   5.161   5.095   0.822  0.0631 -1.0169  1.2851
 1468TIP3   OH226038   0.510   1.036   1.391 -0.3351  0.2778  0.4790
 1468TIP3    H126039   0.439   1.052   1.453  0.5753 -0.4637  1.7716
 1468TIP3    H226040   0.548   1.123   1.375  0.5158  0.2903  2.3611
 1469TIP3   OH226041   1.418   6.250   7.628  0.4491  0.3272 -0.4865
 1469TIP3    H126042   1.353   6.246   7.699 -0.5763 -0.4027 -1.4189
 1469TIP3    H226043   1.439   6.343   7.620 -1.3366  0.7413 -0.8628
 1470TIP3   OH226044   0.503   2.864   6.682 -0.1809 -0.1567 -0.1651
 1470TIP3    H126045   0.451   2.904   6.612 -0.9312  2.3824  1.6968
 1470TIP3    H226046   0.582   2.919   6.688 -0.7151  0.4886  1.7366
 1471TIP3   OH226047   0.984   5.553   1.592  0.5219 -0.6560 -0.0871
 1471TIP3    H126048   1.001   5.631   1.540 -1.8209 -0.2896 -0.4405
 1471TIP3    H226049   1.067   5.534   1.636  1.3997  1.5012 -0.6839
 1472TIP3   OH226050   6.801   0.354   8.397 -0.3076  0.2196 -0.3667
 1472TIP3    H126051   6.828   0.424   8.457 -1.7013 -0.2733  0.9236
 1472TIP3    H226052   6.705   0.353   8.404 -0.3241 -2.6407  0.7123
 1473TIP3   OH226053   6.705   0.072   1.382 -0.4130 -0.0694  0.1541
 1473TIP3    H126054   6.721   0.121   1.462  0.2247  1.1415 -0.6836
 1473TIP3    H226055   6.792   0.059   1.344 -0.8429  1.3163 -1.4290
 1474TIP3   OH226056   0.936   5.326   8.084  0.1080  0.4891 -0.4682
 1474TIP3    H126057   0.963   5.388   8.152 -0.2548  0.2243 -0.0760
 1474TIP3    H226058   0.982   5.355   8.005 -1.0241  2.0027 -0.6170
 1475TIP3   OH226059   3.455   2.153   0.098 -0.1944 -0.1478 -0.3859
 1475TIP3    H126060   3.405   2.073   0.089  0.4460 -0.5324 -0.5844
 1475TIP3    H226061   3.394   2.215   0.138 -0.4028 -1.0205  0.7124
 1476TIP3   OH226062   3.982   0.013   6.691 -0.0258  0.2723 -0.5915
 1476TIP3    H126063   3.909   0.049   6.742  1.2286  0.8032  0.9184
 1476TIP3    H226064   3.984   0.066   6.611 -1.0891  0.4403 -0.5233
 1477TIP3   OH226065   0.336   4.136   0.726 -0.4432  0.8440  0.2035
 1477TIP3    H126066   0.317   4.045   0.702  0.1312  0.1150  2.2823
 1477TIP3    H226067   0.421   4.154   0.685 -0.5142  0.4000 -0.1423
 1478TIP3   OH226068   4.941   2.255   0.430 -0.3881 -0.7439 -0.1217
 1478TIP3    H126069   5.019   2.265   0.485 -0.8675  1.2271  0.2759
 1478TIP3    H226070   4.912   2.344   0.412 -0.6652 -1.2973 -3.0360
 1479TIP3   OH226071   4.417   3.362   2.245  0.5279 -0.5805 -0.1988
 1479TIP3    H126072   4.414   3.423   2.171  1.7071 -0.4345 -0.1390
 1479TIP3    H226073   4.327   3.361   2.278  0.3535  0.6415 -0.5820
 1480TIP3   OH226074   4.191   0.272   0.440  0.3931 -0.6229 -0.4983
 1480TIP3    H126075   4.244   0.209   0.489 -0.5588 -1.4864 -0.5516
 1480TIP3    H226076   4.105   0.231   0.432 -0.3167  0.7646 -0.3686
 1481TIP3   OH226077   1.459   6.686   2.338  0.6534  0.0287 -0.1795
 1481TIP3    H126078   1.548   6.720   2.329  0.1912  1.4161  0.3463
 1481TIP3    H226079   1.405   6.745   2.286 -0.0559 -0.4623 -0.0211
 1482TIP3   OH226080   2.766   1.310   8.082  0.5795 -0.1192  0.1030
 1482TIP3    H126081   2.748   1.300   7.988  0.8403  1.1627 -0.1098
 1482TIP3    H226082   2.832   1.244   8.101  0.9728 -0.0050 -0.7748
 1483TIP3   OH226083   3.569   2.660   0.081 -0.0928  0.2511 -0.2638
 1483TIP3    H126084   3.500   2.595   0.086  0.0321  0.1425  4.7069
 1483TIP3    H226085   3.649   2.613   0.103  0.4724  1.4740  0.4510
 1484TIP3   OH226086   6.681   5.991   6.579  0.2674  0.2776  0.2233
 1484TIP3    H126087   6.621   5.928   6.620 -1.2771  1.1182 -0.6748
 1484TIP3    H226088   6.752   5.937   6.544 -0.2017 -0.8004  0.8898
 1485TIP3   OH226089   2.520   6.092   7.534 -0.4151  0.2395 -0.5726
 1485TIP3    H126090   2.482   6.137   7.459 -1.2485  0.9826  0.2612
 1485TIP3    H226091   2.464   6.117   7.608  0.9757  0.3474  0.4801
 1486TIP3   OH226092   2.056   5.378   7.764 -0.7102  0.0206  0.2095
 1486TIP3    H126093   2.030   5.292   7.731 -0.1750 -0.5809  1.3002
 1486TIP3    H226094   2.075   5.364   7.857  0.6405  1.0380  0.1242
 1487TIP3   OH226095   2.754   2.630   8.809 -0.1839  0.8740  0.3597
 1487TIP3    H126096   2.682   2.686   8.838  0.0958  2.2905 -1.5736
 1487TIP3    H226097   2.794   2.676   8.735  0.8834 -1.2622 -0.4911
 1488TIP3   OH226098   6.313   0.232   1.641  0.3770  0.2458  0.3245
 1488TIP3    H126099   6.339   0.154   1.593 -0.0567  0.2977 -0.0004
 1488TIP3    H226100   6.372   0.300   1.610 -0.8771  0.6495 -1.3000
 1489TIP3   OH226101   5.250   2.480   8.001 -0.4798 -0.2827 -0.0670
 1489TIP3    H126102   5.232   2.387   7.989  1.7203 -0.7612 -0.0771
 1489TIP3    H226103   5.296   2.485   8.084 -2.0246  1.0486  0.7615
 1490TIP3   OH226104   3.097   2.071   0.106  0.2236  0.2834 -0.2765
 1490TIP3    H126105   3.002   2.064   0.094  0.0970 -0.1620  0.9136
 1490TIP3    H226106   3.125   1.982   0.125  0.5369  0.7449  1.6163
 1491TIP3   OH226107   0.882   1.760   6.812 -0.3928 -0.2986 -0.4051
 1491TIP3    H126108   0.920   1.797   6.732  0.2835 -0.8206 -0.3294
 1491TIP3    H226109   0.957   1.731   6.864 -0.6595  2.1206  1.5094
 1492TIP3   OH226110   4.538   2.146   0.054  0.1196  0.2062 -0.2692
 1492TIP3    H126111   4.585   2.112   0.130  1.0401  2.3344  0.1890
 1492TIP3    H226112   4.541   2.074  -0.010  2.7116 -0.3249  0.3140
 1493TIP3   OH226113   0.938   0.984   0.586  0.1403 -0.3539  0.6558
 1493TIP3    H126114   0.976   1.027   0.510 -0.0830  0.1079  0.8054
 1493TIP3    H226115   0.915   0.896   0.555 -1.3285  0.3011 -0.2394
 1494TIP3   OH226116   0.767   6.445   6.946  0.1865 -0.2545 -0.5029
 1494TIP3    H126117   0.807   6.529   6.923  1.4670 -0.7897 -0.2871
 1494TIP3    H226118   0.687   6.442   6.893 -0.6410  1.7148  0.5276
 1495TIP3   OH226119   0.668   4.014   7.853  0.0298  0.0003  0.3811
 1495TIP3    H126120   0.666   3.926   7.889  0.7060 -0.6596 -1.1166
 1495TIP3    H226121   0.600   4.014   7.785  0.8582  0.2428 -0.4643
 1496TIP3   OH226122   4.597   1.573   1.977  0.0163 -0.0773  0.4850
 1496TIP3    H126123   4.661   1.557   2.047  0.1323  2.0950  0.9536
 1496TIP3    H226124   4.646   1.622   1.911 -0.8444  0.5432  0.2945
 1497TIP3   OH226125   2.874   4.950   0.431 -0.4989  0.2311 -0.1554
 1497TIP3    H126126   2.836   4.945   0.518  0.6978  2.1320  0.5491
 1497TIP3    H226127   2.910   4.863   0.414 -0.6937 -0.1373  1.2758
 1498TIP3   OH226128   5.853   3.190   8.597 -0.0933 -0.0844 -0.4927
 1498TIP3    H126129   5.921   3.253   8.620 -0.5430 -0.1907  1.2626
 1498TIP3    H226130   5.788   3.241   8.548  1.7208 -0.2247 -3.3023
 1499TIP3   OH226131   1.069   6.338   8.201 -0.1564  0.3236  0.4973
 1499TIP3    H126132   1.005   6.354   8.132 -0.9594  0.3531  1.2228
 1499TIP3    H226133   1.034   6.384   8.277  1.1859  1.0704  0.6852
 1500TIP3   OH226134   2.364   1.774   6.360 -0.0789  0.0851 -0.1216
 1500TIP3    H126135   2.381   1.687   6.397  0.7670  0.6211  0.7841
 1500TIP3    H226136   2.270   1.787   6.373  0.3799  0.8652  3.3302
 1501TIP3   OH226137   1.367   1.129   8.800  0.4314  0.1253  0.3266
 1501TIP3    H126138   1.407   1.048   8.831  1.4398  0.4911  0.0240
 1501TIP3    H226139   1.413   1.149   8.718 -0.7018  0.3185 -0.2861
 1502TIP3   OH226140   1.598   2.745   6.949  0.6804 -0.2376 -0.9998
 1502TIP3    H126141   1.679   2.728   6.997 -0.0028  1.4782  0.9176
 1502TIP3    H226142   1.529   2.726   7.012 -0.2898  1.1036 -1.6101
 1503TIP3   OH226143   4.916   0.482   8.067  0.2451  0.2320 -0.1387
 1503TIP3    H126144   4.903   0.459   8.159  2.0141  0.3121  0.1714
 1503TIP3    H226145   5.006   0.515   8.063  0.1004  0.5177 -1.8464
 1504TIP3   OH226146   5.094   3.854   1.993 -0.1326 -0.2581 -0.8778
 1504TIP3    H126147   5.140   3.849   2.076 -1.1705 -0.9431 -0.3306
 1504TIP3    H226148   5.122   3.775   1.946 -0.6697 -0.6273 -0.5822
 1505TIP3   OH226149   1.260   4.695   1.612  0.0789  0.5073 -0.4894
 1505TIP3    H126150   1.243   4.611   1.654  1.5364  0.2137 -0.4336
 1505TIP3    H226151   1.250   4.759   1.682  0.7262  0.1996 -0.1110
 1506TIP3   OH226152   3.858   5.505   1.450  0.0127 -0.3284  0.4374
 1506TIP3    H126153   3.951   5.519   1.431  0.0194 -0.2054  0.5596
 1506TIP3    H226154   3.857   5.426   1.505  0.0246 -0.4658  0.2407
 1507TIP3   OH226155   6.045   3.077   1.079  0.2064  0.4750  0.3338
 1507TIP3    H126156   6.038   2.999   1.135  0.0901  0.0911 -0.2161
 1507TIP3    H226157   6.130   3.114   1.101  0.5609 -0.1850  0.1155
 1508TIP3   OH226158   3.475   5.460   1.435 -0.0594 -0.0866 -0.4392
 1508TIP3    H126159   3.523   5.475   1.517 -1.9583  0.6335  0.6005
 1508TIP3    H226160   3.541   5.423   1.376  1.7789  0.9124  0.8614
 1509TIP3   OH226161   5.786   5.661   8.774  0.0950  0.2340  0.2814
 1509TIP3    H126162   5.815   5.721   8.706  3.0326 -1.1176  0.1942
 1509TIP3    H226163   5.746   5.588   8.726 -2.9103  1.6795  0.3652
 1510TIP3   OH226164   4.119   3.274   8.767 -0.1630  0.1801 -0.4438
 1510TIP3    H126165   4.072   3.327   8.702  1.3959 -0.5954 -2.2867
 1510TIP3    H226166   4.056   3.207   8.792 -1.3002  1.3708  0.0440
 1511TIP3   OH226167   0.760   2.184   8.663 -0.0340  0.2332  0.0050
 1511TIP3    H126168   0.816   2.259   8.643 -0.0761  0.3156  0.1992
 1511TIP3    H226169   0.695   2.183   8.593  1.4831 -1.1468 -1.4957
 1512TIP3   OH226170   1.034   4.015   8.456  0.8902 -0.4137  0.2196
 1512TIP3    H126171   0.977   3.986   8.528 -2.2100 -0.4981 -2.0550
 1512TIP3    H226172   1.018   4.110   8.451  2.6810 -0.0315  0.8285
 1513TIP3   OH226173   6.348   0.231   8.808 -0.1333 -0.2675 -0.0743
 1513TIP3    H126174   6.401   0.152   8.811  0.8109  0.3711  0.3300
 1513TIP3    H226175   6.299   0.231   8.891 -1.5358 -1.3492 -0.8550
 1514TIP3   OH226176   5.978   3.606   0.213 -0.2691  0.0162  0.2362
 1514TIP3    H126177   5.883   3.616   0.215 -0.3524 -0.8473  1.0121
 1514TIP3    H226178   5.996   3.532   0.270  0.6832 -1.4385 -1.8206
 1515TIP3   OH226179   2.431   5.082   0.636  0.0451  0.1261 -0.2016
 1515TIP3    H126180   2.523   5.106   0.626 -0.2844  1.3316 -0.4764
 1515TIP3    H226181   2.409   5.036   0.555  0.8425 -1.7139  0.5792
 1516TIP3   OH226182   3.558   4.759   8.402 -0.3799 -0.2812  0.7059
 1516TIP3    H126183   3.502   4.693   8.362 -0.1999 -0.4749  0.7696
 1516TIP3    H226184   3.501   4.804   8.465 -0.7147  0.1651  0.0869
 1517TIP3   OH226185   0.970   5.903   1.909  0.3685 -0.1159  0.0082
 1517TIP3    H126186   0.879   5.927   1.928 -0.1254 -1.1767 -0.9310
 1517TIP3    H226187   0.973   5.808   1.924  0.6931 -0.5075 -2.2343
 1518TIP3   OH226188   2.593   5.424   6.534  0.6317  0.5647 -0.0325
 1518TIP3    H126189   2.501   5.432   6.559  0.7803 -0.3330  0.8653
 1518TIP3    H226190   2.641   5.462   6.608  1.1596 -3.6877  2.1163
 1519TIP3   OH226191   4.366   0.044   8.499  0.1256  0.1282 -0.1551
 1519TIP3    H126192   4.306   0.096   8.445 -0.8397  1.1464  1.7962
 1519TIP3    H226193   4.331  -0.045   8.494 -0.3505  0.3332 -0.6655
 1520TIP3   OH226194   5.810   2.772   0.076 -0.0556  0.4096 -0.3860
 1520TIP3    H126195   5.723   2.732   0.069  0.1419 -0.0920  0.0359
 1520TIP3    H226196   5.810   2.815   0.161  0.4450 -0.3959  0.0264
 1521TIP3   OH226197   0.536   3.766   8.269  0.4104 -0.4468 -0.0275
 1521TIP3    H126198   0.553   3.673   8.285  2.3079 -0.1233  0.1192
 1521TIP3    H226199   0.449   3.781   8.306  0.5535 -1.9224  1.0200
 1522TIP3   OH226200   0.333   5.996   0.337 -0.2860 -0.3061  0.0828
 1522TIP3    H126201   0.243   6.029   0.337  0.1340  1.0252  2.2741
 1522TIP3    H226202   0.380   6.055   0.279 -0.4953 -0.0011  0.2213
 1523TIP3   OH226203   3.980   6.752   8.537  0.1591  0.3287 -0.1453
 1523TIP3    H126204   4.050   6.688   8.529 -0.9305 -0.6637 -2.5937
 1523TIP3    H226205   3.907   6.703   8.575  0.0637  0.7813  0.2745
 1524TIP3   OH226206   5.101   1.392   8.097 -0.5121 -0.3666 -0.4659
 1524TIP3    H126207   5.006   1.394   8.086 -0.5525  1.0377 -0.1406
 1524TIP3    H226208   5.134   1.364   8.012 -1.2487 -3.1446  0.0568
 1525TIP3   OH226209   5.124   6.705   7.311 -0.0943  0.1388  0.1667
 1525TIP3    H126210   5.201   6.752   7.343  0.2431 -0.7286  0.6659
 1525TIP3    H226211   5.158   6.619   7.286 -0.9472 -0.3675  0.7006
 1526TIP3   OH226212   2.579   3.288   2.114 -0.4427  0.2438 -0.4255
 1526TIP3    H126213   2.532   3.308   2.195  0.4870  4.2688 -0.6909
 1526TIP3    H226214   2.672   3.295   2.137 -0.1495  0.7482 -1.6729
 1527TIP3   OH226215   6.207   6.522   0.048 -0.2307  0.4666  0.4297
 1527TIP3    H126216   6.175   6.485  -0.034  0.9620  1.4998 -0.5562
 1527TIP3    H226217   6.199   6.450   0.112  2.3432 -1.7152 -1.4555
 1528TIP3   OH226218   6.772   6.452   0.720  0.0144  0.1007 -0.2149
 1528TIP3    H126219   6.727   6.407   0.792  1.2898  1.9840  1.9082
 1528TIP3    H226220   6.790   6.383   0.656 -1.4505 -1.6129  1.1074
 1529TIP3   OH226221   1.268   2.570   7.689 -0.3930  0.3417 -0.3173
 1529TIP3    H126222   1.267   2.660   7.656  1.1017  1.1497  1.6478
 1529TIP3    H226223   1.337   2.527   7.638 -0.3816  0.6176 -0.5376
 1530TIP3   OH226224   4.051   0.254   1.923  0.0780 -0.4026  0.2511
 1530TIP3    H126225   4.029   0.167   1.891  0.4204 -0.1472 -0.7325
 1530TIP3    H226226   4.130   0.278   1.874  0.5359  0.0784  1.2015
 1531TIP3   OH226227   6.787   6.738   1.097  0.3082 -0.6023  0.2208
 1531TIP3    H126228   6.844   6.786   1.157  1.0914 -1.2698  0.0301
 1531TIP3    H226229   6.842   6.722   1.020 -0.5626 -0.0997 -0.5222
 1532TIP3   OH226230   4.533   3.295   6.230 -0.4806 -0.2571  0.1039
 1532TIP3    H126231   4.579   3.222   6.272 -1.1964 -2.1983 -2.2336
 1532TIP3    H226232   4.448   3.299   6.274  0.9742  2.0308  3.0646
 1533TIP3   OH226233   2.899   1.972   7.475 -0.5533  0.5317 -0.8473
 1533TIP3    H126234   2.814   1.932   7.494 -0.5191  0.3852 -0.9973
 1533TIP3    H226235   2.933   1.998   7.561  0.1854 -1.3088 -0.5312
 1534TIP3   OH226236   4.152   1.025   0.121  0.0922  0.2812  0.3877
 1534TIP3    H126237   4.191   0.946   0.157  1.0499  0.6947  0.2879
 1534TIP3    H226238   4.206   1.096   0.155 -0.7225  0.8929  0.4336
 1535TIP3   OH226239   4.096   3.050   1.096  0.3490 -0.2850  0.4121
 1535TIP3    H126240   4.147   2.982   1.052 -0.0910  0.4587 -1.3188
 1535TIP3    H226241   4.047   3.002   1.163 -1.0761 -1.9965 -1.7028
 1536TIP3   OH226242   0.514   6.001   7.769  0.3579  0.3517  0.1491
 1536TIP3    H126243   0.600   5.987   7.730 -0.5379 -0.4176 -1.6649
 1536TIP3    H226244   0.510   5.938   7.841  1.1519  0.1023 -0.0106
 1537TIP3   OH226245   1.873   2.206   0.519 -0.4699 -0.4157  0.1516
 1537TIP3    H126246   1.908   2.290   0.491 -0.7466 -0.7909 -1.3696
 1537TIP3    H226247   1.947   2.163   0.563  0.0309  0.0949 -0.1820
 1538TIP3   OH226248   6.595   0.532   1.807  0.2302 -0.3277 -0.0347
 1538TIP3    H126249   6.640   0.617   1.802  0.6332 -0.6029 -1.7504
 1538TIP3    H226250   6.584   0.516   1.901 -0.1269  1.7555  0.3210
 1539TIP3   OH226251   5.477   4.602   0.664  0.3443  0.0122  0.2266
 1539TIP3    H126252   5.475   4.547   0.586  0.8976 -2.2383  1.6846
 1539TIP3    H226253   5.438   4.685   0.637 -1.2218 -1.3392 -1.9398
 1540TIP3   OH226254   1.828   2.429   1.567  0.1058 -0.0714  0.3008
 1540TIP3    H126255   1.773   2.366   1.520 -0.9185  0.7996  0.3111
 1540TIP3    H226256   1.812   2.412   1.659 -2.0648  1.7738  0.3229
 1541TIP3   OH226257   0.101   0.281   1.241  0.1434 -0.0865 -0.2982
 1541TIP3    H126258   0.057   0.322   1.166  2.9612  2.3054 -0.8149
 1541TIP3    H226259   0.118   0.354   1.301  3.2089 -0.8282 -0.1181
 1542TIP3   OH226260   4.816   2.334   2.176 -0.0847  0.0329 -0.0437
 1542TIP3    H126261   4.796   2.366   2.265  0.7470 -0.5459  0.3652
 1542TIP3    H226262   4.784   2.244   2.175  2.2449 -0.8690  0.5809
 1543TIP3   OH226263   4.696   4.735   1.923  0.1574 -0.5368 -0.2511
 1543TIP3    H126264   4.703   4.723   2.018 -1.5622  0.4482  0.0360
 1543TIP3    H226265   4.664   4.651   1.890 -0.6143 -0.4466  0.2421
 1544TIP3   OH226266   3.019   4.981   0.002 -0.0551  0.4515 -0.3019
 1544TIP3    H126267   3.061   4.994  -0.083 -0.4525  0.8429 -0.4439
 1544TIP3    H226268   3.075   4.918   0.048 -0.0151 -0.0163 -0.9774
 1545TIP3   OH226269   4.261   4.445   7.554  0.3773  0.5190  0.3188
 1545TIP3    H126270   4.306   4.361   7.548  0.2133  0.2961  1.9217
 1545TIP3    H226271   4.260   4.466   7.647 -1.1562  1.4401  0.1359
 1546TIP3   OH226272   1.557   0.239   0.861 -0.2797 -0.4034  0.2866
 1546TIP3    H126273   1.558   0.334   0.870 -1.3050 -0.1358 -1.8101
 1546TIP3    H226274   1.522   0.207   0.944 -1.4080  1.1514  0.4397
 1547TIP3   OH226275   1.897   4.037   1.038  0.5265  0.0927 -0.7102
 1547TIP3    H126276   1.846   4.065   1.114 -0.5532 -2.1120 -0.5239
 1547TIP3    H226277   1.983   4.015   1.073  0.0658 -0.8137 -0.0979
 1548TIP3   OH226278   5.314   1.440   1.096 -0.2095 -0.1678 -0.1092
 1548TIP3    H126279   5.309   1.403   1.007 -0.6799  0.3645 -0.3084
 1548TIP3    H226280   5.278   1.528   1.087 -0.0727 -0.0395  0.5771
 1549TIP3   OH226281   6.659   0.405   0.561  0.4023  0.3920  0.2204
 1549TIP3    H126282   6.697   0.380   0.645 -1.2476 -0.4601  0.7644
 1549TIP3    H226283   6.646   0.322   0.514  0.8957  0.8214 -0.6964
 1550TIP3   OH226284   2.054   1.311   7.179  0.1048  0.2530  0.2460
 1550TIP3    H126285   2.117   1.258   7.131 -2.7937 -3.8625  0.4261
 1550TIP3    H226286   2.008   1.361   7.112 -0.3462 -1.3709 -0.7125
 1551TIP3   OH226287   4.141   3.543   1.374 -0.1343  0.2556  0.5935
 1551TIP3    H126288   4.095   3.592   1.305 -0.4576  0.6769  1.0977
 1551TIP3    H226289   4.232   3.537   1.342 -0.1434  0.9793  0.4105
 1552TIP3   OH226290   4.029   3.242   0.661 -0.0989 -0.3765 -0.3158
 1552TIP3    H126291   4.053   3.334   0.670 -0.0944 -0.3423 -0.6801
 1552TIP3    H226292   3.934   3.241   0.671 -0.1249 -0.3009 -0.5462
 1553TIP3   OH226293   5.082   2.636   2.296  0.0882  0.6770  0.7932
 1553TIP3    H126294   5.022   2.582   2.346  0.5696  0.9548  1.6855
 1553TIP3    H226295   5.153   2.577   2.271  1.1841  1.0879  2.7219
 1554TIP3   OH226296   6.765   1.563   8.226  0.0939  0.0015 -0.2083
 1554TIP3    H126297   6.842   1.598   8.182  1.1310 -1.3418  0.4395
 1554TIP3    H226298   6.731   1.496   8.166  0.6982 -0.8691  0.3914
 1555TIP3   OH226299   6.821   5.712   8.190 -0.2111 -0.1836  0.0891
 1555TIP3    H126300   6.881   5.778   8.223 -0.3476 -0.2033  0.3829
 1555TIP3    H226301   6.796   5.662   8.268  0.0971 -0.7484 -0.1766
 1556TIP3   OH226302   0.390   3.943   8.635 -0.0058 -0.1451  0.1624
 1556TIP3    H126303   0.369   3.851   8.620 -1.7568  0.2304  0.1779
 1556TIP3    H226304   0.421   3.946   8.725 -0.1870 -0.6842  0.2472
 1557TIP3   OH226305   3.195   6.752   2.158 -0.0965 -0.2528 -0.0990
 1557TIP3    H126306   3.200   6.847   2.147 -0.4308 -0.2495 -0.2499
 1557TIP3    H226307   3.275   6.728   2.204  0.2737  0.0252 -0.5942
 1558TIP3   OH226308   6.129   0.868   6.709 -0.5685  0.0838 -0.4237
 1558TIP3    H126309   6.040   0.835   6.696 -0.9127 -0.5178  2.6583
 1558TIP3    H226310   6.118   0.960   6.730 -0.5717 -0.1698  0.7398
 1559TIP3   OH226311   3.408   3.305   0.943 -0.0247 -0.4085  0.0752
 1559TIP3    H126312   3.489   3.350   0.920 -0.8214  0.8006 -0.4906
 1559TIP3    H226313   3.405   3.229   0.885 -1.3610  1.8792 -3.1845
 1560TIP3   OH226314   1.969   2.917   8.456 -0.5616  0.4257 -0.2471
 1560TIP3    H126315   1.999   2.830   8.429  0.3282  0.1941  1.3618
 1560TIP3    H226316   1.924   2.951   8.379  1.1962 -0.4682 -1.7584
 1561TIP3   OH226317   1.516   5.428   1.579  0.2541  0.1594  0.0618
 1561TIP3    H126318   1.588   5.405   1.639 -1.2943 -1.7781  1.2744
 1561TIP3    H226319   1.526   5.522   1.567  1.6883  0.3383  1.9922
 1562TIP3   OH226320   2.207   2.844   1.292  0.5678 -0.3829  0.4386
 1562TIP3    H126321   2.146   2.815   1.360  2.2502 -1.4394  1.5924
 1562TIP3    H226322   2.274   2.776   1.290  0.6159 -0.3919 -2.3181
 1563TIP3   OH226323   6.426   4.771   7.672 -0.3627  0.3413 -0.3113
 1563TIP3    H126324   6.400   4.728   7.591  0.7142  0.8674 -0.9588
 1563TIP3    H226325   6.380   4.723   7.741  0.3362 -1.4416 -1.0553
 1564TIP3   OH226326   6.754   4.885   2.408 -0.0889 -0.7224  0.1209
 1564TIP3    H126327   6.815   4.848   2.472 -0.6105 -0.9853  0.4747
 1564TIP3    H226328   6.731   4.971   2.443  1.0599 -0.0705 -0.6603
 1565TIP3   OH226329   4.805   1.274   6.681  0.2683  0.3739 -0.0580
 1565TIP3    H126330   4.781   1.363   6.706  0.1763  0.2124  0.4457
 1565TIP3    H226331   4.883   1.284   6.626 -0.9320  0.9051 -1.7309
 1566TIP3   OH226332   4.086   4.469   0.657 -0.1098  0.2146  0.3294
 1566TIP3    H126333   4.081   4.563   0.641  2.0580  0.5871  1.4926
 1566TIP3    H226334   4.174   4.444   0.629 -1.7883 -2.2957 -3.5126
 1567TIP3   OH226335   0.058   5.613   7.058  0.4220 -0.1728  0.4857
 1567TIP3    H126336   0.142   5.567   7.046  2.0249  2.0903  2.1583
 1567TIP3    H226337   0.035   5.598   7.149 -1.1582 -0.9459 -0.0174
 1568TIP3   OH226338   1.661   4.273   7.404 -0.2224  0.2049  0.3838
 1568TIP3    H126339   1.711   4.192   7.406  1.7763  1.3816  1.2235
 1568TIP3    H226340   1.578   4.252   7.446 -0.2247 -1.6613 -0.4731
 1569TIP3   OH226341   3.521   1.864   0.662 -0.2600  0.2686  0.2333
 1569TIP3    H126342   3.514   1.960   0.669  1.5072  0.4592 -0.0089
 1569TIP3    H226343   3.539   1.849   0.569 -0.3017 -0.2803  0.3156
 1570TIP3   OH226344   1.349   2.071   1.648 -0.4973 -0.2963 -0.2843
 1570TIP3    H126345   1.435   2.053   1.685 -0.4593  0.6277  0.1046
 1570TIP3    H226346   1.307   2.129   1.712  0.0552  2.4543 -2.2369
 1571TIP3   OH226347   4.535   1.408   0.102  0.5063  0.3270  0.3300
 1571TIP3    H126348   4.500   1.494   0.128  1.0904  0.8028 -0.3969
 1571TIP3    H226349   4.477   1.380   0.031 -0.4216 -0.4595  1.3695
 1572TIP3   OH226350   2.793   4.385   6.013 -0.2645 -0.2488 -0.1489
 1572TIP3    H126351   2.721   4.323   6.020 -0.0421 -0.4772  0.1593
 1572TIP3    H226352   2.841   4.376   6.096  0.9281 -1.1141 -0.8885
 1573TIP3   OH226353   5.109   6.580   0.289 -0.2490  0.2172 -0.1016
 1573TIP3    H126354   5.133   6.580   0.381  1.5740  2.1281 -0.5047
 1573TIP3    H226355   5.014   6.594   0.289 -0.4540 -0.8650  1.4494
 1574TIP3   OH226356   1.367   2.321   7.272  0.2642 -0.1513  0.7639
 1574TIP3    H126357   1.452   2.279   7.287 -0.0188 -0.8776  0.4239
 1574TIP3    H226358   1.388   2.412   7.250  0.7812  0.5666  3.7967
 1575TIP3   OH226359   6.092   2.686   1.535 -0.0758  0.5203  0.5718
 1575TIP3    H126360   6.105   2.609   1.479  1.7216  1.5808 -0.5751
 1575TIP3    H226361   6.077   2.650   1.622  1.5130 -1.1552  0.2307
 1576TIP3   OH226362   3.218   2.223   7.645 -0.1891 -0.7013 -0.4412
 1576TIP3    H126363   3.203   2.316   7.628  0.2569 -0.9121 -2.2296
 1576TIP3    H226364   3.298   2.221   7.699  0.0138 -0.0587 -0.7082
 1577TIP3   OH226365   4.932   3.296   0.477  0.0241  0.1309  0.0401
 1577TIP3    H126366   4.871   3.362   0.442  0.2423 -0.4018 -1.3966
 1577TIP3    H226367   4.896   3.213   0.447  0.2326 -0.3515  1.1140
 1578TIP3   OH226368   3.378   5.436   0.238 -0.8300 -0.2144  0.0542
 1578TIP3    H126369   3.343   5.425   0.326 -0.6188 -1.7043 -0.0130
 1578TIP3    H226370   3.303   5.462   0.185 -1.1479 -0.2165  0.5025
 1579TIP3   OH226371   3.100   4.504   0.211  0.4933 -0.1063 -0.1588
 1579TIP3    H126372   3.113   4.479   0.303 -0.8505  2.3490  0.7912
 1579TIP3    H226373   3.006   4.491   0.196  0.5904  0.1112 -0.9928
 1580TIP3   OH226374   5.084   0.074   8.634  0.6641 -0.2147  0.5354
 1580TIP3    H126375   5.001   0.026   8.636  0.3882  0.2436  0.3163
 1580TIP3    H226376   5.062   0.161   8.669  0.9762  0.0179  0.1584
 1581TIP3   OH226377   6.560   0.364   1.058 -0.2643  0.2559 -0.4077
 1581TIP3    H126378   6.528   0.314   0.983  0.4049  2.4607 -2.2781
 1581TIP3    H226379   6.550   0.304   1.132 -0.1893 -2.3467 -2.3384
 1582TIP3   OH226380   4.249   4.046   1.873  0.0331 -0.5673  0.2629
 1582TIP3    H126381   4.157   4.033   1.851  0.3748 -0.8522 -1.0399
 1582TIP3    H226382   4.265   3.984   1.945 -1.1649  0.5968  1.6053
 1583TIP3   OH226383   3.799   5.243   7.095 -0.2103 -0.0809 -0.5905
 1583TIP3    H126384   3.887   5.268   7.066  0.1585 -1.3079 -0.6005
 1583TIP3    H226385   3.750   5.325   7.097  1.2206  0.7959  0.4681
 1584TIP3   OH226386   5.718   3.677   7.199  0.7037 -0.4020 -0.5330
 1584TIP3    H126387   5.753   3.717   7.119  0.2039  2.2003  0.4413
 1584TIP3    H226388   5.794   3.669   7.256  0.8430 -1.0810 -0.8073
 1585TIP3   OH226389   0.745   3.850   7.621 -0.0568 -0.2912  0.3816
 1585TIP3    H126390   0.726   3.763   7.585  1.2858 -0.1172 -0.8214
 1585TIP3    H226391   0.659   3.889   7.637 -0.6819 -1.2014 -0.6579
 1586TIP3   OH226392   1.551   4.488   0.575 -0.5183  0.6736 -0.0794
 1586TIP3    H126393   1.569   4.582   0.569 -0.7171  0.7307  0.2138
 1586TIP3    H226394   1.459   4.479   0.554 -0.3157  0.4533 -0.8917
 1587TIP3   OH226395   1.580   3.399   7.420  0.1110  0.0161  0.0238
 1587TIP3    H126396   1.548   3.349   7.495 -0.2520 -1.0131 -0.8062
 1587TIP3    H226397   1.503   3.447   7.389 -0.2230 -1.0715 -0.8733
 1588TIP3   OH226398   1.801   2.122   7.217 -0.5559 -0.1377  0.3854
 1588TIP3    H126399   1.891   2.091   7.231 -0.7007 -0.1418  1.3776
 1588TIP3    H226400   1.750   2.042   7.203 -0.8106 -0.3482  2.2637
 1589TIP3   OH226401   0.354   3.670   6.186  0.5728  0.4308 -0.0310
 1589TIP3    H126402   0.437   3.713   6.201  1.0441 -0.2733 -0.5293
 1589TIP3    H226403   0.367   3.580   6.216 -0.0046  0.3137 -0.1054
 1590TIP3   OH226404   1.292   4.290   6.807 -0.1588  0.1602  0.2378
 1590TIP3    H126405   1.279   4.284   6.902 -0.6862 -1.5122  0.0866
 1590TIP3    H226406   1.235   4.361   6.779  1.2309  1.8242  1.3551
 1591TIP3   OH226407   5.839   6.502   7.343 -0.0435 -0.0982 -0.2726
 1591TIP3    H126408   5.796   6.434   7.290  0.5177 -0.2298 -0.5766
 1591TIP3    H226409   5.931   6.474   7.347 -0.1964 -0.4210  1.3167
 1592TIP3   OH226410   2.026   1.859   2.793 -0.1240  0.2372  0.4060
 1592TIP3    H126411   1.946   1.850   2.845 -0.8275  2.1594 -0.2230
 1592TIP3    H226412   2.060   1.770   2.785 -2.6794 -0.7925 -0.0347
 1593TIP3   OH226413   0.387   4.205   7.743  0.4534  0.1314 -0.2787
 1593TIP3    H126414   0.399   4.298   7.722 -1.4597  0.4660 -0.1203
 1593TIP3    H226415   0.336   4.206   7.825  2.2315 -1.0973  0.9195
 1594TIP3   OH226416   6.186   1.896   6.978  0.2318  0.2370  0.8492
 1594TIP3    H126417   6.274   1.858   6.971  0.3164  0.5400  0.0972
 1594TIP3    H226418   6.167   1.926   6.889  0.0408  1.6671  1.3588
 1595TIP3   OH226419   3.515   5.986   8.451  0.8799  0.2577 -0.1814
 1595TIP3    H126420   3.471   6.024   8.527  2.1201 -1.0889  1.2892
 1595TIP3    H226421   3.531   6.060   8.393  0.1730  1.3866  1.0153
 1596TIP3   OH226422   3.217   1.781   8.498 -0.1917  0.1306 -0.0884
 1596TIP3    H126423   3.195   1.709   8.557  0.7652  0.7050  1.0120
 1596TIP3    H226424   3.214   1.859   8.554 -1.0691  0.9463 -1.2256
 1597TIP3   OH226425   5.433   1.031   7.033  0.2307 -0.5019 -0.4890
 1597TIP3    H126426   5.439   0.981   6.951 -0.8315  0.0395 -0.9047
 1597TIP3    H226427   5.410   0.965   7.099 -0.7769 -0.6465 -0.9654
 1598TIP3   OH226428   1.018   6.644   8.255  0.1545 -0.0553 -0.4450
 1598TIP3    H126429   0.991   6.735   8.246 -0.9128 -0.1024  1.6516
 1598TIP3    H226430   1.093   6.635   8.196  0.7722  2.3861 -0.1500
 1599TIP3   OH226431   1.494   5.103   1.462 -0.2960 -0.9477  0.6102
 1599TIP3    H126432   1.451   5.180   1.426  0.8861  0.3429  1.8463
 1599TIP3    H226433   1.445   5.082   1.541  0.1914 -0.6056  1.0133
 1600TIP3   OH226434   0.909   4.787   1.258  0.0045 -0.9106  0.3667
 1600TIP3    H126435   0.975   4.807   1.325  1.4202 -2.3153 -0.5384
 1600TIP3    H226436   0.829   4.772   1.307  0.0202  1.8508  1.4374
 1601TIP3   OH226437   3.546   3.941   7.497 -0.0435 -0.1084 -0.2511
 1601TIP3    H126438   3.477   3.881   7.468 -0.7976 -0.2384  1.6671
 1601TIP3    H226439   3.608   3.886   7.545  0.3988  0.3066 -0.3379
 1602TIP3   OH226440   4.902   1.626   7.514  0.0979  0.2859 -0.3640
 1602TIP3    H126441   4.892   1.686   7.588 -0.1406  0.1891 -0.3149
 1602TIP3    H226442   4.842   1.554   7.533  0.5139 -0.0576 -0.3359
 1603TIP3   OH226443   4.180   1.175   1.012 -0.2861 -0.6190 -0.0326
 1603TIP3    H126444   4.157   1.135   0.929 -0.3692  0.7090 -0.6809
 1603TIP3    H226445   4.108   1.152   1.071  0.0958 -2.1161 -0.1146
 1604TIP3   OH226446   3.230   2.367   2.030  0.2266 -0.0379 -0.3672
 1604TIP3    H126447   3.222   2.459   2.006 -1.5945 -1.0059 -4.3158
 1604TIP3    H226448   3.197   2.363   2.120  0.7480  3.1563  0.0759
 1605TIP3   OH226449   6.242   1.960   8.508  0.6359 -0.2170  0.0681
 1605TIP3    H126450   6.251   1.936   8.601 -2.4148 -1.3939  0.1769
 1605TIP3    H226451   6.166   1.910   8.478  0.7600  1.1264 -2.7575
 1606TIP3   OH226452   6.364   2.744   7.529  0.4461 -0.0210  0.1482
 1606TIP3    H126453   6.295   2.781   7.474  0.1378 -1.2990 -0.3730
 1606TIP3    H226454   6.438   2.803   7.518  0.3912 -0.2273 -1.6734
 1607TIP3   OH226455   4.856   2.154   8.749  0.4467  0.2622 -0.4448
 1607TIP3    H126456   4.888   2.190   8.666  3.1641 -1.1051 -0.0897
 1607TIP3    H226457   4.839   2.230   8.803  0.3545  1.1348 -1.6582
 1608TIP3   OH226458   2.722   3.001   0.497  0.4239  0.4127  0.1793
 1608TIP3    H126459   2.731   2.953   0.415 -1.6917 -0.3072  0.2960
 1608TIP3    H226460   2.708   2.933   0.563 -2.1964  1.0458  0.4091
 1609TIP3   OH226461   1.686   0.417   7.557  0.0676 -0.3250 -0.0476
 1609TIP3    H126462   1.713   0.504   7.526  3.7091 -0.8444  1.1646
 1609TIP3    H226463   1.675   0.366   7.477 -1.1689  0.9518 -0.7435
 1610TIP3   OH226464   0.599   2.248   0.225  0.1180 -0.0481 -0.1881
 1610TIP3    H126465   0.547   2.200   0.160  1.0500 -1.3941  0.0032
 1610TIP3    H226466   0.633   2.324   0.178  1.1663 -1.2494 -1.4584
 1611TIP3   OH226467   5.142   0.431   0.345  0.1308  0.1204  0.0338
 1611TIP3    H126468   5.063   0.484   0.359  0.1709 -0.0981  1.2139
 1611TIP3    H226469   5.209   0.475   0.397  0.9252  0.5714 -1.3250
 1612TIP3   OH226470   6.804   4.521   7.336  0.4382 -0.2216  0.3806
 1612TIP3    H126471   6.765   4.493   7.418  1.8108 -1.2311  0.7400
 1612TIP3    H226472   6.734   4.514   7.271 -0.2498 -0.8902  1.1910
 1613TIP3   OH226473   3.518   1.110   1.099  0.2721 -0.2640  0.1131
 1613TIP3    H126474   3.475   1.025   1.100  0.1666 -0.2105  0.2683
 1613TIP3    H226475   3.573   1.110   1.177  0.4010 -0.2572  0.0206
 1614TIP3   OH226476   4.551   0.764   7.035 -0.4415 -0.4525 -0.1994
 1614TIP3    H126477   4.524   0.686   7.083  1.2639 -1.0594 -0.1707
 1614TIP3    H226478   4.566   0.733   6.946 -0.7953  0.0713 -0.4434
 1615TIP3   OH226479   4.472   1.004   2.508 -0.3827  0.9272 -0.1087
 1615TIP3    H126480   4.474   1.099   2.503 -1.5358  0.9430 -0.5038
 1615TIP3    H226481   4.379   0.982   2.510 -0.2838  0.0127  3.8945
 1616TIP3   OH226482   6.046   2.455   0.744 -0.7722 -0.0669 -0.1616
 1616TIP3    H126483   5.959   2.468   0.706 -1.6676  0.8754  2.0437
 1616TIP3    H226484   6.081   2.543   0.756  1.0733 -0.4570 -2.1413
 1617TIP3   OH226485   0.251   3.753   8.837  0.3266 -0.1162  0.0910
 1617TIP3    H126486   0.254   3.662   8.867  1.4161 -0.0335  0.2701
 1617TIP3    H226487   0.157   3.772   8.828  0.0655 -1.0354  0.7082
 1618TIP3   OH226488   5.721   6.182   6.192  0.3428  0.2880 -0.6097
 1618TIP3    H126489   5.650   6.181   6.256 -0.0942  0.4507 -1.0892
 1618TIP3    H226490   5.744   6.089   6.181  0.9757  0.3102  0.3800
 1619TIP3   OH226491   0.297   3.628   7.367 -0.2559 -0.2419  0.0338
 1619TIP3    H126492   0.264   3.556   7.419  0.5252 -0.3139  0.4480
 1619TIP3    H226493   0.323   3.588   7.284  1.1691 -0.6613  0.6421
 1620TIP3   OH226494   4.655   5.961   8.817 -0.7605 -0.4230 -0.2594
 1620TIP3    H126495   4.602   6.035   8.789 -2.0451 -0.7092  1.2754
 1620TIP3    H226496   4.628   5.945   8.908  0.7636 -1.6461  0.0207
 1621TIP3   OH226497   3.776   4.170   1.807  0.2397  0.2745 -0.4040
 1621TIP3    H126498   3.771   4.232   1.735  1.9201 -0.0921 -0.8977
 1621TIP3    H226499   3.730   4.212   1.879 -1.4145  0.6786 -1.6447
 1622TIP3   OH226500   4.910   2.544   7.824  0.0131 -0.1360 -0.1735
 1622TIP3    H126501   4.832   2.575   7.777 -0.6223  1.1986  1.6675
 1622TIP3    H226502   4.880   2.467   7.872  0.5661 -1.2627 -1.5495
 1623TIP3   OH226503   4.914   4.674   6.640 -0.2335 -0.3847  0.0714
 1623TIP3    H126504   4.901   4.765   6.667  1.4143 -0.7660  2.4719
 1623TIP3    H226505   4.994   4.675   6.588 -1.2077 -0.2677 -1.5133
 1624TIP3   OH226506   5.480   0.731   0.074 -0.3818 -0.5291 -0.1294
 1624TIP3    H126507   5.389   0.702   0.075  0.0019 -1.8089 -0.0816
 1624TIP3    H226508   5.509   0.718  -0.016 -0.6619  1.3650 -0.5435
 1625TIP3   OH226509   2.674   0.408   8.196 -0.1347 -1.1413 -0.2403
 1625TIP3    H126510   2.705   0.432   8.109 -2.1584  0.4134 -0.6156
 1625TIP3    H226511   2.743   0.437   8.256 -0.0371  0.6045 -1.1388
 1626TIP3   OH226512   5.217   5.649   7.069 -0.7149  0.4636 -0.2066
 1626TIP3    H126513   5.240   5.641   6.977 -1.6810  0.8134 -0.4861
 1626TIP3    H226514   5.278   5.591   7.114 -0.0731  0.4766 -1.0354
 1627TIP3   OH226515   0.393   0.272   7.839  0.2637  0.2191  0.2701
 1627TIP3    H126516   0.396   0.306   7.928  0.2480 -0.2758  0.4583
 1627TIP3    H226517   0.380   0.350   7.785  0.4179  0.5402  0.6845
 1628TIP3   OH226518   6.106   3.059   8.169  0.9040 -0.4268  0.2354
 1628TIP3    H126519   6.047   3.016   8.108  0.0943 -0.3181  0.9226
 1628TIP3    H226520   6.147   2.988   8.218  1.6454 -0.5202 -0.4937
 1629TIP3   OH226521   6.438   4.057   7.771  0.1577 -0.0112  0.5933
 1629TIP3    H126522   6.486   4.015   7.700  1.2671  0.7546  0.8548
 1629TIP3    H226523   6.440   4.151   7.750  1.4993  0.3669  2.1511
 1630TIP3   OH226524   4.104   5.049   6.871  0.5849 -0.5220  0.2883
 1630TIP3    H126525   4.178   5.108   6.887 -1.2791  2.0747  0.0385
 1630TIP3    H226526   4.099   5.042   6.776  0.4085 -0.5220  0.2966
 1631TIP3   OH226527   3.199   0.261   8.220  0.3259 -0.1532 -0.2169
 1631TIP3    H126528   3.184   0.278   8.313 -0.0357 -0.7590 -0.1547
 1631TIP3    H226529   3.179   0.344   8.177  0.9375  0.2643  0.2803
 1632TIP3   OH226530   4.011   6.110   0.920  0.2547 -0.4034  0.1856
 1632TIP3    H126531   4.008   6.149   1.007 -0.4556 -0.1701  0.0623
 1632TIP3    H226532   3.930   6.060   0.913  0.9886 -1.6650  0.2171
 1633TIP3   OH226533   0.780   3.280   7.967 -0.0797 -0.4044  0.0835
 1633TIP3    H126534   0.779   3.199   8.019 -0.2760  0.1243  0.9269
 1633TIP3    H226535   0.872   3.303   7.961 -0.1524  0.4312  1.6695
 1634TIP3   OH226536   6.441   5.007   7.891  0.4269 -0.3853 -0.1621
 1634TIP3    H126537   6.535   5.024   7.892  0.5619 -0.8602  2.3905
 1634TIP3    H226538   6.405   5.074   7.833  2.1214  1.2289  0.5428
 1635TIP3   OH226539   1.599   3.334   0.369  0.5777 -0.5163  0.3221
 1635TIP3    H126540   1.548   3.396   0.317  1.1594 -0.9480 -0.8050
 1635TIP3    H226541   1.541   3.259   0.381 -0.9094  0.9594  3.4627
 1636TIP3   OH226542   4.579   6.179   0.768  0.5076  1.2177  0.1317
 1636TIP3    H126543   4.511   6.234   0.730  0.3586  1.2803  0.4867
 1636TIP3    H226544   4.577   6.199   0.861  0.6236  0.8009  0.2269
 1637TIP3   OH226545   2.091   1.929   0.819 -0.7183  0.0244  0.6997
 1637TIP3    H126546   2.002   1.929   0.782 -0.2855 -1.0104 -0.3868
 1637TIP3    H226547   2.125   1.842   0.800  0.5645  0.4355  1.0380
 1638TIP3   OH226548   0.493   3.496   7.953 -0.3661 -0.1615  0.4882
 1638TIP3    H126549   0.444   3.457   7.881  0.5462 -1.2254  0.4227
 1638TIP3    H226550   0.582   3.505   7.920  0.3605 -1.8199  1.8747
 1639TIP3   OH226551   5.264   2.118   8.354  0.2326  0.0510 -0.3138
 1639TIP3    H126552   5.232   2.048   8.298 -1.8658  0.9827 -0.3647
 1639TIP3    H226553   5.345   2.147   8.312  1.7715 -2.9886  0.3099
 1640TIP3   OH226554   1.145   2.211   2.068  0.0788 -0.1846  1.2068
 1640TIP3    H126555   1.232   2.173   2.076  0.4969  0.5601  0.3040
 1640TIP3    H226556   1.133   2.262   2.148  0.2586 -0.7070  1.5702
 1641TIP3   OH226557   5.924   5.443   0.457 -1.0407  0.1472 -0.7104
 1641TIP3    H126558   5.916   5.399   0.373  0.4214  0.2526 -0.9368
 1641TIP3    H226559   6.014   5.424   0.485 -0.8182  1.8456 -0.1720
 1642TIP3   OH226560   2.743   5.757   1.659  0.2837 -0.3621 -0.3030
 1642TIP3    H126561   2.751   5.828   1.596 -0.7858 -0.4769 -0.5805
 1642TIP3    H226562   2.824   5.707   1.649  0.0458 -0.4998 -1.7405
 1643TIP3   OH226563   2.411   5.939   8.201 -0.7494  0.3008  0.5013
 1643TIP3    H126564   2.467   5.947   8.279  1.8542 -0.9562 -1.1021
 1643TIP3    H226565   2.422   6.022   8.155  0.9731 -0.4085 -0.4614
 1644TIP3   OH226566   4.450   5.144   0.421 -0.2963  0.3174 -0.2044
 1644TIP3    H126567   4.452   5.149   0.326 -1.7211  0.9089 -0.2332
 1644TIP3    H226568   4.437   5.234   0.450 -2.1655 -0.0803  0.4121
 1645TIP3   OH226569   5.254   4.312   8.706 -0.2280 -0.1090  0.0372
 1645TIP3    H126570   5.231   4.239   8.765  0.5692  1.0556  1.9063
 1645TIP3    H226571   5.338   4.343   8.740  0.1716  0.7380 -1.6578
 1646TIP3   OH226572   1.387   6.744   1.609  0.2511  0.6739  0.4381
 1646TIP3    H126573   1.370   6.702   1.693  0.6154  2.0634  1.2457
 1646TIP3    H226574   1.300   6.767   1.576  0.0795 -0.2678  0.2078
 1647TIP3   OH226575   1.775   1.883   7.873  0.4854  0.4092  0.2322
 1647TIP3    H126576   1.711   1.833   7.823  1.9610  0.9172 -2.3755
 1647TIP3    H226577   1.807   1.822   7.939  0.7668 -1.4892 -1.5479
 1648TIP3   OH226578   4.133   1.608   0.890  0.2880 -0.1501 -0.6312
 1648TIP3    H126579   4.213   1.648   0.858  1.1445 -0.7619  0.6768
 1648TIP3    H226580   4.161   1.552   0.962 -1.2871 -0.5642 -0.3027
 1649TIP3   OH226581   0.043   2.957   1.369 -0.0300 -0.2607 -0.0599
 1649TIP3    H126582  -0.003   2.900   1.431  1.6311 -2.6807 -0.9023
 1649TIP3    H226583  -0.021   2.973   1.300  0.0932 -3.2190 -0.9995
 1650TIP3   OH226584   5.880   0.334   6.593 -0.0418  0.0173  0.0563
 1650TIP3    H126585   5.851   0.262   6.649 -0.9731 -1.2174 -1.9044
 1650TIP3    H226586   5.944   0.294   6.534  1.0996  1.3426  0.3123
 1651TIP3   OH226587   1.018   4.289   8.438 -0.1047 -0.1749  0.0257
 1651TIP3    H126588   0.926   4.313   8.429 -0.1958 -0.5355 -0.0223
 1651TIP3    H226589   1.061   4.327   8.362 -0.1329  0.3812  0.2815
 1652TIP3   OH226590   5.714   4.083   2.466  0.2180  0.3771  0.7211
 1652TIP3    H126591   5.802   4.093   2.500  0.8164  2.8885 -1.1693
 1652TIP3    H226592   5.665   4.155   2.506  0.0414  1.1992 -0.8594
 1653TIP3   OH226593   2.635   0.485   7.626  0.4138 -0.1308 -0.2782
 1653TIP3    H126594   2.629   0.435   7.545  0.1405  0.4638 -0.6252
 1653TIP3    H226595   2.721   0.526   7.623  0.2288  0.2426 -0.4710
 1654TIP3   OH226596   0.263   0.907   0.507 -0.4888  0.0311  0.0427
 1654TIP3    H126597   0.183   0.860   0.483 -0.7365  0.1187  0.6930
 1654TIP3    H226598   0.265   0.983   0.448 -1.0367  0.1830  0.2173
 1655TIP3   OH226599   0.571   5.931   8.268  0.2913  0.7154 -0.2936
 1655TIP3    H126600   0.639   5.962   8.328  0.3859  3.1120 -1.5208
 1655TIP3    H226601   0.620   5.886   8.199  0.4180  0.3942  0.0015
 1656TIP3   OH226602   6.405   5.033   7.607  0.3976 -0.2227  0.8720
 1656TIP3    H126603   6.409   4.941   7.632  0.0578 -0.9590 -1.5200
 1656TIP3    H226604   6.488   5.049   7.563 -0.5079 -0.1301 -0.8909
 1657TIP3   OH226605   5.097   2.143   0.186  0.2255 -0.2575 -0.2956
 1657TIP3    H126606   5.069   2.234   0.195 -0.9755 -0.7017  0.6490
 1657TIP3    H226607   5.186   2.149   0.150  0.6925  1.3325  0.9954
 1658TIP3   OH226608   5.053   3.623   1.779 -0.3325  0.0507 -0.7997
 1658TIP3    H126609   5.100   3.552   1.736  0.2002  0.0385 -0.2109
 1658TIP3    H226610   5.009   3.581   1.853  0.7245  0.4702  0.0937
 1659TIP3   OH226611   0.397   6.070   8.086  0.1539  0.0650 -0.2876
 1659TIP3    H126612   0.466   6.046   8.147  0.8159  0.2212 -0.9594
 1659TIP3    H226613   0.416   6.161   8.063  1.1078 -0.5747 -2.2463
 1660TIP3   OH226614   4.167   5.830   8.220 -0.4087  1.0109 -0.6430
 1660TIP3    H126615   4.155   5.915   8.177 -2.2201  0.0048 -2.2382
 1660TIP3    H226616   4.083   5.811   8.261 -0.6636 -0.8421 -1.9102
 1661TIP3   OH226617   4.010   5.760   6.510  0.0163  0.4562  0.1362
 1661TIP3    H126618   4.062   5.816   6.452 -0.8822  0.1492 -0.9888
 1661TIP3    H226619   4.001   5.677   6.462 -2.3875  0.8458 -0.1786
 1662TIP3   OH226620   1.212   1.135   0.212 -0.4653  0.5663  0.3656
 1662TIP3    H126621   1.241   1.131   0.121 -0.2712 -1.9006  0.4506
 1662TIP3    H226622   1.256   1.212   0.248  0.3469  0.9528 -1.3218
 1663TIP3   OH226623   4.915   3.100   7.366 -0.0896 -0.2051 -0.0848
 1663TIP3    H126624   4.867   3.146   7.297  0.7176 -0.3870 -0.7855
 1663TIP3    H226625   4.854   3.097   7.440 -0.3947  1.4453 -0.2212
 1664TIP3   OH226626   5.745   0.223   7.660  0.0655  0.1306  0.1573
 1664TIP3    H126627   5.677   0.237   7.594 -0.2760  0.2057  0.5183
 1664TIP3    H226628   5.779   0.310   7.679 -0.8073  0.2984  1.0862
 1665TIP3   OH226629   1.632   5.673   7.924  0.1845 -0.3516  0.3215
 1665TIP3    H126630   1.691   5.731   7.972  0.3645  0.0927 -0.4244
 1665TIP3    H226631   1.670   5.668   7.836 -0.7399 -0.2816 -0.0870
 1666TIP3   OH226632   3.521   0.109   8.354  0.0994  0.1854 -0.3239
 1666TIP3    H126633   3.615   0.097   8.369  0.2099  2.1022  0.9142
 1666TIP3    H226634   3.513   0.123   8.260  0.9700 -0.5772 -0.5232
 1667TIP3   OH226635   1.338   1.425   0.047 -0.4804 -0.0287  0.5065
 1667TIP3    H126636   1.308   1.339   0.018  3.5848 -1.3751 -0.3442
 1667TIP3    H226637   1.339   1.478  -0.033 -1.1732  0.2121  0.6565
 1668TIP3   OH226638   6.105   4.874   6.163 -0.0050 -0.2732 -0.1693
 1668TIP3    H126639   6.151   4.797   6.196  0.2439 -0.4262 -0.8533
 1668TIP3    H226640   6.038   4.839   6.104 -1.1236 -0.0592  0.9322
 1669TIP3   OH226641   4.656   3.751   7.916 -0.0725  0.6116  0.7779
 1669TIP3    H126642   4.714   3.820   7.886  1.7776 -0.5810  1.4397
 1669TIP3    H226643   4.684   3.673   7.867 -1.3792  0.0814  0.8358
 1670TIP3   OH226644   1.288   6.711   1.035 -0.2472  0.1703 -0.0611
 1670TIP3    H126645   1.274   6.694   1.128 -0.3976  0.3663 -0.0475
 1670TIP3    H226646   1.375   6.676   1.017  0.6821  1.9970  0.6375
 1671TIP3   OH226647   2.551   3.599   0.823  0.3581 -0.4777 -0.0491
 1671TIP3    H126648   2.636   3.639   0.842 -0.0692  1.0494 -1.1455
 1671TIP3    H226649   2.490   3.672   0.820 -1.0165 -1.5469  0.6892
 1672TIP3   OH226650   3.945   3.141   6.568  0.5089 -0.4497 -0.1692
 1672TIP3    H126651   3.858   3.136   6.529 -0.1805  2.5276  0.7750
 1672TIP3    H226652   3.988   3.213   6.522  1.7857 -0.6365  0.6727
 1673TIP3   OH226653   1.567   6.111   0.444 -0.0791  0.4764 -0.0788
 1673TIP3    H126654   1.603   6.051   0.378 -2.7080 -1.1380 -0.2083
 1673TIP3    H226655   1.644   6.152   0.484  1.9189 -2.7541 -0.2079
 1674TIP3   OH226656   4.977   1.134   1.410  0.3156 -0.5129 -0.4999
 1674TIP3    H126657   4.907   1.187   1.373  1.9790  1.0953 -1.5109
 1674TIP3    H226658   5.055   1.158   1.360  1.8467 -1.3603  1.3301
 1675TIP3   OH226659   5.503   1.841   1.773  0.3139  0.2415 -0.1981
 1675TIP3    H126660   5.577   1.780   1.773  0.0489 -0.0887  0.4254
 1675TIP3    H226661   5.520   1.901   1.845 -0.0908  0.0824  0.0347
 1676TIP3   OH226662   1.789   4.242   0.884  0.2998  0.6866 -0.0109
 1676TIP3    H126663   1.842   4.207   0.812  2.1823  0.1709  1.5428
 1676TIP3    H226664   1.794   4.175   0.952 -0.9158  1.4316  0.8463
 1677TIP3   OH226665   4.413   3.239   1.874  0.3063 -0.7158  0.2265
 1677TIP3    H126666   4.404   3.324   1.918 -3.5966 -0.6994 -0.2750
 1677TIP3    H226667   4.445   3.180   1.943  2.0498  0.8790  0.8614
 1678TIP3   OH226668   6.027   5.100   7.896 -0.8149 -0.5013 -0.2740
 1678TIP3    H126669   6.028   5.139   7.984  3.1016  1.9259 -1.1830
 1678TIP3    H226670   6.093   5.031   7.900 -0.7464 -0.5045 -1.2398
 1679TIP3   OH226671   1.992   3.416   6.993 -0.3410  0.5952 -0.1647
 1679TIP3    H126672   1.994   3.494   7.048 -1.0021  2.4621 -2.5696
 1679TIP3    H226673   2.081   3.410   6.956 -0.3005  0.2149 -0.0142
 1680TIP3   OH226674   5.268   2.871   6.633  0.1155 -0.3296  0.1413
 1680TIP3    H126675   5.245   2.879   6.726  0.5115 -0.0664  0.2166
 1680TIP3    H226676   5.216   2.797   6.602 -0.9448  0.3181  0.2814
 1681TIP3   OH226677   4.233   0.086   1.712  0.3389 -0.1030  0.1699
 1681TIP3    H126678   4.300   0.021   1.692 -1.3425 -1.3850 -1.7667
 1681TIP3    H226679   4.160   0.035   1.748  0.4537  1.2920  2.5455
 1682TIP3   OH226680   3.615   2.552   2.579 -0.7256  0.0335 -0.0469
 1682TIP3    H126681   3.620   2.644   2.607 -1.2455  0.0712 -0.0759
 1682TIP3    H226682   3.701   2.534   2.540  0.3602 -0.2523  2.2813
 1683TIP3   OH226683   5.620   2.013   0.547  0.1182  0.1905  0.1152
 1683TIP3    H126684   5.551   2.070   0.579 -0.5660  0.0769 -1.1301
 1683TIP3    H226685   5.602   1.928   0.588 -0.4775  0.1580 -0.2187
 1684TIP3   OH226686   2.039   0.585   0.659  0.0009 -0.9725  0.2227
 1684TIP3    H126687   1.948   0.613   0.672 -0.2239 -2.5476  2.6885
 1684TIP3    H226688   2.033   0.497   0.623  0.6011 -0.5685 -0.9105
 1685TIP3   OH226689   4.037   4.641   8.428  0.8914  0.1278  0.3961
 1685TIP3    H126690   3.960   4.590   8.450  2.3016 -2.1950  0.2431
 1685TIP3    H226691   4.011   4.694   8.352 -0.9048  0.4451  1.1888
 1686TIP3   OH226692   5.992   0.838   0.038 -0.0906  0.3489  0.3585
 1686TIP3    H126693   5.934   0.855   0.112 -1.1937  3.4166 -1.0133
 1686TIP3    H226694   5.939   0.785  -0.022  0.0291 -0.3389  0.8611
 1687TIP3   OH226695   1.865   6.817   7.775 -0.2304  0.3924  0.7620
 1687TIP3    H126696   1.924   6.772   7.835  0.5474 -0.3788 -0.5227
 1687TIP3    H226697   1.876   6.771   7.691 -2.3427  0.4879  0.3623
 1688TIP3   OH226698   4.841   3.938   8.717 -0.1002 -0.1069 -0.1351
 1688TIP3    H126699   4.845   3.925   8.811  0.0099 -0.1572 -0.1472
 1688TIP3    H226700   4.932   3.934   8.687 -0.2311 -1.3497 -0.4217
 1689TIP3   OH226701   1.237   0.939   0.644  0.1987 -0.1143  0.5631
 1689TIP3    H126702   1.230   0.889   0.562 -0.3238  0.3785  0.2999
 1689TIP3    H226703   1.164   0.907   0.697 -0.1581  0.3848  0.3804
 1690TIP3   OH226704   4.254   2.387   7.460  0.5301  0.3909 -0.3645
 1690TIP3    H126705   4.167   2.410   7.493  0.4053 -1.0038  0.3735
 1690TIP3    H226706   4.236   2.325   7.389  0.9155 -0.0853 -0.0517
 1691TIP3   OH226707   5.777   1.481   7.090  0.0395 -0.2304  0.2070
 1691TIP3    H126708   5.754   1.436   7.009 -1.1642 -1.6412  1.2833
 1691TIP3    H226709   5.843   1.426   7.131  2.0213  1.3995 -0.6008
 1692TIP3   OH226710   3.023   0.788   0.701 -0.1887 -0.0981  0.3553
 1692TIP3    H126711   3.040   0.880   0.721  2.9612 -0.3268 -0.6478
 1692TIP3    H226712   3.028   0.783   0.606 -1.6319 -1.1544  0.3022
 1693TIP3   OH226713   3.663   1.563   1.840  0.2289  0.2067 -0.5047
 1693TIP3    H126714   3.606   1.489   1.861 -0.4073  0.7723 -0.2064
 1693TIP3    H226715   3.752   1.531   1.857 -0.0175 -0.5734 -0.6457
 1694TIP3   OH226716   4.029   4.479   1.648  0.1216 -0.7560  0.3784
 1694TIP3    H126717   4.057   4.388   1.653 -0.6584 -1.1428 -1.3090
 1694TIP3    H226718   4.050   4.505   1.558 -0.6815  0.3567  0.4949
 1695TIP3   OH226719   1.430   4.623   8.425  0.6370 -0.2020  0.5359
 1695TIP3    H126720   1.338   4.649   8.418  0.4926 -0.5547  1.1286
 1695TIP3    H226721   1.443   4.605   8.518  1.3725  0.0837  0.4933
 1696TIP3   OH226722   1.174   4.821   6.608 -0.1463  0.1471 -0.1807
 1696TIP3    H126723   1.181   4.741   6.659  0.3323  0.7807  0.7781
 1696TIP3    H226724   1.080   4.841   6.608 -0.4793 -1.1463 -1.6543
 1697TIP3   OH226725   0.928   0.365   1.415  0.6377  0.0541 -0.1016
 1697TIP3    H126726   1.019   0.340   1.431  0.0631 -1.4104  1.0338
 1697TIP3    H226727   0.916   0.444   1.468  0.3895 -1.5208  2.2978
 1698TIP3   OH226728   1.156   0.899   0.386  0.2095 -0.2431 -0.1246
 1698TIP3    H126729   1.155   0.833   0.317 -0.4852  1.3184 -1.6949
 1698TIP3    H226730   1.198   0.975   0.345  0.6031  0.4541  1.4812
 1699TIP3   OH226731   6.031   6.153   7.798 -0.0617  0.1831 -0.2422
 1699TIP3    H126732   5.951   6.158   7.746 -0.1326 -0.9315 -0.2589
 1699TIP3    H226733   6.052   6.244   7.818 -1.3388  0.4995 -0.2346
 1700TIP3   OH226734   1.034   2.847   7.563 -0.2752 -0.1838 -0.1935
 1700TIP3    H126735   0.960   2.841   7.623 -1.9123  0.7234 -2.0113
 1700TIP3    H226736   1.003   2.904   7.493  2.1755  0.2330 -1.0236
 1701TIP3   OH226737   3.650   5.344   7.843  0.2609 -0.2833  0.9437
 1701TIP3    H126738   3.643   5.260   7.799  0.5683  0.7975 -1.2740
 1701TIP3    H226739   3.561   5.379   7.843 -0.2108 -1.2602  3.3984
 1702TIP3   OH226740   3.248   6.547   2.001  0.0608  0.9559 -0.2286
 1702TIP3    H126741   3.239   6.474   2.063 -0.4171 -0.2725 -1.6953
 1702TIP3    H226742   3.228   6.625   2.054  1.0837  0.1093  1.4984
 1703TIP3   OH226743   4.844   4.272   8.355  0.2049 -0.5591 -0.4566
 1703TIP3    H126744   4.853   4.308   8.443 -0.8004 -0.3007 -0.4448
 1703TIP3    H226745   4.894   4.190   8.356  1.6420  0.2907 -0.1714
 1704TIP3   OH226746   5.838   2.606   1.276  0.4958 -0.3486 -0.0025
 1704TIP3    H126747   5.908   2.605   1.342  0.0542 -1.8545  0.4794
 1704TIP3    H226748   5.813   2.515   1.267 -1.6005  0.1870  0.0255
 1705TIP3   OH226749   1.552   4.421   0.229  0.3919 -0.2961  0.0952
 1705TIP3    H126750   1.517   4.408   0.317 -0.1601 -0.7696 -0.1876
 1705TIP3    H226751   1.481   4.464   0.181 -0.0039 -1.6837 -0.6112
 1706TIP3   OH226752   1.753   0.694   7.546  0.3495  0.1387  0.7324
 1706TIP3    H126753   1.771   0.706   7.453 -0.2531 -0.0358  0.5883
 1706TIP3    H226754   1.669   0.738   7.561 -1.8500 -3.4294  0.2346
 1707TIP3   OH226755   1.439   1.820   8.618  0.1318 -0.2395  0.0007
 1707TIP3    H126756   1.395   1.871   8.686  1.1744  0.9066 -0.1365
 1707TIP3    H226757   1.520   1.869   8.601  0.7341 -1.4737 -0.7951
 1708TIP3   OH226758   1.333   2.202   6.999  0.0652  0.0545 -0.1779
 1708TIP3    H126759   1.325   2.286   7.045 -0.7487  0.1456 -0.4597
 1708TIP3    H226760   1.253   2.196   6.947 -0.2405 -1.2440  0.4098
 1709TIP3   OH226761   0.981   2.819   8.101  0.3268 -0.1255 -0.3080
 1709TIP3    H126762   1.067   2.782   8.082 -0.1443 -1.3474 -0.1013
 1709TIP3    H226763   0.972   2.814   8.196  0.0782  0.1386 -0.3140
 1710TIP3   OH226764   4.902   4.025   2.086 -0.0495  0.0799  0.3014
 1710TIP3    H126765   4.824   3.986   2.124 -1.1483  0.2727 -1.6505
 1710TIP3    H226766   4.959   3.951   2.064  0.1010 -0.0886  1.2358
 1711TIP3   OH226767   1.160   1.914   0.519  0.5755  0.3325 -0.4211
 1711TIP3    H126768   1.119   1.890   0.436  1.7924 -1.4386 -0.5712
 1711TIP3    H226769   1.087   1.925   0.580 -0.2469 -1.9180 -0.8819
 1712TIP3   OH226770   1.865   3.485   0.144  0.3606  0.2154  0.6244
 1712TIP3    H126771   1.790   3.512   0.196  0.8511  0.7528  1.0711
 1712TIP3    H226772   1.841   3.507   0.054 -0.1644  0.0327  0.7175
 1713TIP3   OH226773   2.223   1.567   7.554  0.6148 -0.0006 -0.4190
 1713TIP3    H126774   2.216   1.492   7.495  1.4501 -2.3455  2.2165
 1713TIP3    H226775   2.139   1.612   7.546  0.2754 -0.8921 -2.4595
 1714TIP3   OH226776   3.124   4.602   1.791  0.5211  0.8614 -0.3497
 1714TIP3    H126777   3.092   4.577   1.877  0.6067 -0.4246 -0.6725
 1714TIP3    H226778   3.104   4.696   1.784 -2.9121  0.2406 -0.4068
 1715TIP3   OH226779   3.227   1.120   7.427  0.2001  0.2408 -0.8035
 1715TIP3    H126780   3.262   1.031   7.416 -2.3225 -0.7428 -1.9632
 1715TIP3    H226781   3.229   1.157   7.339  0.4299  0.9994 -0.4827
 1716TIP3   OH226782   1.960   1.505   8.767 -0.4168  0.0586  0.0767
 1716TIP3    H126783   1.886   1.463   8.724  0.8488 -0.7043 -1.4656
 1716TIP3    H226784   1.954   1.479   8.858 -1.8453 -0.2657 -0.0969
 1717TIP3   OH226785   2.132   4.601   8.532 -0.3112  0.2851 -0.3672
 1717TIP3    H126786   2.109   4.509   8.541 -1.0584  0.6150  2.0795
 1717TIP3    H226787   2.119   4.621   8.440  0.5015 -2.1891 -1.0798
 1718TIP3   OH226788   6.090   6.000   1.570 -0.0130 -0.4352 -0.2840
 1718TIP3    H126789   6.124   5.913   1.591 -1.6185 -1.0466 -0.1427
 1718TIP3    H226790   6.124   6.057   1.640 -1.8003 -1.6250  1.6425
 1719TIP3   OH226791   5.613   6.250   0.388  0.2431 -0.0999  0.1972
 1719TIP3    H126792   5.701   6.220   0.365  0.3930  0.5023 -0.0450
 1719TIP3    H226793   5.575   6.279   0.305 -0.1928 -0.3701  0.2992
 1720TIP3   OH226794   2.720   0.223   1.446  0.0457 -0.3250  0.4282
 1720TIP3    H126795   2.660   0.149   1.443 -0.6917  0.2793 -0.2573
 1720TIP3    H226796   2.769   0.218   1.364  0.8794 -0.7473  0.9303
 1721TIP3   OH226797   2.721   6.305   0.633 -0.1421  0.4175  0.5223
 1721TIP3    H126798   2.628   6.324   0.623 -0.4924 -1.1294  0.5885
 1721TIP3    H226799   2.759   6.324   0.547 -0.5361  0.9259  0.4545
 1722TIP3   OH226800   4.910   3.719   7.530  0.3892 -0.4263  0.8561
 1722TIP3    H126801   4.850   3.747   7.599 -0.6617 -0.2614 -0.0914
 1722TIP3    H226802   4.985   3.777   7.537  0.1247 -0.1696  1.6133
 1723TIP3   OH226803   5.152   6.356   0.525 -0.2812  0.3485  0.1988
 1723TIP3    H126804   5.106   6.432   0.560 -0.2639  0.2013  0.5433
 1723TIP3    H226805   5.086   6.287   0.522 -0.2688  0.3446 -0.0080
 1724TIP3   OH226806   4.810   3.478   7.217  0.6214  0.0177  0.8578
 1724TIP3    H126807   4.885   3.476   7.275  1.3429  1.3987  0.0107
 1724TIP3    H226808   4.842   3.439   7.135  0.2969  0.2066  0.6367
 1725TIP3   OH226809   1.348   0.617   7.253 -0.1408 -0.2695 -0.0499
 1725TIP3    H126810   1.368   0.621   7.159  0.9903 -2.7200  0.0138
 1725TIP3    H226811   1.270   0.562   7.259  0.5616 -1.2374  0.4965
 1726TIP3   OH226812   4.855   3.064   8.092  0.3562 -0.1263  0.3135
 1726TIP3    H126813   4.783   3.103   8.142  0.5921  0.3968  0.2607
 1726TIP3    H226814   4.827   2.974   8.075  0.4064 -0.4080  1.6385
 1727TIP3   OH226815   6.277   1.888   8.769  0.3818 -0.1052  0.6901
 1727TIP3    H126816   6.267   1.980   8.794  0.2012 -0.1583  0.8150
 1727TIP3    H226817   6.352   1.857   8.820  1.6812  0.4814 -0.7684
 1728TIP3   OH226818   3.643   6.277   6.786  0.2764 -0.4606 -0.1055
 1728TIP3    H126819   3.689   6.334   6.725 -2.7620  0.0655 -2.1317
 1728TIP3    H226820   3.627   6.197   6.737 -1.2906 -0.4536  0.3380
 1729TIP3   OH226821   0.350   3.199   0.223 -0.3639 -0.1334 -0.7996
 1729TIP3    H126822   0.436   3.156   0.225  0.1061  0.8036 -0.3645
 1729TIP3    H226823   0.292   3.137   0.267  0.1407 -0.6608 -0.8551
 1730TIP3   OH226824   3.116   2.834   7.969  0.8235 -0.1927 -0.2510
 1730TIP3    H126825   3.138   2.874   8.053  1.6839 -1.8612  0.3848
 1730TIP3    H226826   3.139   2.741   7.980 -0.4594 -0.7579 -1.8323
 1731TIP3   OH226827   1.859   1.861   0.470 -0.1743  0.4544  0.5850
 1731TIP3    H126828   1.812   1.931   0.425 -0.2881 -0.5854 -1.0096
 1731TIP3    H226829   1.938   1.848   0.417 -0.7669 -1.4364  0.0771
 1732TIP3   OH226830   5.037   4.177   8.090 -0.3460  0.6508  0.3542
 1732TIP3    H126831   5.002   4.250   8.141 -0.0354  2.2971 -1.6357
 1732TIP3    H226832   4.965   4.151   8.033 -0.8288 -1.4488  1.7978
 1733TIP3   OH226833   5.077   6.229   8.643  0.4316 -0.0864 -0.1016
 1733TIP3    H126834   5.053   6.322   8.650  1.2517  0.1562 -0.4015
 1733TIP3    H226835   5.012   6.184   8.696 -0.6356  0.5486 -0.8327
 1734TIP3   OH226836   2.680   0.173   2.392 -1.1277 -0.4336 -0.1438
 1734TIP3    H126837   2.658   0.080   2.385 -0.5467 -0.5608 -0.3201
 1734TIP3    H226838   2.769   0.180   2.358 -1.7942  0.4601 -1.8261
 1735TIP3   OH226839   2.466   0.055   7.871  0.6932 -0.5303  0.0906
 1735TIP3    H126840   2.436   0.046   7.961  1.9556  0.2633  0.6205
 1735TIP3    H226841   2.533   0.124   7.874  1.4595 -1.1519 -1.2718
 1736TIP3   OH226842   0.212   0.223   0.581 -0.1152  0.6549 -0.0838
 1736TIP3    H126843   0.200   0.291   0.514 -3.4579 -1.0138 -1.4477
 1736TIP3    H226844   0.157   0.253   0.654  1.9574  1.4921  1.2159
 1737TIP3   OH226845   5.644   1.431   1.519 -0.1669  0.5951  0.2662
 1737TIP3    H126846   5.609   1.440   1.431 -1.6873  0.9195  0.8771
 1737TIP3    H226847   5.702   1.507   1.531  2.5721 -1.0217 -1.4960
 1738TIP3   OH226848   5.607   2.359   2.850 -0.3598  0.3501  0.0191
 1738TIP3    H126849   5.607   2.452   2.873 -1.2132  0.4896 -0.4738
 1738TIP3    H226850   5.639   2.357   2.760 -0.3833  0.1691  0.0146
 1739TIP3   OH226851   5.882   6.074   8.297  0.3884  0.6851  0.3315
 1739TIP3    H126852   5.837   6.016   8.359 -0.1487  0.1701 -0.5313
 1739TIP3    H226853   5.964   6.030   8.278 -0.2741 -0.1332 -0.7867
 1740TIP3   OH226854   2.207   0.947   8.543  0.0550 -0.5204  0.0487
 1740TIP3    H126855   2.221   0.852   8.548  0.0779 -0.4601  1.6401
 1740TIP3    H226856   2.125   0.956   8.496  0.8667 -1.2405 -1.5966
 1741TIP3   OH226857   0.847   0.890   1.317  0.1108  0.0864  0.7168
 1741TIP3    H126858   0.763   0.930   1.294 -0.5043 -1.7100 -0.3996
 1741TIP3    H226859   0.899   0.961   1.352 -0.9372  1.8316 -1.0823
 1742TIP3   OH226860   2.498   1.661   8.394  0.6747 -0.0430  0.9847
 1742TIP3    H126861   2.467   1.592   8.452 -0.3923  0.4652  1.0594
 1742TIP3    H226862   2.498   1.621   8.307 -0.9674  0.1212  0.8640
 1743TIP3   OH226863   2.613   1.298   0.659  0.1351  0.8149 -0.4260
 1743TIP3    H126864   2.610   1.215   0.706 -1.4505  0.2212 -1.4976
 1743TIP3    H226865   2.634   1.273   0.569  0.1425  1.6237 -0.6545
 1744TIP3   OH226866   4.142   4.379   7.992  0.0057 -0.7614  0.0469
 1744TIP3    H126867   4.093   4.377   8.074  2.3879  0.3457  1.6156
 1744TIP3    H226868   4.113   4.301   7.945 -1.2097 -1.6182  2.0713
 1745TIP3   OH226869   2.439   3.780   1.387  0.3399  0.8241 -0.0702
 1745TIP3    H126870   2.526   3.820   1.379  0.8789 -0.2205  0.4517
 1745TIP3    H226871   2.455   3.697   1.430 -0.6821 -0.3123 -1.7768
 1746TIP3   OH226872   5.912   2.395   8.397 -0.0435  0.0815  0.2413
 1746TIP3    H126873   5.938   2.328   8.334 -0.7969  1.3233 -1.4669
 1746TIP3    H226874   5.843   2.353   8.449  0.4006 -0.8787  0.0778
 1747TIP3   OH226875   1.394   1.324   7.639 -0.3983 -0.7473  0.1737
 1747TIP3    H126876   1.348   1.360   7.715 -0.8780 -1.4256  0.2088
 1747TIP3    H226877   1.437   1.245   7.671  0.2441 -0.4817 -0.0199
 1748TIP3   OH226878   4.480   2.099   1.539 -0.2119  0.0422  0.1898
 1748TIP3    H126879   4.485   2.026   1.477  0.5793 -0.4576  0.8250
 1748TIP3    H226880   4.459   2.059   1.623  1.4433  0.3705  0.8038
 1749TIP3   OH226881   5.392   2.855   1.040  0.3200 -0.3159 -0.1649
 1749TIP3    H126882   5.476   2.862   0.996  0.0408  0.7746 -0.5711
 1749TIP3    H226883   5.399   2.916   1.114 -0.3320  0.3184 -0.6033
 1750TIP3   OH226884   6.808   0.764   0.745  0.2934  0.2982  0.1075
 1750TIP3    H126885   6.817   0.853   0.710 -1.9252  0.0577 -1.2932
 1750TIP3    H226886   6.795   0.776   0.839  0.7095  1.3988  0.0418
 1751TIP3   OH226887   3.904   0.247   7.982 -0.0574  0.6042  0.3179
 1751TIP3    H126888   3.951   0.211   7.906 -3.0800 -0.2496 -1.2921
 1751TIP3    H226889   3.880   0.335   7.955 -0.5158  0.5569  0.5703
 1752TIP3   OH226890   4.625   6.200   1.060 -0.1662 -0.0706  0.2758
 1752TIP3    H126891   4.709   6.155   1.062 -0.4073 -0.6893 -1.4922
 1752TIP3    H226892   4.562   6.133   1.032 -0.9803  0.7515  0.0733
 1753TIP3   OH226893   1.209   3.643   0.909  0.2327 -0.1273 -0.1718
 1753TIP3    H126894   1.233   3.586   0.983 -0.1967 -2.1042 -1.4918
 1753TIP3    H226895   1.283   3.636   0.849 -0.6024 -0.7661 -1.1606
 1754TIP3   OH226896   5.254   1.306   7.072 -0.0893 -0.1927  0.3972
 1754TIP3    H126897   5.295   1.228   7.108  0.3505 -0.1737 -0.0525
 1754TIP3    H226898   5.324   1.371   7.069 -0.5107  0.3074  1.0129
 1755TIP3   OH226899   3.438   5.542   7.288 -0.4376 -0.5280  0.3247
 1755TIP3    H126900   3.443   5.457   7.331 -0.8975 -0.7502 -0.0561
 1755TIP3    H226901   3.400   5.524   7.202 -0.7444  0.0878  0.3251
 1756TIP3   OH226902   2.624   2.702   8.503 -0.1603  0.1881  0.4093
 1756TIP3    H126903   2.576   2.663   8.576 -0.2495  2.1664  1.4704
 1756TIP3    H226904   2.663   2.781   8.539  1.0343  0.4640 -1.3304
 1757TIP3   OH226905   6.395   2.459   7.958  0.0250  0.8393 -0.3521
 1757TIP3    H126906   6.489   2.476   7.950  0.1765  0.7139  1.0532
 1757TIP3    H226907   6.360   2.538   8.000  0.0356 -0.3645  2.0835
 1758TIP3   OH226908   2.017   6.557   6.870 -0.0545 -0.3838  0.0047
 1758TIP3    H126909   2.002   6.545   6.777 -1.2908  0.1309  0.1187
 1758TIP3    H226910   1.949   6.505   6.913  1.8076 -2.3863  0.6981
 1759TIP3   OH226911   3.705   5.519   8.809  0.3092  0.0327  0.1986
 1759TIP3    H126912   3.758   5.445   8.781  1.8752  0.5417  1.6534
 1759TIP3    H226913   3.768   5.590   8.824 -0.4274  0.1346  3.7754
 1760TIP3   OH226914   6.704   6.143   7.833 -0.0402 -0.1693  0.2324
 1760TIP3    H126915   6.736   6.150   7.923 -1.2701  1.3303  0.5926
 1760TIP3    H226916   6.695   6.233   7.804  1.5269 -0.6221 -1.8886
 1761TIP3   OH226917   5.945   4.204   8.681  0.1271 -0.1670  0.4682
 1761TIP3    H126918   6.019   4.259   8.705  0.1357  0.6054 -1.1918
 1761TIP3    H226919   5.980   4.115   8.678  1.1891  0.2778 -1.0360
 1762TIP3   OH226920   2.735   3.940   7.880  0.5694  0.3558  0.3190
 1762TIP3    H126921   2.718   4.006   7.948 -1.7364  0.7193 -0.5090
 1762TIP3    H226922   2.654   3.890   7.874  0.9209 -0.0755 -1.7240
 1763TIP3   OH226923   2.926   2.051   1.727  0.1362  0.4720 -0.2227
 1763TIP3    H126924   2.977   2.060   1.808  0.3304  0.3762 -0.3317
 1763TIP3    H226925   2.938   1.959   1.702 -0.4451  0.3421 -0.0197
 1764TIP3   OH226926   0.609   5.703   1.220  0.0854  0.1047  0.1450
 1764TIP3    H126927   0.675   5.683   1.286 -0.7883 -1.4907  0.6018
 1764TIP3    H226928   0.528   5.712   1.269  0.1276  3.9454 -0.1697
 1765TIP3   OH226929   5.554   6.138   7.518 -0.0314  0.1401 -0.2165
 1765TIP3    H126930   5.528   6.049   7.493 -0.2695  0.2400 -0.3275
 1765TIP3    H226931   5.472   6.188   7.516  0.0551  0.2962  0.1258
 1766TIP3   OH226932   3.236   0.776   1.168 -0.0961  0.3430  0.2968
 1766TIP3    H126933   3.179   0.836   1.120 -0.3306  0.6993  1.0061
 1766TIP3    H226934   3.220   0.691   1.128 -0.3075  0.6276 -0.2350
 1767TIP3   OH226935   1.720   5.350   1.760  0.6349 -0.3718 -0.3614
 1767TIP3    H126936   1.801   5.389   1.727  1.1477 -1.2187 -0.1424
 1767TIP3    H226937   1.712   5.382   1.850  1.7793 -1.7998  0.2861
 1768TIP3   OH226938   0.802   5.203   7.601  0.2308  0.3031 -0.3368
 1768TIP3    H126939   0.770   5.249   7.678  0.2221 -0.3892  0.0837
 1768TIP3    H226940   0.895   5.185   7.619 -0.2681 -1.7584  0.4926
 1769TIP3   OH226941   1.884   0.821   0.746 -0.5222  0.2298  0.0504
 1769TIP3    H126942   1.856   0.886   0.811  2.3596  0.9471  0.6986
 1769TIP3    H226943   1.887   0.870   0.664  0.9209  0.7754  0.4009
 1770TIP3   OH226944   3.100   3.543   7.793  0.3830 -0.1193 -0.0056
 1770TIP3    H126945   3.069   3.632   7.809  0.1726  0.0488 -1.2158
 1770TIP3    H226946   3.129   3.511   7.878 -1.1369  0.4925  0.7735
 1771TIP3   OH226947   4.036   1.019   8.436  0.1028 -0.7268  0.3828
 1771TIP3    H126948   4.044   1.010   8.531 -0.0338 -0.4277  0.4238
 1771TIP3    H226949   3.997   1.105   8.424 -0.5496 -1.0602  0.0835
 1772TIP3   OH226950   2.307   0.520   0.335  0.0651 -0.2774 -0.2128
 1772TIP3    H126951   2.307   0.593   0.397 -0.2714  1.2170 -1.8868
 1772TIP3    H226952   2.246   0.457   0.372 -2.1512  1.7210 -0.2321
 1773TIP3   OH226953   6.720   3.538   1.075  0.8382  0.1824 -0.0774
 1773TIP3    H126954   6.774   3.514   1.151  0.9955 -0.5832 -0.4174
 1773TIP3    H226955   6.777   3.523   1.000  0.3002 -0.2146 -0.4130
 1774TIP3   OH226956   3.712   1.298   6.353 -0.5088 -0.0097  0.5854
 1774TIP3    H126957   3.659   1.296   6.432  1.1577 -0.1590  1.7431
 1774TIP3    H226958   3.786   1.240   6.371  0.7497  1.1718 -0.4549
 1775TIP3   OH226959   4.586   5.668   0.737  0.1070 -0.2305 -0.8700
 1775TIP3    H126960   4.503   5.696   0.697 -0.1616  0.2353 -0.0209
 1775TIP3    H226961   4.651   5.730   0.705 -0.5631  1.7384  1.3494
 1776TIP3   OH226962   6.646   5.636   6.925 -1.2023 -0.5279  0.0018
 1776TIP3    H126963   6.733   5.639   6.965 -1.0911  2.3185 -0.2893
 1776TIP3    H226964   6.586   5.632   7.000 -0.8665 -0.3544  0.2831
 1777TIP3   OH226965   1.457   4.547   1.006  0.2330 -0.2311  0.7417
 1777TIP3    H126966   1.490   4.510   0.924  0.0411  0.1218  0.5017
 1777TIP3    H226967   1.404   4.622   0.978 -0.3040 -0.4555  1.1562
 1778TIP3   OH226968   6.337   5.638   0.255  0.3059 -0.2127 -0.9184
 1778TIP3    H126969   6.295   5.687   0.185 -0.3123  1.1411  0.3306
 1778TIP3    H226970   6.393   5.702   0.299  0.3953 -0.9213  0.0396
 1779TIP3   OH226971   3.338   3.288   2.129 -0.3521  0.2635 -0.0124
 1779TIP3    H126972   3.370   3.238   2.204 -1.1559  0.9388  0.8070
 1779TIP3    H226973   3.243   3.275   2.131 -0.4876  1.1519 -0.2777
 1780TIP3   OH226974   6.798   4.024   7.840 -0.1342 -0.5138 -0.2950
 1780TIP3    H126975   6.773   4.066   7.757  0.2791  0.9914  0.2974
 1780TIP3    H226976   6.860   4.086   7.879  1.2824 -2.1835  0.1901
 1781TIP3   OH226977   1.260   3.492   8.719  0.4181  0.4548 -0.3662
 1781TIP3    H126978   1.346   3.462   8.688 -0.1181 -0.3334 -1.1464
 1781TIP3    H226979   1.280   3.545   8.796  1.5791 -0.0894 -0.2625
 1782TIP3   OH226980   2.902   3.552   0.222  0.0796  0.3864 -0.4000
 1782TIP3    H126981   2.886   3.498   0.299  3.4825 -0.5340 -0.1900
 1782TIP3    H226982   2.856   3.634   0.241  0.5485  0.0958  2.4964
 1783TIP3   OH226983   0.805   2.572   8.658 -0.0103 -0.1170  0.1023
 1783TIP3    H126984   0.716   2.578   8.626 -0.6827  1.1804  2.0253
 1783TIP3    H226985   0.821   2.656   8.701  2.6091  0.1888 -1.2776
 1784TIP3   OH226986   0.891   6.643   1.806 -0.4673 -0.0397 -0.3906
 1784TIP3    H126987   0.856   6.665   1.719  0.2819  1.5960 -0.3110
 1784TIP3    H226988   0.983   6.668   1.801 -0.2085 -0.7519  0.6128
 1785TIP3   OH226989   6.557   5.685   1.666  0.1563 -0.1656 -0.2594
 1785TIP3    H126990   6.580   5.763   1.616  2.0109 -0.4297  0.1051
 1785TIP3    H226991   6.640   5.641   1.682 -0.3080 -0.1449  2.9862
 1786TIP3   OH226992   3.869   2.279   7.203  0.0917 -0.0338 -0.1567
 1786TIP3    H126993   3.959   2.256   7.226  0.0970  1.4292  1.5781
 1786TIP3    H226994   3.863   2.266   7.108  1.8571 -0.9797 -0.1636
 1787TIP3   OH226995   4.589   0.670   6.752  0.4042 -0.0761  0.0554
 1787TIP3    H126996   4.678   0.636   6.763  0.8872  1.3249  0.7050
 1787TIP3    H226997   4.534   0.592   6.754  1.5907 -0.9526 -0.1281
 1788TIP3   OH226998   3.038   2.845   8.356 -0.5783 -0.1360  0.1473
 1788TIP3    H126999   2.991   2.856   8.273  0.8500  0.3159 -0.6382
 1788TIP3    H227000   3.091   2.925   8.364 -1.0258  0.0202  1.7255
 1789TIP3   OH227001   3.569   5.921   6.990 -0.0504  0.0314  0.0909
 1789TIP3    H127002   3.623   5.864   6.935  0.1451 -0.0272  0.3394
 1789TIP3    H227003   3.523   5.978   6.928  0.3229  0.1036 -0.1234
 1790TIP3   OH227004   0.501   2.823   0.941 -0.5662 -0.2824 -0.3565
 1790TIP3    H127005   0.552   2.772   1.005  0.2543  0.9267 -0.0073
 1790TIP3    H227006   0.483   2.906   0.986 -1.1363  0.0717 -1.2184
 1791TIP3   OH227007   0.985   4.255   7.347  0.6082 -0.5579 -0.4538
 1791TIP3    H127008   0.964   4.229   7.437  1.6916 -0.9554 -0.2972
 1791TIP3    H227009   1.028   4.178   7.309 -0.5957 -0.6876 -1.5989
 1792TIP3   OH227010   2.994   2.352   8.506 -0.0047  0.3599 -0.1837
 1792TIP3    H127011   3.033   2.317   8.586  0.2873 -0.5280 -0.6954
 1792TIP3    H227012   3.065   2.404   8.467  0.3638 -0.4382 -0.6100
 1793TIP3   OH227013   3.910   4.789   6.518 -0.4171 -0.1931  0.5457
 1793TIP3    H127014   3.876   4.706   6.484  1.6770 -1.2176  0.7703
 1793TIP3    H227015   3.986   4.764   6.571 -1.7119  1.5894  3.5254
 1794TIP3   OH227016   1.528   5.137   6.950  0.2615 -0.3943 -0.2733
 1794TIP3    H127017   1.530   5.130   6.854 -0.8149 -0.9692 -0.2734
 1794TIP3    H227018   1.582   5.213   6.970  0.7133 -0.4197 -1.3204
 1795TIP3   OH227019   3.187   5.344   6.768 -0.2620 -0.1983 -0.4278
 1795TIP3    H127020   3.269   5.387   6.746 -0.4205 -0.6391 -2.0236
 1795TIP3    H227021   3.210   5.252   6.780 -0.4755 -0.2777 -0.6135
 1796TIP3   OH227022   1.228   1.458   7.927  0.8715 -0.1046  0.5076
 1796TIP3    H127023   1.241   1.547   7.959  3.0597  0.3746 -1.5382
 1796TIP3    H227024   1.204   1.468   7.835 -1.8245 -1.5829  0.9507
 1797TIP3   OH227025   4.255   5.659   1.963 -0.0684  0.2195  0.3461
 1797TIP3    H127026   4.240   5.747   1.997  0.7163  0.1348  0.9555
 1797TIP3    H227027   4.176   5.610   1.986 -0.0499  0.4849  0.9915
 1798TIP3   OH227028   6.687   2.424   1.697 -0.1251  0.0446  0.3271
 1798TIP3    H127029   6.706   2.501   1.751  1.1372  0.7012 -0.9903
 1798TIP3    H227030   6.773   2.393   1.668 -0.7651 -0.0577 -1.5898
 1799TIP3   OH227031   5.894   3.323   7.013  0.0268  0.2921  0.7038
 1799TIP3    H127032   5.854   3.322   7.100 -0.4118 -1.0209  0.5179
 1799TIP3    H227033   5.900   3.230   6.989 -0.3442  0.6535 -0.8883
 1800TIP3   OH227034   4.564   2.242   6.673  0.1918  0.4802 -0.3526
 1800TIP3    H127035   4.601   2.163   6.714  0.4171  1.3230  1.1265
 1800TIP3    H227036   4.545   2.215   6.583 -1.3237 -1.7890  0.5367
 1801TIP3   OH227037   3.364   6.517   7.982  0.0893  0.3402 -0.2373
 1801TIP3    H127038   3.360   6.611   7.995  0.4165  0.2384  0.6630
 1801TIP3    H227039   3.392   6.506   7.891  0.4003  1.1096 -0.2390
 1802TIP3   OH227040   3.284   5.759   7.436 -0.3353  0.1684  0.0759
 1802TIP3    H127041   3.261   5.822   7.368 -1.5863 -1.1192 -0.7503
 1802TIP3    H227042   3.366   5.720   7.406  1.7923  2.9662  1.7633
 1803TIP3   OH227043   6.831   5.084   7.726  0.8206  0.0281  0.6286
 1803TIP3    H127044   6.792   4.997   7.729 -1.4106  0.8865 -0.6582
 1803TIP3    H227045   6.878   5.086   7.643  2.2372 -0.4372  1.3935
 1804TIP3   OH227046   6.444   4.300   2.426  0.5328  0.0413 -0.2135
 1804TIP3    H127047   6.427   4.280   2.334 -1.2765 -0.2317  0.1582
 1804TIP3    H227048   6.538   4.286   2.436  0.7458 -0.0405 -1.9824
 1805TIP3   OH227049   0.860   5.920   0.415  0.1431  0.0879 -0.0187
 1805TIP3    H127050   0.787   5.928   0.476 -1.2654  1.7405 -1.7783
 1805TIP3    H227051   0.824   5.869   0.342  1.4106 -0.8347 -0.0290
 1806TIP3   OH227052   0.939   2.167   6.544 -0.5521  0.2948 -0.6236
 1806TIP3    H127053   0.886   2.096   6.508 -1.0149  0.5778 -0.5139
 1806TIP3    H227054   0.901   2.246   6.507  0.1731  0.4688 -1.0066
 1807TIP3   OH227055   5.481   1.469   7.115  0.0771  0.7916 -0.0402
 1807TIP3    H127056   5.493   1.411   7.191  0.5298  0.9549  0.0131
 1807TIP3    H227057   5.563   1.462   7.067 -0.1671  0.7825 -0.4550
 1808TIP3   OH227058   0.391   0.657   8.573 -0.0075 -0.2060 -0.4642
 1808TIP3    H127059   0.371   0.565   8.556  0.3562 -0.5340  0.7922
 1808TIP3    H227060   0.418   0.660   8.665  0.9965  0.9864 -0.7606
 1809TIP3   OH227061   2.993   1.610   0.282  0.0819 -0.3475 -0.3616
 1809TIP3    H127062   2.906   1.650   0.284  0.8043  1.3015  2.4888
 1809TIP3    H227063   2.977   1.516   0.293 -1.3302 -0.1123 -0.2882
 1810TIP3   OH227064   0.431   5.809   7.957  0.0861 -0.5217 -0.2024
 1810TIP3    H127065   0.373   5.740   7.989 -0.4476  0.8373  1.9200
 1810TIP3    H227066   0.474   5.843   8.035  2.1591 -0.0280 -1.4801
 1811TIP3   OH227067   4.926   2.075   8.029  0.1716  0.0220 -0.4306
 1811TIP3    H127068   4.890   2.016   8.096 -0.1896 -0.1344 -0.7595
 1811TIP3    H227069   4.960   2.017   7.962  0.7128  0.1783 -0.2906
 1812TIP3   OH227070   3.047   6.300   1.617  0.0955  0.2331  0.0583
 1812TIP3    H127071   2.995   6.371   1.654 -1.5710 -0.8912 -0.0430
 1812TIP3    H227072   2.998   6.221   1.636  1.7846 -0.9049 -0.0453
 1813TIP3   OH227073   2.640   0.997   7.670  0.1650 -0.1337 -0.2829
 1813TIP3    H127074   2.560   1.041   7.641 -0.5937 -1.4291 -0.2259
 1813TIP3    H227075   2.676   0.959   7.590  1.0136  0.8623 -0.3929
 1814TIP3   OH227076   5.428   5.470   7.075  0.0072 -0.4575  0.5111
 1814TIP3    H127077   5.352   5.413   7.074  0.9984 -1.8813  1.7482
 1814TIP3    H227078   5.496   5.421   7.030 -0.1114  1.3617 -1.8178
 1815TIP3   OH227079   1.312   5.988   1.811  0.1059 -0.2751 -0.0527
 1815TIP3    H127080   1.279   5.900   1.829  0.5826 -0.2837  0.8423
 1815TIP3    H227081   1.397   5.973   1.769  0.6690 -0.2499  1.0545
 1816TIP3   OH227082   3.259   3.888   8.734 -0.0442 -0.0657 -0.4871
 1816TIP3    H127083   3.187   3.828   8.713  0.3211 -0.2177 -1.3423
 1816TIP3    H227084   3.294   3.914   8.649 -0.6159  1.8995 -0.1719
 1817TIP3   OH227085   0.439   1.126   8.573 -0.7065  0.5332  0.0570
 1817TIP3    H127086   0.353   1.161   8.594 -0.8573  0.6493 -0.7468
 1817TIP3    H227087   0.422   1.055   8.511 -0.4156 -1.0172  1.6437
 1818TIP3   OH227088   5.502   1.769   7.384 -0.0983 -0.5780 -0.1687
 1818TIP3    H127089   5.545   1.747   7.467  0.4416  2.4737  0.4976
 1818TIP3    H227090   5.571   1.762   7.318  0.6640  1.0918  0.3846
 1819TIP3   OH227091   4.652   2.261   1.804  0.2446 -0.2027  0.2125
 1819TIP3    H127092   4.602   2.232   1.880  0.6848  0.2990  0.6989
 1819TIP3    H227093   4.660   2.182   1.749  0.5828 -0.7643  1.0480
 1820TIP3   OH227094   4.591   2.929   8.267  0.3871 -0.3214 -0.1878
 1820TIP3    H127095   4.596   3.020   8.240  0.9168 -0.6037 -1.0945
 1820TIP3    H227096   4.621   2.880   8.191 -1.7633 -1.3632 -0.4133
 1821TIP3   OH227097   6.737   3.694   2.045 -0.0352 -0.5298 -0.4159
 1821TIP3    H127098   6.780   3.779   2.028  0.0294 -0.1828  1.2745
 1821TIP3    H227099   6.656   3.717   2.089 -0.4570 -1.3295 -0.7615
 1822TIP3   OH227100   4.636   6.694   8.159 -0.3057  0.2690 -0.3862
 1822TIP3    H127101   4.639   6.767   8.221  0.0981  1.4857 -1.7757
 1822TIP3    H227102   4.553   6.649   8.179  0.7557 -0.6733  2.3691
 1823TIP3   OH227103   5.797   0.388   8.359  0.0449  0.1607  0.2187
 1823TIP3    H127104   5.766   0.421   8.274 -1.0643 -1.6539 -0.1515
 1823TIP3    H227105   5.866   0.325   8.336  0.5733  0.5425  0.7451
 1824TIP3   OH227106   3.354   4.513   8.576  0.4708 -0.4893 -0.3808
 1824TIP3    H127107   3.370   4.472   8.491  0.8349  0.2589 -0.6818
 1824TIP3    H227108   3.363   4.607   8.560  3.4327 -0.3997  1.0199
 1825TIP3   OH227109   6.502   6.723   7.644 -0.1129 -0.4730 -0.3487
 1825TIP3    H127110   6.437   6.655   7.627 -1.4124 -0.1367  2.5977
 1825TIP3    H227111   6.586   6.681   7.624 -1.0979 -1.0829 -3.7074
 1826TIP3   OH227112   3.507   4.751   6.748  0.4720  0.6341 -0.9530
 1826TIP3    H127113   3.458   4.682   6.703 -0.1593  0.4222  0.0253
 1826TIP3    H227114   3.593   4.712   6.766  0.0269  0.0034 -0.1692
 1827TIP3   OH227115   5.935   5.715   7.424  0.6323 -0.0396 -0.4903
 1827TIP3    H127116   6.000   5.655   7.462  0.6761 -0.5936 -1.3961
 1827TIP3    H227117   5.852   5.689   7.464  0.7951 -0.0775 -0.1722
 1828TIP3   OH227118   6.292   1.879   0.567  0.1790 -0.5867 -0.0924
 1828TIP3    H127119   6.204   1.881   0.531 -1.0135 -0.1652  2.6234
 1828TIP3    H227120   6.307   1.787   0.589 -1.5567 -0.1665  3.6128
 1829TIP3   OH227121   4.529   3.242   1.071  0.3249  0.1732  0.1749
 1829TIP3    H127122   4.491   3.173   1.125  0.1107 -1.8233 -2.3334
 1829TIP3    H227123   4.453   3.291   1.038  0.3886  0.6916  0.7876
 1830TIP3   OH227124   6.099   5.799   8.408 -0.0438  0.0322  0.6121
 1830TIP3    H127125   6.101   5.839   8.321 -2.2398 -0.7796  0.1114
 1830TIP3    H227126   6.153   5.721   8.401 -0.5372 -0.2450 -0.1510
 1831TIP3   OH227127   2.063   4.912   7.957  0.4780  0.4453  0.1055
 1831TIP3    H127128   2.000   4.959   8.010  0.3355  1.0640 -0.5949
 1831TIP3    H227129   2.147   4.923   8.003  0.5351  1.7793 -0.2734
 1832TIP3   OH227130   5.031   1.447   7.162 -0.1623 -0.2105  0.4093
 1832TIP3    H127131   5.076   1.382   7.107  1.9544 -1.4163  3.3122
 1832TIP3    H227132   4.944   1.410   7.176 -0.1241 -0.7416 -0.6770
 1833TIP3   OH227133   0.975   1.572   8.811  0.4148  0.0972  0.0957
 1833TIP3    H127134   0.957   1.489   8.855 -2.8801  0.1324 -0.9585
 1833TIP3    H227135   0.995   1.548   8.720  0.1968  0.4058 -0.0373
 1834TIP3   OH227136   1.833   5.430   0.595  0.0135  0.0732 -0.1688
 1834TIP3    H127137   1.840   5.449   0.689  0.0827 -1.9383  0.2657
 1834TIP3    H227138   1.855   5.513   0.552  1.4839  0.6333  1.5553
 1835TIP3   OH227139   5.681   0.694   8.002 -0.0547 -0.0341  0.5385
 1835TIP3    H127140   5.683   0.716   7.909  1.2835 -2.0698  0.0142
 1835TIP3    H227141   5.658   0.775   8.046  3.7039  2.2786 -1.2289
 1836TIP3   OH227142   5.986   6.057   0.669  0.1081  0.6997  0.3503
 1836TIP3    H127143   5.919   6.092   0.728  0.0244 -0.2093  0.8179
 1836TIP3    H227144   5.952   6.076   0.581 -0.1760  1.3158  0.5846
 1837TIP3   OH227145   0.071   3.844   8.587 -0.0897 -0.2037  0.1254
 1837TIP3    H127146   0.019   3.924   8.578 -1.5610 -1.2534 -1.3647
 1837TIP3    H227147   0.160   3.875   8.604 -0.5398  1.7608 -0.7972
 1838TIP3   OH227148   4.853   4.617   6.365 -0.1269 -0.2262  0.2798
 1838TIP3    H127149   4.829   4.532   6.403 -0.0375  0.0961  1.0628
 1838TIP3    H227150   4.934   4.640   6.409  0.0518  0.0975 -0.2106
 1839TIP3   OH227151   3.817   2.267   6.929 -0.3634  0.1667  0.2401
 1839TIP3    H127152   3.846   2.176   6.937 -1.5248 -0.1304  1.4488
 1839TIP3    H227153   3.782   2.273   6.840  2.1853  0.2214 -0.8400
 1840TIP3   OH227154   0.880   0.615   0.037 -0.4387  0.3526  0.7171
 1840TIP3    H127155   0.830   0.682  -0.010 -0.1078 -0.5011 -0.9016
 1840TIP3    H227156   0.885   0.541  -0.023  2.6579  0.3228  0.8382
 1841TIP3   OH227157   4.341   4.977   6.653 -0.0956  0.0725 -0.3848
 1841TIP3    H127158   4.318   5.045   6.590 -2.7502  1.5462  1.9337
 1841TIP3    H227159   4.435   4.963   6.641 -0.2592  1.0890 -3.7532
 1842TIP3   OH227160   5.441   0.573   0.935  0.2737  0.6195 -0.0518
 1842TIP3    H127161   5.490   0.577   0.853 -0.1792 -1.6039 -0.4887
 1842TIP3    H227162   5.508   0.558   1.002  0.5060  0.9423 -0.2099
 1843TIP3   OH227163   2.387   4.097   1.944  0.5036  0.5554  0.1761
 1843TIP3    H127164   2.324   4.053   2.002  0.7557  1.1245  0.8866
 1843TIP3    H227165   2.417   4.027   1.885  0.8950 -0.2511  1.2887
 1844TIP3   OH227166   4.867   5.566   6.468 -0.0784 -0.0791 -0.0536
 1844TIP3    H127167   4.808   5.609   6.529  0.2415  0.5750 -0.1979
 1844TIP3    H227168   4.810   5.535   6.398 -0.4322 -0.7352  0.5107
 1845TIP3   OH227169   3.781   6.085   8.264  0.4619 -0.3606 -0.2891
 1845TIP3    H127170   3.706   6.144   8.257  2.1547  1.9923  0.2483
 1845TIP3    H227171   3.810   6.071   8.174 -0.2061 -0.7786 -0.4498
 1846TIP3   OH227172   0.963   0.140   8.764  0.0062 -0.3473  0.5313
 1846TIP3    H127173   1.031   0.141   8.830  0.2345  0.0575  0.2971
 1846TIP3    H227174   0.989   0.070   8.703  0.5619  0.2224  0.0944
 1847TIP3   OH227175   4.009   2.401   0.020  0.2876 -0.0028  0.2823
 1847TIP3    H127176   4.050   2.445  -0.054  0.6947 -1.0978 -0.1555
 1847TIP3    H227177   4.067   2.327   0.039  0.1481  0.2212  1.6498
 1848TIP3   OH227178   0.152   4.975   8.499  0.2976  0.2266  0.3909
 1848TIP3    H127179   0.095   4.910   8.458  0.7475  0.0198  0.0893
 1848TIP3    H227180   0.236   4.930   8.511  0.5079  0.6376  0.5068
 1849TIP3   OH227181   1.353   4.872   0.184  0.1921 -0.2826 -0.1951
 1849TIP3    H127182   1.407   4.850   0.261 -1.2419 -0.1994  0.8766
 1849TIP3    H227183   1.355   4.967   0.180 -0.3077 -0.2577  0.1647
 1850TIP3   OH227184   6.504   5.891   7.673 -0.0235 -0.4687 -0.3664
 1850TIP3    H127185   6.441   5.953   7.709  0.3747  0.4470 -1.1985
 1850TIP3    H227186   6.556   5.864   7.748  1.0652  1.7190 -0.2586
 1851TIP3   OH227187   1.844   1.569   7.800 -0.2071 -0.1622 -0.2494
 1851TIP3    H127188   1.918   1.604   7.749 -0.2622  0.1596 -0.1148
 1851TIP3    H227189   1.768   1.582   7.744 -0.7750  2.9643  1.0002
 1852TIP3   OH227190   4.468   6.718   7.611 -0.0300  0.6197  0.3930
 1852TIP3    H127191   4.530   6.714   7.684  1.2829  0.3940 -0.6929
 1852TIP3    H227192   4.409   6.791   7.634 -0.2216 -0.0087  2.0759
 1853TIP3   OH227193   0.699   3.754   7.961  0.5216 -0.1247  0.3249
 1853TIP3    H127194   0.755   3.757   8.039  0.1699  0.0274  0.5719
 1853TIP3    H227195   0.733   3.681   7.910  0.7981 -0.1822  0.5872
 1854TIP3   OH227196   5.226   3.713   8.309  1.0625 -0.3650  0.1702
 1854TIP3    H127197   5.148   3.767   8.321 -0.1233 -1.8962 -0.3149
 1854TIP3    H227198   5.206   3.631   8.354  2.2128 -0.9505 -0.3384
 1855TIP3   OH227199   2.587   5.723   1.400  0.1995  0.1286 -0.2518
 1855TIP3    H127200   2.634   5.639   1.399  0.1196  0.0689  0.6029
 1855TIP3    H227201   2.558   5.733   1.490  0.0501  0.9964 -0.3918
 1856TIP3   OH227202   0.126   4.763   7.376  0.4698  0.3076 -0.4310
 1856TIP3    H127203   0.147   4.731   7.464  0.2648  0.6186 -0.2626
 1856TIP3    H227204   0.078   4.692   7.335 -2.5884  1.3736  0.9678
 1857TIP3   OH227205   6.120   4.901   1.756 -0.3790  0.3784 -0.0931
 1857TIP3    H127206   6.190   4.899   1.691 -1.0662 -1.7547 -0.8244
 1857TIP3    H227207   6.125   4.990   1.793  0.1044  1.6386 -2.9422
 1858TIP3   OH227208   0.339   6.031   8.449 -0.4860  0.0630  0.1000
 1858TIP3    H127209   0.318   6.120   8.478 -2.7862 -0.0741 -0.9326
 1858TIP3    H227210   0.414   6.041   8.391 -0.2518  1.2243  0.5781
 1859TIP3   OH227211   0.670   5.645   8.524 -0.2250 -0.2008  0.5975
 1859TIP3    H127212   0.662   5.646   8.620 -0.6218 -0.4656  0.5682
 1859TIP3    H227213   0.697   5.555   8.504  0.9215  0.1388  0.5391
 1860TIP3   OH227214   4.053   1.032   1.689 -0.1415  0.0743 -0.2939
 1860TIP3    H127215   4.085   0.958   1.741 -1.1193  0.5840  1.0923
 1860TIP3    H227216   4.121   1.099   1.697 -0.8941  0.6874  1.5984
 1861TIP3   OH227217   1.287   5.528   6.473 -0.3229  0.7502 -0.8380
 1861TIP3    H127218   1.367   5.574   6.448 -0.2385  2.6626  2.3440
 1861TIP3    H227219   1.316   5.462   6.536 -1.2609  2.6523  1.7541
 1862TIP3   OH227220   2.507   5.605   8.757 -0.2968  0.4393 -0.1662
 1862TIP3    H127221   2.481   5.530   8.812  0.5339  1.5226  1.8034
 1862TIP3    H227222   2.429   5.661   8.755 -0.5073  0.1429 -0.5982
 1863TIP3   OH227223   5.715   0.883   7.221  0.1333  0.0363 -0.1331
 1863TIP3    H127224   5.647   0.824   7.188  1.6765 -1.7257 -0.2726
 1863TIP3    H227225   5.775   0.827   7.270  2.0961  1.3403 -0.9275
 1864TIP3   OH227226   2.018   3.747   0.400  0.3349  0.1644  0.4237
 1864TIP3    H127227   2.037   3.807   0.328 -0.0915 -0.8912 -0.6120
 1864TIP3    H227228   1.977   3.801   0.467  0.5294  1.1332 -0.2244
 1865TIP3   OH227229   0.289   2.412   8.303  0.4558  0.3672 -0.4702
 1865TIP3    H127230   0.376   2.450   8.290  0.8133  0.3454  1.5674
 1865TIP3    H227231   0.285   2.339   8.242  1.0089  1.6606 -2.1427
 1866TIP3   OH227232   2.858   5.957   8.625  0.0777  0.3667 -0.4743
 1866TIP3    H127233   2.886   5.880   8.675  1.1193  0.7091 -0.5075
 1866TIP3    H227234   2.778   5.986   8.669 -0.1324 -0.5229 -0.2447
 1867TIP3   OH227235   0.271   5.428   6.236 -0.0331 -0.2657 -0.2532
 1867TIP3    H127236   0.184   5.406   6.203  0.2381 -0.9609 -0.5329
 1867TIP3    H227237   0.257   5.504   6.293 -1.0738 -1.3312  0.9824
 1868TIP3   OH227238   0.761   6.416   1.703  0.7431  0.7702 -0.0697
 1868TIP3    H127239   0.699   6.459   1.644 -0.0808 -0.1128  0.1362
 1868TIP3    H227240   0.790   6.485   1.762  1.6591  1.7070 -1.5449
 1869TIP3   OH227241   4.567   3.390   7.297  0.0196 -0.0320 -0.0925
 1869TIP3    H127242   4.574   3.373   7.391 -1.2768 -0.2478 -0.0216
 1869TIP3    H227243   4.656   3.414   7.271  0.5471 -0.6627  1.0453
 1870TIP3   OH227244   3.350   2.204   8.390  0.4458  0.6528 -0.0288
 1870TIP3    H127245   3.358   2.112   8.364 -1.3407  0.8566 -1.5344
 1870TIP3    H227246   3.297   2.202   8.469  1.5505  0.3324  0.7255
 1871TIP3   OH227247   4.118   6.829   8.176 -0.2155  0.4359  0.3814
 1871TIP3    H127248   4.100   6.920   8.197 -2.4785  0.7141 -2.2097
 1871TIP3    H227249   4.201   6.831   8.130 -1.1986  1.5795 -1.4686
 1872TIP3   OH227250   1.701   6.700   8.124 -0.2581  0.8045 -0.0172
 1872TIP3    H127251   1.703   6.635   8.054 -0.1925  1.3812 -0.5649
 1872TIP3    H227252   1.712   6.650   8.205 -0.1677  0.1487 -0.4326
 1873TIP3   OH227253   2.494   5.926   7.000 -0.1581  0.0285 -0.3525
 1873TIP3    H127254   2.434   5.859   7.032 -0.8215  0.1879 -1.2361
 1873TIP3    H227255   2.581   5.889   7.015 -0.5155 -1.1009 -0.9742
 1874TIP3   OH227256   4.302   4.749   7.605 -0.2177  0.2749 -0.1710
 1874TIP3    H127257   4.305   4.664   7.649  1.3783  0.1673 -0.4435
 1874TIP3    H227258   4.249   4.734   7.526  0.7804 -0.7134 -0.6793
 1875TIP3   OH227259   1.469   4.635   6.754  0.4331 -0.3033  0.5814
 1875TIP3    H127260   1.488   4.682   6.836  0.5633  1.8645 -0.6050
 1875TIP3    H227261   1.388   4.588   6.773  1.0948 -0.8402  2.3187
 1876TIP3   OH227262   1.133   0.027   6.994  0.2960  0.5140  0.8757
 1876TIP3    H127263   1.115   0.096   7.057 -1.5254 -0.3867  1.4245
 1876TIP3    H227264   1.079   0.048   6.918 -0.8224 -0.6298  1.3211
 1877TIP3   OH227265   5.756   0.973   1.542  0.0067 -0.2945 -0.3551
 1877TIP3    H127266   5.671   0.961   1.585 -0.6733 -0.5337 -1.7159
 1877TIP3    H227267   5.777   0.887   1.506  0.6065 -0.1147 -0.4539
 1878TIP3   OH227268   4.133   2.014   7.393 -0.6871  0.1612  0.1544
 1878TIP3    H127269   4.208   1.969   7.352 -1.6865 -2.2666  0.8125
 1878TIP3    H227270   4.132   2.100   7.352  0.7309 -0.7528 -2.0278
 1879TIP3   OH227271   2.442   1.173   7.634 -0.5404  0.2972  0.4744
 1879TIP3    H127272   2.481   1.259   7.617 -2.6147  0.9371 -1.7282
 1879TIP3    H227273   2.397   1.184   7.718 -0.3822  1.2491  0.4523
 1880TIP3   OH227274   5.879   0.069   7.368  0.2621  0.3268  0.3029
 1880TIP3    H127275   5.865   0.029   7.282  1.0858 -0.4207  0.5004
 1880TIP3    H227276   5.875   0.163   7.351 -1.9744  0.2106 -0.1294
 1881TIP3   OH227277   2.892   4.690   0.562 -0.2228  0.1484 -0.1461
 1881TIP3    H127278   2.821   4.686   0.626 -0.5516  0.4345 -0.4937
 1881TIP3    H227279   2.911   4.598   0.542 -1.6605  0.0755 -1.3424
 1882TIP3   OH227280   5.036   0.620   7.615  0.3143 -0.0237  0.0060
 1882TIP3    H127281   5.075   0.676   7.548  0.5283  1.9516  1.6718
 1882TIP3    H227282   4.945   0.649   7.622 -0.3703 -1.7632 -0.9320
 1883TIP3   OH227283   6.178   2.752   7.851  0.1490  0.4805 -0.0466
 1883TIP3    H127284   6.262   2.736   7.895  0.1782 -1.1218 -0.6061
 1883TIP3    H227285   6.201   2.808   7.776  0.8566 -0.4726 -0.5717
 1884TIP3   OH227286   6.225   2.393   0.182  0.1547  0.1651 -0.0929
 1884TIP3    H127287   6.176   2.473   0.165 -0.3323  0.0000  0.4941
 1884TIP3    H227288   6.184   2.356   0.260  1.7219  0.4099  0.8785
 1885TIP3   OH227289   2.807   3.718   6.808  0.3285 -0.2363 -0.0836
 1885TIP3    H127290   2.852   3.679   6.883  0.0839 -0.2368  0.0637
 1885TIP3    H227291   2.810   3.650   6.740  0.8413 -0.1132 -0.1876
 1886TIP3   OH227292   3.703   3.396   0.888  0.0869  0.4649 -0.5581
 1886TIP3    H127293   3.702   3.448   0.807  2.0654  0.8705 -0.3802
 1886TIP3    H227294   3.723   3.307   0.859  1.8541  0.7930 -0.5060
 1887TIP3   OH227295   1.027   3.930   8.728  0.1004 -0.0344 -0.3316
 1887TIP3    H127296   0.958   3.924   8.794  0.0654 -0.6049 -0.4173
 1887TIP3    H227297   1.021   3.848   8.679 -1.8215  1.5558 -3.0204
 1888TIP3   OH227298   4.937   5.701   0.394 -0.8786  0.2683  0.6376
 1888TIP3    H127299   4.983   5.665   0.470  0.5056 -0.6373 -0.5798
 1888TIP3    H227300   4.911   5.625   0.343 -1.0851  0.8815 -0.2034
 1889TIP3   OH227301   3.870   1.498   1.314 -0.3199 -0.1216  0.4012
 1889TIP3    H127302   3.865   1.592   1.301  0.6323  0.1753  1.9732
 1889TIP3    H227303   3.820   1.461   1.241 -1.9143  1.6340  0.5272
 1890TIP3   OH227304   4.491   0.119   2.633  0.0424  0.2207  0.0408
 1890TIP3    H127305   4.501   0.165   2.550  0.0438 -0.3607 -0.2903
 1890TIP3    H227306   4.578   0.118   2.671 -0.0092  0.7195  0.1770
 1891TIP3   OH227307   6.296   1.605   0.629 -0.0370 -0.1662 -0.1181
 1891TIP3    H127308   6.277   1.558   0.548  0.7411  0.1787 -0.5094
 1891TIP3    H227309   6.252   1.554   0.697 -0.1704 -0.8120 -0.6741
 1892TIP3   OH227310   5.752   2.530   0.767 -0.0706  0.7930 -0.0875
 1892TIP3    H127311   5.718   2.441   0.770  2.6247 -0.3708 -0.6596
 1892TIP3    H227312   5.736   2.559   0.677 -1.3011  1.0591  0.2074
 1893TIP3   OH227313   1.587   5.635   1.943  0.1665 -0.1023 -0.2125
 1893TIP3    H127314   1.666   5.687   1.929  0.6148 -1.3563 -2.7117
 1893TIP3    H227315   1.616   5.560   1.994  0.4640 -0.2284 -0.5641
 1894TIP3   OH227316   2.931   2.931   6.898  0.8326  0.1877 -0.9443
 1894TIP3    H127317   2.917   2.836   6.889  0.0843  0.4434 -2.9208
 1894TIP3    H227318   2.859   2.960   6.954  0.7868 -0.3339 -0.7206
 1895TIP3   OH227319   1.890   0.848   8.670 -0.5106 -0.5536 -0.4039
 1895TIP3    H127320   1.889   0.752   8.674 -0.8636 -0.5196  0.4061
 1895TIP3    H227321   1.799   0.874   8.686 -0.6647 -0.1128 -1.8378
 1896TIP3   OH227322   2.778   1.042   0.499  0.2866  0.0299 -0.3740
 1896TIP3    H127323   2.736   1.096   0.433 -0.8883 -1.0554 -0.5544
 1896TIP3    H227324   2.867   1.029   0.467  0.0550  0.4209 -1.1912
 1897TIP3   OH227325   5.660   1.200   7.056 -0.1007 -0.1781  0.5225
 1897TIP3    H127326   5.583   1.144   7.050 -0.1352 -0.0477 -0.3056
 1897TIP3    H227327   5.653   1.259   6.982  0.8853 -0.2826  0.3331
 1898TIP3   OH227328   3.089   5.872   8.129  0.0532  0.0368 -0.6775
 1898TIP3    H127329   3.096   5.834   8.041  1.1513  0.4971 -0.8049
 1898TIP3    H227330   3.167   5.927   8.138 -0.2510  0.3160  0.4368
 1899TIP3   OH227331   4.653   5.562   1.552  0.2104 -0.5987  0.1131
 1899TIP3    H127332   4.731   5.618   1.558 -0.2226 -0.0191  0.4028
 1899TIP3    H227333   4.657   5.525   1.464 -0.1223  0.8414 -0.5422
 1900TIP3   OH227334   2.429   5.068   6.430  0.9226 -0.1515 -0.2529
 1900TIP3    H127335   2.390   5.077   6.517  2.2509  0.2147  0.3457
 1900TIP3    H227336   2.433   4.973   6.415 -2.6666 -0.2399 -1.5796
 1901TIP3   OH227337   4.835   3.198   1.164  0.4418 -0.8778  0.6659
 1901TIP3    H127338   4.861   3.176   1.254 -0.0445  0.5301  1.1786
 1901TIP3    H227339   4.743   3.223   1.171  0.9928  1.5756  0.2443
 1902TIP3   OH227340   3.022   5.632   1.427 -0.2160 -0.0015  0.3689
 1902TIP3    H127341   2.986   5.718   1.450  0.5917  0.7009 -0.8457
 1902TIP3    H227342   3.115   5.649   1.411 -0.7181 -0.1347 -4.0715
 1903TIP3   OH227343   3.993   3.043   8.825  0.3250 -0.0825 -0.2159
 1903TIP3    H127344   4.067   2.988   8.798  0.6319  0.9383 -1.5225
 1903TIP3    H227345   3.917   2.986   8.814  0.8567 -1.0852  0.9616
 1904TIP3   OH227346   5.270   1.361   8.705  0.3222  0.5753  0.0132
 1904TIP3    H127347   5.252   1.283   8.757  3.4376  0.2751  0.8049
 1904TIP3    H227348   5.251   1.335   8.615 -0.8820 -0.3207  0.5031
 1905TIP3   OH227349   1.652   1.670   0.598 -0.2358  0.3138 -0.4588
 1905TIP3    H127350   1.682   1.756   0.625  0.4792  0.1073 -0.5940
 1905TIP3    H227351   1.556   1.675   0.605 -0.1395 -0.1038  3.4612
 1906TIP3   OH227352   2.470   3.705   2.320 -0.3172  0.7743 -0.0383
 1906TIP3    H127353   2.539   3.763   2.351 -0.1014  0.1034  0.7806
 1906TIP3    H227354   2.390   3.742   2.358 -0.0290 -0.1843  1.6439
 1907TIP3   OH227355   6.420   3.999   6.726  0.0891 -0.8084 -0.2970
 1907TIP3    H127356   6.381   4.071   6.777  0.4176  0.8566 -2.2592
 1907TIP3    H227357   6.365   3.992   6.648  1.1094 -1.4933 -0.9777
 1908TIP3   OH227358   4.374   2.907   8.495  0.3983 -0.2042 -0.4257
 1908TIP3    H127359   4.303   2.961   8.460 -0.4357 -1.7483 -1.2258
 1908TIP3    H227360   4.451   2.963   8.489 -0.2773  0.6496 -1.9249
 1909TIP3   OH227361   6.475   0.117   7.379  0.5129 -0.5315 -0.3076
 1909TIP3    H127362   6.379   0.117   7.374  0.5166 -0.5542 -0.3912
 1909TIP3    H227363   6.495   0.096   7.470  0.4274  0.3705 -0.0705
 1910TIP3   OH227364   1.265   5.656   7.399  1.1359  0.5120  0.2355
 1910TIP3    H127365   1.290   5.567   7.373 -0.5122 -0.4659  1.8317
 1910TIP3    H227366   1.319   5.712   7.343  0.9681 -1.4592 -2.0853
 1911TIP3   OH227367   6.732   5.092   7.975 -0.4294  0.2186 -0.8058
 1911TIP3    H127368   6.780   5.029   8.028 -0.8038  0.0772 -0.6308
 1911TIP3    H227369   6.771   5.085   7.888 -0.2670 -0.0322 -0.7137
 1912TIP3   OH227370   2.072   6.174   0.430 -0.1545 -0.2466 -0.0586
 1912TIP3    H127371   2.018   6.218   0.364  1.3857 -0.8602 -1.8228
 1912TIP3    H227372   2.141   6.236   0.451 -0.6629 -0.0334  1.0824
 1913TIP3   OH227373   0.157   4.434   0.625  0.1972  0.4687 -0.0346
 1913TIP3    H127374   0.230   4.377   0.653  0.6885  1.2854  0.3737
 1913TIP3    H227375   0.165   4.437   0.530  1.0069  0.9414  0.0367
 1914TIP3   OH227376   2.431   6.800   8.764 -0.1867 -0.1734 -0.2044
 1914TIP3    H127377   2.383   6.864   8.710 -0.1377 -0.8447 -1.0682
 1914TIP3    H227378   2.373   6.724   8.767  1.2775 -1.5000 -2.3344
 1915TIP3   OH227379   0.324   6.394   1.923 -0.2031  0.3956  0.1506
 1915TIP3    H127380   0.346   6.401   1.830 -0.3975  4.9822  0.2445
 1915TIP3    H227381   0.408   6.400   1.969  0.0544 -3.2362  0.4464
 1916TIP3   OH227382   4.515   5.112   1.715  0.6961  0.0936 -0.0549
 1916TIP3    H127383   4.447   5.164   1.674  0.6042  0.6876  0.8527
 1916TIP3    H227384   4.542   5.051   1.646  1.8820  2.3088 -1.6692
 1917TIP3   OH227385   2.714   6.743   1.725 -0.1616  0.5044 -0.1736
 1917TIP3    H127386   2.713   6.794   1.644 -1.2483  0.3104 -0.2920
 1917TIP3    H227387   2.637   6.774   1.773  0.9963  1.3149  1.2338
 1918TIP3   OH227388   0.407   6.159   0.133 -0.3776  0.1541 -0.0364
 1918TIP3    H127389   0.317   6.189   0.120 -0.6784 -0.1693  1.1687
 1918TIP3    H227390   0.449   6.230   0.182  0.2897  0.6894 -1.3390
 1919TIP3   OH227391   1.757   1.709   2.719  0.0310 -0.1680 -0.0112
 1919TIP3    H127392   1.819   1.638   2.730  1.8653  1.5961  1.8193
 1919TIP3    H227393   1.747   1.747   2.806 -0.8965  1.7858 -0.8853
 1920TIP3   OH227394   0.627   0.882   0.881  0.6109  0.1556 -0.2867
 1920TIP3    H127395   0.537   0.853   0.862  0.4467 -0.9896  1.8894
 1920TIP3    H227396   0.664   0.812   0.935  2.3493  1.2589  0.0314
 1921TIP3   OH227397   2.342   0.025   7.182  0.0503 -0.5630 -0.6711
 1921TIP3    H127398   2.254  -0.010   7.193 -0.2926 -0.4162 -2.6105
 1921TIP3    H227399   2.375  -0.016   7.103  2.1697 -1.4166  0.5674
 1922TIP3   OH227400   3.841   1.213   7.619  0.0382  0.4516 -0.0636
 1922TIP3    H127401   3.886   1.229   7.702  0.6583 -2.0779  0.1515
 1922TIP3    H227402   3.753   1.248   7.633  0.6583  1.6963  0.9788
 1923TIP3   OH227403   6.068   4.298   0.789  0.1940 -0.3057 -0.5030
 1923TIP3    H127404   6.010   4.344   0.728 -0.3671 -0.1308  0.1478
 1923TIP3    H227405   6.009   4.248   0.846  0.7337 -0.8578 -0.4175
 1924TIP3   OH227406   3.285   0.996   0.997  0.0766 -0.0382  0.0102
 1924TIP3    H127407   3.352   0.968   0.934 -0.6282 -0.4198 -0.5941
 1924TIP3    H227408   3.282   1.092   0.987 -0.1458 -0.1077 -0.6708
 1925TIP3   OH227409   4.242   0.497   8.146 -0.5776  0.0815 -0.4713
 1925TIP3    H127410   4.337   0.510   8.148 -0.2322 -1.8601 -1.8128
 1925TIP3    H227411   4.224   0.438   8.218 -1.0528  1.6893  0.7934
 1926TIP3   OH227412   0.718   2.522   0.548 -0.4019  1.0907 -0.2523
 1926TIP3    H127413   0.688   2.589   0.609 -0.6560  1.3745 -0.6858
 1926TIP3    H227414   0.648   2.515   0.483 -0.9943 -0.5382  0.5057
 1927TIP3   OH227415   3.914   2.977   8.472 -0.8344  0.1114 -0.4913
 1927TIP3    H127416   3.841   2.991   8.533  0.3042 -2.3540  1.5879
 1927TIP3    H227417   3.992   2.994   8.524  0.1794 -2.3081 -1.1002
 1928TIP3   OH227418   5.218   1.091   8.118  0.1705 -0.2891 -0.1471
 1928TIP3    H127419   5.130   1.059   8.137 -0.2028  0.2702 -0.8404
 1928TIP3    H227420   5.208   1.187   8.115  0.1448 -0.2855 -3.0770
 1929TIP3   OH227421   5.608   3.377   0.862 -0.1930 -0.0199  0.5059
 1929TIP3    H127422   5.622   3.312   0.931  1.0778  0.7346  1.0001
 1929TIP3    H227423   5.668   3.448   0.884 -0.7871  0.8585 -0.6106
 1930TIP3   OH227424   4.494   0.942   0.392 -0.2077 -0.2973 -0.1236
 1930TIP3    H127425   4.579   0.908   0.419  0.2772  0.3048 -0.8602
 1930TIP3    H227426   4.455   0.872   0.339 -1.0595 -1.3852  1.8543
 1931TIP3   OH227427   0.565   4.256   6.908  0.2759 -0.1383  0.2021
 1931TIP3    H127428   0.548   4.206   6.828  1.8566  0.1622 -0.3701
 1931TIP3    H227429   0.540   4.346   6.886  0.9034 -0.0159 -0.0579
 1932TIP3   OH227430   3.940   4.989   7.920 -0.4000 -0.5481  0.2061
 1932TIP3    H127431   4.000   4.920   7.949 -1.1221 -1.0141  0.6228
 1932TIP3    H227432   3.854   4.960   7.949 -0.6491  0.8271  0.9286
 1933TIP3   OH227433   4.890   5.315   1.709  0.3093  0.2192 -0.3482
 1933TIP3    H127434   4.808   5.296   1.663  0.1147  1.8501 -0.7542
 1933TIP3    H227435   4.956   5.319   1.640  0.4965  0.1762 -0.1732
 1934TIP3   OH227436   2.246   2.802   7.938 -0.2080 -0.0019 -0.2643
 1934TIP3    H127437   2.332   2.843   7.931 -1.5012  2.9741  0.0275
 1934TIP3    H227438   2.233   2.790   8.032 -0.1722 -0.3672 -0.3029
 1935TIP3   OH227439   3.830   4.400   1.304 -0.1027 -0.1034 -0.0839
 1935TIP3    H127440   3.740   4.370   1.314 -0.0171 -0.2492  0.3146
 1935TIP3    H227441   3.827   4.469   1.238 -0.4707 -0.2604 -0.2303
 1936TIP3   OH227442   1.235   4.266   7.953 -0.6162 -0.3744  0.2339
 1936TIP3    H127443   1.143   4.261   7.979 -1.2315 -2.3050 -1.9566
 1936TIP3    H227444   1.252   4.183   7.910  1.8815  0.3672 -0.3594
 1937TIP3   OH227445   1.311   6.386   2.161 -0.0878 -0.4725 -0.1238
 1937TIP3    H127446   1.318   6.295   2.131 -1.3417 -0.4437 -0.5742
 1937TIP3    H227447   1.244   6.384   2.228  0.3232  0.0356  0.3119
 1938TIP3   OH227448   0.359   0.118   1.773 -0.7672  0.5404 -0.1940
 1938TIP3    H127449   0.361   0.186   1.841 -1.8713  0.4635 -0.0724
 1938TIP3    H227450   0.319   0.162   1.697 -2.3136 -0.2019  0.1635
 1939TIP3   OH227451   2.130   5.805   1.142  0.3886 -0.0994  0.7851
 1939TIP3    H127452   2.077   5.879   1.169 -1.9201 -1.1944 -0.4490
 1939TIP3    H227453   2.145   5.755   1.223  0.8820  1.0038  1.3977
 1940TIP3   OH227454   0.903   0.616   1.519 -0.8681 -0.1440 -0.1375
 1940TIP3    H127455   0.963   0.683   1.486  0.3335 -1.0684  0.0649
 1940TIP3    H227456   0.840   0.664   1.573 -0.4185  0.8838 -0.5016
 1941TIP3   OH227457   3.419   6.320   6.963 -0.4944 -0.1300  0.3710
 1941TIP3    H127458   3.444   6.315   7.056 -4.3949 -0.3976  1.5884
 1941TIP3    H227459   3.413   6.229   6.935  1.6723 -0.0370 -0.5302
 1942TIP3   OH227460   0.583   2.583   7.439 -0.1488 -0.5615 -0.5286
 1942TIP3    H127461   0.665   2.610   7.398  0.0834  0.5984  0.6238
 1942TIP3    H227462   0.532   2.663   7.445  0.8528  0.0305  3.6987
 1943TIP3   OH227463   5.794   6.582   8.370  0.1186  0.0545  0.4370
 1943TIP3    H127464   5.764   6.626   8.291 -2.7756 -0.0966  1.2964
 1943TIP3    H227465   5.715   6.537   8.403  1.8667 -2.1864  1.9132
 1944TIP3   OH227466   3.533   6.530   6.832 -0.2252  0.0776  0.0165
 1944TIP3    H127467   3.509   6.450   6.878  0.9866 -0.7952 -0.8200
 1944TIP3    H227468   3.556   6.592   6.902  2.1612 -1.4036  0.6710
 1945TIP3   OH227469   2.508   6.279   6.482 -0.3204 -0.5425  0.3494
 1945TIP3    H127470   2.536   6.188   6.476 -0.8256 -0.6061 -1.5150
 1945TIP3    H227471   2.412   6.276   6.476 -0.3154  0.1304 -0.2306
 1946TIP3   OH227472   4.004   5.635   6.771 -0.1549 -0.1298 -0.1719
 1946TIP3    H127473   4.096   5.620   6.792 -0.2354  0.8413  0.9392
 1946TIP3    H227474   4.004   5.660   6.679  0.5994 -0.8468 -0.3777
 1947TIP3   OH227475   1.185   5.236   0.764 -0.7383  0.1748  0.0997
 1947TIP3    H127476   1.265   5.185   0.754  0.0841  1.4482  0.0514
 1947TIP3    H227477   1.183   5.259   0.857 -0.8759  0.4249  0.0348
 1948TIP3   OH227478   5.393   4.846   7.082 -0.0997  0.5580  0.0918
 1948TIP3    H127479   5.391   4.771   7.022 -1.7090  1.3410 -0.9123
 1948TIP3    H227480   5.451   4.818   7.153  0.9225 -0.8596 -1.2305
 1949TIP3   OH227481   3.586   2.260   8.269 -0.1738 -0.1348 -0.3529
 1949TIP3    H127482   3.559   2.248   8.178 -2.1206  1.3587 -0.0253
 1949TIP3    H227483   3.509   2.236   8.321  0.1385  1.1993  0.7820
 1950TIP3   OH227484   5.644   1.559   0.872 -0.0742 -0.0467 -0.4541
 1950TIP3    H127485   5.580   1.489   0.857 -1.3386  1.0686 -0.4907
 1950TIP3    H227486   5.686   1.535   0.955 -1.1243 -0.3970 -0.0073
 1951TIP3   OH227487   1.566   2.251   6.867  0.0294 -0.5033 -0.1500
 1951TIP3    H127488   1.545   2.344   6.860  0.2018 -0.3511  1.0606
 1951TIP3    H227489   1.493   2.214   6.917  1.4120 -0.3975  2.0936
 1952TIP3   OH227490   3.594   1.784   0.397 -0.2552  0.2272 -0.4567
 1952TIP3    H127491   3.682   1.746   0.394 -1.0410 -1.7524 -0.0652
 1952TIP3    H227492   3.596   1.852   0.330  0.5874 -2.1186 -3.0264
 1953TIP3   OH227493   6.566   0.966   7.624 -0.2921  0.0513  0.2202
 1953TIP3    H127494   6.615   1.046   7.603 -0.0181  0.1768  1.2772
 1953TIP3    H227495   6.493   0.996   7.678 -1.2549 -0.2054 -0.8992
 1954TIP3   OH227496   4.916   3.907   1.759 -0.0791 -0.2004 -0.1741
 1954TIP3    H127497   4.912   3.827   1.706  0.8127 -0.7247  0.5190
 1954TIP3    H227498   4.972   3.884   1.833 -2.1681  0.1594  1.6124
 1955TIP3   OH227499   6.604   0.465   7.672  0.2894  1.0434 -0.0769
 1955TIP3    H127500   6.622   0.469   7.766 -0.0427 -0.7543  0.1041
 1955TIP3    H227501   6.588   0.372   7.655 -0.7170  1.4828 -1.7236
 1956TIP3   OH227502   4.672   0.697   1.966 -0.1198  0.6547 -0.2625
 1956TIP3    H127503   4.587   0.658   1.946  0.5526 -0.1325 -1.7189
 1956TIP3    H227504   4.682   0.768   1.902  1.6842 -1.3446 -2.3954
 1957TIP3   OH227505   0.354   1.229   7.477  0.3618 -0.6797  0.0922
 1957TIP3    H127506   0.422   1.283   7.437  0.7666 -1.1380  0.1635
 1957TIP3    H227507   0.337   1.160   7.414 -2.5926  1.3503 -1.6105
 1958TIP3   OH227508   0.471   0.564   7.709  0.3870  0.2455  0.5133
 1958TIP3    H127509   0.550   0.617   7.698  0.8159 -0.5391 -0.3363
 1958TIP3    H227510   0.465   0.550   7.803  0.9766  0.7373  0.6326
 1959TIP3   OH227511   3.408   3.757   1.060 -0.1393 -0.1171  0.1816
 1959TIP3    H127512   3.477   3.701   1.094  1.7508  1.0192 -1.5361
 1959TIP3    H227513   3.333   3.699   1.048  1.5406 -2.1699 -0.9661
 1960TIP3   OH227514   5.445   1.286   7.308 -0.1846  0.5771 -0.1727
 1960TIP3    H127515   5.351   1.279   7.323  0.2062 -2.0064  1.6819
 1960TIP3    H227516   5.484   1.294   7.395  1.3449  2.7519 -0.9314
 1961TIP3   OH227517   1.720   6.759   1.909 -0.3292 -0.1995 -0.2366
 1961TIP3    H127518   1.716   6.757   1.813 -2.3508 -0.6676 -0.1938
 1961TIP3    H227519   1.684   6.845   1.933  1.5967  0.5746  0.1226
 1962TIP3   OH227520   1.804   3.349   1.716 -0.3768 -0.2674 -0.4418
 1962TIP3    H127521   1.827   3.258   1.735 -0.1793 -0.2476 -0.5799
 1962TIP3    H227522   1.714   3.359   1.749 -0.0925 -0.2667  0.3642
 1963TIP3   OH227523   5.850   2.898   1.448 -0.1117 -0.3586  0.2708
 1963TIP3    H127524   5.899   2.838   1.504  0.4107 -0.6017 -0.4359
 1963TIP3    H227525   5.760   2.868   1.454 -0.1163 -0.1944  1.2185
 1964TIP3   OH227526   3.588   1.134   2.011  0.1255  0.2511 -0.0332
 1964TIP3    H127527   3.668   1.176   2.042  0.6243 -1.6995  1.5135
 1964TIP3    H227528   3.559   1.079   2.084 -1.5640 -0.5767 -1.2382
 1965TIP3   OH227529   6.213   3.677   7.149  0.7929  0.5079 -0.2457
 1965TIP3    H127530   6.181   3.593   7.183  2.9465 -1.5573 -2.7776
 1965TIP3    H227531   6.301   3.685   7.186  0.7906  1.4182 -0.4173
 1966TIP3   OH227532   0.864   3.134   1.062  0.4842 -0.8464 -0.1957
 1966TIP3    H127533   0.782   3.182   1.047  0.0531 -1.8782 -1.3281
 1966TIP3    H227534   0.872   3.127   1.157 -0.3908 -0.1559 -0.0628
 1967TIP3   OH227535   2.721   4.908   8.778  0.6486  0.0451  0.4025
 1967TIP3    H127536   2.645   4.941   8.826  0.7836 -0.1958  0.7864
 1967TIP3    H227537   2.791   4.970   8.799  0.4872  0.4407 -0.1951
 1968TIP3   OH227538   1.614   4.737   6.308 -0.5726  0.2847  0.2958
 1968TIP3    H127539   1.580   4.651   6.332 -0.8733  0.3314  0.0545
 1968TIP3    H227540   1.709   4.727   6.307 -0.5440  0.3217  1.6216
 1969TIP3   OH227541   2.438   4.609   2.338  0.6147  0.4715 -0.3408
 1969TIP3    H127542   2.451   4.593   2.432  2.8762 -0.5091 -0.7575
 1969TIP3    H227543   2.368   4.550   2.313 -0.3353  1.0675  0.7952
 1970TIP3   OH227544   5.951   5.633   1.638  0.3738  0.2482  0.5162
 1970TIP3    H127545   6.034   5.663   1.675  0.1910  0.2981  0.8890
 1970TIP3    H227546   5.929   5.554   1.687  1.2595 -0.9990 -1.0167
 1971TIP3   OH227547   4.815   1.313   1.212 -0.0212 -0.3101 -0.0438
 1971TIP3    H127548   4.724   1.323   1.182 -0.2207  1.2398  0.9718
 1971TIP3    H227549   4.858   1.264   1.142 -1.4801 -0.4718 -0.8607
 1972TIP3   OH227550   3.468   2.505   0.452  0.0268  0.3298 -0.0053
 1972TIP3    H127551   3.522   2.520   0.529 -1.4588  1.7733  0.8087
 1972TIP3    H227552   3.491   2.416   0.424  2.1450  0.5734  0.7975
 1973TIP3   OH227553   3.539   4.748   8.756 -0.7448 -0.3504  0.0803
 1973TIP3    H127554   3.559   4.839   8.737  1.5429 -0.9412 -0.5720
 1973TIP3    H227555   3.456   4.732   8.710 -0.6900  1.1217 -0.5906
 1974TIP3   OH227556   5.605   4.027   2.231 -0.2356 -0.5329  0.2429
 1974TIP3    H127557   5.642   4.035   2.319 -0.2523 -2.1858  0.4311
 1974TIP3    H227558   5.637   4.104   2.185 -3.5980  2.7577  2.8094
 1975TIP3   OH227559   4.160   1.635   0.220  0.1898 -0.6805  0.2207
 1975TIP3    H127560   4.195   1.724   0.217  2.6786 -1.5130  1.6854
 1975TIP3    H227561   4.119   1.628   0.307 -1.3637 -0.5617 -0.4595
 1976TIP3   OH227562   1.947   4.111   0.692 -0.2098  0.0490  0.2303
 1976TIP3    H127563   1.925   4.037   0.635  0.8965  0.2032 -0.4366
 1976TIP3    H227564   2.024   4.082   0.741  0.5125  0.8780 -0.3572
 1977TIP3   OH227565   5.697   6.071   7.067  0.0550 -0.3618 -0.3957
 1977TIP3    H127566   5.602   6.057   7.068  0.0310 -0.1859  1.2190
 1977TIP3    H227567   5.732   6.009   7.131  0.8533  0.7750  0.2933
 1978TIP3   OH227568   5.184   1.019   0.340  0.2434 -0.6193 -0.0500
 1978TIP3    H127569   5.155   1.109   0.327 -2.1805 -1.5112 -1.6086
 1978TIP3    H227570   5.279   1.024   0.336  0.4485  2.2503  3.1735
 1979TIP3   OH227571   3.095   4.534   7.253  0.0907  0.0465  0.0920
 1979TIP3    H127572   3.115   4.525   7.160  0.5023 -0.2235  0.1993
 1979TIP3    H227573   3.057   4.621   7.262  1.2360  0.5957 -0.1353
 1980TIP3   OH227574   2.061   5.533   8.594  0.7530  0.5968  0.0771
 1980TIP3    H127575   1.980   5.484   8.580  0.6466  0.5604  0.8047
 1980TIP3    H227576   2.038   5.624   8.578  1.5115  0.2812 -3.8223
 1981TIP3   OH227577   2.605   6.667   0.695  0.0982  0.7314  0.2729
 1981TIP3    H127578   2.547   6.741   0.714  1.2900  1.6161  0.6101
 1981TIP3    H227579   2.678   6.706   0.646 -0.7150 -0.7407 -2.2970
 1982TIP3   OH227580   1.991   3.269   8.078  0.2679  0.1462 -0.4635
 1982TIP3    H127581   2.012   3.238   7.990 -0.9874 -2.7229  0.1303
 1982TIP3    H227582   1.898   3.250   8.089  0.3203  0.7388  1.3820
 1983TIP3   OH227583   3.800   5.301   1.613  0.4138  0.4444 -0.1104
 1983TIP3    H127584   3.755   5.324   1.694 -1.1761 -0.3231 -0.7201
 1983TIP3    H227585   3.849   5.221   1.634  0.0679  0.2921  0.1247
 1984TIP3   OH227586   1.183   3.160   7.356  0.7474  0.2864  0.0954
 1984TIP3    H127587   1.117   3.098   7.326  0.9343  0.5494 -0.9023
 1984TIP3    H227588   1.135   3.222   7.412  0.4743 -0.4628  0.7059
 1985TIP3   OH227589   1.341   1.374   8.348 -0.1389  0.2921  0.1720
 1985TIP3    H127590   1.362   1.343   8.260 -1.1075 -0.3404  0.1492
 1985TIP3    H227591   1.359   1.468   8.346  2.3419 -0.1172  0.0756
 1986TIP3   OH227592   3.948   6.036   6.562 -0.3901 -0.5315 -1.0327
 1986TIP3    H127593   3.966   5.942   6.567 -0.2890 -0.4730 -0.2282
 1986TIP3    H227594   3.902   6.047   6.479 -2.2853 -1.6140 -0.2088
 1987TIP3   OH227595   1.555   2.860   1.048 -0.2077  0.1958 -0.6977
 1987TIP3    H127596   1.577   2.818   0.965 -1.4990 -0.1941 -0.8699
 1987TIP3    H227597   1.526   2.788   1.104  0.6819  0.4515  0.1176
 1988TIP3   OH227598   3.026   1.059   0.695  0.7476  0.7544 -0.3580
 1988TIP3    H127599   3.053   1.120   0.763  1.4468  2.7067 -2.2751
 1988TIP3    H227600   3.086   1.075   0.623 -0.4744 -0.6302 -1.7588
 1989TIP3   OH227601   0.485   0.466   7.995  0.8593  0.4140  0.0575
 1989TIP3    H127602   0.537   0.505   8.065 -0.2042  0.7309  0.6907
 1989TIP3    H227603   0.399   0.507   8.004  0.3008 -0.6055 -0.5436
 1990TIP3   OH227604   0.668   1.719   1.979  0.0278  0.6779 -0.1387
 1990TIP3    H127605   0.734   1.652   1.965  1.0076  1.5684  0.0992
 1990TIP3    H227606   0.594   1.693   1.924  0.5946 -0.3016 -0.4437
 1991TIP3   OH227607   0.553   3.399   1.932 -0.1146 -0.0904 -0.0600
 1991TIP3    H127608   0.511   3.395   2.019 -1.6233 -1.4768 -0.7899
 1991TIP3    H227609   0.602   3.317   1.926  0.4634  0.2735 -0.2892
 1992TIP3   OH227610   1.466   2.395   1.324 -0.6748  0.2545  0.6505
 1992TIP3    H127611   1.454   2.305   1.294 -1.3407 -0.0650  1.8333
 1992TIP3    H227612   1.534   2.389   1.392 -0.1449  0.7716  0.1796
 1993TIP3   OH227613   3.604   4.594   7.535  0.2202  0.4755  0.8494
 1993TIP3    H127614   3.609   4.520   7.475 -0.3295  2.8318 -2.3907
 1993TIP3    H227615   3.513   4.624   7.528  0.4392  1.4726  2.0292
 1994TIP3   OH227616   5.003   1.022   1.834 -0.0430 -0.0069 -0.5875
 1994TIP3    H127617   4.964   1.093   1.885 -0.7285  0.4638 -1.7494
 1994TIP3    H227618   5.090   1.054   1.811 -0.2027  0.2896 -0.7758
 1995TIP3   OH227619   2.743   6.551   1.481  0.0275  0.1030  0.2199
 1995TIP3    H127620   2.721   6.541   1.573 -0.1064 -1.3157  0.0578
 1995TIP3    H227621   2.706   6.636   1.457 -2.0731 -0.5489  0.8829
 1996TIP3   OH227622   0.797   6.206   6.799 -0.1936 -0.9400 -0.6288
 1996TIP3    H127623   0.803   6.226   6.705 -0.1024 -0.1488 -0.4659
 1996TIP3    H227624   0.764   6.287   6.838  3.5982  0.2696  0.5483
 1997TIP3   OH227625   5.785   5.819   0.205 -0.0729 -0.0702  0.2303
 1997TIP3    H127626   5.829   5.798   0.288  0.7453 -0.6592 -0.3361
 1997TIP3    H227627   5.784   5.737   0.157 -0.8857  0.1849 -0.1962
 1998TIP3   OH227628   0.685   1.320   7.664 -0.7878  0.0432 -0.6304
 1998TIP3    H127629   0.763   1.266   7.674 -0.2815  1.0366  1.0598
 1998TIP3    H227630   0.719   1.409   7.655 -1.7266  0.5246  0.4545
 1999TIP3   OH227631   3.397   4.550   8.290 -0.2537 -0.4646 -0.4692
 1999TIP3    H127632   3.310   4.517   8.267 -0.5732  0.4867 -0.7011
 1999TIP3    H227633   3.453   4.523   8.217  0.2102 -3.1276  0.7674
 2000TIP3   OH227634   0.223   0.401   0.366 -0.1702  0.4278  1.0283
 2000TIP3    H127635   0.284   0.475   0.372  0.9428 -0.4608  1.2020
 2000TIP3    H227636   0.160   0.427   0.299  0.5876  1.2714  0.6194
 2001TIP3   OH227637   0.803   2.176   0.981 -0.0974  0.6467 -0.1134
 2001TIP3    H127638   0.835   2.152   1.068 -1.1519  2.2176  0.7413
 2001TIP3    H227639   0.877   2.158   0.923  0.1977 -1.6564  0.8741
 2002TIP3   OH227640   5.780   2.463   7.943  0.3119 -0.6181 -0.0940
 2002TIP3    H127641   5.746   2.545   7.908 -0.4647 -1.6660 -1.9703
 2002TIP3    H227642   5.838   2.489   8.014 -0.0363  1.5378 -0.5336
 2003TIP3   OH227643   1.856   3.883   7.091 -0.7340 -0.6873  0.0535
 2003TIP3    H127644   1.778   3.926   7.055 -1.5650 -2.2668 -0.1561
 2003TIP3    H227645   1.828   3.792   7.105  0.8826 -1.1262  0.6292
 2004TIP3   OH227646   5.022   0.782   8.315  0.2815 -0.6868 -0.1781
 2004TIP3    H127647   5.098   0.762   8.260 -1.4179  0.7491 -3.3088
 2004TIP3    H227648   5.050   0.855   8.369  1.2974 -0.4655 -0.9691
 2005TIP3   OH227649   1.794   5.879   1.553  0.0040  0.0340  0.0385
 2005TIP3    H127650   1.859   5.850   1.617 -0.1789  0.7883  0.5709
 2005TIP3    H227651   1.846   5.914   1.480  0.1973  0.0534  0.1852
 2006TIP3   OH227652   6.248   3.481   2.357  0.4868 -0.9357 -0.2294
 2006TIP3    H127653   6.343   3.493   2.353  0.3384  1.0994  0.9984
 2006TIP3    H227654   6.234   3.428   2.435  0.4645  2.1799  2.0404
 2007TIP3   OH227655   1.935   6.030   8.243  0.0665 -0.1720  0.1629
 2007TIP3    H127656   1.867   6.060   8.304  1.1741  1.5175  0.6274
 2007TIP3    H227657   1.945   5.937   8.262 -1.7059 -0.3462  0.4702
 2008TIP3   OH227658   4.235   3.367   8.097 -0.3245  0.5146  0.1545
 2008TIP3    H127659   4.325   3.369   8.065  0.8201  2.8873  2.9826
 2008TIP3    H227660   4.188   3.426   8.039  0.0997 -0.1729 -0.9136
 2009TIP3   OH227661   3.653   1.577   0.004 -0.6005 -0.3859  0.1429
 2009TIP3    H127662   3.708   1.614   0.074  0.4275 -0.8071 -0.4147
 2009TIP3    H227663   3.657   1.641  -0.066  0.0323 -0.8962 -0.2922
 2010TIP3   OH227664   4.293   3.295   7.679 -0.0618 -0.3605 -0.2622
 2010TIP3    H127665   4.251   3.380   7.694 -0.6192 -0.6173 -0.3165
 2010TIP3    H227666   4.293   3.253   7.766 -0.5683 -0.6429 -0.3920
 2011TIP3   OH227667   6.698   0.141   0.416 -0.6190  0.3722 -0.5863
 2011TIP3    H127668   6.782   0.099   0.400 -0.5414  0.4462 -0.3800
 2011TIP3    H227669   6.639   0.105   0.350 -0.2259  0.9167 -1.2441
 2012TIP3   OH227670   1.665   2.628   0.187 -0.4591 -0.1379 -0.1202
 2012TIP3    H127671   1.578   2.616   0.225 -0.9351 -0.4156 -1.2441
 2012TIP3    H227672   1.720   2.656   0.260 -1.0326 -1.8428  1.0399
 2013TIP3   OH227673   3.690   5.497   1.225 -0.5574  0.2463  0.1685
 2013TIP3    H127674   3.733   5.525   1.145 -0.9082 -2.0317 -0.8929
 2013TIP3    H227675   3.758   5.501   1.292  1.3934 -2.8989 -1.3722
 2014TIP3   OH227676   2.421   2.072   2.134 -0.1947 -0.0126  0.3070
 2014TIP3    H127677   2.358   2.082   2.205 -1.0546  0.7340 -0.5341
 2014TIP3    H227678   2.447   2.161   2.112  1.6907 -0.3224  1.0593
 2015TIP3   OH227679   4.214   4.707   0.318  0.2486 -0.1572 -0.2413
 2015TIP3    H127680   4.173   4.762   0.252 -0.2707 -1.1150 -0.7393
 2015TIP3    H227681   4.175   4.621   0.305 -0.0895 -0.3106  1.4974
 2016TIP3   OH227682   1.415   2.419   7.905 -0.0744  0.0968 -0.1253
 2016TIP3    H127683   1.491   2.378   7.865  0.7028  1.6762 -0.3093
 2016TIP3    H227684   1.443   2.507   7.928 -1.7580  0.6228  0.0894
 2017TIP3   OH227685   3.508   3.880   0.302  0.7577 -0.0332  0.0198
 2017TIP3    H127686   3.453   3.857   0.227  1.7849 -3.0147  0.0493
 2017TIP3    H227687   3.472   3.964   0.333 -1.6134 -0.2040 -1.9381
 2018TIP3   OH227688   3.438   2.142   8.064  0.5131 -0.6392 -0.3239
 2018TIP3    H127689   3.351   2.182   8.059  0.2661 -0.4079  3.3875
 2018TIP3    H227690   3.433   2.081   8.137  3.3005 -1.1790 -0.4631
 2019TIP3   OH227691   4.990   1.955   7.371  0.2577  0.1794  0.2132
 2019TIP3    H127692   4.972   2.049   7.367 -2.9001 -0.3664 -1.3537
 2019TIP3    H227693   5.065   1.947   7.430  0.5746  3.6443  0.4487
 2020TIP3   OH227694   3.761   3.532   8.429  0.0470  0.0092 -0.1147
 2020TIP3    H127695   3.686   3.490   8.388 -0.1598  0.1874  0.0748
 2020TIP3    H227696   3.828   3.535   8.361  0.4815 -1.6731  0.1943
 2021TIP3   OH227697   1.396   2.800   8.602 -0.0045 -0.2750  0.3114
 2021TIP3    H127698   1.450   2.781   8.525  3.4178  2.0665  1.8896
 2021TIP3    H227699   1.443   2.759   8.675 -1.2990  0.4098  1.5916
 2022TIP3   OH227700   6.549   5.796   6.703  0.1908 -0.0485 -0.0878
 2022TIP3    H127701   6.575   5.740   6.776 -0.7975 -0.0611  0.2610
 2022TIP3    H227702   6.455   5.785   6.696 -0.0236  1.5131 -0.0684
 2023TIP3   OH227703   5.754   0.482   1.714  0.5710  0.8525 -0.3385
 2023TIP3    H127704   5.780   0.491   1.806  0.8898  0.5254 -0.3921
 2023TIP3    H227705   5.680   0.541   1.704 -0.1632  0.0867  0.4095
 2024TIP3   OH227706   6.131   2.708   0.417 -0.5050 -0.0425  0.0920
 2024TIP3    H127707   6.214   2.661   0.428 -0.4024  0.3544  1.1278
 2024TIP3    H227708   6.115   2.748   0.502 -2.4136 -1.1844  0.3363
 2025TIP3   OH227709   4.347   0.002   1.258 -0.0145  0.8004 -0.2879
 2025TIP3    H127710   4.379   0.083   1.219  1.4388  0.2085 -0.4165
 2025TIP3    H227711   4.339  -0.059   1.185 -0.7755  0.7245 -0.1485
 2026TIP3   OH227712   0.149   5.357   8.839 -0.1039 -0.3906  0.3508
 2026TIP3    H127713   0.200   5.369   8.919  0.4589 -2.3259  0.3217
 2026TIP3    H227714   0.215   5.339   8.771 -0.6347  0.3441 -0.3809
 2027TIP3   OH227715   5.282   3.061   7.559 -0.6974 -0.3925 -0.3436
 2027TIP3    H127716   5.202   3.039   7.607 -0.1010  1.4604  1.6461
 2027TIP3    H227717   5.259   3.141   7.510 -0.7782 -1.3081 -1.8835
 2028TIP3   OH227718   0.615   3.525   8.381  0.0379 -0.2582  0.1059
 2028TIP3    H127719   0.562   3.446   8.390 -3.0008  1.5684 -0.3629
 2028TIP3    H227720   0.688   3.511   8.442 -0.6395 -3.1562  0.4263
 2029TIP3   OH227721   0.934   5.627   7.950  0.3980 -0.6313 -0.0769
 2029TIP3    H127722   0.969   5.707   7.911  2.4071 -1.0061  0.8265
 2029TIP3    H227723   1.007   5.564   7.945  0.3403 -1.1005  2.9569
 2030TIP3   OH227724   6.573   3.422   1.537  0.4185  0.5652 -0.1089
 2030TIP3    H127725   6.562   3.500   1.482 -3.2119 -0.0515 -0.4742
 2030TIP3    H227726   6.536   3.448   1.622  0.2111 -0.4224  0.1086
 2031TIP3   OH227727   1.406   0.122   2.236 -0.2975 -0.0859 -0.1021
 2031TIP3    H127728   1.444   0.207   2.258  0.6819 -0.7557  0.9200
 2031TIP3    H227729   1.330   0.143   2.182  0.2656  1.4037 -0.3658
 2032TIP3   OH227730   4.426   3.015   1.221 -0.9063 -0.0445  0.4808
 2032TIP3    H127731   4.431   2.973   1.307  2.4223 -0.8011  0.0662
 2032TIP3    H227732   4.363   2.961   1.172  0.2025 -2.1365  1.2255
 2033TIP3   OH227733   1.354   2.761   1.795 -0.0046  0.4623 -0.1387
 2033TIP3    H127734   1.412   2.794   1.726  1.2245 -0.5330  0.3599
 2033TIP3    H227735   1.314   2.683   1.757 -0.7202  0.9111 -0.3314
 2034TIP3   OH227736   6.033   1.613   0.784 -0.2580  0.1121 -0.6406
 2034TIP3    H127737   6.015   1.528   0.746  0.1482  0.2338 -1.1223
 2034TIP3    H227738   6.073   1.594   0.869 -1.2805 -0.1607 -0.2108
 2035TIP3   OH227739   4.782   6.533   1.337 -0.1913 -0.2928 -0.2211
 2035TIP3    H127740   4.701   6.493   1.368  0.2572 -1.0045  0.0513
 2035TIP3    H227741   4.827   6.463   1.289 -0.8820  0.7811 -2.5770
 2036TIP3   OH227742   3.454   6.089   8.834 -0.0057 -0.1344 -0.2181
 2036TIP3    H127743   3.458   6.035   8.913  0.4979 -1.7978 -1.3240
 2036TIP3    H227744   3.400   6.164   8.859  1.5356  0.2567  2.1783
 2037TIP3   OH227745   1.873   0.347   0.586  0.3342 -0.2886  0.2792
 2037TIP3    H127746   1.902   0.306   0.668  1.7959  0.7497  0.3152
 2037TIP3    H227747   1.943   0.330   0.524 -0.8354 -1.1954 -0.8376
 2038TIP3   OH227748   4.112   3.253   6.882 -0.4397 -0.1097 -0.0022
 2038TIP3    H127749   4.162   3.172   6.893  2.3548  1.5519  0.7919
 2038TIP3    H227750   4.154   3.315   6.942 -1.8072  2.1950 -1.2727
 2039TIP3   OH227751   0.727   4.495   0.321  0.0937  0.0343  0.1760
 2039TIP3    H127752   0.695   4.441   0.248  0.7930 -0.1065 -0.0351
 2039TIP3    H227753   0.671   4.471   0.395 -0.6392  0.1858 -0.3098
 2040TIP3   OH227754   4.292   0.258   0.074 -0.3064  0.1870 -0.6054
 2040TIP3    H127755   4.345   0.200   0.019 -0.0299  0.6933 -0.8789
 2040TIP3    H227756   4.217   0.204   0.102 -0.2450 -0.1854 -1.1602
 2041TIP3   OH227757   2.724   1.811   8.505 -0.1024  0.8107 -0.4150
 2041TIP3    H127758   2.651   1.776   8.556  0.6450  1.7771  1.4102
 2041TIP3    H227759   2.740   1.744   8.438  0.7308 -2.0456  2.3542
 2042TIP3   OH227760   6.829   1.758   7.290  0.2114  0.5575  0.6763
 2042TIP3    H127761   6.879   1.838   7.274 -0.2454  0.7325  0.0829
 2042TIP3    H227762   6.743   1.775   7.252  1.0180 -1.3428 -2.3138
 2043TIP3   OH227763   1.987   6.050   6.148  0.1231  0.0267  0.5339
 2043TIP3    H127764   1.897   6.065   6.178 -0.4950 -1.7746 -0.3274
 2043TIP3    H227765   2.033   6.131   6.172 -2.2718  2.0826 -1.2235
 2044TIP3   OH227766   4.208   0.459   7.528 -0.3284 -0.5335  0.0340
 2044TIP3    H127767   4.191   0.385   7.470 -0.7492 -0.8389  0.5337
 2044TIP3    H227768   4.302   0.455   7.544  0.7273  2.0961 -3.9985
 2045TIP3   OH227769   0.993   0.038   6.713 -0.2983 -0.8440  0.4233
 2045TIP3    H127770   0.989   0.117   6.659 -1.6620 -1.8920 -1.0741
 2045TIP3    H227771   1.064  -0.014   6.675  0.6745 -0.3554  1.4790
 2046TIP3   OH227772   2.586   4.076   0.632  0.0818 -0.0270  0.0427
 2046TIP3    H127773   2.523   4.139   0.666 -1.1454 -1.8734  1.3786
 2046TIP3    H227774   2.647   4.061   0.705 -0.4333 -1.3400  0.2292
 2047TIP3   OH227775   2.463   2.338   8.517 -0.0894 -0.4677 -0.5168
 2047TIP3    H127776   2.552   2.360   8.493  0.5592  0.6707  2.4654
 2047TIP3    H227777   2.465   2.244   8.535 -0.0101 -0.8200 -2.1945
 2048TIP3   OH227778   4.985   0.552   8.451 -0.6664 -0.4043 -0.1785
 2048TIP3    H127779   4.960   0.638   8.416 -0.9684  0.0941  1.1959
 2048TIP3    H227780   5.050   0.573   8.519 -0.4323 -1.2972 -0.1252
 2049TIP3   OH227781   6.463   1.326   8.789  0.0749 -0.3608  0.2475
 2049TIP3    H127782   6.397   1.257   8.785 -1.2461  0.8235  1.0181
 2049TIP3    H227783   6.541   1.286   8.750 -1.2356 -1.6016 -1.2411
 2050TIP3   OH227784   4.836   6.525   7.207  0.1983  0.1520 -0.4079
 2050TIP3    H127785   4.912   6.569   7.244  0.2391 -0.6569  0.5182
 2050TIP3    H227786   4.768   6.533   7.274 -0.3555  0.3704 -0.9839
 2051TIP3   OH227787   3.776   1.278   1.617  0.4542 -0.2820  0.7186
 2051TIP3    H127788   3.819   1.361   1.640  1.4900 -0.3839 -0.7365
 2051TIP3    H227789   3.838   1.234   1.558 -1.6926 -0.2943 -1.7193
 2052TIP3   OH227790   5.732   1.766   8.831 -0.2229  0.2791 -0.3044
 2052TIP3    H127791   5.685   1.770   8.915 -0.5297  0.0943 -0.4663
 2052TIP3    H227792   5.692   1.835   8.779  2.5688  3.1544  1.0001
 2053TIP3   OH227793   5.750   3.690   8.527  0.3288  0.4197  0.0053
 2053TIP3    H127794   5.787   3.777   8.514  0.4280  0.3547 -0.1445
 2053TIP3    H227795   5.661   3.696   8.493 -0.2024  0.9045  1.4062
 2054TIP3   OH227796   5.333   0.034   0.831  0.1893  0.7396  0.0056
 2054TIP3    H127797   5.269  -0.034   0.854 -0.3271  1.2344  0.0767
 2054TIP3    H227798   5.398   0.030   0.900  0.7892 -0.4396 -0.5895
 2055TIP3   OH227799   2.171   6.165   8.450  0.3888 -0.3355 -0.0425
 2055TIP3    H127800   2.094   6.186   8.397 -1.0009 -2.7762  0.8661
 2055TIP3    H227801   2.242   6.217   8.410 -2.0508  3.8259  0.4559
 2056TIP3   OH227802   5.992   2.977   7.492  0.5413  0.3628  0.1374
 2056TIP3    H127803   5.967   2.929   7.413  0.5746 -2.4944  1.7088
 2056TIP3    H227804   6.069   3.027   7.465 -0.7574  1.3061 -2.1588
 2057TIP3   OH227805   5.523   1.029   8.720 -0.0203  0.1061 -0.2961
 2057TIP3    H127806   5.549   1.028   8.812  2.4306  0.2146 -0.9037
 2057TIP3    H227807   5.465   0.954   8.710 -0.7372  0.3861  1.4193
 2058TIP3   OH227808   0.394   0.509   7.124 -0.2509 -0.2177  0.5169
 2058TIP3    H127809   0.425   0.562   7.198  0.4204  0.2225 -0.0605
 2058TIP3    H227810   0.404   0.566   7.048 -2.2674 -0.1688  0.2537
 2059TIP3   OH227811   1.155   5.657   0.150  0.3122 -0.0220 -0.3575
 2059TIP3    H127812   1.150   5.571   0.191  1.2224  0.2839  0.4216
 2059TIP3    H227813   1.210   5.643   0.073  1.8219  0.1588  0.6458
 2060TIP3   OH227814   0.794   2.239   7.107  0.0827  0.3680 -0.2061
 2060TIP3    H127815   0.732   2.177   7.068  0.6550 -0.7945  0.6540
 2060TIP3    H227816   0.757   2.258   7.194  1.0219 -0.5588  0.4287
 2061TIP3   OH227817   6.024   3.699   8.806 -0.4386  0.1409 -0.4639
 2061TIP3    H127818   6.009   3.663   8.894 -1.2029 -1.1770 -1.0958
 2061TIP3    H227819   6.055   3.624   8.755 -1.4236  0.5288 -1.6664
 2062TIP3   OH227820   5.942   3.728   6.320 -0.5069 -0.1992  0.3333
 2062TIP3    H127821   5.935   3.777   6.401 -3.8045  0.7451 -0.3819
 2062TIP3    H227822   5.962   3.638   6.348 -0.1994  0.3672  2.0512
 2063TIP3   OH227823   2.045   1.812   0.019 -0.8867 -0.0707 -0.5047
 2063TIP3    H127824   1.995   1.892   0.039 -2.2078 -0.8749 -0.4725
 2063TIP3    H227825   2.006   1.745   0.076  1.5493 -0.3383  1.0033
 2064TIP3   OH227826   1.158   1.562   0.631  0.7380 -0.0330  0.1202
 2064TIP3    H127827   1.088   1.498   0.644  0.7290 -0.3139 -1.1458
 2064TIP3    H227828   1.238   1.510   0.634  0.7843  0.0281 -0.0489
 2065TIP3   OH227829   1.168   1.846   7.542 -0.1728 -0.2605  0.1803
 2065TIP3    H127830   1.105   1.875   7.608  1.1724 -0.4047  1.5773
 2065TIP3    H227831   1.239   1.910   7.547 -0.0979 -0.1943 -1.2531
 2066TIP3   OH227832   3.516   1.439   1.094  0.5533 -0.0443  0.0719
 2066TIP3    H127833   3.588   1.486   1.053 -2.1400  3.6764 -0.8244
 2066TIP3    H227834   3.453   1.424   1.024  0.0856 -2.6715  0.9435
 2067TIP3   OH227835   1.391   3.929   1.702  0.6168 -0.0165 -0.2758
 2067TIP3    H127836   1.478   3.935   1.742  0.3337  0.4755  0.2760
 2067TIP3    H227837   1.380   3.835   1.684  1.4917 -0.0151 -0.8858
 2068TIP3   OH227838   2.100   1.061   1.539  0.0468  0.1925 -0.1703
 2068TIP3    H127839   2.087   1.013   1.621 -0.4506  1.3852  0.4879
 2068TIP3    H227840   2.117   0.994   1.474 -0.5527 -0.8649  0.7241
 2069TIP3   OH227841   3.806   3.773   1.029  0.2371 -0.2606  0.0416
 2069TIP3    H127842   3.776   3.794   0.940  0.9920  0.1508 -0.1181
 2069TIP3    H227843   3.844   3.686   1.021 -1.2106 -0.9406  0.3185
 2070TIP3   OH227844   5.004   5.866   8.761 -0.2344 -0.1335 -0.0273
 2070TIP3    H127845   5.041   5.832   8.843  0.7677  1.9102  0.4388
 2070TIP3    H227846   4.909   5.863   8.775 -0.0773  0.5013  1.3631
 2071TIP3   OH227847   0.373   2.608   0.766  0.4671  0.1123 -0.5049
 2071TIP3    H127848   0.389   2.691   0.810 -0.9664  0.6808 -0.9964
 2071TIP3    H227849   0.311   2.629   0.696 -1.0864 -1.5971  0.2445
 2072TIP3   OH227850   3.680   0.805   2.641  0.3172  0.1645 -0.7498
 2072TIP3    H127851   3.611   0.824   2.705  1.0888  1.9879 -0.3881
 2072TIP3    H227852   3.671   0.711   2.622 -1.8948  0.2381 -0.3138
 2073TIP3   OH227853   0.300   0.398   8.607 -0.0742 -0.1562 -0.1692
 2073TIP3    H127854   0.309   0.321   8.663 -0.2070  1.6829  2.5798
 2073TIP3    H227855   0.206   0.415   8.604  0.0737  1.1453  1.1985
 2074TIP3   OH227856   4.766   3.272   8.475  0.4581  0.2771  0.2333
 2074TIP3    H127857   4.778   3.363   8.447 -0.2640  0.8940  1.8121
 2074TIP3    H227858   4.849   3.250   8.518  0.5528  0.2721  0.0472
 2075TIP3   OH227859   2.526   5.335   1.401  0.1481 -0.0240  0.0769
 2075TIP3    H127860   2.487   5.382   1.327 -1.5612  0.5234  1.2569
 2075TIP3    H227861   2.562   5.255   1.362  1.1231  1.1915 -1.6278
 2076TIP3   OH227862   1.295   5.247   1.300  1.0190  0.2707  0.7094
 2076TIP3    H127863   1.343   5.312   1.248  0.4203 -1.7623 -2.6768
 2076TIP3    H227864   1.204   5.277   1.297  0.7489 -0.6013 -0.8199
 2077TIP3   OH227865   4.483   1.282   2.413 -0.1047  0.4553  1.2263
 2077TIP3    H127866   4.420   1.347   2.382  1.1276  1.0829 -0.0275
 2077TIP3    H227867   4.550   1.332   2.458  1.2844  0.2122 -0.4541
 2078TIP3   OH227868   3.653   2.945   1.428 -0.3670  0.3326  0.1474
 2078TIP3    H127869   3.665   2.970   1.336  1.2734 -0.8036  0.0151
 2078TIP3    H227870   3.600   3.015   1.465  2.6639  3.2190 -0.5595
 2079TIP3   OH227871   1.183   0.076   8.295 -0.4814  0.1583 -0.0821
 2079TIP3    H127872   1.265   0.126   8.293 -0.2975 -0.1505 -0.2934
 2079TIP3    H227873   1.121   0.129   8.245 -0.3163  0.2244 -0.2163
 2080TIP3   OH227874   1.876   6.287   7.102 -0.4217  0.2561 -0.7362
 2080TIP3    H127875   1.843   6.327   7.022  0.0031  0.9316 -0.5766
 2080TIP3    H227876   1.885   6.359   7.164 -0.5987 -0.2347 -0.1232
 2081TIP3   OH227877   1.464   3.229   7.855 -0.8329  0.1515  0.2814
 2081TIP3    H127878   1.447   3.223   7.761  1.3406  0.7236 -0.1873
 2081TIP3    H227879   1.380   3.256   7.892 -1.7551 -0.1568 -1.4735
 2082TIP3   OH227880   4.191   2.862   1.750  0.0805  0.3397 -0.3821
 2082TIP3    H127881   4.273   2.849   1.797 -0.5270  0.1547  0.6598
 2082TIP3    H227882   4.174   2.956   1.756 -1.2964  0.0194  2.0993
 2083TIP3   OH227883   3.539   2.408   0.745  0.3809  0.3498 -0.4468
 2083TIP3    H127884   3.464   2.366   0.787  0.0870  1.6506  0.4085
 2083TIP3    H227885   3.526   2.502   0.762  3.1453  0.5192  1.3685
 2084TIP3   OH227886   1.215   6.543   1.719 -0.1671 -0.6775 -0.5355
 2084TIP3    H127887   1.204   6.559   1.812 -0.4709  0.1586 -0.7065
 2084TIP3    H227888   1.218   6.447   1.711 -1.9748 -0.8314  0.1335
 2085TIP3   OH227889   6.381   0.968   1.572  0.4056  0.1956 -0.0343
 2085TIP3    H127890   6.335   0.892   1.537 -2.3929  2.0736 -0.7635
 2085TIP3    H227891   6.391   0.948   1.666 -1.1393 -0.6827 -0.0236
 2086TIP3   OH227892   4.629   0.270   0.387 -0.3487 -0.0247  0.5118
 2086TIP3    H127893   4.551   0.311   0.425  0.0736  1.6016 -0.2897
 2086TIP3    H227894   4.645   0.318   0.306  0.8448 -1.0763  0.0843
 2087TIP3   OH227895   1.444   0.825   0.367  0.1338  0.3717  0.0449
 2087TIP3    H127896   1.431   0.743   0.320 -1.3029  0.3611  0.4145
 2087TIP3    H227897   1.451   0.799   0.459 -1.1723  0.7037  0.2583
 2088TIP3   OH227898   4.659   5.741   1.221  0.3359  0.4064 -0.1600
 2088TIP3    H127899   4.631   5.793   1.296  0.1121 -1.3173  1.0072
 2088TIP3    H227900   4.592   5.673   1.212  0.9807 -0.1163 -1.1659
 2089TIP3   OH227901   2.197   5.363   1.787  0.1574 -0.5204 -0.7270
 2089TIP3    H127902   2.286   5.356   1.753  0.8897  1.6127  0.5781
 2089TIP3    H227903   2.189   5.288   1.846  2.0102  0.5366  0.9883
 2090TIP3   OH227904   6.119   2.937   8.547 -0.2836 -0.0868 -0.4764
 2090TIP3    H127905   6.041   2.953   8.494 -1.0025 -1.1291  0.2278
 2090TIP3    H227906   6.090   2.874   8.613  0.3547  1.7465  1.6841
 2091TIP3   OH227907   0.353   1.391   7.984  0.0050  0.1354 -0.3725
 2091TIP3    H127908   0.264   1.427   7.974  0.6581  2.2198  0.8193
 2091TIP3    H227909   0.382   1.376   7.894 -1.2452  0.2577 -0.8186
 2092TIP3   OH227910   6.750   6.526   1.266 -0.1640 -0.2601  0.6047
 2092TIP3    H127911   6.756   6.602   1.209 -2.2745 -2.5131 -2.9947
 2092TIP3    H227912   6.842   6.501   1.282  0.6138 -0.1168 -2.8528
 2093TIP3   OH227913   4.202   5.853   6.770 -0.0359  0.2756  0.1651
 2093TIP3    H127914   4.231   5.896   6.690 -2.5856  1.0443 -0.4249
 2093TIP3    H227915   4.254   5.773   6.774  1.4188  1.0939 -1.2774
 2094TIP3   OH227916   3.564   6.146   1.778  0.2043  0.1602  0.1963
 2094TIP3    H127917   3.632   6.116   1.719 -0.7456  0.8734 -1.3389
 2094TIP3    H227918   3.488   6.091   1.759  0.1282 -0.1947  1.4126
 2095TIP3   OH227919   2.559   4.395   0.617  0.2839 -0.2015 -0.7292
 2095TIP3    H127920   2.469   4.363   0.615 -0.0355  0.6265 -0.0439
 2095TIP3    H227921   2.565   4.454   0.541 -0.6626  2.0378  0.8313
 2096TIP3   OH227922   1.580   1.029   0.434  0.6169 -0.3432  0.3457
 2096TIP3    H127923   1.533   0.951   0.403  2.0047 -0.0947 -2.7276
 2096TIP3    H227924   1.549   1.100   0.376  0.1749  1.2255  2.3889
 2097TIP3   OH227925   3.744   1.167   6.101 -0.4965  0.0582 -0.1878
 2097TIP3    H127926   3.791   1.094   6.141 -1.0522 -0.6539 -0.8048
 2097TIP3    H227927   3.708   1.217   6.175 -0.9064 -0.8272  0.2200
 2098TIP3   OH227928   5.136   3.125   8.173  0.2943  0.2546 -0.2739
 2098TIP3    H127929   5.046   3.093   8.164  0.0651  0.3170  1.3505
 2098TIP3    H227930   5.148   3.184   8.099 -1.5571  1.4555  0.3100
 2099TIP3   OH227931   2.851   2.815   0.896 -0.0186 -0.1176  0.0149
 2099TIP3    H127932   2.941   2.798   0.924  0.4944  0.9621 -0.8977
 2099TIP3    H227933   2.798   2.797   0.973  1.1345  0.6867  1.0314
 2100TIP3   OH227934   3.464   3.130   1.540 -0.3732  0.0939 -0.3704
 2100TIP3    H127935   3.406   3.148   1.466 -1.0319  1.0036  0.3475
 2100TIP3    H227936   3.410   3.146   1.618  0.4576 -0.3377  0.3139
 2101TIP3   OH227937   4.511   0.907   0.044 -0.1701 -0.0428 -0.1646
 2101TIP3    H127938   4.536   0.996   0.069  0.1551 -0.1916  0.0381
 2101TIP3    H227939   4.566   0.850   0.098 -0.3518 -0.3681 -0.3188
 2102TIP3   OH227940   0.319   3.098   1.406  0.4486 -0.0077  0.2096
 2102TIP3    H127941   0.382   3.035   1.440  0.0600 -0.6386 -0.2064
 2102TIP3    H227942   0.238   3.048   1.397 -0.0423  0.7229  0.4834
 2103TIP3   OH227943   6.564   3.579   8.479 -0.1816  0.6296 -0.7067
 2103TIP3    H127944   6.489   3.602   8.425 -0.7448  1.4314  0.3806
 2103TIP3    H227945   6.526   3.547   8.561  0.5993 -2.1774 -1.3104
 2104TIP3   OH227946   0.601   6.166   0.489 -0.4322  0.4189  0.0029
 2104TIP3    H127947   0.555   6.249   0.475 -0.0548  0.8708  1.3072
 2104TIP3    H227948   0.659   6.157   0.413 -0.2180  1.5256  0.0199
 2105TIP3   OH227949   3.566   0.612   7.948 -0.1137 -0.2473  0.2804
 2105TIP3    H127950   3.514   0.621   8.028 -1.2249  0.7360 -0.5294
 2105TIP3    H227951   3.537   0.529   7.910 -1.4807  0.5375 -0.4240
 2106TIP3   OH227952   6.020   0.263   1.294  0.1685 -0.1119 -0.5247
 2106TIP3    H127953   6.037   0.272   1.388 -3.2399  0.7099  0.1630
 2106TIP3    H227954   6.050   0.175   1.273 -1.0108 -1.2140  1.9465
 2107TIP3   OH227955   6.301   0.951   7.244 -0.7274 -0.0416  0.0778
 2107TIP3    H127956   6.301   0.883   7.311 -2.2475 -1.0642 -0.8888
 2107TIP3    H227957   6.393   0.960   7.219 -0.5165 -2.2891 -0.2448
 2108TIP3   OH227958   3.455   3.014   8.472  0.5061  0.2712  0.1309
 2108TIP3    H127959   3.445   3.009   8.567 -1.1974  2.5726  0.1661
 2108TIP3    H227960   3.550   3.019   8.458  0.7494  1.1110  1.8338
 2109TIP3   OH227961   6.820   2.511   8.653 -0.0498 -0.0682 -0.2194
 2109TIP3    H127962   6.869   2.483   8.730  0.9326  1.1048 -0.3879
 2109TIP3    H227963   6.731   2.527   8.685  0.5222  1.1112  0.8463
 2110TIP3   OH227964   0.571   6.451   7.757 -0.0942 -0.1615 -0.2207
 2110TIP3    H127965   0.519   6.470   7.835  0.1404 -0.6362  0.0518
 2110TIP3    H227966   0.613   6.535   7.735 -1.1880  0.3014 -0.6134
 2111TIP3   OH227967   2.459   3.671   8.465  0.5669  0.1065  0.1741
 2111TIP3    H127968   2.503   3.756   8.470 -0.8407  0.8553  0.4305
 2111TIP3    H227969   2.390   3.684   8.400  0.7912 -1.0753 -0.3285
 2112TIP3   OH227970   3.593   3.536   1.098 -0.0460  0.3384 -0.4335
 2112TIP3    H127971   3.638   3.494   1.025 -0.0381  0.9771 -0.7954
 2112TIP3    H227972   3.621   3.485   1.175  1.5894  0.9216 -0.5895
 2113TIP3   OH227973   2.701   1.693   2.060  0.1821  0.5819  0.0009
 2113TIP3    H127974   2.747   1.666   1.981 -0.0230  0.7563 -0.1782
 2113TIP3    H227975   2.749   1.650   2.131  1.4277  1.8171 -0.0620
 2114TIP3   OH227976   4.617   5.175   7.297 -0.5099  0.3956  0.2519
 2114TIP3    H127977   4.685   5.234   7.266  2.0567 -3.0536 -1.4485
 2114TIP3    H227978   4.618   5.186   7.392  4.1894 -0.8595  0.6442
 2115TIP3   OH227979   3.197   1.283   0.186 -0.0024 -0.4312 -0.1220
 2115TIP3    H127980   3.198   1.258   0.278  0.4407  0.9599  0.2721
 2115TIP3    H227981   3.158   1.371   0.185 -0.2423 -0.5305 -1.2880
 2116TIP3   OH227982   0.253   5.567   8.013 -0.0684 -0.6170 -0.2463
 2116TIP3    H127983   0.288   5.478   8.003  1.4835  0.0664 -1.2957
 2116TIP3    H227984   0.231   5.574   8.105  3.1301 -0.9701  0.6513
 2117TIP3   OH227985   1.277   4.888   2.235  0.1598 -0.8405  0.0929
 2117TIP3    H127986   1.354   4.911   2.287  2.0270  0.9961 -3.1829
 2117TIP3    H227987   1.288   4.794   2.218  0.4645 -1.0712  1.3998
 2118TIP3   OH227988   6.539   2.871   2.019  0.0618  0.0390  0.5093
 2118TIP3    H127989   6.581   2.792   2.055  0.0409 -0.3832 -0.3772
 2118TIP3    H227990   6.567   2.873   1.928 -2.2495 -0.5628 -0.2752
 2119TIP3   OH227991   4.332   0.689   0.822  0.6610 -0.4927  0.1973
 2119TIP3    H127992   4.249   0.651   0.795  0.9846 -0.9342 -0.1866
 2119TIP3    H227993   4.334   0.776   0.781  1.4373 -1.3964 -1.7738
 2120TIP3   OH227994   6.200   5.744   1.723 -0.2338 -0.2878  0.6677
 2120TIP3    H127995   6.291   5.741   1.694 -0.3980  0.5392 -0.0014
 2120TIP3    H227996   6.204   5.726   1.817  0.7897  1.1712  0.9478
 2121TIP3   OH227997   0.208   2.704   8.807  0.2900  0.1832 -0.5244
 2121TIP3    H127998   0.156   2.723   8.729  1.0886 -1.3554 -1.4712
 2121TIP3    H227999   0.299   2.713   8.778  0.5892  0.2465  0.4122
 2122TIP3   OH228000   6.027   1.033   8.635 -0.4818  0.3110 -0.0263
 2122TIP3    H128001   5.932   1.021   8.629 -0.2132 -1.7371 -1.0916
 2122TIP3    H228002   6.055   0.965   8.696  0.4150  0.2148 -0.5342
 2123TIP3   OH228003   5.217   0.646   6.517 -0.2306  0.4089  0.0643
 2123TIP3    H128004   5.201   0.735   6.550 -1.0567 -0.0165  0.8618
 2123TIP3    H228005   5.134   0.621   6.476 -0.2292 -0.2480  0.4522
 2124TIP3   OH228006   5.282   2.084   0.888  0.2471  0.2414 -0.1583
 2124TIP3    H128007   5.368   2.041   0.885  0.0083 -0.1795 -1.4498
 2124TIP3    H228008   5.245   2.059   0.973  1.0343 -0.2865  0.0365
 2125TIP3   OH228009   0.221   1.250   0.068  0.6771  0.1013 -0.1736
 2125TIP3    H128010   0.220   1.238  -0.027  0.1782  0.4363 -0.2148
 2125TIP3    H228011   0.307   1.286   0.087  1.0454 -0.6250 -0.4132
 2126TIP3   OH228012   6.037   1.896   0.475 -0.0577  0.3752  0.4749
 2126TIP3    H128013   5.959   1.849   0.448 -0.3262  0.6442  0.7796
 2126TIP3    H228014   6.016   1.988   0.459  0.7698  0.3629 -0.9471
 2127TIP3   OH228015   4.986   4.303   7.338  0.2554  0.0688  0.0551
 2127TIP3    H128016   5.035   4.288   7.257  0.1236 -0.5639  0.0864
 2127TIP3    H228017   5.049   4.341   7.398  0.4705  0.1165 -0.1997
 2128TIP3   OH228018   4.383   4.206   1.540  0.6906 -0.2073 -0.1426
 2128TIP3    H128019   4.308   4.216   1.598  1.4543 -1.5594  1.1623
 2128TIP3    H228020   4.425   4.291   1.540  0.0054  0.1426  0.3298
 2129TIP3   OH228021   3.517   0.690   6.807 -0.2527 -0.0225 -0.4942
 2129TIP3    H128022   3.592   0.648   6.850  1.1535  2.3666 -0.4158
 2129TIP3    H228023   3.458   0.618   6.785  1.6713 -1.9230  0.2173
 2130TIP3   OH228024   6.412   5.153   7.129  0.2748 -0.0095  0.5823
 2130TIP3    H128025   6.330   5.187   7.095 -0.4141 -1.6136  0.5350
 2130TIP3    H228026   6.455   5.112   7.054  0.0642 -1.0943  1.0209
 2131TIP3   OH228027   0.926   2.149   0.292  0.2691 -0.1410 -0.1771
 2131TIP3    H128028   0.886   2.121   0.374 -0.6007  2.5654  0.4035
 2131TIP3    H228029   0.853   2.179   0.238  0.9651 -0.7062 -1.4855
 2132TIP3   OH228030   3.817   4.449   8.134 -0.2954 -0.6472 -0.0864
 2132TIP3    H128031   3.851   4.526   8.181 -1.7333 -0.2511  0.3465
 2132TIP3    H228032   3.813   4.380   8.200  0.0602 -0.8264 -0.2452
 2133TIP3   OH228033   4.798   2.108   0.244 -0.2454  0.3679 -0.6774
 2133TIP3    H128034   4.789   2.165   0.168  0.7423  0.1023 -1.0087
 2133TIP3    H228035   4.870   2.145   0.294  0.6358 -0.7495 -1.0671
 2134TIP3   OH228036   0.743   2.599   1.328  0.0139  0.2407 -0.4469
 2134TIP3    H128037   0.664   2.549   1.349 -1.4244  2.3553 -0.4323
 2134TIP3    H228038   0.762   2.648   1.409  0.7519  0.4917 -0.7623
 2135TIP3   OH228039   1.682   4.897   0.933  0.4412 -0.1377  0.2299
 2135TIP3    H128040   1.711   4.883   1.023 -1.6894 -1.6252  0.7783
 2135TIP3    H228041   1.702   4.814   0.888  2.2087  0.8657 -0.9272
 2136TIP3   OH228042   3.460   4.364   0.708 -0.0096  0.4360  0.1343
 2136TIP3    H128043   3.504   4.440   0.748  0.2052 -0.4467  1.6651
 2136TIP3    H228044   3.524   4.294   0.714 -0.1745  0.1296 -1.3588
 2137TIP3   OH228045   5.311   0.050   1.184 -0.0171 -0.0596 -0.2828
 2137TIP3    H128046   5.404   0.038   1.206  0.3678 -0.6897 -2.1254
 2137TIP3    H228047   5.286   0.130   1.231  1.5255  0.2660  0.0549
 2138TIP3   OH228048   1.271   3.666   1.493 -0.5739 -0.2062  0.8050
 2138TIP3    H128049   1.212   3.665   1.569 -1.7370 -0.1902 -0.0588
 2138TIP3    H228050   1.297   3.757   1.483 -1.8672  0.1198  0.1460
 2139TIP3   OH228051   2.098   2.707   7.730 -0.6461 -0.1915  0.0518
 2139TIP3    H128052   2.178   2.739   7.771  0.8096  0.4173 -2.9982
 2139TIP3    H228053   2.101   2.612   7.742 -1.1573  0.0575  2.6673
 2140TIP3   OH228054   0.360   2.605   1.521 -0.0340 -0.0600 -0.0440
 2140TIP3    H128055   0.417   2.660   1.575 -0.5884 -0.2527  0.7522
 2140TIP3    H228056   0.272   2.618   1.557 -0.8024  1.5869 -2.3561
 2141TIP3   OH228057   4.237   1.656   7.081  0.2451 -0.3284 -0.6364
 2141TIP3    H128058   4.154   1.679   7.123  0.5970  2.2002 -1.1955
 2141TIP3    H228059   4.227   1.687   6.991  1.8231  0.0564 -0.6913
 2142TIP3   OH228060   5.632   1.321   8.576 -0.1047  0.0299 -0.2957
 2142TIP3    H128061   5.594   1.404   8.603 -0.7541 -0.3306 -0.0776
 2142TIP3    H228062   5.624   1.265   8.653 -1.3773 -0.8064 -1.0084
 2143TIP3   OH228063   4.554   4.531   7.755  0.2900  0.0335 -0.3628
 2143TIP3    H128064   4.607   4.608   7.733 -1.5287  1.4518 -0.0685
 2143TIP3    H228065   4.546   4.534   7.850  1.6009 -1.5458 -0.1640
 2144TIP3   OH228066   4.453   2.804   7.646 -0.1525 -0.0188 -0.2647
 2144TIP3    H128067   4.374   2.776   7.693  0.3148  1.1528  1.2882
 2144TIP3    H228068   4.425   2.880   7.595 -0.3914 -0.6299 -1.0871
 2145TIP3   OH228069   3.191   0.521   1.085 -0.6466 -0.5204  0.3594
 2145TIP3    H128070   3.119   0.510   1.147 -1.9873 -0.6898 -1.1752
 2145TIP3    H228071   3.149   0.531   1.000  1.1784 -2.6826 -0.9084
 2146TIP3   OH228072   3.274   3.790   0.137  0.2016 -0.1512 -0.4471
 2146TIP3    H128073   3.306   3.815   0.050  1.7531  1.8034  0.5961
 2146TIP3    H228074   3.226   3.867   0.167  1.8548  0.2601  1.3823
 2147TIP3   OH228075   5.408   0.602   7.677 -0.5641  0.0954  0.2324
 2147TIP3    H128076   5.351   0.550   7.621  0.1919  0.1642 -0.6241
 2147TIP3    H228077   5.350   0.641   7.742 -1.4852  0.1690 -0.6246
 2148TIP3   OH228078   1.155   4.729   0.652  0.4911 -0.4850  0.1629
 2148TIP3    H128079   1.109   4.652   0.621  0.1757 -0.1568 -0.1844
 2148TIP3    H228080   1.138   4.796   0.586  1.8818 -0.4987 -0.2453
 2149TIP3   OH228081   2.246   1.748   7.055 -0.3108 -0.3276  0.0556
 2149TIP3    H128082   2.269   1.660   7.025 -1.7340  0.1361 -2.6989
 2149TIP3    H228083   2.316   1.804   7.022 -1.7469  0.1454 -2.4584
 2150TIP3   OH228084   5.751   4.678   7.964  0.2878  0.0999  0.3483
 2150TIP3    H128085   5.784   4.765   7.987 -1.3625  0.7817  0.2798
 2150TIP3    H228086   5.737   4.683   7.869  1.7481 -0.8272  0.0483
 2151TIP3   OH228087   1.722   0.033   7.408  0.6784 -0.3417  0.2900
 2151TIP3    H128088   1.645   0.028   7.465 -0.0991  0.2377 -0.6741
 2151TIP3    H228089   1.691   0.002   7.323  0.9124  1.8805 -0.6774
 2152TIP3   OH228090   4.176   1.181   0.521  0.5860 -0.0158  0.4598
 2152TIP3    H128091   4.216   1.262   0.552  0.7907  0.0916 -0.0659
 2152TIP3    H228092   4.123   1.150   0.594  0.3366  0.7046  0.5895
 2153TIP3   OH228093   4.156   4.784   7.362 -0.0267  0.0579 -0.0044
 2153TIP3    H128094   4.166   4.847   7.290  2.0701 -1.0985 -0.8209
 2153TIP3    H228095   4.076   4.736   7.340 -1.3441  1.9967  0.3366
 2154TIP3   OH228096   3.710   4.602   0.631 -0.0101  0.3893  0.4010
 2154TIP3    H128097   3.684   4.620   0.541 -0.2845 -0.7774  0.2288
 2154TIP3    H228098   3.793   4.556   0.624 -1.1109 -1.7951  0.5627
 2155TIP3   OH228099   1.892   1.690   1.150 -0.2727  0.3812  0.1175
 2155TIP3    H128100   1.811   1.736   1.171 -0.6622  0.7429 -1.9971
 2155TIP3    H228101   1.885   1.668   1.057  1.4390 -0.8594  0.2237
 2156TIP3   OH228102   1.924   2.284   8.147 -0.3896 -0.0898  0.3350
 2156TIP3    H128103   1.985   2.319   8.212  0.5677 -1.1411  0.0411
 2156TIP3    H228104   1.874   2.218   8.195 -1.3569  0.7983  0.5846
 2157TIP3   OH228105   0.183   1.899   6.967 -0.6028 -0.6071  0.4695
 2157TIP3    H128106   0.119   1.969   6.978 -1.2035 -0.5910 -2.3200
 2157TIP3    H228107   0.259   1.941   6.926 -0.0320 -1.2059  0.8712
 2158TIP3   OH228108   2.086   5.553   6.977 -0.1083 -0.2549 -0.3094
 2158TIP3    H128109   2.041   5.557   7.061 -1.1670  1.3854 -0.9033
 2158TIP3    H228110   2.041   5.618   6.923  1.2475 -0.5079 -1.8046
 2159TIP3   OH228111   0.791   1.789   7.253  0.0761  0.5358  0.0650
 2159TIP3    H128112   0.706   1.746   7.246  0.7241 -1.1179  1.6603
 2159TIP3    H228113   0.834   1.772   7.170 -0.1636 -0.8714  0.2178
 2160TIP3   OH228114   4.493   3.232   6.573 -0.3180 -0.2279 -0.3116
 2160TIP3    H128115   4.540   3.313   6.589 -3.6104  1.5009  1.9400
 2160TIP3    H228116   4.485   3.191   6.660 -2.5330 -0.5497 -0.6057
 2161TIP3   OH228117   0.048   0.235   7.732  0.2097 -0.0161  0.0790
 2161TIP3    H128118   0.096   0.153   7.743  0.0446 -0.2057 -0.6287
 2161TIP3    H228119   0.070   0.265   7.644 -1.1071 -0.1909 -0.3287
 2162TIP3   OH228120   4.168   6.211   6.299 -0.0417 -0.2170 -0.3072
 2162TIP3    H128121   4.232   6.280   6.313  0.5387 -0.6403 -0.8313
 2162TIP3    H228122   4.084   6.256   6.301  0.2064  0.2329  1.1475
 2163TIP3   OH228123   2.295   2.333   8.755  0.0288  0.2508 -0.0604
 2163TIP3    H128124   2.273   2.373   8.839  1.3065  3.5911 -1.1658
 2163TIP3    H228125   2.368   2.385   8.722  0.2207 -1.5694 -2.8355
 2164TIP3   OH228126   5.292   1.560   7.430 -0.1381  1.0021 -0.1861
 2164TIP3    H128127   5.298   1.485   7.489 -0.3778  1.8889  1.0270
 2164TIP3    H228128   5.382   1.582   7.409  0.0510  1.5341  1.0469
 2165TIP3   OH228129   5.385   2.806   8.837 -0.1272 -0.0475 -0.0541
 2165TIP3    H128130   5.407   2.719   8.803 -0.4524  0.1587 -0.7958
 2165TIP3    H228131   5.407   2.867   8.767 -0.9848  0.3602  0.0178
 2166TIP3   OH228132   0.204   2.830   7.851  0.2286  0.4894  0.2517
 2166TIP3    H128133   0.272   2.888   7.884  0.1424  2.8021 -3.1326
 2166TIP3    H228134   0.141   2.823   7.923  2.2399  1.1819  2.1873
 2167TIP3   OH228135   3.592   4.552   0.085 -0.3404  0.0025  0.6011
 2167TIP3    H128136   3.555   4.614   0.022  0.4788  1.0615  1.1398
 2167TIP3    H228137   3.517   4.523   0.137 -0.7028  0.6631  0.4499
 2168TIP3   OH228138   2.508   6.457   6.803  0.0913  0.1670 -0.3733
 2168TIP3    H128139   2.523   6.533   6.747  1.2115  0.5065  0.3424
 2168TIP3    H228140   2.591   6.444   6.849 -0.9694  0.3637  1.7308
 2169TIP3   OH228141   3.719   0.574   0.692 -0.0023 -0.6329  0.2125
 2169TIP3    H128142   3.760   0.648   0.648 -0.8097 -0.5482 -0.4270
 2169TIP3    H228143   3.782   0.547   0.759  1.1025 -0.5326 -0.7510
 2170TIP3   OH228144   2.062   1.931   1.723  0.5755  0.4860 -0.4467
 2170TIP3    H128145   1.967   1.941   1.733  0.6681  0.4377  0.6297
 2170TIP3    H228146   2.073   1.898   1.634 -0.3496  1.3677 -0.9133
 2171TIP3   OH228147   0.870   2.728   0.758 -0.4641 -0.3552  0.7060
 2171TIP3    H128148   0.869   2.807   0.812 -0.0895 -1.0642  1.7640
 2171TIP3    H228149   0.779   2.719   0.727 -0.6791  0.0450  1.2075
 2172TIP3   OH228150   3.093   2.830   0.491  0.6146 -0.0035  0.2631
 2172TIP3    H128151   3.158   2.801   0.427 -0.4011 -0.9452 -0.3888
 2172TIP3    H228152   3.093   2.761   0.557 -0.6449 -0.7085 -0.4372
 2173TIP3   OH228153   2.759   4.111   7.612 -1.1438 -0.6460 -0.2494
 2173TIP3    H128154   2.766   4.063   7.694 -1.5265  0.8198  0.6635
 2173TIP3    H228155   2.845   4.103   7.572 -0.4093  0.0661  1.1329
 2174TIP3   OH228156   6.489   6.550   0.246  0.0508  0.5238 -0.4567
 2174TIP3    H128157   6.444   6.470   0.221  0.0474  0.2701  0.3240
 2174TIP3    H228158   6.500   6.543   0.341 -3.0390  2.9985  0.2660
 2175TIP3   OH228159   4.763   3.710   0.595  0.4662 -0.2357  0.0059
 2175TIP3    H128160   4.740   3.617   0.585  0.2940 -0.1153 -0.8414
 2175TIP3    H228161   4.851   3.709   0.634  0.9589 -0.7922 -1.0657
 2176TIP3   OH228162   5.653   5.852   8.561  0.3649 -0.0085 -0.6608
 2176TIP3    H128163   5.576   5.906   8.547  0.1824  0.0724  0.5359
 2176TIP3    H228164   5.636   5.772   8.511 -0.9527 -0.4000  0.3570
 2177TIP3   OH228165   1.047   0.001   1.268  0.2714  0.5441 -0.1356
 2177TIP3    H128166   1.114  -0.032   1.327 -0.0085 -0.4607 -0.3533
 2177TIP3    H228167   1.094   0.058   1.207  0.9023  0.0009 -0.1698
 2178TIP3   OH228168   3.636   4.139   7.904  0.2808 -0.1165  0.0598
 2178TIP3    H128169   3.599   4.051   7.908 -1.0175  0.2996 -1.6281
 2178TIP3    H228170   3.689   4.139   7.824 -2.4964  1.5420 -1.9542
 2179TIP3   OH228171   5.950   1.094   6.439 -0.2157 -0.2013  0.0858
 2179TIP3    H128172   5.992   1.068   6.522 -0.7817  0.6820  0.6639
 2179TIP3    H228173   5.918   1.012   6.402  3.2397 -1.2020 -1.1295
 2180TIP3   OH228174   1.338   3.296   1.846 -0.3754  0.3189 -0.4131
 2180TIP3    H128175   1.291   3.238   1.906  2.1045 -0.4647  0.9283
 2180TIP3    H228176   1.403   3.240   1.804 -0.5253  1.3564 -2.1169
 2181TIP3   OH228177   0.170   3.312   1.465 -0.1752  0.2191 -0.0334
 2181TIP3    H128178   0.212   3.228   1.447 -0.9092 -0.6081  1.7791
 2181TIP3    H228179   0.221   3.350   1.536 -2.1568 -0.6834  2.0237
 2182TIP3   OH228180   0.744   0.769   8.714  0.2784  0.8295 -0.2552
 2182TIP3    H128181   0.739   0.864   8.719 -2.0257  0.7927 -0.4623
 2182TIP3    H228182   0.697   0.746   8.634  1.5907 -0.4614 -0.7020
 2183TIP3   OH228183   6.557   1.877   7.276  0.3337  0.6759  0.3458
 2183TIP3    H128184   6.463   1.882   7.258  0.5915  1.5764 -0.9054
 2183TIP3    H228185   6.598   1.897   7.192  1.6614 -0.6486  0.6352
 2184TIP3   OH228186   4.133   4.793   6.662 -0.4360 -0.4819 -0.2320
 2184TIP3    H128187   4.124   4.770   6.754 -0.9755 -2.4394 -0.7259
 2184TIP3    H228188   4.205   4.856   6.660 -1.0502  0.3549  1.6168
 2185TIP3   OH228189   2.043   4.316   8.505  0.3673 -0.1485 -0.5666
 2185TIP3    H128190   1.973   4.319   8.570  0.8944 -2.0501  0.1399
 2185TIP3    H228191   2.112   4.264   8.547  2.7722  2.6380 -0.7253
 2186TIP3   OH228192   5.676   5.245   7.881 -0.3398 -0.7169  0.1427
 2186TIP3    H128193   5.623   5.172   7.914 -0.8390 -0.2233  0.4571
 2186TIP3    H228194   5.736   5.264   7.953 -1.0447 -0.0141  0.5585
 2187TIP3   OH228195   2.732   1.328   1.772  0.2340 -0.1746  0.1032
 2187TIP3    H128196   2.763   1.403   1.721 -1.5815 -0.0580 -0.8964
 2187TIP3    H228197   2.752   1.252   1.717  0.3139 -0.2453  0.2310
 2188TIP3   OH228198   4.531   0.201   0.715  0.0493  0.1221 -0.1450
 2188TIP3    H128199   4.562   0.284   0.751  0.4283  0.3009 -0.8762
 2188TIP3    H228200   4.592   0.136   0.750  1.3233  0.4821 -1.6289
 2189TIP3   OH228201   6.241   4.468   1.949 -0.3433  0.0622 -0.3675
 2189TIP3    H128202   6.177   4.519   1.999 -0.7952 -1.0438  0.2135
 2189TIP3    H228203   6.290   4.533   1.899 -0.5672  1.1028  0.7426
 2190TIP3   OH228204   3.268   5.981   8.581 -0.2484  0.3114 -0.2136
 2190TIP3    H128205   3.259   5.923   8.506  0.5201 -0.5161  0.3122
 2190TIP3    H228206   3.201   6.048   8.568 -1.2668 -0.7781 -0.7540
 2191TIP3   OH228207   5.458   1.047   1.013 -0.2002 -0.6532  0.0887
 2191TIP3    H128208   5.372   1.009   1.032  0.2023 -1.3379  0.6096
 2191TIP3    H228209   5.519   0.974   1.024  0.2588 -0.7164 -2.3079
 2192TIP3   OH228210   5.944   1.895   8.473 -0.2065  0.0233 -0.4458
 2192TIP3    H128211   5.878   1.826   8.474  0.8024 -0.9785  0.9959
 2192TIP3    H228212   5.933   1.940   8.557  2.7969 -2.1095  1.2829
 2193TIP3   OH228213   3.493   1.177   1.660  0.1814 -0.1010  0.4969
 2193TIP3    H128214   3.579   1.217   1.676 -0.1037  0.3520  0.9054
 2193TIP3    H228215   3.448   1.183   1.744  0.1706 -1.3992  0.6075
 2194TIP3   OH228216   6.259   0.383   8.066  0.1058  0.1309  0.3246
 2194TIP3    H128217   6.312   0.457   8.095 -0.2381  1.4155 -2.1108
 2194TIP3    H228218   6.323   0.321   8.030  0.1366  1.1396 -1.4730
 2195TIP3   OH228219   2.655   6.591   7.083  0.2210 -0.4405 -0.1578
 2195TIP3    H128220   2.619   6.508   7.051  0.8801 -0.4544 -0.9181
 2195TIP3    H228221   2.662   6.579   7.177 -2.2948 -0.2080  0.1064
 2196TIP3   OH228222   3.475   1.338   1.897 -0.8326  0.6559  0.1600
 2196TIP3    H128223   3.389   1.353   1.936 -0.0666  1.6443  1.5463
 2196TIP3    H228224   3.516   1.273   1.953 -0.5297  0.4535 -0.2914
 2197TIP3   OH228225   5.181   4.208   8.438 -0.8463  0.2000 -0.1496
 2197TIP3    H128226   5.197   4.226   8.531  2.7956 -0.3750 -0.5306
 2197TIP3    H228227   5.232   4.275   8.392 -1.0005 -0.7065 -1.7040
 2198TIP3   OH228228   1.153   5.512   8.755  0.5525  0.1024 -0.3817
 2198TIP3    H128229   1.127   5.536   8.666 -1.1702  1.1284  0.3327
 2198TIP3    H228230   1.087   5.449   8.783  2.0906 -1.5902 -0.4004
 2199TIP3   OH228231   0.968   0.682   7.387 -0.2666  0.4757 -0.3913
 2199TIP3    H128232   0.897   0.745   7.376 -1.3718 -0.6271  0.1401
 2199TIP3    H228233   1.048   0.734   7.379 -1.1370  1.9555  0.1489
 2200TIP3   OH228234   2.041   4.975   7.473 -0.4177  0.0482  0.3173
 2200TIP3    H128235   2.050   4.887   7.436 -0.9298  0.2730 -0.3907
 2200TIP3    H228236   2.116   5.024   7.438  0.2550 -0.2797  1.2738
 2201TIP3   OH228237   2.349   1.801   1.341  0.2051 -0.2366  0.2556
 2201TIP3    H128238   2.438   1.769   1.328  0.1117 -0.5024  0.2755
 2201TIP3    H228239   2.300   1.765   1.267 -0.3272 -1.7370  1.3016
 2202TIP3   OH228240   2.565   1.748   1.149  0.6177 -0.0486 -0.0493
 2202TIP3    H128241   2.640   1.807   1.140  0.2007  0.7022  1.1751
 2202TIP3    H228242   2.500   1.784   1.089  0.0805  1.2442  1.2558
 2203TIP3   OH228243   4.338   2.373   1.246 -1.0036  0.1878  0.2441
 2203TIP3    H128244   4.312   2.325   1.168 -1.8051  1.3402 -0.2155
 2203TIP3    H228245   4.433   2.360   1.251 -0.9030  0.3086 -1.0688
 2204TIP3   OH228246   5.620   6.279   8.138  0.1777 -0.8017  0.1551
 2204TIP3    H128247   5.670   6.208   8.099  1.7248 -0.2587  1.0399
 2204TIP3    H228248   5.531   6.245   8.147  0.7033 -2.3117 -0.2100
 2205TIP3   OH228249   2.923   6.579   6.797  0.2356 -0.2534 -0.1581
 2205TIP3    H128250   2.925   6.483   6.802  0.2403 -0.2199  0.5163
 2205TIP3    H228251   3.015   6.605   6.807 -0.0495 -0.0591  2.3978
 2206TIP3   OH228252   5.556   3.226   6.811  0.6506  0.4534 -0.3864
 2206TIP3    H128253   5.500   3.218   6.889  2.3249 -1.5604  0.7266
 2206TIP3    H228254   5.553   3.139   6.771  3.0847  0.1905 -0.1548
 2207TIP3   OH228255   3.154   2.007   8.664  0.7640  0.2330  0.1674
 2207TIP3    H128256   3.105   1.995   8.583 -0.2090 -0.3787  0.8289
 2207TIP3    H228257   3.139   2.099   8.688  0.2650  0.1571  0.1556
 2208TIP3   OH228258   4.923   1.212   8.326  0.0680 -0.4039 -0.3189
 2208TIP3    H128259   4.945   1.160   8.403  3.7861  3.1154  1.3729
 2208TIP3    H228260   4.964   1.166   8.253 -1.0089 -2.2821  0.2034
 2209TIP3   OH228261   1.643   3.474   7.750  0.1037 -0.0045 -0.7702
 2209TIP3    H128262   1.739   3.476   7.751  0.1204  0.1314 -1.7157
 2209TIP3    H228263   1.621   3.386   7.721 -0.0745 -0.1676 -0.1622
 2210TIP3   OH228264   4.266   2.673   6.786 -0.1789  0.2755 -0.0123
 2210TIP3    H128265   4.305   2.606   6.730  1.1081  0.7845  0.2318
 2210TIP3    H228266   4.209   2.723   6.728 -0.3726 -0.3932 -0.4147
 2211TIP3   OH228267   5.643   4.272   1.631 -0.5420  0.2083 -0.7862
 2211TIP3    H128268   5.616   4.364   1.622 -0.3412  0.2455 -1.0220
 2211TIP3    H228269   5.732   4.277   1.665 -0.4778  0.1045 -0.9381
 2212TIP3   OH228270   6.276   4.328   7.440 -0.1049 -0.1182 -0.6109
 2212TIP3    H128271   6.301   4.238   7.418 -0.1594 -0.2588 -0.0968
 2212TIP3    H228272   6.318   4.346   7.523  2.9681  1.6080 -2.3491
 2213TIP3   OH228273   2.999   3.196   0.836  0.1665  0.8457 -0.2220
 2213TIP3    H128274   3.057   3.138   0.885 -0.9012 -0.2687 -0.2354
 2213TIP3    H228275   3.015   3.175   0.744 -1.2694 -0.5293 -0.1956
 2214TIP3   OH228276   0.083   6.459   8.016  0.4499 -0.3781  0.3754
 2214TIP3    H128277   0.029   6.538   8.011 -0.6199 -1.0456  0.9172
 2214TIP3    H228278   0.158   6.477   7.960  0.6479  1.3455  1.1401
 2215TIP3   OH228279   3.796   2.600   7.336  0.3057  0.2831  0.1428
 2215TIP3    H128280   3.803   2.634   7.247  1.0616  1.6323  0.6909
 2215TIP3    H228281   3.714   2.637   7.370  0.3089  0.2416  0.1960
 2216TIP3   OH228282   3.554   0.461   8.837  0.8287 -0.1552  0.3742
 2216TIP3    H128283   3.593   0.398   8.898  2.8080 -0.4237 -1.0892
 2216TIP3    H228284   3.592   0.545   8.861  0.9550 -0.1189  0.0538
 2217TIP3   OH228285   3.142   1.966   0.747  0.2635 -0.1045  0.1942
 2217TIP3    H128286   3.123   1.890   0.692 -0.9044 -0.1848  0.6735
 2217TIP3    H228287   3.195   2.023   0.692 -1.3289  0.0760 -1.2493
 2218TIP3   OH228288   5.549   2.179   8.723  0.3118 -0.0614 -0.0408
 2218TIP3    H128289   5.618   2.210   8.663  0.9470 -1.8942 -0.3054
 2218TIP3    H228290   5.472   2.230   8.698  1.2593  1.1913 -0.5387
 2219TIP3   OH228291   5.268   0.409   8.532 -0.0472 -0.4046 -0.1317
 2219TIP3    H128292   5.241   0.500   8.530  0.6954 -0.1454  0.9138
 2219TIP3    H228293   5.207   0.366   8.592 -0.2845 -0.5585 -0.4820
 2220TIP3   OH228294   2.194   3.508   1.331  0.1210  0.0110 -0.4945
 2220TIP3    H128295   2.207   3.423   1.374  2.3282 -0.2017 -1.4599
 2220TIP3    H228296   2.282   3.541   1.316 -0.6765  2.9274  0.6127
 2221TIP3   OH228297   0.045   4.590   0.390  0.4018 -0.3281 -0.6246
 2221TIP3    H128298   0.140   4.596   0.382  0.7815 -0.5948  2.4215
 2221TIP3    H228299   0.017   4.542   0.312  2.3880  1.9163 -2.9190
 2222TIP3   OH228300   1.282   6.080   8.593 -0.6105  0.5549 -0.0957
 2222TIP3    H128301   1.291   6.054   8.501 -0.7600  0.5961 -0.1207
 2222TIP3    H228302   1.372   6.087   8.624 -0.5300 -1.7451  0.4132
 2223TIP3   OH228303   0.073   2.614   8.283 -0.0369 -0.0333  0.2325
 2223TIP3    H128304   0.131   2.586   8.212  1.4657  0.4930  1.2128
 2223TIP3    H228305   0.106   2.699   8.309 -0.3390 -0.3600  1.7965
 2224TIP3   OH228306   3.615   6.403   0.576  0.2871  0.1284  0.0943
 2224TIP3    H128307   3.694   6.441   0.538  1.2327  0.3491  2.1466
 2224TIP3    H228308   3.569   6.476   0.617 -0.2958 -0.2096  0.0631
 2225TIP3   OH228309   5.097   5.731   8.200 -0.0081 -0.1906 -0.0401
 2225TIP3    H128310   5.144   5.665   8.252  0.6384  1.7991  2.0640
 2225TIP3    H228311   5.100   5.810   8.254 -2.7860  0.9674 -1.3935
 2226TIP3   OH228312   2.784   4.253   0.516  0.0008 -0.0756 -0.0558
 2226TIP3    H128313   2.826   4.208   0.589 -0.6681 -0.6302 -0.0002
 2226TIP3    H228314   2.699   4.280   0.550 -0.1867 -0.0589 -0.5271
 2227TIP3   OH228315   5.189   5.166   7.918  0.2381  0.3080 -0.4843
 2227TIP3    H128316   5.102   5.140   7.947  0.8177 -1.0366  0.1638
 2227TIP3    H228317   5.228   5.212   7.993  0.6251 -0.4525 -0.2066
 2228TIP3   OH228318   0.183   0.654   7.425 -0.1827 -0.0329 -0.0698
 2228TIP3    H128319   0.253   0.676   7.363  0.4371  1.6152  1.1468
 2228TIP3    H228320   0.126   0.731   7.425 -1.9856 -1.2959 -0.9409
 2229TIP3   OH228321   1.094   4.796   7.308 -0.1705 -1.0133  0.4205
 2229TIP3    H128322   1.162   4.848   7.264  0.3151 -0.7301  1.4749
 2229TIP3    H228323   1.012   4.840   7.287  0.1408 -0.3883  0.4979
 2230TIP3   OH228324   1.950   2.098   0.218  0.3874 -0.0574 -0.0532
 2230TIP3    H128325   2.021   2.082   0.280 -0.6422 -2.2675  0.6278
 2230TIP3    H228326   1.911   2.181   0.248  1.1536 -0.0643  1.0186
 2231TIP3   OH228327   1.195   4.138   2.328 -0.1862 -0.7104 -0.1236
 2231TIP3    H128328   1.284   4.165   2.307 -0.2591 -0.8380 -0.5980
 2231TIP3    H228329   1.146   4.220   2.336  0.4893 -0.4791  2.6029
 2232TIP3   OH228330   4.811   6.291   7.044  0.3058 -0.5306  0.6978
 2232TIP3    H128331   4.754   6.221   7.075 -1.5264  0.6534  0.1187
 2232TIP3    H228332   4.835   6.340   7.122  0.4093 -0.9359  0.9215
 2233TIP3   OH228333   0.291   2.598   8.538  0.0993  0.3885 -0.0392
 2233TIP3    H128334   0.283   2.693   8.533  0.1898  0.4712  1.0496
 2233TIP3    H228335   0.368   2.583   8.594 -1.2588 -0.2847  1.7414
 2234TIP3   OH228336   2.764   1.265   7.810  0.4637  0.1853 -0.0015
 2234TIP3    H128337   2.779   1.334   7.746  3.6724 -0.6955 -0.3710
 2234TIP3    H228338   2.743   1.188   7.758  3.0149 -0.5174 -0.1425
 2235TIP3   OH228339   4.049   2.268   0.687 -0.5032 -0.0715 -0.6782
 2235TIP3    H128340   3.966   2.293   0.729  0.0630 -0.5351  0.7792
 2235TIP3    H228341   4.022   2.228   0.605 -1.5538  3.0652 -2.0421
 2236TIP3   OH228342   3.641   5.831   8.756 -0.0233 -0.1018 -0.3038
 2236TIP3    H128343   3.641   5.926   8.768 -0.4115 -0.0006 -1.0654
 2236TIP3    H228344   3.570   5.800   8.813  1.2506 -0.1378  1.3306
 2237TIP3   OH228345   5.008   2.629   6.908  0.1540 -0.4011 -0.4337
 2237TIP3    H128346   4.964   2.555   6.949 -0.5742  1.4137  2.3176
 2237TIP3    H228347   4.947   2.701   6.916  1.8548  1.1336 -0.6214
 2238TIP3   OH228348   4.269   4.540   1.865  0.3516  0.4804 -0.5095
 2238TIP3    H128349   4.202   4.551   1.797  1.5848  0.7836 -1.7213
 2238TIP3    H228350   4.251   4.609   1.928 -0.8986  0.1136 -0.4393
 2239TIP3   OH228351   4.822   5.232   6.904  0.2784 -0.7864 -0.2543
 2239TIP3    H128352   4.808   5.325   6.889  2.5486 -0.1751  0.9313
 2239TIP3    H228353   4.851   5.198   6.819  0.3001 -0.2317 -0.4711
 2240TIP3   OH228354   5.528   0.057   7.293  0.4723  0.1823  0.0618
 2240TIP3    H128355   5.589  -0.010   7.324  0.5110  0.2591  0.1525
 2240TIP3    H228356   5.552   0.071   7.202  0.7210  0.3579  0.1550
 2241TIP3   OH228357   5.777   0.184   1.237 -0.0754 -0.1616  0.5614
 2241TIP3    H128358   5.741   0.216   1.154 -1.2492  0.1386  1.1679
 2241TIP3    H228359   5.855   0.238   1.252  0.5655 -0.6960 -0.6805
 2242TIP3   OH228360   6.263   6.484   8.136  0.2423 -0.0368 -0.1047
 2242TIP3    H128361   6.222   6.398   8.127  0.8103 -0.4555  1.0828
 2242TIP3    H228362   6.236   6.514   8.223  1.4550  0.2171  0.1949
 2243TIP3   OH228363   2.908   5.391   7.289  0.0382 -0.1958  0.4291
 2243TIP3    H128364   2.948   5.478   7.294  0.6770 -0.4527 -0.0587
 2243TIP3    H228365   2.982   5.331   7.296 -0.2267 -0.6739 -0.7651
 2244TIP3   OH228366   6.110   1.203   8.414 -0.3063  0.4729 -0.4669
 2244TIP3    H128367   6.056   1.153   8.475 -1.9487  0.1000 -2.1097
 2244TIP3    H228368   6.184   1.146   8.396 -1.1746 -0.5839 -0.8315
 2245TIP3   OH228369   1.538   5.723   1.593  0.3526 -0.0357  0.3085
 2245TIP3    H128370   1.547   5.773   1.674 -2.6640 -1.4906  1.6930
 2245TIP3    H228371   1.624   5.729   1.551  1.1753  3.1723  2.1553
 2246TIP3   OH228372   6.302   0.456   7.772 -0.0647  0.1284 -0.0092
 2246TIP3    H128373   6.380   0.404   7.791 -0.1796  0.9437  3.2547
 2246TIP3    H228374   6.232   0.413   7.820 -1.0565  0.9186 -0.7027
 2247TIP3   OH228375   4.817   0.423   8.305 -0.2060 -0.0985  0.0950
 2247TIP3    H128376   4.752   0.391   8.368 -1.4136  0.2983 -0.9007
 2247TIP3    H228377   4.875   0.478   8.357 -1.8527  1.1603  0.6933
 2248TIP3   OH228378   0.954   0.838   1.749 -0.2348 -0.6523 -0.3134
 2248TIP3    H128379   1.012   0.826   1.824  0.0035  1.1924 -0.1397
 2248TIP3    H228380   0.915   0.924   1.763 -1.4689 -0.9951 -1.4663
 2249TIP3   OH228381   5.582   0.759   1.339 -0.8370  0.6291  1.0286
 2249TIP3    H128382   5.638   0.771   1.416 -1.5446 -0.6262  1.7683
 2249TIP3    H228383   5.597   0.668   1.313  1.0977  1.6106 -1.7345
 2250TIP3   OH228384   0.652   2.090   6.735  0.3220 -0.2125  0.1663
 2250TIP3    H128385   0.685   2.083   6.825  1.2046 -1.5578 -0.2324
 2250TIP3    H228386   0.718   2.044   6.682 -0.9490 -0.7717 -0.9730
 2251TIP3   OH228387   2.159   5.935   7.898 -0.8091 -0.3861 -0.1087
 2251TIP3    H128388   2.217   5.878   7.849 -0.1329  0.8782 -0.8070
 2251TIP3    H228389   2.141   5.887   7.979  2.4855 -0.1665  0.8749
 2252TIP3   OH228390   4.216   1.868   7.828  0.6070 -0.1106  0.1803
 2252TIP3    H128391   4.222   1.960   7.802  1.7023 -0.6423 -1.5944
 2252TIP3    H228392   4.169   1.825   7.757 -0.1615 -0.8944  1.1334
 2253TIP3   OH228393   2.976   5.126   8.237 -0.0591 -0.3096 -0.0178
 2253TIP3    H128394   2.904   5.084   8.191 -0.0316  0.3042 -0.6295
 2253TIP3    H228395   3.013   5.056   8.291 -1.9081 -0.3219  1.3209
 2254TIP3   OH228396   6.393   0.524   6.727 -0.1604 -0.1429  0.5392
 2254TIP3    H128397   6.344   0.512   6.646  0.5137  1.6335 -0.1992
 2254TIP3    H228398   6.459   0.455   6.726 -0.4327 -0.4009 -0.2150
 2255TIP3   OH228399   6.807   2.718   7.666  0.6022 -0.0994 -0.3654
 2255TIP3    H128400   6.712   2.705   7.671  0.3119  0.9991 -1.9996
 2255TIP3    H228401   6.832   2.748   7.753 -0.3019 -1.7170  0.4958
 2256TIP3   OH228402   3.190   4.739   8.824  0.1813  0.1693  0.0862
 2256TIP3    H128403   3.250   4.758   8.896  1.5741  0.9549 -1.1955
 2256TIP3    H228404   3.156   4.652   8.842  1.5173 -0.1831  1.0270
 2257TIP3   OH228405   2.583   6.790   6.063 -0.0147 -0.0266  0.1251
 2257TIP3    H128406   2.556   6.698   6.054  1.4538 -0.7406  2.1390
 2257TIP3    H228407   2.502   6.839   6.071 -0.8088 -1.2180 -0.3723
 2258TIP3   OH228408   3.061   5.161   1.290  0.3162 -0.0662 -0.4234
 2258TIP3    H128409   3.138   5.217   1.290  1.1534 -1.1022 -2.5553
 2258TIP3    H228410   2.999   5.204   1.349  2.0683  1.4030  0.4202
 2259TIP3   OH228411   1.882   5.633   0.949 -0.1287 -0.0309  0.3768
 2259TIP3    H128412   1.850   5.697   1.012  2.5389  1.7043  0.1491
 2259TIP3    H228413   1.893   5.682   0.868 -2.0810 -1.8720 -1.1213
 2260TIP3   OH228414   1.676   6.293   1.923 -0.3228  0.0942 -0.3132
 2260TIP3    H128415   1.633   6.355   1.982 -1.1804 -0.1335 -0.6708
 2260TIP3    H228416   1.628   6.304   1.840  0.4412 -0.0478 -0.7763
 2261TIP3   OH228417   4.136   0.200   1.506 -0.3233 -0.0465  0.1265
 2261TIP3    H128418   4.173   0.149   1.579  0.4933  0.2977 -0.0344
 2261TIP3    H228419   4.130   0.137   1.435  1.7594  0.3040 -0.4180
 2262TIP3   OH228420   5.530   1.375   1.935  0.3336 -0.0687 -0.4880
 2262TIP3    H128421   5.437   1.397   1.938  0.4555  0.3946  0.4206
 2262TIP3    H228422   5.545   1.325   2.015  0.7018 -0.8824 -1.0482
 2263TIP3   OH228423   0.108   5.127   1.132 -0.1001 -0.1621 -0.1027
 2263TIP3    H128424   0.169   5.141   1.205 -0.8170  1.1423  0.2791
 2263TIP3    H228425   0.070   5.213   1.116 -0.2268 -0.5060 -1.8031
 2264TIP3   OH228426   5.306   3.004   0.447 -0.2866 -0.4091 -0.9719
 2264TIP3    H128427   5.238   2.991   0.514  3.0518 -2.2204  2.4686
 2264TIP3    H228428   5.293   2.931   0.386 -0.5800 -1.6024  0.4569
 2265TIP3   OH228429   4.939   6.321   0.130 -0.0775 -0.2795  0.1545
 2265TIP3    H128430   4.930   6.395   0.191  0.7322 -0.5727  0.6519
 2265TIP3    H228431   4.854   6.314   0.088  0.2425  1.8738 -1.0036
 2266TIP3   OH228432   1.884   0.549   7.085 -0.6651 -0.3182  0.0801
 2266TIP3    H128433   1.792   0.577   7.090 -0.9254 -1.1145 -0.0990
 2266TIP3    H228434   1.879   0.454   7.075  0.1391 -0.1942 -1.7439
 2267TIP3   OH228435   6.110   3.456   7.255 -0.3208  0.0567  0.2255
 2267TIP3    H128436   6.150   3.429   7.337  0.6881  0.6356 -0.0665
 2267TIP3    H228437   6.134   3.387   7.193  0.7787  0.7066 -0.0981
 2268TIP3   OH228438   3.494   5.278   7.393  0.3972 -0.1956 -0.3553
 2268TIP3    H128439   3.479   5.219   7.467  0.7374  1.3654  1.0310
 2268TIP3    H228440   3.557   5.232   7.338  1.4419 -0.7381  1.2022
 2269TIP3   OH228441   4.896   4.206   0.118 -0.8342 -0.2928  0.0066
 2269TIP3    H128442   4.850   4.124   0.137 -0.0763 -0.2789  2.2323
 2269TIP3    H228443   4.988   4.181   0.112 -0.7748  0.1532 -1.1110
 2270TIP3   OH228444   2.134   0.778   0.915  0.8865 -0.9958 -0.0685
 2270TIP3    H128445   2.197   0.848   0.897 -0.6807  1.2497  2.4040
 2270TIP3    H228446   2.126   0.732   0.832  0.2838  3.2231 -2.6871
 2271TIP3   OH228447   5.524   6.578   6.833 -0.6866 -0.4257 -0.2379
 2271TIP3    H128448   5.541   6.657   6.783 -3.4607 -0.2374 -1.0441
 2271TIP3    H228449   5.611   6.542   6.852  0.5740  1.8087 -1.4142
 2272TIP3   OH228450   6.660   2.765   1.447 -0.0398 -0.3727  0.3035
 2272TIP3    H128451   6.581   2.812   1.419 -0.5220 -1.4552 -0.1669
 2272TIP3    H228452   6.631   2.675   1.462  1.3383 -1.0607 -0.9869
 2273TIP3   OH228453   2.359   2.870   6.791  0.2046  0.7970 -0.4588
 2273TIP3    H128454   2.305   2.791   6.794 -0.9974  1.6067 -0.2706
 2273TIP3    H228455   2.298   2.941   6.772  1.2569  1.7004 -0.5971
 2274TIP3   OH228456   0.980   6.407   7.131  0.0973 -0.0456  0.8024
 2274TIP3    H128457   0.954   6.461   7.206 -0.5971  0.4164  0.2351
 2274TIP3    H228458   0.925   6.436   7.059  3.1074  2.0407 -0.8922
 2275TIP3   OH228459   6.391   2.446   8.455  0.0875 -0.1394  0.0345
 2275TIP3    H128460   6.375   2.386   8.528 -0.5236 -2.3208 -1.7841
 2275TIP3    H228461   6.464   2.406   8.407 -0.0368  0.8187 -0.9849
 2276TIP3   OH228462   2.427   6.299   8.385  0.1301 -0.0206  0.1146
 2276TIP3    H128463   2.486   6.247   8.440 -0.1942 -0.8214 -0.2998
 2276TIP3    H228464   2.463   6.388   8.391  0.9409 -0.3619  0.4690
 2277TIP3   OH228465   4.213   5.486   0.265  0.0745  0.5660  0.5150
 2277TIP3    H128466   4.201   5.472   0.171 -0.5949  2.5653  0.2492
 2277TIP3    H228467   4.136   5.446   0.305  0.5175 -0.5719  0.2732
 2278TIP3   OH228468   6.604   0.991   8.469  0.1622 -0.3490 -0.5468
 2278TIP3    H128469   6.643   1.063   8.517  0.7819  0.3360 -2.0173
 2278TIP3    H228470   6.567   0.934   8.537 -0.0945  1.1909  0.6543
 2279TIP3   OH228471   4.257   6.201   0.339  0.3013 -0.2719  0.0221
 2279TIP3    H128472   4.285   6.156   0.259 -1.1272  1.1918 -1.3672
 2279TIP3    H228473   4.323   6.269   0.352 -1.1677  1.6795 -1.9373
 2280TIP3   OH228474   4.834   0.792   2.170  0.0993 -0.4066 -0.6754
 2280TIP3    H128475   4.852   0.883   2.146 -0.3754 -0.6428 -2.0730
 2280TIP3    H228476   4.769   0.763   2.105  0.8316 -1.9675 -0.7621
 2281TIP3   OH228477   3.334   1.903   0.036  0.3806 -0.6623  0.3226
 2281TIP3    H128478   3.273   1.849   0.086 -0.0747 -1.6442 -1.2421
 2281TIP3    H228479   3.280   1.949  -0.028  1.1023 -0.3962 -0.1116
 2282TIP3   OH228480   3.773   1.786   7.855 -0.3166 -0.0686  0.0396
 2282TIP3    H128481   3.690   1.775   7.809 -0.3673 -0.0136  0.1174
 2282TIP3    H228482   3.755   1.754   7.943 -0.2480 -0.0794  0.0489
 2283TIP3   OH228483   0.131   5.385   6.823  0.2621  0.2676  0.5589
 2283TIP3    H128484   0.044   5.420   6.840  0.7378  0.5251  2.7645
 2283TIP3    H228485   0.158   5.425   6.740 -1.7595  0.0055 -0.2681
 2284TIP3   OH228486   4.798   4.529   0.519 -0.4291  0.2010  0.1679
 2284TIP3    H128487   4.793   4.502   0.428 -0.6972  2.3661 -0.5087
 2284TIP3    H228488   4.852   4.609   0.518 -1.2808  0.8400  1.7370
 2285TIP3   OH228489   6.264   4.459   6.458  0.4056 -0.2652  0.0195
 2285TIP3    H128490   6.266   4.483   6.366  0.8360  0.8257  0.3041
 2285TIP3    H228491   6.210   4.380   6.461  0.1844 -0.1670 -1.1286
 2286TIP3   OH228492   2.117   6.699   6.241 -0.7419  0.5398 -0.1796
 2286TIP3    H128493   2.146   6.610   6.259 -0.2052  0.8180  0.3449
 2286TIP3    H228494   2.058   6.690   6.165 -1.5441 -0.3965  0.5290
 2287TIP3   OH228495   2.113   2.565   0.717 -0.6017  0.4178 -0.0275
 2287TIP3    H128496   2.101   2.508   0.793 -4.4754  0.4928 -0.3752
 2287TIP3    H228497   2.196   2.610   0.734  0.4947 -2.1517  2.3263
 2288TIP3   OH228498   6.779   6.482   7.114 -0.0395  0.0191  0.7711
 2288TIP3    H128499   6.807   6.403   7.161 -0.1481  0.9220  2.4490
 2288TIP3    H228500   6.823   6.554   7.160  0.5184  0.9234 -1.0722
 2289TIP3   OH228501   5.983   6.096   1.000  0.1524 -0.1653 -0.3427
 2289TIP3    H128502   6.013   6.171   1.052  0.9137 -0.5792 -0.1623
 2289TIP3    H228503   5.910   6.130   0.948 -0.2570  0.3957  0.5821
 2290TIP3   OH228504   3.607   5.040   7.969 -0.6232 -0.4137  0.1630
 2290TIP3    H128505   3.678   5.052   7.906  0.7092 -0.8701  1.5238
 2290TIP3    H228506   3.528   5.066   7.921  0.6996  2.4764 -0.6697
 2291TIP3   OH228507   5.810   0.877   0.233 -0.2184 -0.2144  0.0979
 2291TIP3    H128508   5.781   0.884   0.324  0.4162  0.2406  0.2763
 2291TIP3    H228509   5.734   0.904   0.181 -0.4947 -0.2067  0.5075
 2292TIP3   OH228510   5.137   3.851   7.591  0.4556  0.3660 -0.0035
 2292TIP3    H128511   5.136   3.815   7.679 -0.4190  1.2606  0.3706
 2292TIP3    H228512   5.110   3.942   7.602  0.0480  0.4070 -1.2301
 2293TIP3   OH228513   6.790   3.696   1.420 -0.2957  0.2179 -0.1089
 2293TIP3    H128514   6.811   3.620   1.365  0.4824 -0.1985  0.7276
 2293TIP3    H228515   6.701   3.721   1.394 -0.0093 -0.0795 -1.4052
 2294TIP3   OH228516   6.551   6.254   7.318  0.2114  0.6509  0.3686
 2294TIP3    H128517   6.474   6.207   7.350  0.9485  0.2063  1.6010
 2294TIP3    H228518   6.585   6.200   7.247  0.2244  0.0744  0.8080
 2295TIP3   OH228519   6.194   2.793   0.949 -1.1066  0.2205 -0.4145
 2295TIP3    H128520   6.195   2.854   1.022  0.1669 -0.4608  0.1733
 2295TIP3    H228521   6.286   2.770   0.935 -1.5054 -1.2111 -0.9143
 2296TIP3   OH228522   5.384   4.404   7.705 -0.0382 -0.1822  0.2841
 2296TIP3    H128523   5.374   4.500   7.703 -1.1709 -0.2843 -1.2925
 2296TIP3    H228524   5.361   4.379   7.794 -3.2111  0.7603 -0.1392
 2297TIP3   OH228525   1.940   5.776   0.710  0.5646 -0.3629  0.0980
 2297TIP3    H128526   2.008   5.733   0.658 -1.2964 -1.2320 -1.7584
 2297TIP3    H228527   1.875   5.805   0.646 -0.4324  1.2164  1.7171
 2298TIP3   OH228528   5.469   5.417   0.596  0.3890  0.2460  0.6727
 2298TIP3    H128529   5.493   5.457   0.512 -0.6669  0.7753  0.6029
 2298TIP3    H228530   5.381   5.382   0.581  0.6988 -0.7936  1.1924
 2299TIP3   OH228531   4.673   5.694   6.195 -0.5685  0.2301  0.3441
 2299TIP3    H128532   4.748   5.653   6.152 -0.9943 -0.5795  0.3610
 2299TIP3    H228533   4.630   5.623   6.242 -0.0308  1.1144  2.2545
 2300TIP3   OH228534   6.654   5.973   1.679 -0.6129 -0.1415  0.1751
 2300TIP3    H128535   6.622   6.021   1.603  1.0571  1.4462  0.4061
 2300TIP3    H228536   6.711   6.035   1.724  2.0813 -2.4478  0.2447
 2301TIP3   OH228537   0.651   3.187   8.627  0.6609  0.3388 -0.1333
 2301TIP3    H128538   0.680   3.097   8.609  0.2994  0.2470 -0.2698
 2301TIP3    H228539   0.701   3.241   8.566  2.2101  0.4278  1.1724
 2302TIP3   OH228540   5.162   6.297   1.998 -0.1010 -0.6423 -0.4426
 2302TIP3    H128541   5.162   6.317   2.091  0.1457  0.6705 -0.6994
 2302TIP3    H228542   5.247   6.329   1.967 -0.5970 -0.1094 -1.2950
 2303TIP3   OH228543   0.992   5.278   1.291 -0.3722  0.3854 -0.1953
 2303TIP3    H128544   0.897   5.279   1.278 -0.6509  1.5830  1.5343
 2303TIP3    H228545   1.003   5.242   1.379  0.7997  0.2748 -0.3735
 2304TIP3   OH228546   2.512   4.529   8.622 -0.3422  0.2018  0.1512
 2304TIP3    H128547   2.520   4.444   8.665  0.6544  0.3563  0.2994
 2304TIP3    H228548   2.492   4.590   8.693  1.1187  0.4270  0.3969
 2305TIP3   OH228549   4.130   0.051   7.554 -0.0742 -0.7073  0.5404
 2305TIP3    H128550   4.145  -0.029   7.503 -3.1574  0.1302 -1.9713
 2305TIP3    H228551   4.126   0.120   7.488 -1.9121  0.8306  2.1768
 2306TIP3   OH228552   3.055   2.917   0.178  0.6509  0.8553  0.4920
 2306TIP3    H128553   3.129   2.859   0.161  0.2450  0.9404 -1.9269
 2306TIP3    H228554   3.086   2.977   0.245  2.7572  0.8311 -0.3932
 2307TIP3   OH228555   3.895   4.093   8.399 -0.0730 -0.0552 -0.6074
 2307TIP3    H128556   3.893   4.009   8.352 -2.8171 -0.8502  0.7017
 2307TIP3    H228557   3.921   4.070   8.488  1.5869  0.9007 -0.8149
 2308TIP3   OH228558   0.528   2.934   1.535  0.5313  0.1428 -0.2060
 2308TIP3    H128559   0.569   2.864   1.586  0.6488  0.0930 -0.3654
 2308TIP3    H228560   0.556   2.917   1.445 -0.9854 -0.7300 -0.5546
 2309TIP3   OH228561   2.057   6.808   0.290 -0.2712 -0.2256  0.5663
 2309TIP3    H128562   2.042   6.827   0.383 -0.4986 -0.6333  0.6154
 2309TIP3    H228563   2.139   6.758   0.288 -0.1835 -0.0821  0.5298
 2310TIP3   OH228564   0.458   3.996   1.948  0.2971  0.0823  0.1039
 2310TIP3    H128565   0.460   3.902   1.928 -0.1948 -0.1125  0.9113
 2310TIP3    H228566   0.370   4.010   1.985 -0.6160  1.3510 -2.3176
 2311TIP3   OH228567   5.662   0.762   2.036 -0.0603  0.0720 -0.0367
 2311TIP3    H128568   5.698   0.674   2.023 -1.2259 -0.1985 -1.8612
 2311TIP3    H228569   5.725   0.820   1.994  0.5598  0.0864  0.9022
 2312TIP3   OH228570   3.632   2.550   7.886  0.2628 -0.0637  0.0750
 2312TIP3    H128571   3.668   2.629   7.927  2.0098  0.8109 -2.7987
 2312TIP3    H228572   3.553   2.580   7.842  1.7710  0.6555 -2.3889
 2313TIP3   OH228573   0.921   0.687   1.140  0.8570 -0.1449 -0.1495
 2313TIP3    H128574   0.835   0.666   1.104  0.5101 -1.4807  1.3149
 2313TIP3    H228575   0.902   0.741   1.217  1.1815 -1.6966  1.0676
 2314TIP3   OH228576   0.012   1.862   1.893 -0.4805 -0.3970  0.0333
 2314TIP3    H128577   0.098   1.822   1.882 -0.2803  0.0700 -0.0944
 2314TIP3    H228578   0.007   1.882   1.987  0.8946  2.5529 -0.4075
 2315TIP3   OH228579   6.751   6.442   8.538 -0.5005 -0.5849  0.0024
 2315TIP3    H128580   6.840   6.447   8.503 -0.4653 -1.2424 -0.0054
 2315TIP3    H228581   6.695   6.463   8.463 -0.3271  0.9713  0.2781
 2316TIP3   OH228582   4.793   6.676   8.742 -0.4414 -0.8785 -0.4476
 2316TIP3    H128583   4.780   6.761   8.786 -0.1680  0.1589 -2.2810
 2316TIP3    H228584   4.731   6.677   8.669 -0.7628 -2.4952 -0.2366
 2317TIP3   OH228585   5.635   5.098   6.662  0.0275 -0.3123 -0.0402
 2317TIP3    H128586   5.721   5.122   6.695 -0.1867  0.6012 -0.1165
 2317TIP3    H228587   5.601   5.036   6.727  0.3477  0.0687  0.5020
 2318TIP3   OH228588   3.292   0.366   0.079 -0.1053  0.0605  0.2560
 2318TIP3    H128589   3.335   0.406   0.003  0.4853 -0.9672  0.0259
 2318TIP3    H228590   3.235   0.434   0.113  0.1299  0.7651 -0.7124
 2319TIP3   OH228591   5.459   0.241   0.671 -0.1870 -0.2902  0.3335
 2319TIP3    H128592   5.538   0.218   0.719  0.8151  0.0055 -1.1099
 2319TIP3    H228593   5.396   0.267   0.739  1.9836  2.6256  1.4140
 2320TIP3   OH228594   4.926   2.676   1.021 -0.4431 -0.0713 -0.1612
 2320TIP3    H128595   4.876   2.747   1.062 -0.2252  0.7692 -1.2755
 2320TIP3    H228596   5.011   2.716   1.001 -0.7756 -0.2175 -2.0182
 2321TIP3   OH228597   5.563   3.973   1.147 -0.3988  0.3564  0.0010
 2321TIP3    H128598   5.655   3.996   1.154 -0.6348  0.9861  1.3784
 2321TIP3    H228599   5.562   3.878   1.144  0.3285  0.3563 -1.0229
 2322TIP3   OH228600   5.291   2.931   1.594  0.4654 -0.3323 -0.1998
 2322TIP3    H128601   5.238   2.939   1.674  0.1879  0.1204 -0.4252
 2322TIP3    H228602   5.247   2.863   1.543 -0.3160  0.5126 -0.6933
 2323TIP3   OH228603   5.020   6.611   6.706 -0.3157 -0.1642 -0.3140
 2323TIP3    H128604   4.989   6.693   6.668 -0.1147 -0.5387 -1.3059
 2323TIP3    H228605   5.085   6.638   6.771 -0.0152  0.4431 -0.8567
 2324TIP3   OH228606   5.879   3.125   7.814  0.1047  0.0674 -0.0477
 2324TIP3    H128607   5.800   3.152   7.769  0.6213 -1.4510 -2.0020
 2324TIP3    H228608   5.944   3.191   7.791 -0.2791  0.6914  0.6243
 2325TIP3   OH228609   6.186   4.001   0.984 -0.5343 -0.3651  0.8643
 2325TIP3    H128610   6.110   3.949   0.958 -1.8543  1.5881  0.5128
 2325TIP3    H228611   6.258   3.968   0.929 -1.5600 -1.0934 -0.1008
 2326TIP3   OH228612   5.569   3.471   6.931  0.4359 -0.1771 -0.1572
 2326TIP3    H128613   5.621   3.536   6.883  0.9479  0.4502  1.1927
 2326TIP3    H228614   5.609   3.387   6.907  1.6624  0.2432  0.3204
 2327TIP3   OH228615   0.442   4.750   7.686 -0.3649  0.2067 -0.1800
 2327TIP3    H128616   0.465   4.793   7.603  2.1368  0.8349  0.7281
 2327TIP3    H228617   0.527   4.727   7.725 -1.5272 -2.1627  1.1687
 2328TIP3   OH228618   4.831   2.844   7.007  0.4168 -0.7982 -0.2553
 2328TIP3    H128619   4.769   2.906   7.046 -1.0445 -0.9454 -2.2467
 2328TIP3    H228620   4.887   2.898   6.952  1.0112 -0.8915  0.2479
 2329TIP3   OH228621   1.664   5.504   7.251 -0.0943  0.1471 -0.5498
 2329TIP3    H128622   1.601   5.576   7.248  0.3301  0.5946  0.8020
 2329TIP3    H228623   1.611   5.426   7.235 -1.0939  0.4767  0.9739
 2330TIP3   OH228624   6.043   6.725   6.223  0.2055  0.2422  0.6792
 2330TIP3    H128625   6.028   6.700   6.315 -0.7982 -0.1505  0.4242
 2330TIP3    H228626   5.955   6.741   6.188  0.4146 -1.4068 -0.7188
 2331TIP3   OH228627   2.338   5.968   1.086  0.0532  0.1068  0.0417
 2331TIP3    H128628   2.386   5.893   1.123 -0.9103 -0.7267 -0.3359
 2331TIP3    H228629   2.253   5.931   1.061  0.3561  0.8006 -2.2271
 2332TIP3   OH228630   2.681   5.793   0.017 -0.2920 -0.0202  0.0522
 2332TIP3    H128631   2.624   5.737  -0.036  2.0579 -1.7426 -0.8745
 2332TIP3    H228632   2.769   5.757   0.002  0.8923  1.6494  2.4238
 2333TIP3   OH228633   3.924   5.316   0.093 -0.0306  0.6650 -0.3336
 2333TIP3    H128634   3.848   5.261   0.112 -0.4147  1.1135 -0.5447
 2333TIP3    H228635   3.976   5.265   0.030 -1.2536  1.2401 -1.8719
 2334TIP3   OH228636   1.085   5.520   0.512  0.6096  0.3652  0.4704
 2334TIP3    H128637   1.029   5.504   0.587  0.8568 -3.7575 -0.0007
 2334TIP3    H228638   1.028   5.510   0.436  0.9572  1.6197  0.0104
 2335TIP3   OH228639   2.745   3.030   2.076 -0.2126  0.0723  0.2893
 2335TIP3    H128640   2.735   3.105   2.017 -0.7394  0.1672  0.4876
 2335TIP3    H228641   2.719   2.954   2.024  0.6038 -0.0127 -0.0009
 2336TIP3   OH228642   6.764   4.131   0.441  0.3920  0.4514 -0.3070
 2336TIP3    H128643   6.772   4.102   0.350  0.6162 -0.5022  0.0054
 2336TIP3    H228644   6.670   4.132   0.458  0.3920 -1.6318  0.1232
 2337TIP3   OH228645   5.822   6.139   6.844  0.5265 -0.4519  0.3916
 2337TIP3    H128646   5.735   6.179   6.840  1.2115  1.1405  0.4408
 2337TIP3    H228647   5.818   6.080   6.919 -0.4104 -0.1411  0.5952
 2338TIP3   OH228648   1.555   4.365   7.016  0.2209  0.9207 -0.3949
 2338TIP3    H128649   1.573   4.383   6.924  1.6456  2.4714  0.1336
 2338TIP3    H228650   1.565   4.270   7.025  1.1063  0.8737 -1.6354
 2339TIP3   OH228651   3.725   0.683   1.571  0.2775 -0.3889  0.1012
 2339TIP3    H128652   3.779   0.759   1.593 -1.5710  0.3039  2.7164
 2339TIP3    H228653   3.660   0.716   1.510 -1.7821  0.8276  2.7438
 2340TIP3   OH228654   4.864   6.634   7.525  0.7843 -0.2788  0.2669
 2340TIP3    H128655   4.876   6.727   7.544 -1.1528 -0.2013  1.4089
 2340TIP3    H228656   4.897   6.589   7.603  2.3423 -0.6178 -0.5615
 2341TIP3   OH228657   0.098   1.670   0.150  0.0928  0.0149 -0.1952
 2341TIP3    H128658   0.075   1.682   0.242  1.5399 -3.0303  0.6699
 2341TIP3    H228659   0.090   1.758   0.112 -2.1387  1.0805  2.3953
 2342TIP3   OH228660   6.564   2.000   7.556 -0.2175 -0.1788  0.0533
 2342TIP3    H128661   6.632   1.980   7.621 -0.6078 -1.1019  0.1892
 2342TIP3    H228662   6.609   1.991   7.472 -0.1273 -0.6258  0.1463
 2343TIP3   OH228663   1.204   0.870   7.380  0.3256  0.6583  0.0171
 2343TIP3    H128664   1.280   0.847   7.327  0.9682  0.9446  0.7769
 2343TIP3    H228665   1.219   0.961   7.405  0.9648  0.0337  2.1271
 2344TIP3   OH228666   0.864   6.639   6.759 -0.0302 -0.1992 -0.2970
 2344TIP3    H128667   0.933   6.609   6.700  0.4378  1.9511 -0.9508
 2344TIP3    H228668   0.897   6.721   6.795 -1.5034 -0.0216  0.7707
 2345TIP3   OH228669   2.078   6.426   1.821  0.1182  0.4073 -0.7205
 2345TIP3    H128670   2.076   6.521   1.819 -0.9214  0.4344  0.4484
 2345TIP3    H228671   2.020   6.400   1.749 -0.8317  0.6986 -0.0836
 2346TIP3   OH228672   3.339   5.080   8.842 -0.1070  0.1006  0.2538
 2346TIP3    H128673   3.417   5.127   8.811  0.4382  0.2564  1.8042
 2346TIP3    H228674   3.287   5.066   8.763 -0.1726  3.0771 -0.3476
 2347TIP3   OH228675   3.664   0.608   7.392 -0.2721  0.3095  0.2631
 2347TIP3    H128676   3.601   0.640   7.328  0.0822  0.9208  0.2120
 2347TIP3    H228677   3.745   0.655   7.372 -0.0185  0.1240  0.8277
 2348TIP3   OH228678   0.303   4.671   1.255  0.0019 -0.2517 -0.9122
 2348TIP3    H128679   0.353   4.748   1.280  0.4297 -0.7726 -0.1398
 2348TIP3    H228680   0.252   4.649   1.333 -0.8352 -0.1997 -1.4317
 2349TIP3   OH228681   5.363   0.069   6.975  0.3486 -0.0168  0.8111
 2349TIP3    H128682   5.362   0.004   6.905 -0.0770  0.3057  0.5175
 2349TIP3    H228683   5.308   0.140   6.943  2.6080  1.5428  0.1420
 2350TIP3   OH228684   3.689   6.365   1.674 -0.1015 -0.0529  0.2569
 2350TIP3    H128685   3.632   6.441   1.672 -1.2023 -0.8460 -1.7041
 2350TIP3    H228686   3.639   6.298   1.720 -0.4173 -0.4766 -0.6744
 2351TIP3   OH228687   2.572   6.618   0.043 -0.1253  0.2724  0.1749
 2351TIP3    H128688   2.504   6.674   0.003  0.1449  1.6839  1.6047
 2351TIP3    H228689   2.604   6.669   0.117  1.7647 -0.8365  0.1717
 2352TIP3   OH228690   5.898   4.276   8.280 -0.1219  0.5337  0.3747
 2352TIP3    H128691   5.858   4.356   8.248 -1.0810  0.3443  1.0598
 2352TIP3    H228692   5.843   4.206   8.244  1.7504  0.0297 -1.7570
 2353TIP3   OH228693   6.388   1.218   1.153  0.0509  0.1161  0.0622
 2353TIP3    H128694   6.376   1.179   1.240 -0.7527  0.8351  0.2760
 2353TIP3    H228695   6.416   1.308   1.170 -0.0141  0.2317 -0.4227
 2354TIP3   OH228696   4.015   3.842   1.519  0.7729 -0.0614 -0.3459
 2354TIP3    H128697   3.982   3.753   1.507 -1.3255  0.4109  1.2427
 2354TIP3    H228698   4.097   3.845   1.470  0.9519 -2.8922 -0.3468
 2355TIP3   OH228699   1.202   5.949   8.824  0.3692  0.3751  0.2625
 2355TIP3    H128700   1.233   6.030   8.865  1.5398 -0.3687  0.8554
 2355TIP3    H228701   1.236   5.954   8.734 -0.8295  1.2261 -0.1790
 2356TIP3   OH228702   3.460   6.534   7.715  0.1175 -0.0302 -0.2928
 2356TIP3    H128703   3.498   6.446   7.708 -2.1725 -1.1805  0.7031
 2356TIP3    H228704   3.536   6.592   7.717  1.7428 -2.0058 -0.4183
 2357TIP3   OH228705   4.189   6.257   8.444 -0.4766  0.7157  0.0088
 2357TIP3    H128706   4.212   6.345   8.475  0.6879  1.1019 -1.7752
 2357TIP3    H228707   4.108   6.269   8.395  0.9717  1.3937 -2.4312
 2358TIP3   OH228708   1.454   3.162   1.637 -0.1374  0.0737  0.1308
 2358TIP3    H128709   1.369   3.134   1.603  0.0714 -2.6362  1.6334
 2358TIP3    H228710   1.512   3.158   1.561 -0.9390  0.1132 -0.5021
 2359TIP3   OH228711   0.172   2.852   8.363 -0.0334 -0.2654 -0.3067
 2359TIP3    H128712   0.170   2.942   8.331  1.0010  0.2250  0.9210
 2359TIP3    H228713   0.134   2.857   8.451 -0.1045 -1.0681 -0.2852
 2360TIP3   OH228714   5.153   0.141   0.408  0.5246  0.2925  0.1537
 2360TIP3    H128715   5.069   0.135   0.452  1.2851 -1.0075  1.5166
 2360TIP3    H228716   5.170   0.235   0.402 -1.1265  0.5845 -0.4102
 2361TIP3   OH228717   2.397   6.251   8.098  0.1449 -0.8347 -0.9870
 2361TIP3    H128718   2.381   6.270   8.190 -0.2148  0.8560 -1.3741
 2361TIP3    H228719   2.456   6.320   8.068  0.0794 -1.2252 -2.0799
 2362TIP3   OH228720   0.673   3.613   7.491  0.4332 -0.2780 -0.2772
 2362TIP3    H128721   0.752   3.560   7.498  1.0157  0.4552 -1.1578
 2362TIP3    H228722   0.610   3.555   7.447  0.8834 -0.4381 -0.7182
 2363TIP3   OH228723   4.331   2.799   0.458  0.5400 -0.1994 -0.4018
 2363TIP3    H128724   4.340   2.819   0.551 -0.8803 -1.4908  0.0722
 2363TIP3    H228725   4.271   2.866   0.425  0.5826 -0.0851 -0.2466
 2364TIP3   OH228726   1.212   6.652   8.080 -0.9100 -0.0445  0.3107
 2364TIP3    H128727   1.295   6.612   8.052 -1.0517 -0.5296  0.5887
 2364TIP3    H228728   1.225   6.746   8.064 -0.4889 -0.1681 -0.1143
 2365TIP3   OH228729   2.679   1.890   2.524  0.1873  0.2081  0.2252
 2365TIP3    H128730   2.703   1.969   2.476  0.5392  0.6585  1.1385
 2365TIP3    H228731   2.615   1.846   2.467 -1.1478  1.8853  0.3635
 2366TIP3   OH228732   2.411   5.132   1.079  0.4435 -0.1586 -0.2790
 2366TIP3    H128733   2.453   5.218   1.082  0.5123 -0.1648 -0.8245
 2366TIP3    H228734   2.325   5.149   1.041  0.3553 -0.2903 -0.1359
 2367TIP3   OH228735   0.491   1.462   0.809 -0.1242  0.2646 -0.0780
 2367TIP3    H128736   0.464   1.378   0.847  1.5287  0.4730  1.7148
 2367TIP3    H228737   0.577   1.444   0.770 -1.0742  0.4579 -2.4176
 2368TIP3   OH228738   6.474   1.024   8.232  0.2443  0.1171 -0.3494
 2368TIP3    H128739   6.452   1.116   8.222 -0.2259 -0.0698 -1.1985
 2368TIP3    H228740   6.507   1.016   8.321 -0.6076  0.9290  0.0589
 2369TIP3   OH228741   1.338   4.848   8.084 -0.2605  0.6116 -0.2122
 2369TIP3    H128742   1.343   4.893   8.000  1.2155  1.2918  0.2048
 2369TIP3    H228743   1.427   4.853   8.119 -0.1175 -2.2412  0.0686
 2370TIP3   OH228744   1.641   5.491   7.554  0.4187 -0.0218  0.1231
 2370TIP3    H128745   1.670   5.576   7.587 -0.8612  0.7066 -0.5572
 2370TIP3    H228746   1.673   5.488   7.464 -1.8978  1.0209 -0.8201
 2371TIP3   OH228747   2.028   6.323   8.836 -0.1526 -0.5036 -0.3127
 2371TIP3    H128748   2.044   6.412   8.804  1.4976 -0.1492  1.3437
 2371TIP3    H228749   2.097   6.270   8.796 -0.6143 -0.8979 -0.6068
 2372TIP3   OH228750   1.793   4.609   8.162 -0.0006  0.1119 -0.0500
 2372TIP3    H128751   1.791   4.665   8.240 -1.6586 -0.3080  0.2301
 2372TIP3    H228752   1.868   4.551   8.177 -0.9159 -0.6775  1.7511
 2373TIP3   OH228753   2.859   6.310   0.035 -0.5093  0.0084  0.0013
 2373TIP3    H128754   2.896   6.389   0.076  0.6220 -0.3259 -0.3666
 2373TIP3    H228755   2.920   6.240   0.056 -0.0302 -0.2371 -2.0117
 2374TIP3   OH228756   1.534   1.121   0.681 -0.6527  0.0412  0.9391
 2374TIP3    H128757   1.600   1.092   0.618 -0.6452 -0.6943  1.2804
 2374TIP3    H228758   1.464   1.057   0.675 -1.3013  0.7623  0.6581
 2375TIP3   OH228759   2.934   0.222   2.259 -0.2490  0.1459  0.0614
 2375TIP3    H128760   3.017   0.270   2.256  1.2874 -2.2794  0.5352
 2375TIP3    H228761   2.868   0.287   2.238  1.8664  1.9659 -1.4217
 2376TIP3   OH228762   1.050   0.839   8.728 -0.2796 -0.2466 -0.2969
 2376TIP3    H128763   0.996   0.822   8.652 -0.3220  1.5497 -0.7176
 2376TIP3    H228764   1.118   0.772   8.725 -1.5950 -1.6110 -0.5890
 2377TIP3   OH228765   4.863   6.290   1.260 -0.2581  0.5483 -0.1788
 2377TIP3    H128766   4.916   6.226   1.212  1.0421  0.2890  1.5152
 2377TIP3    H228767   4.786   6.241   1.288  0.1208  0.0681  0.0329
 2378TIP3   OH228768   1.228   5.756   1.554  0.3572  0.2127 -0.2867
 2378TIP3    H128769   1.318   5.765   1.582  0.5951  2.1942 -1.5041
 2378TIP3    H228770   1.231   5.690   1.484  0.8179  0.0482 -0.1081
 2379TIP3   OH228771   3.182   3.494   0.117 -0.5530 -0.6394 -0.5593
 2379TIP3    H128772   3.110   3.531   0.168  0.2560 -1.6890  1.4738
 2379TIP3    H228773   3.249   3.562   0.117 -0.8814 -0.3168 -0.9428
 2380TIP3   OH228774   6.587   4.136   7.027  0.4472 -0.0516  0.3649
 2380TIP3    H128775   6.669   4.169   7.064  1.5679 -1.6301 -0.5519
 2380TIP3    H228776   6.594   4.155   6.933 -0.9182  1.0694  0.4583
 2381TIP3   OH228777   1.927   4.391   8.250 -0.0011  0.1183 -0.0469
 2381TIP3    H128778   1.971   4.386   8.335 -1.4197 -1.2136  0.6401
 2381TIP3    H228779   1.872   4.314   8.246  0.7156 -0.3702 -2.6048
 2382TIP3   OH228780   5.879   3.296   1.776 -0.4112 -0.2644  0.0287
 2382TIP3    H128781   5.918   3.376   1.740 -1.3695 -0.7114 -2.1425
 2382TIP3    H228782   5.881   3.234   1.703 -2.0948 -1.3658  0.8648
 2383TIP3   OH228783   0.797   5.657   6.624  0.3158 -0.1566 -0.2316
 2383TIP3    H128784   0.817   5.594   6.554 -1.5194 -0.2420 -0.7390
 2383TIP3    H228785   0.777   5.602   6.700  1.0159 -0.1045 -0.0072
 2384TIP3   OH228786   4.892   4.095   7.487 -0.5839 -0.1807 -0.6278
 2384TIP3    H128787   4.921   4.171   7.437 -1.8623  1.2427  0.6675
 2384TIP3    H228788   4.946   4.097   7.567 -1.0952 -0.2238 -0.2788
 2385TIP3   OH228789   0.864   6.508   0.560  0.4118 -0.3851 -0.1786
 2385TIP3    H128790   0.797   6.514   0.492  1.1747  0.0254 -0.9191
 2385TIP3    H228791   0.829   6.556   0.634 -0.7414 -1.4365 -0.0083
 2386TIP3   OH228792   4.171   3.887   0.234  0.8247 -0.6242  0.4805
 2386TIP3    H128793   4.118   3.960   0.201  2.8181 -0.0855 -1.8686
 2386TIP3    H228794   4.162   3.819   0.167  1.1002 -1.5064  1.3165
 2387TIP3   OH228795   2.658   3.887   8.339 -0.7298  0.4088 -0.1775
 2387TIP3    H128796   2.703   3.803   8.342 -0.5147  0.5093 -0.5060
 2387TIP3    H228797   2.629   3.896   8.248  0.4105  1.2710 -0.4944
 2388TIP3   OH228798   2.940   6.383   8.563  0.2730  0.6064 -0.0024
 2388TIP3    H128799   3.010   6.448   8.565 -0.7960  1.7975  1.3435
 2388TIP3    H228800   2.871   6.421   8.618  0.0052 -2.1150  1.7525
 2389TIP3   OH228801   0.289   1.155   8.159  0.4556 -0.0166  0.2978
 2389TIP3    H128802   0.332   1.227   8.114  2.1051 -1.5631 -0.7490
 2389TIP3    H228803   0.200   1.185   8.173  1.0087  2.0886 -0.3580
 2390TIP3   OH228804   2.210   3.924   2.074  0.5114  0.1266  0.0171
 2390TIP3    H128805   2.286   3.942   2.129  0.2616  0.0370  0.4002
 2390TIP3    H228806   2.142   3.897   2.136  0.4733 -0.8002 -0.4107
 2391TIP3   OH228807   2.297   1.511   6.914 -0.1174 -0.2153 -0.1900
 2391TIP3    H128808   2.226   1.478   6.860  0.0701  1.3124 -1.4447
 2391TIP3    H228809   2.376   1.477   6.873 -0.0558 -0.8744  0.4571
 2392TIP3   OH228810   4.188   5.096   1.784 -0.4687  0.5139  0.1272
 2392TIP3    H128811   4.141   5.089   1.868  0.2343  1.2948  0.5970
 2392TIP3    H228812   4.185   5.189   1.762  0.1105  0.4396 -0.2789
 2393TIP3   OH228813   1.260   0.455   7.985  0.1309  0.1052  0.0462
 2393TIP3    H128814   1.331   0.412   8.033  0.7795 -1.2831 -2.0237
 2393TIP3    H228815   1.232   0.390   7.920 -1.3208  1.5573 -0.8573
 2394TIP3   OH228816   5.159   3.226   7.383 -0.3706  0.3651  0.1552
 2394TIP3    H128817   5.064   3.232   7.386 -0.3262  1.0288  0.3996
 2394TIP3    H228818   5.187   3.302   7.332  0.0215  0.1362  0.0251
 2395TIP3   OH228819   1.894   2.870   0.827  0.6397  0.0914 -0.3927
 2395TIP3    H128820   1.839   2.948   0.834  0.1452 -0.3358  0.6606
 2395TIP3    H228821   1.982   2.903   0.809  0.3148  0.8511 -0.5902
 2396TIP3   OH228822   3.852   4.647   0.149  0.1095  0.5339 -0.2211
 2396TIP3    H128823   3.758   4.645   0.133  0.1927  1.0798 -0.7809
 2396TIP3    H228824   3.892   4.659   0.063  0.7025  0.1747 -0.0075
 2397TIP3   OH228825   6.713   6.440   1.679  0.1784 -0.3734 -0.6079
 2397TIP3    H128826   6.673   6.377   1.739 -0.9182 -0.3979 -1.3626
 2397TIP3    H228827   6.787   6.393   1.641  0.0065 -0.8405 -0.3690
 2398TIP3   OH228828   3.972   1.744   1.270  0.2751  0.5899 -0.1288
 2398TIP3    H128829   3.964   1.833   1.304 -0.6879  0.2615  0.5494
 2398TIP3    H228830   3.991   1.755   1.177  2.0957  1.5045  0.2991
 2399TIP3   OH228831   2.139   3.565   0.071  0.8184 -0.3821  0.0694
 2399TIP3    H128832   2.134   3.495   0.136  0.4818 -0.2474  0.1870
 2399TIP3    H228833   2.216   3.542   0.018  0.2777 -1.2485 -0.3625
 2400TIP3   OH228834   6.066   4.597   7.396  0.0266  0.0251 -0.6485
 2400TIP3    H128835   6.037   4.526   7.339 -0.0436  0.2137 -0.8481
 2400TIP3    H228836   6.086   4.554   7.480  0.4398 -0.3015 -0.9099
 2401TIP3   OH228837   1.086   5.848   8.370 -0.2535  0.4088 -0.2342
 2401TIP3    H128838   1.167   5.862   8.418 -0.5734 -0.5772  0.6492
 2401TIP3    H228839   1.017   5.861   8.435 -0.7530  0.2725 -0.7272
 2402TIP3   OH228840   4.736   0.032   2.282  0.0916  0.0134 -0.3569
 2402TIP3    H128841   4.728  -0.050   2.331  3.1646  0.0922  0.5012
 2402TIP3    H228842   4.697   0.014   2.197 -0.1995 -2.0318  0.1629
 2403TIP3   OH228843   4.573   2.670   0.119  0.1856 -0.1192  0.3562
 2403TIP3    H128844   4.615   2.598   0.166  1.3206  0.4048  0.1958
 2403TIP3    H228845   4.625   2.680   0.039 -0.7097  0.0758 -0.2182
 2404TIP3   OH228846   3.041   1.260   7.767 -0.4328  0.2638  0.5258
 2404TIP3    H128847   2.974   1.287   7.829  1.8245  2.0928  2.3536
 2404TIP3    H228848   3.017   1.304   7.685 -2.6339 -0.9750  0.4450
 2405TIP3   OH228849   4.727   4.280   2.550  0.2306  0.2084  0.0978
 2405TIP3    H128850   4.742   4.365   2.511  1.0302  0.3516  0.6926
 2405TIP3    H228851   4.706   4.299   2.642 -0.2919 -0.1907  0.0640
 2406TIP3   OH228852   0.325   4.779   2.303 -0.4338  0.3429 -0.1594
 2406TIP3    H128853   0.360   4.724   2.233 -0.2074 -0.3854  0.5217
 2406TIP3    H228854   0.394   4.781   2.369 -1.4734 -0.7643  1.0171
 2407TIP3   OH228855   3.888   0.787   0.171  0.0929  0.7389  0.1294
 2407TIP3    H128856   3.981   0.770   0.157  0.7418  2.1883  2.3370
 2407TIP3    H228857   3.882   0.880   0.193 -1.9475  0.7761 -0.2986
 2408TIP3   OH228858   3.196   0.619   0.154 -0.0748  0.5304  1.2332
 2408TIP3    H128859   3.157   0.598   0.239  0.0128  0.9691  1.3865
 2408TIP3    H228860   3.125   0.660   0.104  0.1272  1.1645  1.4483
 2409TIP3   OH228861   4.402   3.562   8.525  0.1076  0.5584  0.6699
 2409TIP3    H128862   4.332   3.627   8.530 -0.1558  0.2531  1.0102
 2409TIP3    H228863   4.386   3.504   8.600 -0.0837 -0.3171 -0.0328
 2410TIP3   OH228864   3.166   6.358   1.118 -0.4130  0.0259  0.0530
 2410TIP3    H128865   3.221   6.435   1.132 -0.8025  0.4315 -0.6251
 2410TIP3    H228866   3.082   6.393   1.089 -0.7962 -0.6252  0.3568
 2411TIP3   OH228867   2.614   0.827   1.151  0.0213 -0.2369  0.7285
 2411TIP3    H128868   2.592   0.895   1.215 -2.7184 -1.2664  1.0014
 2411TIP3    H228869   2.675   0.769   1.197 -0.5045  0.0299  1.7813
 2412TIP3   OH228870   4.597   5.912   1.011  0.3694 -0.0196 -0.4307
 2412TIP3    H128871   4.641   5.856   1.075  1.0296 -1.3588 -1.9693
 2412TIP3    H228872   4.521   5.860   0.983 -0.7040  1.1409  0.2561
 2413TIP3   OH228873   4.208   0.879   6.995  0.1651  0.3789 -0.1509
 2413TIP3    H128874   4.288   0.870   7.046  0.5536  1.5628 -0.5107
 2413TIP3    H228875   4.142   0.906   7.058  0.2769  0.3043 -0.0034
 2414TIP3   OH228876   2.715   1.996   0.359  0.2857 -0.2839  1.0098
 2414TIP3    H128877   2.745   2.086   0.375 -3.7969  1.3877  0.5487
 2414TIP3    H228878   2.723   1.985   0.264  0.1092 -0.1165  0.9747
 2415TIP3   OH228879   2.609   4.148   1.117  0.4652 -0.3119 -0.2579
 2415TIP3    H128880   2.542   4.170   1.052  0.5999  1.2880  0.0877
 2415TIP3    H228881   2.568   4.168   1.201  1.2591  0.4452 -0.0321
 2416TIP3   OH228882   2.920   5.670   8.254 -0.2268  0.5801 -0.2003
 2416TIP3    H128883   2.876   5.721   8.323 -0.0551  0.9534 -0.3614
 2416TIP3    H228884   2.991   5.727   8.225 -0.7092  0.7036 -1.1525
 2417TIP3   OH228885   3.772   2.834   0.762  0.3616 -0.0847  0.6175
 2417TIP3    H128886   3.838   2.766   0.742  1.5630  1.3759 -0.6459
 2417TIP3    H228887   3.762   2.882   0.680 -0.5011  1.2471  1.4704
 2418TIP3   OH228888   5.468   1.339   0.396 -0.0434  0.1832  0.9353
 2418TIP3    H128889   5.469   1.329   0.300 -1.0740  0.7084  0.8550
 2418TIP3    H228890   5.559   1.326   0.422 -0.0512 -1.9480  0.1116
 2419TIP3   OH228891   3.424   1.925   1.957  0.1251  0.4790  0.2686
 2419TIP3    H128892   3.458   1.874   1.883  2.8154  0.2908  1.5127
 2419TIP3    H228893   3.395   2.007   1.917  3.6081  1.3383 -0.9173
 2420TIP3   OH228894   5.695   2.713   7.861 -1.1542 -0.2564 -0.5666
 2420TIP3    H128895   5.618   2.717   7.917 -1.2594  0.6828 -0.7550
 2420TIP3    H228896   5.679   2.779   7.793  0.1069  0.4530 -0.2108
 2421TIP3   OH228897   0.192   6.513   8.558 -0.2293  0.7182 -0.4559
 2421TIP3    H128898   0.169   6.504   8.651  0.4835  1.1959 -0.2236
 2421TIP3    H228899   0.206   6.424   8.527 -1.6714  0.4588 -0.4278
 2422TIP3   OH228900   4.706   2.248   0.776 -0.1227 -0.1905  0.2980
 2422TIP3    H128901   4.779   2.250   0.838  0.6412  0.6594 -0.5882
 2422TIP3    H228902   4.642   2.309   0.812  0.6570  0.9106 -0.1153
 2423TIP3   OH228903   3.777   6.045   1.604  0.2150 -0.4103  0.2002
 2423TIP3    H128904   3.737   6.096   1.534 -0.3180 -0.9211  0.1187
 2423TIP3    H228905   3.769   5.954   1.574  2.3411 -0.4809 -0.2744
 2424TIP3   OH228906   0.677   0.731   7.679 -0.5719  0.1732 -0.9784
 2424TIP3    H128907   0.630   0.801   7.634 -0.5110  0.5576 -0.4510
 2424TIP3    H228908   0.725   0.775   7.749 -0.5320 -0.3946 -0.6395
 2425TIP3   OH228909   6.696   1.848   1.477 -0.1033  0.6155  0.0344
 2425TIP3    H128910   6.626   1.896   1.521 -0.5481  0.8888 -0.9361
 2425TIP3    H228911   6.744   1.804   1.547 -2.3529 -1.0663  0.6205
 2426TIP3   OH228912   4.689   0.936   2.671 -0.8248  0.2830  0.4783
 2426TIP3    H128913   4.659   0.849   2.700  0.7153 -0.2293  0.6596
 2426TIP3    H228914   4.633   0.957   2.597 -1.8899 -0.4170  1.0523
 2427TIP3   OH228915   2.164   4.285   8.114 -0.0990 -0.0532  0.1749
 2427TIP3    H128916   2.104   4.216   8.086 -0.4800 -0.3465  1.6560
 2427TIP3    H228917   2.112   4.342   8.170  0.6387  0.5036  0.3186
 2428TIP3   OH228918   5.627   5.309   6.971  0.0544 -0.0033  0.1454
 2428TIP3    H128919   5.568   5.242   6.935  0.0690 -0.1381  0.3713
 2428TIP3    H228920   5.697   5.317   6.906  0.3461 -0.6071  0.3793
 2429TIP3   OH228921   5.783   5.157   6.454  0.2027 -0.1540 -0.4432
 2429TIP3    H128922   5.786   5.249   6.477 -0.5697 -0.0905 -0.5522
 2429TIP3    H228923   5.713   5.121   6.508 -0.0591 -0.4967 -0.9970
 2430TIP3   OH228924   3.587   4.965   1.055 -0.2411 -0.1637  0.4748
 2430TIP3    H128925   3.619   4.966   1.145 -0.9382 -1.4595  0.7632
 2430TIP3    H228926   3.494   4.944   1.063 -0.4922  0.5113 -0.5045
 2431TIP3   OH228927   0.626   4.785   1.353  0.5573  0.4228 -0.4258
 2431TIP3    H128928   0.583   4.870   1.340 -1.0812 -0.0157  1.5443
 2431TIP3    H228929   0.637   4.778   1.448  1.5124 -1.1882 -0.6184
 2432TIP3   OH228930   3.794   4.731   8.245  0.2260  0.1040 -0.0552
 2432TIP3    H128931   3.723   4.756   8.304 -0.2228  0.2126 -0.6402
 2432TIP3    H228932   3.771   4.769   8.161  1.7366  1.4558  0.0923
 2433TIP3   OH228933   3.184   3.064   1.954 -0.3840 -0.4888 -0.3285
 2433TIP3    H128934   3.141   3.092   2.035 -0.4553 -0.1229 -0.4910
 2433TIP3    H228935   3.121   3.083   1.885 -1.0477 -2.4059 -0.3155
 2434TIP3   OH228936   5.345   4.877   8.031  0.4349 -0.6250 -0.3329
 2434TIP3    H128937   5.391   4.795   8.044  0.2652 -0.7371 -0.4341
 2434TIP3    H228938   5.294   4.864   7.951  0.7113 -0.2876 -0.5688
 2435TIP3   OH228939   4.956   5.203   7.536  0.8632  0.6444  0.3128
 2435TIP3    H128940   5.034   5.196   7.481  1.3045 -0.3394  1.0152
 2435TIP3    H228941   4.943   5.114   7.570 -0.3229  0.8880  0.5387
 2436TIP3   OH228942   6.322   6.328   1.121  0.4909  0.0909 -0.4711
 2436TIP3    H128943   6.400   6.366   1.081  0.1866  0.2102 -0.9570
 2436TIP3    H228944   6.249   6.369   1.075  0.1480 -0.5033 -0.4630
 2437TIP3   OH228945   5.263   1.527   1.987  0.6053  0.1886  0.2834
 2437TIP3    H128946   5.288   1.562   1.901  0.6566 -0.1681  0.1551
 2437TIP3    H228947   5.180   1.484   1.972  0.4924  0.3394  0.4673
 2438TIP3   OH228948   2.852   5.409   0.367 -0.0814  0.1274  0.0115
 2438TIP3    H128949   2.856   5.396   0.272  3.4576 -0.0479  0.0610
 2438TIP3    H228950   2.918   5.350   0.402 -0.6478  0.8784  2.5177
 2439TIP3   OH228951   1.838   6.098   1.848 -0.5020  0.3516 -0.3677
 2439TIP3    H128952   1.821   6.032   1.915 -0.8723 -1.0279 -1.7536
 2439TIP3    H228953   1.787   6.174   1.876 -1.0942 -0.3774  0.6189
 2440TIP3   OH228954   6.150   2.190   8.127  0.1588 -0.3654 -0.4681
 2440TIP3    H128955   6.134   2.100   8.098 -0.4585 -0.0973 -0.9613
 2440TIP3    H228956   6.245   2.199   8.121  0.3435 -1.3140  0.5776
 2441TIP3   OH228957   0.146   6.287   1.552  0.4799 -0.5627 -0.6619
 2441TIP3    H128958   0.102   6.241   1.624  1.4454 -0.5045  0.0047
 2441TIP3    H228959   0.235   6.302   1.586  0.0813  2.1853 -0.6788
 2442TIP3   OH228960   6.116   0.768   7.045 -0.2228 -0.1672  0.5860
 2442TIP3    H128961   6.112   0.861   7.020  0.0294 -0.0163  1.0909
 2442TIP3    H228962   6.206   0.743   7.027  0.1839  0.1571  2.0542
 2443TIP3   OH228963   6.113   2.425   7.920  0.0608  0.0348  0.3049
 2443TIP3    H128964   6.127   2.332   7.903 -0.2219 -0.2678  1.6388
 2443TIP3    H228965   6.200   2.461   7.933  0.3806  0.4444 -2.3328
 2444TIP3   OH228966   5.765   3.481   8.275  0.1053  0.3909  0.1080
 2444TIP3    H128967   5.770   3.534   8.196 -1.9318  2.9780  1.5514
 2444TIP3    H228968   5.695   3.419   8.259 -1.0866  1.6554  0.1951
 2445TIP3   OH228969   0.964   1.720   1.272 -0.2701  0.4588 -0.1193
 2445TIP3    H128970   1.039   1.672   1.237  0.2578  0.9276  0.3457
 2445TIP3    H228971   0.935   1.775   1.199 -0.3169  0.0970 -0.3765
 2446TIP3   OH228972   0.170   1.100   0.314 -0.6169  0.2905  0.2583
 2446TIP3    H128973   0.075   1.108   0.325 -0.4968  0.1137  1.6213
 2446TIP3    H228974   0.187   1.136   0.227 -2.0338 -0.4701 -0.3741
 2447TIP3   OH228975   2.995   5.319   0.146  0.1783 -0.0954 -0.2831
 2447TIP3    H128976   3.040   5.241   0.177  0.4756 -0.4499 -1.5539
 2447TIP3    H228977   3.066   5.382   0.128 -0.0798  0.6363  1.1170
 2448TIP3   OH228978   4.028   4.701   8.765  0.1765  0.1809 -0.0201
 2448TIP3    H128979   4.007   4.752   8.687 -1.0092  0.9247  0.7587
 2448TIP3    H228980   4.027   4.610   8.735 -0.8488  0.4176 -0.7461
 2449TIP3   OH228981   2.803   3.481   0.494 -0.2238  0.8360 -0.0804
 2449TIP3    H128982   2.849   3.473   0.578 -2.2106 -0.2494  0.9765
 2449TIP3    H228983   2.741   3.552   0.508  0.0743  1.2951 -0.9926
 2450TIP3   OH228984   1.731   3.902   1.379 -0.0344 -0.0491 -0.4674
 2450TIP3    H128985   1.691   3.815   1.378 -2.1220  0.7549  1.8475
 2450TIP3    H228986   1.660   3.960   1.407  2.2678  1.7902  2.0813
 2451TIP3   OH228987   2.860   1.072   8.382  0.4741  0.5188 -0.0030
 2451TIP3    H128988   2.873   1.057   8.289 -0.5588 -0.3815 -0.0169
 2451TIP3    H228989   2.937   1.031   8.423 -0.0015 -0.7934 -0.3539
 2452TIP3   OH228990   2.589   0.708   7.209 -0.2976  0.1965  0.3794
 2452TIP3    H128991   2.679   0.739   7.204 -0.4139  0.5513  0.4579
 2452TIP3    H228992   2.594   0.614   7.188  0.2034  0.0172  1.2947
 2453TIP3   OH228993   3.964   6.108   7.088 -0.5326 -0.2311 -0.0260
 2453TIP3    H128994   3.999   6.064   7.010 -1.0686  0.3433 -0.6038
 2453TIP3    H228995   3.912   6.181   7.053 -0.1373  0.5061  0.8979
 2454TIP3   OH228996   3.676   6.401   1.108  0.6415  0.1675 -0.5970
 2454TIP3    H128997   3.673   6.457   1.185  2.2756  0.2538 -0.5662
 2454TIP3    H228998   3.717   6.456   1.040 -0.3598 -0.0558 -1.4101
 2455TIP3   OH228999   6.298   2.577   7.190 -0.2520  0.2613  0.2156
 2455TIP3    H129000   6.208   2.549   7.205 -0.3835  0.6916  0.2425
 2455TIP3    H229001   6.294   2.625   7.108 -0.7441  3.3222  1.8817
 2456TIP3   OH229002   6.694   6.680   7.964 -0.7577 -0.5004  0.4077
 2456TIP3    H129003   6.633   6.629   7.911 -1.0710  2.1813 -2.0811
 2456TIP3    H229004   6.642   6.756   7.993  0.6952  0.5657  0.3314
 2457TIP3   OH229005   4.546   0.637   8.671 -0.7311 -0.5555  0.5896
 2457TIP3    H129006   4.572   0.600   8.587  1.9407 -0.7644  1.3807
 2457TIP3    H229007   4.567   0.730   8.664  2.0903 -0.9794  1.7558
 2458TIP3   OH229008   1.652   6.074   7.588  0.3956 -0.4257  0.4437
 2458TIP3    H129009   1.613   6.050   7.672 -0.3940  3.4183  1.3429
 2458TIP3    H229010   1.589   6.134   7.548  2.1954  0.3674 -1.4059
 2459TIP3   OH229011   0.662   3.731   0.493  0.3444  0.5076  0.3850
 2459TIP3    H129012   0.585   3.680   0.468  0.3088  0.5686  0.3684
 2459TIP3    H229013   0.683   3.702   0.581  1.3635 -0.7883 -0.2499
 2460TIP3   OH229014   5.694   4.817   8.693  0.4130  0.0321  0.4019
 2460TIP3    H129015   5.771   4.784   8.739 -0.5048 -0.6762  1.4829
 2460TIP3    H229016   5.712   4.799   8.601  1.1569 -0.9504  0.7216
 2461TIP3   OH229017   5.521   6.316   1.386 -0.0956 -0.0168 -0.4502
 2461TIP3    H129018   5.530   6.223   1.408 -1.3038 -0.1219 -0.3305
 2461TIP3    H229019   5.452   6.348   1.444  0.6004  1.0687 -0.1956
 2462TIP3   OH229020   3.531   5.463   1.902 -0.4020  0.4861  0.1118
 2462TIP3    H129021   3.594   5.391   1.899  0.7358  1.3954  1.3218
 2462TIP3    H229022   3.473   5.441   1.974  0.0204  0.8302  0.5606
 2463TIP3   OH229023   1.556   2.792   1.612 -0.0121 -0.4687  0.7475
 2463TIP3    H129024   1.491   2.830   1.554 -1.6593 -0.8164  2.3005
 2463TIP3    H229025   1.623   2.756   1.553 -1.3010 -0.2731 -0.8865
 2464TIP3   OH229026   0.921   6.206   0.453  0.1064 -0.5328  0.3741
 2464TIP3    H129027   0.925   6.241   0.364  2.6677 -0.5679  0.3943
 2464TIP3    H229028   0.903   6.112   0.441 -1.1048 -0.2632  0.0021
 2465TIP3   OH229029   2.400   4.180   0.931  0.1904  0.7432 -0.6665
 2465TIP3    H129030   2.341   4.239   0.979 -1.5613 -2.0557  0.8913
 2465TIP3    H229031   2.387   4.203   0.839 -2.7216  0.8778 -0.3150
 2466TIP3   OH229032   2.235   3.584   0.456  0.7565  0.1792 -0.3478
 2466TIP3    H129033   2.177   3.511   0.441  0.0548  0.3133  1.5359
 2466TIP3    H229034   2.179   3.662   0.450  0.6378  0.2990  1.6511
 2467TIP3   OH229035   3.032   1.348   7.167  0.3736  0.1896  0.3957
 2467TIP3    H129036   3.037   1.256   7.143  0.5694  0.3879 -0.3421
 2467TIP3    H229037   2.939   1.366   7.178  0.2686  0.1420 -0.4040
 2468TIP3   OH229038   2.379   4.266   0.358  0.8320  0.2071  0.1838
 2468TIP3    H129039   2.299   4.269   0.305  1.8221  1.4154 -1.3466
 2468TIP3    H229040   2.395   4.173   0.371 -0.4454 -0.0747 -0.0613
 2469TIP3   OH229041   0.373   4.702   1.967 -0.2235 -0.0850 -0.0899
 2469TIP3    H129042   0.454   4.666   1.933 -0.3979 -1.1406  0.5759
 2469TIP3    H229043   0.322   4.726   1.889  0.6201  0.3913 -0.5097
 2470TIP3   OH229044   3.935   5.697   1.233 -0.1921  0.6923 -0.5446
 2470TIP3    H129045   3.937   5.788   1.262  2.8422  0.5079  0.1927
 2470TIP3    H229046   3.886   5.699   1.151 -2.3250  2.5137  0.6537
 2471TIP3   OH229047   3.754   2.875   6.711  0.8301  0.3672  0.3610
 2471TIP3    H129048   3.672   2.922   6.696  1.4218  0.8493 -1.6640
 2471TIP3    H229049   3.742   2.792   6.665  1.2617  0.1798  0.5853
 2472TIP3   OH229050   6.053   1.703   7.428  0.3638  0.6800 -0.1856
 2472TIP3    H129051   6.087   1.681   7.341 -0.6151  1.2455 -0.7305
 2472TIP3    H229052   6.042   1.798   7.425 -0.4246  0.6106  0.2725
 2473TIP3   OH229053   2.150   2.632   7.065  0.1618 -0.6121  0.0213
 2473TIP3    H129054   2.216   2.604   7.001 -0.2825  0.1150 -0.7764
 2473TIP3    H229055   2.123   2.552   7.109  0.3259 -1.1599 -0.8565
 2474TIP3   OH229056   0.897   6.693   0.199 -0.6591 -0.1417  0.2838
 2474TIP3    H129057   0.852   6.688   0.115 -1.5956 -2.6641  0.8472
 2474TIP3    H229058   0.854   6.628   0.253  0.6704  0.6245  2.3817
 2475TIP3   OH229059   6.108   0.053   8.094  0.3511 -0.4959 -0.6484
 2475TIP3    H129060   6.052   0.106   8.151  0.6712  1.2394 -1.8639
 2475TIP3    H229061   6.046   0.001   8.042 -0.0225 -0.4570 -0.2480
 2476TIP3   OH229062   2.302   3.421   8.480  0.7087  0.0763 -0.1530
 2476TIP3    H129063   2.371   3.483   8.458  0.9664  0.1934  0.9257
 2476TIP3    H229064   2.345   3.335   8.478  0.7569  0.0969 -0.0107
 2477TIP3   OH229065   4.979   4.407   8.702  0.5063  0.7418 -0.1614
 2477TIP3    H129066   5.072   4.429   8.710  0.7640 -0.4822  0.5714
 2477TIP3    H229067   4.959   4.361   8.784 -0.4092 -0.1469 -0.8566
 2478TIP3   OH229068   2.608   2.823   1.975  0.0568 -0.3643  0.0880
 2478TIP3    H129069   2.654   2.774   2.043  1.1238 -1.2595 -1.2294
 2478TIP3    H229070   2.518   2.829   2.007  0.5305 -0.7188  1.5843
 2479TIP3   OH229071   6.154   4.830   7.056 -0.2696  0.0990 -0.0033
 2479TIP3    H129072   6.191   4.744   7.033  2.3505  1.5379 -1.6272
 2479TIP3    H229073   6.196   4.853   7.139 -1.3916 -0.3579  0.7217
 2480TIP3   OH229074   0.768   2.732   7.240 -0.3901 -0.1592  0.5981
 2480TIP3    H129075   0.832   2.685   7.292 -1.7821 -0.2300  2.3226
 2480TIP3    H229076   0.738   2.803   7.297 -2.6674 -0.8123  0.3146
 2481TIP3   OH229077   2.294   1.749   0.104 -0.2239  0.7448 -0.2854
 2481TIP3    H129078   2.253   1.667   0.131 -0.7262  0.6136 -1.3886
 2481TIP3    H229079   2.222   1.803   0.074  0.1279  1.5358  0.2474
 2482TIP3   OH229080   4.814   3.496   6.654 -0.1220 -0.1802 -0.1167
 2482TIP3    H129081   4.877   3.554   6.695 -0.2264 -0.8639  1.0509
 2482TIP3    H229082   4.862   3.453   6.583  0.2914  0.4088 -0.1918
 2483TIP3   OH229083   5.741   1.911   1.049  0.1119 -0.4092 -0.2298
 2483TIP3    H129084   5.712   1.956   1.128 -2.3779  0.3600 -1.4887
 2483TIP3    H229085   5.727   1.818   1.068 -1.0098 -0.1968  0.0681
 2484TIP3   OH229086   5.929   2.404   2.389  0.5013 -0.4166 -0.4510
 2484TIP3    H129087   5.983   2.326   2.380 -1.8375 -2.0669 -1.0990
 2484TIP3    H229088   5.955   2.460   2.316 -0.4108 -2.3589 -2.3922
 2485TIP3   OH229089   3.222   5.490   1.178  0.6809 -0.0792  0.2195
 2485TIP3    H129090   3.309   5.470   1.143  0.4695  1.5668 -1.4307
 2485TIP3    H229091   3.238   5.519   1.267  2.1780  2.3346 -0.7310
 2486TIP3   OH229092   0.966   0.834   0.848 -0.3713  0.1610 -0.0301
 2486TIP3    H129093   0.926   0.873   0.770 -1.1947 -0.6563 -0.0376
 2486TIP3    H229094   0.939   0.742   0.845  0.3896 -0.0968  0.7092
 2487TIP3   OH229095   2.128   6.794   7.478  0.4161  0.0379  0.4391
 2487TIP3    H129096   2.180   6.797   7.558  0.3937 -2.9942  0.6629
 2487TIP3    H229097   2.047   6.749   7.503  0.0211 -0.1705 -1.1046
 2488TIP3   OH229098   5.223   1.777   2.531  0.0148  0.4415  0.2129
 2488TIP3    H129099   5.252   1.868   2.524  2.5925 -0.3594 -0.4813
 2488TIP3    H229100   5.304   1.727   2.542 -1.3509 -1.7681  0.7415
 2489TIP3   OH229101   2.128   2.059   1.064  0.5422 -0.1376 -0.5487
 2489TIP3    H129102   2.108   2.024   0.977 -0.4584 -0.2951 -0.2779
 2489TIP3    H229103   2.223   2.061   1.068  0.6218 -1.7227 -1.0131
 2490TIP3   OH229104   3.153   1.527   2.662  0.4847 -0.3715  0.7345
 2490TIP3    H129105   3.105   1.585   2.720 -1.1274 -0.3135 -0.5734
 2490TIP3    H229106   3.087   1.468   2.627  1.3221 -0.2343 -1.2386
 2491TIP3   OH229107   4.235   1.462   7.640 -1.2109 -0.4180 -0.3046
 2491TIP3    H129108   4.180   1.417   7.704 -0.9898  0.2189  0.3481
 2491TIP3    H229109   4.204   1.553   7.642 -0.6476 -0.2197 -0.4999
 2492TIP3   OH229110   6.305   3.356   0.420  0.4813  0.1114  0.6281
 2492TIP3    H129111   6.397   3.333   0.404  0.0810 -2.1657  1.2009
 2492TIP3    H229112   6.306   3.450   0.437  2.8407 -0.0038  1.4605
 2493TIP3   OH229113   2.324   2.444   8.100 -0.1969 -0.1049  0.1445
 2493TIP3    H129114   2.347   2.537   8.107 -1.0539  0.1934 -0.7652
 2493TIP3    H229115   2.310   2.416   8.190 -0.7013  0.8677  0.3861
 2494TIP3   OH229116   4.831   0.878   7.000 -0.1457 -0.1896 -0.2549
 2494TIP3    H129117   4.753   0.828   7.025  0.6159 -0.9851  0.5985
 2494TIP3    H229118   4.881   0.818   6.944  0.2109  0.0484 -0.1910
 2495TIP3   OH229119   2.969   5.425   1.125  0.4335  0.0735 -0.5833
 2495TIP3    H129120   2.946   5.510   1.088  0.3257  0.8714  1.2204
 2495TIP3    H229121   3.063   5.431   1.143  0.1145  0.4477  1.0635
 2496TIP3   OH229122   6.796   3.384   7.677  0.2957  0.4855  0.4185
 2496TIP3    H129123   6.743   3.407   7.754  0.0781  0.4430  0.2817
 2496TIP3    H229124   6.795   3.288   7.676  1.4659  0.4418  1.1717
 2497TIP3   OH229125   5.306   0.323   0.034 -0.0486  0.0365  0.4426
 2497TIP3    H129126   5.351   0.315  -0.050 -1.1455 -0.9796 -0.0832
 2497TIP3    H229127   5.294   0.232   0.064 -1.7643  0.2549  0.5190
 2498TIP3   OH229128   3.894   1.409   1.895  0.4264  0.1448  0.5270
 2498TIP3    H129129   3.907   1.334   1.953  0.4943 -1.0027 -0.9199
 2498TIP3    H229130   3.964   1.401   1.830 -0.5248  0.5344 -0.5823
 2499TIP3   OH229131   4.270   5.240   7.942  0.2383  0.6183 -0.1820
 2499TIP3    H129132   4.191   5.290   7.963  0.3020  1.0640 -0.9529
 2499TIP3    H229133   4.279   5.178   8.014 -1.0734  0.2543 -0.2999
 2500TIP3   OH229134   4.925   6.625   1.080 -0.1667  0.2652  0.1580
 2500TIP3    H129135   4.990   6.556   1.096 -0.7524 -0.5653 -0.9582
 2500TIP3    H229136   4.880   6.634   1.164  2.0377  1.6085  1.3027
 2501TIP3   OH229137   2.608   0.311   7.849 -0.9476  0.5101  0.1811
 2501TIP3    H129138   2.661   0.374   7.800 -2.2182  0.2400 -1.6642
 2501TIP3    H229139   2.531   0.360   7.876 -1.7599 -0.0934 -0.9259
 2502TIP3   OH229140   3.665   0.925   8.565  0.1227 -0.0366  0.1844
 2502TIP3    H129141   3.712   0.918   8.648 -1.3336  0.3999  1.0914
 2502TIP3    H229142   3.641   1.018   8.559  1.5921  0.2911 -1.5519
 2503TIP3   OH229143   6.702   3.112   1.206  0.1000  0.2991 -0.4599
 2503TIP3    H129144   6.645   3.171   1.157  1.0196  0.6330 -1.1610
 2503TIP3    H229145   6.697   3.143   1.296 -1.3036 -0.0718 -0.3856
 2504TIP3   OH229146   5.693   4.598   8.452 -0.6056 -0.0672 -0.0683
 2504TIP3    H129147   5.726   4.531   8.512  0.6798  0.8372  0.2814
 2504TIP3    H229148   5.762   4.665   8.450 -0.8375  0.1903 -2.1524
 2505TIP3   OH229149   2.443   4.628   1.107  0.3922 -0.5427  0.1364
 2505TIP3    H129150   2.490   4.570   1.047 -0.5457 -1.3204  0.1202
 2505TIP3    H229151   2.365   4.654   1.058  0.9011  0.9387  0.0614
 2506TIP3   OH229152   5.261   2.369   1.191  0.0530 -0.1728 -0.4730
 2506TIP3    H129153   5.345   2.338   1.160  0.0979 -2.1938  1.4085
 2506TIP3    H229154   5.234   2.436   1.128  3.2164  0.8395 -0.9163
 2507TIP3   OH229155   5.658   5.235   0.281 -0.3144  0.0877 -0.7758
 2507TIP3    H129156   5.628   5.148   0.304 -2.1941  1.3798  2.3119
 2507TIP3    H229157   5.585   5.274   0.234  0.3889  0.1207 -1.8547
 2508TIP3   OH229158   1.519   2.987   7.366  0.8114  0.1025  0.0660
 2508TIP3    H129159   1.614   2.999   7.361  0.9061 -0.9475 -1.0516
 2508TIP3    H229160   1.484   3.075   7.382  2.0150  0.3589  1.4675
 2509TIP3   OH229161   2.025   0.695   0.340 -0.1832  0.1342  0.2031
 2509TIP3    H129162   2.091   0.763   0.323  0.0259 -0.1323 -0.0634
 2509TIP3    H229163   2.065   0.639   0.407  0.2808 -0.5937 -0.6595
 2510TIP3   OH229164   5.888   5.073   7.602 -0.5433 -0.3730 -0.5386
 2510TIP3    H129165   5.957   5.008   7.589  1.7773  1.7528  0.5279
 2510TIP3    H229166   5.854   5.054   7.690 -0.2328 -0.4628 -0.4380
 2511TIP3   OH229167   2.791   2.646   1.093 -0.0564  0.0411 -0.4006
 2511TIP3    H129168   2.710   2.603   1.063  0.4153 -0.6707 -0.6939
 2511TIP3    H229169   2.794   2.629   1.187  0.1561 -0.6342 -0.5244
 2512TIP3   OH229170   0.615   2.359   1.683  0.4220  0.0026  1.0775
 2512TIP3    H129171   0.680   2.426   1.707  0.0128  0.1864  1.7096
 2512TIP3    H229172   0.667   2.281   1.664  1.0119  0.8520 -1.0507
 2513TIP3   OH229173   2.769   1.420   7.203  0.8144 -0.7080  0.2813
 2513TIP3    H129174   2.719   1.375   7.134  0.7089 -0.2941  0.0868
 2513TIP3    H229175   2.703   1.461   7.258  0.9633  0.7240 -0.5799
 2514TIP3   OH229176   0.707   4.907   0.892  0.1546 -0.1964  0.3594
 2514TIP3    H129177   0.722   4.835   0.954 -0.1405  0.8511  1.6911
 2514TIP3    H229178   0.773   4.972   0.915  0.2446  0.0879 -0.6557
 2515TIP3   OH229179   6.313   5.133   1.562  0.0482  0.0195  0.7293
 2515TIP3    H129180   6.224   5.166   1.580 -0.4277 -0.1248 -1.2081
 2515TIP3    H229181   6.350   5.196   1.501  1.5683  0.4452  2.0393
 2516TIP3   OH229182   3.333   1.949   8.258  0.2943 -0.5545 -0.5507
 2516TIP3    H129183   3.261   1.965   8.197 -0.1785  1.1379  0.4053
 2516TIP3    H229184   3.322   1.858   8.285 -0.6427 -0.7387 -1.4865
 2517TIP3   OH229185   4.519   1.583   7.904  0.0317  0.2572  0.3000
 2517TIP3    H129186   4.529   1.527   7.981 -1.6866 -0.7113 -0.1374
 2517TIP3    H229187   4.567   1.663   7.927  3.0649 -1.5110  0.7128
 2518TIP3   OH229188   4.749   4.792   7.150  0.0364 -0.2131  0.3249
 2518TIP3    H129189   4.776   4.884   7.152  2.1469 -0.8012  1.5404
 2518TIP3    H229190   4.653   4.796   7.153 -0.0852  1.9601 -2.2615
 2519TIP3   OH229191   5.827   1.047   1.238  0.6331 -0.4635 -0.1022
 2519TIP3    H129192   5.909   1.003   1.217  1.2165  0.3912  0.3048
 2519TIP3    H229193   5.841   1.083   1.326 -0.6534 -1.4055  0.5145
 2520TIP3   OH229194   3.499   6.113   0.310 -0.1952 -0.3122 -0.5229
 2520TIP3    H129195   3.499   6.034   0.364 -0.4160  0.1923  0.2343
 2520TIP3    H229196   3.425   6.164   0.342 -1.5333 -0.8427 -2.5884
 2521TIP3   OH229197   3.143   1.313   2.362 -0.3239 -0.3236  0.0233
 2521TIP3    H129198   3.050   1.309   2.341 -0.9733 -0.4698  2.5340
 2521TIP3    H229199   3.180   1.232   2.326 -1.5582 -1.1242  0.5112
 2522TIP3   OH229200   5.906   0.457   7.665  0.0668 -0.1353  0.3501
 2522TIP3    H129201   5.908   0.553   7.659  1.9522 -0.0714  1.1426
 2522TIP3    H229202   5.974   0.436   7.729 -0.3987 -2.0103  0.2827
 2523TIP3   OH229203   1.075   0.265   8.130  0.2566 -0.1660  0.1880
 2523TIP3    H129204   0.992   0.232   8.095  2.0533 -0.2276 -4.6971
 2523TIP3    H229205   1.059   0.358   8.145 -0.3553  0.2111 -2.3776
 2524TIP3   OH229206   4.836   0.419   0.813 -0.3939  0.1863  0.1562
 2524TIP3    H129207   4.860   0.503   0.775 -1.6208  0.7343  0.5291
 2524TIP3    H229208   4.905   0.400   0.877 -0.4554  1.2529  0.5566
 2525TIP3   OH229209   1.336   0.748   1.618 -0.0410  0.1904 -0.4679
 2525TIP3    H129210   1.394   0.749   1.542 -0.8206  0.4807 -1.0763
 2525TIP3    H229211   1.248   0.757   1.581 -0.4305  0.3822  0.4745
 2526TIP3   OH229212   4.468   4.059   0.080  0.1139 -0.3095  0.5619
 2526TIP3    H129213   4.424   4.078   0.162  1.1746 -1.5538  1.4484
 2526TIP3    H229214   4.408   4.093   0.012 -0.7220  0.8205  1.8151
 2527TIP3   OH229215   2.624   1.631   8.701  0.0644  0.7792  0.0013
 2527TIP3    H129216   2.551   1.572   8.682  0.2081  1.1578 -1.9289
 2527TIP3    H229217   2.691   1.574   8.738 -0.3311 -0.0261 -0.4921
 2528TIP3   OH229218   4.683   2.850   7.947 -0.2946  0.9158 -0.7888
 2528TIP3    H129219   4.593   2.879   7.938 -0.3345  0.7228 -1.0075
 2528TIP3    H229220   4.681   2.757   7.928  0.0788  1.0624 -1.6007
 2529TIP3   OH229221   0.100   6.044   7.444 -0.0727 -0.1064 -0.0191
 2529TIP3    H129222   0.043   6.091   7.505  1.4635  1.1478  0.5304
 2529TIP3    H229223   0.187   6.053   7.481  0.5199 -1.9062 -0.8710
 2530TIP3   OH229224   4.448   4.310   1.895 -0.0901  0.4949  0.6216
 2530TIP3    H129225   4.402   4.226   1.897  0.8809 -0.0959 -0.4709
 2530TIP3    H229226   4.380   4.374   1.877 -0.3641 -0.5331 -2.5703
 2531TIP3   OH229227   5.632   5.681   0.503 -0.1358 -0.3938  0.2782
 2531TIP3    H129228   5.722   5.699   0.474  0.6911 -1.8960  1.7580
 2531TIP3    H229229   5.596   5.624   0.435  0.3330 -0.4876  0.1019
 2532TIP3   OH229230   4.350   4.116   2.233 -0.3104 -0.0191  0.7749
 2532TIP3    H129231   4.304   4.158   2.306 -0.4479  0.6101  0.3305
 2532TIP3    H229232   4.426   4.172   2.217  0.7188 -1.1358  1.6042
 2533TIP3   OH229233   3.190   3.063   1.018  0.0249  0.2199  0.0646
 2533TIP3    H129234   3.156   2.974   1.008  0.2504  0.2110 -0.6167
 2533TIP3    H229235   3.249   3.076   0.944 -1.9628  1.8525 -1.3625
 2534TIP3   OH229236   6.496   1.748   1.065  0.7381  0.0138 -0.5121
 2534TIP3    H129237   6.550   1.758   0.987 -1.2240  0.1759 -1.9327
 2534TIP3    H229238   6.513   1.658   1.094  0.7980 -0.3797 -1.7057
 2535TIP3   OH229239   6.316   3.915   8.617 -0.6769  0.5864  0.5793
 2535TIP3    H129240   6.260   3.986   8.648  0.0115  1.0308  0.8303
 2535TIP3    H229241   6.342   3.943   8.529 -1.3825  0.0577  0.1881
 2536TIP3   OH229242   3.011   5.413   6.415  0.0777 -0.6769 -0.5333
 2536TIP3    H129243   3.027   5.493   6.364 -1.2719  1.6913  2.4057
 2536TIP3    H229244   2.924   5.384   6.387  0.3399 -0.8223 -1.2195
 2537TIP3   OH229245   5.466   4.534   0.928 -0.0752 -0.6152 -0.5062
 2537TIP3    H129246   5.484   4.560   0.838  1.2615  2.4408  0.5205
 2537TIP3    H229247   5.379   4.493   0.925 -0.6140  0.5662 -2.9573
 2538TIP3   OH229248   6.656   0.286   0.096 -0.5725 -0.6668  0.0664
 2538TIP3    H129249   6.640   0.278   0.002 -2.3632  0.1206  0.2641
 2538TIP3    H229250   6.603   0.216   0.135  0.7670 -1.4856  0.4642
 2539TIP3   OH229251   4.947   4.947   7.631  0.0703 -0.4114  0.0760
 2539TIP3    H129252   4.925   4.873   7.575 -0.2544  0.1593 -0.5575
 2539TIP3    H229253   5.012   4.912   7.693 -0.2378 -1.2714 -0.0822
 2540TIP3   OH229254   1.601   0.576   7.101 -0.0344 -0.1424 -0.4278
 2540TIP3    H129255   1.570   0.631   7.174  1.8886  0.0203  0.3292
 2540TIP3    H229256   1.581   0.627   7.023 -1.2059  0.1582  0.0495
 2541TIP3   OH229257   2.737   4.619   7.604  0.4368  0.5381  0.8025
 2541TIP3    H129258   2.729   4.695   7.547  1.1618 -0.8931 -1.3186
 2541TIP3    H229259   2.662   4.564   7.582  1.7872 -0.9545 -0.3346
 2542TIP3   OH229260   0.570   0.392   6.895  0.0450 -0.1643 -0.3180
 2542TIP3    H129261   0.531   0.350   6.971  0.0878 -0.2819 -0.3615
 2542TIP3    H229262   0.501   0.450   6.861  0.8900  1.9642  1.4137
 2543TIP3   OH229263   6.821   4.423   2.160  0.5803 -0.0873 -0.4363
 2543TIP3    H129264   6.900   4.435   2.213 -1.6306 -0.5714  3.3621
 2543TIP3    H229265   6.831   4.336   2.121  1.3476 -0.7528  1.1551
 2544TIP3   OH229266   4.041   4.682   7.980  0.2237 -0.4777 -0.2179
 2544TIP3    H129267   4.120   4.718   7.939  0.5475 -0.6090  0.2793
 2544TIP3    H229268   4.012   4.613   7.920  1.2342 -1.3178  0.2223
 2545TIP3   OH229269   3.195   1.140   1.507 -0.7512  0.4253  0.5231
 2545TIP3    H129270   3.254   1.215   1.512  1.2340 -1.1265  1.8932
 2545TIP3    H229271   3.136   1.150   1.582 -0.0351  0.2884  1.1164
 2546TIP3   OH229272   1.574   1.686   1.829 -0.2131  0.2743  0.1419
 2546TIP3    H129273   1.650   1.731   1.793 -0.6699 -0.0254 -1.2721
 2546TIP3    H229274   1.551   1.735   1.908  1.1847  0.6068  0.3663
 2547TIP3   OH229275   2.994   3.874   0.784  0.2186 -0.6458  0.4844
 2547TIP3    H129276   3.078   3.870   0.740 -0.1033 -1.1304 -0.1043
 2547TIP3    H229277   2.946   3.943   0.738 -0.2998 -1.4889 -0.2694
 2548TIP3   OH229278   1.625   5.212   8.466  0.2080 -0.1909  0.3950
 2548TIP3    H129279   1.562   5.168   8.409  0.5364 -0.3478  0.1535
 2548TIP3    H229280   1.593   5.302   8.473  0.3081 -0.1019 -0.2489
 2549TIP3   OH229281   6.389   3.417   7.979 -0.6026 -0.3623  0.0845
 2549TIP3    H129282   6.391   3.500   7.932 -1.0678 -0.5325 -0.2507
 2549TIP3    H229283   6.452   3.362   7.933 -0.5720 -0.3125  0.0673
 2550TIP3   OH229284   1.134   2.699   7.130 -0.1134 -0.0637  0.0421
 2550TIP3    H129285   1.092   2.674   7.212  1.5358 -0.7964  0.7189
 2550TIP3    H229286   1.071   2.757   7.087 -1.0051  0.3740  1.8412
 2551TIP3   OH229287   1.340   3.024   8.200 -1.1988  0.0670  0.1977
 2551TIP3    H129288   1.311   2.937   8.228 -1.5928  0.5612  1.3548
 2551TIP3    H229289   1.389   3.059   8.274 -0.0702  0.4089 -0.6666
 2552TIP3   OH229290   3.486   1.528   7.408  0.4116  0.5213 -0.0413
 2552TIP3    H129291   3.402   1.526   7.455  0.2732  0.2100 -0.3007
 2552TIP3    H229292   3.493   1.442   7.367  0.5113  0.8024 -0.6235
 2553TIP3   OH229293   0.868   0.539   2.060  0.2483 -0.4495 -0.7287
 2553TIP3    H129294   0.942   0.479   2.071  0.4117 -0.0136  0.7624
 2553TIP3    H229295   0.835   0.553   2.149 -0.7669  0.4444 -1.2229
 2554TIP3   OH229296   3.303   1.173   8.664  0.3090  0.1600 -0.0487
 2554TIP3    H129297   3.212   1.150   8.683  0.2195  1.7160  1.6528
 2554TIP3    H229298   3.330   1.110   8.596 -2.0197 -0.3181 -0.6194
 2555TIP3   OH229299   4.278   3.292   0.190  0.0323  0.0391 -0.3061
 2555TIP3    H129300   4.257   3.276   0.098 -0.9353  0.7320 -0.2090
 2555TIP3    H229301   4.195   3.283   0.236 -0.4278  3.9696 -0.0546
 2556TIP3   OH229302   5.141   5.472   1.629 -0.7494 -0.5917  0.4459
 2556TIP3    H129303   5.101   5.435   1.551 -0.7587 -1.7005  0.9458
 2556TIP3    H229304   5.068   5.506   1.680 -0.5211  3.3399 -1.5104
 2557TIP3   OH229305   5.724   5.437   1.164  0.0085  0.1542  0.3950
 2557TIP3    H129306   5.764   5.368   1.217 -1.2316 -0.7884  0.1527
 2557TIP3    H229307   5.653   5.471   1.218  0.7139  1.4013  0.5847
 2558TIP3   OH229308   5.386   3.140   7.003  0.6242  0.0905 -0.0828
 2558TIP3    H129309   5.332   3.101   7.072  0.4594  0.5021  0.0212
 2558TIP3    H229310   5.323   3.186   6.947  0.7807 -0.0672 -0.3954
 2559TIP3   OH229311   4.509   3.882   1.353  0.0685  0.0878 -0.5903
 2559TIP3    H129312   4.555   3.964   1.334  1.6031 -0.7999 -0.9081
 2559TIP3    H229313   4.562   3.841   1.422 -2.3918  0.7499  1.8881
 2560TIP3   OH229314   5.369   4.848   0.990 -0.0543  0.0878 -0.3115
 2560TIP3    H129315   5.404   4.797   1.063  0.9709  0.1613 -0.7337
 2560TIP3    H229316   5.298   4.794   0.956  0.2020 -0.4792  0.0358
 2561TIP3   OH229317   1.095   4.797   8.173  0.2556  0.6777 -0.0270
 2561TIP3    H129318   1.106   4.744   8.253 -2.6678 -0.8962 -0.5474
 2561TIP3    H229319   1.185   4.818   8.147  1.5356 -2.4922  1.2730
 2562TIP3   OH229320   0.916   0.254   7.584  0.2377  0.0172 -0.6258
 2562TIP3    H129321   0.862   0.191   7.537  0.0603 -0.6698  0.4794
 2562TIP3    H229322   0.861   0.332   7.590 -0.6651 -0.6782  0.5044
 2563TIP3   OH229323   4.109   3.569   0.158  0.1433 -0.1717 -0.1758
 2563TIP3    H129324   4.135   3.500   0.219  0.4841  0.5853  0.5394
 2563TIP3    H229325   4.013   3.569   0.161 -0.0598 -2.6019 -2.4182
 2564TIP3   OH229326   5.896   5.934   7.919 -0.1471  0.2587  0.4582
 2564TIP3    H129327   5.917   6.012   7.868  0.4855  0.2019  0.6196
 2564TIP3    H229328   5.825   5.960   7.976 -0.8088  0.3500 -0.3878
 2565TIP3   OH229329   2.543   2.187   2.390  0.5437  0.5228  0.5484
 2565TIP3    H129330   2.512   2.164   2.303  0.6154  1.4792  0.2619
 2565TIP3    H229331   2.628   2.144   2.397  1.0837  1.4085 -0.3242
 2566TIP3   OH229332   4.910   4.699   8.418  0.1289 -0.0301  0.3555
 2566TIP3    H129333   4.981   4.733   8.474 -1.0018  0.8160  1.3162
 2566TIP3    H229334   4.862   4.639   8.475 -0.6724  0.3619  0.0942
 2567TIP3   OH229335   1.274   2.523   8.380  0.7352  0.7649 -0.2130
 2567TIP3    H129336   1.315   2.445   8.419  0.9075  0.0551 -1.7520
 2567TIP3    H229337   1.203   2.545   8.440  1.5149  0.2345  0.9509
 2568TIP3   OH229338   6.123   4.955   7.627  0.5408  0.8336 -0.1520
 2568TIP3    H129339   6.165   5.041   7.638 -1.9887  1.9121  2.2853
 2568TIP3    H229340   6.125   4.917   7.714  0.3686 -1.0346 -0.9222
 2569TIP3   OH229341   5.991   1.459   7.937  0.3726  0.1730  0.9310
 2569TIP3    H129342   6.038   1.510   8.003 -0.3380  1.2584  0.6210
 2569TIP3    H229343   6.045   1.465   7.858  1.0753 -0.8847  1.3043
 2570TIP3   OH229344   6.507   3.559   2.317 -0.2697 -0.1332  0.3122
 2570TIP3    H129345   6.594   3.520   2.323  1.5381  3.5691  4.9242
 2570TIP3    H229346   6.518   3.636   2.261 -0.1077  1.0632  1.9214
 2571TIP3   OH229347   0.134   0.612   8.289 -0.5222  0.2434 -0.1893
 2571TIP3    H129348   0.171   0.683   8.342 -0.2226 -0.3135  0.3571
 2571TIP3    H229349   0.204   0.586   8.231 -0.7739  0.6868 -0.7033
 2572TIP3   OH229350   4.525   1.339   1.133  0.6261 -0.7027  0.1053
 2572TIP3    H129351   4.480   1.418   1.103  1.5005 -0.6232 -1.0551
 2572TIP3    H229352   4.470   1.306   1.204 -1.7912 -1.1266 -1.8303
 2573TIP3   OH229353   3.628   1.827   1.787  0.1444  0.0031  0.1029
 2573TIP3    H129354   3.643   1.738   1.820  0.3199  0.4505  1.2752
 2573TIP3    H229355   3.666   1.884   1.853 -0.4598  0.9775 -0.3626
 2574TIP3   OH229356   0.750   0.573   0.754  0.5524  0.9089  0.2134
 2574TIP3    H129357   0.680   0.511   0.735  0.3161  1.3563 -0.3868
 2574TIP3    H229358   0.761   0.568   0.849 -1.0204  1.5944  0.4689
 2575TIP3   OH229359   2.401   6.358   7.421 -0.9567  0.0042  0.3848
 2575TIP3    H129360   2.396   6.454   7.426  1.0820  0.1820  0.1307
 2575TIP3    H229361   2.403   6.339   7.327 -0.1694 -0.1757  0.4304
 2576TIP3   OH229362   4.931   2.521   8.629  0.3228  0.4049  0.4192
 2576TIP3    H129363   4.854   2.483   8.586  0.0248 -1.0504  2.0965
 2576TIP3    H229364   4.958   2.592   8.571 -0.8622 -0.5482 -1.4168
 2577TIP3   OH229365   1.568   3.872   2.016  0.1026  0.2084 -0.3254
 2577TIP3    H129366   1.646   3.879   2.072  0.2479 -0.9133 -0.3613
 2577TIP3    H229367   1.599   3.825   1.938 -0.4823  0.2738 -0.6002
 2578TIP3   OH229368   4.065   0.606   0.799 -0.1159 -0.3556  0.4261
 2578TIP3    H129369   4.017   0.600   0.717  1.1222 -0.4147 -0.3239
 2578TIP3    H229370   4.020   0.545   0.858 -2.5478  1.5115  0.6444
 2579TIP3   OH229371   3.840   4.934   1.219 -0.6935 -0.6384  0.3109
 2579TIP3    H129372   3.855   5.007   1.159  0.8826 -1.3221 -0.1544
 2579TIP3    H229373   3.787   4.972   1.289 -0.9587  0.6383 -0.5519
 2580TIP3   OH229374   5.946   3.172   7.283 -0.0369 -0.3836  0.3429
 2580TIP3    H129375   6.000   3.222   7.222 -0.2373  0.2337  0.6648
 2580TIP3    H229376   5.971   3.204   7.369 -0.3954 -0.6098  0.5331
 2581TIP3   OH229377   2.399   0.511   8.496  0.5504 -0.1651  0.1959
 2581TIP3    H129378   2.440   0.547   8.417  0.3351 -0.9700 -0.2834
 2581TIP3    H229379   2.460   0.534   8.566  2.0475 -1.6497 -0.5476
 2582TIP3   OH229380   2.127   3.061   0.522 -0.1983  0.0609 -0.5099
 2582TIP3    H129381   2.137   3.034   0.613  2.9805 -2.2438 -1.3941
 2582TIP3    H229382   2.141   3.156   0.524 -1.6591  0.3190  1.4826
 2583TIP3   OH229383   5.832   0.920   7.923  0.2087 -0.2553  0.2187
 2583TIP3    H129384   5.808   0.984   7.856 -0.2359 -1.2824 -0.6421
 2583TIP3    H229385   5.890   0.967   7.982  0.7274  0.6524 -0.9701
 2584TIP3   OH229386   5.446   2.562   7.803  0.1913  0.6924  0.4279
 2584TIP3    H129387   5.408   2.550   7.717  0.6870 -1.0585  0.4109
 2584TIP3    H229388   5.372   2.555   7.864 -0.2612  2.5710  0.1628
 2585TIP3   OH229389   6.308   2.135   7.685  0.0778  0.1412  0.1087
 2585TIP3    H129390   6.279   2.220   7.652 -0.4215  0.1141  0.4702
 2585TIP3    H229391   6.392   2.120   7.642  0.0471  0.7004 -0.1525
 2586TIP3   OH229392   5.075   3.076   0.098  0.4633  0.0020  0.7502
 2586TIP3    H129393   5.008   3.125   0.050  2.1395 -0.8602 -2.7565
 2586TIP3    H229394   5.099   3.133   0.171 -2.9796  0.9490  1.3307
 2587TIP3   OH229395   4.714   3.089   0.342 -0.1988  0.4408  0.4658
 2587TIP3    H129396   4.666   3.008   0.355  1.0595 -0.3264  0.5437
 2587TIP3    H229397   4.651   3.148   0.301 -0.7016 -1.1141 -1.1513
 2588TIP3   OH229398   2.162   1.676   1.171  0.8194 -0.0370 -0.1829
 2588TIP3    H129399   2.068   1.676   1.150  0.8336  0.4017 -0.2599
 2588TIP3    H229400   2.205   1.692   1.087  0.9932 -0.8669 -0.2549
 2589TIP3   OH229401   3.679   3.168   6.508 -0.2588 -0.1171  0.3153
 2589TIP3    H129402   3.666   3.233   6.438 -1.0660 -0.9470 -0.3324
 2589TIP3    H229403   3.590   3.140   6.531  0.1075 -1.6284 -0.0269
 2590TIP3   OH229404   6.793   5.660   7.312  0.6685  0.5045 -0.0811
 2590TIP3    H129405   6.701   5.637   7.303  0.1940  1.9882  0.6629
 2590TIP3    H229406   6.816   5.634   7.401  1.6102 -1.8149 -0.9188
 2591TIP3   OH229407   1.864   2.382   1.840 -0.3101  0.1267  0.8462
 2591TIP3    H129408   1.850   2.311   1.903  3.0019 -0.5968  0.9189
 2591TIP3    H229409   1.898   2.454   1.893 -2.5212  1.4878  0.5772
 2592TIP3   OH229410   5.106   4.069   1.353  0.3750 -0.0705  0.5390
 2592TIP3    H129411   5.173   4.001   1.357  1.0282  0.3663 -1.6632
 2592TIP3    H229412   5.064   4.056   1.268 -0.4721  1.3731  0.7051
 2593TIP3   OH229413   2.469   1.068   0.226  0.4847 -1.0471 -0.3316
 2593TIP3    H129414   2.432   1.075   0.138  2.8564  0.7252 -1.2655
 2593TIP3    H229415   2.418   1.129   0.279  0.1013 -0.9229 -0.8383
 2594TIP3   OH229416   3.564   4.327   1.355 -0.4727  0.1497 -0.3616
 2594TIP3    H129417   3.553   4.344   1.262  0.5805 -0.6948 -0.6457
 2594TIP3    H229418   3.537   4.236   1.367 -0.2304  0.1338  0.0906
 2595TIP3   OH229419   0.062   5.444   8.571 -0.1483 -0.2252  0.3946
 2595TIP3    H129420   0.071   5.373   8.509 -1.0866  0.5460 -0.6678
 2595TIP3    H229421   0.053   5.401   8.656 -0.4924 -1.3647 -0.1986
 2596TIP3   OH229422   0.725   2.571   7.753  0.2369 -0.2969 -0.4386
 2596TIP3    H129423   0.698   2.489   7.713 -0.2265  0.8569 -2.6667
 2596TIP3    H229424   0.644   2.608   7.788  0.2909 -0.3817 -0.2231
 2597TIP3   OH229425   6.049   1.921   8.192 -0.1649  0.2185  0.1687
 2597TIP3    H129426   6.108   1.854   8.226 -0.1553  0.5609  0.8411
 2597TIP3    H229427   6.000   1.951   8.268 -0.5084  0.6385 -0.2109
 2598TIP3   OH229428   3.901   3.321   8.586 -0.3637 -0.4821  0.1837
 2598TIP3    H129429   3.810   3.304   8.562 -0.1762 -0.7399 -0.3667
 2598TIP3    H229430   3.941   3.355   8.506 -0.7841  2.9791  1.2908
 2599TIP3   OH229431   0.459   2.413   7.605  0.2127 -0.2228  0.1990
 2599TIP3    H129432   0.388   2.472   7.631 -0.0982 -1.4314  2.3643
 2599TIP3    H229433   0.522   2.469   7.560 -1.0112  1.3477  0.3547
 2600TIP3   OH229434   3.094   2.688   7.730 -0.1121 -0.4219  0.6743
 2600TIP3    H129435   3.039   2.712   7.655  0.9898  0.2171  0.0412
 2600TIP3    H229436   3.069   2.750   7.799 -0.6196 -0.5446  0.6073
 2601TIP3   OH229437   5.188   6.579   0.844 -0.1198 -0.0233  0.4644
 2601TIP3    H129438   5.154   6.489   0.847  0.4445 -0.2934 -0.4695
 2601TIP3    H229439   5.250   6.584   0.917  1.4822 -1.1292 -0.7413
 2602TIP3   OH229440   5.986   2.412   1.979 -0.2383 -0.1885 -0.5471
 2602TIP3    H129441   5.984   2.485   2.042  1.2370 -1.8638  1.6182
 2602TIP3    H229442   5.898   2.375   1.982 -1.4635  2.2269 -2.7556
 2603TIP3   OH229443   4.091   2.467   1.322  0.3909  0.9066 -0.2622
 2603TIP3    H129444   4.182   2.453   1.297 -0.1243  1.6595 -2.7786
 2603TIP3    H229445   4.091   2.553   1.366  1.0675  0.2449  1.1090
 2604TIP3   OH229446   2.363   2.082   1.748  0.0637 -0.1333 -0.2991
 2604TIP3    H129447   2.340   2.054   1.659 -0.4483 -0.8311  0.0357
 2604TIP3    H229448   2.388   2.174   1.739 -1.9460  0.4224 -0.8804
 2605TIP3   OH229449   6.328   6.499   8.476  0.1121  0.0989  0.2000
 2605TIP3    H129450   6.258   6.440   8.504  0.3955  0.1213  0.9943
 2605TIP3    H229451   6.284   6.567   8.426 -0.4318  0.0827  0.6478
 2606TIP3   OH229452   3.504   6.573   1.686 -0.4305  0.2328 -0.2730
 2606TIP3    H129453   3.523   6.643   1.748 -0.0078  1.0662 -1.3104
 2606TIP3    H229454   3.409   6.562   1.690 -0.4447  0.5319  0.2329
 2607TIP3   OH229455   3.489   0.948   7.864  0.5446  0.0511 -0.8068
 2607TIP3    H129456   3.404   0.904   7.861 -0.8060  2.5431 -2.4271
 2607TIP3    H229457   3.474   1.028   7.915  1.9644  0.4380 -0.9395
 2608TIP3   OH229458   2.781   1.198   1.402 -0.3532  0.2062 -0.4097
 2608TIP3    H129459   2.799   1.276   1.350 -0.1375 -0.4594 -1.3614
 2608TIP3    H229460   2.864   1.150   1.403 -0.1948  0.4508  1.0191
 2609TIP3   OH229461   3.966   6.495   0.196 -0.0962  0.4149  0.1413
 2609TIP3    H129462   3.971   6.460   0.107 -1.9377 -0.9247  0.5026
 2609TIP3    H229463   3.989   6.587   0.187  2.2645 -0.2192 -1.2899
 2610TIP3   OH229464   0.113   2.088   7.834 -0.1499  0.0935  0.3826
 2610TIP3    H129465   0.176   2.017   7.821  0.5723  0.7519  0.2238
 2610TIP3    H229466   0.090   2.117   7.746 -2.3117 -1.5009  0.3188
 2611TIP3   OH229467   5.410   3.262   0.706  0.0776  0.2533 -0.8740
 2611TIP3    H129468   5.481   3.289   0.764 -0.0281 -1.2024 -0.0145
 2611TIP3    H229469   5.346   3.220   0.764 -0.6231 -0.1057 -1.8713
 2612TIP3   OH229470   0.818   1.963   1.866 -0.1986  0.4413  0.1427
 2612TIP3    H129471   0.800   1.870   1.853 -1.8290  0.8710 -0.8292
 2612TIP3    H229472   0.903   1.964   1.911 -0.3914 -1.5175  0.6474
 2613TIP3   OH229473   0.174   3.666   7.960  0.1281 -0.0518  0.0775
 2613TIP3    H129474   0.256   3.707   7.933 -0.1854  0.2910 -0.3724
 2613TIP3    H229475   0.178   3.665   8.056 -0.1554  1.7073  0.1493
 2614TIP3   OH229476   1.962   6.592   8.775 -0.6153 -0.1495  0.4684
 2614TIP3    H129477   1.889   6.537   8.746 -0.2756 -2.1440  2.9866
 2614TIP3    H229478   1.923   6.654   8.835 -0.3507 -0.9218  1.4641
 2615TIP3   OH229479   4.317   0.251   1.021 -0.1462 -0.0363  0.8860
 2615TIP3    H129480   4.229   0.238   1.055 -1.0169  2.0802 -0.3657
 2615TIP3    H229481   4.324   0.190   0.947 -0.9553  0.5148  0.3499
 2616TIP3   OH229482   4.890   1.080   7.566  0.4503  0.2781  0.3619
 2616TIP3    H129483   4.815   1.044   7.613 -0.1226 -1.2105 -1.5996
 2616TIP3    H229484   4.867   1.075   7.474  1.4137  3.4145 -0.1902
 2617TIP3   OH229485   0.399   4.328   8.085 -0.1669 -0.3747 -0.6179
 2617TIP3    H129486   0.489   4.318   8.055  0.7906  1.1635  1.4749
 2617TIP3    H229487   0.400   4.293   8.174 -1.5660 -0.0392 -0.4532
 2618TIP3   OH229488   0.777   4.013   6.884 -0.9191  0.3635  0.7274
 2618TIP3    H129489   0.845   4.074   6.855 -1.7773  1.0576  0.0999
 2618TIP3    H229490   0.731   3.989   6.804 -1.1370 -0.4523  1.0860
 2619TIP3   OH229491   1.174   0.595   8.719 -0.6105  0.4747 -0.3155
 2619TIP3    H129492   1.121   0.518   8.737  0.1317 -0.0179 -0.1614
 2619TIP3    H229493   1.216   0.576   8.635  1.3114 -0.3180  0.7371
 2620TIP3   OH229494   2.734   6.750   6.877  1.0199 -0.1736  0.8719
 2620TIP3    H129495   2.713   6.696   6.953 -0.7141 -1.2843 -0.3271
 2620TIP3    H229496   2.785   6.692   6.820 -0.5553 -0.4937 -0.2724
 2621TIP3   OH229497   3.718   0.931   7.637 -0.2439 -0.3720  0.0061
 2621TIP3    H129498   3.797   0.898   7.681 -0.2988  0.0297  0.4155
 2621TIP3    H229499   3.714   1.023   7.661 -0.3676 -0.1812 -0.7231
 2622TIP3   OH229500   0.780   2.325   8.155  0.3290  0.5583  0.3130
 2622TIP3    H129501   0.750   2.317   8.245  2.6815 -2.0705  1.0077
 2622TIP3    H229502   0.862   2.373   8.161  0.0675  1.1455 -0.5642
 2623TIP3   OH229503   5.594   4.956   7.805  0.3748  0.3102  0.3889
 2623TIP3    H129504   5.625   4.958   7.896 -0.6801  0.0750  0.7576
 2623TIP3    H229505   5.523   5.020   7.803 -0.5819 -0.7294  0.0994
 2624TIP3   OH229506   3.400   1.589   0.111 -0.3174  0.2704  0.2497
 2624TIP3    H129507   3.370   1.672   0.073  0.1401  0.2592 -0.1291
 2624TIP3    H229508   3.492   1.582   0.086  0.2553  0.6784  2.0573
 2625TIP3   OH229509   1.365   1.473   1.177  0.1221 -0.5440  0.1189
 2625TIP3    H129510   1.288   1.417   1.188  0.2428 -0.5272  1.1113
 2625TIP3    H229511   1.348   1.520   1.095 -0.7484 -0.8137  0.1275
 2626TIP3   OH229512   2.877   5.614   7.024 -0.0647  0.5391  0.1023
 2626TIP3    H129513   2.908   5.573   6.943 -0.6538 -1.1649  0.7037
 2626TIP3    H229514   2.957   5.644   7.067  0.2564  1.4636 -1.0858
 2627TIP3   OH229515   1.052   5.596   8.490 -0.1446 -0.2079 -0.5456
 2627TIP3    H129516   1.141   5.567   8.469  0.9046  0.4325  2.4822
 2627TIP3    H229517   1.010   5.607   8.405  3.3621  1.6004 -2.2755
 2628TIP3   OH229518   4.906   2.407   7.042  0.1563  0.5057 -1.0863
 2628TIP3    H129519   4.863   2.324   7.058  2.6573 -0.6563  0.1685
 2628TIP3    H229520   4.954   2.426   7.123  1.8048  1.7551 -2.2717
 2629TIP3   OH229521   1.644   4.114   1.203 -0.2826 -0.6391 -0.3535
 2629TIP3    H129522   1.576   4.152   1.147 -0.1339 -2.0474 -1.5480
 2629TIP3    H229523   1.607   4.030   1.231  0.6583 -1.0898 -0.4229
 2630TIP3   OH229524   0.991   2.976   7.287 -0.0468  0.5216  0.2519
 2630TIP3    H129525   0.899   2.968   7.313 -0.2221 -2.5914 -0.8683
 2630TIP3    H229526   0.993   2.940   7.198  2.2929  0.3128  0.3488
 2631TIP3   OH229527   2.387   1.019   2.476  0.0257 -0.8719  0.3326
 2631TIP3    H129528   2.339   0.940   2.501 -0.3575 -1.2792 -1.4838
 2631TIP3    H229529   2.461   0.987   2.424 -1.2860 -0.0496 -2.2429
 2632TIP3   OH229530   4.927   1.132   1.054  0.4908 -0.1731 -0.0027
 2632TIP3    H129531   5.016   1.097   1.056  0.7249  0.2341 -1.7115
 2632TIP3    H229532   4.873   1.065   1.095  1.3636 -1.1715 -0.4581
 2633TIP3   OH229533   1.437   4.533   7.349 -0.3426  0.0296  0.4372
 2633TIP3    H129534   1.432   4.440   7.372 -0.7448 -0.3498 -1.0647
 2633TIP3    H229535   1.367   4.545   7.285 -0.5441  1.4759  0.8933
 2634TIP3   OH229536   1.400   3.391   0.766  0.0433  0.0573 -0.0702
 2634TIP3    H129537   1.307   3.397   0.742 -0.2136  0.0930  0.8739
 2634TIP3    H229538   1.446   3.388   0.683 -0.8153 -0.0641 -0.5562
 2635TIP3   OH229539   6.663   1.064   1.890 -0.7145  0.2383  0.1731
 2635TIP3    H129540   6.594   1.003   1.915 -2.1801  1.7622 -0.0047
 2635TIP3    H229541   6.744   1.022   1.921 -1.8091 -1.0394  1.4397
 2636TIP3   OH229542   0.220   0.424   6.630  0.0438  0.2662  0.7856
 2636TIP3    H129543   0.230   0.516   6.657  1.7641 -0.0811  1.4659
 2636TIP3    H229544   0.242   0.424   6.537  0.9736  0.4183  0.9960
 2637TIP3   OH229545   4.161   6.557   6.545  0.1330 -0.4190  0.5305
 2637TIP3    H129546   4.161   6.479   6.489 -2.6898  0.1873 -0.4802
 2637TIP3    H229547   4.130   6.627   6.488 -0.4325  0.7660  2.2404
 2638TIP3   OH229548   0.880   3.224   6.806 -0.4273  0.1816  0.0166
 2638TIP3    H129549   0.928   3.282   6.865 -1.0838 -1.0459  1.8210
 2638TIP3    H229550   0.942   3.205   6.735  0.7070  0.9506  0.7740
 2639TIP3   OH229551   6.700   2.981   7.823 -0.0439 -0.8440 -0.4605
 2639TIP3    H129552   6.724   2.934   7.902  0.7187 -0.2663 -0.3411
 2639TIP3    H229553   6.604   2.984   7.825 -0.0228 -0.5739  0.5962
 2640TIP3   OH229554   0.788   5.886   8.440 -0.1208  0.3114  0.0029
 2640TIP3    H129555   0.818   5.920   8.524  3.0803  0.6659 -1.1080
 2640TIP3    H229556   0.731   5.813   8.462  2.4142 -1.1018  2.6087
 2641TIP3   OH229557   0.327   1.008   0.807 -0.4620  0.1959  0.4785
 2641TIP3    H129558   0.372   1.091   0.824  2.0592 -0.8224 -0.6369
 2641TIP3    H229559   0.305   1.012   0.714 -1.0211 -0.0754  0.5981
 2642TIP3   OH229560   4.379   1.574   1.210 -0.0039  0.3926  0.2606
 2642TIP3    H129561   4.409   1.538   1.294  3.4267 -1.7317 -1.6202
 2642TIP3    H229562   4.289   1.543   1.202 -0.1678 -0.0274  2.7656
 2643TIP3   OH229563   6.220   0.741   1.508 -0.2344  0.0305  0.6998
 2643TIP3    H129564   6.196   0.724   1.599  1.0418 -0.6638  0.9207
 2643TIP3    H229565   6.155   0.692   1.457 -1.0274  0.5219  1.2182
 2644TIP3   OH229566   0.784   4.284   1.349 -0.0416  0.2836  0.0801
 2644TIP3    H129567   0.850   4.218   1.329 -1.0750 -1.9488  3.3026
 2644TIP3    H229568   0.830   4.349   1.402  0.7943  1.9195 -2.4720
 2645TIP3   OH229569   0.915   5.065   0.353  0.4613  0.0801 -1.2293
 2645TIP3    H129570   0.914   5.103   0.266  1.3711 -0.8379 -1.6599
 2645TIP3    H229571   0.823   5.063   0.379  0.3285  1.9536 -1.4324
 2646TIP3   OH229572   2.338   0.682   1.393 -0.5880 -0.0255  0.2011
 2646TIP3    H129573   2.395   0.622   1.344  0.1942  0.7689  0.1258
 2646TIP3    H229574   2.383   0.696   1.476 -0.8797  0.2908  0.3074
 2647TIP3   OH229575   4.138   0.256   7.363 -0.4138  0.1532  0.0550
 2647TIP3    H129576   4.071   0.301   7.311 -0.9605 -0.0843  0.5485
 2647TIP3    H229577   4.208   0.237   7.300  0.4807  2.9043  0.0584
 2648TIP3   OH229578   3.716   3.242   1.861  0.3341  0.3281 -0.2528
 2648TIP3    H129579   3.774   3.306   1.904  1.2090 -1.0774  0.7442
 2648TIP3    H229580   3.775   3.173   1.831 -0.8168 -1.4724  1.3739
 2649TIP3   OH229581   1.210   1.207   0.628 -0.7904 -0.6756  0.4395
 2649TIP3    H129582   1.253   1.238   0.549 -0.0588 -1.6543  0.4368
 2649TIP3    H229583   1.220   1.112   0.625 -0.6797 -0.7191  1.7561
 2650TIP3   OH229584   0.354   2.403   6.597 -0.0828 -0.2886 -0.0288
 2650TIP3    H129585   0.333   2.491   6.568 -0.6115 -0.1718  0.6749
 2650TIP3    H229586   0.447   2.392   6.577  0.6128  1.3014  1.9935
 2651TIP3   OH229587   3.031   5.107   1.033 -0.1192  0.4178  0.0610
 2651TIP3    H129588   2.985   5.190   1.027  0.8373  0.8665 -1.8480
 2651TIP3    H229589   3.048   5.096   1.127 -3.1802  0.6722  0.7721
 2652TIP3   OH229590   3.875   2.492   1.628  0.5942  0.0845 -0.4589
 2652TIP3    H129591   3.881   2.407   1.584  1.6024  0.6796 -1.5300
 2652TIP3    H229592   3.881   2.471   1.721  0.4785 -1.0410 -0.6918
 2653TIP3   OH229593   4.275   3.259   0.961  0.2382  0.2812  0.0012
 2653TIP3    H129594   4.281   3.240   0.867  0.1736  0.1580  0.0221
 2653TIP3    H229595   4.235   3.181   0.999  1.9457 -0.4363  0.3912
 2654TIP3   OH229596   6.044   1.672   8.712  0.3515 -0.2450  0.4615
 2654TIP3    H129597   6.006   1.599   8.761 -0.4004  0.2373  0.6085
 2654TIP3    H229598   6.106   1.712   8.772  0.1145 -0.2290  0.6995
 2655TIP3   OH229599   3.219   4.034   1.860 -0.5188 -0.1494 -0.7051
 2655TIP3    H129600   3.252   3.999   1.777 -0.2065  2.3342 -1.7077
 2655TIP3    H229601   3.216   4.129   1.847 -2.4893  0.1733  1.3992
 2656TIP3   OH229602   1.340   6.278   0.361  0.2618 -0.2418 -0.0418
 2656TIP3    H129603   1.350   6.362   0.407 -0.7649 -0.7148  1.1242
 2656TIP3    H229604   1.382   6.214   0.419  0.1442 -0.6685 -0.4278
 2657TIP3   OH229605   3.840   1.290   0.702 -0.2849 -0.3372  0.2361
 2657TIP3    H129606   3.889   1.369   0.724  1.5908 -1.0523 -1.0775
 2657TIP3    H229607   3.757   1.299   0.749  0.2960  1.8864  0.9598
 2658TIP3   OH229608   3.689   6.001   7.274  0.0664 -0.1232  0.3731
 2658TIP3    H129609   3.737   5.920   7.291  0.1294 -0.3162 -0.6184
 2658TIP3    H229610   3.672   5.999   7.180  0.9386  1.4853  0.1394
 2659TIP3   OH229611   5.344   1.703   7.966  0.4218  0.4690  1.0402
 2659TIP3    H129612   5.335   1.617   8.005  1.4698  0.2497  0.8278
 2659TIP3    H229613   5.287   1.701   7.889  2.3477 -0.9824 -0.4689
 2660TIP3   OH229614   3.420   4.061   0.516  0.1235 -0.2702 -0.0578
 2660TIP3    H129615   3.433   4.120   0.442  2.1668 -0.9516 -0.2992
 2660TIP3    H229616   3.483   4.090   0.582 -1.7791  0.4302  1.5354
 2661TIP3   OH229617   3.750   5.272   1.901 -0.0048 -0.0006 -0.2240
 2661TIP3    H129618   3.773   5.180   1.915  1.1527  0.3226  0.1441
 2661TIP3    H229619   3.783   5.316   1.979 -2.1360  0.4937  0.4361
 2662TIP3   OH229620   3.364   6.798   7.959  0.3147  0.0808 -0.1725
 2662TIP3    H129621   3.380   6.841   8.044 -1.3995 -1.1698  0.8276
 2662TIP3    H229622   3.296   6.851   7.918  1.1363  0.6784 -0.7808
 2663TIP3   OH229623   3.851   5.052   2.045 -0.5067  0.0523  0.1310
 2663TIP3    H129624   3.833   5.060   2.138 -0.9626  0.0796  0.0410
 2663TIP3    H229625   3.943   5.027   2.041 -0.3103  0.6630  0.5670
 2664TIP3   OH229626   3.356   4.518   6.758  1.0105 -0.0636  0.5829
 2664TIP3    H129627   3.304   4.442   6.785 -2.5915  1.8470 -0.3016
 2664TIP3    H229628   3.353   4.517   6.663  1.0942  1.0439  0.5535
 2665TIP3   OH229629   3.677   6.715   7.010 -0.2874 -0.3286  0.1073
 2665TIP3    H129630   3.688   6.714   7.105 -0.3568  0.6891  0.1448
 2665TIP3    H229631   3.711   6.801   6.984 -0.9618 -0.2959 -0.6948
 2666TIP3   OH229632   1.350   5.398   7.304  0.3597  0.3350 -0.3438
 2666TIP3    H129633   1.438   5.361   7.312 -0.1435 -0.8043  0.1151
 2666TIP3    H229634   1.331   5.393   7.211  0.8268  0.7213 -0.4675
 2667TIP3   OH229635   0.188   2.235   6.887  0.0444  0.0528 -0.3757
 2667TIP3    H129636   0.129   2.172   6.846  0.0284  0.7206 -1.4336
 2667TIP3    H229637   0.149   2.320   6.866  2.3590  0.6454 -2.8705
 2668TIP3   OH229638   1.699   5.512   1.310 -0.7262  0.4944  0.7295
 2668TIP3    H129639   1.780   5.504   1.361  0.3343 -0.2715 -1.0146
 2668TIP3    H229640   1.703   5.600   1.272 -0.5658  0.3339  0.3798
 2669TIP3   OH229641   2.847   2.607   8.343 -0.3162  0.2024 -0.4992
 2669TIP3    H129642   2.927   2.658   8.333 -0.3991  0.6292  0.8414
 2669TIP3    H229643   2.800   2.650   8.414 -2.2208  0.5813 -1.8972
 2670TIP3   OH229644   6.017   5.977   6.989  0.0616 -0.2725  0.3863
 2670TIP3    H129645   6.029   5.945   6.900 -0.8584  0.8897 -0.1861
 2670TIP3    H229646   6.006   5.899   7.042 -0.5193 -0.9487 -0.7017
 2671TIP3   OH229647   4.862   1.636   2.375  0.3762  0.0428 -0.0253
 2671TIP3    H129648   4.924   1.625   2.448 -0.1253 -1.0404  0.2519
 2671TIP3    H229649   4.865   1.730   2.356  2.3132 -0.0178 -0.2098
 2672TIP3   OH229650   3.534   5.145   0.300  0.4676 -0.0146  0.2559
 2672TIP3    H129651   3.599   5.137   0.230  0.1070  0.6204 -0.1638
 2672TIP3    H229652   3.480   5.219   0.274 -0.2505 -0.3526  0.7455
 2673TIP3   OH229653   6.042   6.362   0.349  0.1555 -0.3630  0.2636
 2673TIP3    H129654   6.056   6.378   0.442 -1.8579  1.2195  0.3538
 2673TIP3    H229655   5.967   6.416   0.326 -1.7412 -3.4451 -1.4978
 2674TIP3   OH229656   4.758   4.731   1.177 -0.3204  0.8750 -0.1851
 2674TIP3    H129657   4.677   4.735   1.125  0.3567  0.4225 -1.3064
 2674TIP3    H229658   4.800   4.816   1.161  0.6796  0.1393 -1.7514
 2675TIP3   OH229659   3.772   2.693   1.099 -0.1846 -0.0799  0.0036
 2675TIP3    H129660   3.742   2.715   1.187 -0.3911  1.9411 -0.5214
 2675TIP3    H229661   3.727   2.756   1.042  0.1851 -1.1317 -1.5300
 2676TIP3   OH229662   6.596   3.224   7.020  0.1981  0.0170  0.1576
 2676TIP3    H129663   6.611   3.150   6.961  0.4971 -1.1129  1.5877
 2676TIP3    H229664   6.528   3.275   6.977  1.7856  0.3613 -2.1236
 2677TIP3   OH229665   0.458   2.602   8.104 -0.2944 -0.0701  0.2265
 2677TIP3    H129666   0.504   2.661   8.163 -2.4967  1.8163  0.2074
 2677TIP3    H229667   0.463   2.644   8.018 -1.1943 -0.2995  0.0414
 2678TIP3   OH229668   2.056   2.583   1.727 -0.1949 -0.2412  0.3694
 2678TIP3    H129669   1.994   2.518   1.693  1.7866 -1.0971 -1.8635
 2678TIP3    H229670   2.102   2.615   1.649  0.4564  2.2151  1.6701
 2679TIP3   OH229671   2.411   0.031   0.732 -0.0113 -0.1172  0.2479
 2679TIP3    H129672   2.327   0.005   0.771  0.4230  0.1272  1.3547
 2679TIP3    H229673   2.386   0.077   0.651 -0.8681 -1.8812 -0.5512
 2680TIP3   OH229674   3.033   3.841   1.697  0.4014  0.3426  0.2483
 2680TIP3    H129675   2.962   3.900   1.724  0.0202 -0.1276  0.2873
 2680TIP3    H229676   3.096   3.898   1.655  0.0139  0.7787  0.2463
 2681TIP3   OH229677   2.927   1.166   6.917  0.5933  0.0206  0.2379
 2681TIP3    H129678   2.849   1.221   6.918  0.0365 -0.6743 -1.7822
 2681TIP3    H229679   2.894   1.078   6.936  0.6476 -0.4808 -1.7807
 2682TIP3   OH229680   3.028   0.888   0.960 -0.5256 -0.3702 -0.8880
 2682TIP3    H129681   3.116   0.927   0.962 -0.9448  0.6256 -1.1178
 2682TIP3    H229682   3.024   0.843   0.876 -0.4678  0.1654 -1.1835
 2683TIP3   OH229683   2.294   0.417   1.551 -0.2096  0.1288  0.3120
 2683TIP3    H129684   2.254   0.398   1.466 -0.0866 -0.0838  0.3005
 2683TIP3    H229685   2.361   0.349   1.561 -1.5244 -1.0449  1.4743
 2684TIP3   OH229686   0.341   5.941   1.560  0.0107 -0.3944 -0.2446
 2684TIP3    H129687   0.402   6.014   1.570 -1.0806  0.2921  2.6457
 2684TIP3    H229688   0.285   5.947   1.638 -2.6601 -1.9794 -1.8980
 2685TIP3   OH229689   0.438   5.013   1.783  0.2086 -0.2399  0.4044
 2685TIP3    H129690   0.445   4.924   1.748  0.1936  0.7457 -2.3005
 2685TIP3    H229691   0.352   5.016   1.825 -0.0728 -1.3127 -0.0682
 2686TIP3   OH229692   5.910   2.124   7.382 -0.2557  0.1344 -0.6208
 2686TIP3    H129693   5.850   2.073   7.328 -1.8043 -0.0247  1.1230
 2686TIP3    H229694   5.893   2.215   7.357 -0.4279  0.0251 -0.9102
 2687TIP3   OH229695   5.219   1.917   8.159  0.0746 -0.1195 -0.4997
 2687TIP3    H129696   5.283   1.882   8.097 -0.8398 -0.6800 -1.1509
 2687TIP3    H229697   5.148   1.853   8.159 -0.6150  0.6227  0.0057
 2688TIP3   OH229698   3.188   5.490   0.054 -0.2762 -0.1793  0.3647
 2688TIP3    H129699   3.223   5.463  -0.031  1.8796  0.1406  1.0936
 2688TIP3    H229700   3.135   5.567   0.034 -0.6189 -0.6912 -0.8045
 2689TIP3   OH229701   3.308   0.138   1.860  0.3949 -0.2239  0.6139
 2689TIP3    H129702   3.217   0.120   1.883  0.5953 -1.0524  0.8213
 2689TIP3    H229703   3.341   0.191   1.932 -0.4187  1.7037 -0.3572
 2690TIP3   OH229704   3.967   0.530   1.622  0.2389 -0.0165 -0.4465
 2690TIP3    H129705   3.876   0.558   1.614 -0.0107 -0.8872 -0.7977
 2690TIP3    H229706   3.985   0.485   1.539  0.2734 -1.7967  0.4754
 2691TIP3   OH229707   5.674   2.207   7.993 -0.4935  0.0931 -0.4939
 2691TIP3    H129708   5.677   2.138   7.927 -1.4518 -1.0771  0.6185
 2691TIP3    H229709   5.687   2.288   7.944  1.7956 -0.9125 -1.7014
 2692TIP3   OH229710   1.442   4.124   0.102  0.3334 -0.0112 -0.0556
 2692TIP3    H129711   1.386   4.119   0.025 -0.6103 -0.5351  0.6423
 2692TIP3    H229712   1.444   4.216   0.125  0.2717  0.0902 -0.4555
 2693TIP3   OH229713   3.767   3.551   8.703  0.2090 -0.4659 -0.2568
 2693TIP3    H129714   3.759   3.560   8.607  0.0128  0.2602 -0.1817
 2693TIP3    H229715   3.742   3.461   8.720 -1.3501 -0.1592 -0.7449
 2694TIP3   OH229716   2.095   5.960   0.862 -0.4214  0.4776  0.9039
 2694TIP3    H129717   2.154   5.925   0.794 -0.1961  1.7463  0.4019
 2694TIP3    H229718   2.013   5.913   0.849 -1.2045  2.3494 -1.9403
 2695TIP3   OH229719   0.915   4.720   7.989  0.5430  0.0673  0.6012
 2695TIP3    H129720   0.968   4.719   7.909 -2.0847  1.8121 -1.3314
 2695TIP3    H229721   0.978   4.735   8.060  2.9332 -1.2172 -1.1331
 2696TIP3   OH229722   4.265   2.646   8.029  0.3188 -0.2712  0.2628
 2696TIP3    H129723   4.202   2.575   8.043 -0.5615  0.7036  1.4981
 2696TIP3    H229724   4.261   2.697   8.110  1.2607  0.9305 -0.4296
 2697TIP3   OH229725   3.611   3.449   7.932 -0.1131  0.3225  0.6592
 2697TIP3    H129726   3.647   3.405   7.855 -2.2309  0.1471 -0.3254
 2697TIP3    H229727   3.681   3.506   7.963  0.4327  1.3097 -2.1429
 2698TIP3   OH229728   0.508   4.289   1.350  0.2804 -0.3386  0.5866
 2698TIP3    H129729   0.491   4.222   1.283  0.4648  0.4446 -0.2683
 2698TIP3    H229730   0.603   4.300   1.348  0.1945  0.3680  0.3045
 2699TIP3   OH229731   5.452   6.540   7.586 -0.4915  0.0574  0.4607
 2699TIP3    H129732   5.390   6.608   7.559 -0.9354 -1.4711 -2.9189
 2699TIP3    H229733   5.538   6.573   7.559 -0.5624 -0.2012 -0.0927
 2700TIP3   OH229734   2.036   1.989   8.577 -0.6113  0.4061  0.2375
 2700TIP3    H129735   2.026   2.037   8.659 -0.8854  0.7753 -0.0082
 2700TIP3    H229736   2.091   1.914   8.599  0.2577  1.0978  0.5286
 2701TIP3   OH229737   6.729   5.206   0.316 -0.2690  0.1336 -0.0063
 2701TIP3    H129738   6.636   5.187   0.303  0.2972 -1.7945 -1.8237
 2701TIP3    H229739   6.763   5.219   0.227  0.9912  2.0747  0.7000
 2702TIP3   OH229740   2.123   4.188   1.429  1.0516 -0.0974 -0.2598
 2702TIP3    H129741   2.078   4.112   1.393  0.4150  0.9267 -1.7093
 2702TIP3    H229742   2.216   4.163   1.429  0.8055 -1.0530 -0.2258
 2703TIP3   OH229743   5.433   5.597   8.796  0.6167  0.3785  0.0145
 2703TIP3    H129744   5.410   5.512   8.759  0.7542 -0.5484  1.9274
 2703TIP3    H229745   5.451   5.652   8.720 -1.5281 -0.6687 -1.3563
 2704TIP3   OH229746   3.625   1.063   2.533  0.1448  0.0081 -0.4534
 2704TIP3    H129747   3.659   0.974   2.550 -1.1170 -0.5909 -0.9535
 2704TIP3    H229748   3.530   1.054   2.539  0.0033  1.3652 -0.4016
 2705TIP3   OH229749   3.546   5.827   1.368  0.1524  0.0252  0.0370
 2705TIP3    H129750   3.474   5.778   1.407  1.9493 -2.1323  0.7977
 2705TIP3    H229751   3.532   5.819   1.274 -1.4664  1.0710  0.1374
 2706TIP3   OH229752   6.485   3.829   6.946  0.3074  0.7159  0.2548
 2706TIP3    H129753   6.423   3.767   6.907  0.9027 -0.0522  0.4885
 2706TIP3    H229754   6.465   3.912   6.904 -0.0404  0.2167 -0.6149
 2707TIP3   OH229755   0.266   6.180   1.077  0.7882 -0.1176 -0.3878
 2707TIP3    H129756   0.313   6.254   1.116 -1.4058  1.4496 -0.5163
 2707TIP3    H229757   0.274   6.193   0.983 -1.1921  1.1295 -0.4353
 2708TIP3   OH229758   0.775   5.588   1.373  0.0476  0.0435 -0.2160
 2708TIP3    H129759   0.826   5.563   1.450 -1.0821  0.2909  0.6384
 2708TIP3    H229760   0.717   5.514   1.357 -0.4712  0.4348 -0.1675
 2709TIP3   OH229761   5.278   1.846   1.460 -0.6110  0.5104 -0.6710
 2709TIP3    H129762   5.281   1.891   1.544 -0.1003 -0.3472 -0.2238
 2709TIP3    H229763   5.342   1.893   1.406  1.0757 -0.6139  0.2814
 2710TIP3   OH229764   5.290   0.885   1.325  0.1851 -0.6285  0.1191
 2710TIP3    H129765   5.375   0.850   1.297  0.9092  1.0686  0.0863
 2710TIP3    H229766   5.304   0.980   1.330 -2.2111 -0.1293 -1.6009
 2711TIP3   OH229767   2.143   4.375   2.131  0.3211  0.4600 -0.1748
 2711TIP3    H129768   2.084   4.450   2.134  0.2617  0.3817  2.6451
 2711TIP3    H229769   2.190   4.377   2.214 -0.3135 -3.0918  0.4246
 2712TIP3   OH229770   0.304   5.775   7.565  0.2496 -0.1238 -0.8432
 2712TIP3    H129771   0.253   5.761   7.644  3.1955 -1.8961  0.9093
 2712TIP3    H229772   0.313   5.870   7.558  1.7196  0.0737  2.3020
 2713TIP3   OH229773   4.653   1.806   1.563 -0.1784 -0.3988 -0.1156
 2713TIP3    H129774   4.669   1.824   1.470  3.2126 -1.1920  0.1564
 2713TIP3    H229775   4.628   1.713   1.565 -0.5122 -0.3105 -0.2714
 2714TIP3   OH229776   2.090   1.339   1.763 -0.9877  0.3988 -0.1434
 2714TIP3    H129777   2.080   1.425   1.722 -5.5586  0.2683  0.1702
 2714TIP3    H229778   2.121   1.283   1.692 -1.0150  1.7034 -1.2401
 2715TIP3   OH229779   2.122   5.440   1.073  0.9347 -0.1627  0.1540
 2715TIP3    H129780   2.075   5.499   1.013  1.6316  0.0038 -0.2376
 2715TIP3    H229781   2.118   5.485   1.157  1.9019  0.7208 -0.2441
 2716TIP3   OH229782   5.140   6.163   0.137 -0.7762  0.2259 -0.2628
 2716TIP3    H129783   5.096   6.081   0.158 -2.2368  0.7602 -1.1248
 2716TIP3    H229784   5.076   6.231   0.155 -0.0271  1.0950 -0.7793
 2717TIP3   OH229785   5.646   1.171   8.085 -0.3483 -0.1599  0.0370
 2717TIP3    H129786   5.624   1.085   8.121  1.8337  0.1305  2.3379
 2717TIP3    H229787   5.690   1.216   8.157  0.6084  2.0484 -1.8247
 2718TIP3   OH229788   5.511   5.355   0.088 -0.5161  0.2917  0.1832
 2718TIP3    H129789   5.520   5.444   0.053  3.4037 -0.1836 -0.5650
 2718TIP3    H229790   5.478   5.304   0.014  1.9106  0.3708 -1.0453
 2719TIP3   OH229791   0.106   4.501   1.856  0.1790 -0.2431 -0.7360
 2719TIP3    H129792   0.164   4.432   1.887  0.3655  0.1015 -0.3055
 2719TIP3    H229793   0.158   4.582   1.863 -0.2965  0.0473 -0.4866
 2720TIP3   OH229794   1.247   6.203   2.468  0.1392  0.4211  0.1802
 2720TIP3    H129795   1.182   6.195   2.538  1.0352 -0.4143  0.9524
 2720TIP3    H229796   1.277   6.293   2.474 -0.2942  0.5579  0.4044
 2721TIP3   OH229797   2.065   6.790   6.507 -0.0370 -0.0688 -0.7333
 2721TIP3    H129798   2.071   6.756   6.418  0.2967 -1.8076 -0.0952
 2721TIP3    H229799   1.991   6.850   6.506  0.3313  0.3917 -2.3067
 2722TIP3   OH229800   3.102   0.824   0.451  0.0966 -0.2385 -0.2237
 2722TIP3    H129801   3.068   0.743   0.413 -2.0959  1.3929 -2.0479
 2722TIP3    H229802   3.081   0.892   0.386  3.3087  1.6139  0.4568
 2723TIP3   OH229803   6.187   5.372   6.359  0.6911 -0.0951  0.6713
 2723TIP3    H129804   6.279   5.390   6.341  1.3360 -2.3317  1.2963
 2723TIP3    H229805   6.139   5.433   6.304  2.5552 -1.0396 -2.2828
 2724TIP3   OH229806   1.330   3.559   0.458 -0.6315  0.7349  0.2092
 2724TIP3    H129807   1.243   3.595   0.479 -0.0562  2.3073  0.0487
 2724TIP3    H229808   1.340   3.574   0.364  0.3721  1.9144  0.4793
 2725TIP3   OH229809   0.482   5.277   1.647 -0.2421 -0.3422  0.2532
 2725TIP3    H129810   0.416   5.208   1.643 -0.6207 -0.0653  1.3963
 2725TIP3    H229811   0.474   5.313   1.735 -0.0478  1.1716 -0.3239
 2726TIP3   OH229812   4.593   5.107   2.032  0.1751  0.2539  0.2472
 2726TIP3    H129813   4.663   5.146   2.085 -0.3677  0.4930  0.7936
 2726TIP3    H229814   4.520   5.168   2.041 -0.4347 -0.5045  0.5009
 2727TIP3   OH229815   3.293   4.927   1.751  0.0500  0.2577  0.2966
 2727TIP3    H129816   3.238   4.908   1.675  0.5147  1.3553 -0.3438
 2727TIP3    H229817   3.370   4.872   1.741 -0.6625 -0.8905  0.9159
 2728TIP3   OH229818   3.532   0.928   7.092  0.0928 -0.2860  0.1162
 2728TIP3    H129819   3.556   1.012   7.131 -1.1350  0.8052 -1.3731
 2728TIP3    H229820   3.613   0.897   7.051  0.6081  0.0312  0.8656
 2729TIP3   OH229821   5.804   6.483   0.989 -0.2944  0.7835 -0.2252
 2729TIP3    H129822   5.726   6.451   1.035 -0.8795  1.8988 -0.4119
 2729TIP3    H229823   5.874   6.425   1.018 -0.7002  1.2692  1.8720
 2730TIP3   OH229824   1.913   0.782   7.981 -0.0062  0.3319 -0.0062
 2730TIP3    H129825   1.981   0.723   7.947  0.2889  0.7596 -0.1672
 2730TIP3    H229826   1.836   0.726   7.992  0.2803 -0.0896 -0.1286
 2731TIP3   OH229827   2.960   3.001   2.255 -0.1851 -0.2349 -0.0810
 2731TIP3    H129828   2.997   3.078   2.212 -0.6418 -0.6933 -1.3641
 2731TIP3    H229829   2.876   2.987   2.211 -0.8087 -0.5783  1.1813
 2732TIP3   OH229830   1.533   6.165   8.760 -0.3825  0.1438 -0.1283
 2732TIP3    H129831   1.617   6.182   8.716 -0.6254 -1.4681 -1.3212
 2732TIP3    H229832   1.503   6.251   8.788  2.0687  0.6788  1.1178
 2733TIP3   OH229833   6.287   4.913   7.274 -0.3232  0.1536 -0.3910
 2733TIP3    H129834   6.328   4.999   7.265  1.8290 -0.7846 -0.1687
 2733TIP3    H229835   6.216   4.927   7.337  0.0752  1.7261 -0.2381
 2734TIP3   OH229836   3.234   2.874   1.704 -0.5072  0.2705 -0.5676
 2734TIP3    H129837   3.220   2.795   1.756  0.1033 -0.5070 -1.5437
 2734TIP3    H229838   3.287   2.930   1.760  2.3851 -1.5959 -1.2154
 2735TIP3   OH229839   2.517   4.083   7.146  0.8473  0.1005  0.2524
 2735TIP3    H129840   2.517   4.090   7.051  0.4651 -1.0247  0.1493
 2735TIP3    H229841   2.446   4.021   7.166  0.5850  0.7133  1.3003
 2736TIP3   OH229842   1.690   2.528   8.251  0.6923 -0.0572  0.5121
 2736TIP3    H129843   1.699   2.520   8.156  0.3148 -1.4995  0.5712
 2736TIP3    H229844   1.694   2.438   8.283  1.0134  0.4247  1.8896
 2737TIP3   OH229845   3.230   1.478   7.502 -0.4150  0.5111  0.0241
 2737TIP3    H129846   3.151   1.425   7.515  0.2213 -0.1673  1.3474
 2737TIP3    H229847   3.256   1.504   7.591  1.2400  0.1138 -0.3118
 2738TIP3   OH229848   1.794   3.317   1.416 -0.1642 -0.5571  0.2229
 2738TIP3    H129849   1.814   3.322   1.509 -2.0000  0.4139  0.6094
 2738TIP3    H229850   1.743   3.236   1.406 -1.1011  0.0064  0.3215
 2739TIP3   OH229851   5.951   3.204   1.540  0.4866 -0.6568  0.2164
 2739TIP3    H129852   6.036   3.179   1.504  0.0134 -2.0903  0.0660
 2739TIP3    H229853   5.887   3.157   1.487 -0.3223 -1.1719  1.5995
 2740TIP3   OH229854   1.094   2.759   6.119  0.5726  0.4198 -0.0700
 2740TIP3    H129855   1.064   2.711   6.196  1.8233 -0.9693 -0.3831
 2740TIP3    H229856   1.173   2.805   6.149  0.0837  1.2804 -0.0918
 2741TIP3   OH229857   5.072   0.998   8.505  0.3462 -0.7885  0.0463
 2741TIP3    H129858   5.111   1.085   8.501 -2.0358  0.3185 -1.4490
 2741TIP3    H229859   5.026   0.996   8.589 -0.2371 -0.2796 -0.2552
 2742TIP3   OH229860   1.244   0.239   0.617  0.1312 -0.1160  0.6183
 2742TIP3    H129861   1.185   0.165   0.604  0.4164 -0.2170 -0.1712
 2742TIP3    H229862   1.311   0.229   0.550  0.2069  0.8212  0.5319
 2743TIP3   OH229863   5.872   6.141   0.354 -0.3744  0.4716  0.3240
 2743TIP3    H129864   5.910   6.068   0.304 -1.8094  0.2182 -0.4619
 2743TIP3    H229865   5.937   6.211   0.347  1.1396 -0.7790  1.2951
 2744TIP3   OH229866   2.635   0.996   1.351 -0.0957 -0.3199 -0.3486
 2744TIP3    H129867   2.553   1.035   1.381  0.6639  0.2145  1.1111
 2744TIP3    H229868   2.703   1.048   1.393  0.9997 -0.8848 -1.3822
 2745TIP3   OH229869   6.494   5.343   6.846  0.1249 -0.0187 -0.3862
 2745TIP3    H129870   6.567   5.360   6.786  1.3196 -0.2716  0.9633
 2745TIP3    H229871   6.520   5.384   6.928 -2.3886  2.1460 -0.5251
 2746TIP3   OH229872   0.159   2.312   1.745 -0.3062 -0.2433  0.0943
 2746TIP3    H129873   0.213   2.390   1.735 -1.1106  0.5063  1.3479
 2746TIP3    H229874   0.192   2.251   1.679  1.5721  0.4643  0.3257
 2747TIP3   OH229875   4.499   1.085   0.645 -0.6368  0.0913  0.4259
 2747TIP3    H129876   4.510   1.175   0.616  0.6767  0.4313  1.8342
 2747TIP3    H229877   4.479   1.036   0.565  0.6426  1.2960 -0.6774
 2748TIP3   OH229878   2.529   3.349   0.691  0.1681 -0.6021 -0.1939
 2748TIP3    H129879   2.587   3.303   0.751 -0.0343 -0.6239 -0.0110
 2748TIP3    H229880   2.538   3.441   0.713 -0.4671 -0.6710  0.3791
 2749TIP3   OH229881   4.420   0.521   7.271 -0.4760 -0.2235 -0.1133
 2749TIP3    H129882   4.438   0.479   7.355 -2.6756  1.1653  1.1158
 2749TIP3    H229883   4.385   0.450   7.217  2.0529 -1.4095 -0.3729
 2750TIP3   OH229884   1.951   0.111   7.309 -0.0576 -0.7784  0.5348
 2750TIP3    H129885   2.019   0.051   7.337 -0.3268 -2.2588 -1.7131
 2750TIP3    H229886   1.875   0.089   7.362  0.7621 -0.1070  2.0397
 2751TIP3   OH229887   6.449   3.210   2.114  0.6513 -0.5745  0.0321
 2751TIP3    H129888   6.470   3.177   2.202  0.3406 -0.2455  0.2338
 2751TIP3    H229889   6.511   3.166   2.056 -0.5811 -2.5551  0.1049
 2752TIP3   OH229890   0.545   6.804   7.340  0.1122  0.2286  0.1503
 2752TIP3    H129891   0.548   6.737   7.272  1.2230 -0.1991  0.5936
 2752TIP3    H229892   0.460   6.846   7.328 -2.3687 -3.6064  2.1307
 2753TIP3   OH229893   2.457   6.743   6.971  0.3290  0.0105 -0.1437
 2753TIP3    H129894   2.490   6.828   6.942  1.4602 -0.1365  0.6451
 2753TIP3    H229895   2.533   6.699   7.008 -0.9452  0.1771  3.0046
 2754TIP3   OH229896   6.726   6.180   7.531  0.2000 -0.2970 -0.0836
 2754TIP3    H129897   6.668   6.197   7.456  0.9199  0.2703 -0.5205
 2754TIP3    H229898   6.708   6.252   7.591  1.5573  0.7675 -0.9064
 2755TIP3   OH229899   0.915   1.357   0.135  0.3540 -0.2382  0.1588
 2755TIP3    H129900   0.976   1.346   0.208  1.3014 -0.5037 -0.6514
 2755TIP3    H229901   0.845   1.412   0.170  0.6455 -0.5938  1.3426
 2756TIP3   OH229902   4.305   3.233   6.366  0.9740  0.0700 -0.6689
 2756TIP3    H129903   4.363   3.250   6.440  2.1412 -1.7443 -1.0984
 2756TIP3    H229904   4.224   3.200   6.406  1.2181  0.0655 -0.1696
 2757TIP3   OH229905   5.071   4.613   8.212  0.2393  0.1860  0.3381
 2757TIP3    H129906   5.051   4.680   8.146  0.0120  0.7896  1.0014
 2757TIP3    H229907   5.012   4.633   8.285  0.1162 -0.7921  0.5214
 2758TIP3   OH229908   0.859   5.213   6.565 -0.3818  0.0647 -0.3208
 2758TIP3    H129909   0.764   5.207   6.558 -0.7243  1.7981  1.9836
 2758TIP3    H229910   0.884   5.140   6.621 -0.3392 -0.2810 -0.7774
 2759TIP3   OH229911   3.801   0.933   1.624  0.0179 -0.0993 -0.1083
 2759TIP3    H129912   3.764   0.954   1.710  1.6522 -1.1955  0.9179
 2759TIP3    H229913   3.892   0.962   1.629  0.1547 -0.2045 -1.4819
 2760TIP3   OH229914   1.711   1.949   6.619  0.2071 -0.2041 -0.1885
 2760TIP3    H129915   1.630   1.988   6.652  0.6454  0.7182 -0.1734
 2760TIP3    H229916   1.693   1.855   6.615 -0.1138 -0.2790  1.9818
 2761TIP3   OH229917   0.907   6.431   8.542 -0.2633 -0.0016 -0.1623
 2761TIP3    H129918   0.983   6.384   8.575 -0.5297 -1.3887 -1.3964
 2761TIP3    H229919   0.931   6.523   8.546  0.9450 -0.3420  0.7316
 2762TIP3   OH229920   0.406   3.801   1.733 -0.0277 -0.1418 -0.5611
 2762TIP3    H129921   0.441   3.848   1.657 -0.3313  0.4024 -0.3676
 2762TIP3    H229922   0.328   3.757   1.701 -1.0440  1.3405 -0.2195
 2763TIP3   OH229923   2.083   4.336   7.643 -0.2817 -0.2708 -0.3095
 2763TIP3    H129924   2.142   4.369   7.711 -1.6284 -0.9653  1.2546
 2763TIP3    H229925   2.086   4.241   7.653 -1.7219 -0.3137 -0.1316
 2764TIP3   OH229926   2.658   5.177   0.447 -0.2867  0.4984 -0.7230
 2764TIP3    H129927   2.726   5.139   0.392 -0.2439  0.9481 -0.9853
 2764TIP3    H229928   2.651   5.268   0.418  0.0680  0.8754  0.3133
 2765TIP3   OH229929   5.482   3.739   7.760  0.3629 -0.6228  0.3000
 2765TIP3    H129930   5.453   3.828   7.779  1.8335 -0.0263 -0.0900
 2765TIP3    H229931   5.567   3.750   7.718 -0.7916 -2.0502 -2.6722
 2766TIP3   OH229932   6.816   3.558   6.788 -0.1483 -0.1180  0.3528
 2766TIP3    H129933   6.809   3.522   6.876  0.0459  1.9821  1.2833
 2766TIP3    H229934   6.725   3.569   6.759 -0.2108 -1.0108  0.1733
 2767TIP3   OH229935   0.330   5.707   8.299 -0.0839  0.2728  0.7318
 2767TIP3    H129936   0.424   5.707   8.282 -0.3769  1.4134 -1.1812
 2767TIP3    H229937   0.301   5.620   8.274 -0.0944  1.1397 -2.6454
 2768TIP3   OH229938   2.350   1.149   8.459 -0.6496 -0.2022 -0.6068
 2768TIP3    H129939   2.302   1.070   8.483  0.4795 -1.5365 -2.4603
 2768TIP3    H229940   2.439   1.119   8.441  0.3778  1.8624  0.6714
 2769TIP3   OH229941   2.638   0.328   8.628 -0.0101  0.7243 -0.2722
 2769TIP3    H129942   2.713   0.284   8.668 -1.2156 -2.1810 -0.9144
 2769TIP3    H229943   2.677   0.391   8.568  1.9143  0.1407  0.2945
 2770TIP3   OH229944   4.142   5.736   7.458  0.0188 -0.8442 -0.2133
 2770TIP3    H129945   4.062   5.692   7.489 -0.3652  1.0373  1.7194
 2770TIP3    H229946   4.213   5.688   7.500 -0.3484 -0.2916  1.1194
 2771TIP3   OH229947   2.500   6.441   2.181  0.2579  0.1609  0.1215
 2771TIP3    H129948   2.456   6.424   2.264 -1.5280 -0.6528 -0.9354
 2771TIP3    H229949   2.579   6.388   2.184 -0.1673 -0.4357  1.0087
 2772TIP3   OH229950   5.960   2.619   0.935 -0.1024  0.3504  0.0917
 2772TIP3    H129951   5.886   2.617   0.874  0.7368 -1.1971 -0.9353
 2772TIP3    H229952   5.962   2.709   0.968 -2.3119  0.4886  0.0045
 2773TIP3   OH229953   3.485   4.998   8.558 -1.0890 -0.5542  0.1457
 2773TIP3    H129954   3.474   5.067   8.623 -0.5307  0.0966 -0.4438
 2773TIP3    H229955   3.441   5.031   8.480  2.3013  0.8397 -1.3494
 2774TIP3   OH229956   2.949   3.459   7.174  0.0516  0.7804 -0.3955
 2774TIP3    H129957   3.010   3.459   7.248 -1.6460  0.7429  1.0870
 2774TIP3    H229958   2.959   3.546   7.134  1.3443  0.6235 -0.4620
 2775TIP3   OH229959   2.215   3.973   1.169  0.5367 -0.6838 -0.2577
 2775TIP3    H129960   2.240   4.065   1.156 -3.6091  0.5134 -1.2673
 2775TIP3    H229961   2.185   3.969   1.260  0.6912 -1.0556 -0.2213
 2776TIP3   OH229962   6.734   4.881   1.789 -0.0059  0.0957 -0.1003
 2776TIP3    H129963   6.789   4.941   1.840 -0.5902  0.5651 -0.0094
 2776TIP3    H229964   6.729   4.802   1.843  1.5084 -0.3932 -0.6324
 2777TIP3   OH229965   2.828   6.272   8.183 -0.6701  0.0397  0.1136
 2777TIP3    H129966   2.860   6.181   8.180 -0.6083  0.0737 -0.5947
 2777TIP3    H229967   2.826   6.299   8.091  1.9210  1.6599  0.4108
 2778TIP3   OH229968   1.183   0.694   8.407 -0.7093  0.2795  0.3029
 2778TIP3    H129969   1.124   0.769   8.412  0.0496  0.8038  1.6672
 2778TIP3    H229970   1.170   0.659   8.318 -1.3610  1.7728 -0.2131
 2779TIP3   OH229971   4.066   2.805   6.668 -0.0149 -0.5528  0.3570
 2779TIP3    H129972   3.974   2.808   6.693 -0.4817 -1.6655 -1.0583
 2779TIP3    H229973   4.096   2.896   6.672 -0.8160 -0.3279  2.0208
 2780TIP3   OH229974   2.411   0.299   7.201  0.1190  0.0195  0.4377
 2780TIP3    H129975   2.388   0.338   7.286 -0.1279 -0.0454  0.4007
 2780TIP3    H229976   2.368   0.214   7.201 -1.0013  0.5588 -0.2991
 2781TIP3   OH229977   5.472   2.588   0.856  0.2152 -0.6543 -0.3605
 2781TIP3    H129978   5.441   2.665   0.807 -0.1838 -0.8418 -0.4055
 2781TIP3    H229979   5.568   2.591   0.846  0.4236  1.0642  1.4606
 2782TIP3   OH229980   2.659   6.465   8.301 -0.6149 -0.6767 -0.2384
 2782TIP3    H129981   2.715   6.410   8.246 -1.5715 -0.7588 -1.1671
 2782TIP3    H229982   2.715   6.490   8.374  1.0778  0.3752 -1.8105
 2783TIP3   OH229983   1.342   1.958   0.246 -0.0552  0.1290  0.2686
 2783TIP3    H129984   1.384   1.990   0.166 -1.2884  2.1702  0.3711
 2783TIP3    H229985   1.302   1.875   0.221 -0.7351  0.9060 -1.3852
 2784TIP3   OH229986   2.974   0.284   7.978 -0.0332 -0.3712  0.2190
 2784TIP3    H129987   2.975   0.322   8.066 -0.6724 -0.5493  0.3073
 2784TIP3    H229988   2.928   0.348   7.924 -0.4753 -0.6812  0.2182
 2785TIP3   OH229989   5.190   2.717   1.230 -0.5380 -0.1720  0.1344
 2785TIP3    H129990   5.252   2.767   1.176 -0.2435 -1.5457 -0.8311
 2785TIP3    H229991   5.168   2.777   1.302  1.0024  0.7770 -0.1349
 2786TIP3   OH229992   1.512   2.284   0.317  1.3112 -0.3009  0.0602
 2786TIP3    H129993   1.551   2.302   0.403  0.7900  1.2396  0.0147
 2786TIP3    H229994   1.466   2.365   0.295 -0.4031 -1.4227 -0.6962
 2787TIP3   OH229995   1.319   0.086   1.342  0.1405 -0.3843  0.7927
 2787TIP3    H129996   1.301   0.118   1.253 -1.1321 -1.4592  0.6244
 2787TIP3    H229997   1.401   0.037   1.334  0.1950 -0.2138  0.2745
 2788TIP3   OH229998   6.015   2.853   1.213  0.3498 -0.3034  0.1679
 2788TIP3    H129999   6.032   2.759   1.213 -0.8362 -0.5734 -1.6354
 2788TIP3    H230000   5.963   2.868   1.292  1.5141 -0.9375  1.0778
 2789TIP3   OH230001   4.526   2.441   0.867 -0.2411 -0.1976 -0.0047
 2789TIP3    H130002   4.497   2.471   0.953 -1.7995 -0.0306 -0.5646
 2789TIP3    H230003   4.447   2.409   0.824  1.0415 -3.8061 -0.0190
 2790TIP3   OH230004   0.885   4.675   6.975  0.6319 -0.1568 -0.9130
 2790TIP3    H130005   0.961   4.732   6.966  1.3428 -0.9223  0.0808
 2790TIP3    H230006   0.892   4.614   6.902  1.6349 -0.9642 -0.1595
 2791TIP3   OH230007   1.069   5.414   7.829  0.3744  0.0171 -0.1416
 2791TIP3    H130008   1.107   5.329   7.806  1.0908  0.4560 -0.6057
 2791TIP3    H230009   1.126   5.478   7.787  0.3351  0.7599  0.8983
 2792TIP3   OH230010   2.688   4.827   1.740 -0.1204  0.0670 -0.0278
 2792TIP3    H130011   2.635   4.891   1.787  1.1916  0.9385  0.3188
 2792TIP3    H230012   2.660   4.742   1.776  0.4455  0.6664  1.9750
 2793TIP3   OH230013   6.334   3.724   8.276 -1.0304  0.2003  0.7542
 2793TIP3    H130014   6.258   3.668   8.293  0.0513 -1.3296  0.7629
 2793TIP3    H230015   6.344   3.722   8.181 -0.7333  0.0369  0.7898
 2794TIP3   OH230016   4.777   1.969   8.269 -0.7811 -0.8124  0.6080
 2794TIP3    H130017   4.776   2.048   8.323  0.7882 -1.0014  0.9664
 2794TIP3    H230018   4.733   1.903   8.322  0.1342 -0.8141  1.4092
 2795TIP3   OH230019   3.517   6.511   7.190 -0.2004  0.4856  0.2309
 2795TIP3    H130020   3.533   6.425   7.228 -0.6782  0.1162 -0.3849
 2795TIP3    H230021   3.584   6.567   7.229  0.4874 -0.2923  0.1994
 2796TIP3   OH230022   3.560   0.427   1.336 -0.1518 -0.6556  0.0411
 2796TIP3    H130023   3.573   0.425   1.431  1.1294 -1.1834 -0.1297
 2796TIP3    H230024   3.608   0.351   1.303  0.7880  0.4223 -1.1853
 2797TIP3   OH230025   6.673   6.111   6.839 -0.0381 -0.3277  0.1254
 2797TIP3    H130026   6.613   6.184   6.825 -1.8129 -1.6740  0.2821
 2797TIP3    H230027   6.661   6.056   6.761 -1.1604 -1.9930  1.3823
 2798TIP3   OH230028   5.291   5.574   1.193  0.1746 -0.3334  0.5322
 2798TIP3    H130029   5.199   5.590   1.217 -0.2108 -0.7211 -0.5935
 2798TIP3    H230030   5.316   5.497   1.244 -0.7317 -1.3576 -0.5251
 2799TIP3   OH230031   6.664   1.742   0.790 -0.1143  0.0866 -0.1071
 2799TIP3    H130032   6.630   1.658   0.759  0.8091 -0.7327  1.0374
 2799TIP3    H230033   6.755   1.743   0.761 -0.0768  0.6300  0.0227
 2800TIP3   OH230034   2.777   3.777   0.876 -0.4610  0.1036 -0.2585
 2800TIP3    H130035   2.744   3.840   0.940 -1.6350  0.2812 -0.9935
 2800TIP3    H230036   2.857   3.816   0.843 -1.5938  1.6776 -1.3021
 2801TIP3   OH230037   4.130   1.503   2.168 -0.0103  0.2730  0.9118
 2801TIP3    H130038   4.107   1.414   2.141  1.8023 -0.0918  0.4391
 2801TIP3    H230039   4.193   1.533   2.102 -0.2819  1.7672  1.2854
 2802TIP3   OH230040   2.600   3.717   7.545  0.1093 -0.1099 -0.2411
 2802TIP3    H130041   2.563   3.668   7.471  0.0790  3.1252 -2.5789
 2802TIP3    H230042   2.599   3.655   7.618 -0.2864 -3.3695 -2.7979
 2803TIP3   OH230043   2.282   3.666   1.580  0.8097  0.7356 -0.4482
 2803TIP3    H130044   2.331   3.599   1.627 -0.1184  1.4772  1.7314
 2803TIP3    H230045   2.272   3.632   1.492  2.4302 -0.8720 -0.0630
 2804TIP3   OH230046   0.267   1.781   1.433  0.2436  0.1079 -0.2034
 2804TIP3    H130047   0.342   1.755   1.380 -0.9247  1.0201 -2.4243
 2804TIP3    H230048   0.254   1.874   1.414 -0.9535  0.1694  0.7720
 2805TIP3   OH230049   4.786   6.495   8.386 -0.4549 -0.1614  0.2304
 2805TIP3    H130050   4.705   6.453   8.413 -1.5720  0.7685 -1.4731
 2805TIP3    H230051   4.791   6.575   8.439 -0.0918 -0.7323  1.0698
 2806TIP3   OH230052   3.843   0.211   1.662  0.3419 -0.4310 -0.2967
 2806TIP3    H130053   3.933   0.224   1.631  0.7155 -1.9292  0.0673
 2806TIP3    H230054   3.815   0.129   1.621 -2.1394  1.6056 -3.1135
 2807TIP3   OH230055   1.253   1.295   2.395 -0.2337  0.2981 -0.3637
 2807TIP3    H130056   1.208   1.254   2.321 -0.1173  3.0905 -2.1324
 2807TIP3    H230057   1.343   1.265   2.388 -0.0788  0.9842 -1.8203
 2808TIP3   OH230058   2.615   2.181   8.040  0.5057 -0.3369  0.0709
 2808TIP3    H130059   2.533   2.133   8.037  1.0202 -1.2159 -0.4603
 2808TIP3    H230060   2.627   2.202   8.133  0.5237 -1.7033  0.4014
 2809TIP3   OH230061   2.006   3.713   8.149 -0.1079  0.4053 -0.0457
 2809TIP3    H130062   2.035   3.782   8.089 -0.8935  1.8609  1.1670
 2809TIP3    H230063   1.931   3.673   8.105  0.6173  0.0118 -0.9555
 2810TIP3   OH230064   1.488   1.124   7.882  0.2424 -0.1178  0.1402
 2810TIP3    H130065   1.449   1.070   7.951  0.4314  1.6169  1.6854
 2810TIP3    H230066   1.575   1.087   7.868  0.5236 -0.0210  1.4669
 2811TIP3   OH230067   1.913   0.249   0.823 -0.0572  0.7804 -0.1940
 2811TIP3    H130068   1.923   0.324   0.883 -0.0391 -0.0990  0.9444
 2811TIP3    H230069   1.848   0.193   0.865  1.9825 -1.2411  0.4981
 2812TIP3   OH230070   4.285   6.289   6.751  0.3478 -0.1813  0.4967
 2812TIP3    H130071   4.265   6.294   6.845  0.7176  2.7557  0.5115
 2812TIP3    H230072   4.201   6.303   6.708  0.8460  4.6362  0.5489
 2813TIP3   OH230073   1.326   5.795   8.501 -0.0474  0.1724  0.6141
 2813TIP3    H130074   1.411   5.830   8.528 -0.8414  0.3935  3.0656
 2813TIP3    H230075   1.344   5.703   8.480  1.0691  0.6333 -0.5602
 2814TIP3   OH230076   3.033   2.041   8.417  0.2531  0.4617  0.2015
 2814TIP3    H130077   2.975   2.113   8.391  0.3061  0.5604  0.3522
 2814TIP3    H230078   3.023   1.975   8.348 -1.7553 -0.4932  1.2941
 2815TIP3   OH230079   4.844   1.502   0.869  0.5685  0.4850  0.3641
 2815TIP3    H130080   4.838   1.597   0.863  0.3132  0.3766 -3.4012
 2815TIP3    H230081   4.932   1.482   0.835 -0.0727 -0.6551 -0.7071
 2816TIP3   OH230082   3.273   5.877   7.726  0.4950  0.0639  0.1735
 2816TIP3    H130083   3.348   5.909   7.777  1.9347 -0.3776 -1.5234
 2816TIP3    H230084   3.306   5.875   7.636 -1.6046 -0.1368 -0.6358
 2817TIP3   OH230085   3.276   3.122   2.601  0.0075 -0.0640  0.2862
 2817TIP3    H130086   3.184   3.109   2.623 -0.3877  1.0191 -0.6293
 2817TIP3    H230087   3.308   3.034   2.580 -1.1242 -0.3222 -0.4909
 2818TIP3   OH230088   1.413   2.740   7.152  0.1099 -0.4091  0.6187
 2818TIP3    H130089   1.393   2.648   7.134 -2.0715 -0.0721  1.0257
 2818TIP3    H230090   1.327   2.781   7.163  1.0679  1.4755  1.4659
 2819TIP3   OH230091   1.818   1.034   7.256  0.0169  0.2421 -0.3046
 2819TIP3    H130092   1.875   0.957   7.249  0.1880  0.2010  1.3562
 2819TIP3    H230093   1.842   1.075   7.338 -1.8622  0.6262  0.0911
 2820TIP3   OH230094   5.988   4.689   1.460 -0.2575  0.0150 -0.2238
 2820TIP3    H130095   5.909   4.685   1.513  0.2782 -0.7621  0.5391
 2820TIP3    H230096   5.965   4.644   1.379 -2.0453  3.7665 -2.0480
 2821TIP3   OH230097   2.148   5.535   1.323 -0.1387 -0.0728 -0.3528
 2821TIP3    H130098   2.195   5.599   1.376 -1.4943  0.3887  0.3363
 2821TIP3    H230099   2.185   5.451   1.350  1.7140  0.3662 -1.3282
 2822TIP3   OH230100   3.699   2.080   0.979 -0.0960 -0.7571  0.2096
 2822TIP3    H130101   3.675   2.033   1.058 -0.2130 -0.7125  0.2016
 2822TIP3    H230102   3.687   2.172   1.001 -0.8176 -0.7758 -0.0805
 2823TIP3   OH230103   1.406   4.390   8.230  0.1609  0.4079 -0.7540
 2823TIP3    H130104   1.423   4.477   8.266 -0.8301  1.1709 -2.0264
 2823TIP3    H230105   1.363   4.342   8.301 -0.5350  1.4213 -0.4682
 2824TIP3   OH230106   0.393   3.429   1.666  0.6280 -0.1513 -0.0721
 2824TIP3    H130107   0.338   3.376   1.724  0.2369 -1.2117 -1.3542
 2824TIP3    H230108   0.465   3.459   1.721 -0.7395  0.5026  1.4226
 2825TIP3   OH230109   2.334   4.198   7.380 -0.6324  0.1230  0.2711
 2825TIP3    H130110   2.364   4.201   7.470  1.3630 -0.1827 -0.3470
 2825TIP3    H230111   2.373   4.119   7.344 -2.1007 -0.2341 -0.6553
 2826TIP3   OH230112   4.131   2.753   2.675 -0.1341 -0.8604 -0.0505
 2826TIP3    H130113   4.036   2.769   2.675 -0.1223 -0.7253 -0.9085
 2826TIP3    H230114   4.170   2.839   2.665  0.0894 -0.8957  0.4958
 2827TIP3   OH230115   3.964   3.725   1.250 -0.1200  0.0637 -0.1637
 2827TIP3    H130116   4.009   3.809   1.244 -1.0561  0.5827 -0.1346
 2827TIP3    H230117   3.910   3.721   1.171 -0.1596 -0.4658 -0.1114
 2828TIP3   OH230118   4.081   0.787   7.528 -0.8869 -0.3023  0.1950
 2828TIP3    H130119   4.120   0.708   7.565 -1.2013 -1.1336 -1.1549
 2828TIP3    H230120   4.135   0.859   7.560  0.9751 -1.2911 -0.5802
 2829TIP3   OH230121   6.397   1.579   8.677  0.3199 -0.1244 -0.1658
 2829TIP3    H130122   6.404   1.489   8.709  0.7054  0.2258  0.7417
 2829TIP3    H230123   6.353   1.627   8.747  0.2079  0.4181 -0.5998
 2830TIP3   OH230124   1.820   3.138   0.925  0.1521  0.6004  0.0491
 2830TIP3    H130125   1.910   3.139   0.894  0.6353  0.0739  1.3846
 2830TIP3    H230126   1.776   3.206   0.873  1.2906  0.8201 -0.6564
 2831TIP3   OH230127   2.612   1.543   1.310 -0.3705 -0.3914 -0.3074
 2831TIP3    H130128   2.533   1.488   1.311 -0.8872  0.2580 -2.1045
 2831TIP3    H230129   2.594   1.610   1.245  1.7048 -0.2686 -0.8354
 2832TIP3   OH230130   1.693   1.567   7.151 -0.3515  0.2598 -0.8248
 2832TIP3    H130131   1.629   1.530   7.090 -0.2395  0.9767 -1.3858
 2832TIP3    H230132   1.778   1.542   7.115 -0.1799  2.9149 -2.4961
 2833TIP3   OH230133   3.942   6.803   0.566  0.0477 -0.1062 -0.5066
 2833TIP3    H130134   3.940   6.870   0.498  0.7053 -1.3425 -1.8139
 2833TIP3    H230135   3.899   6.727   0.526  0.1442 -0.7620  0.5859
 2834TIP3   OH230136   4.837   6.141   0.730  0.5053 -0.0388 -0.8143
 2834TIP3    H130137   4.875   6.157   0.644  0.6916  0.7693 -0.5857
 2834TIP3    H230138   4.743   6.143   0.716  0.5101 -1.7068 -1.3208
 2835TIP3   OH230139   2.096   1.837   6.418 -0.9590  0.6707 -0.2552
 2835TIP3    H130140   2.031   1.777   6.381 -1.3020 -0.4902  2.0663
 2835TIP3    H230141   2.048   1.919   6.429 -1.3743  0.4864 -0.6619
 2836TIP3   OH230142   6.586   4.509   2.073 -0.0684  0.3386  0.3036
 2836TIP3    H130143   6.664   4.479   2.120 -0.5815 -0.7301  0.5134
 2836TIP3    H230144   6.621   4.553   1.995  0.7472 -0.8512 -0.0369
 2837TIP3   OH230145   4.276   2.815   8.240  0.4509 -0.2289  0.5031
 2837TIP3    H130146   4.297   2.907   8.225  0.8866 -0.5108 -0.7430
 2837TIP3    H230147   4.304   2.799   8.330 -1.3361  1.3112  1.4025
 2838TIP3   OH230148   5.341   6.221   8.161  0.2409  0.2172 -0.1015
 2838TIP3    H130149   5.282   6.238   8.234  1.9104  1.2503  1.0745
 2838TIP3    H230150   5.315   6.135   8.129 -1.7383  0.5354  0.4827
 2839TIP3   OH230151   5.909   5.396   6.553  0.4613 -0.0058 -0.4335
 2839TIP3    H130152   5.861   5.369   6.632  1.7731 -1.2091 -0.0012
 2839TIP3    H230153   5.862   5.473   6.522 -0.4596  0.1348  1.1692
 2840TIP3   OH230154   1.736   3.947   8.152 -0.2670 -0.3438 -0.1581
 2840TIP3    H130155   1.780   3.924   8.070 -0.9934 -1.3707 -0.2829
 2840TIP3    H230156   1.765   3.882   8.215 -1.2834 -0.7991 -0.1406
 2841TIP3   OH230157   6.392   0.725   2.538  0.0790 -0.3287  0.0943
 2841TIP3    H130158   6.480   0.686   2.537  0.2118 -0.0298 -1.3451
 2841TIP3    H230159   6.378   0.748   2.630  1.4526 -0.4871  0.3709
 2842TIP3   OH230160   6.274   3.185   0.679 -0.1422  0.3013 -0.1004
 2842TIP3    H130161   6.289   3.253   0.613  3.1903  1.6988  1.8693
 2842TIP3    H230162   6.251   3.234   0.758  0.7523 -0.9466  0.9636
 2843TIP3   OH230163   1.852   3.853   1.619 -0.0894 -0.4957 -0.1094
 2843TIP3    H130164   1.799   3.867   1.541  0.0124 -0.7816 -0.2325
 2843TIP3    H230165   1.877   3.761   1.615  1.0434 -0.1887 -0.4488
 2844TIP3   OH230166   6.786   2.830   8.022 -0.0951  0.9900  0.6928
 2844TIP3    H130167   6.798   2.738   8.045 -0.2004  0.5335 -0.9787
 2844TIP3    H230168   6.768   2.873   8.105  0.8453 -0.3426  1.6338
 2845TIP3   OH230169   6.774   3.436   7.020 -0.5967 -0.4790  0.3388
 2845TIP3    H130170   6.833   3.460   7.091 -1.1695  1.3483  0.2677
 2845TIP3    H230171   6.727   3.359   7.051  2.4268 -2.6089  0.0105
 2846TIP3   OH230172   3.982   4.259   2.063 -0.0031  0.0895 -0.2432
 2846TIP3    H130173   3.983   4.354   2.055  0.7234  0.1632  0.5853
 2846TIP3    H230174   3.993   4.227   1.973  2.2320  0.8162 -0.2929
 2847TIP3   OH230175   4.440   2.988   7.944  0.6252  0.6986 -0.5975
 2847TIP3    H130176   4.374   3.056   7.961  0.0321 -0.0026 -0.0105
 2847TIP3    H230177   4.401   2.933   7.876  0.4983  0.1622 -0.1044
 2848TIP3   OH230178   4.413   2.124   7.460  0.4731 -0.2695 -0.0640
 2848TIP3    H130179   4.398   2.189   7.530  1.3555 -1.3519  1.1774
 2848TIP3    H230180   4.371   2.162   7.383 -0.5993  0.9437  1.0678
 2849TIP3   OH230181   1.052   4.985   7.919 -0.0074 -0.0258 -0.2997
 2849TIP3    H130182   0.976   4.965   7.863  0.6921 -1.3859 -0.8024
 2849TIP3    H230183   1.122   5.007   7.858  1.4922 -3.9146 -0.2540
 2850TIP3   OH230184   6.768   1.061   7.846  0.3050  0.0913 -0.2576
 2850TIP3    H130185   6.812   1.000   7.905  1.2954  0.4131 -0.6337
 2850TIP3    H230186   6.675   1.053   7.867  0.5739 -0.3402  0.8264
 2851TIP3   OH230187   6.418   0.495   1.325  0.4770 -0.2742  0.1068
 2851TIP3    H130188   6.462   0.416   1.297  1.2316 -0.4250  1.6072
 2851TIP3    H230189   6.428   0.496   1.421 -2.6404 -0.2509  0.5466
 2852TIP3   OH230190   0.766   0.887   7.327 -0.4407 -0.1742  0.0685
 2852TIP3    H130191   0.726   0.974   7.334 -0.2284 -0.2103  5.4862
 2852TIP3    H230192   0.693   0.830   7.303 -1.0511  1.1253 -1.3926
 2853TIP3   OH230193   6.451   2.063   2.419  0.1105  0.2749 -0.3341
 2853TIP3    H130194   6.368   2.092   2.457 -0.3254  0.1921 -1.2118
 2853TIP3    H230195   6.516   2.124   2.454 -0.4964  1.0721 -0.5682
 2854TIP3   OH230196   6.170   5.990   7.631  0.0111 -0.1801  0.1211
 2854TIP3    H130197   6.117   6.009   7.709  0.2320  0.2689  0.1678
 2854TIP3    H230198   6.213   5.907   7.651 -0.2838 -0.2906  0.2931
 2855TIP3   OH230199   1.221   1.842   1.574 -0.4543  0.2360 -0.3905
 2855TIP3    H130200   1.253   1.928   1.599 -0.9322 -0.2573  2.2899
 2855TIP3    H230201   1.132   1.858   1.541 -0.3423  0.8358 -0.4057
 2856TIP3   OH230202   5.719   3.643   0.201 -0.0676  0.0781 -0.5717
 2856TIP3    H130203   5.686   3.724   0.163  0.1864  0.5979  0.3117
 2856TIP3    H230204   5.642   3.586   0.204 -0.3982  0.5206 -0.5543
 2857TIP3   OH230205   1.260   1.722   8.032  1.0280  0.2597 -0.4474
 2857TIP3    H130206   1.320   1.765   8.092 -0.2252  1.5130 -0.0273
 2857TIP3    H230207   1.280   1.761   7.946  0.9131  0.5921 -0.3267
 2858TIP3   OH230208   5.105   4.350   1.279  0.2800  0.0533 -0.0985
 2858TIP3    H130209   5.025   4.374   1.233  0.3436  0.3812 -0.0380
 2858TIP3    H230210   5.114   4.256   1.265 -0.6951 -0.1880  0.7826
 2859TIP3   OH230211   1.326   0.929   6.407 -0.8471  0.6680 -0.0240
 2859TIP3    H130212   1.400   0.871   6.392 -0.3193  1.5041 -0.7580
 2859TIP3    H230213   1.358   0.994   6.469 -1.1264  0.7428  0.0440
 2860TIP3   OH230214   6.584   6.207   8.347 -0.2664 -0.3913  0.3888
 2860TIP3    H130215   6.621   6.238   8.264  0.0231 -3.6602 -0.8812
 2860TIP3    H230216   6.494   6.182   8.325 -0.5101 -0.3716  1.3235
 2861TIP3   OH230217   6.463   5.943   0.730 -0.4981 -0.9924  0.2830
 2861TIP3    H130218   6.529   5.977   0.790 -0.5303  0.2060 -0.3274
 2861TIP3    H230219   6.382   5.988   0.756 -0.8057 -1.4832  0.1965
 2862TIP3   OH230220   2.534   1.274   1.957  0.2747 -0.2419  0.1967
 2862TIP3    H130221   2.601   1.290   1.891  1.8278 -2.2673  1.1804
 2862TIP3    H230222   2.577   1.294   2.040 -1.1003  0.6003  0.7448
 2863TIP3   OH230223   0.734   5.505   7.410 -0.1149 -0.2553 -0.2666
 2863TIP3    H130224   0.684   5.582   7.438  1.2085  0.8166 -0.6958
 2863TIP3    H230225   0.771   5.471   7.491 -2.6660 -1.9784  0.2729
 2864TIP3   OH230226   3.034   6.635   1.569 -0.7202 -0.2390 -0.0300
 2864TIP3    H130227   2.946   6.666   1.588  0.2925  2.8758  0.1669
 2864TIP3    H230228   3.028   6.598   1.481 -2.3276 -0.6461  0.2245
 2865TIP3   OH230229   0.739   6.267   7.651 -0.0410 -0.5086  0.6718
 2865TIP3    H130230   0.700   6.334   7.707 -0.4607 -0.0491 -0.1549
 2865TIP3    H230231   0.726   6.185   7.699 -0.4488 -0.1354  1.2076
 2866TIP3   OH230232   3.482   1.775   2.277  0.1993  0.2166  0.2774
 2866TIP3    H130233   3.538   1.828   2.333 -0.1404  1.0678 -0.1503
 2866TIP3    H230234   3.511   1.796   2.188 -0.2947  0.0962  0.0830
 2867TIP3   OH230235   2.616   3.630   2.052  0.0497 -0.1802 -0.3622
 2867TIP3    H130236   2.647   3.652   2.140  0.5074 -0.4768 -0.4459
 2867TIP3    H230237   2.677   3.564   2.021 -0.9372 -1.1149 -0.3669
 2868TIP3   OH230238   6.564   6.101   1.444  0.2930 -0.0665 -0.0995
 2868TIP3    H130239   6.590   6.027   1.389  1.5282  1.7122 -2.0956
 2868TIP3    H230240   6.471   6.114   1.424  0.7439  0.6319 -2.0130
 2869TIP3   OH230241   3.949   1.523   0.726 -0.1726  0.1805  0.0839
 2869TIP3    H130242   4.022   1.551   0.782 -0.0985  1.1128 -0.4544
 2869TIP3    H230243   3.886   1.595   0.732 -0.7407 -0.3081 -0.0019
 2870TIP3   OH230244   3.760   1.041   6.523  0.4507 -0.7005  0.1007
 2870TIP3    H130245   3.682   1.012   6.570  0.9307 -1.4982  0.4270
 2870TIP3    H230246   3.819   1.074   6.591  0.1371  0.5559 -0.2127
 2871TIP3   OH230247   6.742   4.929   1.520  0.3639  0.2332 -0.1098
 2871TIP3    H130248   6.744   5.019   1.487 -0.4820  0.5927  0.7640
 2871TIP3    H230249   6.760   4.937   1.614  0.5871 -0.5424 -0.0773
 2872TIP3   OH230250   0.086   5.232   8.415  0.1056  0.1172 -0.3398
 2872TIP3    H130251   0.149   5.161   8.406  1.5590  1.4419 -1.0423
 2872TIP3    H230252   0.010   5.203   8.365  0.0106 -1.6098  0.7082
 2873TIP3   OH230253   2.063   0.693   1.186  0.7500  0.3484 -0.4326
 2873TIP3    H130254   2.082   0.734   1.101 -0.5621 -0.8143 -1.3271
 2873TIP3    H230255   2.138   0.635   1.202  1.3632  1.1245 -0.4087
 2874TIP3   OH230256   0.243   5.668   1.638 -0.0844  0.0818 -0.1209
 2874TIP3    H130257   0.247   5.680   1.733  3.8050  2.3337 -0.3464
 2874TIP3    H230258   0.189   5.741   1.607 -0.9399 -0.3625  0.2906
 2875TIP3   OH230259   6.475   2.551   1.483  0.7847 -0.5697 -0.4321
 2875TIP3    H130260   6.461   2.504   1.565 -0.7771 -1.8027 -1.3245
 2875TIP3    H230261   6.477   2.481   1.417  0.7373  0.4817 -1.5722
 2876TIP3   OH230262   2.000   1.212   8.641  0.1856 -0.1660  0.1247
 2876TIP3    H130263   2.047   1.135   8.673  1.1983  0.1537 -0.5826
 2876TIP3    H230264   1.918   1.212   8.691  0.5381 -1.2299  0.7238
 2877TIP3   OH230265   4.525   4.665   0.424  0.4730  0.1119 -0.0247
 2877TIP3    H130266   4.610   4.680   0.384 -0.1093 -1.3436 -1.9911
 2877TIP3    H230267   4.466   4.725   0.377  0.0378 -0.5547 -0.3563
 2878TIP3   OH230268   1.446   2.498   7.042 -0.0884  0.0716  0.0194
 2878TIP3    H130269   1.446   2.477   6.948  1.7115 -2.6511  0.5279
 2878TIP3    H230270   1.537   2.491   7.068 -0.7154 -0.6057  2.2495
 2879TIP3   OH230271   2.744   5.294   0.845  0.0357 -0.0805 -0.2483
 2879TIP3    H130272   2.664   5.329   0.807 -0.1570 -0.6142 -0.3495
 2879TIP3    H230273   2.725   5.289   0.939 -0.1260 -0.3791 -0.2925
 2880TIP3   OH230274   6.621   3.975   8.700 -0.2229  0.4331 -0.7583
 2880TIP3    H130275   6.536   3.966   8.656 -1.1476 -0.7112  1.1342
 2880TIP3    H230276   6.616   3.914   8.774  2.0191  0.8190 -0.2221
 2881TIP3   OH230277   2.351   1.299   8.178 -0.0918 -0.2233 -0.1756
 2881TIP3    H130278   2.416   1.309   8.247 -0.7994 -0.7449  0.5991
 2881TIP3    H230279   2.297   1.378   8.183 -0.2555 -0.3451 -0.0051
 2882TIP3   OH230280   5.570   1.355   6.342 -0.1158 -0.6116  0.5506
 2882TIP3    H130281   5.557   1.432   6.287 -0.1006 -2.2617 -1.9406
 2882TIP3    H230282   5.484   1.338   6.381 -0.4221 -0.0674  0.1265
 2883TIP3   OH230283   1.064   2.539   0.822 -0.9038  0.0792  0.1399
 2883TIP3    H130284   1.106   2.546   0.736 -0.6393 -0.8513  0.1878
 2883TIP3    H230285   0.986   2.595   0.815  0.5112  2.1702  0.1747
 2884TIP3   OH230286   3.596   5.966   7.684 -0.2072 -0.0086  1.0574
 2884TIP3    H130287   3.581   5.902   7.614  0.9939  1.2368 -0.4049
 2884TIP3    H230288   3.599   5.913   7.764 -2.3444 -1.3969  0.3082
 2885TIP3   OH230289   6.707   4.429   1.314  0.5487 -0.4755 -0.1259
 2885TIP3    H130290   6.710   4.518   1.350  0.4984 -0.6865  0.3987
 2885TIP3    H230291   6.740   4.439   1.224  0.0396  0.1636 -0.2561
 2886TIP3   OH230292   2.862   0.128   8.339 -0.7769  0.2589  0.1235
 2886TIP3    H130293   2.824   0.127   8.251  1.0337 -1.1639 -0.7225
 2886TIP3    H230294   2.911   0.210   8.344 -0.5188  0.1374 -0.3818
 2887TIP3   OH230295   4.349   1.873   7.276 -0.5504  0.3846  0.0588
 2887TIP3    H130296   4.340   1.805   7.209  0.4961  1.8580 -1.6786
 2887TIP3    H230297   4.424   1.845   7.328  2.5344  1.9748 -3.1145
 2888TIP3   OH230298   3.601   0.098   7.424 -0.5488 -0.3579 -0.0056
 2888TIP3    H130299   3.537   0.054   7.480 -0.3860 -0.8040 -0.1606
 2888TIP3    H230300   3.605   0.188   7.457 -0.0449 -0.7567  1.0720
 2889TIP3   OH230301   6.714   4.561   7.600 -0.4061  0.3962  0.0076
 2889TIP3    H130302   6.767   4.638   7.617 -0.4136  0.1012  1.5710
 2889TIP3    H230303   6.735   4.501   7.672 -0.1114 -1.2307 -1.3659
 2890TIP3   OH230304   6.120   1.506   7.686 -0.5899 -0.1538 -0.3100
 2890TIP3    H130305   6.099   1.587   7.640  0.8946  2.5537  3.3644
 2890TIP3    H230306   6.215   1.498   7.680 -0.5630 -0.7539  0.7229
 2891TIP3   OH230307   6.578   0.156   7.656 -0.2858  0.0636  0.0988
 2891TIP3    H130308   6.665   0.156   7.695 -0.6893  2.2616  1.1849
 2891TIP3    H230309   6.552   0.064   7.654  1.3823 -0.4824  1.3015
 2892TIP3   OH230310   4.387   0.737   0.233  0.0642 -0.2706  0.2572
 2892TIP3    H130311   4.332   0.750   0.155 -1.0548 -0.6775  0.9464
 2892TIP3    H230312   4.453   0.673   0.206 -0.7430 -0.9486 -0.1659
 2893TIP3   OH230313   3.853   1.706   0.363  0.3719 -0.3277 -0.2679
 2893TIP3    H130314   3.863   1.615   0.333  1.5670  0.6308 -3.1517
 2893TIP3    H230315   3.934   1.723   0.412  0.9119 -0.3389 -1.1423
 2894TIP3   OH230316   1.651   1.116   6.924  0.0604 -0.1841  0.2033
 2894TIP3    H130317   1.562   1.091   6.950 -0.5631  1.2880 -0.3792
 2894TIP3    H230318   1.638   1.172   6.847  1.4479  0.6049  0.5198
 2895TIP3   OH230319   6.516   1.486   1.134 -0.7854 -0.5575 -0.7715
 2895TIP3    H130320   6.489   1.512   1.222  0.8375  1.5141 -0.8155
 2895TIP3    H230321   6.610   1.469   1.141 -0.8160 -1.3397 -1.9215
 2896TIP3   OH230322   6.071   4.008   7.621 -0.2202  0.1789  0.1498
 2896TIP3    H130323   6.137   4.007   7.551  0.5678 -0.0865  0.8759
 2896TIP3    H230324   6.119   4.039   7.699 -0.5371 -1.5655  1.0810
 2897TIP3   OH230325   2.445   2.798   7.635 -0.1806 -0.3105  0.0006
 2897TIP3    H130326   2.530   2.832   7.663 -0.0497 -1.3738  0.9775
 2897TIP3    H230327   2.440   2.710   7.673 -1.5941 -0.3861 -0.2795
 2898TIP3   OH230328   5.171   2.012   7.694  0.3142 -0.0688 -0.0749
 2898TIP3    H130329   5.096   2.072   7.687  0.8797  0.5101 -1.5698
 2898TIP3    H230330   5.244   2.068   7.719 -0.0155 -0.9034  3.2875
 2899TIP3   OH230331   3.346   1.619   0.756  0.2582 -0.3784 -0.6804
 2899TIP3    H130332   3.306   1.666   0.829 -2.2201 -0.3805 -1.9522
 2899TIP3    H230333   3.425   1.669   0.735 -1.5084  2.4198 -1.0557
 2900TIP3   OH230334   3.576   4.126   0.783  0.1388 -0.2027  0.0676
 2900TIP3    H130335   3.669   4.123   0.759  0.4128 -0.4674  1.1353
 2900TIP3    H230336   3.575   4.110   0.877 -1.1277 -2.2013 -0.2294
 2901TIP3   OH230337   4.638   3.087   6.392 -0.9842 -0.2321  0.0791
 2901TIP3    H130338   4.632   2.992   6.401  0.2180 -0.2007  1.8024
 2901TIP3    H230339   4.596   3.121   6.471 -1.3366  0.6784 -0.4850
 2902TIP3   OH230340   3.679   2.503   2.028 -0.0084 -0.1202 -0.5920
 2902TIP3    H130341   3.605   2.553   1.994  0.0075  0.4289  0.1656
 2902TIP3    H230342   3.708   2.552   2.104 -0.2947 -1.5291  0.4591
 2903TIP3   OH230343   0.362   3.164   2.138 -0.7325 -0.2020  0.3074
 2903TIP3    H130344   0.336   3.256   2.138  1.8768  0.6321 -0.2033
 2903TIP3    H230345   0.289   3.118   2.179 -2.4943  1.9645 -0.2161
 2904TIP3   OH230346   0.863   5.184   0.114 -0.0929  0.4904  0.3323
 2904TIP3    H130347   0.943   5.177   0.062  0.1268  0.3221  0.6780
 2904TIP3    H230348   0.817   5.259   0.079  0.2757  0.6586  0.1989
 2905TIP3   OH230349   4.698   1.265   1.814 -0.2926 -0.0836  0.0530
 2905TIP3    H130350   4.738   1.284   1.899 -1.3483  2.6067  0.0404
 2905TIP3    H230351   4.739   1.327   1.754 -0.0281 -1.5223 -1.3125
 2906TIP3   OH230352   5.684   2.605   2.175  0.3729  0.5468 -0.3988
 2906TIP3    H130353   5.746   2.675   2.152  1.1676  0.1034  0.3020
 2906TIP3    H230354   5.671   2.615   2.269 -0.2789  0.3515 -0.4645
 2907TIP3   OH230355   2.523   5.780   0.826  0.4193 -0.0253 -0.2712
 2907TIP3    H130356   2.574   5.857   0.798  0.3201  0.3018  0.4252
 2907TIP3    H230357   2.433   5.801   0.800  0.5937 -0.5271 -1.3435
 2908TIP3   OH230358   1.608   2.154   7.588  0.0397  0.1354  0.0875
 2908TIP3    H130359   1.628   2.061   7.578 -1.6467 -0.4846  1.7292
 2908TIP3    H230360   1.639   2.194   7.507  3.0229 -1.4245  0.2942
 2909TIP3   OH230361   4.549   0.997   8.287 -0.1710  0.0391  0.3165
 2909TIP3    H130362   4.574   1.089   8.288 -1.0693  0.4449 -3.1774
 2909TIP3    H230363   4.456   0.996   8.308 -0.4094  0.0729 -0.6988
 2910TIP3   OH230364   5.076   5.746   0.664 -0.2170 -0.1468  0.7781
 2910TIP3    H130365   5.143   5.679   0.657 -0.6845 -0.5788  0.3120
 2910TIP3    H230366   5.076   5.770   0.757  2.7539  2.1801  0.3165
 2911TIP3   OH230367   1.873   2.121   1.954 -0.1116  0.1300  0.1756
 2911TIP3    H130368   1.797   2.093   2.006 -0.9592  1.9859  0.0361
 2911TIP3    H230369   1.948   2.081   1.997 -1.0566 -0.6545  1.1453
 2912TIP3   OH230370   3.477   3.770   1.433 -0.4898  0.1332  0.2100
 2912TIP3    H130371   3.477   3.714   1.510 -0.4113 -0.0122  0.1042
 2912TIP3    H230372   3.449   3.714   1.362 -1.7623  0.5750  0.3424
 2913TIP3   OH230373   6.349   6.358   7.715 -0.1944 -0.0043 -0.2219
 2913TIP3    H130374   6.308   6.411   7.783  1.2635  1.2707 -0.2973
 2913TIP3    H230375   6.344   6.411   7.636  0.7394 -0.2291 -0.4425
 2914TIP3   OH230376   6.771   3.553   7.367  0.2380  0.1143  0.0919
 2914TIP3    H130377   6.857   3.573   7.331  0.8503  1.1223  1.9583
 2914TIP3    H230378   6.768   3.458   7.374  1.2794  0.0802  0.1405
 2915TIP3   OH230379   3.823   6.794   8.059  0.2235  0.1396 -0.6374
 2915TIP3    H130380   3.909   6.759   8.082 -0.0477  0.1439  0.4533
 2915TIP3    H230381   3.836   6.889   8.056 -0.0795  0.2817  1.2095
 2916TIP3   OH230382   1.957   4.831   0.487  0.4099  0.0165  0.4127
 2916TIP3    H130383   1.993   4.759   0.436 -0.3998 -0.0209 -0.1274
 2916TIP3    H230384   1.881   4.793   0.532 -0.3412  0.6415 -0.2891
 2917TIP3   OH230385   5.916   5.607   1.351 -0.3578 -0.0867 -0.0223
 2917TIP3    H130386   5.974   5.546   1.305  0.6112  0.8637 -0.0935
 2917TIP3    H230387   5.939   5.598   1.443  0.1714  0.5417 -0.0838
 2918TIP3   OH230388   6.756   1.625   1.336 -0.5880 -0.5603  0.5654
 2918TIP3    H130389   6.715   1.710   1.353 -0.1248 -0.2560  0.1851
 2918TIP3    H230390   6.761   1.620   1.241 -0.3572 -0.8946  0.5946
 2919TIP3   OH230391   1.266   0.295   0.882 -0.6372 -0.3036 -0.1104
 2919TIP3    H130392   1.198   0.361   0.868  0.1864  0.4097 -0.8354
 2919TIP3    H230393   1.295   0.271   0.794  0.8716  0.2585  0.2072
 2920TIP3   OH230394   2.397   1.168   1.069  0.0352  0.1361 -0.1315
 2920TIP3    H130395   2.357   1.126   1.145  0.9179 -1.7126 -0.6257
 2920TIP3    H230396   2.488   1.182   1.095  0.8100 -2.1157 -1.3686
 2921TIP3   OH230397   0.359   6.767   0.802 -0.2294  0.0766 -0.3358
 2921TIP3    H130398   0.388   6.827   0.733 -2.3507  2.4101  0.6666
 2921TIP3    H230399   0.280   6.726   0.767  0.4722 -1.1806 -0.4943
 2922TIP3   OH230400   2.828   4.598   0.913 -0.3042  0.1361  0.0128
 2922TIP3    H130401   2.827   4.666   0.846 -1.0495 -0.0129 -0.1329
 2922TIP3    H230402   2.855   4.644   0.993  0.7799  0.2754 -0.4143
 2923TIP3   OH230403   0.101   1.829   8.048 -0.5033 -0.4140  0.3285
 2923TIP3    H130404   0.164   1.857   7.982 -0.5834 -0.9062  0.0420
 2923TIP3    H230405   0.039   1.902   8.054 -0.0218 -0.0105  0.4742
 2924TIP3   OH230406   0.192   5.971   1.320  0.2315 -0.4867 -0.0021
 2924TIP3    H130407   0.214   5.937   1.406  1.7889 -1.4946 -0.7498
 2924TIP3    H230408   0.164   6.061   1.336 -0.4092 -0.9318  1.6254
 2925TIP3   OH230409   4.544   0.394   2.218 -0.6850 -0.1415 -0.2292
 2925TIP3    H130410   4.486   0.468   2.234 -0.0646  0.0200  1.4088
 2925TIP3    H230411   4.629   0.434   2.199 -0.6193 -0.4269 -0.5555
 2926TIP3   OH230412   2.883   3.532   0.757  1.0961 -0.0082  0.4473
 2926TIP3    H130413   2.850   3.493   0.838 -0.0830  0.6104  0.2952
 2926TIP3    H230414   2.889   3.626   0.776 -2.2780  0.6759 -1.0542
 2927TIP3   OH230415   6.544   6.548   0.547  0.5036 -0.3468  0.1946
 2927TIP3    H130416   6.522   6.496   0.624  1.7805 -0.4955  0.4749
 2927TIP3    H230417   6.580   6.630   0.582 -2.5451  1.3328 -0.2016
 2928TIP3   OH230418   0.934   2.904   0.496  0.7280  0.1804  0.3639
 2928TIP3    H130419   0.856   2.886   0.444  0.0132  3.3646  0.1469
 2928TIP3    H230420   0.909   2.881   0.586  0.7214 -1.8639 -0.1209
 2929TIP3   OH230421   4.234   1.814   2.532  0.0752  0.0923 -0.0704
 2929TIP3    H130422   4.289   1.750   2.577 -2.2049 -1.8178  0.2405
 2929TIP3    H230423   4.147   1.772   2.529 -0.6245  1.4717 -3.4530
 2930TIP3   OH230424   4.433   3.867   7.299  0.7385 -0.4733  0.1020
 2930TIP3    H130425   4.502   3.874   7.365 -1.0231 -3.2726  2.5095
 2930TIP3    H230426   4.448   3.782   7.258 -1.6111 -1.5323  1.2541
 2931TIP3   OH230427   4.852   0.620   1.128  0.3114  0.3212  0.3549
 2931TIP3    H130428   4.898   0.559   1.070 -1.4185  0.2923 -1.1043
 2931TIP3    H230429   4.921   0.667   1.174  1.7228 -1.6972  0.4329
 2932TIP3   OH230430   5.493   5.493   6.444 -0.7786 -0.3255 -0.2057
 2932TIP3    H130431   5.422   5.429   6.440  0.0702 -1.2667 -0.9465
 2932TIP3    H230432   5.462   5.560   6.504 -2.0132 -1.0492  0.0014
 2933TIP3   OH230433   0.888   5.148   2.154 -0.5898 -0.2716 -0.8066
 2933TIP3    H130434   0.804   5.101   2.148 -0.3023 -0.9993  0.3869
 2933TIP3    H230435   0.871   5.233   2.114 -2.8808  0.8795  2.1976
 2934TIP3   OH230436   2.241   6.251   1.169  0.3115 -0.6498 -0.5769
 2934TIP3    H130437   2.241   6.169   1.119  0.9143 -1.1904  0.2878
 2934TIP3    H230438   2.302   6.236   1.241 -0.1844  0.2854  0.0623
 2935TIP3   OH230439   5.014   0.984   6.514  0.4107  0.6386  0.7417
 2935TIP3    H130440   5.037   0.934   6.592 -0.2443 -0.4166  0.2682
 2935TIP3    H230441   5.036   0.926   6.440  1.3507  1.7467  0.1082
 2936TIP3   OH230442   3.626   1.009   0.419 -0.8649 -0.4648  0.1598
 2936TIP3    H130443   3.558   0.956   0.461 -0.4651 -1.9035 -0.9189
 2936TIP3    H230444   3.601   1.011   0.327 -1.1423  1.7277  0.2464
 2937TIP3   OH230445   3.392   1.369   0.865 -0.4061 -0.2224 -0.0879
 2937TIP3    H130446   3.357   1.447   0.823 -2.1315  0.3005  2.0863
 2937TIP3    H230447   3.371   1.297   0.805 -2.3968  0.5137 -0.3391
 2938TIP3   OH230448   4.033   1.307   1.443 -0.5287 -0.3470 -0.0973
 2938TIP3    H130449   3.967   1.367   1.408 -0.9722 -0.9241 -0.2546
 2938TIP3    H230450   4.022   1.227   1.393  0.3405 -0.4341 -0.1697
 2939TIP3   OH230451   4.258   2.293   2.433  0.0808 -0.6232 -0.0461
 2939TIP3    H130452   4.236   2.234   2.506 -0.8026 -0.2022  0.0361
 2939TIP3    H230453   4.217   2.376   2.457  1.2875  0.0319 -0.1765
 2940TIP3   OH230454   6.650   2.639   8.177 -0.3444 -0.5107  0.3778
 2940TIP3    H130455   6.721   2.595   8.224 -1.8906 -3.1596  0.4668
 2940TIP3    H230456   6.633   2.583   8.101 -2.1173  0.2014  0.2030
 2941TIP3   OH230457   1.217   0.827   1.102  0.7040 -0.3384  0.2456
 2941TIP3    H130458   1.122   0.834   1.099  0.7509 -0.0315 -1.1091
 2941TIP3    H230459   1.242   0.789   1.018  1.7501 -0.9125  0.7917
 2942TIP3   OH230460   1.399   2.523   0.205 -0.3351 -0.1585 -0.2652
 2942TIP3    H130461   1.347   2.603   0.198  0.3170  0.2034 -1.2336
 2942TIP3    H230462   1.379   2.474   0.126  1.3395  0.3485 -1.0475
 2943TIP3   OH230463   0.898   2.302   0.588  0.1504  0.5539 -0.1280
 2943TIP3    H130464   0.963   2.335   0.526  2.2216 -2.0492  0.4991
 2943TIP3    H230465   0.832   2.372   0.592  2.8780  3.4291 -0.7530
 2944TIP3   OH230466   1.018   2.323   8.340  0.0295 -0.2961  0.2487
 2944TIP3    H130467   1.051   2.394   8.394 -2.0139 -0.1975  1.4296
 2944TIP3    H230468   0.929   2.307   8.371  0.4720 -3.5610  0.2280
 2945TIP3   OH230469   2.478   0.743   8.067  0.1363 -0.5243 -0.7056
 2945TIP3    H130470   2.531   0.773   7.994  0.8537 -0.9057 -0.3459
 2945TIP3    H230471   2.471   0.649   8.055  1.9153 -0.8890  0.7673
 2946TIP3   OH230472   1.626   2.315   0.578  0.4473 -0.0473  0.4319
 2946TIP3    H130473   1.598   2.258   0.650  1.0535 -0.9525 -0.0258
 2946TIP3    H230474   1.711   2.280   0.551 -1.1457 -1.9270 -2.8944
 2947TIP3   OH230475   1.246   3.409   2.759  0.5501 -0.0374 -0.0362
 2947TIP3    H130476   1.193   3.336   2.727  1.4153 -0.1720 -1.2222
 2947TIP3    H230477   1.220   3.483   2.704  1.8808 -0.2121 -0.9455
 2948TIP3   OH230478   1.742   6.090   8.062  0.5523  0.4208 -0.5397
 2948TIP3    H130479   1.690   6.131   8.131 -0.1485 -0.8997 -0.2373
 2948TIP3    H230480   1.799   6.029   8.109  1.3791  0.8285 -0.9909
 2949TIP3   OH230481   5.925   1.137   0.377  0.4277  0.2205  0.2296
 2949TIP3    H130482   5.964   1.141   0.290 -0.4647 -1.0596 -0.2619
 2949TIP3    H230483   5.947   1.050   0.410 -1.3643 -0.2904  0.2140
 2950TIP3   OH230484   1.028   2.724   1.729  0.7728 -0.0906 -0.5667
 2950TIP3    H130485   1.096   2.710   1.663  2.6386  1.5517  0.8945
 2950TIP3    H230486   1.064   2.790   1.788 -1.0978 -0.9453  1.7115
 2951TIP3   OH230487   0.491   3.416   7.364 -0.6391  0.2267  0.1420
 2951TIP3    H130488   0.489   3.345   7.299 -0.8341  0.4552 -0.1070
 2951TIP3    H230489   0.432   3.387   7.433 -1.6602  0.6778 -0.5293
 2952TIP3   OH230490   3.071   2.505   0.352 -0.0728  0.2742 -0.0844
 2952TIP3    H130491   3.043   2.440   0.417  1.2589 -0.6403 -0.4071
 2952TIP3    H230492   2.997   2.510   0.291 -0.6678 -0.0606  0.5791
 2953TIP3   OH230493   1.594   1.291   6.711 -0.3873 -0.4121  0.2955
 2953TIP3    H130494   1.673   1.344   6.717  0.9118 -2.1708 -0.3586
 2953TIP3    H230495   1.548   1.323   6.633  1.6618 -1.8012 -1.5946
 2954TIP3   OH230496   5.568   5.853   7.403  0.3811  0.1289  0.1865
 2954TIP3    H130497   5.553   5.761   7.382 -0.2833  0.0362  1.0046
 2954TIP3    H230498   5.646   5.877   7.352  0.0225 -0.6186 -0.7543
 2955TIP3   OH230499   1.029   3.791   7.242  0.4855  0.5710  0.2400
 2955TIP3    H130500   1.092   3.725   7.212 -0.1045  0.7198 -1.4280
 2955TIP3    H230501   1.076   3.839   7.309  1.0872 -1.2398  1.1783
 2956TIP3   OH230502   4.142   3.726   2.337 -0.5202 -0.8744 -0.7577
 2956TIP3    H130503   4.193   3.769   2.267  0.0026 -0.5818 -0.2148
 2956TIP3    H230504   4.208   3.684   2.391 -0.9633 -1.5098 -0.7088
 2957TIP3   OH230505   4.270   4.937   1.471 -0.1947 -0.2798 -0.2279
 2957TIP3    H130506   4.183   4.956   1.438  0.1104  0.7548 -0.4768
 2957TIP3    H230507   4.303   5.021   1.502  0.9015 -0.5538 -0.5970
 2958TIP3   OH230508   5.236   4.196   0.765  0.0502  0.6954 -0.3277
 2958TIP3    H130509   5.241   4.126   0.700 -0.9183  0.9944 -0.7419
 2958TIP3    H230510   5.290   4.166   0.837  2.6849  1.1406 -1.9719
 2959TIP3   OH230511   5.008   2.557   1.377  0.1275  0.2750  0.4497
 2959TIP3    H130512   5.100   2.547   1.353 -0.1209 -0.1189 -0.3626
 2959TIP3    H230513   4.961   2.548   1.294 -0.4569  3.7800  0.2653
 2960TIP3   OH230514   5.135   3.484   8.449  0.1540  0.5593  0.0552
 2960TIP3    H130515   5.143   3.389   8.447  0.1777  0.5642 -0.1466
 2960TIP3    H230516   5.043   3.500   8.471  0.4209  0.4981  1.3048
 2961TIP3   OH230517   2.190   4.691   7.107 -0.4958 -0.6874 -0.0295
 2961TIP3    H130518   2.238   4.629   7.051  0.0226  0.2800 -0.6871
 2961TIP3    H230519   2.198   4.775   7.062 -2.9161 -0.4871 -0.2204
 2962TIP3   OH230520   1.731   6.710   2.223  0.1252  0.2543 -0.2940
 2962TIP3    H130521   1.792   6.770   2.266  0.6034  1.0784 -2.0413
 2962TIP3    H230522   1.736   6.733   2.130 -2.2379 -0.2317 -0.5907
 2963TIP3   OH230523   3.313   5.705   8.294  0.5851  0.5094  0.1822
 2963TIP3    H130524   3.263   5.740   8.368  1.2057  0.4113  0.6579
 2963TIP3    H230525   3.316   5.778   8.232 -0.8212  0.2609 -0.2130
 2964TIP3   OH230526   6.451   5.803   1.034 -0.0315  0.6154 -0.9495
 2964TIP3    H130527   6.452   5.743   0.959 -0.4383 -0.9364  0.2285
 2964TIP3    H230528   6.358   5.822   1.048 -0.0537  0.0243 -0.2030
 2965TIP3   OH230529   0.267   6.007   1.858  0.4771  0.1259  0.1908
 2965TIP3    H130530   0.230   5.940   1.916  1.2685 -1.0219 -0.5873
 2965TIP3    H230531   0.351   6.030   1.899 -0.1492  1.2613  0.8862
 2966TIP3   OH230532   3.914   3.506   1.518 -0.3751  1.0043  0.1220
 2966TIP3    H130533   3.841   3.477   1.464  0.0197 -0.0499  0.1328
 2966TIP3    H230534   3.988   3.512   1.457 -0.5155  2.3281  0.0553
 2967TIP3   OH230535   1.024   3.310   7.853 -0.1411  0.1101 -0.0429
 2967TIP3    H130536   1.037   3.404   7.864  2.5351  0.0530 -1.7303
 2967TIP3    H230537   1.096   3.270   7.902 -1.4706 -1.1432  0.9923
 2968TIP3   OH230538   4.793   1.474   1.677  0.2740 -0.4562  0.1993
 2968TIP3    H130539   4.812   1.518   1.594  0.4997  0.1133  0.5432
 2968TIP3    H230540   4.767   1.545   1.736 -3.5856 -1.2029 -0.3782
 2969TIP3   OH230541   2.316   3.460   8.766  0.4582 -0.2547 -0.1004
 2969TIP3    H130542   2.363   3.399   8.823  1.2681  2.2784  2.1717
 2969TIP3    H230543   2.323   3.421   8.679  0.1602 -3.7609  1.2784
 2970TIP3   OH230544   1.773   1.309   1.267  0.8937 -0.2993  0.3742
 2970TIP3    H130545   1.727   1.389   1.288  0.5557  0.7581 -3.5066
 2970TIP3    H230546   1.713   1.261   1.209  1.4286 -3.0355  1.8777
 2971TIP3   OH230547   1.172   6.613   2.043 -0.3417  1.1901  0.2161
 2971TIP3    H130548   1.226   6.540   2.073 -0.3416  1.3060  0.5011
 2971TIP3    H230549   1.134   6.649   2.123 -1.9644  0.2302 -0.0760
 2972TIP3   OH230550   3.851   6.121   2.025  1.0455  0.7991  0.0955
 2972TIP3    H130551   3.912   6.077   2.084 -0.7415 -0.2797  1.2542
 2972TIP3    H230552   3.767   6.117   2.072 -0.0453  1.6417 -1.7047
 2973TIP3   OH230553   0.734   6.175   1.162 -0.2903 -0.1035 -0.1323
 2973TIP3    H130554   0.760   6.238   1.094 -2.5691 -0.8005 -1.8016
 2973TIP3    H230555   0.694   6.228   1.230 -0.8237  0.4217 -0.8322
 2974TIP3   OH230556   3.798   3.260   7.018  0.5215  0.4240 -0.3794
 2974TIP3    H130557   3.849   3.207   6.957  1.3908 -0.0579  0.7424
 2974TIP3    H230558   3.727   3.203   7.047  0.9296  0.1796  0.1374
 2975TIP3   OH230559   6.680   1.892   7.792  0.0628 -0.1811 -0.4944
 2975TIP3    H130560   6.609   1.856   7.846 -0.3398  0.7173 -0.4089
 2975TIP3    H230561   6.717   1.962   7.845  0.2348  0.1327 -1.0239
 2976TIP3   OH230562   4.789   4.261   6.729  0.2234  0.1436  0.1300
 2976TIP3    H130563   4.870   4.291   6.687  0.2938 -1.8603 -1.3181
 2976TIP3    H230564   4.803   4.168   6.743 -1.3832  0.0013  0.9985
 2977TIP3   OH230565   2.782   1.611   8.318 -0.3889 -0.2180  0.3820
 2977TIP3    H130566   2.769   1.622   8.224  1.1621 -0.3650  0.1117
 2977TIP3    H230567   2.833   1.530   8.325  0.2794  0.2571  1.2614
 2978TIP3   OH230568   2.173   4.512   8.849  0.0787 -0.7137 -0.0477
 2978TIP3    H130569   2.217   4.567   8.785 -0.8656 -0.9102 -0.8777
 2978TIP3    H230570   2.199   4.423   8.827  2.7295 -0.6113  2.1355
 2979TIP3   OH230571   5.513   3.836   1.576  0.1720  0.0592 -0.0655
 2979TIP3    H130572   5.447   3.823   1.644 -0.9769 -1.5823 -1.4038
 2979TIP3    H230573   5.468   3.885   1.507  0.2429 -1.2786 -1.0988
 2980TIP3   OH230574   3.653   3.503   0.610  0.0986  0.4588 -0.4132
 2980TIP3    H130575   3.604   3.477   0.532  0.4568 -0.6099 -0.2917
 2980TIP3    H230576   3.664   3.597   0.600 -1.5344  0.6546 -0.6958
 2981TIP3   OH230577   1.679   5.628   8.375 -0.0632  0.4426 -0.6783
 2981TIP3    H130578   1.658   5.719   8.398 -0.1288  0.2651 -0.0238
 2981TIP3    H230579   1.752   5.605   8.433  1.3011  0.7210 -2.2196
 2982TIP3   OH230580   2.565   5.635   7.035 -0.5608  0.6368 -0.3657
 2982TIP3    H130581   2.596   5.604   7.120  0.3156  0.5389 -0.7114
 2982TIP3    H230582   2.510   5.564   7.002  0.4204 -0.0353 -0.5955
 2983TIP3   OH230583   5.575   1.769   0.692  0.2171  0.4851  0.2514
 2983TIP3    H130584   5.598   1.721   0.772  0.0915  1.4130  0.8700
 2983TIP3    H230585   5.547   1.702   0.630  1.2932 -0.3474  0.6436
 2984TIP3   OH230586   2.333   2.315   0.268  0.0909  0.7301 -0.2420
 2984TIP3    H130587   2.401   2.294   0.204  1.2477  1.0596  0.8275
 2984TIP3    H230588   2.334   2.240   0.328  0.1145  1.1208  0.2536
 2985TIP3   OH230589   1.959   5.155   7.653 -0.3975 -0.0637 -0.0732
 2985TIP3    H130590   2.009   5.077   7.628 -1.5546 -1.0377  0.5160
 2985TIP3    H230591   1.870   5.135   7.624 -0.3945  1.8443 -1.5703
 2986TIP3   OH230592   4.352   0.247   7.901  0.4107 -0.2131 -0.8928
 2986TIP3    H130593   4.339   0.156   7.927 -0.5254  0.2234  0.2892
 2986TIP3    H230594   4.414   0.243   7.828 -0.7300 -1.9100 -1.8549
 2987TIP3   OH230595   3.851   4.337   2.621 -0.2712  0.4254 -0.4378
 2987TIP3    H130596   3.840   4.318   2.527 -1.2039  1.5422 -0.5773
 2987TIP3    H230597   3.763   4.328   2.657  0.1105 -0.1486  0.3807
 2988TIP3   OH230598   6.544   0.432   8.413 -0.2826  0.6176  0.4500
 2988TIP3    H130599   6.459   0.412   8.453 -0.4269 -1.3849 -0.6918
 2988TIP3    H230600   6.525   0.498   8.346 -0.8553  0.5671  0.5608
 2989TIP3   OH230601   2.046   1.014   8.834  0.6477  0.0400 -0.0368
 2989TIP3    H130602   1.995   1.019   8.915  2.5863  0.3941  1.2293
 2989TIP3    H230603   2.031   0.925   8.801 -2.3193  0.7224 -0.8549
 2990TIP3   OH230604   4.261   5.782   2.262 -0.0860 -0.2048 -0.1381
 2990TIP3    H130605   4.182   5.729   2.251  0.4421 -1.2230  0.7269
 2990TIP3    H230606   4.277   5.820   2.176  0.2070 -2.5071 -1.1937
 2991TIP3   OH230607   4.133   6.106   7.326 -0.1843 -0.0367 -0.5834
 2991TIP3    H130608   4.076   6.098   7.249  0.0926 -0.3732 -0.7570
 2991TIP3    H230609   4.094   6.176   7.377  0.1573  0.8302 -1.4837
 2992TIP3   OH230610   2.527   6.052   8.497  0.1694 -0.0340  0.2327
 2992TIP3    H130611   2.613   6.067   8.459  0.0986  0.0862  0.1139
 2992TIP3    H230612   2.542   6.046   8.591  0.3486 -0.3435  0.1846
 2993TIP3   OH230613   4.051   5.320   6.983 -0.5811  0.0155  0.1134
 2993TIP3    H130614   4.037   5.300   6.890 -2.4549 -0.6182  0.4786
 2993TIP3    H230615   4.146   5.315   6.995 -0.4201 -1.6265 -1.4087
 2994TIP3   OH230616   4.382   2.242   8.627 -0.3033  0.7507  0.1596
 2994TIP3    H130617   4.415   2.162   8.588 -1.2093  1.5940 -2.5247
 2994TIP3    H230618   4.303   2.214   8.675  0.3137 -0.1695  0.6666
 2995TIP3   OH230619   2.566   5.638   7.646 -0.4572  1.0712 -0.2845
 2995TIP3    H130620   2.618   5.690   7.585  0.7186 -2.2785 -2.4236
 2995TIP3    H230621   2.476   5.648   7.615  0.1285 -0.6161 -2.7693
 2996TIP3   OH230622   5.068   1.511   8.343  0.3867 -0.1346  0.4437
 2996TIP3    H130623   5.046   1.491   8.253 -0.0090 -0.7305  0.6725
 2996TIP3    H230624   5.142   1.572   8.336  0.1691  0.0605 -0.2784
 2997TIP3   OH230625   2.743   2.250   0.433 -0.1681 -0.3393  0.4900
 2997TIP3    H130626   2.752   2.344   0.414  0.5897 -0.4051  0.5024
 2997TIP3    H230627   2.739   2.245   0.528 -3.2222 -0.0766  0.4795
 2998TIP3   OH230628   0.145   4.728   7.693  0.3266  0.1478  0.3522
 2998TIP3    H130629   0.238   4.746   7.679  0.2448  1.4524  1.2768
 2998TIP3    H230630   0.127   4.763   7.780 -1.0846  0.0746  0.1118
 2999TIP3   OH230631   5.236   1.721   6.409  0.3353 -0.4703 -0.1543
 2999TIP3    H130632   5.183   1.801   6.403 -0.1444 -0.4222  3.0304
 2999TIP3    H230633   5.266   1.705   6.320  0.0065  2.9596 -1.0059
 3000TIP3   OH230634   1.287   6.187   0.097  0.9753 -0.3546 -0.0663
 3000TIP3    H130635   1.293   6.213   0.189  0.0018  0.6351 -0.2624
 3000TIP3    H230636   1.324   6.261   0.049 -1.2017  0.4728 -0.5991
 3001TIP3   OH230637   5.610   2.350   0.491 -0.2067 -0.1803 -0.1561
 3001TIP3    H130638   5.576   2.297   0.562  0.3735 -1.2108 -0.6380
 3001TIP3    H230639   5.697   2.378   0.520  0.5212 -1.5723 -0.9164
 3002TIP3   OH230640   6.407   1.040   2.103 -0.3457  0.2372  0.8105
 3002TIP3    H130641   6.387   0.958   2.058 -0.4713  0.7997 -0.1900
 3002TIP3    H230642   6.392   1.021   2.196  0.0100 -0.9732  0.6317
 3003TIP3   OH230643   0.168   2.271   6.458 -0.4951  0.1256 -0.4954
 3003TIP3    H130644   0.166   2.176   6.458 -0.1757  0.1007  0.5075
 3003TIP3    H230645   0.255   2.293   6.491 -0.5882  0.7611 -0.6558
 3004TIP3   OH230646   4.470   4.932   7.034 -0.4566 -0.5155  0.5842
 3004TIP3    H130647   4.504   4.861   6.980  0.1100 -0.2113  0.5264
 3004TIP3    H230648   4.506   5.012   6.994  1.5212 -0.3770  2.4259
 3005TIP3   OH230649   6.340   0.749   2.249  0.2341  0.5646 -0.9279
 3005TIP3    H130650   6.252   0.786   2.250  0.5314  1.2997 -0.6099
 3005TIP3    H230651   6.356   0.723   2.340  0.1898  0.0488 -1.0676
 3006TIP3   OH230652   3.218   2.397   7.139  0.1777 -0.0812  0.6820
 3006TIP3    H130653   3.267   2.331   7.091 -0.1035  0.4158 -0.3307
 3006TIP3    H230654   3.151   2.427   7.077  0.2902  1.1387  1.1133
 3007TIP3   OH230655   1.941   5.904   8.835 -0.3106  0.3585 -0.0869
 3007TIP3    H130656   1.977   5.916   8.747  0.6190 -1.1164  0.0798
 3007TIP3    H230657   1.983   5.972   8.888  0.3161  0.2389 -0.4335
 3008TIP3   OH230658   6.531   6.228   8.821 -0.6621  0.5407 -0.3072
 3008TIP3    H130659   6.460   6.224   8.756 -0.4564 -1.3903 -0.4637
 3008TIP3    H230660   6.607   6.190   8.777 -0.0025  0.9415  0.4548
 3009TIP3   OH230661   4.196   3.065   7.846 -0.1466 -0.2865 -0.0357
 3009TIP3    H130662   4.183   2.971   7.835 -0.6213 -0.2027 -0.2061
 3009TIP3    H230663   4.195   3.078   7.940 -0.3644 -0.4116 -0.0200
 3010TIP3   OH230664   1.849   1.533   2.133  0.0597 -0.1472 -0.6209
 3010TIP3    H130665   1.841   1.502   2.043 -1.1749  0.5385 -0.7690
 3010TIP3    H230666   1.780   1.488   2.181  0.5300 -0.2965 -0.0757
 3011TIP3   OH230667   2.368   5.825   8.819  0.0248 -0.4650  0.6145
 3011TIP3    H130668   2.345   5.828   8.726 -0.7635 -2.5585  0.6884
 3011TIP3    H230669   2.343   5.911   8.853 -1.4855 -0.3384 -0.7309
 3012TIP3   OH230670   3.869   0.998   6.278 -0.1590  0.3120  0.5275
 3012TIP3    H130671   3.843   1.006   6.370  1.2170 -0.1258  0.9695
 3012TIP3    H230672   3.842   0.909   6.254  1.0774 -0.2332  1.0604
 3013TIP3   OH230673   5.071   0.798   6.708 -0.1772  0.5379 -0.0169
 3013TIP3    H130674   5.026   0.727   6.755  1.1732 -0.3333  0.0185
 3013TIP3    H230675   5.115   0.848   6.776 -0.0800  0.6346 -0.1506
 3014TIP3   OH230676   3.752   3.281   8.839  0.3587 -0.3347  0.1724
 3014TIP3    H130677   3.678   3.226   8.813 -0.1245 -0.7191  2.2239
 3014TIP3    H230678   3.822   3.256   8.779 -1.4261  0.8192 -2.5605
 3015TIP3   OH230679   0.261   4.457   2.205  0.1360  0.1635 -0.0777
 3015TIP3    H130680   0.318   4.380   2.195  0.6259  0.7760 -2.4595
 3015TIP3    H230681   0.261   4.474   2.300 -1.0903 -3.5258  0.7554
 3016TIP3   OH230682   0.306   4.123   6.952 -0.1608  0.2515  0.0165
 3016TIP3    H130683   0.378   4.155   6.898  0.8580 -1.1078  0.5266
 3016TIP3    H230684   0.322   4.161   7.038  0.3122 -0.5552  0.2899
 3017TIP3   OH230685   3.601   2.259   7.162 -0.0073 -0.1741 -1.1880
 3017TIP3    H130686   3.690   2.262   7.197  0.2336 -2.8458 -1.3624
 3017TIP3    H230687   3.612   2.261   7.067 -0.0650 -0.9129 -1.2203
 3018TIP3   OH230688   6.097   1.307   1.453 -0.2205 -0.0446 -0.2109
 3018TIP3    H130689   6.114   1.326   1.545  0.5059  0.8736 -0.5211
 3018TIP3    H230690   6.008   1.272   1.451 -1.8619  3.6293  0.4206
 3019TIP3   OH230691   5.038   6.460   8.118 -0.1927 -0.5431  0.4453
 3019TIP3    H130692   5.130   6.475   8.100  0.0606 -0.9137  1.3770
 3019TIP3    H230693   5.033   6.368   8.147 -0.7916 -0.4281  0.7396
 3020TIP3   OH230694   0.794   1.687   1.603  0.3155 -0.7243 -0.0754
 3020TIP3    H130695   0.711   1.733   1.615  1.6308  1.9682 -0.3955
 3020TIP3    H230696   0.800   1.629   1.679 -1.4671 -0.3957  0.3753
 3021TIP3   OH230697   1.405   0.556   0.506  0.3908  0.2438  0.3365
 3021TIP3    H130698   1.431   0.524   0.420 -2.7250 -2.2480  0.1573
 3021TIP3    H230699   1.462   0.508   0.567  0.4550 -0.4329 -0.2403
 3022TIP3   OH230700   1.460   3.342   8.189 -0.6258 -0.0658 -0.9731
 3022TIP3    H130701   1.370   3.314   8.173 -0.8386 -1.0252  1.4958
 3022TIP3    H230702   1.496   3.276   8.247  0.8417  1.6574  0.1871
 3023TIP3   OH230703   1.658   1.682   8.095  0.0623 -0.8484  0.3225
 3023TIP3    H130704   1.749   1.708   8.103  0.2774 -0.8686 -1.6199
 3023TIP3    H230705   1.660   1.605   8.038 -1.0392 -1.9271  1.6469
 3024TIP3   OH230706   6.472   4.959   1.385  0.2491 -0.4844 -0.1608
 3024TIP3    H130707   6.561   4.993   1.391  0.5463 -1.2243 -0.2223
 3024TIP3    H230708   6.419   5.021   1.436  0.7782  0.0135 -0.2022
 3025TIP3   OH230709   6.246   2.018   7.916 -0.6617 -0.1330  0.2871
 3025TIP3    H130710   6.265   2.092   7.858 -0.7459  0.6630  1.2447
 3025TIP3    H230711   6.187   1.962   7.865 -0.2606  0.2437 -0.6069
 3026TIP3   OH230712   2.339   2.711   2.096 -0.0783 -0.4911  0.4327
 3026TIP3    H130713   2.380   2.726   2.181  0.7040 -0.3816  0.0421
 3026TIP3    H230714   2.261   2.767   2.097 -0.1892 -0.6447  1.1518
 3027TIP3   OH230715   5.584   6.091   1.525 -0.1895  0.4378 -0.0250
 3027TIP3    H130716   5.655   6.034   1.556 -0.5281 -1.4205 -2.3704
 3027TIP3    H230717   5.531   6.107   1.603 -0.4500 -3.1020  0.6936
 3028TIP3   OH230718   6.691   5.149   8.311  0.2460  0.1070 -0.5864
 3028TIP3    H130719   6.636   5.080   8.346  1.6838 -1.1648 -0.7043
 3028TIP3    H230720   6.634   5.226   8.305 -0.7773 -0.3871  1.8290
 3029TIP3   OH230721   3.943   2.609   0.709 -0.0899  0.0485 -0.4289
 3029TIP3    H130722   3.895   2.543   0.759 -1.0416 -0.2473 -1.6767
 3029TIP3    H230723   4.034   2.599   0.737 -0.1813 -1.8879 -0.6481
 3030TIP3   OH230724   3.990   5.996   6.840 -0.0482 -0.1684  0.4152
 3030TIP3    H130725   4.055   5.926   6.833 -0.5420 -0.9058  2.3922
 3030TIP3    H230726   3.962   6.013   6.750  0.9438 -1.7016 -0.2146
 3031TIP3   OH230727   6.147   6.148   1.805  0.3762  0.4473 -0.6152
 3031TIP3    H130728   6.130   6.242   1.802  2.2803  0.9269  1.2322
 3031TIP3    H230729   6.220   6.138   1.866 -1.0652 -2.4047  0.8911
 3032TIP3   OH230730   5.963   6.328   2.079  0.3771 -0.1404 -0.4298
 3032TIP3    H130731   6.018   6.252   2.100 -0.0213 -0.2541  0.2085
 3032TIP3    H230732   5.925   6.355   2.162  2.6564  2.4993 -0.1059
 3033TIP3   OH230733   0.247   2.469   1.025  0.5451  0.3209 -0.4539
 3033TIP3    H130734   0.272   2.512   0.944  0.5549  0.3654 -0.4276
 3033TIP3    H230735   0.284   2.524   1.094  1.2819 -0.1817 -0.4354
 3034TIP3   OH230736   1.632   1.428   0.085 -0.1323 -0.1592  0.8137
 3034TIP3    H130737   1.548   1.471   0.068  0.3479  0.9226  1.1454
 3034TIP3    H230738   1.686   1.495   0.125  1.0858 -0.6852  0.1002
 3035TIP3   OH230739   5.136   3.290   0.275 -0.4532 -0.2707  0.1529
 3035TIP3    H130740   5.213   3.243   0.306  0.2587  0.2654 -0.7563
 3035TIP3    H230741   5.070   3.277   0.343  0.7594  0.1104  1.4356
 3036TIP3   OH230742   1.723   3.231   8.029 -0.0032 -0.2321  0.0469
 3036TIP3    H130743   1.629   3.250   8.022  0.0157  0.5071  1.5091
 3036TIP3    H230744   1.756   3.244   7.940 -1.1442  0.2622 -0.3289
 3037TIP3   OH230745   4.544   0.419   2.654  0.5270 -0.1891 -0.4797
 3037TIP3    H130746   4.574   0.409   2.564  0.9640 -1.5077 -0.2106
 3037TIP3    H230747   4.486   0.344   2.669  0.9172 -0.3077  0.5171
 3038TIP3   OH230748   5.737   2.836   2.729  0.0134  0.4768 -0.4761
 3038TIP3    H130749   5.675   2.895   2.773 -0.0297 -0.2784  0.5132
 3038TIP3    H230750   5.814   2.891   2.715 -0.1412  0.8755  0.1503
 3039TIP3   OH230751   2.857   6.615   1.968 -0.0783  0.8794 -0.5511
 3039TIP3    H130752   2.866   6.662   1.885  1.1964  1.9118  0.1193
 3039TIP3    H230753   2.902   6.671   2.031  2.1418 -1.5588  0.1839
 3040TIP3   OH230754   2.250   3.284   1.799  0.6442 -0.0506 -0.0822
 3040TIP3    H130755   2.231   3.230   1.876 -3.1116  0.5137 -0.3919
 3040TIP3    H230756   2.325   3.242   1.757  0.7732 -2.2423  2.1508
 3041TIP3   OH230757   4.879   0.196   0.564 -1.0375 -0.0753  0.6225
 3041TIP3    H130758   4.794   0.222   0.530 -0.7815  0.4786  0.4056
 3041TIP3    H230759   4.910   0.272   0.614  1.1832  1.4208 -2.6677
 3042TIP3   OH230760   6.762   2.481   7.450 -0.0772  0.0415  0.0021
 3042TIP3    H130761   6.777   2.571   7.478  1.9997 -0.4498  0.5965
 3042TIP3    H230762   6.683   2.486   7.395 -1.6042  1.7574  2.1700
 3043TIP3   OH230763   3.391   4.289   7.956  0.0691 -0.3788  0.1074
 3043TIP3    H130764   3.475   4.253   7.926  0.6976  1.9627 -1.2211
 3043TIP3    H230765   3.416   4.361   8.015 -0.8803  1.2728 -1.4064
 3044TIP3   OH230766   2.152   6.639   8.461  0.1403  0.3113 -0.2331
 3044TIP3    H130767   2.121   6.626   8.371  0.7068  0.0778 -0.3988
 3044TIP3    H230768   2.247   6.643   8.453  0.5974 -4.1092  0.8454
 3045TIP3   OH230769   5.786   2.781   1.078  0.3220  0.2908 -0.3887
 3045TIP3    H130770   5.764   2.721   1.150  1.0527  1.6009  0.9851
 3045TIP3    H230771   5.865   2.826   1.108 -0.1368  1.8594 -1.4197
 3046TIP3   OH230772   3.894   6.476   7.997  0.2604  0.6146  0.1130
 3046TIP3    H130773   3.895   6.507   7.906 -2.6228 -0.3803 -0.3728
 3046TIP3    H230774   3.801   6.471   8.019  0.7820 -1.7504  2.1936
 3047TIP3   OH230775   4.860   2.525   8.170  0.2737  0.4356  0.1087
 3047TIP3    H130776   4.870   2.486   8.257  0.4569  0.9838  0.3353
 3047TIP3    H230777   4.937   2.580   8.159  0.5262 -0.0440 -0.6257
 3048TIP3   OH230778   6.515   5.374   8.289  0.2958 -0.1630  0.3741
 3048TIP3    H130779   6.422   5.352   8.289  0.2905 -0.2479 -1.3133
 3048TIP3    H230780   6.530   5.418   8.205  1.4998  1.1442  1.2186
 3049TIP3   OH230781   5.205   0.964   0.935 -0.1902 -0.6832 -0.1142
 3049TIP3    H130782   5.212   0.872   0.911 -2.8291 -1.0251  0.1415
 3049TIP3    H230783   5.190   1.010   0.852  3.3833 -0.0303 -0.5918
 3050TIP3   OH230784   1.642   2.402   8.634 -0.4241 -0.0994 -0.3944
 3050TIP3    H130785   1.606   2.477   8.682 -4.0101 -1.2700 -0.9724
 3050TIP3    H230786   1.692   2.354   8.699 -0.1387  1.4503  0.6024
 3051TIP3   OH230787   4.324   4.796   8.748 -0.2418  0.4450 -0.7245
 3051TIP3    H130788   4.268   4.824   8.676 -0.7233 -1.2937 -1.0854
 3051TIP3    H230789   4.282   4.716   8.782 -0.2964  1.4350  1.8079
 3052TIP3   OH230790   1.927   1.748   8.105 -0.0573 -0.3572  0.8910
 3052TIP3    H130791   1.990   1.710   8.044  2.8294  2.7833  1.6707
 3052TIP3    H230792   1.977   1.763   8.185 -1.8582  1.9188  1.6953
 3053TIP3   OH230793   2.999   0.387   0.063  0.1708 -0.0283  0.5116
 3053TIP3    H130794   2.957   0.335   0.131  0.2173  1.4693  1.7400
 3053TIP3    H230795   3.090   0.356   0.061 -0.4785 -1.9596 -0.8225
 3054TIP3   OH230796   1.183   4.422   7.604  0.2299 -0.1262  0.1058
 3054TIP3    H130797   1.233   4.406   7.524  3.6464 -0.2471  2.0364
 3054TIP3    H230798   1.184   4.338   7.650 -0.0393  0.3763  1.0619
 3055TIP3   OH230799   4.133   5.574   7.957 -0.4935  0.1718  0.6404
 3055TIP3    H130800   4.110   5.495   8.005 -1.5572 -1.3473 -2.1093
 3055TIP3    H230801   4.131   5.547   7.865  2.8245  2.4944 -0.3032
 3056TIP3   OH230802   3.938   5.042   8.841 -0.0928  0.3284 -0.5731
 3056TIP3    H130803   3.994   4.980   8.889 -0.0685 -0.9571 -2.1964
 3056TIP3    H230804   3.971   5.041   8.752 -2.2680  0.0398 -1.4425
 3057TIP3   OH230805   3.006   4.068   7.484 -0.7892 -0.3960 -0.3394
 3057TIP3    H130806   3.043   4.148   7.446  0.1088 -0.8370 -0.4150
 3057TIP3    H230807   2.956   4.028   7.412  1.9166 -1.8724 -1.5390
 3058TIP3   OH230808   2.602   4.763   6.686  0.3022 -0.1033  0.0565
 3058TIP3    H130809   2.589   4.817   6.764  0.0268  0.6119 -0.4757
 3058TIP3    H230810   2.576   4.675   6.714 -1.6452  0.4773  0.2542
 3059TIP3   OH230811   6.159   3.046   1.432 -0.1910  0.0164  0.1050
 3059TIP3    H130812   6.230   3.100   1.468 -1.6625  1.4716  0.9406
 3059TIP3    H230813   6.197   2.958   1.426  1.1116  0.3619  2.2696
 3060TIP3   OH230814   0.779   1.827   8.139  0.6078  0.1341 -0.5662
 3060TIP3    H130815   0.801   1.913   8.175  0.8481 -1.0420  2.3616
 3060TIP3    H230816   0.863   1.790   8.111  0.7018  0.3046 -0.5074
 3061TIP3   OH230817   4.131   3.353   8.379 -0.2345  0.0315  0.2845
 3061TIP3    H130818   4.179   3.434   8.391 -2.0052  1.2405 -0.3720
 3061TIP3    H230819   4.129   3.339   8.284 -0.5722 -0.3726  0.3443
 3062TIP3   OH230820   4.106   0.165   8.608 -0.0649  0.1762 -0.1715
 3062TIP3    H130821   4.057   0.086   8.586  0.7265 -0.5681  0.6298
 3062TIP3    H230822   4.065   0.234   8.557 -0.8487 -0.7329 -0.8070
 3063TIP3   OH230823   1.414   3.603   7.807 -0.0415 -0.6880 -0.3664
 3063TIP3    H130824   1.490   3.547   7.796 -1.0305 -2.3954  1.0009
 3063TIP3    H230825   1.390   3.594   7.899 -1.5282  0.2970 -0.6157
 3064TIP3   OH230826   5.128   0.725   7.108  0.6893  0.8603  0.0435
 3064TIP3    H130827   5.083   0.809   7.099 -0.4572  0.2987  0.4352
 3064TIP3    H230828   5.148   0.699   7.018 -1.1103  0.4142 -0.2615
 3065TIP3   OH230829   0.579   4.554   1.229  0.0444  0.8934  0.0808
 3065TIP3    H130830   0.510   4.500   1.268 -0.1149 -0.2587 -1.6633
 3065TIP3    H230831   0.589   4.628   1.288 -0.7839 -0.3059  1.7839
 3066TIP3   OH230832   0.215   5.210   1.365 -0.3487 -0.3871  0.0121
 3066TIP3    H130833   0.237   5.300   1.390 -1.1763 -0.6805  1.9131
 3066TIP3    H230834   0.181   5.170   1.445 -2.9831 -1.4711 -1.5341
 3067TIP3   OH230835   0.082   2.007   1.142  0.1819 -0.5982  0.4445
 3067TIP3    H130836   0.158   2.054   1.107 -1.5523  1.9634 -0.2050
 3067TIP3    H230837   0.072   2.041   1.231 -0.6251 -0.3181  0.2550
 3068TIP3   OH230838   0.270   0.612   8.016 -0.5502  1.1244  0.3325
 3068TIP3    H130839   0.209   0.611   7.943 -1.0006 -0.8166  0.6809
 3068TIP3    H230840   0.298   0.703   8.022 -0.8408  1.4364 -1.9517
 3069TIP3   OH230841   2.714   5.588   6.749  0.0040 -0.4224  0.0533
 3069TIP3    H130842   2.672   5.674   6.752 -0.2070 -0.5436  1.6273
 3069TIP3    H230843   2.727   5.565   6.841  1.2964 -1.4806 -0.3571
 3070TIP3   OH230844   0.226   4.149   8.492  0.2818 -0.2474 -0.2301
 3070TIP3    H130845   0.264   4.231   8.521  0.1250 -0.6619  1.2455
 3070TIP3    H230846   0.140   4.146   8.535 -0.4156 -0.4323 -1.5786
 3071TIP3   OH230847   3.110   0.210   8.691 -0.3878 -0.0537  0.0269
 3071TIP3    H130848   3.167   0.221   8.615 -0.9658 -1.3948 -0.6345
 3071TIP3    H230849   3.091   0.299   8.720  0.6790  0.4517 -0.7630
 3072TIP3   OH230850   3.691   6.270   6.296 -0.6439 -0.6487 -0.1371
 3072TIP3    H130851   3.615   6.212   6.284  0.1205 -1.6747 -0.1364
 3072TIP3    H230852   3.657   6.344   6.347 -1.2517 -1.9507  1.4342
 3073TIP3   OH230853   0.061   5.853   1.581  0.8471  0.3837  0.0855
 3073TIP3    H130854   0.029   5.818   1.498  0.5750 -0.0940  0.3916
 3073TIP3    H230855  -0.015   5.895   1.621  1.1195  1.1438 -0.1807
 3074TIP3   OH230856   4.500   1.965   1.322 -0.4915  0.0463  0.3983
 3074TIP3    H130857   4.560   1.924   1.260 -1.4211 -1.1271  0.2453
 3074TIP3    H230858   4.420   1.913   1.318 -1.4291  1.3703  0.8428
 3075TIP3   OH230859   3.111   4.847   0.249  0.5777 -0.2499 -0.0816
 3075TIP3    H130860   3.139   4.932   0.282 -0.4385  0.4869 -1.0213
 3075TIP3    H230861   3.179   4.786   0.278  0.1696  0.4463  2.6307
 3076TIP3   OH230862   6.220   4.139   8.769 -0.6143 -0.5010  0.4337
 3076TIP3    H130863   6.231   4.126   8.863 -1.4867  1.3367  0.8429
 3076TIP3    H230864   6.276   4.214   8.749 -0.9565 -0.4550 -0.3756
 3077TIP3   OH230865   2.883   1.764   8.798 -0.4680 -0.0669 -0.8126
 3077TIP3    H130866   2.824   1.769   8.723  0.4381 -2.0174 -1.7333
 3077TIP3    H230867   2.835   1.712   8.863 -0.4039 -0.2475 -0.9095
 3078TIP3   OH230868   6.073   5.567   8.083 -0.0192  0.0234  0.1401
 3078TIP3    H130869   6.130   5.611   8.020 -0.1931 -0.7856 -0.6179
 3078TIP3    H230870   6.132   5.518   8.140  0.2991  2.5137  2.0897
 3079TIP3   OH230871   3.707   1.688   8.100 -0.1477  0.5464 -0.1736
 3079TIP3    H130872   3.746   1.740   8.171  1.5236 -0.5802 -0.1909
 3079TIP3    H230873   3.706   1.598   8.134 -0.2226  0.1453 -1.2011
 3080TIP3   OH230874   6.661   3.685   1.758  0.0792 -0.5916  0.8816
 3080TIP3    H130875   6.596   3.616   1.750 -0.3840 -0.0954  0.2265
 3080TIP3    H230876   6.688   3.683   1.849 -2.4471  0.6101  1.7548
 3081TIP3   OH230877   0.781   3.921   0.325  0.4921 -0.6264  0.1383
 3081TIP3    H130878   0.742   3.840   0.355  0.6354 -0.7960 -0.1280
 3081TIP3    H230879   0.833   3.952   0.399 -1.4316  0.4667  1.1059
 3082TIP3   OH230880   3.103   5.220   7.292 -0.2410 -0.1543  0.3958
 3082TIP3    H130881   3.088   5.149   7.354  2.1089 -0.7211  0.4251
 3082TIP3    H230882   3.196   5.213   7.271 -0.7171  0.6956 -2.3733
 3083TIP3   OH230883   6.275   5.755   7.643  0.2783  0.5324 -0.2362
 3083TIP3    H130884   6.265   5.674   7.594 -2.8897 -0.0810  1.2117
 3083TIP3    H230885   6.370   5.768   7.648  0.9091 -2.9458 -0.6832
 3084TIP3   OH230886   1.465   1.844   8.177  0.5744  0.4632  0.1367
 3084TIP3    H130887   1.521   1.919   8.198 -0.7439  1.7076 -0.6350
 3084TIP3    H230888   1.523   1.784   8.129  0.8481  2.6565 -2.5250
 3085TIP3   OH230889   3.548   5.456   0.725 -0.4159 -0.3983  0.0355
 3085TIP3    H130890   3.534   5.531   0.783 -1.4937 -0.6649  0.1504
 3085TIP3    H230891   3.479   5.393   0.750  0.3692 -1.3631 -0.1641
 3086TIP3   OH230892   1.733   3.632   7.078 -0.1726 -0.1972 -0.3436
 3086TIP3    H130893   1.714   3.576   7.003  0.7198 -1.1599  0.1210
 3086TIP3    H230894   1.722   3.575   7.154  2.7540 -0.3972  0.0578
 3087TIP3   OH230895   0.525   5.580   2.185  0.3201 -0.4160 -0.1473
 3087TIP3    H130896   0.441   5.583   2.139 -0.8223  0.8157  1.9015
 3087TIP3    H230897   0.541   5.487   2.200 -0.4250 -0.6910 -0.9956
 3088TIP3   OH230898   1.185   2.491   0.601  0.2250 -0.0184 -0.6308
 3088TIP3    H130899   1.279   2.510   0.605 -0.1076  1.6875  0.0494
 3088TIP3    H230900   1.171   2.456   0.513  1.3046  0.8920 -1.1952
 3089TIP3   OH230901   4.679   2.551   0.333  0.0684  0.0294 -0.7178
 3089TIP3    H130902   4.771   2.567   0.354 -0.8896  1.1125  3.6928
 3089TIP3    H230903   4.662   2.463   0.365 -0.7187  0.4074 -0.0369
 3090TIP3   OH230904   2.162   1.484   0.903 -0.6097 -0.0835 -0.2922
 3090TIP3    H130905   2.163   1.396   0.865  0.4451 -0.2895  0.1858
 3090TIP3    H230906   2.248   1.519   0.884 -0.1073 -0.1115  1.6928
 3091TIP3   OH230907   6.787   3.069   7.122 -0.1063 -0.2294  0.4446
 3091TIP3    H130908   6.821   3.035   7.040 -0.1117  0.2567  0.2380
 3091TIP3    H230909   6.729   3.140   7.097 -0.3196 -0.2530  0.8570
 3092TIP3   OH230910   3.853   6.638   6.384  0.1251  0.4044 -0.0964
 3092TIP3    H130911   3.934   6.688   6.390  0.0434  0.4580  0.7245
 3092TIP3    H230912   3.791   6.696   6.340  0.3987  0.5405 -0.3003
 3093TIP3   OH230913   5.048   3.032   6.970 -0.0771  0.6041  0.2372
 3093TIP3    H130914   5.092   3.089   6.906  0.7612  0.2206  0.4579
 3093TIP3    H230915   5.106   3.031   7.046  1.8848 -3.3493 -1.0309
 3094TIP3   OH230916   0.778   4.994   6.928 -0.5160  0.1058  0.5057
 3094TIP3    H130917   0.835   5.029   6.860  0.1606 -0.3994  0.8078
 3094TIP3    H230918   0.744   5.071   6.972 -0.8448  0.4372 -0.2988
 3095TIP3   OH230919   2.411   4.423   1.300  0.0351  0.1487  0.1645
 3095TIP3    H130920   2.478   4.443   1.365  1.8583  0.9393 -1.8257
 3095TIP3    H230921   2.391   4.508   1.260 -1.6965 -0.1844  0.2854
 3096TIP3   OH230922   3.736   0.264   1.184 -0.1538 -0.4596  0.0787
 3096TIP3    H130923   3.714   0.261   1.091 -2.1042 -1.5088  0.5271
 3096TIP3    H230924   3.740   0.172   1.211  2.0511 -0.2449  0.7179
 3097TIP3   OH230925   6.614   0.052   0.704  0.2885 -0.1708  0.1446
 3097TIP3    H130926   6.657   0.097   0.631 -1.4556  2.2345  0.4782
 3097TIP3    H230927   6.677   0.057   0.775 -0.3173  3.3238  0.6468
 3098TIP3   OH230928   4.859   5.199   0.105  0.0740 -0.0462 -0.4602
 3098TIP3    H130929   4.828   5.124   0.156  0.4793 -0.6474 -1.0760
 3098TIP3    H230930   4.801   5.202   0.029  1.3588 -1.0912 -1.5434
 3099TIP3   OH230931   5.719   6.515   7.961  0.6210 -0.5032 -0.5232
 3099TIP3    H130932   5.683   6.457   8.028  0.3597 -0.3990 -0.5743
 3099TIP3    H230933   5.708   6.468   7.879  0.7548 -0.5428 -0.5195
 3100TIP3   OH230934   2.701   4.899   7.523  0.0293  0.2134  0.0143
 3100TIP3    H130935   2.655   4.917   7.441  0.5808 -0.2580 -0.4071
 3100TIP3    H230936   2.793   4.909   7.502  0.2924 -1.6697  0.0840
 3101TIP3   OH230937   5.595   0.908   8.156 -0.5127  0.3644 -0.5191
 3101TIP3    H130938   5.538   0.872   8.224 -1.1697  1.5405 -0.4186
 3101TIP3    H230939   5.683   0.908   8.194 -1.0243  1.9770  0.7590
 3102TIP3   OH230940   5.666   6.631   1.471  0.7253 -0.0211  0.0024
 3102TIP3    H130941   5.636   6.658   1.558 -0.9170 -0.9678 -0.2200
 3102TIP3    H230942   5.745   6.682   1.456  1.5726 -0.4584  2.4201
 3103TIP3   OH230943   6.745   6.684   0.171 -0.1801 -0.0528 -0.1022
 3103TIP3    H130944   6.716   6.623   0.103  1.3659 -1.0062  0.0497
 3103TIP3    H230945   6.744   6.633   0.251 -0.3339  0.5700  0.2989
 3104TIP3   OH230946   0.791   1.998   7.460 -0.3845 -0.1229 -0.7312
 3104TIP3    H130947   0.783   1.943   7.382  0.8727 -0.9770 -0.2884
 3104TIP3    H230948   0.709   1.986   7.507 -1.6140  1.1966 -2.3787
 3105TIP3   OH230949   5.300   5.180   1.108 -0.4166  0.2534 -0.5684
 3105TIP3    H130950   5.341   5.186   1.194 -2.5245  0.9526  0.4775
 3105TIP3    H230951   5.353   5.236   1.051  1.5599 -0.9669  0.0089
 3106TIP3   OH230952   4.103   0.780   8.117 -0.5225 -0.2216  0.3297
 3106TIP3    H130953   4.009   0.795   8.125 -0.5830  0.5229 -1.2797
 3106TIP3    H230954   4.116   0.690   8.147 -1.4676  0.2006  2.1443
 3107TIP3   OH230955   3.041   0.031   0.038  0.0750 -0.7725 -0.3641
 3107TIP3    H130956   3.115   0.055   0.094 -0.6155  0.6480  0.0092
 3107TIP3    H230957   3.051   0.086  -0.040 -1.4825  0.7925  0.4505
 3108TIP3   OH230958   4.556   3.242   0.196  0.1582  1.0650 -0.4087
 3108TIP3    H130959   4.468   3.281   0.197  0.1391  1.0228 -0.0846
 3108TIP3    H230960   4.594   3.270   0.113 -0.2961  0.7818 -0.7203
 3109TIP3   OH230961   1.577   6.099   6.814  0.3622  0.2611 -0.1045
 3109TIP3    H130962   1.493   6.140   6.797 -0.2438 -0.2729  1.4328
 3109TIP3    H230963   1.636   6.136   6.748 -1.1199  0.4368 -1.3604
 3110TIP3   OH230964   6.674   2.019   0.310  0.3055  1.2661 -0.2361
 3110TIP3    H130965   6.652   2.004   0.402 -0.5848 -2.1724 -0.8597
 3110TIP3    H230966   6.770   2.012   0.307  0.1916 -1.1494  0.1508
 3111TIP3   OH230967   3.261   6.185   7.266  0.1977 -0.3708 -0.5789
 3111TIP3    H130968   3.209   6.253   7.224  3.0173  2.3633 -0.0788
 3111TIP3    H230969   3.258   6.207   7.360  2.1116 -0.0864 -0.5353
 3112TIP3   OH230970   2.818   5.882   1.135  0.2450 -0.1691  0.1674
 3112TIP3    H130971   2.736   5.923   1.110 -0.1634  0.3377  2.1516
 3112TIP3    H230972   2.885   5.946   1.111 -0.2077  0.7270  1.2214
 3113TIP3   OH230973   2.832   0.286   0.347  0.3801 -0.0487  0.5356
 3113TIP3    H130974   2.778   0.281   0.426 -0.2062 -0.1904  0.1373
 3113TIP3    H230975   2.897   0.354   0.366 -1.6414  2.1679  0.0409
 3114TIP3   OH230976   6.793   0.972   1.517  0.5311  0.3648  0.0429
 3114TIP3    H130977   6.825   1.060   1.538  2.1531 -0.2834  0.4739
 3114TIP3    H230978   6.872   0.923   1.495 -0.2742 -1.1387  0.3799
 3115TIP3   OH230979   1.727   2.519   7.987 -0.3648 -0.3253  0.2974
 3115TIP3    H130980   1.682   2.598   7.957 -2.3587 -1.1018  1.0700
 3115TIP3    H230981   1.714   2.455   7.916  1.1531 -0.0231 -0.2814
 3116TIP3   OH230982   1.028   4.071   2.067  0.0208 -0.1049 -0.0720
 3116TIP3    H130983   1.009   4.125   2.144  0.5054 -1.8855  1.3972
 3116TIP3    H230984   1.122   4.054   2.072  0.4160  1.1565 -2.1023
 3117TIP3   OH230985   6.712   5.400   6.661  0.3540  0.0855  0.5459
 3117TIP3    H130986   6.759   5.321   6.633  0.6543 -0.6181  2.8313
 3117TIP3    H230987   6.762   5.472   6.624  0.6340 -0.7525 -0.7875
 3118TIP3   OH230988   0.203   4.204   7.953  0.3360 -0.3381  0.2826
 3118TIP3    H130989   0.239   4.119   7.980  1.0634 -0.0963  0.1064
 3118TIP3    H230990   0.243   4.267   8.013  0.8567  0.0335 -0.4324
 3119TIP3   OH230991   4.748   1.368   7.005 -0.1514  0.7505  0.4115
 3119TIP3    H130992   4.760   1.429   6.933 -0.6953 -0.2722 -0.5816
 3119TIP3    H230993   4.769   1.418   7.084 -0.9473  2.3053 -0.3358
 3120TIP3   OH230994   4.786   2.909   7.659  0.2052  0.0531  0.5057
 3120TIP3    H130995   4.729   2.908   7.736 -0.8765 -0.6870 -0.2727
 3120TIP3    H230996   4.738   2.858   7.593  1.1879  0.5160 -0.6012
 3121TIP3   OH230997   1.734   4.692   0.775  0.0442 -0.3833  0.4211
 3121TIP3    H130998   1.705   4.725   0.689  1.0386  2.9280  1.1878
 3121TIP3    H230999   1.785   4.614   0.755  0.2522  0.2920 -2.0480
 3122TIP3   OH231000   1.369   3.942   0.880 -0.2585 -0.0543  0.5326
 3122TIP3    H131001   1.348   3.859   0.837  0.2094 -0.1334  0.4442
 3122TIP3    H231002   1.290   3.966   0.927 -0.4151 -0.5255  0.5128
 3123TIP3   OH231003   0.590   5.648   7.767 -0.5938  0.1159 -0.5136
 3123TIP3    H131004   0.533   5.713   7.808 -0.3639  1.2621 -1.9028
 3123TIP3    H231005   0.588   5.670   7.674  1.1580 -0.5625 -0.7549
 3124TIP3   OH231006   4.928   3.747   6.763 -0.0476 -0.2168 -0.3776
 3124TIP3    H131007   4.927   3.784   6.851  3.3378 -1.4867  0.3234
 3124TIP3    H231008   4.939   3.823   6.705 -0.2956  0.4358  0.4178
 3125TIP3   OH231009   3.129   0.845   1.715  0.7406 -0.1036  0.2616
 3125TIP3    H131010   3.135   0.832   1.620  2.4009  0.0786  0.3083
 3125TIP3    H231011   3.044   0.809   1.739  1.3618 -2.6221 -0.9370
 3126TIP3   OH231012   3.980   6.573   6.742  0.1267  0.3891 -0.1636
 3126TIP3    H131013   3.980   6.666   6.720  1.1115 -0.1560 -2.8114
 3126TIP3    H231014   4.065   6.541   6.712 -1.1679 -1.8389 -1.7294
 3127TIP3   OH231015   5.900   5.029   1.261  0.0314 -0.3374  0.2516
 3127TIP3    H131016   5.811   5.003   1.238  0.7323 -3.3303  0.5055
 3127TIP3    H231017   5.950   5.019   1.180 -0.0143  2.6459 -0.2519
 3128TIP3   OH231018   0.864   3.142   7.679  0.0899  0.2787  0.4350
 3128TIP3    H131019   0.930   3.167   7.743  0.1036  1.2317  0.0554
 3128TIP3    H231020   0.849   3.048   7.695  1.1000  0.1924  0.9041
 3129TIP3   OH231021   2.587   4.280   0.176 -0.4460 -0.9021 -0.3326
 3129TIP3    H131022   2.526   4.304   0.246  0.0649 -0.4283 -0.0371
 3129TIP3    H231023   2.670   4.318   0.204 -0.6388  0.9691 -2.1038
 3130TIP3   OH231024   5.109   5.456   7.967  0.9034  0.3791 -0.4132
 3130TIP3    H131025   5.070   5.436   7.882 -0.6051  0.0544  0.3321
 3130TIP3    H231026   5.039   5.498   8.017  1.3996 -0.4823  1.0756
 3131TIP3   OH231027   0.350   5.753   8.576 -0.2448  0.6664 -0.5120
 3131TIP3    H131028   0.364   5.845   8.554  2.2314  0.4821 -0.0442
 3131TIP3    H231029   0.336   5.709   8.492  1.7128  1.0593 -1.1035
 3132TIP3   OH231030   3.668   6.781   0.002  0.1475  0.1090  0.0082
 3132TIP3    H131031   3.590   6.754   0.052  0.2245 -0.1734 -0.0238
 3132TIP3    H231032   3.724   6.824   0.067  0.7797 -1.3125  0.4343
 3133TIP3   OH231033   3.436   3.474   1.660 -0.1570 -0.1223 -0.1893
 3133TIP3    H131034   3.498   3.507   1.724  0.4895 -0.5513 -0.5730
 3133TIP3    H231035   3.406   3.391   1.697 -0.5727  0.1267  0.0367
 3134TIP3   OH231036   6.298   6.329   0.233 -0.4412  0.7810 -0.1186
 3134TIP3    H131037   6.309   6.237   0.209  1.6423  0.9269  0.0920
 3134TIP3    H231038   6.222   6.330   0.291  0.7171 -1.1655  1.5761
 3135TIP3   OH231039   5.073   6.509   1.574  0.4609  0.1488  0.0843
 3135TIP3    H131040   5.133   6.563   1.523 -2.2650  1.3476 -2.1366
 3135TIP3    H231041   5.082   6.421   1.536 -0.0060  0.5766 -1.0414
 3136TIP3   OH231042   0.012   5.402   1.171 -0.0897 -0.1846 -0.5424
 3136TIP3    H131043   0.038   5.441   1.254 -0.4926 -1.0605  0.0171
 3136TIP3    H231044  -0.044   5.468   1.130 -1.6960 -0.5729  0.8910
 3137TIP3   OH231045   0.235   0.095   7.353  0.2341  0.0391  0.2977
 3137TIP3    H131046   0.259   0.123   7.442  1.1929 -1.8254  0.6736
 3137TIP3    H231047   0.240   0.175   7.301  1.9482  0.7548  1.4778
 3138TIP3   OH231048   5.463   4.636   8.018 -0.3089 -0.5488 -0.6540
 3138TIP3    H131049   5.558   4.632   8.010  0.0921 -1.0066  2.5985
 3138TIP3    H231050   5.435   4.544   8.017 -0.3570 -0.5771  0.8450
 3139TIP3   OH231051   3.831   6.377   8.559 -0.6156 -0.0563  0.2938
 3139TIP3    H131052   3.790   6.315   8.619 -0.6779  0.2654  0.5886
 3139TIP3    H231053   3.782   6.458   8.572  0.1150  0.3335  0.6502
 3140TIP3   OH231054   1.113   4.542   1.242 -0.1420 -0.6622  0.6665
 3140TIP3    H131055   1.087   4.501   1.159 -0.1158 -0.6114  0.6324
 3140TIP3    H231056   1.056   4.619   1.249 -0.7528 -1.1572  1.1358
 3141TIP3   OH231057   4.033   5.036   8.587  0.2140 -0.6375  0.0061
 3141TIP3    H131058   3.947   5.033   8.544  0.4272  1.9242 -0.8182
 3141TIP3    H231059   4.084   4.967   8.544 -1.0024 -1.2294 -0.5287
 3142TIP3   OH231060   3.764   0.724   8.404  0.1375  0.7750 -0.3380
 3142TIP3    H131061   3.732   0.794   8.460  0.4839  1.1231 -0.5674
 3142TIP3    H231062   3.689   0.666   8.393 -0.0115  0.8456  0.2568
 3143TIP3   OH231063   3.225   4.241   7.738 -0.6008 -0.0195  0.0646
 3143TIP3    H131064   3.270   4.271   7.817 -1.8876  0.8916  0.4864
 3143TIP3    H231065   3.201   4.321   7.692 -1.3979 -0.4951 -0.3679
 3144TIP3   OH231066   3.774   4.954   0.871  0.0691 -0.7244  0.5919
 3144TIP3    H131067   3.705   4.957   0.938 -0.6257 -1.4400 -0.0597
 3144TIP3    H231068   3.842   5.013   0.904 -1.7579  1.7330  0.2266
 3145TIP3   OH231069   1.902   3.477   0.761 -0.8843 -0.1671  0.2698
 3145TIP3    H131070   1.990   3.444   0.743 -1.0043 -0.4472  0.1965
 3145TIP3    H231071   1.872   3.512   0.678 -0.6417  0.4035  0.4165
 3146TIP3   OH231072   0.174   0.796   2.165  0.2463 -0.0272 -0.2032
 3146TIP3    H131073   0.240   0.865   2.163 -0.5300  0.7586  0.2790
 3146TIP3    H231074   0.223   0.715   2.156  1.1855  0.5819 -0.7653
 3147TIP3   OH231075   3.641   2.344   6.714 -0.2028 -0.1682  0.4280
 3147TIP3    H131076   3.653   2.277   6.647 -0.3844 -0.2701  0.4972
 3147TIP3    H231077   3.572   2.309   6.771 -0.1386 -0.0249  0.5936
 3148TIP3   OH231078   4.767   1.792   7.719  0.0643 -0.0176 -0.6266
 3148TIP3    H131079   4.739   1.867   7.666 -0.1916 -0.8411 -1.6989
 3148TIP3    H231080   4.761   1.823   7.809 -3.5152  0.1878 -0.7952
 3149TIP3   OH231081   2.261   4.852   1.057 -0.0630  0.0078 -0.0746
 3149TIP3    H131082   2.196   4.922   1.061 -0.5062 -0.3085 -1.2561
 3149TIP3    H231083   2.295   4.845   1.146 -1.2630  0.5512  0.4453
 3150TIP3   OH231084   5.531   4.335   6.631 -0.0925  0.2798  0.4634
 3150TIP3    H131085   5.579   4.400   6.579  0.0603  0.4389  0.8016
 3150TIP3    H231086   5.443   4.335   6.592  0.5172 -0.9662 -1.0114
 3151TIP3   OH231087   1.449   5.441   1.173  0.1073 -0.2252  0.3933
 3151TIP3    H131088   1.535   5.445   1.215  0.2905  1.6053 -0.0791
 3151TIP3    H231089   1.469   5.439   1.079 -0.3784 -0.0066  0.2877
 3152TIP3   OH231090   6.401   2.849   0.389 -0.3502  0.2170  0.3631
 3152TIP3    H131091   6.420   2.755   0.389 -1.5734 -0.0420  0.5192
 3152TIP3    H231092   6.386   2.871   0.481 -2.6633 -0.0106  0.0991
 3153TIP3   OH231093   5.035   0.883   0.544 -0.3475 -0.2881 -0.2096
 3153TIP3    H131094   5.081   0.915   0.467  0.3784  1.3799  0.8565
 3153TIP3    H231095   4.967   0.948   0.560 -0.8983 -0.9512  0.1990
 3154TIP3   OH231096   0.917   0.891   7.089 -0.1259  0.7325  0.0101
 3154TIP3    H131097   0.979   0.962   7.074 -1.8511  2.3895  0.3035
 3154TIP3    H231098   0.876   0.912   7.173 -2.7155  1.0045 -1.2355
 3155TIP3   OH231099   6.003   5.509   0.033 -0.2529  0.2391  0.6317
 3155TIP3    H131100   5.960   5.584  -0.006  2.7199  3.7698  3.4036
 3155TIP3    H231101   5.950   5.487   0.109 -1.5285 -1.1194 -0.5851
 3156TIP3   OH231102   0.116   6.413   7.611  0.1128  0.7275 -0.1056
 3156TIP3    H131103   0.209   6.424   7.589 -0.1084  1.9584 -0.5089
 3156TIP3    H231104   0.115   6.341   7.674  1.1925 -0.2434 -1.1275
 3157TIP3   OH231105   2.976   4.760   7.912  0.1063  0.2943 -0.0507
 3157TIP3    H131106   3.027   4.752   7.832 -1.8253 -0.1061 -1.3148
 3157TIP3    H231107   3.031   4.812   7.970  0.8600  2.1815 -2.2842
 3158TIP3   OH231108   3.867   1.711   6.856  0.6589 -0.4906 -0.1487
 3158TIP3    H131109   3.913   1.627   6.868  0.4636 -0.7734 -1.2333
 3158TIP3    H231110   3.927   1.762   6.801 -0.2635 -0.8536 -1.5608
 3159TIP3   OH231111   6.325   0.698   7.672 -0.1808  0.5541 -0.1218
 3159TIP3    H131112   6.319   0.613   7.715 -0.3902 -0.0596 -1.3325
 3159TIP3    H231113   6.391   0.746   7.723  1.7255 -1.1927 -0.8062
 3160TIP3   OH231114   4.132   3.631   7.422 -0.5005  0.8341 -0.0727
 3160TIP3    H131115   4.066   3.669   7.364 -0.3188  0.9355 -0.2139
 3160TIP3    H231116   4.198   3.595   7.363 -1.0675 -0.4353  0.0427
 3161TIP3   OH231117   4.732   4.976   8.233  0.0853 -0.4763 -0.4652
 3161TIP3    H131118   4.822   4.944   8.237  0.3884  0.2605 -1.0718
 3161TIP3    H231119   4.740   5.070   8.251 -0.5406 -0.3741 -0.7102
 3162TIP3   OH231120   1.231   4.851   1.849 -0.0295 -0.2721 -0.1908
 3162TIP3    H131121   1.165   4.919   1.857  0.8715  0.3706  3.7058
 3162TIP3    H231122   1.193   4.775   1.893  0.7667 -0.7931 -0.3745
 3163TIP3   OH231123   2.818   3.518   8.803 -0.5173 -0.6350 -0.8796
 3163TIP3    H131124   2.864   3.541   8.884  1.9668 -2.9182 -1.4882
 3163TIP3    H231125   2.730   3.492   8.832  0.1889 -1.0581  1.0717
 3164TIP3   OH231126   5.591   4.800   7.276 -0.3413  0.2168  0.0044
 3164TIP3    H131127   5.682   4.781   7.252 -1.2370  0.6268 -4.8279
 3164TIP3    H231128   5.597   4.876   7.335  2.4273 -0.1691  0.3436
 3165TIP3   OH231129   5.011   3.881   0.828  0.5039  0.0558 -0.5218
 3165TIP3    H131130   5.094   3.840   0.852  0.2091 -0.7381 -0.8014
 3165TIP3    H231131   4.947   3.809   0.834 -0.5351  1.0679  1.6587
 3166TIP3   OH231132   6.518   4.534   1.569  0.1188  0.0323 -0.2146
 3166TIP3    H131133   6.486   4.454   1.528  0.9678 -0.1738 -0.4963
 3166TIP3    H231134   6.475   4.605   1.521  0.2896 -0.2313 -0.7611
 3167TIP3   OH231135   0.454   1.040   7.793  0.2306 -0.3097 -0.6580
 3167TIP3    H131136   0.481   1.016   7.704  1.0617 -1.0514 -0.2200
 3167TIP3    H231137   0.441   1.135   7.788 -1.5533 -0.5723 -2.0205
 3168TIP3   OH231138   3.953   2.764   1.874  0.6775 -0.0711  0.7063
 3168TIP3    H131139   3.976   2.675   1.900  3.3391  1.0092  2.4721
 3168TIP3    H231140   4.029   2.796   1.826  0.5977  1.8080  1.7196
 3169TIP3   OH231141   0.240   1.369   6.536 -0.1414  0.3686  0.1652
 3169TIP3    H131142   0.322   1.321   6.522  1.4538  3.0417 -0.2947
 3169TIP3    H231143   0.176   1.301   6.558  1.9043 -1.9488 -0.5924
 3170TIP3   OH231144   5.903   1.012   7.550  0.1168 -0.5425  1.2694
 3170TIP3    H131145   5.958   1.075   7.597 -1.0405  1.2742  0.2999
 3170TIP3    H231146   5.821   1.058   7.534 -0.0054 -1.5056 -1.4128
 3171TIP3   OH231147   4.442   5.379   7.773  0.4444  0.0113  0.0631
 3171TIP3    H131148   4.415   5.328   7.696  0.4147 -1.1292  0.8115
 3171TIP3    H231149   4.402   5.334   7.847  1.4068  0.4279  0.8598
 3172TIP3   OH231150   0.091   4.435   8.343  0.7426 -0.6098 -0.0475
 3172TIP3    H131151   0.045   4.469   8.420  2.2013  0.1984  0.4970
 3172TIP3    H231152   0.066   4.343   8.340  2.0602 -1.1509  2.5157
 3173TIP3   OH231153   6.424   1.400   1.632 -0.4630 -0.0025 -1.0521
 3173TIP3    H131154   6.458   1.459   1.700 -1.8321 -0.8230  0.4037
 3173TIP3    H231155   6.481   1.323   1.638 -1.5173 -0.7181  0.2874
 3174TIP3   OH231156   6.026   4.020   0.343  0.1767 -0.0336 -0.1583
 3174TIP3    H131157   6.041   3.934   0.382  0.5904  0.0031 -0.2269
 3174TIP3    H231158   6.055   4.082   0.409 -1.0408  0.0881  0.2839
 3175TIP3   OH231159   1.492   4.476   6.404  0.2142 -0.1834  0.0786
 3175TIP3    H131160   1.407   4.447   6.437 -0.1838  2.1467  1.3511
 3175TIP3    H231161   1.542   4.395   6.392 -0.8932 -1.4519  2.9716
 3176TIP3   OH231162   5.778   3.741   1.453 -0.4252  0.6291  0.1034
 3176TIP3    H131163   5.830   3.765   1.529  0.8690 -0.6970 -0.3106
 3176TIP3    H231164   5.688   3.733   1.486  0.0951  0.1739  1.4644
 3177TIP3   OH231165   5.872   5.538   6.902 -0.5529 -0.5254  0.3489
 3177TIP3    H131166   5.915   5.596   6.839 -1.1567 -0.0245  0.3929
 3177TIP3    H231167   5.882   5.450   6.863  0.5355 -0.4300  0.3831
 3178TIP3   OH231168   4.582   0.354   8.479  0.3266  0.1288 -0.1542
 3178TIP3    H131169   4.493   0.368   8.512 -0.2989  0.6027 -1.9137
 3178TIP3    H231170   4.638   0.360   8.556 -1.0538  0.9866  0.8226
 3179TIP3   OH231171   5.368   1.574   1.487 -0.6411  0.2895  0.0380
 3179TIP3    H131172   5.349   1.662   1.455 -0.0733  0.1096 -0.8442
 3179TIP3    H231173   5.427   1.537   1.421  2.2851  0.6091  2.2488
 3180TIP3   OH231174   3.843   2.040   8.710 -0.5853 -0.1213 -0.3466
 3180TIP3    H131175   3.888   1.956   8.702  1.0005  0.4686  1.4604
 3180TIP3    H231176   3.761   2.019   8.755 -0.1808 -0.7140  0.1317
 3181TIP3   OH231177   5.239   4.968   1.977 -0.0805  0.1245 -0.3905
 3181TIP3    H131178   5.163   4.989   2.033 -0.5147  0.7770 -1.1969
 3181TIP3    H231179   5.225   4.877   1.952  0.2964 -0.2874  0.8202
 3182TIP3   OH231180   0.492   4.503   8.456  0.0161  0.4183  0.0016
 3182TIP3    H131181   0.581   4.536   8.441  0.5659 -0.3195  1.4682
 3182TIP3    H231182   0.445   4.526   8.375  1.4011  1.2205 -0.6316
 3183TIP3   OH231183   6.432   4.739   8.647 -0.7858 -1.2528 -0.3703
 3183TIP3    H131184   6.433   4.782   8.733  0.1067 -2.8814  0.4747
 3183TIP3    H231185   6.340   4.729   8.626 -1.1065  2.3842 -1.3427
 3184TIP3   OH231186   5.333   6.283   1.578 -0.8441 -0.2601  0.1939
 3184TIP3    H131187   5.356   6.291   1.671 -0.3712  0.8482 -0.0044
 3184TIP3    H231188   5.272   6.210   1.575  1.3131 -2.2144  0.9822
 3185TIP3   OH231189   6.587   4.654   6.897 -0.4395  0.2747  0.0825
 3185TIP3    H131190   6.527   4.709   6.848 -1.5103  1.2107  2.3135
 3185TIP3    H231191   6.668   4.653   6.845 -1.3033  1.6839 -1.3453
 3186TIP3   OH231192   2.156   2.121   8.140 -0.2946  0.2271 -0.5281
 3186TIP3    H131193   2.157   2.095   8.232 -1.6624 -2.0187 -1.0920
 3186TIP3    H231194   2.075   2.171   8.130  0.3258  1.3089 -0.3464
 3187TIP3   OH231195   3.110   3.858   6.801 -0.0184  0.4031  0.0568
 3187TIP3    H131196   3.052   3.891   6.733 -1.3407 -0.2086  0.8649
 3187TIP3    H231197   3.128   3.935   6.855 -0.2956  0.5418 -0.0457
 3188TIP3   OH231198   0.250   6.731   0.189  0.2601  0.2591 -0.3234
 3188TIP3    H131199   0.211   6.667   0.249 -0.0138  1.8786  1.3218
 3188TIP3    H231200   0.187   6.803   0.187  1.2533  1.1311 -0.9209
 3189TIP3   OH231201   0.277   2.682   6.566  0.5102 -0.3436  0.0072
 3189TIP3    H131202   0.224   2.709   6.641  2.0059 -1.2188  1.4497
 3189TIP3    H231203   0.300   2.763   6.521  0.1704  0.2579  0.8998
 3190TIP3   OH231204   0.075   2.900   7.461 -0.2667  0.8213 -0.4236
 3190TIP3    H131205   0.040   2.861   7.381 -0.0757 -1.0478  0.3684
 3190TIP3    H231206   0.055   2.837   7.530  1.6842  1.2428  0.6005
 3191TIP3   OH231207   0.820   0.310   7.279  0.2263 -0.4396  0.3328
 3191TIP3    H131208   0.909   0.330   7.310 -0.4358 -0.3697  2.3356
 3191TIP3    H231209   0.765   0.374   7.324 -0.9184 -0.9641 -0.3098
 3192TIP3   OH231210   4.627   4.154   1.251 -0.0520  0.4408 -0.8317
 3192TIP3    H131211   4.704   4.191   1.292  0.0873  0.2445 -0.9118
 3192TIP3    H231212   4.580   4.229   1.214 -0.4932  0.6924  0.1926
 3193TIP3   OH231213   2.491   6.365   0.279 -0.1795 -0.7573  0.3236
 3193TIP3    H131214   2.497   6.460   0.270  1.4417 -0.7612  0.9724
 3193TIP3    H231215   2.400   6.348   0.302 -0.7703  0.5231 -0.9556
 3194TIP3   OH231216   4.971   4.411   2.262  0.4512 -0.4466  0.2687
 3194TIP3    H131217   5.054   4.458   2.254 -0.4200  1.0807 -0.2715
 3194TIP3    H231218   4.964   4.360   2.181  0.9629 -0.7642  0.4236
 3195TIP3   OH231219   1.164   3.196   1.221 -0.3427  0.7226 -0.5086
 3195TIP3    H131220   1.175   3.287   1.249 -0.0825  0.9843 -1.4238
 3195TIP3    H231221   1.249   3.172   1.183 -0.2958 -0.0196  0.0413
 3196TIP3   OH231222   6.009   3.437   6.674  0.1735  0.0791 -0.2748
 3196TIP3    H131223   5.932   3.385   6.695  1.1479 -0.7976  1.3066
 3196TIP3    H231224   6.047   3.460   6.758  0.0726  3.0077 -0.9077
 3197TIP3   OH231225   0.824   0.793   8.168  0.1155 -0.2501  0.0277
 3197TIP3    H131226   0.896   0.853   8.154  1.3082 -1.6882 -0.2398
 3197TIP3    H231227   0.758   0.817   8.103  0.0775  1.4479  0.6556
 3198TIP3   OH231228   0.294   6.405   0.651 -0.1952 -0.1748  0.1237
 3198TIP3    H131229   0.226   6.342   0.630 -0.8511  1.0516 -1.6966
 3198TIP3    H231230   0.275   6.431   0.742 -2.6134  0.6218 -0.5244
 3199TIP3   OH231231   4.414   3.574   1.261 -0.6303 -0.3031 -0.1522
 3199TIP3    H131232   4.395   3.532   1.177 -0.2078  1.7748 -1.3596
 3199TIP3    H231233   4.425   3.667   1.239 -2.2133  0.5913  2.4621
 3200TIP3   OH231234   1.556   2.095   8.229  0.3265  0.4678  1.0316
 3200TIP3    H131235   1.611   2.161   8.271  0.8537 -0.0432  1.1570
 3200TIP3    H231236   1.586   2.092   8.138  1.3600 -0.6586  1.3731
 3201TIP3   OH231237   0.568   1.299   2.224 -0.6029 -0.3056  0.0453
 3201TIP3    H131238   0.538   1.389   2.212 -0.4766 -0.2498  0.1404
 3201TIP3    H231239   0.517   1.267   2.298  0.5087  0.2322  1.0938
 3202TIP3   OH231240   4.115   2.714   1.423  0.2022  0.2872  0.3580
 3202TIP3    H131241   4.154   2.795   1.390 -0.8137 -0.4043 -2.9257
 3202TIP3    H231242   4.021   2.724   1.405  0.0295 -1.5100  0.1418
 3203TIP3   OH231243   6.127   6.438   7.349 -0.1251  0.3796  0.2287
 3203TIP3    H131244   6.150   6.475   7.434  1.2366  0.3431 -0.0898
 3203TIP3    H231245   6.172   6.353   7.347 -1.2805 -0.2419  0.0190
 3204TIP3   OH231246   5.028   6.561   7.730 -0.2758 -0.0139 -0.1355
 3204TIP3    H131247   5.114   6.600   7.743 -0.5110  0.8067 -0.9519
 3204TIP3    H231248   5.046   6.472   7.700  0.3107  0.5018 -1.3574
 3205TIP3   OH231249   5.949   2.346   1.063 -0.0348  0.5896  0.9588
 3205TIP3    H131250   5.918   2.293   0.989 -0.6227 -0.6245  2.0335
 3205TIP3    H231251   5.946   2.436   1.031  0.3491  0.0412 -0.7053
 3206TIP3   OH231252   1.103   5.032   1.580  0.0273  0.0093 -0.1650
 3206TIP3    H131253   1.059   5.112   1.550 -0.3853 -0.5671 -1.1703
 3206TIP3    H231254   1.054   5.006   1.658 -0.3952  0.2759 -0.3337
 3207TIP3   OH231255   1.594   5.911   1.805  0.5872 -0.1466  0.2311
 3207TIP3    H131256   1.602   5.982   1.869 -2.2579  1.5188 -1.0397
 3207TIP3    H231257   1.678   5.910   1.759  1.3214  1.1877  1.4553
 3208TIP3   OH231258   6.175   4.266   1.095  0.1787 -0.2330 -0.2507
 3208TIP3    H131259   6.093   4.309   1.071  1.2448  1.8509 -0.3687
 3208TIP3    H231260   6.165   4.176   1.062 -1.0149  0.6861 -2.6686
 3209TIP3   OH231261   0.064   0.772   0.288  0.2167 -0.3891  0.8989
 3209TIP3    H131262   0.044   0.697   0.344  0.6706 -1.2150 -0.0098
 3209TIP3    H231263  -0.000   0.838   0.313  0.2655 -0.7991  2.2366
 3210TIP3   OH231264   2.121   0.715   8.269  0.0714 -0.0451 -0.1800
 3210TIP3    H131265   2.131   0.726   8.363 -1.6750  0.5942 -0.0377
 3210TIP3    H231266   2.090   0.625   8.259 -0.6287  0.1744 -0.0501
 3211TIP3   OH231267   2.420   5.394   1.164 -0.3849 -0.3661  0.0487
 3211TIP3    H131268   2.469   5.453   1.106  0.4857  0.0023  1.1139
 3211TIP3    H231269   2.328   5.409   1.142 -0.1841  1.2709  0.1428
 3212TIP3   OH231270   6.664   5.283   7.482  0.1292 -0.4371  0.1530
 3212TIP3    H131271   6.628   5.196   7.463 -0.9015  0.0374 -0.1710
 3212TIP3    H231272   6.667   5.287   7.578  0.9537 -1.1179  0.1668
 3213TIP3   OH231273   5.866   0.578   0.607 -0.1445 -0.1016 -0.0755
 3213TIP3    H131274   5.860   0.662   0.562  0.1076  0.2741  0.5703
 3213TIP3    H231275   5.892   0.516   0.539  0.7477  0.5466 -0.3494
 3214TIP3   OH231276   2.161   2.682   1.512  0.2289  0.1844 -0.2020
 3214TIP3    H131277   2.249   2.720   1.504  0.5341 -0.4656 -0.0143
 3214TIP3    H231278   2.163   2.607   1.453 -0.5790  0.8198 -1.0597
 3215TIP3   OH231279   5.279   3.829   0.945  0.3450 -0.6523 -0.2393
 3215TIP3    H131280   5.346   3.764   0.922  1.8430 -0.1256  2.2578
 3215TIP3    H231281   5.326   3.913   0.942 -0.6808 -0.0689 -0.1941
 3216TIP3   OH231282   1.837   0.708   0.127  0.3047 -0.1885  0.5491
 3216TIP3    H131283   1.806   0.617   0.132 -1.9112  0.5685  2.5353
 3216TIP3    H231284   1.918   0.708   0.177 -0.3077 -0.8861  1.5910
 3217TIP3   OH231285   5.497   4.412   8.776  0.0544 -0.5503  0.5648
 3217TIP3    H131286   5.581   4.367   8.782  0.2873 -0.0941  0.7728
 3217TIP3    H231287   5.469   4.423   8.868 -0.5993 -1.3827  0.4736
 3218TIP3   OH231288   4.040   1.847   1.042  0.4322  0.0445  0.6021
 3218TIP3    H131289   3.996   1.921   1.000 -0.4507 -0.2833  0.9376
 3218TIP3    H231290   4.058   1.786   0.970 -1.5144 -0.7364  0.7277
 3219TIP3   OH231291   0.453   5.479   0.778  0.1391  0.4515 -0.1381
 3219TIP3    H131292   0.512   5.536   0.828  1.2006 -0.9087  0.2390
 3219TIP3    H231293   0.395   5.441   0.844 -0.9425  1.4856 -0.4601
 3220TIP3   OH231294   5.813   2.056   7.633 -0.0770 -0.0414  0.1616
 3220TIP3    H131295   5.840   2.074   7.543  0.2824 -0.8064  0.1086
 3220TIP3    H231296   5.848   2.129   7.684  0.8689 -0.2771 -0.1243
 3221TIP3   OH231297   2.538   0.081   8.524 -0.4411 -0.2542  0.0087
 3221TIP3    H131298   2.553   0.172   8.550 -1.7992  0.1723 -0.5936
 3221TIP3    H231299   2.539   0.032   8.607 -2.2916  0.7083  0.6452
 3222TIP3   OH231300   3.915   2.213   1.839  0.1981  0.0018 -0.3276
 3222TIP3    H131301   3.866   2.134   1.862 -0.8527  0.6813 -0.1451
 3222TIP3    H231302   3.974   2.186   1.769  0.3759 -1.1071  0.2301
 3223TIP3   OH231303   2.271   1.042   8.204 -0.0250  0.5062 -0.8859
 3223TIP3    H131304   2.302   1.128   8.174  0.8545  0.3968 -0.3313
 3223TIP3    H231305   2.333   1.017   8.272 -1.1708  0.1289  0.0576
 3224TIP3   OH231306   4.294   5.909   7.617  0.2652  0.6587 -0.2273
 3224TIP3    H131307   4.279   6.003   7.605  0.4708  0.6573 -0.5250
 3224TIP3    H231308   4.240   5.868   7.549  0.3763  0.5743 -0.2641
 3225TIP3   OH231309   3.828   6.126   7.986 -0.2979  0.0151  0.5270
 3225TIP3    H131310   3.848   6.187   7.916  0.2156  0.5585  1.1366
 3225TIP3    H231311   3.891   6.054   7.975 -0.9267 -0.4421 -0.2117
 3226TIP3   OH231312   3.146   6.745   0.948  0.5813 -0.1958  1.0022
 3226TIP3    H131313   3.158   6.786   1.034 -1.9188  1.3217  0.7276
 3226TIP3    H231314   3.117   6.816   0.891  0.0473 -1.5848 -0.5462
 3227TIP3   OH231315   2.275   3.716   8.253  0.0537  0.1578  0.1731
 3227TIP3    H131316   2.187   3.691   8.223 -0.1717 -0.2937  1.1848
 3227TIP3    H231317   2.314   3.760   8.177 -0.5235 -0.8978 -0.7777
 3228TIP3   OH231318   6.229   3.011   7.731  0.3602  0.2217 -0.4933
 3228TIP3    H131319   6.252   3.054   7.648  0.7798  0.9803  0.0067
 3228TIP3    H231320   6.149   3.055   7.760 -0.4995 -0.8838 -1.0948
 3229TIP3   OH231321   2.247   3.478   7.265 -0.0775 -0.2560  0.1857
 3229TIP3    H131322   2.195   3.507   7.190 -2.3303 -0.1355  1.6900
 3229TIP3    H231323   2.259   3.384   7.250 -0.4745 -0.2280 -0.3471
 3230TIP3   OH231324   1.630   1.475   7.642  0.4953 -0.2692  0.8551
 3230TIP3    H131325   1.681   1.394   7.639  0.2699 -0.4652  1.9959
 3230TIP3    H231326   1.539   1.446   7.634  0.4670 -0.0315  0.2315
 3231TIP3   OH231327   2.888   5.226   7.941 -0.4677  0.3362  0.3811
 3231TIP3    H131328   2.862   5.166   8.010 -1.9490 -0.1244 -0.5420
 3231TIP3    H231329   2.849   5.310   7.966 -0.5582  0.2928  0.3866
 3232TIP3   OH231330   1.926   2.251   8.538  0.7749  0.3314 -0.1154
 3232TIP3    H131331   1.947   2.159   8.553 -0.5948  0.3439  2.3665
 3232TIP3    H231332   1.902   2.285   8.624  1.0694  2.9954 -0.9872
 3233TIP3   OH231333   5.198   4.914   7.810  0.3797  0.0564 -0.6369
 3233TIP3    H131334   5.143   4.979   7.852  1.3532  0.0391  0.7127
 3233TIP3    H231335   5.274   4.963   7.777  0.3522 -0.1601 -1.0394
 3234TIP3   OH231336   2.563   1.419   7.646  0.4241  0.0058  0.5282
 3234TIP3    H131337   2.532   1.499   7.604  0.3761 -0.7243 -0.8799
 3234TIP3    H231338   2.532   1.425   7.736 -1.1701  0.7111 -0.0462
 3235TIP3   OH231339   6.036   3.089   8.850  0.0825  0.2687 -0.1316
 3235TIP3    H131340   6.033   3.014   8.791 -0.5826  0.7940 -0.7786
 3235TIP3    H231341   6.084   3.057   8.926 -1.2731 -1.2182  0.1603
 3236TIP3   OH231342   6.795   2.972   2.155  0.0230  0.1411  0.1428
 3236TIP3    H131343   6.811   3.066   2.154 -1.8157  0.4834  0.5312
 3236TIP3    H231344   6.735   2.956   2.082  1.1167 -0.9223 -0.5795
 3237TIP3   OH231345   6.458   4.153   1.139  0.3705 -0.3590  0.6277
 3237TIP3    H131346   6.385   4.110   1.095 -2.2390  3.0784  1.1443
 3237TIP3    H231347   6.491   4.216   1.075  1.9276 -0.7639  0.9746
 3238TIP3   OH231348   2.082   0.875   7.108  0.0551 -0.1422 -0.1363
 3238TIP3    H131349   2.147   0.883   7.178 -2.7521 -0.2706  2.6941
 3238TIP3    H231350   2.107   0.795   7.062  3.1154  0.9663 -0.6626
 3239TIP3   OH231351   3.374   0.956   8.492 -0.4759  0.3918 -0.0325
 3239TIP3    H131352   3.445   0.944   8.555 -1.7659 -2.3090  1.0901
 3239TIP3    H231353   3.385   0.882   8.431 -0.6371  1.6282 -1.6201
 3240TIP3   OH231354   3.293   0.526   1.443  0.1773  0.1681 -0.1336
 3240TIP3    H131355   3.379   0.502   1.409 -0.8228  0.6485 -3.3853
 3240TIP3    H231356   3.240   0.447   1.433  0.4318 -0.5357  3.0521
 3241TIP3   OH231357   2.467   1.612   6.644 -0.0843  0.1193 -0.3345
 3241TIP3    H131358   2.484   1.553   6.718  0.4101  1.4873  0.6797
 3241TIP3    H231359   2.472   1.555   6.567  1.0496 -1.0569  0.5530
 3242TIP3   OH231360   1.040   2.086   7.196  0.1882 -0.2150  0.4214
 3242TIP3    H131361   1.096   2.163   7.183 -1.6115  1.5836  2.4387
 3242TIP3    H231362   0.951   2.120   7.191 -0.6800 -2.1651  1.4622
 3243TIP3   OH231363   5.932   4.013   0.642  0.2290 -0.0028 -0.1593
 3243TIP3    H131364   5.859   4.008   0.704 -1.1828 -1.4277 -1.8390
 3243TIP3    H231365   5.903   3.963   0.566  2.7280 -0.0849 -1.1643
 3244TIP3   OH231366   2.621   2.582   0.682 -0.1125 -0.3302 -0.0324
 3244TIP3    H131367   2.624   2.582   0.777  0.7327 -0.0780 -0.0487
 3244TIP3    H231368   2.690   2.643   0.656  0.6587 -1.5122 -0.8282
 3245TIP3   OH231369   2.492   3.255   7.132  0.2481  0.4882 -0.0998
 3245TIP3    H131370   2.457   3.168   7.153  1.7990 -0.6011 -1.7440
 3245TIP3    H231371   2.495   3.301   7.216  0.9190 -1.6245  1.1019
 3246TIP3   OH231372   4.057   2.687   1.014  0.7682  0.0458 -0.7106
 3246TIP3    H131373   3.988   2.675   1.078  1.1837 -0.7885 -0.4029
 3246TIP3    H231374   4.012   2.685   0.929  0.1319  1.8174 -0.4576
 3247TIP3   OH231375   6.310   1.441   8.019 -0.4249 -0.1085  0.0508
 3247TIP3    H131376   6.303   1.529   8.056 -0.4489  0.6810 -1.7083
 3247TIP3    H231377   6.359   1.454   7.938 -0.9387 -1.6351 -0.5272
 3248TIP3   OH231378   3.808   3.736   6.967  0.6194 -0.3343  0.1586
 3248TIP3    H131379   3.831   3.818   6.923 -2.1283  0.4799  0.0976
 3248TIP3    H231380   3.748   3.692   6.906  0.6131 -1.5210  0.9906
 3249TIP3   OH231381   3.837   1.001   1.881 -0.0640  0.4001 -0.7014
 3249TIP3    H131382   3.781   1.038   1.949  0.2033  1.9369 -1.2633
 3249TIP3    H231383   3.896   1.073   1.858  0.3168 -0.3123 -2.0386
 3250TIP3   OH231384   3.219   6.735   8.667 -0.1710 -0.4195 -0.2532
 3250TIP3    H131385   3.189   6.690   8.747 -1.0098 -0.8177 -0.7734
 3250TIP3    H231386   3.194   6.826   8.681  1.5877 -0.0613  0.8332
 3251TIP3   OH231387   5.119   6.042   1.862  0.0173 -0.0485  0.1195
 3251TIP3    H131388   5.153   6.128   1.886  0.0017  0.0188 -0.0900
 3251TIP3    H231389   5.052   6.022   1.928 -0.1131  0.1855  0.0582
 3252TIP3   OH231390   0.906   0.779   8.473  0.5164 -0.3373 -0.0300
 3252TIP3    H131391   0.911   0.874   8.482 -1.2510 -0.1070 -0.9964
 3252TIP3    H231392   0.812   0.760   8.471  0.8295 -2.1455  0.4489
 3253TIP3   OH231393   2.845   3.957   6.951  0.0629 -0.5603  0.1045
 3253TIP3    H131394   2.751   3.974   6.937  0.0134 -1.9748 -1.6303
 3253TIP3    H231395   2.875   3.923   6.867  1.3836 -3.3919  1.6012
 3254TIP3   OH231396   1.326   4.250   8.475  0.1799 -0.0923  0.1077
 3254TIP3    H131397   1.274   4.198   8.536 -1.5712  1.4145 -0.0149
 3254TIP3    H231398   1.343   4.331   8.523  1.8553 -0.2733 -0.1277
 3255TIP3   OH231399   0.258   0.761   1.096  0.6431  0.7087 -0.0848
 3255TIP3    H131400   0.291   0.745   1.185 -0.3103  0.9481  0.3286
 3255TIP3    H231401   0.229   0.852   1.097  2.3190  1.2948 -1.2135
 3256TIP3   OH231402   4.694   5.271   7.561  0.0022 -0.2682 -0.2075
 3256TIP3    H131403   4.669   5.196   7.615 -0.6194  0.3314  0.3729
 3256TIP3    H231404   4.788   5.263   7.550 -0.1098 -1.3434 -0.4802
 3257TIP3   OH231405   5.403   2.959   2.539  0.2043 -0.4224 -0.0189
 3257TIP3    H131406   5.492   2.966   2.505  0.0706  2.9400  0.0362
 3257TIP3    H231407   5.413   2.955   2.634  0.2886 -0.7470 -0.0389
 3258TIP3   OH231408   2.783   5.075   0.688 -0.8574 -0.4548 -0.1406
 3258TIP3    H131409   2.770   5.143   0.755 -0.4250 -1.4360  0.9720
 3258TIP3    H231410   2.751   5.115   0.607 -2.1429  0.4868  0.7873
 3259TIP3   OH231411   4.368   3.420   8.754  0.7376 -0.1604 -0.8621
 3259TIP3    H131412   4.282   3.398   8.789  0.7734  2.0904  0.8687
 3259TIP3    H231413   4.422   3.344   8.772 -0.6012 -1.1721 -0.9799
 3260TIP3   OH231414   4.470   6.148   8.734 -0.5480 -0.4724  0.1817
 3260TIP3    H131415   4.420   6.066   8.736  1.0453 -1.4808  0.6165
 3260TIP3    H231416   4.407   6.214   8.760 -1.4283 -1.8571  1.8397
 3261TIP3   OH231417   5.948   5.134   2.316  0.3089 -0.3232 -0.3997
 3261TIP3    H131418   6.017   5.085   2.361  1.4596  0.8172 -0.8551
 3261TIP3    H231419   5.956   5.223   2.350 -0.3560  0.0257 -1.1222
 3262TIP3   OH231420   6.426   0.565   0.628  0.3245 -0.3576 -0.0483
 3262TIP3    H131421   6.508   0.525   0.597  0.5458 -0.4915  0.6976
 3262TIP3    H231422   6.411   0.526   0.714  0.2463  0.7419  0.4529
 3263TIP3   OH231423   3.375   1.632   1.631 -0.1381 -0.1089 -0.5690
 3263TIP3    H131424   3.354   1.725   1.626 -1.3106 -0.4134 -2.7425
 3263TIP3    H231425   3.470   1.628   1.623 -0.0946  0.8973 -0.6865
 3264TIP3   OH231426   1.597   3.114   1.379 -0.2871  0.2485  0.6669
 3264TIP3    H131427   1.534   3.042   1.390  0.8589 -0.7466  0.9232
 3264TIP3    H231428   1.660   3.081   1.315  1.0814  0.4185  1.8720
 3265TIP3   OH231429   4.964   5.815   1.293 -0.1705 -0.3471 -0.1172
 3265TIP3    H131430   4.940   5.730   1.258  1.3472 -0.5157 -0.8026
 3265TIP3    H231431   4.997   5.864   1.218  0.0213  0.4591  0.4736
 3266TIP3   OH231432   1.068   5.132   1.961 -0.6856  0.1927 -0.3052
 3266TIP3    H131433   0.984   5.171   1.936 -1.6858 -1.3405  0.5061
 3266TIP3    H231434   1.133   5.199   1.938 -2.2463  2.1020  0.5542
 3267TIP3   OH231435   2.917   6.765   2.222 -0.5240  0.2226  0.0475
 3267TIP3    H131436   2.914   6.860   2.211 -0.6620  0.5264  2.1828
 3267TIP3    H231437   3.010   6.743   2.220 -0.5268  0.2673 -1.2240
 3268TIP3   OH231438   4.341   2.112   8.133  0.3443 -0.1261 -0.3294
 3268TIP3    H131439   4.350   2.206   8.146  0.5916 -0.3401  1.1590
 3268TIP3    H231440   4.267   2.103   8.073 -0.0810  0.9871  0.0110
 3269TIP3   OH231441   0.047   5.508   1.443  0.0136 -0.2988  0.3639
 3269TIP3    H131442   0.017   5.597   1.422  0.5159 -0.5629 -1.6712
 3269TIP3    H231443   0.021   5.495   1.534 -2.0439  1.1161  0.0509
 3270TIP3   OH231444   2.513   1.750   1.705 -0.1954  0.1240  0.2215
 3270TIP3    H131445   2.516   1.783   1.795  1.7676 -0.6642  0.4922
 3270TIP3    H231446   2.523   1.829   1.651 -0.4220  0.4981  0.7153
 3271TIP3   OH231447   5.434   5.332   6.704  0.3769 -0.2162  0.4004
 3271TIP3    H131448   5.486   5.254   6.688  0.9035 -0.2460  2.0075
 3271TIP3    H231449   5.414   5.367   6.617  1.3843 -1.3134 -0.2947
 3272TIP3   OH231450   4.712   0.414   7.805 -0.1633  0.2552 -0.0724
 3272TIP3    H131451   4.659   0.334   7.806 -0.0299  0.1634  0.8876
 3272TIP3    H231452   4.779   0.399   7.872  0.5132  0.7422 -0.6320
 3273TIP3   OH231453   3.767   6.384   2.238  0.3133  0.6797  0.7142
 3273TIP3    H131454   3.696   6.321   2.225  0.5395  0.1902  1.7441
 3273TIP3    H231455   3.811   6.354   2.318  1.2595  1.3691  0.4632
 3274TIP3   OH231456   4.602   6.782   7.887 -0.2122  0.3780 -0.4827
 3274TIP3    H131457   4.617   6.775   7.982  2.3972  0.8171 -0.7813
 3274TIP3    H231458   4.657   6.714   7.849 -1.4893 -0.0170 -1.7050
 3275TIP3   OH231459   0.532   4.474   7.588 -0.2909  0.1998  0.7090
 3275TIP3    H131460   0.528   4.534   7.513  0.2686 -0.9850 -0.3062
 3275TIP3    H231461   0.606   4.417   7.568 -3.4958 -3.9206 -0.8035
 3276TIP3   OH231462   2.927   4.733   8.652 -0.2040 -0.3644  0.5092
 3276TIP3    H131463   2.863   4.792   8.610  0.4107  0.0136  0.0868
 3276TIP3    H231464   2.978   4.790   8.709  0.1770 -0.5472  0.3549
 3277TIP3   OH231465   4.084   4.684   6.323  0.1683  0.8354  0.2172
 3277TIP3    H131466   4.124   4.684   6.236 -0.4709  0.6079 -0.0790
 3277TIP3    H231467   4.002   4.732   6.312  0.6108  1.8002  0.9486
 3278TIP3   OH231468   4.229   2.634   0.761  0.9795 -0.2372 -0.1324
 3278TIP3    H131469   4.223   2.596   0.673 -1.9050 -0.3880  0.0345
 3278TIP3    H231470   4.252   2.725   0.746 -0.4686 -0.0017 -1.1848
 3279TIP3   OH231471   5.705   1.207   1.048 -0.4346 -0.4342 -0.4407
 3279TIP3    H131472   5.756   1.153   1.109  3.0411 -0.1201 -2.8155
 3279TIP3    H231473   5.689   1.150   0.973 -3.0043 -0.2359 -0.1292
 3280TIP3   OH231474   1.495   5.851   1.246  0.0189  0.5520  0.0798
 3280TIP3    H131475   1.467   5.773   1.296  1.5430  0.3864  0.7476
 3280TIP3    H231476   1.421   5.871   1.190  0.0785 -2.2760 -1.1957
 3281TIP3   OH231477   4.860   1.225   0.806 -0.8750  0.2257 -0.1431
 3281TIP3    H131478   4.836   1.318   0.814  0.0768  0.5447 -0.7839
 3281TIP3    H231479   4.893   1.201   0.892  0.3851  0.9537 -0.3960
 3282TIP3   OH231480   6.041   5.335   8.516  0.2119  0.1089 -0.0364
 3282TIP3    H131481   6.085   5.265   8.468  0.9751  1.4066 -1.2870
 3282TIP3    H231482   6.082   5.334   8.602  0.9027 -0.3417 -0.3636
 3283TIP3   OH231483   6.310   5.942   6.819 -0.2163  0.7115  0.3803
 3283TIP3    H131484   6.232   5.897   6.788  0.5571 -0.1759 -0.3131
 3283TIP3    H231485   6.344   5.988   6.742  0.3990  0.4227  0.4714
 3284TIP3   OH231486   1.613   0.051   8.302  0.6204  0.5123 -0.2853
 3284TIP3    H131487   1.623  -0.013   8.232  0.6769  0.8873 -0.6177
 3284TIP3    H231488   1.650   0.132   8.267 -0.8817  1.1519 -0.4635
 3285TIP3   OH231489   2.158   0.418   8.373 -0.3573 -0.4118 -0.1512
 3285TIP3    H131490   2.223   0.416   8.302  1.1872  0.5957  1.1581
 3285TIP3    H231491   2.187   0.350   8.434  0.4092  1.0132  1.1581
 3286TIP3   OH231492   1.751   0.636   1.177 -0.0346 -0.3221 -0.1278
 3286TIP3    H131493   1.816   0.570   1.153 -1.1793 -0.8046 -2.1649
 3286TIP3    H231494   1.667   0.593   1.162 -0.8476  0.6956  1.2417
 3287TIP3   OH231495   4.130   3.132   1.771  0.1607  0.4292 -0.1122
 3287TIP3    H131496   4.065   3.202   1.775 -0.6619 -0.3500  1.4996
 3287TIP3    H231497   4.205   3.165   1.820  0.0781  0.5055 -0.0353
 3288TIP3   OH231498   3.642   6.747   6.683  0.4569  0.1034  0.2857
 3288TIP3    H131499   3.699   6.800   6.740  0.8566 -0.6965  0.6484
 3288TIP3    H231500   3.649   6.658   6.719  1.2039 -0.5500 -1.3722
 3289TIP3   OH231501   6.576   0.750   1.319 -0.3574  0.1579  0.3899
 3289TIP3    H131502   6.530   0.666   1.318  1.0959 -0.6675 -0.5983
 3289TIP3    H231503   6.568   0.780   1.410 -0.5994 -1.2151  0.8531
 3290TIP3   OH231504   0.737   4.021   1.127  0.2678 -0.6214 -0.1382
 3290TIP3    H131505   0.646   4.050   1.118  1.2028  3.1008  0.9640
 3290TIP3    H231506   0.782   4.062   1.054  1.7116  0.9699  1.5728
 3291TIP3   OH231507   5.983   0.683   7.945 -0.4942 -0.0900 -0.6393
 3291TIP3    H131508   5.898   0.689   7.988  0.3703  0.4797  1.1017
 3291TIP3    H231509   6.002   0.773   7.917 -1.0374 -0.4540 -2.2366
 3292TIP3   OH231510   2.308   4.460   7.336  0.5893  0.4183  0.0817
 3292TIP3    H131511   2.337   4.473   7.246 -0.1915  0.7761 -0.1276
 3292TIP3    H231512   2.305   4.365   7.347  1.1885  0.3729 -0.0938
 3293TIP3   OH231513   2.106   0.811   2.338 -0.0512 -0.5409 -0.3212
 3293TIP3    H131514   2.049   0.835   2.412 -0.6436 -0.7087 -0.7132
 3293TIP3    H231515   2.174   0.756   2.377 -0.8181 -1.2986 -0.0185
 3294TIP3   OH231516   3.469   4.810   7.324 -0.1811  0.1258 -0.4188
 3294TIP3    H131517   3.492   4.810   7.231  2.4305 -4.2722 -0.0560
 3294TIP3    H231518   3.423   4.727   7.337  0.5130  0.0975  2.3471
 3295TIP3   OH231519   2.311   3.483   2.236  0.1665 -0.0762 -0.1040
 3295TIP3    H131520   2.358   3.566   2.230  0.8798 -0.5436 -1.4257
 3295TIP3    H231521   2.378   3.419   2.258 -0.6722 -0.0934  2.8529
 3296TIP3   OH231522   5.369   5.692   8.280 -0.1450 -0.4130  0.3854
 3296TIP3    H131523   5.370   5.618   8.219  0.9247 -0.5398  0.5279
 3296TIP3    H231524   5.458   5.693   8.317 -0.0994  1.0298  0.2844
 3297TIP3   OH231525   3.492   5.144   0.819 -0.7610  0.1997 -0.2494
 3297TIP3    H131526   3.491   5.063   0.871  0.5946 -0.4776 -1.2271
 3297TIP3    H231527   3.406   5.145   0.776 -1.1088 -0.2875  0.4079
 3298TIP3   OH231528   0.299   3.093   8.545 -0.1814  0.4464 -0.0095
 3298TIP3    H131529   0.337   3.065   8.628 -0.0769  1.8081  0.4415
 3298TIP3    H231530   0.209   3.062   8.547  0.3631 -1.2191 -0.2699
 3299TIP3   OH231531   4.134   6.476   0.953 -0.4374 -0.2001  0.0932
 3299TIP3    H131532   4.130   6.534   0.877 -0.5826  0.3570  0.5266
 3299TIP3    H231533   4.156   6.390   0.916 -2.1012 -0.2936 -0.7781
 3300TIP3   OH231534   4.620   5.856   6.868  0.0027  0.1134  0.0354
 3300TIP3    H131535   4.559   5.885   6.936  0.2114  2.8933 -0.8060
 3300TIP3    H231536   4.663   5.937   6.839  0.9931 -1.1583 -2.3583
 3301TIP3   OH231537   6.589   1.206   7.409  0.5323 -0.1361 -0.0217
 3301TIP3    H131538   6.537   1.129   7.433 -0.9955  0.3216 -1.6064
 3301TIP3    H231539   6.553   1.276   7.463  1.3514 -0.3443  0.8119
 3302TIP3   OH231540   2.364   1.788   0.956  0.2343  0.5116 -0.0334
 3302TIP3    H131541   2.334   1.875   0.931  1.0840  0.5044 -1.1536
 3302TIP3    H231542   2.439   1.771   0.898  1.1105 -0.2888  1.3003
 3303TIP3   OH231543   6.609   2.204   1.401 -0.3789  0.0794 -0.3210
 3303TIP3    H131544   6.649   2.275   1.350 -0.8224  0.5939  0.0346
 3303TIP3    H231545   6.608   2.130   1.341  0.4598  0.2523 -0.5704
 3304TIP3   OH231546   5.837   0.363   0.344  0.1904  0.1363 -0.3986
 3304TIP3    H131547   5.873   0.287   0.299  1.8375  0.5809  0.1191
 3304TIP3    H231548   5.762   0.328   0.392  1.8265 -1.5208  1.0965
 3305TIP3   OH231549   4.040   0.157   0.011  0.2207  0.2931 -0.2936
 3305TIP3    H131550   4.065   0.143  -0.080  2.1716  1.8805 -0.0637
 3305TIP3    H231551   3.973   0.225   0.007  1.4282  1.5264 -0.5112
 3306TIP3   OH231552   2.242   1.811   8.590  0.0247  0.2663 -0.2682
 3306TIP3    H131553   2.210   1.766   8.669  1.0516 -1.3412 -0.7125
 3306TIP3    H231554   2.335   1.791   8.588  0.0193  0.3285 -1.8629
 3307TIP3   OH231555   5.873   2.127   0.890 -0.6323  0.0050 -0.1970
 3307TIP3    H131556   5.932   2.063   0.849 -1.3324 -0.9081  0.2087
 3307TIP3    H231557   5.822   2.077   0.952 -2.3405  0.6418 -1.0261
 3308TIP3   OH231558   6.520   2.572   7.346 -0.7075 -0.0205  0.1777
 3308TIP3    H131559   6.472   2.624   7.411 -2.0705 -1.7072  0.6074
 3308TIP3    H231560   6.452   2.533   7.291  0.0728 -2.7419  0.9759
 3309TIP3   OH231561   4.770   4.189   8.614 -0.2963  0.2309  0.3363
 3309TIP3    H131562   4.788   4.096   8.627  0.5540 -0.0504 -2.3511
 3309TIP3    H231563   4.834   4.233   8.671 -0.3937 -0.7950  1.2816
 3310TIP3   OH231564   5.141   6.298   7.676 -0.2569 -0.2038 -0.5866
 3310TIP3    H131565   5.196   6.282   7.599 -0.7457  1.1548 -1.2630
 3310TIP3    H231566   5.203   6.326   7.744  0.4568 -3.4978  0.2677
 3311TIP3   OH231567   5.544   5.418   1.820 -0.0417  0.5315  0.2625
 3311TIP3    H131568   5.493   5.365   1.760  0.9986 -0.5225  0.2696
 3311TIP3    H231569   5.510   5.398   1.907 -0.1943  0.5049  0.1950
 3312TIP3   OH231570   3.967   2.016   0.835 -0.0847  0.6086  0.4526
 3312TIP3    H131571   4.015   2.097   0.813 -0.7735  0.9391  0.1468
 3312TIP3    H231572   3.895   2.045   0.890 -0.9898  0.3560 -0.5761
 3313TIP3   OH231573   5.875   4.788   8.480  0.2946 -0.3085 -0.0191
 3313TIP3    H131574   5.934   4.759   8.550 -0.1817 -1.8323 -0.2289
 3313TIP3    H231575   5.933   4.805   8.406  0.5192 -1.5143 -0.1324
 3314TIP3   OH231576   1.129   2.074   0.104  0.4146 -0.2107  0.4079
 3314TIP3    H131577   1.053   2.125   0.130  1.5121  0.8352  1.7412
 3314TIP3    H231578   1.164   2.040   0.187  0.5095 -2.0060 -0.3222
 3315TIP3   OH231579   5.153   6.651   0.009  0.0363  0.2104 -0.5277
 3315TIP3    H131580   5.146   6.598   0.088  0.3419 -1.3495 -1.5009
 3315TIP3    H231581   5.199   6.730   0.037  0.2481 -0.3716  0.8228
 3316TIP3   OH231582   6.105   0.664   8.460 -0.2250  0.0912 -0.5350
 3316TIP3    H131583   6.146   0.729   8.404 -0.5843  1.9460  1.2576
 3316TIP3    H231584   6.176   0.605   8.485  0.6707  1.3169 -0.1127
 3317TIP3   OH231585   2.182   3.718   6.518  0.1259 -0.5066 -0.7801
 3317TIP3    H131586   2.258   3.741   6.570 -0.5080  0.4307 -0.2413
 3317TIP3    H231587   2.176   3.788   6.452 -1.6459  0.8294  0.6871
 3318TIP3   OH231588   4.504   2.292   7.870 -0.5834  0.9008 -0.1516
 3318TIP3    H131589   4.502   2.388   7.871  1.2662  0.9603  0.3058
 3318TIP3    H231590   4.563   2.270   7.798  0.9802  0.1872  1.2818
 3319TIP3   OH231591   3.775   5.477   6.102 -0.6298  0.2636 -0.0297
 3319TIP3    H131592   3.864   5.513   6.093 -0.3578 -0.2635  0.4408
 3319TIP3    H231593   3.775   5.437   6.189 -2.0600  2.2751  0.9757
 3320TIP3   OH231594   0.253   5.795   0.614 -0.4682 -0.0496  0.2194
 3320TIP3    H131595   0.270   5.796   0.709 -0.1636  0.4593  0.1688
 3320TIP3    H231596   0.333   5.759   0.576 -1.1969 -1.7794  0.2436
 3321TIP3   OH231597   2.075   3.371   0.286 -0.1157 -0.4600  0.5601
 3321TIP3    H131598   2.032   3.299   0.332  0.1476 -0.4418  0.8371
 3321TIP3    H231599   2.004   3.431   0.263 -0.0666  0.5031  2.6571
 3322TIP3   OH231600   6.227   0.998   0.933 -0.0664  0.2049  0.0407
 3322TIP3    H131601   6.246   1.009   1.026 -2.4046 -0.6303  0.6826
 3322TIP3    H231602   6.132   0.999   0.928 -0.0358 -1.4215 -2.1276
 3323TIP3   OH231603   2.150   5.932   1.535 -0.0515 -0.1076 -0.0092
 3323TIP3    H131604   2.085   5.951   1.467 -0.9926  1.3188  1.2142
 3323TIP3    H231605   2.098   5.910   1.612  0.9194  0.5582  0.8623
 3324TIP3   OH231606   5.206   0.382   6.640 -0.4155 -0.6922  0.2052
 3324TIP3    H131607   5.244   0.467   6.618 -0.8627  0.2301  2.6495
 3324TIP3    H231608   5.112   0.398   6.646 -0.4384 -1.1331  1.4155
 3325TIP3   OH231609   4.551   1.178   7.701 -0.0159  0.1748  0.2021
 3325TIP3    H131610   4.583   1.093   7.672 -1.4411 -0.6254  0.8864
 3325TIP3    H231611   4.608   1.201   7.775 -0.8476 -1.1282  1.2792
 3326TIP3   OH231612   3.415   5.657   2.158  0.2292  0.0003 -0.1998
 3326TIP3    H131613   3.501   5.696   2.141  1.2111 -1.8724  0.1579
 3326TIP3    H231614   3.428   5.564   2.143 -2.2000 -0.1678 -1.7618
 3327TIP3   OH231615   2.269   5.561   0.805  0.3420 -0.0651  0.4855
 3327TIP3    H131616   2.311   5.556   0.891 -0.0749 -0.1451  0.6860
 3327TIP3    H231617   2.264   5.470   0.776  0.1215 -0.0731  0.5509
 3328TIP3   OH231618   2.077   6.703   7.924 -0.3183  0.1828  0.0364
 3328TIP3    H131619   2.093   6.643   7.997 -0.1453  0.0870 -0.0783
 3328TIP3    H231620   2.162   6.709   7.879 -0.1758  0.9791  0.3962
 3329TIP3   OH231621   2.993   4.874   0.902  0.4184  0.0003 -0.4424
 3329TIP3    H131622   2.916   4.839   0.947  0.7943 -0.2550  0.0165
 3329TIP3    H231623   3.005   4.961   0.939  0.8796 -0.3091  0.1490
 3330TIP3   OH231624   1.832   0.948   0.449 -0.0396  0.5067 -0.1174
 3330TIP3    H131625   1.824   0.854   0.434  1.1153  0.5070 -0.8127
 3330TIP3    H231626   1.743   0.981   0.438 -0.2574 -0.3418 -1.0854
 3331TIP3   OH231627   4.490   1.254   1.641  0.2052 -0.2654  0.1167
 3331TIP3    H131628   4.560   1.270   1.703 -0.3570  0.0369  0.6843
 3331TIP3    H231629   4.449   1.173   1.671 -0.2990  0.0771  0.3613
 3332TIP3   OH231630   6.656   5.990   8.140  0.2923 -0.2701 -0.7525
 3332TIP3    H131631   6.727   6.054   8.137 -0.1860  0.3266  0.1114
 3332TIP3    H231632   6.688   5.922   8.199 -0.2020  0.4710  0.4120
 3333TIP3   OH231633   6.217   6.792   0.571  0.3611  0.1725  0.3783
 3333TIP3    H131634   6.125   6.817   0.578 -0.0095 -1.0360  0.0726
 3333TIP3    H231635   6.219   6.700   0.596  1.8023  0.6608  2.2760
 3334TIP3   OH231636   2.972   1.934   1.158 -0.2794  0.4516 -0.0396
 3334TIP3    H131637   2.956   1.938   1.253 -0.0180 -0.3695  0.0484
 3334TIP3    H231638   3.057   1.977   1.147 -0.6043  1.1252  0.0086
 3335TIP3   OH231639   1.522   3.217   2.290 -0.3823 -0.7470 -0.1599
 3335TIP3    H131640   1.428   3.205   2.295 -0.2892 -0.9720  1.9146
 3335TIP3    H231641   1.557   3.170   2.366  1.0367  2.3133  1.2989
 3336TIP3   OH231642   3.611   0.555   2.586 -0.6122 -0.2881  0.0750
 3336TIP3    H131643   3.648   0.477   2.625  0.3734 -0.1188 -0.4893
 3336TIP3    H231644   3.582   0.527   2.499  0.4048  0.1256 -0.4078
 3337TIP3   OH231645   4.868   4.198   1.439  0.3161  0.1418  0.1809
 3337TIP3    H131646   4.956   4.161   1.432  0.9428  1.4139  0.8609
 3337TIP3    H231647   4.876   4.266   1.507 -0.8790  1.1421 -0.6329
 3338TIP3   OH231648   0.185   0.140   8.292  0.2140  0.6801 -0.1541
 3338TIP3    H131649   0.125   0.069   8.272  0.8904 -0.2534  0.9678
 3338TIP3    H231650   0.133   0.220   8.282 -0.8902 -0.0317 -0.2508
 3339TIP3   OH231651   6.689   3.213   2.335  0.5332 -0.3393  0.1642
 3339TIP3    H131652   6.640   3.192   2.415 -0.0890 -0.0298 -0.1299
 3339TIP3    H231653   6.720   3.303   2.350 -2.0013  0.8370 -1.0827
 3340TIP3   OH231654   2.470   1.847   1.971 -0.2389  0.6317 -0.1158
 3340TIP3    H131655   2.525   1.783   2.017  1.9484  0.9210 -2.0902
 3340TIP3    H231656   2.486   1.930   2.016 -0.7643  0.3353  0.6322
 3341TIP3   OH231657   5.234   4.194   0.429 -0.5701 -0.1978  0.2861
 3341TIP3    H131658   5.229   4.197   0.333 -1.2958 -0.1301  0.3278
 3341TIP3    H231659   5.253   4.102   0.448 -0.4332 -0.2147  0.0829
 3342TIP3   OH231660   5.077   0.441   7.194 -0.1940  0.7268  0.2721
 3342TIP3    H131661   5.036   0.408   7.113  0.4081 -0.2999  0.3594
 3342TIP3    H231662   5.113   0.526   7.170  0.0050  0.4223 -0.5693
 3343TIP3   OH231663   2.363   5.151   6.688 -0.0777 -0.3620  0.1424
 3343TIP3    H131664   2.308   5.229   6.694 -0.0103 -0.2374 -0.6727
 3343TIP3    H231665   2.409   5.147   6.771 -1.1072 -0.3113  0.7331
 3344TIP3   OH231666   0.267   1.361   6.873 -0.2641 -0.1547  0.5636
 3344TIP3    H131667   0.206   1.418   6.827  0.1377  0.5003  0.8175
 3344TIP3    H231668   0.318   1.318   6.804 -0.7830 -0.4490  0.3638
 3345TIP3   OH231669   0.994   6.400   2.373 -0.1433 -0.5420 -0.0733
 3345TIP3    H131670   0.985   6.351   2.455 -1.4046 -0.9110 -0.3997
 3345TIP3    H231671   0.967   6.489   2.395  2.2173  0.0754  0.5370
 3346TIP3   OH231672   0.838   1.981   8.826 -0.2487  0.2641 -0.6049
 3346TIP3    H131673   0.925   2.006   8.858 -1.2205  1.1341  1.5108
 3346TIP3    H231674   0.822   2.040   8.752  0.5674  0.7488 -0.4070
 3347TIP3   OH231675   2.620   1.889   8.229 -0.2776  0.4540  0.1875
 3347TIP3    H131676   2.568   1.820   8.271  1.2333 -1.6792 -1.2394
 3347TIP3    H231677   2.561   1.926   8.163 -0.0126 -2.1841 -1.6669
 3348TIP3   OH231678   6.375   4.299   2.148 -0.4784 -0.6424 -0.3720
 3348TIP3    H131679   6.450   4.353   2.124  0.0499  0.2365  2.8023
 3348TIP3    H231680   6.299   4.356   2.134 -0.2134 -0.2276 -0.1551
 3349TIP3   OH231681   4.046   1.094   7.085  0.1621  0.0173 -0.0381
 3349TIP3    H131682   3.950   1.099   7.079  0.0312 -1.7501  0.0869
 3349TIP3    H231683   4.076   1.157   7.019 -1.0685  0.7374  0.0371
 3350TIP3   OH231684   3.891   3.139   8.238 -0.0335 -0.1615  0.7818
 3350TIP3    H131685   3.915   3.124   8.330 -1.4546 -0.6234  1.1059
 3350TIP3    H231686   3.817   3.080   8.224  0.6797 -0.7027 -0.9100
 3351TIP3   OH231687   2.759   2.442   8.127  0.4247  0.4316  0.4043
 3351TIP3    H131688   2.668   2.433   8.156  0.9612 -0.9508  1.7661
 3351TIP3    H231689   2.802   2.490   8.198  1.7255 -2.8676  2.0670
 3352TIP3   OH231690   2.625   6.485   1.197 -0.0810  0.2725  0.3239
 3352TIP3    H131691   2.681   6.408   1.204 -0.4993 -0.1330 -0.6288
 3352TIP3    H231692   2.566   6.478   1.272 -1.2467 -1.2910 -0.6902
 3353TIP3   OH231693   4.057   1.815   8.069  0.5726 -0.0106 -0.1764
 3353TIP3    H131694   4.051   1.911   8.068 -1.6139 -0.0947 -1.1426
 3353TIP3    H231695   4.140   1.796   8.026 -0.0409  1.4421 -2.1712
 3354TIP3   OH231696   3.128   0.040   0.482 -0.5240  0.8873 -1.1355
 3354TIP3    H131697   3.034   0.021   0.479 -0.5568 -0.2230  2.5009
 3354TIP3    H231698   3.170  -0.039   0.448 -0.9329 -0.8030  1.9460
 3355TIP3   OH231699   4.463   5.501   1.202 -0.5025  0.0200 -0.3552
 3355TIP3    H131700   4.383   5.531   1.245 -0.3169  1.6398 -1.0863
 3355TIP3    H231701   4.432   5.441   1.134 -1.1202  0.7295 -0.7130
 3356TIP3   OH231702   1.229   5.175   7.759 -0.1333 -0.2939 -0.0599
 3356TIP3    H131703   1.276   5.129   7.690  1.2062  0.9440 -0.0191
 3356TIP3    H231704   1.284   5.164   7.837 -0.3989  0.3636  0.2270
 3357TIP3   OH231705   1.570   2.746   7.976  0.3226  0.0789 -0.4065
 3357TIP3    H131706   1.602   2.809   8.041 -0.6036  0.6091 -0.4590
 3357TIP3    H231707   1.498   2.790   7.932 -0.8115 -1.2639  0.0401
 3358TIP3   OH231708   5.173   5.683   0.935 -0.9843  0.7608  0.2423
 3358TIP3    H131709   5.263   5.716   0.932 -0.2674 -1.1009 -1.8677
 3358TIP3    H231710   5.174   5.617   1.004 -1.2230  1.9763  1.4224
 3359TIP3   OH231711   3.475   3.517   2.086  0.4710 -0.0813 -0.2473
 3359TIP3    H131712   3.435   3.431   2.096  1.5549 -0.6252 -0.4452
 3359TIP3    H231713   3.486   3.550   2.175  2.0420 -1.1049 -0.0296
 3360TIP3   OH231714   4.809   6.810   1.355 -0.2408 -0.1575  0.1103
 3360TIP3    H131715   4.904   6.820   1.349 -0.1747 -1.2118 -1.0682
 3360TIP3    H231716   4.795   6.717   1.373 -1.0305  0.1630  1.2534
 3361TIP3   OH231717   1.343   6.344   8.109  0.1332 -0.1317 -0.0365
 3361TIP3    H131718   1.340   6.356   8.015  1.1471  2.2735  0.1669
 3361TIP3    H231719   1.255   6.368   8.139  0.0606 -0.0572 -0.3079
 3362TIP3   OH231720   1.581   5.985   7.864 -0.2706 -0.3350  0.3067
 3362TIP3    H131721   1.617   6.037   7.935 -0.9470  1.3909 -0.5431
 3362TIP3    H231722   1.493   5.960   7.895 -1.8538  3.0366 -0.9725
 3363TIP3   OH231723   0.513   6.198   0.944  0.3966  0.6443 -0.3302
 3363TIP3    H131724   0.491   6.241   1.027  2.2898 -0.5553  0.8845
 3363TIP3    H231725   0.563   6.263   0.896  1.0291  0.6919  0.3736
 3364TIP3   OH231726   1.473   1.368   8.611 -0.2430  0.2226  0.0470
 3364TIP3    H131727   1.427   1.451   8.605 -0.3124  0.1562 -0.3668
 3364TIP3    H231728   1.419   1.306   8.562  0.2208  0.1213 -0.3583
 3365TIP3   OH231729   2.033   1.071   1.891  0.0381  0.4692  0.3930
 3365TIP3    H131730   2.120   1.034   1.910 -0.2289 -0.3346  0.0982
 3365TIP3    H231731   2.047   1.166   1.888  0.1776  0.7506  4.3854
 3366TIP3   OH231732   1.885   6.652   7.537 -0.5476  0.1102  0.0325
 3366TIP3    H131733   1.816   6.687   7.481 -1.5968 -1.0660  0.5498
 3366TIP3    H231734   1.866   6.559   7.543  0.1485  0.0314  1.4856
 3367TIP3   OH231735   1.342   3.023   1.097 -0.2311 -0.3553  0.4725
 3367TIP3    H131736   1.384   3.099   1.056 -0.6234 -0.5080 -0.2430
 3367TIP3    H231737   1.409   2.955   1.095  0.0160 -0.1291  0.8225
 3368TIP3   OH231738   1.349   2.313   8.841 -0.2243 -0.0915  0.3009
 3368TIP3    H131739   1.254   2.307   8.849 -0.1822  1.0970  2.1525
 3368TIP3    H231740   1.364   2.331   8.748 -1.6653 -2.0174 -0.3659
 3369TIP3   OH231741   4.782   1.431   7.269 -0.0439  0.6190 -0.0041
 3369TIP3    H131742   4.713   1.371   7.300  2.0856 -0.9722  2.0236
 3369TIP3    H231743   4.804   1.483   7.346  0.4437  1.6978 -0.8609
 3370TIP3   OH231744   2.295   4.616   0.250  0.1687 -0.4089  0.3925
 3370TIP3    H131745   2.220   4.603   0.308 -0.4848 -0.5452 -0.4504
 3370TIP3    H231746   2.260   4.598   0.162  0.6168  1.6236 -0.2680
 3371TIP3   OH231747   5.258   1.674   0.772 -0.5571 -0.0089  0.1163
 3371TIP3    H131748   5.209   1.651   0.693  2.5243 -2.7948 -1.2201
 3371TIP3    H231749   5.316   1.745   0.745  0.9588 -1.4028 -0.3714
 3372TIP3   OH231750   3.931   0.425   7.265 -0.3310  0.3984  0.2713
 3372TIP3    H131751   3.836   0.423   7.258 -0.2578 -0.5718 -0.7757
 3372TIP3    H231752   3.957   0.504   7.219 -0.5351 -0.4665 -1.4240
 3373TIP3   OH231753   0.460   3.321   8.163  0.1328 -0.0745  0.1290
 3373TIP3    H131754   0.434   3.362   8.245 -0.1307 -1.0525  0.5582
 3373TIP3    H231755   0.464   3.392   8.100 -2.5244  0.2875  0.2951
 3374TIP3   OH231756   3.734   2.921   7.040  0.1273 -0.3933  0.4634
 3374TIP3    H131757   3.764   2.945   6.952 -0.0849  1.7375  0.9020
 3374TIP3    H231758   3.655   2.974   7.052 -1.0266 -2.2201  1.1785
 3375TIP3   OH231759   5.283   1.817   8.632 -0.1933  0.5039  0.4491
 3375TIP3    H131760   5.242   1.753   8.691  0.2089 -0.5996 -0.4356
 3375TIP3    H231761   5.247   1.901   8.660 -0.4660 -0.0565  1.8773
 3376TIP3   OH231762   2.615   5.731   2.161 -0.6144  0.2534  0.9414
 3376TIP3    H131763   2.652   5.818   2.178  0.8332 -0.0677 -0.3406
 3376TIP3    H231764   2.629   5.718   2.068  1.1081 -2.1807  1.4389
 3377TIP3   OH231765   6.685   6.772   8.445 -0.2342 -0.2046 -0.5751
 3377TIP3    H131766   6.614   6.825   8.482  0.3686 -0.4690  0.9953
 3377TIP3    H231767   6.640   6.695   8.409 -0.8310  0.0781 -0.4548
 3378TIP3   OH231768   1.153   1.417   2.723  0.0602  0.0267  0.3355
 3378TIP3    H131769   1.242   1.392   2.745  0.2254  1.4517  1.3809
 3378TIP3    H231770   1.115   1.338   2.684  1.9424 -0.4216 -0.6855
 3379TIP3   OH231771   4.022   5.289   6.703  0.3346  0.7988 -0.6361
 3379TIP3    H131772   3.998   5.204   6.667  1.2320  1.1119 -2.0297
 3379TIP3    H231773   4.050   5.341   6.628  2.3885  1.4434  0.4749
 3380TIP3   OH231774   6.062   0.153   6.429 -0.6729  0.1813 -0.6076
 3380TIP3    H131775   6.049   0.059   6.439 -0.2075 -0.0549 -1.9645
 3380TIP3    H231776   6.107   0.162   6.345  0.3175  1.5379  0.0285
 3381TIP3   OH231777   4.472   6.128   1.361  0.0839  0.0788 -0.1207
 3381TIP3    H131778   4.477   6.045   1.408  2.1430  0.3357  0.1951
 3381TIP3    H231779   4.412   6.110   1.288 -0.5092 -1.2984  0.6609
 3382TIP3   OH231780   4.804   5.855   0.676 -0.6006  0.2840  0.5128
 3382TIP3    H131781   4.795   5.944   0.710  0.1962  0.8132 -0.6182
 3382TIP3    H231782   4.897   5.836   0.683 -0.4363  0.3387 -1.1535
 3383TIP3   OH231783   6.150   4.147   8.208  0.4439 -0.6463  0.1601
 3383TIP3    H131784   6.197   4.226   8.184 -0.4098 -0.3416 -0.5676
 3383TIP3    H231785   6.076   4.178   8.261  0.3246 -0.9878  0.2001
 3384TIP3   OH231786   4.351   4.701   1.386  0.1820 -0.6862 -0.1195
 3384TIP3    H131787   4.314   4.781   1.423 -1.4979 -0.5915 -1.8032
 3384TIP3    H231788   4.412   4.731   1.319 -0.2797 -0.8026 -0.5980
 3385TIP3   OH231789   3.788   2.958   0.516 -0.6003  0.0477  0.4007
 3385TIP3    H131790   3.721   3.025   0.527 -0.4980  0.2017  0.1069
 3385TIP3    H231791   3.743   2.885   0.473 -0.3373  0.5848 -0.8442
 3386TIP3   OH231792   0.943   3.689   7.793 -0.6153 -0.2299 -0.1080
 3386TIP3    H131793   1.002   3.632   7.745 -0.0451 -0.6877  1.0946
 3386TIP3    H231794   0.874   3.631   7.825 -1.1936  0.1338 -0.6591
 3387TIP3   OH231795   2.472   0.478   1.261  0.2641  0.0069 -1.5060
 3387TIP3    H131796   2.466   0.478   1.357 -0.6945  1.7872 -1.5320
 3387TIP3    H231797   2.418   0.404   1.234  0.4064 -0.4122 -0.6827
 3388TIP3   OH231798   0.043   6.770   7.168 -0.0354  0.4093 -0.2855
 3388TIP3    H131799   0.081   6.698   7.217 -1.0766 -1.7453 -2.4381
 3388TIP3    H231800   0.027   6.839   7.233 -0.1440 -1.7554  2.0988
 3389TIP3   OH231801   2.727   2.816   7.641 -0.5822 -0.0379  0.2215
 3389TIP3    H131802   2.755   2.788   7.554 -0.1427 -0.4063  0.4713
 3389TIP3    H231803   2.772   2.755   7.700 -0.9473  0.1529  0.6972
 3390TIP3   OH231804   4.512   1.826   1.967  0.5291 -0.2343 -0.0243
 3390TIP3    H131805   4.505   1.731   1.962  2.4433 -0.4268  0.2153
 3390TIP3    H231806   4.530   1.844   2.060  0.0610  0.3766 -0.0451
 3391TIP3   OH231807   0.951   4.915   0.725 -0.2501 -0.3890  0.7777
 3391TIP3    H131808   1.024   4.853   0.730 -1.7062 -2.2219  0.3066
 3391TIP3    H231809   0.897   4.883   0.653 -1.2161  1.2913  0.6961
 3392TIP3   OH231810   0.261   3.443   0.044  0.5788 -0.0145 -0.4924
 3392TIP3    H131811   0.307   3.460   0.126  0.1754  0.3904 -0.3469
 3392TIP3    H231812   0.223   3.356   0.054  0.5975  0.0025 -0.2813
 3393TIP3   OH231813   2.249   5.811   6.858  0.2401  0.2329 -0.7086
 3393TIP3    H131814   2.288   5.829   6.773 -0.2035  1.8112 -0.6085
 3393TIP3    H231815   2.156   5.799   6.839  0.4474 -1.8566 -0.7244
 3394TIP3   OH231816   5.117   2.345   8.753  0.8162  0.3929 -0.3903
 3394TIP3    H131817   5.131   2.380   8.842  0.8743  1.0975 -0.6683
 3394TIP3    H231818   5.035   2.386   8.724  0.8633  0.2613 -0.7107
 3395TIP3   OH231819   5.174   2.654   0.422  0.0484 -0.0638 -0.4383
 3395TIP3    H131820   5.182   2.738   0.469 -2.3719 -0.6298  1.2175
 3395TIP3    H231821   5.263   2.621   0.416  0.7480  1.2530  1.5859
 3396TIP3   OH231822   4.236   6.362   1.402 -0.5215  0.2915 -0.5630
 3396TIP3    H131823   4.322   6.355   1.361  0.8866 -2.0608  2.3943
 3396TIP3    H231824   4.250   6.419   1.477 -2.0470  1.2852 -0.9846
 3397TIP3   OH231825   4.870   1.877   1.369 -0.2419  0.3042  0.1294
 3397TIP3    H131826   4.802   1.884   1.303  0.0832 -0.6718 -0.3152
 3397TIP3    H231827   4.902   1.787   1.363  1.0191  0.7064  0.3927
 3398TIP3   OH231828   1.486   1.847   0.923 -0.1288  0.1555  0.3119
 3398TIP3    H131829   1.395   1.820   0.908  0.1930 -1.5703  1.1099
 3398TIP3    H231830   1.522   1.777   0.979  2.0773  0.0575 -1.1162
 3399TIP3   OH231831   0.868   2.590   7.468 -0.3810 -0.2633  0.0094
 3399TIP3    H131832   0.959   2.613   7.451 -1.0180  1.9890 -0.8120
 3399TIP3    H231833   0.861   2.590   7.563  1.1143 -3.6168  0.2459
 3400TIP3   OH231834   1.778   4.946   7.486  0.1130 -0.0405 -0.1515
 3400TIP3    H131835   1.740   4.983   7.406  2.6577 -1.7139 -2.2800
 3400TIP3    H231836   1.869   4.974   7.484  0.1273  0.4189  2.6133
 3401TIP3   OH231837   3.978   1.119   1.195  0.4672  0.5503  0.3337
 3401TIP3    H131838   4.013   1.061   1.263  0.8746  1.4506  0.9178
 3401TIP3    H231839   3.891   1.143   1.226 -0.0091 -0.3286 -0.2795
 3402TIP3   OH231840   6.316   0.391   8.581  0.3595  0.4105  0.8655
 3402TIP3    H131841   6.351   0.380   8.670  0.3114  0.3842  0.8812
 3402TIP3    H231842   6.241   0.331   8.577  0.2843  0.5050  0.8479
 3403TIP3   OH231843   2.797   2.233   1.000  0.2716 -0.2312  0.1662
 3403TIP3    H131844   2.870   2.272   1.048 -1.0602 -1.1735  3.2544
 3403TIP3    H231845   2.719   2.276   1.035 -0.7883  0.3928 -2.6677
 3404TIP3   OH231846   3.558   5.566   5.980  0.2860  0.0311  0.2092
 3404TIP3    H131847   3.512   5.487   5.951 -1.2399  0.0166  2.4004
 3404TIP3    H231848   3.631   5.534   6.033  1.5393  0.1016 -1.3940
 3405TIP3   OH231849   0.840   3.334   8.491  0.0632 -0.4737 -0.1048
 3405TIP3    H131850   0.916   3.376   8.531 -1.1706  0.8285  0.9954
 3405TIP3    H231851   0.869   3.311   8.402  0.9862  2.3741 -0.6425
 3406TIP3   OH231852   1.553   6.359   1.677  0.2725  0.0111  0.1860
 3406TIP3    H131853   1.555   6.438   1.624  1.3132 -0.8297 -1.0925
 3406TIP3    H231854   1.470   6.317   1.653 -0.0711  0.4743  0.5370
 3407TIP3   OH231855   0.569   0.659   1.284 -0.1596  0.3688  0.4716
 3407TIP3    H131856   0.657   0.692   1.297  0.2838 -0.8713  0.7737
 3407TIP3    H231857   0.530   0.658   1.372 -0.2287  0.2721  0.4414
 3408TIP3   OH231858   4.038   5.510   7.186 -0.3486 -0.7399 -0.1688
 3408TIP3    H131859   4.053   5.439   7.123 -1.3114 -1.0187 -0.0893
 3408TIP3    H231860   4.015   5.586   7.133 -1.2570 -1.0003 -0.1574
 3409TIP3   OH231861   5.630   4.207   7.381  0.4476  0.0676 -0.2549
 3409TIP3    H131862   5.671   4.121   7.377  0.7347  0.1358  0.7746
 3409TIP3    H231863   5.642   4.235   7.472 -0.9983  0.5313 -0.1738
 3410TIP3   OH231864   5.697   1.569   0.210 -0.1497  0.0366 -1.0830
 3410TIP3    H131865   5.701   1.498   0.275 -0.9407 -0.4586 -1.5546
 3410TIP3    H231866   5.778   1.560   0.160  0.7163  0.7342  0.1269
 3411TIP3   OH231867   2.824   2.711   0.566 -0.5075  0.1936  0.1302
 3411TIP3    H131868   2.840   2.790   0.513 -3.7497  1.5105  0.8205
 3411TIP3    H231869   2.893   2.711   0.632 -0.6783  2.8133  0.4129
 3412TIP3   OH231870   3.548   6.128   7.993 -0.2261 -0.0375  0.9364
 3412TIP3    H131871   3.643   6.118   7.990 -0.3691 -2.9229  1.9905
 3412TIP3    H231872   3.534   6.216   8.028  2.0377  0.4693  0.7264
 3413TIP3   OH231873   2.531   5.679   8.385 -0.7445  0.7387 -0.1183
 3413TIP3    H131874   2.608   5.736   8.378 -0.0335 -0.3189 -1.6914
 3413TIP3    H231875   2.565   5.596   8.419 -1.7574  1.1584  2.1002
 3414TIP3   OH231876   1.484   0.323   0.047 -0.0719 -0.4318  0.2505
 3414TIP3    H131877   1.504   0.417   0.058  0.9244 -0.6536  0.4706
 3414TIP3    H231878   1.399   0.312   0.088 -0.1591  0.3654  0.3162
 3415TIP3   OH231879   6.251   4.225   8.464  0.7270  0.0433 -0.2612
 3415TIP3    H131880   6.271   4.142   8.420  0.2457 -0.4526  0.4322
 3415TIP3    H231881   6.326   4.240   8.522  1.4604  0.8018 -1.3564
 3416TIP3   OH231882   6.448   0.619   7.181 -0.1144  0.1863  0.4058
 3416TIP3    H131883   6.412   0.656   7.101  2.0480  1.9313  0.1309
 3416TIP3    H231884   6.437   0.687   7.247  0.6239 -0.1066  0.8555
 3417TIP3   OH231885   4.368   4.179   0.925 -0.1918 -0.1950  0.1666
 3417TIP3    H131886   4.380   4.111   0.991  1.1038  0.8691  1.0929
 3417TIP3    H231887   4.385   4.136   0.841 -0.3179 -1.2057  0.6575
 3418TIP3   OH231888   3.009   0.344   8.416  0.0354  0.4286 -0.2634
 3418TIP3    H131889   3.027   0.421   8.363  2.5386 -0.0856 -0.2869
 3418TIP3    H231890   2.974   0.379   8.498  0.1694  1.5126 -0.6504
 3419TIP3   OH231891   0.807   3.948   0.045  0.2826  0.2463 -0.4106
 3419TIP3    H131892   0.766   4.025   0.005 -0.2209  0.9102  1.2962
 3419TIP3    H231893   0.823   3.974   0.136  0.8852 -1.3882 -0.0173
 3420TIP3   OH231894   3.349   2.313   1.082  0.2027  0.0933  0.1364
 3420TIP3    H131895   3.349   2.309   1.178  1.3226 -1.5692  0.0970
 3420TIP3    H231896   3.352   2.222   1.054 -1.0317  0.5055 -1.5251
 3421TIP3   OH231897   5.797   4.970   0.198 -0.2437  0.2176 -0.4861
 3421TIP3    H131898   5.862   4.963   0.268  0.2369 -5.2120 -1.0724
 3421TIP3    H231899   5.842   5.021   0.130  0.2712  3.2788  1.8789
 3422TIP3   OH231900   0.810   4.889   8.227 -0.4000  0.1481  0.5005
 3422TIP3    H131901   0.882   4.850   8.177  2.0612  0.6212  3.3834
 3422TIP3    H231902   0.809   4.981   8.200  2.1895  0.8635  2.4552
 3423TIP3   OH231903   1.152   1.025   7.774 -0.2975 -0.1561 -0.0112
 3423TIP3    H131904   1.123   1.109   7.811  0.5444  0.9771 -1.7783
 3423TIP3    H231905   1.075   0.991   7.729 -0.7727 -0.5893  1.0906
 3424TIP3   OH231906   5.957   0.103   0.282  0.4716  1.0158 -0.3422
 3424TIP3    H131907   5.932   0.061   0.365  1.4654  0.7826 -0.1514
 3424TIP3    H231908   5.970   0.031   0.221 -0.1461  1.1824 -0.6768
 3425TIP3   OH231909   3.018   1.301   7.511 -0.3653 -0.0832  0.1480
 3425TIP3    H131910   2.936   1.260   7.484 -0.1005  0.8486 -2.3750
 3425TIP3    H231911   3.085   1.237   7.486 -0.2006  0.0729  0.1963
 3426TIP3   OH231912   1.134   3.380   1.682  0.1189 -0.2441  0.8487
 3426TIP3    H131913   1.224   3.364   1.709  1.0406  0.4791 -1.5651
 3426TIP3    H231914   1.124   3.475   1.687 -0.5091 -0.3151  1.0566
 3427TIP3   OH231915   6.526   4.660   0.758 -0.3042 -0.1222 -0.0010
 3427TIP3    H131916   6.618   4.647   0.732 -0.5513  1.4792 -1.9766
 3427TIP3    H231917   6.502   4.744   0.717 -2.1162  0.4361  2.0376
 3428TIP3   OH231918   6.732   3.784   6.583 -0.2868  0.4022 -0.3253
 3428TIP3    H131919   6.733   3.763   6.489 -2.4425  0.6508 -0.4539
 3428TIP3    H231920   6.664   3.727   6.619  1.0512 -0.2574  1.2750
 3429TIP3   OH231921   2.742   2.325   0.706  0.5357  0.1758  0.2342
 3429TIP3    H131922   2.705   2.406   0.672  1.9205  0.6036 -0.3049
 3429TIP3    H231923   2.801   2.353   0.776 -0.1794 -0.5042  1.1526
 3430TIP3   OH231924   0.922   4.606   1.694 -0.0985 -0.5112  0.4516
 3430TIP3    H131925   0.929   4.605   1.599  0.9449 -1.6720  0.5307
 3430TIP3    H231926   1.002   4.565   1.726 -0.8472 -0.9912  1.8157
 3431TIP3   OH231927   1.093   5.883   7.174  0.0678  0.2814  0.2159
 3431TIP3    H131928   1.166   5.936   7.144  1.1585 -1.0751  0.3306
 3431TIP3    H231929   1.016   5.922   7.134  1.0332  0.8151 -1.1932
 3432TIP3   OH231930   2.284   2.243   7.914 -0.0930  0.5451  0.0881
 3432TIP3    H131931   2.302   2.268   8.005  0.2505  1.8788 -0.3251
 3432TIP3    H231932   2.208   2.186   7.920  1.4990 -1.5915  1.4652
 3433TIP3   OH231933   3.475   6.233   0.954 -0.1014 -0.2801  0.4494
 3433TIP3    H131934   3.543   6.298   0.971 -2.2021  2.1575  0.1653
 3433TIP3    H231935   3.432   6.220   1.038 -1.0504  0.4128  0.0961
 3434TIP3   OH231936   0.876   5.613   2.213  0.1765 -0.1404  0.0836
 3434TIP3    H131937   0.928   5.688   2.238 -1.1766  0.9675 -0.2962
 3434TIP3    H231938   0.825   5.592   2.291  0.7653 -0.8681  0.2827
 3435TIP3   OH231939   5.474   3.461   1.840 -0.3143 -0.7098 -0.5926
 3435TIP3    H131940   5.419   3.434   1.913 -1.1281 -1.4943 -1.4692
 3435TIP3    H231941   5.413   3.490   1.773  0.3967 -0.4540 -1.1451
 3436TIP3   OH231942   3.556   5.759   7.512  0.1821  0.3992  0.2107
 3436TIP3    H131943   3.545   5.669   7.542  0.3146  0.8235  1.6287
 3436TIP3    H231944   3.615   5.752   7.437 -2.0648 -0.9528 -1.5501
 3437TIP3   OH231945   0.358   6.702   7.628 -0.1709 -0.0705 -0.1335
 3437TIP3    H131946   0.434   6.684   7.573  0.0659 -0.2510  0.2485
 3437TIP3    H231947   0.353   6.797   7.632 -0.2975 -0.0562 -0.6146
 3438TIP3   OH231948   0.035   2.090   1.394  0.2079  0.1401 -0.1014
 3438TIP3    H131949   0.084   2.077   1.475  1.1989  1.3609 -0.4676
 3438TIP3    H231950  -0.054   2.111   1.422  0.4219  0.0747  0.6453
 3439TIP3   OH231951   4.715   0.735   0.768 -0.0170 -0.1641  0.3914
 3439TIP3    H131952   4.673   0.788   0.836  0.9404  1.1954 -0.0384
 3439TIP3    H231953   4.675   0.648   0.778 -0.3359  0.1433  2.2967
 3440TIP3   OH231954   3.187   3.709   0.400 -0.6364  0.1326 -0.2685
 3440TIP3    H131955   3.181   3.675   0.311  1.2948 -1.2774  0.0860
 3440TIP3    H231956   3.171   3.633   0.456  2.8342 -0.1916  0.5334
 3441TIP3   OH231957   1.098   6.300   1.170 -0.4113 -0.1954 -0.8292
 3441TIP3    H131958   1.117   6.219   1.123 -1.0641 -0.4696 -0.6335
 3441TIP3    H231959   1.035   6.346   1.114 -1.3124 -0.5970 -0.1697
 3442TIP3   OH231960   3.087   0.319   1.444  0.9516  0.4944 -0.4472
 3442TIP3    H131961   3.053   0.326   1.533 -2.0453  0.1777 -1.4422
 3442TIP3    H231962   3.091   0.225   1.426 -1.4195  0.5177 -1.5454
 3443TIP3   OH231963   4.987   4.170   0.875 -0.2833 -0.1605 -0.2725
 3443TIP3    H131964   5.077   4.193   0.851  0.0582 -0.8217  0.3283
 3443TIP3    H231965   4.986   4.074   0.872 -0.2538 -0.2864  2.1571
 3444TIP3   OH231966   3.698   6.685   7.309 -0.0756  0.3670  0.1010
 3444TIP3    H131967   3.674   6.771   7.344 -0.7133 -0.4384  1.7491
 3444TIP3    H231968   3.793   6.686   7.305 -0.0014  0.6041  1.6113
 3445TIP3   OH231969   5.413   0.818   8.460  0.2419 -0.5190 -0.0367
 3445TIP3    H131970   5.436   0.910   8.447  0.2867 -0.4909  0.2344
 3445TIP3    H231971   5.368   0.793   8.379  2.7337 -1.0558 -1.3675
 3446TIP3   OH231972   5.181   5.767   7.937 -0.0090  0.0853  0.6278
 3446TIP3    H131973   5.160   5.768   8.030  0.9920 -0.1351  0.8621
 3446TIP3    H231974   5.137   5.688   7.904 -0.8246  0.4576  0.7897
 3447TIP3   OH231975   5.773   2.479   8.796  0.6102 -0.1492  0.4578
 3447TIP3    H131976   5.850   2.503   8.744  0.5676 -1.4330 -0.2743
 3447TIP3    H231977   5.699   2.516   8.747  0.7326  0.7312  0.9365
 3448TIP3   OH231978   4.032   1.531   8.520  0.3813  0.2551  0.3680
 3448TIP3    H131979   4.061   1.514   8.430  0.7629  0.8847  0.3673
 3448TIP3    H231980   4.111   1.518   8.573  0.5421  1.4471  0.4303
 3449TIP3   OH231981   3.835   3.523   2.030  0.1809 -0.2100  0.3215
 3449TIP3    H131982   3.791   3.484   2.106 -0.4428 -0.4537 -0.1604
 3449TIP3    H231983   3.928   3.505   2.044 -0.0554 -1.4887  0.3291
 3450TIP3   OH231984   4.344   3.275   1.353  0.0564  0.0547  0.0831
 3450TIP3    H131985   4.255   3.244   1.370  0.5187 -1.6717 -0.5295
 3450TIP3    H231986   4.390   3.199   1.319  2.3669  0.3209  2.3489
 3451TIP3   OH231987   6.352   6.729   1.733 -0.7027 -0.7468 -0.3351
 3451TIP3    H131988   6.408   6.654   1.755 -1.0158 -1.1188 -0.7885
 3451TIP3    H231989   6.323   6.763   1.818  2.7469  1.4828  0.1784
 3452TIP3   OH231990   0.506   6.485   0.484 -0.4294  0.4306 -0.1198
 3452TIP3    H131991   0.505   6.581   0.493 -1.5099  0.4504 -0.3568
 3452TIP3    H231992   0.450   6.454   0.555 -0.6992  0.0173 -0.5112
 3453TIP3   OH231993   6.030   2.242   0.358 -0.3479  0.1948 -0.3881
 3453TIP3    H131994   6.089   2.168   0.370 -0.1092  0.5988  1.2105
 3453TIP3    H231995   5.976   2.243   0.437 -0.8549  1.2692 -0.7279
 3454TIP3   OH231996   6.314   2.681   8.090  0.2955  0.2458  0.1919
 3454TIP3    H131997   6.261   2.655   8.165 -1.0103  0.9019 -0.4555
 3454TIP3    H231998   6.366   2.755   8.122 -0.2761  0.5424  0.4472
 3455TIP3   OH231999   4.958   4.962   8.558  0.9723 -0.3977 -0.2898
 3455TIP3    H132000   5.004   4.889   8.600 -0.8771 -1.0491  0.7294
 3455TIP3    H232001   4.996   5.040   8.598  0.6225 -0.9500  1.2002
 3456TIP3   OH232002   2.363   1.063   0.591  0.3450 -0.1805  0.0868
 3456TIP3    H132003   2.320   1.045   0.674 -1.0777  1.2711 -0.2898
 3456TIP3    H232004   2.386   0.976   0.558 -2.2304 -1.0916  0.3934
 3457TIP3   OH232005   2.438   3.185   7.871  0.6111 -0.0347 -0.2530
 3457TIP3    H132006   2.509   3.125   7.845  0.3853 -0.8244  0.8409
 3457TIP3    H232007   2.359   3.132   7.866  0.4909 -0.0661  1.3969
 3458TIP3   OH232008   0.323   4.584   0.327  0.1436  0.9204 -0.0764
 3458TIP3    H132009   0.365   4.629   0.253 -0.4806  0.4465 -0.7284
 3458TIP3    H232010   0.326   4.648   0.398 -2.0098  2.6131 -1.3777
 3459TIP3   OH232011   1.407   1.556   0.744 -0.3721  0.6454 -0.7278
 3459TIP3    H132012   1.480   1.573   0.803 -2.2027  1.2923  1.4936
 3459TIP3    H232013   1.347   1.629   0.759 -3.2726 -1.8124  0.5514
 3460TIP3   OH232014   3.354   4.855   1.498  0.1430  0.1174  0.4913
 3460TIP3    H132015   3.432   4.909   1.497  2.2678 -2.7319  0.5949
 3460TIP3    H232016   3.336   4.836   1.406 -0.5316  0.8462  0.4615
 3461TIP3   OH232017   6.732   6.267   6.460 -0.1157 -0.2531  0.9274
 3461TIP3    H132018   6.706   6.197   6.520  0.9748 -1.2453  0.2634
 3461TIP3    H232019   6.825   6.282   6.478  0.0619 -0.1063 -0.0565
 3462TIP3   OH232020   6.576   3.308   8.388 -0.0899  0.7124  0.7153
 3462TIP3    H132021   6.503   3.324   8.329 -0.6707  1.9406  1.7161
 3462TIP3    H232022   6.579   3.385   8.444  1.9536  0.6644  0.7479
 3463TIP3   OH232023   0.396   2.163   1.607 -0.2067  0.2518 -0.0659
 3463TIP3    H132024   0.409   2.103   1.680  0.2462  0.8496  0.3597
 3463TIP3    H232025   0.468   2.226   1.615 -0.8191  0.9948 -0.3457
 3464TIP3   OH232026   2.332   0.196   2.097 -0.0601 -0.2697 -0.0295
 3464TIP3    H132027   2.256   0.252   2.085 -0.1935 -0.2896  0.7303
 3464TIP3    H232028   2.299   0.107   2.086  0.2013 -0.2155 -1.5089
 3465TIP3   OH232029   3.725   1.457   8.277 -0.4108 -0.8151  0.7275
 3465TIP3    H132030   3.748   1.444   8.369 -0.5777 -2.9165  0.5286
 3465TIP3    H232031   3.797   1.416   8.228  0.4172  1.5280 -0.1756
 3466TIP3   OH232032   1.207   3.404   7.557 -0.2470  0.1513  0.4120
 3466TIP3    H132033   1.271   3.441   7.618  0.0861 -0.8798  0.7032
 3466TIP3    H232034   1.135   3.467   7.557  1.3991  2.1671 -1.1332
 3467TIP3   OH232035   1.918   4.724   1.904  0.0834  0.3789 -0.3469
 3467TIP3    H132036   2.000   4.702   1.859  0.1310  1.1848 -0.6591
 3467TIP3    H232037   1.868   4.642   1.904 -0.8924  0.8095 -3.8545
 3468TIP3   OH232038   2.184   2.716   8.199  0.1972  0.1161  0.3624
 3468TIP3    H132039   2.214   2.774   8.269 -0.2006  1.2181 -0.3457
 3468TIP3    H232040   2.104   2.676   8.233  1.5574 -1.6375  1.6533
 3469TIP3   OH232041   4.404   5.527   1.693  0.2116  0.1761  0.6843
 3469TIP3    H132042   4.407   5.620   1.673 -2.0396 -0.3124 -2.9012
 3469TIP3    H232043   4.486   5.492   1.656  1.0954  0.6812  2.1074
 3470TIP3   OH232044   3.409   2.920   7.739 -0.1992 -0.4226 -0.0427
 3470TIP3    H132045   3.403   2.848   7.802 -1.3783 -0.9963 -0.7648
 3470TIP3    H232046   3.377   2.996   7.787 -0.8952 -0.8160  0.1390
 3471TIP3   OH232047   3.089   1.612   8.658  0.0205 -0.2293  0.1362
 3471TIP3    H132048   3.034   1.686   8.683  0.2720 -0.3341  1.0300
 3471TIP3    H232049   3.032   1.536   8.665  0.8477 -0.6946  3.5816
 3472TIP3   OH232050   3.226   6.675   7.685  0.1055 -0.3906  0.3477
 3472TIP3    H132051   3.177   6.683   7.767 -0.8177 -0.9274 -0.1315
 3472TIP3    H232052   3.290   6.606   7.701 -0.8940 -1.3789  0.2560
 3473TIP3   OH232053   3.045   3.639   6.973  0.1480  0.3277  0.7224
 3473TIP3    H132054   3.070   3.550   6.946 -0.3198  0.3200  0.2782
 3473TIP3    H232055   3.080   3.695   6.904 -0.3428  0.3942  0.5224
 3474TIP3   OH232056   6.235   2.753   0.083 -0.6511 -0.1443  0.1347
 3474TIP3    H132057   6.290   2.790   0.151  0.3724 -0.3292 -0.5729
 3474TIP3    H232058   6.147   2.785   0.104 -0.3026  0.0897  1.3241
 3475TIP3   OH232059   5.475   4.763   0.288  0.4865  0.4600 -0.3510
 3475TIP3    H132060   5.452   4.780   0.379 -2.6398 -2.4095 -0.4367
 3475TIP3    H232061   5.399   4.790   0.238 -0.0982 -2.7477 -1.4614
 3476TIP3   OH232062   3.012   5.629   7.341 -0.4058  0.4951 -0.0338
 3476TIP3    H132063   2.948   5.699   7.352  1.3561  1.8400  3.6345
 3476TIP3    H232064   3.095   5.669   7.369  1.7415 -1.6506 -2.8030
 3477TIP3   OH232065   0.885   6.177   8.767  0.0512 -0.2126 -0.1520
 3477TIP3    H132066   0.818   6.123   8.808  1.0495 -1.0874  0.3864
 3477TIP3    H232067   0.922   6.229   8.839  2.2657 -2.2346  0.3106
 3478TIP3   OH232068   3.663   0.428   7.134  0.7316 -0.3613 -0.4615
 3478TIP3    H132069   3.602   0.492   7.171  0.3165 -0.3696 -1.1197
 3478TIP3    H232070   3.685   0.463   7.047  2.1283 -0.0533 -0.0084
 3479TIP3   OH232071   6.134   4.995   2.456  0.0976 -0.3367 -0.8297
 3479TIP3    H132072   6.180   5.077   2.473 -2.6561  1.0114  0.9070
 3479TIP3    H232073   6.152   4.941   2.533 -0.2941 -0.2213 -0.6501
 3480TIP3   OH232074   6.066   2.947   0.221 -0.4750  0.2001  0.3465
 3480TIP3    H132075   6.070   2.890   0.298 -2.7098 -1.7419 -0.8213
 3480TIP3    H232076   6.022   3.026   0.251 -0.2647 -0.0443  1.3262
 3481TIP3   OH232077   5.122   2.799   0.888  0.1806 -0.0582  0.5060
 3481TIP3    H132078   5.123   2.753   0.804 -0.6016  1.9609 -0.6689
 3481TIP3    H232079   5.207   2.844   0.892  0.2937 -0.3019  0.8939
 3482TIP3   OH232080   4.151   0.705   0.081 -0.1137  0.7254 -0.4112
 3482TIP3    H132081   4.161   0.627   0.135 -2.2264  0.7287  0.0801
 3482TIP3    H232082   4.177   0.677  -0.007  0.5037 -0.1099  0.0262
 3483TIP3   OH232083   2.075   5.600   8.000 -0.0498  0.5040 -0.4143
 3483TIP3    H132084   2.156   5.583   8.048 -0.5266 -0.2705  0.1589
 3483TIP3    H232085   2.008   5.553   8.050 -0.9499  1.5967 -0.5593
 3484TIP3   OH232086   2.544   0.133   0.956  0.2901 -0.6644  0.2640
 3484TIP3    H132087   2.510   0.081   0.882 -0.9552 -0.4808  0.6903
 3484TIP3    H232088   2.638   0.137   0.940  0.2428 -1.9255 -0.4996
 3485TIP3   OH232089   5.287   5.478   1.998  0.2662 -0.1712 -0.6631
 3485TIP3    H132090   5.291   5.550   1.935  0.9362 -0.1584 -0.6138
 3485TIP3    H232091   5.249   5.517   2.077 -2.8010 -0.7053 -1.7297
 3486TIP3   OH232092   2.550   0.754   8.368 -0.3351  0.1706  0.1178
 3486TIP3    H132093   2.517   0.762   8.278 -0.6032 -1.8206  0.0058
 3486TIP3    H232094   2.613   0.681   8.364  1.4025  1.5288  1.0948
 3487TIP3   OH232095   5.890   6.777   1.821 -0.3034  0.3384  0.0052
 3487TIP3    H132096   5.801   6.808   1.805 -0.4781  0.0682  0.4282
 3487TIP3    H232097   5.915   6.819   1.903  0.2592  1.0431 -0.5196
 3488TIP3   OH232098   0.791   4.363   1.697  0.0143  0.9365 -0.2014
 3488TIP3    H132099   0.772   4.456   1.692 -1.8819  0.5876 -0.2598
 3488TIP3    H232100   0.715   4.320   1.658 -0.9748 -0.7308  3.1235
 3489TIP3   OH232101   1.437   5.034   7.901  0.1337 -0.3237  0.2704
 3489TIP3    H132102   1.501   4.995   7.842 -1.4138  1.1774 -2.6116
 3489TIP3    H232103   1.489   5.087   7.962  1.7511 -1.3932 -0.1227
 3490TIP3   OH232104   3.594   5.524   6.370 -0.1477  0.0309 -0.3978
 3490TIP3    H132105   3.668   5.463   6.371 -1.1696 -1.2503  1.0780
 3490TIP3    H232106   3.629   5.603   6.413 -0.0957 -1.2527  2.1384
 3491TIP3   OH232107   5.967   4.733   8.759 -0.4238 -0.7720  0.9419
 3491TIP3    H132108   5.985   4.820   8.794 -0.3623 -1.3415  2.4234
 3491TIP3    H232109   5.973   4.675   8.835  0.9953 -2.2839 -0.2271
 3492TIP3   OH232110   1.399   4.572   1.279  0.1210 -0.2512 -0.4076
 3492TIP3    H132111   1.304   4.565   1.289  0.0785  0.0127 -0.6048
 3492TIP3    H232112   1.413   4.568   1.184  0.1500  1.4814 -0.5190
 3493TIP3   OH232113   5.663   4.267   0.462  0.5915 -0.4577 -0.2283
 3493TIP3    H132114   5.610   4.343   0.486  1.7712 -0.0586  1.2279
 3493TIP3    H232115   5.728   4.302   0.402  0.8358 -0.4164  0.0607
 3494TIP3   OH232116   4.456   2.674   7.000  0.0078 -0.2112  0.2743
 3494TIP3    H132117   4.506   2.755   7.008  0.2789 -0.4722  1.3398
 3494TIP3    H232118   4.404   2.686   6.920  1.3026  0.3027 -0.5229
 3495TIP3   OH232119   5.680   0.628   8.419 -0.2038  0.5336  0.9359
 3495TIP3    H132120   5.745   0.672   8.363  0.4482 -1.1460  0.3131
 3495TIP3    H232121   5.713   0.539   8.428 -2.6181 -0.4939  0.2963
 3496TIP3   OH232122   6.203   4.894   7.893 -0.1281  0.4037 -0.7742
 3496TIP3    H132123   6.211   4.800   7.911 -2.7174  0.2509  0.0620
 3496TIP3    H232124   6.291   4.928   7.906  0.8280 -1.8557 -0.8030
 3497TIP3   OH232125   0.545   4.870   0.633  0.0371  0.1997 -0.0809
 3497TIP3    H132126   0.610   4.905   0.572  0.2880  0.9309  0.5883
 3497TIP3    H232127   0.595   4.845   0.710 -0.4079  0.3333  0.2582
 3498TIP3   OH232128   0.452   3.906   0.059 -0.3720 -0.4753  0.1105
 3498TIP3    H132129   0.369   3.859   0.071 -0.4411 -0.5126 -0.4613
 3498TIP3    H232130   0.520   3.840   0.074 -0.3343  0.1786  3.4142
 3499TIP3   OH232131   0.342   0.153   7.599 -0.1714 -1.0935 -0.7031
 3499TIP3    H132132   0.419   0.204   7.575  0.2905 -1.7948 -0.7363
 3499TIP3    H232133   0.335   0.162   7.694 -0.4059 -0.5459 -0.7662
 3500TIP3   OH232134   6.145   4.228   1.884  0.5285  0.0335  0.6793
 3500TIP3    H132135   6.184   4.310   1.915 -2.2829  1.6067  0.4408
 3500TIP3    H232136   6.186   4.213   1.799  0.4858  1.7069  0.3206
 3501TIP3   OH232137   4.918   0.366   1.418  0.1390  0.3097  0.0079
 3501TIP3    H132138   4.885   0.355   1.508  0.2421  1.1871  0.1624
 3501TIP3    H232139   4.841   0.394   1.368  0.2105  0.4006 -0.0515
 3502TIP3   OH232140   1.338   0.961   1.802 -0.4634  0.4374 -0.4974
 3502TIP3    H132141   1.263   0.933   1.855  1.4594 -2.6209  0.9131
 3502TIP3    H232142   1.352   0.888   1.740  0.8973  1.2739 -1.2263
 3503TIP3   OH232143   5.539   1.468   1.265 -0.0529  0.6427 -0.4102
 3503TIP3    H132144   5.471   1.427   1.212  0.7094 -0.2277 -0.7365
 3503TIP3    H232145   5.615   1.474   1.207 -0.3464  3.2944 -0.6601
 3504TIP3   OH232146   0.982   3.185   1.819 -0.0153 -0.8530 -0.0961
 3504TIP3    H132147   1.048   3.175   1.889 -0.8263 -1.1366  0.6410
 3504TIP3    H232148   1.010   3.263   1.772  1.0358 -1.1490  0.0051
 3505TIP3   OH232149   2.522   0.031   1.912 -0.2769  0.5165  0.3400
 3505TIP3    H132150   2.486   0.104   1.962 -1.2980 -0.0912  0.5462
 3505TIP3    H232151   2.445  -0.015   1.879  0.3246 -0.6385  0.4817
 3506TIP3   OH232152   1.104   3.826   1.168 -0.9906 -0.1543 -0.1173
 3506TIP3    H132153   1.130   3.900   1.113  0.0282  0.6295  1.3203
 3506TIP3    H232154   1.186   3.781   1.187 -1.1312  0.2003  1.5299
 3507TIP3   OH232155   2.614   0.716   7.827  0.5965 -0.0755  0.0048
 3507TIP3    H132156   2.583   0.783   7.767  1.4482  1.7719  1.5339
 3507TIP3    H232157   2.610   0.635   7.776 -0.8786  1.0255 -1.7652
 3508TIP3   OH232158   3.506   3.254   2.376  0.1707 -0.1384  0.3591
 3508TIP3    H132159   3.535   3.175   2.422 -0.0072 -0.4451 -0.0401
 3508TIP3    H232160   3.489   3.318   2.444  1.8548  0.0719  0.6143
 3509TIP3   OH232161   2.939   1.400   8.628  0.0257  0.0229 -0.3822
 3509TIP3    H132162   2.865   1.380   8.571  1.4422 -1.8516 -1.6930
 3509TIP3    H232163   3.003   1.332   8.609  1.0421 -0.0312  2.6847
 3510TIP3   OH232164   5.708   2.948   8.110 -0.4963 -0.6322  0.0175
 3510TIP3    H132165   5.744   3.035   8.093  0.4102 -0.8331  0.8235
 3510TIP3    H232166   5.765   2.888   8.063  1.4726 -1.1142  2.7729
 3511TIP3   OH232167   5.660   2.574   8.314  0.1835 -0.2798  0.2505
 3511TIP3    H132168   5.744   2.530   8.300  1.4307  2.4438 -1.8090
 3511TIP3    H232169   5.677   2.633   8.388  0.2007  0.4356 -0.3107
 3512TIP3   OH232170   0.855   3.071   1.327 -0.2424 -0.6776  0.2395
 3512TIP3    H132171   0.826   3.034   1.411 -2.1509 -0.8562 -0.4686
 3512TIP3    H232172   0.857   3.166   1.342 -1.1853 -0.6625  0.3264
 3513TIP3   OH232173   3.491   5.454   6.854 -0.1396 -0.3287  0.0537
 3513TIP3    H132174   3.576   5.487   6.885 -1.0547  0.4260  1.8551
 3513TIP3    H232175   3.489   5.479   6.761  1.0404  0.8619  0.3153
 3514TIP3   OH232176   2.163   0.733   8.828  0.3392  0.1645  0.4805
 3514TIP3    H132177   2.164   0.652   8.879  0.2723  0.6405  1.2670
 3514TIP3    H232178   2.167   0.705   8.737  2.9248 -0.6531  0.7754
 3515TIP3   OH232179   5.426   5.284   8.245 -0.0607  0.3897 -0.3944
 3515TIP3    H132180   5.507   5.318   8.283 -0.4057  1.9248 -0.9327
 3515TIP3    H232181   5.394   5.355   8.190 -2.1299  0.1135  0.3350
 3516TIP3   OH232182   3.418   4.336   2.218 -0.8566 -0.1934  0.2348
 3516TIP3    H132183   3.401   4.279   2.294 -0.1031 -0.6888  0.0427
 3516TIP3    H232184   3.397   4.424   2.249 -0.9847 -0.4446  0.8827
 3517TIP3   OH232185   3.852   5.178   1.115  0.5308 -0.0330 -0.0248
 3517TIP3    H132186   3.816   5.233   1.046 -0.5688 -0.3853  0.2326
 3517TIP3    H232187   3.793   5.193   1.190  0.6988 -0.9304  0.2972
 3518TIP3   OH232188   4.840   1.117   0.551  0.1978  0.2912  0.1913
 3518TIP3    H132189   4.821   1.206   0.522  2.6143  0.7693 -0.0966
 3518TIP3    H232190   4.825   1.120   0.646 -1.3401  0.5066 -0.0297
 3519TIP3   OH232191   2.526   2.333   7.809  0.4741  0.1183  0.1073
 3519TIP3    H132192   2.435   2.311   7.829 -0.0113  1.7294 -0.1760
 3519TIP3    H232193   2.577   2.286   7.875 -0.5349 -0.9335  0.1742
 3520TIP3   OH232194   3.266   6.220   0.383  0.2309  0.1971 -0.2305
 3520TIP3    H132195   3.181   6.264   0.385  0.5068  0.7648  1.8670
 3520TIP3    H232196   3.246   6.128   0.401  0.0835  0.4478  0.9871
 3521TIP3   OH232197   3.119   2.565   8.089 -0.1239  0.5209  0.2167
 3521TIP3    H132198   3.175   2.490   8.107 -1.6941 -0.9054 -0.5935
 3521TIP3    H232199   3.038   2.527   8.054 -1.0606  2.5772  0.0081
 3522TIP3   OH232200   3.171   0.038   1.193 -0.1510  0.1068 -0.5741
 3522TIP3    H132201   3.256   0.040   1.236 -0.3527  1.2157 -0.1760
 3522TIP3    H232202   3.119  -0.024   1.244  0.3527 -0.4422 -0.7166
 3523TIP3   OH232203   2.374   1.998   7.521 -0.3077  0.1911  0.5119
 3523TIP3    H132204   2.341   1.920   7.476  0.6048  0.9017 -1.5136
 3523TIP3    H232205   2.392   2.060   7.451  1.8257  1.1541  1.8066
 3524TIP3   OH232206   2.199   2.885   7.550  0.4930 -0.0131 -0.5652
 3524TIP3    H132207   2.139   2.820   7.586  0.2497  1.0357  0.9993
 3524TIP3    H232208   2.286   2.852   7.571  0.3891 -0.1643 -0.3728
 3525TIP3   OH232209   3.244   2.289   0.217  0.0499 -0.1120 -0.0040
 3525TIP3    H132210   3.195   2.213   0.185  0.8530  0.3849 -2.7346
 3525TIP3    H232211   3.192   2.324   0.289 -1.8172 -1.5535 -0.5958
 3526TIP3   OH232212   0.487   4.904   7.464  0.3753 -0.1450 -0.0208
 3526TIP3    H132213   0.431   4.890   7.387  0.7250  2.3450 -0.8529
 3526TIP3    H232214   0.576   4.885   7.432  0.2860 -1.6908  0.5823
 3527TIP3   OH232215   5.963   2.055   1.309 -0.1282 -0.4675  0.0948
 3527TIP3    H132216   6.013   2.055   1.228  1.6514  0.1508  1.1420
 3527TIP3    H232217   5.976   2.143   1.346 -2.9876  0.1739 -0.1257
 3528TIP3   OH232218   4.073   6.781   1.868 -0.2708  0.1263 -0.1968
 3528TIP3    H132219   3.989   6.777   1.914 -1.0721 -1.4888 -1.6926
 3528TIP3    H232220   4.137   6.793   1.938 -1.5633 -0.6367  1.1933
 3529TIP3   OH232221   6.778   4.605   0.683  0.6120  0.6795 -0.8628
 3529TIP3    H132222   6.839   4.545   0.641  1.0899  0.2993  0.3190
 3529TIP3    H232223   6.829   4.645   0.753 -0.4692  0.4129  0.1109
 3530TIP3   OH232224   2.738   4.521   1.396 -0.4950 -0.4715 -0.1679
 3530TIP3    H132225   2.699   4.569   1.323 -0.6786 -1.8600 -1.0161
 3530TIP3    H232226   2.801   4.581   1.434 -1.6589  0.9161 -0.3546
 3531TIP3   OH232227   3.654   2.361   1.343  0.2363 -0.6005  0.3543
 3531TIP3    H132228   3.648   2.269   1.316 -1.4037 -0.4533  0.1351
 3531TIP3    H232229   3.737   2.366   1.390  0.3140 -2.2248  0.4669
 3532TIP3   OH232230   6.141   5.643   1.981  0.3300 -0.5012 -0.7290
 3532TIP3    H132231   6.122   5.693   2.061  2.8187  1.1667 -1.0824
 3532TIP3    H232232   6.225   5.601   1.998  1.8188  1.3052 -3.0032
 3533TIP3   OH232233   5.166   1.677   1.047  0.5461 -0.3698 -0.2799
 3533TIP3    H132234   5.171   1.690   0.952 -0.2391  1.6237 -0.1011
 3533TIP3    H232235   5.170   1.765   1.083  0.6859 -1.0857  1.5507
 3534TIP3   OH232236   3.800   3.447   7.185  0.1280  0.1279  0.1889
 3534TIP3    H132237   3.883   3.435   7.230  2.1738  1.4968 -2.8821
 3534TIP3    H232238   3.807   3.394   7.106 -1.2649  1.3722 -0.8383
 3535TIP3   OH232239   2.595   6.610   6.595  0.0698 -0.7424  0.0190
 3535TIP3    H132240   2.505   6.611   6.563 -0.2776  3.1487  0.5559
 3535TIP3    H232241   2.642   6.554   6.533 -2.1129 -0.1673 -2.3364
 3536TIP3   OH232242   3.773   6.164   7.615  0.2305  0.5993 -0.0853
 3536TIP3    H132243   3.727   6.081   7.622  1.5471 -0.1827 -0.2811
 3536TIP3    H232244   3.707   6.231   7.633 -1.0691 -0.4426 -0.8593
 3537TIP3   OH232245   5.812   3.843   7.849 -0.3954 -0.3914  0.0619
 3537TIP3    H132246   5.850   3.900   7.916 -0.0264 -1.9810  1.2631
 3537TIP3    H232247   5.795   3.902   7.775  0.8114  1.0942  0.8952
 3538TIP3   OH232248   2.305   2.654   1.039 -0.0959 -0.3562 -0.3195
 3538TIP3    H132249   2.213   2.680   1.046  0.2160  0.9126 -0.6506
 3538TIP3    H232250   2.350   2.708   1.103  0.1507 -2.7109  1.6511
 3539TIP3   OH232251   3.587   4.677   1.563 -0.2267 -0.1667 -0.0162
 3539TIP3    H132252   3.504   4.657   1.607 -1.0365 -0.2001 -1.4882
 3539TIP3    H232253   3.653   4.669   1.632 -1.6746  2.4125  1.8591
 3540TIP3   OH232254   1.849   0.262   7.076 -0.0497 -0.3576 -0.2814
 3540TIP3    H132255   1.893   0.182   7.105 -0.0122 -1.0447 -2.1225
 3540TIP3    H232256   1.791   0.234   7.005 -1.9653  0.8624  0.6915
 3541TIP3   OH232257   5.107   5.961   8.345 -0.9755  0.0712  0.0316
 3541TIP3    H132258   5.088   5.947   8.438  1.1716 -4.2598  0.0658
 3541TIP3    H232259   5.173   6.030   8.344 -1.7218  0.8654  1.5900
 3542TIP3   OH232260   4.498   0.214   1.615 -0.0796  0.3005  0.5432
 3542TIP3    H132261   4.516   0.294   1.664 -1.9988  0.0481  1.7619
 3542TIP3    H232262   4.411   0.227   1.578 -1.0886 -1.7513  2.0134
 3543TIP3   OH232263   3.527   1.423   1.386  0.1713 -0.2372 -0.0041
 3543TIP3    H132264   3.531   1.412   1.291 -0.0242 -1.0111  0.0712
 3543TIP3    H232265   3.451   1.371   1.413  1.2095 -1.3885  0.7640
 3544TIP3   OH232266   2.199   1.731   1.897 -0.1383  0.2842 -0.1776
 3544TIP3    H132267   2.144   1.720   1.819  2.5036  1.0665 -2.3239
 3544TIP3    H232268   2.237   1.645   1.913 -0.9746  0.0310  0.5559
 3545TIP3   OH232269   3.620   3.483   2.507 -0.4870 -0.0492 -0.0648
 3545TIP3    H132270   3.576   3.540   2.444 -0.4257 -0.8114 -0.8199
 3545TIP3    H232271   3.548   3.432   2.547 -0.4644 -0.0159  0.0184
 3546TIP3   OH232272   0.674   4.767   0.205 -0.4282 -0.1029  0.1215
 3546TIP3    H132273   0.682   4.676   0.235  1.1226  0.5869  2.0185
 3546TIP3    H232274   0.759   4.787   0.166 -0.5590  0.7157  0.2416
 3547TIP3   OH232275   4.170   5.705   0.018 -0.4330  0.3088  0.2096
 3547TIP3    H132276   4.154   5.767   0.090 -1.1954  0.7628 -0.3309
 3547TIP3    H232277   4.083   5.683  -0.014 -0.0920  0.9542 -1.2660
 3548TIP3   OH232278   1.979   4.638   2.426  0.2455 -0.0325  0.2831
 3548TIP3    H132279   1.992   4.730   2.401 -2.4742 -0.4141 -3.2264
 3548TIP3    H232280   2.059   4.594   2.397  0.4673  0.8112 -0.4324
 3549TIP3   OH232281   6.684   4.841   7.676  0.3887  0.1056 -0.7465
 3549TIP3    H132282   6.594   4.808   7.681 -0.2587  1.8815 -0.1395
 3549TIP3    H232283   6.702   4.846   7.583  0.0077 -0.6022 -0.8721
 3550TIP3   OH232284   1.161   0.790   2.311 -0.0714  0.3041 -0.5235
 3550TIP3    H132285   1.165   0.724   2.242 -3.1848 -2.3764  1.5434
 3550TIP3    H232286   1.079   0.838   2.295  0.1644  0.9825  0.1929
 3551TIP3   OH232287   1.332   4.500   7.108  0.2377  0.3670 -0.5314
 3551TIP3    H132288   1.261   4.436   7.095  0.7678  0.1097 -2.5122
 3551TIP3    H232289   1.412   4.449   7.098  0.7230  0.7363  1.2842
 3552TIP3   OH232290   0.951   5.253   1.563  0.4693  0.1642  0.0954
 3552TIP3    H132291   0.901   5.228   1.641  0.2535 -0.3402 -0.1989
 3552TIP3    H232292   0.954   5.349   1.566  0.6888  0.1380  0.8618
 3553TIP3   OH232293   2.071   1.074   0.500 -0.2867 -0.0109  0.3060
 3553TIP3    H132294   1.992   1.020   0.499  0.9745 -2.0583  1.8161
 3553TIP3    H232295   2.129   1.032   0.437  0.8357 -0.7093  1.7305
 3554TIP3   OH232296   4.296   0.766   7.223 -0.3946  0.2947 -0.1812
 3554TIP3    H132297   4.332   0.681   7.249  1.6797  1.3590  0.6777
 3554TIP3    H232298   4.210   0.769   7.264 -0.2681 -1.1372  0.2643
 3555TIP3   OH232299   5.787   1.665   0.532 -0.3752 -0.2095 -0.0199
 3555TIP3    H132300   5.695   1.672   0.505  0.2015 -1.7376 -2.8183
 3555TIP3    H232301   5.785   1.669   0.627 -3.3264 -0.1487  0.0010
 3556TIP3   OH232302   4.239   0.641   0.451  0.5720 -0.8185  0.2531
 3556TIP3    H132303   4.305   0.686   0.399  1.2692 -1.4996  0.5340
 3556TIP3    H232304   4.284   0.564   0.486 -0.0823 -0.7549  1.2810
 3557TIP3   OH232305   2.218   5.751   0.243 -0.2670 -0.0095  0.0849
 3557TIP3    H132306   2.204   5.731   0.151 -2.4746  1.5704 -0.0095
 3557TIP3    H232307   2.307   5.722   0.261 -0.5851 -2.6179 -1.8841
 3558TIP3   OH232308   3.139   0.539   7.832 -0.4088  0.3212  0.2989
 3558TIP3    H132309   3.162   0.532   7.925  0.3692 -0.1262  0.0801
 3558TIP3    H232310   3.199   0.605   7.798 -0.0382 -0.2102 -0.0874
 3559TIP3   OH232311   6.265   5.723   7.939  0.2013 -0.3628  0.0902
 3559TIP3    H132312   6.243   5.759   7.853 -0.4182 -2.0215 -0.4756
 3559TIP3    H232313   6.280   5.800   7.994 -1.3018  0.7537 -0.9960
 3560TIP3   OH232314   3.829   2.338   8.377  0.3955 -0.2574  0.3102
 3560TIP3    H132315   3.853   2.385   8.297 -0.0248 -2.6876 -1.3802
 3560TIP3    H232316   3.742   2.302   8.358  0.8989 -2.1011  1.2287
 3561TIP3   OH232317   5.353   5.786   0.493 -0.1554 -0.0424  0.6352
 3561TIP3    H132318   5.297   5.710   0.480 -1.4156  0.7898  0.9656
 3561TIP3    H232319   5.332   5.845   0.421 -0.4908  0.7171  1.3317
 3562TIP3   OH232320   1.134   1.030   8.427  0.1965 -0.0370 -0.6224
 3562TIP3    H132321   1.066   1.040   8.360 -0.6060  3.0227  0.5358
 3562TIP3    H232322   1.089   1.043   8.510  2.2344  2.8194  0.1564
 3563TIP3   OH232323   2.407   6.139   1.355  0.0818  0.3126 -0.1180
 3563TIP3    H132324   2.434   6.080   1.285  1.4015  1.4604 -0.6316
 3563TIP3    H232325   2.489   6.162   1.399 -0.5606  0.7889  0.8568
 3564TIP3   OH232326   0.227   1.994   6.481 -0.2636 -0.4189 -0.1172
 3564TIP3    H132327   0.308   1.959   6.443  0.5211  0.7597  0.3947
 3564TIP3    H232328   0.162   1.925   6.467  0.6218 -1.0605 -1.2803
 3565TIP3   OH232329   0.689   4.847   1.634  0.0007  0.4162  0.1947
 3565TIP3    H132330   0.773   4.841   1.679  0.0017 -0.7029  0.0873
 3565TIP3    H232331   0.632   4.786   1.682 -0.2884 -0.0248 -0.6943
 3566TIP3   OH232332   1.297   2.973   7.624 -0.0904 -0.4623  0.8488
 3566TIP3    H132333   1.328   2.901   7.570  1.4065  0.2516  0.7127
 3566TIP3    H232334   1.212   2.944   7.657  0.4233 -2.2098  0.6892
 3567TIP3   OH232335   0.050   0.625   0.524  0.0807 -0.0699  0.0334
 3567TIP3    H132336  -0.005   0.652   0.598  0.9028 -0.2268  0.7270
 3567TIP3    H232337   0.009   0.545   0.491 -0.1959 -0.0988  0.4417
 3568TIP3   OH232338   2.695   2.396   7.561 -0.3077  0.3318 -0.7384
 3568TIP3    H132339   2.791   2.395   7.564 -0.2531 -0.6719 -1.8532
 3568TIP3    H232340   2.668   2.358   7.645  0.1969  2.3004  0.3726
 3569TIP3   OH232341   3.944   6.377   6.333 -0.7292 -0.1382 -0.0163
 3569TIP3    H132342   3.861   6.331   6.318 -1.6425  1.5669 -0.5054
 3569TIP3    H232343   3.920   6.470   6.330  1.2434  0.3978 -0.3894
 3570TIP3   OH232344   0.900   5.479   0.322 -0.2016  0.1820 -0.4304
 3570TIP3    H132345   0.851   5.421   0.381  0.9458 -0.7969 -0.3955
 3570TIP3    H232346   0.839   5.500   0.252 -1.3779  0.8158  0.7404
 3571TIP3   OH232347   4.472   0.566   7.831  0.1881  0.1912  0.1401
 3571TIP3    H132348   4.380   0.546   7.849  0.4269 -0.3991  0.7243
 3571TIP3    H232349   4.520   0.522   7.900  0.7992  2.3591  1.1752
 3572TIP3   OH232350   6.717   1.138   0.198  0.2698 -0.5677 -0.4614
 3572TIP3    H132351   6.716   1.107   0.108 -0.7580 -0.5003 -0.4834
 3572TIP3    H232352   6.719   1.233   0.190 -0.7308 -0.5302 -0.4388
 3573TIP3   OH232353   1.503   3.904   7.220 -0.1883 -0.4295  0.6124
 3573TIP3    H132354   1.470   3.903   7.130  0.8646 -1.2405  0.2186
 3573TIP3    H232355   1.476   3.821   7.257 -1.8424  0.4801  1.5331
 3574TIP3   OH232356   4.785   2.413   8.429 -0.2478 -0.0233 -0.5350
 3574TIP3    H132357   4.871   2.374   8.413 -0.9041 -1.4876 -0.6007
 3574TIP3    H232358   4.728   2.339   8.448 -1.3143  1.0068  0.4000
 3575TIP3   OH232359   0.182   1.793   1.013 -0.2963  0.3117 -0.2559
 3575TIP3    H132360   0.265   1.840   1.009 -0.4405  0.5695 -0.2664
 3575TIP3    H232361   0.125   1.850   1.065 -1.0822  1.1102 -1.9141
 3576TIP3   OH232362   3.672   4.542   1.950  0.2503 -0.5722 -0.4051
 3576TIP3    H132363   3.612   4.616   1.960  1.0920 -0.0851  1.5305
 3576TIP3    H232364   3.729   4.568   1.878  1.1639  1.1910  0.8605
 3577TIP3   OH232365   3.767   5.288   8.609 -0.6806 -0.0735  0.2564
 3577TIP3    H132366   3.759   5.336   8.527 -1.0552 -0.5758 -0.0030
 3577TIP3    H232367   3.837   5.225   8.593 -1.5390 -0.9575 -0.0679
 3578TIP3   OH232368   1.744   1.752   8.702 -0.2029 -0.1027 -0.5598
 3578TIP3    H132369   1.791   1.682   8.746 -1.1017  0.1930  0.9298
 3578TIP3    H232370   1.685   1.787   8.768  0.5884  2.4299 -1.0785
 3579TIP3   OH232371   2.771   2.717   7.949 -1.1912 -0.5165  0.3863
 3579TIP3    H132372   2.784   2.666   8.029 -0.9272  0.7818  1.2223
 3579TIP3    H232373   2.700   2.674   7.903  0.5574 -3.0290 -0.1721
 3580TIP3   OH232374   5.739   2.294   1.756 -0.4159 -0.0199 -0.4347
 3580TIP3    H132375   5.760   2.201   1.761  1.3452  0.2368 -1.8875
 3580TIP3    H232376   5.711   2.318   1.844  0.4534 -1.6237  0.3099
 3581TIP3   OH232377   5.889   0.716   2.311  0.2006  0.2483  0.3792
 3581TIP3    H132378   5.796   0.722   2.332 -0.5830  0.9773 -2.8531
 3581TIP3    H232379   5.898   0.635   2.262  0.7534  1.3729 -1.4668
 3582TIP3   OH232380   1.733   6.545   0.302  0.2985  0.0169  0.8315
 3582TIP3    H132381   1.721   6.497   0.384 -0.8173 -0.8549  0.1896
 3582TIP3    H232382   1.703   6.634   0.322 -0.8826 -0.4276  1.1257
 3583TIP3   OH232383   0.621   2.801   0.690  0.1808  0.0670 -0.4172
 3583TIP3    H132384   0.584   2.803   0.779 -0.2651 -1.0067 -0.5615
 3583TIP3    H232385   0.607   2.890   0.657  0.9070  0.6616  0.7960
 3584TIP3   OH232386   2.361   4.386   1.918  0.0724  0.9052  0.4685
 3584TIP3    H132387   2.375   4.300   1.957 -0.4462 -0.0452 -1.3578
 3584TIP3    H232388   2.281   4.419   1.961 -0.2146  0.1065  0.5580
 3585TIP3   OH232389   1.658   5.860   7.372  0.6568 -0.1422  0.0157
 3585TIP3    H132390   1.672   5.946   7.412 -0.3156 -0.5773  1.3917
 3585TIP3    H232391   1.729   5.850   7.309  0.3771  1.9708 -0.7263
 3586TIP3   OH232392   3.917   1.247   0.443 -0.2909  0.2400 -0.7648
 3586TIP3    H132393   3.892   1.270   0.533  1.4291 -1.6405  0.2796
 3586TIP3    H232394   4.012   1.234   0.447 -0.4671 -2.1316 -2.2941
 3587TIP3   OH232395   2.360   6.556   0.582 -0.5855  0.0252 -0.2258
 3587TIP3    H132396   2.447   6.596   0.572  0.1231 -1.7531 -1.6351
 3587TIP3    H232397   2.378   6.466   0.608 -1.9810 -0.5492 -1.1470
 3588TIP3   OH232398   0.592   2.835   8.199 -0.4241  0.0298 -0.1973
 3588TIP3    H132399   0.632   2.857   8.115  0.1966 -0.4181 -0.0332
 3588TIP3    H232400   0.555   2.917   8.230  1.5836  0.8222  0.2906
 3589TIP3   OH232401   0.332   2.262   7.125  0.6808  0.3957 -0.2956
 3589TIP3    H132402   0.250   2.273   7.173 -0.0237 -0.6595 -1.1956
 3589TIP3    H232403   0.306   2.262   7.033  1.3592 -2.0145 -0.5724
 3590TIP3   OH232404   3.282   2.686   0.366  0.0973  0.5307  0.1835
 3590TIP3    H132405   3.216   2.622   0.340 -0.5957  1.7366 -1.1701
 3590TIP3    H232406   3.361   2.634   0.382  0.1928 -0.5289 -2.9856
 3591TIP3   OH232407   6.049   6.394   1.079  0.2382 -0.8195 -0.2839
 3591TIP3    H132408   6.073   6.461   1.016  0.8118 -0.6083  0.1504
 3591TIP3    H232409   6.029   6.442   1.159  0.1572 -1.1328 -0.1124
 3592TIP3   OH232410   3.697   3.838   1.847 -0.6138  0.5548 -0.2419
 3592TIP3    H132411   3.673   3.891   1.771 -0.5646  0.8758 -0.0394
 3592TIP3    H232412   3.634   3.766   1.847 -1.1231  0.9908 -0.1367
 3593TIP3   OH232413   3.561   0.849   0.905 -0.4420 -0.1320 -0.2594
 3593TIP3    H132414   3.545   0.831   0.997 -0.1395 -0.8063 -0.3342
 3593TIP3    H232415   3.532   0.770   0.859 -2.2545  0.8692 -0.9152
 3594TIP3   OH232416   5.280   0.032   0.160 -0.0634  0.3117 -0.5667
 3594TIP3    H132417   5.235   0.051   0.243  0.6136  0.6408 -0.2641
 3594TIP3    H232418   5.373   0.033   0.182  0.1278  0.4080 -1.3356
 3595TIP3   OH232419   2.858   6.807   0.259  0.2446 -0.5463 -0.1577
 3595TIP3    H132420   2.830   6.890   0.296 -1.6892 -2.4478  3.1298
 3595TIP3    H232421   2.912   6.831   0.183 -1.0952  3.5893 -0.0261
 3596TIP3   OH232422   2.285   5.069   1.661 -0.1531  0.5946 -0.0084
 3596TIP3    H132423   2.332   5.084   1.743  0.6915  0.4533 -0.4591
 3596TIP3    H232424   2.352   5.040   1.600 -1.1364 -1.6323 -0.1308
 3597TIP3   OH232425   4.563   3.868   8.727 -0.4742  0.1349 -0.0503
 3597TIP3    H132426   4.568   3.824   8.812  1.5554 -0.0028 -0.1946
 3597TIP3    H232427   4.647   3.914   8.719 -0.6079  0.0978 -2.0060
 3598TIP3   OH232428   1.322   5.275   8.577  0.4822  0.2312 -0.6271
 3598TIP3    H132429   1.325   5.301   8.669 -2.5150  0.6036 -0.5446
 3598TIP3    H232430   1.363   5.188   8.576 -1.7963 -1.0202  1.6128
 3599TIP3   OH232431   2.305   4.638   0.653  0.2831 -0.2158 -0.2503
 3599TIP3    H132432   2.333   4.724   0.685 -0.8494  0.9542 -2.1927
 3599TIP3    H232433   2.372   4.613   0.590 -0.2894  0.1169 -1.0102
 3600TIP3   OH232434   2.460   4.316   8.775 -0.1729 -0.4150 -0.3449
 3600TIP3    H132435   2.488   4.336   8.864  2.5337  0.0987 -1.2059
 3600TIP3    H232436   2.495   4.229   8.757 -1.0136 -0.6680 -0.7897
 3601TIP3   OH232437   5.042   2.872   2.180 -0.2200 -0.4302  0.1330
 3601TIP3    H132438   5.055   2.787   2.223 -1.4033 -0.0310  1.3577
 3601TIP3    H232439   5.107   2.929   2.221  2.1909 -1.1989 -2.3218
 3602TIP3   OH232440   0.367   2.552   0.159  0.5137 -0.9784  0.3168
 3602TIP3    H132441   0.439   2.591   0.109  0.7124 -0.4684  0.9899
 3602TIP3    H232442   0.289   2.567   0.106  0.5383  0.6458  0.7125
 3603TIP3   OH232443   5.762   5.596   7.591  0.4037  0.3386 -0.0895
 3603TIP3    H132444   5.780   5.502   7.594  1.7393  0.4602 -2.1985
 3603TIP3    H232445   5.824   5.635   7.652  2.9771  0.1542 -2.4117
 3604TIP3   OH232446   5.409   4.674   7.722  0.4102  0.6289 -0.0812
 3604TIP3    H132447   5.367   4.726   7.653 -1.8993  0.8487  1.3937
 3604TIP3    H232448   5.462   4.736   7.770 -0.9092  1.2976  0.5624
 3605TIP3   OH232449   4.470   1.947   0.374 -0.5172  0.1766 -0.6743
 3605TIP3    H132450   4.522   1.894   0.435  0.6129  0.4376 -1.3790
 3605TIP3    H232451   4.450   2.026   0.424 -1.9544 -0.7435  0.2773
 3606TIP3   OH232452   5.560   0.977   0.128  0.1601  0.0195 -0.0089
 3606TIP3    H132453   5.510   1.013   0.201  0.3355  0.3761 -0.0608
 3606TIP3    H232454   5.525   0.889   0.115 -2.4828  1.2115 -1.9004
 3607TIP3   OH232455   1.698   2.631   1.426 -0.6513  0.0506 -0.4061
 3607TIP3    H132456   1.752   2.662   1.353 -2.2404  0.6167 -1.3898
 3607TIP3    H232457   1.735   2.545   1.448  2.0685  1.3448  0.4999
 3608TIP3   OH232458   0.181   3.426   7.182  0.1049  0.0481  0.0715
 3608TIP3    H132459   0.172   3.337   7.219  0.9100 -1.3078 -2.7203
 3608TIP3    H232460   0.270   3.427   7.146  0.1102  2.0493  0.0458
 3609TIP3   OH232461   2.861   4.758   1.135 -0.6462 -0.7630 -0.1469
 3609TIP3    H132462   2.793   4.815   1.172  0.6664  0.1045  0.9889
 3609TIP3    H232463   2.930   4.756   1.201  0.0720 -2.3417 -0.8976
 3610TIP3   OH232464   2.300   5.291   6.345 -0.4215  0.2884 -0.0800
 3610TIP3    H132465   2.379   5.337   6.318 -1.5706  1.4731 -1.6378
 3610TIP3    H232466   2.328   5.202   6.363  1.6877  1.2399  1.8624
 3611TIP3   OH232467   0.863   6.552   7.339  0.2476 -0.3341 -0.2505
 3611TIP3    H132468   0.870   6.606   7.417  1.2536 -1.7112  0.6442
 3611TIP3    H232469   0.809   6.604   7.279 -1.4141  0.3151  1.7062
 3612TIP3   OH232470   2.574   2.989   2.404 -0.5242  0.0747  0.0284
 3612TIP3    H132471   2.632   3.060   2.432  1.4124 -0.9688 -1.1272
 3612TIP3    H232472   2.500   3.034   2.363  0.3933  1.4458 -0.2120
 3613TIP3   OH232473   0.280   2.812   0.585  0.0595  0.1827 -0.7329
 3613TIP3    H132474   0.213   2.838   0.649 -0.6907 -0.0743 -1.3932
 3613TIP3    H232475   0.234   2.813   0.501  0.6709 -0.8026 -1.0928
 3614TIP3   OH232476   1.808   4.464   0.459  0.0787  0.3210  0.1401
 3614TIP3    H132477   1.789   4.540   0.405  1.0628  0.8365  0.4978
 3614TIP3    H232478   1.722   4.433   0.488 -0.3882  0.6494 -0.8688
 3615TIP3   OH232479   3.074   3.171   8.118  0.0844 -0.1349  0.2713
 3615TIP3    H132480   2.986   3.135   8.134 -0.2919  0.5264 -0.2618
 3615TIP3    H232481   3.125   3.144   8.194 -0.5130 -0.7539  0.4621
 3616TIP3   OH232482   5.390   3.270   8.169  0.1336 -0.1229 -0.2314
 3616TIP3    H132483   5.369   3.178   8.188 -0.5126  0.0748  0.0224
 3616TIP3    H232484   5.448   3.266   8.093  0.6163 -0.7759  0.1611
 3617TIP3   OH232485   6.690   4.154   7.593 -0.3614  0.3404 -0.0347
 3617TIP3    H132486   6.673   4.094   7.520 -0.6214 -1.2255  1.2554
 3617TIP3    H232487   6.764   4.207   7.564  0.9509 -1.7124 -0.6156
 3618TIP3   OH232488   1.372   4.693   8.824 -0.0401  0.2888 -0.1697
 3618TIP3    H132489   1.377   4.752   8.899 -0.8090 -1.2519  1.1441
 3618TIP3    H232490   1.340   4.748   8.752  1.2113  1.9194  0.4480
 3619TIP3   OH232491   1.112   2.071   8.552 -0.6438  0.2678  0.0625
 3619TIP3    H132492   1.085   2.161   8.569 -1.8202 -0.0661  0.0628
 3619TIP3    H232493   1.202   2.067   8.583 -0.5884  1.4317  0.1023
 3620TIP3   OH232494   1.734   4.675   0.240  0.0497 -0.5125  0.3335
 3620TIP3    H132495   1.789   4.676   0.161  0.6012  1.3773  0.6922
 3620TIP3    H232496   1.666   4.611   0.220  0.4522 -0.4393 -1.4826
 3621TIP3   OH232497   3.134   2.439   2.764  0.5652 -0.4366 -0.1822
 3621TIP3    H132498   3.076   2.492   2.820  0.6833 -0.0073 -0.4622
 3621TIP3    H232499   3.136   2.353   2.807 -0.0250 -0.3643  0.0034
 3622TIP3   OH232500   6.101   2.620   6.728 -0.1254  0.1201 -0.3663
 3622TIP3    H132501   6.038   2.548   6.734  0.0517 -0.0205 -0.1627
 3622TIP3    H232502   6.048   2.699   6.738 -0.3499  0.0249 -0.7996
 3623TIP3   OH232503   3.780   1.004   0.835  0.2174  0.2385 -0.0146
 3623TIP3    H132504   3.733   1.086   0.852 -1.9038 -0.6941 -0.9931
 3623TIP3    H232505   3.744   0.942   0.897  3.1569  0.3761  2.0326
 3624TIP3   OH232506   2.352   1.542   1.602  0.0925 -0.6713 -0.3839
 3624TIP3    H132507   2.378   1.627   1.638 -1.6766 -0.5027  0.6334
 3624TIP3    H232508   2.299   1.564   1.525  2.7618 -1.0064 -2.4508
 3625TIP3   OH232509   5.942   1.516   6.622 -0.0541 -0.7766  0.9680
 3625TIP3    H132510   5.962   1.607   6.645  0.7550 -0.7199  0.0840
 3625TIP3    H232511   5.993   1.464   6.684  0.2346 -0.6267  0.8582
 3626TIP3   OH232512   2.338   2.211   2.633  0.4739  0.0777  0.9680
 3626TIP3    H132513   2.307   2.230   2.721 -1.8963 -1.1026  0.4871
 3626TIP3    H232514   2.358   2.117   2.634 -0.3242 -0.1199  0.0838
 3627TIP3   OH232515   4.471   5.612   7.909  0.3449 -0.1099 -0.2557
 3627TIP3    H132516   4.466   5.526   7.868  1.0680 -0.7184  0.8784
 3627TIP3    H232517   4.497   5.671   7.838 -1.1831 -0.6247 -1.2709
 3628TIP3   OH232518   2.917   5.351   2.522 -0.5854 -0.1230  0.9962
 3628TIP3    H132519   2.995   5.302   2.499 -1.2778 -0.6226 -0.4058
 3628TIP3    H232520   2.949   5.437   2.549  0.4550 -0.4111  0.6927
 3629TIP3   OH232521   2.164   1.153   7.662  0.0449 -0.3773  0.2884
 3629TIP3    H132522   2.203   1.209   7.594  0.4413 -0.9435  0.0439
 3629TIP3    H232523   2.178   1.202   7.743  1.0916 -0.4684  0.1837
 3630TIP3   OH232524   0.765   3.665   0.769 -0.2544 -0.1076 -0.4195
 3630TIP3    H132525   0.703   3.683   0.840 -0.8733 -0.3146 -0.9018
 3630TIP3    H232526   0.809   3.584   0.795 -0.4734 -0.1777 -0.2651
 3631TIP3   OH232527   2.989   6.113   1.060 -0.0905 -0.5301  0.5400
 3631TIP3    H132528   3.084   6.116   1.063 -0.0711 -1.0254  0.4479
 3631TIP3    H232529   2.966   6.148   0.973  0.0878 -1.9908 -0.1187
 3632TIP3   OH232530   0.316   0.915   7.999 -0.1436 -0.5448  0.6912
 3632TIP3    H132531   0.346   0.959   7.919 -0.9249  0.0311  0.7085
 3632TIP3    H232532   0.318   0.984   8.066 -2.8104 -0.0834  0.3963
 3633TIP3   OH232533   6.637   0.611   0.313 -0.4343 -0.2559 -0.3998
 3633TIP3    H132534   6.603   0.684   0.261  1.5477  3.2854  2.7986
 3633TIP3    H232535   6.568   0.592   0.377 -0.5764 -0.6203 -0.6531
 3634TIP3   OH232536   2.522   0.935   8.651  0.1946 -0.1515 -0.0886
 3634TIP3    H132537   2.573   0.855   8.638  0.4546  0.0623 -0.4030
 3634TIP3    H232538   2.516   0.974   8.564  2.1338  1.4244  0.4277
 3635TIP3   OH232539   1.460   2.544   0.596  0.1744  0.0609  0.0856
 3635TIP3    H132540   1.542   2.494   0.598 -0.3745 -0.9072 -0.7142
 3635TIP3    H232541   1.462   2.589   0.512  0.9563  1.9611  1.0535
 3636TIP3   OH232542   0.360   4.842   7.201  0.1315  0.0296 -0.7008
 3636TIP3    H132543   0.277   4.828   7.247  0.8333 -0.5962  0.4376
 3636TIP3    H232544   0.345   4.918   7.145 -1.3498 -0.3777 -0.8920
 3637TIP3   OH232545   3.127   0.554   8.652 -0.4414  0.5666 -0.1476
 3637TIP3    H132546   3.103   0.646   8.660 -1.0067  0.3054  1.5208
 3637TIP3    H232547   3.204   0.554   8.595  0.0724  2.1557  0.5125
 3638TIP3   OH232548   5.424   4.703   8.692 -0.1575  0.1018  0.0511
 3638TIP3    H132549   5.505   4.754   8.696 -0.0623  0.1843 -1.9152
 3638TIP3    H232550   5.445   4.622   8.739  0.0882  1.2686  2.0954
 3639TIP3   OH232551   6.264   5.114   6.187  0.0326  0.7754  0.4699
 3639TIP3    H132552   6.219   5.031   6.177  1.6624 -0.5380  2.8320
 3639TIP3    H232553   6.197   5.174   6.220 -0.7421 -0.1568  0.6303
 3640TIP3   OH232554   0.010   5.260   7.042  0.6668 -0.1870  1.0009
 3640TIP3    H132555   0.006   5.171   7.007 -0.6986 -0.2935  1.3759
 3640TIP3    H232556   0.076   5.304   6.989  0.3650 -1.0359 -0.1058
 3641TIP3   OH232557   5.807   2.639   1.715  0.4462  0.0992 -0.3953
 3641TIP3    H132558   5.729   2.646   1.660  0.2421 -0.5422 -0.2047
 3641TIP3    H232559   5.827   2.545   1.716  1.5463  0.3080 -0.8814
 3642TIP3   OH232560   5.396   3.255   0.389 -0.5994 -0.9673  0.2951
 3642TIP3    H132561   5.372   3.163   0.393 -0.4277 -0.9988  0.6162
 3642TIP3    H232562   5.492   3.255   0.394 -0.5742 -0.7932 -0.0987
 3643TIP3   OH232563   4.590   5.859   6.389 -0.8488 -0.5718  0.2027
 3643TIP3    H132564   4.626   5.810   6.315 -0.4522  0.5029 -0.3398
 3643TIP3    H232565   4.661   5.917   6.416 -1.3113 -0.2878  0.8301
 3644TIP3   OH232566   5.980   1.882   1.556 -0.3126 -0.2762  0.1737
 3644TIP3    H132567   5.994   1.936   1.478 -0.9422  0.1086  0.3139
 3644TIP3    H232568   6.049   1.816   1.553  0.3070  0.3767 -0.1493
 3645TIP3   OH232569   2.639   4.323   7.924  0.4631  0.0636  0.0419
 3645TIP3    H132570   2.647   4.418   7.921 -1.1077  0.2096 -2.2707
 3645TIP3    H232571   2.689   4.292   7.848 -1.0537 -0.7032 -0.7044
 3646TIP3   OH232572   4.261   4.498   8.708  0.4554  0.0342 -0.0164
 3646TIP3    H132573   4.342   4.510   8.660  1.4632 -0.9034  1.3847
 3646TIP3    H232574   4.280   4.429   8.772 -1.4312 -0.1972  0.3693
 3647TIP3   OH232575   3.689   6.788   0.300  0.4167 -0.1163  0.7423
 3647TIP3    H132576   3.665   6.699   0.275 -1.0500  0.5672 -0.4611
 3647TIP3    H232577   3.647   6.802   0.385  2.0115 -1.0778  1.7433
 3648TIP3   OH232578   0.821   3.831   1.938 -0.8702  0.0249  0.2440
 3648TIP3    H132579   0.745   3.777   1.915 -0.5355 -0.3559  0.0380
 3648TIP3    H232580   0.875   3.832   1.859 -1.1507  1.1407  0.0473
 3649TIP3   OH232581   2.998   4.120   1.677 -0.1323  0.2948 -0.2635
 3649TIP3    H132582   3.066   4.178   1.714 -1.5806  1.8940  0.0148
 3649TIP3    H232583   2.955   4.173   1.611 -0.9940 -0.7780 -0.5868
 3650TIP3   OH232584   6.335   3.364   8.256  0.2262 -0.1778  0.1548
 3650TIP3    H132585   6.251   3.407   8.271  0.7811  1.3029 -0.6829
 3650TIP3    H232586   6.350   3.375   8.162  1.6631  0.2066  0.4054
 3651TIP3   OH232587   6.236   6.607   1.325  0.3562 -0.3409 -0.3483
 3651TIP3    H132588   6.321   6.565   1.334 -0.1622 -1.6086 -1.1238
 3651TIP3    H232589   6.180   6.541   1.284 -1.0132  0.4514  0.1578
 3652TIP3   OH232590   0.625   4.286   7.960 -0.1642  0.2811  0.4124
 3652TIP3    H132591   0.693   4.342   7.921  0.4927 -0.0081  1.1187
 3652TIP3    H232592   0.633   4.203   7.914 -1.1676  0.7415 -0.6667
 3653TIP3   OH232593   2.287   1.249   7.884 -0.0426  0.8837  0.0842
 3653TIP3    H132594   2.300   1.343   7.871 -0.3650  1.1963  1.8318
 3653TIP3    H232595   2.273   1.240   7.978  0.2782 -0.9598 -0.0238
 3654TIP3   OH232596   2.566   5.460   6.257  0.0011 -0.1852  0.4445
 3654TIP3    H132597   2.648   5.419   6.229 -0.0919 -0.8819  1.1617
 3654TIP3    H232598   2.568   5.457   6.352 -0.3528  0.8265  0.4962
 3655TIP3   OH232599   6.828   0.487   7.857 -0.2558 -0.7954 -0.0352
 3655TIP3    H132600   6.886   0.545   7.807 -0.9809 -0.9501 -1.0816
 3655TIP3    H232601   6.842   0.400   7.819  1.1314 -1.4412  1.7868
 3656TIP3   OH232602   6.756   0.084   7.370  0.3781  0.1995 -0.0698
 3656TIP3    H132603   6.700   0.153   7.408  0.0347 -0.0527 -0.1140
 3656TIP3    H232604   6.810   0.055   7.443  0.0207  0.0177  0.1275
 3657TIP3   OH232605   3.339   2.607   7.540 -0.2363  0.4292 -0.1483
 3657TIP3    H132606   3.251   2.627   7.571  0.1671 -0.1948  1.5245
 3657TIP3    H232607   3.330   2.525   7.491 -0.4971 -0.0021  0.6021
 3658TIP3   OH232608   5.807   4.693   0.455 -0.0347  0.0610 -0.5559
 3658TIP3    H132609   5.781   4.642   0.378  3.2584 -3.2262  0.2597
 3658TIP3    H232610   5.827   4.780   0.420 -1.7424 -0.3441 -2.7754
 3659TIP3   OH232611   2.657   4.086   8.079  0.3152  0.3084  0.4210
 3659TIP3    H132612   2.671   4.172   8.039 -0.8718 -0.8699 -2.8318
 3659TIP3    H232613   2.562   4.075   8.081  0.4357 -0.8188  1.1241
 3660TIP3   OH232614   3.898   4.442   8.721 -0.1847  0.7200  0.2918
 3660TIP3    H132615   3.846   4.483   8.652  0.4876 -0.4635 -0.9905
 3660TIP3    H232616   3.837   4.382   8.764 -0.1616  0.0292 -0.5880
 3661TIP3   OH232617   0.528   1.826   6.671 -0.1342  0.2110 -0.2777
 3661TIP3    H132618   0.583   1.879   6.728  0.5133  0.4153 -1.0738
 3661TIP3    H232619   0.522   1.875   6.590 -0.7708 -0.2289 -0.5085
 3662TIP3   OH232620   0.736   6.764   1.537  0.1562  0.3151 -0.0521
 3662TIP3    H132621   0.709   6.683   1.494  0.2218 -0.7762  1.8451
 3662TIP3    H232622   0.760   6.822   1.465 -0.3637 -1.1624 -1.4978
 3663TIP3   OH232623   2.351   3.374   0.245  0.3388 -0.7715 -0.5097
 3663TIP3    H132624   2.383   3.363   0.334  0.1864 -1.2553 -0.5092
 3663TIP3    H232625   2.261   3.406   0.255  0.7373  0.3915 -0.5092
 3664TIP3   OH232626   1.674   3.337   0.806 -0.4448  0.1602  0.2612
 3664TIP3    H132627   1.606   3.401   0.785  1.2360  0.9966 -3.5733
 3664TIP3    H232628   1.756   3.383   0.793  0.8634 -1.7085  1.4440
 3665TIP3   OH232629   4.322   2.659   8.622 -0.5979  0.8228  0.0904
 3665TIP3    H132630   4.250   2.600   8.601 -0.4554  0.8760 -0.5930
 3665TIP3    H232631   4.299   2.741   8.577  0.1303  0.6753 -0.5798
 3666TIP3   OH232632   3.387   4.466   0.235  0.4180  0.4267  0.3844
 3666TIP3    H132633   3.383   4.464   0.331 -0.9940 -2.6528  0.3664
 3666TIP3    H232634   3.295   4.467   0.208  0.7975  2.1226 -1.0066
 3667TIP3   OH232635   4.672   3.899   2.205  0.1440  0.0184  0.5947
 3667TIP3    H132636   4.647   3.981   2.247 -0.8240  0.0440 -0.0049
 3667TIP3    H232637   4.713   3.847   2.275  2.1315  1.5483  0.6693
 3668TIP3   OH232638   0.124   4.801   0.117  0.2980  0.0832 -0.1264
 3668TIP3    H132639   0.125   4.863   0.044  0.5791 -1.4064 -1.4262
 3668TIP3    H232640   0.215   4.772   0.125 -0.0254 -1.0063 -0.2791
 3669TIP3   OH232641   5.926   6.700   1.540  0.0774  0.1118  0.2874
 3669TIP3    H132642   5.889   6.736   1.620 -1.9138  0.7579 -0.8709
 3669TIP3    H232643   5.983   6.769   1.507  1.7620 -0.5490  1.6046
 3670TIP3   OH232644   3.674   5.297   0.961  0.6039 -0.7956 -0.2359
 3670TIP3    H132645   3.617   5.228   0.927 -0.2946 -0.6096  0.8383
 3670TIP3    H232646   3.617   5.374   0.967 -0.0586 -1.4037  3.9680
 3671TIP3   OH232647   2.493   5.338   0.763  0.3728  0.2995  0.2812
 3671TIP3    H132648   2.486   5.378   0.676 -3.1890  3.8034  1.8758
 3671TIP3    H232649   2.426   5.270   0.764  0.4868  0.1857  0.2923
 3672TIP3   OH232650   6.455   5.184   8.585 -0.8882  0.3018  0.5600
 3672TIP3    H132651   6.462   5.150   8.674 -0.2127  0.3839  0.5492
 3672TIP3    H232652   6.477   5.277   8.594  0.9847 -0.0417  0.0794
 3673TIP3   OH232653   4.523   4.863   8.104  0.4191  0.1429  0.2525
 3673TIP3    H132654   4.499   4.899   8.019  1.5307 -0.2923 -0.2639
 3673TIP3    H232655   4.583   4.928   8.142  0.6120 -0.0719  0.3181
 3674TIP3   OH232656   2.984   6.542   1.049  0.6889 -0.3329  0.5185
 3674TIP3    H132657   3.032   6.624   1.036 -1.3285  0.8344  0.0005
 3674TIP3    H232658   2.933   6.532   0.969 -0.2882 -1.2540  1.2417
 3675TIP3   OH232659   1.235   3.216   8.030  0.5316  0.0055 -0.0710
 3675TIP3    H132660   1.300   3.153   8.058  0.6071  0.5763  1.0916
 3675TIP3    H232661   1.182   3.233   8.108  0.3924  1.2169 -0.4035
 3676TIP3   OH232662   6.234   4.385   1.353 -0.1923 -0.0823  0.8858
 3676TIP3    H132663   6.206   4.333   1.277  2.1486 -0.5859  0.2983
 3676TIP3    H232664   6.216   4.475   1.327 -0.7388 -0.3365  0.3410
 3677TIP3   OH232665   5.191   5.556   2.253  0.0644 -0.1531  0.4384
 3677TIP3    H132666   5.104   5.528   2.280  0.2587 -0.9902  0.2372
 3677TIP3    H232667   5.196   5.648   2.277 -0.7911 -0.1600  0.6575
 3678TIP3   OH232668   3.445   0.677   8.170  0.3065  0.1126  0.0522
 3678TIP3    H132669   3.364   0.630   8.150  1.0267 -0.5702 -1.4012
 3678TIP3    H232670   3.416   0.754   8.220 -1.1512 -0.4884  0.1887
 3679TIP3   OH232671   3.193   4.379   8.182 -0.1740 -0.1073 -0.3382
 3679TIP3    H132672   3.129   4.374   8.111 -1.9687 -1.3280  1.2910
 3679TIP3    H232673   3.213   4.287   8.202 -0.8717  0.1605  1.7368
 3680TIP3   OH232674   0.684   0.156   7.791 -0.3570  0.1379  0.5310
 3680TIP3    H132675   0.743   0.197   7.727  0.5203 -2.1605 -0.2500
 3680TIP3    H232676   0.603   0.207   7.785  0.1159  0.7668 -1.5433
 3681TIP3   OH232677   0.692   2.740   6.960 -0.1058 -0.5083 -0.7469
 3681TIP3    H132678   0.774   2.760   6.914  0.1807 -0.0876 -0.0706
 3681TIP3    H232679   0.711   2.759   7.052 -1.1391  0.1701 -0.6587
 3682TIP3   OH232680   1.193   0.623   2.101  0.0256  0.8882  0.2779
 3682TIP3    H132681   1.131   0.549   2.103 -0.4291  1.2086 -0.9852
 3682TIP3    H232682   1.278   0.583   2.090 -0.0925  0.5079  0.6937
 3683TIP3   OH232683   4.599   0.025   8.364  0.8845 -0.1095 -0.0728
 3683TIP3    H132684   4.613   0.100   8.306  1.7287  0.6666  1.0853
 3683TIP3    H232685   4.520   0.047   8.413  0.1387 -0.7907 -0.9452
 3684TIP3   OH232686   4.929   6.031   7.435  0.6070 -0.1098 -0.0366
 3684TIP3    H132687   4.886   6.064   7.514  1.1509 -0.3643  0.3835
 3684TIP3    H232688   5.019   6.012   7.464  1.1045  0.7539 -0.9709
 3685TIP3   OH232689   4.718   4.220   0.824  0.2931  0.1781 -0.0640
 3685TIP3    H132690   4.802   4.176   0.838  0.3317  0.4380  0.5610
 3685TIP3    H232691   4.652   4.157   0.855  0.4367  1.2138  2.5915
 3686TIP3   OH232692   4.324   5.724   1.042 -0.6432 -0.1116 -0.5441
 3686TIP3    H132693   4.260   5.724   0.971  0.7142 -1.4766 -1.8433
 3686TIP3    H232694   4.292   5.658   1.103 -0.6462 -0.5840 -1.0460
 3687TIP3   OH232695   1.575   5.189   8.110  0.0181  0.2478  0.7247
 3687TIP3    H132696   1.565   5.261   8.172 -0.8753 -0.9368  2.0288
 3687TIP3    H232697   1.611   5.117   8.163 -2.9319 -1.5560  0.4950
 3688TIP3   OH232698   5.268   0.310   1.542 -0.2502 -0.8191 -0.3378
 3688TIP3    H132699   5.237   0.344   1.626  0.5420  1.1583 -0.7859
 3688TIP3    H232700   5.248   0.379   1.479  0.6992 -1.5426 -1.4742
 3689TIP3   OH232701   4.178   5.539   1.506 -0.0119 -0.0260 -0.1897
 3689TIP3    H132702   4.186   5.476   1.578  0.7552  0.8052  0.4834
 3689TIP3    H232703   4.233   5.613   1.533 -2.2559  1.7215 -0.0987
 3690TIP3   OH232704   1.928   5.416   2.025 -0.5656  0.0991 -0.0711
 3690TIP3    H132705   1.941   5.505   2.057 -2.2475  0.7300 -0.9770
 3690TIP3    H232706   1.833   5.404   2.027 -0.5599 -0.8064 -2.1420
 3691TIP3   OH232707   1.148   3.472   1.323 -0.1178 -0.6171  0.2647
 3691TIP3    H132708   1.198   3.490   1.244 -0.9820  1.8842  0.2062
 3691TIP3    H232709   1.182   3.534   1.388 -1.6748 -0.3241  0.8358
 3692TIP3   OH232710   5.524   0.623   1.746  0.0516 -0.0749  0.1716
 3692TIP3    H132711   5.544   0.717   1.744 -0.2637 -0.0079  0.0744
 3692TIP3    H232712   5.433   0.618   1.717 -0.2604 -0.3183  1.1545
 3693TIP3   OH232713   6.679   5.210   6.395 -0.8230  0.2471 -0.4232
 3693TIP3    H132714   6.611   5.143   6.400  0.3781 -0.9826 -0.0796
 3693TIP3    H232715   6.756   5.169   6.434  0.3083  1.3743 -1.4014
 3694TIP3   OH232716   1.982   5.130   0.748 -0.2736  0.6135  0.1447
 3694TIP3    H132717   1.932   5.107   0.826  1.2469  1.6186  1.4870
 3694TIP3    H232718   2.055   5.068   0.748 -1.1375 -0.4956 -1.4941
 3695TIP3   OH232719   1.382   2.290   8.564 -0.0106  0.2085  0.5127
 3695TIP3    H132720   1.378   2.220   8.499 -0.2252 -0.9573  1.7240
 3695TIP3    H232721   1.475   2.308   8.575  0.0419  0.1775  0.1221
 3696TIP3   OH232722   0.611   0.353   0.398  0.1070 -0.0339  0.1498
 3696TIP3    H132723   0.593   0.366   0.491 -1.6696  2.0731 -0.3839
 3696TIP3    H232724   0.661   0.431   0.372  0.4424 -0.5169 -0.7081
 3697TIP3   OH232725   5.135   6.053   7.806  0.2324  0.5631  0.4207
 3697TIP3    H132726   5.161   5.977   7.754 -1.6172 -0.3608  0.7782
 3697TIP3    H232727   5.091   6.111   7.743  0.6218  0.8169  0.3792
 3698TIP3   OH232728   5.948   4.750   1.920  0.1707 -0.1675  0.2533
 3698TIP3    H132729   5.974   4.798   1.841  0.6655 -0.0069  0.5052
 3698TIP3    H232730   6.011   4.778   1.987 -0.2207 -0.3236  0.6995
 3699TIP3   OH232731   1.054   3.733   0.094 -0.3139  0.0332 -0.2770
 3699TIP3    H132732   1.034   3.800   0.028  0.7479 -0.8173 -1.5013
 3699TIP3    H232733   1.008   3.655   0.063 -1.0715 -0.0011  0.8415
 3700TIP3   OH232734   5.188   5.560   0.477 -0.2384 -0.5685 -0.1347
 3700TIP3    H132735   5.187   5.538   0.384  0.7825 -0.9687 -0.0716
 3700TIP3    H232736   5.196   5.475   0.521 -0.4934 -0.3666  0.3066
 3701TIP3   OH232737   2.304   3.873   7.202 -0.0047 -0.3648 -0.2836
 3701TIP3    H132738   2.283   3.847   7.112  0.7046  0.0533 -0.5839
 3701TIP3    H232739   2.219   3.879   7.246 -0.3552 -0.6341 -0.9074
 3702TIP3   OH232740   6.738   1.655   7.635 -0.1812  0.1139  0.0455
 3702TIP3    H132741   6.829   1.634   7.656 -0.1354  0.1289 -0.1355
 3702TIP3    H232742   6.724   1.740   7.676  0.1324  0.4855 -0.5809
 3703TIP3   OH232743   1.224   2.275   7.513 -0.4275 -0.4102 -0.1370
 3703TIP3    H132744   1.130   2.284   7.498 -0.7649  0.9526  2.2762
 3703TIP3    H232745   1.264   2.291   7.427 -2.3360  0.3834 -0.9265
 3704TIP3   OH232746   5.134   4.407   7.529 -0.4536  0.5590 -0.3453
 3704TIP3    H132747   5.215   4.358   7.539 -0.7265  0.1707 -0.0129
 3704TIP3    H232748   5.116   4.442   7.616 -1.0076  0.0664 -0.2603
 3705TIP3   OH232749   0.061   2.882   8.605  0.9264  0.2146 -0.4708
 3705TIP3    H132750   0.071   2.950   8.672  2.5959 -0.0249 -0.4422
 3705TIP3    H232751  -0.026   2.845   8.621  0.8827  0.8664  0.8994
 3706TIP3   OH232752   4.040   5.776   8.532  0.0797 -0.5063 -0.1635
 3706TIP3    H132753   4.009   5.802   8.445  1.3598  1.1509 -0.1663
 3706TIP3    H232754   4.093   5.850   8.562 -1.2056 -0.5543  2.5124
 3707TIP3   OH232755   0.929   5.024   1.067 -0.5050 -0.0881 -0.0135
 3707TIP3    H132756   0.912   4.950   1.125 -3.6255  0.7770  0.3685
 3707TIP3    H232757   1.019   5.012   1.038 -0.5680 -3.4831  0.7801
 3708TIP3   OH232758   1.105   1.553   1.548  0.0373  0.5263 -0.1365
 3708TIP3    H132759   1.119   1.643   1.577 -0.4314  0.8444 -0.8823
 3708TIP3    H232760   1.030   1.523   1.600 -1.7739  1.5939 -2.0009
 3709TIP3   OH232761   6.385   5.397   0.353  0.6756  0.0733 -0.4675
 3709TIP3    H132762   6.319   5.374   0.418  0.1531  0.7658 -0.7279
 3709TIP3    H232763   6.357   5.483   0.321  0.1746 -0.8101 -2.5440
 3710TIP3   OH232764   1.331   4.616   2.147 -0.1768  0.3462 -0.3532
 3710TIP3    H132765   1.269   4.621   2.074 -0.0415 -0.3394 -0.5218
 3710TIP3    H232766   1.417   4.604   2.105  0.0149  0.8123 -0.1059
 3711TIP3   OH232767   2.878   5.331   8.391 -0.4925 -0.4645 -0.2406
 3711TIP3    H132768   2.814   5.383   8.343  0.5495  0.9955 -0.1250
 3711TIP3    H232769   2.897   5.257   8.334 -1.1012 -0.0676 -0.9731
 3712TIP3   OH232770   1.306   6.488   2.444  0.6583 -0.0290 -0.1411
 3712TIP3    H132771   1.376   6.531   2.395  0.7139 -0.7061 -0.6838
 3712TIP3    H232772   1.237   6.554   2.450  1.2629  0.5789  0.2278
 3713TIP3   OH232773   5.634   2.957   2.370 -0.1089 -0.5226  0.8818
 3713TIP3    H132774   5.695   2.895   2.411  0.3274  0.0862  1.1685
 3713TIP3    H232775   5.673   2.975   2.284 -0.9137 -1.6358  0.2507
 3714TIP3   OH232776   2.763   2.527   0.363  0.4828  1.0228 -0.1239
 3714TIP3    H132777   2.798   2.586   0.296  1.9666  2.1969  1.5942
 3714TIP3    H232778   2.770   2.576   0.445 -1.5280 -0.2583  0.9086
 3715TIP3   OH232779   4.870   6.641   0.174 -0.8070 -0.0037  0.1350
 3715TIP3    H132780   4.895   6.733   0.173  1.4304 -0.5379  1.3887
 3715TIP3    H232781   4.852   6.620   0.082 -0.1629  1.3582 -0.3233
 3716TIP3   OH232782   0.446   0.051   8.451  0.2800  0.2442  0.0193
 3716TIP3    H132783   0.424   0.109   8.378  1.9405  0.9743  0.0303
 3716TIP3    H232784   0.408  -0.033   8.428 -1.7525  1.1741 -0.2618
 3717TIP3   OH232785   6.750   5.291   1.906 -0.1134  0.9437 -0.3085
 3717TIP3    H132786   6.680   5.310   1.969  0.0008 -0.5997  0.3309
 3717TIP3    H232787   6.710   5.230   1.844  0.0635  1.7040 -1.2016
 3718TIP3   OH232788   5.493   5.508   0.330 -0.3771  0.2142 -0.2075
 3718TIP3    H132789   5.399   5.524   0.322 -0.4079  0.6069  0.7320
 3718TIP3    H232790   5.516   5.458   0.252 -1.0054  1.7179 -1.4026
 3719TIP3   OH232791   2.981   3.780   8.454 -0.3388 -0.1141  0.2726
 3719TIP3    H132792   2.895   3.739   8.448  0.0097 -0.9828  1.0221
 3719TIP3    H232793   3.011   3.761   8.543 -0.0299  1.5274  0.5628
 3720TIP3   OH232794   4.488   2.706   1.222  0.3599 -0.1611  0.2509
 3720TIP3    H132795   4.438   2.729   1.144 -0.0819  0.1150  0.6110
 3720TIP3    H232796   4.423   2.701   1.292  0.9554  1.2411  0.9514
 3721TIP3   OH232797   4.006   1.671   2.476  0.2935 -0.7047  0.0120
 3721TIP3    H132798   3.930   1.704   2.429 -0.0499  0.5912  1.3855
 3721TIP3    H232799   3.996   1.576   2.473 -1.0186 -0.5746 -0.4193
 3722TIP3   OH232800   1.010   4.488   0.042 -0.9388 -0.3792 -0.3530
 3722TIP3    H132801   0.989   4.406  -0.003 -0.1002 -2.3588  2.5258
 3722TIP3    H232802   0.933   4.505   0.097 -0.9801  0.6028 -0.7043
 3723TIP3   OH232803   5.791   4.062   7.661 -0.3761  0.5368 -0.0918
 3723TIP3    H132804   5.876   4.035   7.626  0.1667  0.2124  1.3956
 3723TIP3    H232805   5.790   4.157   7.649  0.6933  0.6923  0.8394
 3724TIP3   OH232806   2.777   3.039   1.268  0.4178  0.5053  0.6106
 3724TIP3    H132807   2.717   3.033   1.193  0.5941  1.5453  0.3826
 3724TIP3    H232808   2.764   2.956   1.314 -0.0166  0.0318 -0.3215
 3725TIP3   OH232809   4.370   0.838   8.033 -0.0435  0.2781  0.0670
 3725TIP3    H132810   4.416   0.814   8.113  1.3359  0.0759 -0.7479
 3725TIP3    H232811   4.280   0.809   8.047 -0.2044  1.5856  2.1101
 3726TIP3   OH232812   0.964   3.989   7.827  0.3539 -0.2683  0.1081
 3726TIP3    H132813   0.871   4.009   7.839  0.6670  1.1358  0.4097
 3726TIP3    H232814   0.967   3.896   7.807 -1.1787 -0.2044 -0.5131
 3727TIP3   OH232815   5.619   3.199   1.877  0.2402 -0.1336  0.4734
 3727TIP3    H132816   5.572   3.278   1.902 -0.7681 -0.4489 -0.3758
 3727TIP3    H232817   5.693   3.229   1.825 -0.8471  0.2040 -0.9280
 3728TIP3   OH232818   6.001   0.738   7.564  0.2595 -0.5293  0.3435
 3728TIP3    H132819   6.073   0.777   7.613  0.2200  0.7768 -0.5974
 3728TIP3    H232820   5.945   0.812   7.539 -0.6395 -1.3552 -0.1895
 3729TIP3   OH232821   0.994   1.752   1.953  0.4192 -0.2279 -0.7239
 3729TIP3    H132822   0.977   1.700   2.031 -2.9395  0.1022 -1.0935
 3729TIP3    H232823   0.960   1.698   1.881  2.6953 -0.1745 -1.9242
 3730TIP3   OH232824   0.301   1.434   7.202 -0.5232  0.0503 -0.2569
 3730TIP3    H132825   0.312   1.517   7.155 -1.0433 -0.5815 -1.5418
 3730TIP3    H232826   0.235   1.454   7.269 -0.7704  0.6377 -0.6622
 3731TIP3   OH232827   0.686   5.114   1.522  0.2892 -0.3322  0.6503
 3731TIP3    H132828   0.693   5.028   1.566 -1.0338  0.3871  2.3862
 3731TIP3    H232829   0.674   5.176   1.594  1.1548  1.3401 -0.5830
 3732TIP3   OH232830   6.085   6.427   8.674 -0.2896 -0.1049 -0.1859
 3732TIP3    H132831   6.066   6.404   8.583  0.3337  0.2915 -0.4289
 3732TIP3    H232832   6.010   6.478   8.703 -0.2689  0.1903 -0.6466
 3733TIP3   OH232833   4.301   6.179   7.535  0.6968  0.1185 -0.8656
 3733TIP3    H132834   4.277   6.267   7.564 -1.5705 -0.6764 -0.1064
 3733TIP3    H232835   4.274   6.176   7.443 -2.0585 -0.6243 -0.1360
 3734TIP3   OH232836   3.251   5.917   7.230  0.1542 -0.7105  0.7152
 3734TIP3    H132837   3.316   5.897   7.163  0.1642 -0.2317  0.5770
 3734TIP3    H232838   3.261   6.011   7.246 -0.9465 -0.4868  0.1989
 3735TIP3   OH232839   0.081   5.485   7.630 -0.0633 -0.5044 -0.4645
 3735TIP3    H132840   0.174   5.460   7.635  0.1454  0.2987 -0.1935
 3735TIP3    H232841   0.036   5.403   7.612  0.9168 -0.5814 -3.0132
 3736TIP3   OH232842   3.995   2.255   1.031 -0.0540  0.0839  0.1981
 3736TIP3    H132843   4.055   2.323   1.000 -1.1110  0.9239 -0.0508
 3736TIP3    H232844   3.985   2.273   1.125 -1.4521  1.1806 -0.1387
 3737TIP3   OH232845   5.061   1.666   1.312  0.0121 -0.3847  0.1580
 3737TIP3    H132846   5.077   1.667   1.218  2.2757 -0.2814  0.4885
 3737TIP3    H232847   5.129   1.722   1.348 -1.8347  0.9813  1.7640
 3738TIP3   OH232848   0.617   6.633   6.676 -0.3335  0.3531 -0.3379
 3738TIP3    H132849   0.586   6.570   6.741  1.9695 -0.2773  0.2114
 3738TIP3    H232850   0.711   6.637   6.688  0.2533  0.1351 -3.6737
 3739TIP3   OH232851   2.483   4.005   0.395  0.5602 -0.7880 -0.1836
 3739TIP3    H132852   2.498   3.911   0.381  0.8483 -0.7637 -0.0624
 3739TIP3    H232853   2.541   4.027   0.468 -0.4184 -0.7757  0.6007
 3740TIP3   OH232854   3.352   5.986   8.143 -0.3571  0.1191 -0.0083
 3740TIP3    H132855   3.336   6.039   8.221 -0.4228 -0.7578  0.5850
 3740TIP3    H232856   3.421   6.033   8.096  1.2936 -0.4613  1.6945
 3741TIP3   OH232857   4.867   5.318   0.591  0.4894  0.0274  0.5409
 3741TIP3    H132858   4.788   5.285   0.634 -0.1281 -0.3852 -0.8496
 3741TIP3    H232859   4.910   5.372   0.657 -2.2341  2.3207  0.5919
 3742TIP3   OH232860   5.982   2.574   8.116  0.2447  0.3484 -0.4728
 3742TIP3    H132861   6.029   2.531   8.045 -1.2682 -0.4421 -1.0355
 3742TIP3    H232862   6.034   2.554   8.194  0.3542 -1.2995 -0.9320
 3743TIP3   OH232863   1.843   2.297   8.824 -0.0874  0.2850 -0.3521
 3743TIP3    H132864   1.910   2.230   8.835 -1.7234 -1.2264  0.8832
 3743TIP3    H232865   1.805   2.308   8.911 -0.3699  2.3084 -0.6853
 3744TIP3   OH232866   0.144   6.369   1.285  0.4941  0.4841  0.1717
 3744TIP3    H132867   0.125   6.350   1.376  2.1474  0.7456  0.5999
 3744TIP3    H232868   0.237   6.348   1.274  1.1204  3.2695 -0.6433
 3745TIP3   OH232869   2.999   6.085   0.039  0.6176  0.2527  0.1777
 3745TIP3    H132870   2.992   6.038  -0.044  0.8355 -1.7821  1.2362
 3745TIP3    H232871   3.039   6.022   0.099 -0.2720  1.3574  2.0468
 3746TIP3   OH232872   1.838   2.922   0.360  0.2047  0.1296  0.2407
 3746TIP3    H132873   1.916   2.875   0.388 -0.2525 -1.4698 -1.0235
 3746TIP3    H232874   1.843   2.924   0.265 -1.0702  0.3707  0.1588
 3747TIP3   OH232875   4.547   4.724   6.132  0.0619  0.4590 -0.0470
 3747TIP3    H132876   4.621   4.776   6.163  0.3660  0.0480 -0.0698
 3747TIP3    H232877   4.576   4.633   6.142 -0.8939  0.2649  1.0407
 3748TIP3   OH232878   2.143   1.754   8.337  0.1787  0.0887  0.1803
 3748TIP3    H132879   2.228   1.797   8.326  0.2108  0.5552  1.9236
 3748TIP3    H232880   2.120   1.769   8.429 -1.4128 -0.7364 -0.0405
 3749TIP3   OH232881   1.211   2.841   0.397  0.4239  0.3682  0.1383
 3749TIP3    H132882   1.242   2.807   0.481 -0.6250  0.0798  0.4276
 3749TIP3    H232883   1.124   2.877   0.416  0.0620  0.0755 -0.8713
 3750TIP3   OH232884   5.284   3.461   6.930  0.0758  0.6435  0.2617
 3750TIP3    H132885   5.270   3.502   6.844 -1.3235 -1.7444 -0.7672
 3750TIP3    H232886   5.379   3.451   6.937  0.1665 -0.4360 -1.7360
 3751TIP3   OH232887   1.702   4.209   8.256 -0.2067 -0.6920 -0.0789
 3751TIP3    H132888   1.647   4.266   8.202  0.9407  1.9226  1.3404
 3751TIP3    H232889   1.663   4.122   8.247 -2.7013  0.4813 -1.5041
 3752TIP3   OH232890   1.649   0.586   8.545 -0.1811  0.3330  0.0448
 3752TIP3    H132891   1.576   0.646   8.530 -1.0729 -0.2203  1.9152
 3752TIP3    H232892   1.607   0.502   8.566  0.9374  0.1390  1.6952
 3753TIP3   OH232893   2.544   3.831   1.835 -0.2783 -0.1020 -0.1317
 3753TIP3    H132894   2.522   3.768   1.905 -1.4732 -0.6590 -0.9637
 3753TIP3    H232895   2.634   3.811   1.812  0.0286 -0.1234  1.0276
 3754TIP3   OH232896   6.296   4.088   1.531  0.5444  0.5147  0.4641
 3754TIP3    H132897   6.288   4.040   1.614  0.7400 -0.6840 -0.1742
 3754TIP3    H232898   6.318   4.177   1.557 -0.7097  0.5011  1.7443
 3755TIP3   OH232899   5.548   3.049   7.483  0.0784  0.0729  0.2908
 3755TIP3    H132900   5.458   3.036   7.513  0.1485  0.2934  0.6082
 3755TIP3    H232901   5.539   3.068   7.390 -0.1784 -0.2195  0.2548
 3756TIP3   OH232902   3.993   0.238   7.034 -0.0516 -0.5079  0.1869
 3756TIP3    H132903   3.974   0.264   7.124  0.3920 -0.3449  0.2377
 3756TIP3    H232904   3.983   0.318   6.983 -0.1225 -0.5588  0.1213
 3757TIP3   OH232905   5.883   1.810   8.001 -0.1856 -0.3723 -0.1023
 3757TIP3    H132906   5.936   1.855   8.067  0.9514 -0.4442 -0.9408
 3757TIP3    H232907   5.792   1.822   8.030  0.2918 -0.3879  1.4545
 3758TIP3   OH232908   6.677   2.808   7.319 -0.4784  0.5536  0.3860
 3758TIP3    H132909   6.669   2.847   7.232 -0.4284  0.4237  0.3233
 3758TIP3    H232910   6.664   2.714   7.305 -1.2217  0.6151  0.6253
 3759TIP3   OH232911   5.741   0.414   8.644  0.4692 -0.3749 -0.5741
 3759TIP3    H132912   5.707   0.383   8.728 -0.7844  0.6255 -0.6810
 3759TIP3    H232913   5.683   0.377   8.578  0.7040 -0.1688 -0.9010
 3760TIP3   OH232914   6.485   6.551   7.224 -0.3182  0.2391 -0.4219
 3760TIP3    H132915   6.523   6.634   7.197 -0.8033 -0.0154 -1.9603
 3760TIP3    H232916   6.554   6.487   7.206 -0.1611  0.2295  0.2043
 3761TIP3   OH232917   6.461   4.442   0.565  1.3361 -0.2160 -0.4470
 3761TIP3    H132918   6.457   4.501   0.640  0.7804 -0.9513  0.1180
 3761TIP3    H232919   6.508   4.491   0.498 -0.4633  1.4607 -0.5592
 3762TIP3   OH232920   3.847   4.978   7.349 -0.2991  0.0592  0.1383
 3762TIP3    H132921   3.852   4.977   7.444 -0.2611 -0.9941  0.1376
 3762TIP3    H232922   3.913   5.041   7.321  0.5942 -0.5855  0.7613
 3763TIP3   OH232923   3.024   4.626   1.421  0.2170 -0.6917  0.3834
 3763TIP3    H132924   3.020   4.720   1.406  0.2956 -0.8084 -0.4081
 3763TIP3    H232925   3.114   4.611   1.450  0.2286 -0.5335  0.4302
 3764TIP3   OH232926   1.797   3.214   8.454  0.4024  0.0392 -0.1413
 3764TIP3    H132927   1.800   3.246   8.544 -1.3555  0.3340 -0.1541
 3764TIP3    H232928   1.889   3.206   8.428  0.9508 -0.4032  1.7924
 3765TIP3   OH232929   6.477   3.028   1.471  0.3493  0.0350 -0.5223
 3765TIP3    H132930   6.569   3.007   1.487  0.4767  0.3989 -0.7766
 3765TIP3    H232931   6.432   2.944   1.480  0.8719 -0.3814 -1.6268
 3766TIP3   OH232932   3.635   2.148   0.728  0.2131  0.4435  0.3356
 3766TIP3    H132933   3.607   2.239   0.734 -1.5867 -0.0659  0.2480
 3766TIP3    H232934   3.664   2.126   0.817  1.1938  1.2308  0.2313
 3767TIP3   OH232935   2.944   4.557   2.377 -0.4752  0.1010 -0.6354
 3767TIP3    H132936   2.861   4.584   2.338 -0.1031  0.4664 -1.1743
 3767TIP3    H232937   3.000   4.634   2.372 -0.6803  0.4333  1.3932
 3768TIP3   OH232938   5.191   3.974   0.606 -0.3766 -0.2716  0.3345
 3768TIP3    H132939   5.223   3.893   0.566 -0.8741 -0.4119  0.2007
 3768TIP3    H232940   5.110   3.947   0.651 -0.6939  0.2032  0.0500
 3769TIP3   OH232941   4.997   3.765   1.502 -0.1804  0.3334  0.0962
 3769TIP3    H132942   5.021   3.677   1.532  2.4702  0.6772 -0.8128
 3769TIP3    H232943   5.037   3.774   1.416  0.3641  2.7131  0.5104
 3770TIP3   OH232944   2.055   5.461   7.466  0.1951  0.5902 -0.4999
 3770TIP3    H132945   2.043   5.429   7.555 -0.4658 -2.2836 -1.5169
 3770TIP3    H232946   2.146   5.441   7.445  0.3997  1.4165 -0.4502
 3771TIP3   OH232947   5.035   3.396   1.147 -0.3846  0.0500 -0.8218
 3771TIP3    H132948   5.106   3.333   1.134 -0.6437 -0.3049 -0.5313
 3771TIP3    H232949   4.956   3.343   1.157 -0.4194  0.3489  0.7041
 3772TIP3   OH232950   1.020   4.281   8.714  0.0685  0.1315  0.2359
 3772TIP3    H132951   1.104   4.238   8.731 -0.2883 -1.2046 -1.1274
 3772TIP3    H232952   1.019   4.293   8.619 -1.6431 -0.7221  0.1072
 3773TIP3   OH232953   1.652   5.534   8.797  0.2934 -0.3288  0.4991
 3773TIP3    H132954   1.665   5.506   8.888 -0.7007 -0.6899  0.5424
 3773TIP3    H232955   1.557   5.539   8.787  0.4072  1.6531  0.0567
 3774TIP3   OH232956   1.700   5.391   0.163 -0.7819 -0.0577 -0.2309
 3774TIP3    H132957   1.697   5.299   0.137 -1.0886 -0.2663  0.5074
 3774TIP3    H232958   1.648   5.394   0.243  0.8979  0.3822  0.8918
 3775TIP3   OH232959   3.045   6.128   8.548  0.0284  0.1481  0.6858
 3775TIP3    H132960   3.013   6.217   8.564  0.2819  0.1179  1.3960
 3775TIP3    H232961   2.968   6.072   8.562 -0.3254  0.3024 -0.5151
 3776TIP3   OH232962   0.496   3.087   1.106  0.3830 -0.1752 -0.6351
 3776TIP3    H132963   0.556   3.160   1.091  0.4178  0.5781  2.5533
 3776TIP3    H232964   0.410   3.128   1.116  0.9693  0.4771  6.1937
 3777TIP3   OH232965   0.591   2.980   7.634  0.3704  0.1114 -0.6279
 3777TIP3    H132966   0.618   3.042   7.702 -1.8824 -0.0437  0.4878
 3777TIP3    H232967   0.502   3.005   7.612  0.7805 -0.3220 -3.0398
 3778TIP3   OH232968   3.168   3.481   7.367  1.0191  0.1118 -0.2973
 3778TIP3    H132969   3.170   3.474   7.462 -2.1005 -1.2133 -0.1941
 3778TIP3    H232970   3.185   3.573   7.348 -0.4966  0.8652  1.7240
 3779TIP3   OH232971   5.316   6.629   7.809 -0.4098  0.3718  0.5731
 3779TIP3    H132972   5.305   6.584   7.892 -0.9911  0.4928  0.5652
 3779TIP3    H232973   5.390   6.584   7.767 -0.8601 -0.4532  0.6429
 3780TIP3   OH232974   1.745   0.652   0.459 -0.0562  0.0386  0.0658
 3780TIP3    H132975   1.778   0.562   0.467 -1.2434 -0.6540 -1.9675
 3780TIP3    H232976   1.699   0.653   0.376  0.2366  2.6828 -0.1487
 3781TIP3   OH232977   5.736   3.151   1.369 -0.1789  0.0191 -0.0007
 3781TIP3    H132978   5.662   3.111   1.324  0.2304 -1.5726  0.6907
 3781TIP3    H232979   5.732   3.117   1.458  0.6639  0.9058  0.3996
 3782TIP3   OH232980   0.431   6.373   8.010 -0.3191  0.1591  0.3957
 3782TIP3    H132981   0.443   6.399   8.101  0.1664  1.9483 -0.1614
 3782TIP3    H232982   0.372   6.438   7.973  0.3223  0.0715 -0.8537
 3783TIP3   OH232983   0.841   3.385   7.516 -0.2727 -0.4477  0.0795
 3783TIP3    H132984   0.820   3.335   7.437 -1.6800  0.1745  0.0422
 3783TIP3    H232985   0.838   3.320   7.586 -1.1179 -0.6153 -0.0987
 3784TIP3   OH232986   3.477   0.443   0.877 -0.3329  0.2425  0.0381
 3784TIP3    H132987   3.559   0.475   0.916 -0.6040  1.3642 -0.2795
 3784TIP3    H232988   3.413   0.512   0.896 -1.3017 -0.7954  0.6096
 3785TIP3   OH232989   1.589   1.881   0.028  0.3257 -0.3883  0.2804
 3785TIP3    H132990   1.599   1.974   0.044  2.8395 -0.4036 -0.8396
 3785TIP3    H232991   1.563   1.845   0.113 -2.3100  1.4296  0.3982
 3786TIP3   OH232992   5.572   1.444   7.496 -0.5251  0.2671  0.6394
 3786TIP3    H132993   5.657   1.484   7.474 -0.4765  0.0867  0.4923
 3786TIP3    H232994   5.572   1.439   7.591  0.8802 -2.3615  0.5861
 3787TIP3   OH232995   4.684   4.128   8.032 -0.0926  0.0475  0.2478
 3787TIP3    H132996   4.673   4.149   7.939 -1.8071 -1.2498  0.1023
 3787TIP3    H232997   4.623   4.186   8.077 -0.6801 -0.6445  0.3639
 3788TIP3   OH232998   4.645   4.959   8.575  0.1984  0.1332 -0.1909
 3788TIP3    H132999   4.633   4.942   8.482 -1.5983  0.1280  0.0025
 3788TIP3    H233000   4.734   4.993   8.583  0.1662  0.7025 -1.9868
 3789TIP3   OH233001   4.023   1.590   7.874  0.2630  0.5107 -0.3669
 3789TIP3    H133002   3.989   1.621   7.958 -0.0436 -1.2196  0.1865
 3789TIP3    H233003   3.983   1.648   7.810 -1.3083  0.4763  0.5122
 3790TIP3   OH233004   0.628   6.428   2.015 -0.1892 -0.3109  0.4237
 3790TIP3    H133005   0.677   6.481   2.078 -1.1249  0.3271  0.6382
 3790TIP3    H233006   0.676   6.345   2.011  2.6225  1.2501 -1.5891
 3791TIP3   OH233007   6.440   3.943   0.609  0.2795  0.0577  0.0093
 3791TIP3    H133008   6.349   3.973   0.602  0.2433  0.0947  0.6075
 3791TIP3    H233009   6.456   3.936   0.703  0.5582 -0.9983 -0.1098
 3792TIP3   OH233010   5.312   2.467   7.568  0.1272 -0.7855 -0.4734
 3792TIP3    H133011   5.372   2.394   7.560  0.2790 -0.8085  0.6348
 3792TIP3    H233012   5.345   2.533   7.507 -0.4363 -1.8992 -2.0202
 3793TIP3   OH233013   3.619   3.947   1.618 -0.2127 -0.7038  0.0372
 3793TIP3    H133014   3.587   3.875   1.564 -2.5232  1.3596 -1.5564
 3793TIP3    H233015   3.679   3.995   1.561 -1.2547  0.4565 -0.1260
 3794TIP3   OH233016   5.966   4.204   7.234 -0.7385  0.2921 -0.4400
 3794TIP3    H133017   5.936   4.266   7.167  1.1591  1.1602 -0.5658
 3794TIP3    H233018   5.987   4.259   7.309  0.1852 -0.2870 -0.2567
 3795TIP3   OH233019   5.105   6.072   0.733 -0.2475  0.5776  0.1103
 3795TIP3    H133020   5.106   6.034   0.645  0.4155 -0.9130  0.7225
 3795TIP3    H233021   5.012   6.082   0.753 -0.4088  0.6766 -0.6548
 3796TIP3   OH233022   5.197   0.376   1.109 -0.5691 -0.3552  0.4327
 3796TIP3    H133023   5.110   0.359   1.072 -0.3258 -2.2067  0.6462
 3796TIP3    H233024   5.179   0.426   1.189 -1.4663 -0.8908  0.5853
 3797TIP3   OH233025   6.464   0.833   1.811 -0.3083 -0.5229  0.0110
 3797TIP3    H133026   6.392   0.772   1.794 -1.1917  0.3894  0.4344
 3797TIP3    H233027   6.487   0.818   1.902 -0.5507 -0.1857  0.1254
 3798TIP3   OH233028   3.102   0.774   2.177 -0.0802 -0.5654  0.2174
 3798TIP3    H133029   3.184   0.821   2.189 -0.1641  0.1010 -1.6668
 3798TIP3    H233030   3.083   0.737   2.264  2.3898 -1.0703  0.6147
 3799TIP3   OH233031   5.948   4.562   1.222 -0.6593 -0.0670 -0.4197
 3799TIP3    H133032   5.852   4.568   1.215 -1.1074 -3.2979  1.1353
 3799TIP3    H233033   5.977   4.539   1.134 -1.5581 -0.8654 -0.5297
 3800TIP3   OH233034   3.343   2.867   1.242 -0.2974 -0.0757 -0.3124
 3800TIP3    H133035   3.250   2.872   1.220 -1.6489 -0.0516  4.2826
 3800TIP3    H233036   3.354   2.779   1.278  0.4864  1.0480  2.4084
 3801TIP3   OH233037   0.569   1.995   7.612  0.2489 -0.3672 -0.0988
 3801TIP3    H133038   0.568   1.975   7.706 -1.1811  1.4639  0.3222
 3801TIP3    H233039   0.489   1.954   7.578 -0.7010  1.2875  0.0520
 3802TIP3   OH233040   3.458   1.243   0.043 -0.1401 -0.2545  0.1869
 3802TIP3    H133041   3.426   1.245  -0.047  0.7859  1.2085 -0.1515
 3802TIP3    H233042   3.389   1.283   0.095 -1.8598 -3.4555  0.6269
 3803TIP3   OH233043   4.644   0.816   8.129  0.4651 -0.2507  0.1995
 3803TIP3    H133044   4.689   0.862   8.058 -0.7379 -0.8546 -1.0066
 3803TIP3    H233045   4.621   0.885   8.191  1.2946  0.3357 -0.1162
 3804TIP3   OH233046   5.658   5.155   1.901 -0.0403  0.3116  0.9025
 3804TIP3    H133047   5.710   5.224   1.941  1.3325 -0.1026 -0.0882
 3804TIP3    H233048   5.568   5.174   1.927 -0.0075  3.6256 -0.8681
 3805TIP3   OH233049   0.684   5.261   7.936  0.0035  0.0040  0.3531
 3805TIP3    H133050   0.677   5.183   7.881  0.5418  1.1718 -1.4534
 3805TIP3    H233051   0.716   5.228   8.020  2.0234 -1.5337 -0.9315
 3806TIP3   OH233052   5.773   4.089   8.125  0.0959 -0.0824 -0.7525
 3806TIP3    H133053   5.853   4.037   8.122 -0.0096 -0.2091 -3.1408
 3806TIP3    H233054   5.715   4.040   8.183  1.5477 -0.1968  0.6996
 3807TIP3   OH233055   4.964   0.038   6.601 -0.2612 -0.2268 -0.0013
 3807TIP3    H133056   5.019   0.092   6.544 -1.8856  2.2255  0.5864
 3807TIP3    H233057   4.874   0.059   6.574 -1.0872  0.8114  3.1170
 3808TIP3   OH233058   4.195   6.666   7.399  0.3722  0.6081  0.6944
 3808TIP3    H133059   4.112   6.653   7.352 -0.2031  0.4593  1.7173
 3808TIP3    H233060   4.256   6.604   7.360 -0.3763 -0.2187  0.8060
 3809TIP3   OH233061   0.141   5.559   0.733  0.5813  0.8935  0.0487
 3809TIP3    H133062   0.165   5.622   0.665 -1.4835  0.1795 -1.4609
 3809TIP3    H233063   0.149   5.473   0.690  0.0096  0.3769  0.9460
 3810TIP3   OH233064   1.621   6.790   1.273 -0.5651  0.3275 -0.5311
 3810TIP3    H133065   1.706   6.762   1.238  0.3816  0.0667  1.7828
 3810TIP3    H233066   1.562   6.718   1.254 -0.0546  0.1012 -1.3433
 3811TIP3   OH233067   5.861   0.372   7.420  0.0761 -0.7082  0.4661
 3811TIP3    H133068   5.907   0.386   7.503  0.5085  1.0363 -0.0131
 3811TIP3    H233069   5.860   0.459   7.379 -0.4417 -1.4625 -1.1925
 3812TIP3   OH233070   0.035   3.477   1.285  0.1723  0.2025  0.3526
 3812TIP3    H133071   0.095   3.503   1.215 -0.8791 -1.0503 -1.0892
 3812TIP3    H233072   0.087   3.421   1.342  0.5638 -0.3052 -0.4876
 3813TIP3   OH233073   5.362   4.830   0.549 -1.0766 -0.2812  0.1975
 3813TIP3    H133074   5.356   4.905   0.608 -2.1817 -0.2511  0.0541
 3813TIP3    H233075   5.278   4.827   0.503 -0.3602 -0.4876 -1.1658
 3814TIP3   OH233076   6.713   6.568   7.617 -0.2919 -0.2381  0.1805
 3814TIP3    H133077   6.775   6.498   7.597 -0.1348  0.1961 -0.9285
 3814TIP3    H233078   6.768   6.645   7.634 -0.5065  0.1818 -0.9400
 3815TIP3   OH233079   4.307   4.540   8.214 -0.1329 -0.2419 -0.0416
 3815TIP3    H133080   4.309   4.486   8.293  1.3527 -1.7440 -1.0452
 3815TIP3    H233081   4.214   4.548   8.193 -0.4911 -0.6371  1.3007
 3816TIP3   OH233082   0.302   5.438   1.053 -0.1729 -0.0566  0.2390
 3816TIP3    H133083   0.271   5.520   1.093  1.0736  0.6068 -0.0859
 3816TIP3    H233084   0.236   5.416   0.988  0.8113  2.3254 -1.7535
 3817TIP3   OH233085   3.147   5.730   1.009 -0.0312 -0.1955  0.1262
 3817TIP3    H133086   3.053   5.734   0.992  0.1662 -0.4688 -1.1070
 3817TIP3    H233087   3.160   5.647   1.055 -0.1691 -1.0408 -1.3180
 3818TIP3   OH233088   3.195   1.174   0.461 -0.3971 -0.1599 -0.1637
 3818TIP3    H133089   3.286   1.148   0.472 -0.2550  0.7859  1.1055
 3818TIP3    H233090   3.178   1.235   0.532 -2.6310 -1.8982  0.9430
 3819TIP3   OH233091   6.819   5.840   0.549 -0.0190  0.4878 -0.0590
 3819TIP3    H133092   6.914   5.833   0.547 -0.0390 -0.4701  1.2810
 3819TIP3    H233093   6.792   5.829   0.458  1.0210 -1.3592 -0.1859
 3820TIP3   OH233094   4.275   2.572   0.046  0.2284  0.3275  0.1379
 3820TIP3    H133095   4.322   2.635   0.101 -1.1460  1.2209  0.3394
 3820TIP3    H233096   4.332   2.559  -0.030  0.2242  2.4441 -0.2968
 3821TIP3   OH233097   0.777   4.420   1.068  0.0718  0.1336 -0.3996
 3821TIP3    H133098   0.756   4.384   1.154 -0.6183  0.1113 -0.5690
 3821TIP3    H233099   0.807   4.509   1.086  0.5700 -0.1019 -0.0812
 3822TIP3   OH233100   3.536   2.690   0.752  0.2412 -0.0208  0.1423
 3822TIP3    H133101   3.509   2.706   0.843  1.5672  0.6066  0.4556
 3822TIP3    H233102   3.602   2.758   0.735  0.1841 -0.2813 -1.2196
 3823TIP3   OH233103   6.458   4.860   6.723 -0.1060  0.1257 -0.1154
 3823TIP3    H133104   6.366   4.837   6.708  0.0570 -0.9949  0.5176
 3823TIP3    H233105   6.504   4.822   6.647 -0.0857  0.1026 -0.0914
 3824TIP3   OH233106   1.152   3.526   6.521  0.7459  0.3874  0.0104
 3824TIP3    H133107   1.141   3.434   6.542  3.3288  0.1752  0.7950
 3824TIP3    H233108   1.089   3.543   6.451 -0.9449 -1.5135  0.9961
 3825TIP3   OH233109   0.415   5.469   6.551 -0.4472  0.2465 -0.0444
 3825TIP3    H133110   0.320   5.478   6.553 -0.4595  0.5157 -1.3425
 3825TIP3    H233111   0.446   5.554   6.519  0.1638 -0.2349 -0.7448
 3826TIP3   OH233112   1.175   3.658   2.588  0.6698  0.3221 -0.1632
 3826TIP3    H133113   1.111   3.633   2.521  0.0940 -0.5880  0.6935
 3826TIP3    H233114   1.191   3.751   2.573  0.1063  0.2662 -1.1887
 3827TIP3   OH233115   3.119   2.053   8.085  0.3320 -0.3089  0.4202
 3827TIP3    H133116   3.061   2.094   8.020  0.1220 -0.3771  0.5672
 3827TIP3    H233117   3.110   1.959   8.070  0.0492 -0.3357  0.7545
 3828TIP3   OH233118   5.236   0.571   1.728 -0.3131 -0.1344  0.2519
 3828TIP3    H133119   5.229   0.663   1.701  1.5996 -0.1354 -0.4099
 3828TIP3    H233120   5.205   0.570   1.819  1.2140  1.5056  0.8491
 3829TIP3   OH233121   5.575   0.583   0.691 -1.0255 -0.2434  0.0978
 3829TIP3    H133122   5.538   0.568   0.604 -2.7112  0.7956  0.5904
 3829TIP3    H233123   5.663   0.546   0.686  0.3127  2.8089 -3.1122
 3830TIP3   OH233124   3.289   4.563   2.319 -0.1364 -0.2169  0.4691
 3830TIP3    H133125   3.219   4.628   2.316  0.0181 -0.0295  0.8080
 3830TIP3    H233126   3.296   4.541   2.412 -0.8387 -1.4319  0.2593
 3831TIP3   OH233127   6.181   6.679   6.914  0.1048 -0.2226  0.6823
 3831TIP3    H133128   6.244   6.676   6.842  0.0139 -1.6675  0.6444
 3831TIP3    H233129   6.096   6.662   6.872 -0.1651  0.4791  0.9186
 3832TIP3   OH233130   3.890   2.871   2.677 -0.3657  0.2634  0.1164
 3832TIP3    H133131   3.808   2.840   2.639 -0.8910 -0.2027  1.5813
 3832TIP3    H233132   3.864   2.934   2.743  0.4717  0.2414  0.4867
 3833TIP3   OH233133   5.709   5.908   6.497 -0.4037  0.3436  0.0992
 3833TIP3    H133134   5.800   5.890   6.522 -0.2133  2.2040  0.9301
 3833TIP3    H233135   5.694   5.998   6.525 -2.7074 -0.0972  0.4988
 3834TIP3   OH233136   6.599   2.835   7.057  0.2569  0.3309  0.5838
 3834TIP3    H133137   6.516   2.881   7.041 -0.3218 -0.7785  0.3092
 3834TIP3    H233138   6.665   2.891   7.016 -0.6251  0.0819 -1.2865
 3835TIP3   OH233139   6.097   4.755   0.680  0.0954 -0.0278  0.3811
 3835TIP3    H133140   6.160   4.772   0.609  1.3284 -1.5424  1.0573
 3835TIP3    H233141   6.133   4.802   0.755 -1.8671  2.6390 -0.1937
 3836TIP3   OH233142   6.760   6.294   1.111 -0.0799 -0.2604 -0.0590
 3836TIP3    H133143   6.826   6.240   1.154  1.3043  0.1899 -1.5438
 3836TIP3    H233144   6.775   6.382   1.146  1.1299  0.1309 -1.4775
 3837TIP3   OH233145   6.099   1.739   1.874  0.2913  0.0022 -0.0085
 3837TIP3    H133146   6.050   1.677   1.820 -0.9357  1.9207 -1.1962
 3837TIP3    H233147   6.032   1.798   1.909  1.4998  1.2087  0.3469
 3838TIP3   OH233148   3.068   3.708   8.716  0.6679 -0.3885  0.1506
 3838TIP3    H133149   3.003   3.717   8.786  2.0157 -0.9913  1.5547
 3838TIP3    H233150   3.081   3.614   8.707  1.0008 -0.2917 -0.4314
 3839TIP3   OH233151   2.991   0.016   7.575  0.4171  0.8017  0.0019
 3839TIP3    H133152   2.988   0.109   7.599  1.0262 -0.1247  4.5836
 3839TIP3    H233153   3.071  -0.017   7.615 -1.3660 -2.2652  1.4245
 3840TIP3   OH233154   3.133   0.395   2.306 -0.3877  0.0394 -0.3467
 3840TIP3    H133155   3.088   0.478   2.295  0.7473  0.6839 -0.3443
 3840TIP3    H233156   3.173   0.401   2.393 -2.4792 -1.6242  0.8204
 3841TIP3   OH233157   4.598   1.079   0.894 -0.1540  0.5999 -0.0484
 3841TIP3    H133158   4.652   1.158   0.891 -1.4305  1.5879  1.2657
 3841TIP3    H233159   4.581   1.058   0.802 -0.5248  2.4008 -0.4338
 3842TIP3   OH233160   2.748   4.697   0.126 -0.2914 -0.4787 -0.7346
 3842TIP3    H133161   2.759   4.748   0.045 -2.7273 -0.9404 -1.4498
 3842TIP3    H233162   2.702   4.756   0.185 -0.4744 -0.8588 -0.4948
 3843TIP3   OH233163   2.369   5.468   6.984  0.1680 -0.3840  0.1607
 3843TIP3    H133164   2.377   5.408   7.059  0.7721 -0.3555  0.1222
 3843TIP3    H233165   2.275   5.480   6.974  0.0145 -1.4863  0.0537
 3844TIP3   OH233166   2.822   5.309   6.236 -0.2628 -0.4603 -0.2026
 3844TIP3    H133167   2.900   5.270   6.197  0.2660 -1.1134  1.4208
 3844TIP3    H233168   2.760   5.236   6.246  0.6243 -0.9726  2.5789
 3845TIP3   OH233169   4.594   6.631   8.517  0.3753 -0.2383 -0.2142
 3845TIP3    H133170   4.583   6.710   8.464  1.7765 -0.3421 -0.7005
 3845TIP3    H233171   4.506   6.595   8.526 -0.1419  0.8386 -0.8198
 3846TIP3   OH233172   2.644   6.716   2.318  0.6578 -0.6157  0.2799
 3846TIP3    H133173   2.727   6.706   2.271  0.8053 -1.2159  0.6491
 3846TIP3    H233174   2.597   6.634   2.301 -0.2153  0.0452 -0.5929
 3847TIP3   OH233175   4.353   4.190   8.595 -0.0977 -0.3223  0.3002
 3847TIP3    H133176   4.446   4.214   8.589 -0.1221 -0.0449  0.9761
 3847TIP3    H233177   4.312   4.238   8.522 -0.0299  1.2014  1.2105
 3848TIP3   OH233178   0.295   5.477   7.060 -0.2756 -0.0442 -0.1939
 3848TIP3    H133179   0.352   5.463   7.135 -2.1142 -0.5037  1.2034
 3848TIP3    H233180   0.347   5.451   6.984  1.0578 -1.2380  1.0734
 3849TIP3   OH233181   0.864   6.017   7.017  0.3630 -0.7201 -0.4838
 3849TIP3    H133182   0.793   5.957   6.995  0.5217 -0.4138 -1.9736
 3849TIP3    H233183   0.846   6.095   6.965  0.9001 -0.0041  0.3812
 3850TIP3   OH233184   1.757   0.337   0.275  0.1799 -0.0584  0.2343
 3850TIP3    H133185   1.840   0.334   0.226 -0.0473 -1.5938 -0.1218
 3850TIP3    H233186   1.757   0.255   0.325 -1.0066  0.0549  0.4336
 3851TIP3   OH233187   2.257   4.246   1.165  0.2477 -0.5280  0.1236
 3851TIP3    H133188   2.179   4.294   1.135  1.7391 -0.0537 -3.5324
 3851TIP3    H233189   2.312   4.312   1.206 -0.5681 -0.5567  1.3043
 3852TIP3   OH233190   4.093   1.427   8.264 -0.7736 -0.2015  0.3742
 3852TIP3    H133191   4.103   1.335   8.285 -0.2833  0.3951  3.0544
 3852TIP3    H233192   4.032   1.429   8.190 -0.7835 -2.6280  0.2606
 3853TIP3   OH233193   6.726   6.494   8.807 -0.5546 -0.2129 -0.1358
 3853TIP3    H133194   6.631   6.482   8.809 -0.5124 -0.6816 -0.5154
 3853TIP3    H233195   6.750   6.468   8.718 -0.0178 -0.5551  0.1059
 3854TIP3   OH233196   4.557   0.239   8.216  0.3771 -0.0566 -0.8119
 3854TIP3    H133197   4.582   0.311   8.275  0.7002 -0.1109 -0.8822
 3854TIP3    H233198   4.463   0.252   8.202 -0.1904 -1.2143  1.3638
 3855TIP3   OH233199   1.987   5.738   6.512 -0.9510 -0.0016  0.5512
 3855TIP3    H133200   2.023   5.657   6.475 -0.9785  1.0685 -2.0341
 3855TIP3    H233201   2.050   5.806   6.486 -1.8066  1.0632  1.1723
 3856TIP3   OH233202   3.388   1.628   8.299 -0.1803 -0.4320 -0.6176
 3856TIP3    H133203   3.402   1.534   8.311  1.1207 -0.2906 -0.9202
 3856TIP3    H233204   3.344   1.656   8.379  0.1131 -1.1612 -0.1942
 3857TIP3   OH233205   1.662   4.412   8.029 -0.2994  1.0102 -0.2387
 3857TIP3    H133206   1.707   4.489   8.064  2.6042 -0.2438 -0.8608
 3857TIP3    H233207   1.723   4.377   7.963 -1.4150 -1.8722  0.1107
 3858TIP3   OH233208   5.370   1.876   0.387  0.0904 -0.0718 -0.0356
 3858TIP3    H133209   5.277   1.859   0.371  0.3386  1.1432 -3.4992
 3858TIP3    H233210   5.373   1.966   0.418  0.1091 -0.1015  0.0489
 3859TIP3   OH233211   4.788   0.500   2.186 -0.1389  0.1278  0.3770
 3859TIP3    H133212   4.879   0.470   2.192  0.6412  2.5028  1.4100
 3859TIP3    H233213   4.794   0.594   2.171 -2.4592  0.1984 -0.5351
 3860TIP3   OH233214   5.356   5.504   8.064  0.0605  0.2859  0.3088
 3860TIP3    H133215   5.394   5.500   7.977  1.2140 -1.1401  0.8302
 3860TIP3    H233216   5.262   5.494   8.050  0.1500  0.9088 -0.8098
 3861TIP3   OH233217   5.466   1.602   0.466 -0.0086 -0.1833  0.0669
 3861TIP3    H133218   5.480   1.507   0.461  1.3710  0.0311 -0.5749
 3861TIP3    H233219   5.404   1.621   0.395  1.8005 -0.2727 -1.6003
 3862TIP3   OH233220   6.166   6.792   2.173  0.5400  0.1703 -0.1794
 3862TIP3    H133221   6.076   6.808   2.145  0.7913 -0.5646 -1.4987
 3862TIP3    H233222   6.175   6.696   2.169  2.4088  0.3169 -3.6696
 3863TIP3   OH233223   0.435   0.243   1.365 -0.3753  0.0136  0.5621
 3863TIP3    H133224   0.398   0.267   1.450 -0.8485 -2.3591  1.0943
 3863TIP3    H233225   0.453   0.149   1.372  0.5602 -0.0367 -1.6159
 3864TIP3   OH233226   0.548   2.067   1.861  0.0637  0.6458  0.3615
 3864TIP3    H133227   0.593   2.133   1.914  0.3840  0.0945  0.7804
 3864TIP3    H233228   0.618   2.012   1.825 -0.2843 -0.8644  1.8639
 3865TIP3   OH233229   5.234   4.557   1.176  0.4855  0.3546  0.5267
 3865TIP3    H133230   5.201   4.474   1.210 -1.9728  0.8301 -0.4827
 3865TIP3    H233231   5.195   4.565   1.089  2.3114  1.6468 -0.2360
 3866TIP3   OH233232   1.984   6.461   6.618  0.1808  0.2590 -0.3533
 3866TIP3    H133233   1.892   6.476   6.599 -0.8524 -2.8414  1.4470
 3866TIP3    H233234   2.025   6.447   6.533 -1.5052 -0.4912 -1.0754
 3867TIP3   OH233235   6.121   6.788   7.750 -0.5297 -0.3781 -0.0900
 3867TIP3    H133236   6.192   6.817   7.806 -0.8836  2.0112 -0.7454
 3867TIP3    H233237   6.162   6.773   7.664 -0.8022  1.2672 -0.5395
 3868TIP3   OH233238   3.829   1.574   1.618 -0.1556  0.1448 -0.3164
 3868TIP3    H133239   3.801   1.572   1.526 -0.9669 -3.3266 -0.1359
 3868TIP3    H233240   3.749   1.588   1.668  0.0354  0.3713 -0.0692
 3869TIP3   OH233241   0.673   4.250   0.616 -0.6345 -0.0643  0.0530
 3869TIP3    H133242   0.690   4.156   0.618 -1.9424 -0.2984  1.3152
 3869TIP3    H233243   0.745   4.289   0.666  1.5388 -0.0504 -2.8517
 3870TIP3   OH233244   3.917   0.686   7.172 -0.1240 -0.0053 -0.3998
 3870TIP3    H133245   3.890   0.757   7.231 -0.9600  0.1145 -0.9191
 3870TIP3    H233246   3.888   0.715   7.085 -0.8590 -1.1857 -0.5566
 3871TIP3   OH233247   6.597   0.870   6.552  0.1961 -0.2136  0.7658
 3871TIP3    H133248   6.508   0.837   6.541  0.6170 -1.8828  2.0698
 3871TIP3    H233249   6.597   0.913   6.637  0.7064 -0.5027  0.9189
 3872TIP3   OH233250   1.863   0.356   7.979  0.1043 -0.5342 -0.1924
 3872TIP3    H133251   1.823   0.353   7.893  1.0705  0.1908 -0.6857
 3872TIP3    H233252   1.880   0.265   8.001 -0.4597 -0.7434 -0.6173
 3873TIP3   OH233253   0.925   2.599   0.348  0.1973 -0.4647  0.2925
 3873TIP3    H133254   0.833   2.602   0.374  0.0059 -0.0249 -0.4151
 3873TIP3    H233255   0.967   2.547   0.416 -0.6998 -1.2548  0.2612
 3874TIP3   OH233256   3.580   4.518   8.016 -0.1529  0.0594  0.2809
 3874TIP3    H133257   3.657   4.479   8.057  0.6815 -0.5053 -1.7150
 3874TIP3    H233258   3.583   4.488   7.925 -1.3510  2.0864 -0.4960
 3875TIP3   OH233259   1.972   0.986   8.397  0.3909 -0.3690  0.2234
 3875TIP3    H133260   1.917   1.063   8.406 -0.2404 -0.6049 -1.3354
 3875TIP3    H233261   1.922   0.915   8.439  1.0658  0.0632  1.8449
 3876TIP3   OH233262   0.475   6.037   1.252  0.5081  0.7407  0.3911
 3876TIP3    H133263   0.384   6.007   1.253  0.3950  0.3692 -3.5969
 3876TIP3    H233264   0.469   6.132   1.265 -0.3352  0.6004  1.1312
 3877TIP3   OH233265   6.628   4.727   1.370 -0.0224  0.2428  0.7986
 3877TIP3    H133266   6.615   4.744   1.276  3.4974 -0.8913 -0.0586
 3877TIP3    H233267   6.637   4.814   1.409  2.8218  0.8130 -0.8130
 3878TIP3   OH233268   6.770   2.012   8.506  0.3436  0.2047 -0.3646
 3878TIP3    H133269   6.778   2.034   8.599  1.2486 -0.0436 -0.3708
 3878TIP3    H233270   6.676   2.011   8.489  0.0785 -1.4019  0.9609
 3879TIP3   OH233271   5.001   0.859   0.203  0.3889  0.1660  0.3645
 3879TIP3    H133272   4.918   0.906   0.211  1.1869  1.4447  1.6217
 3879TIP3    H233273   5.066   0.919   0.240  1.9041 -0.7422 -0.7143
 3880TIP3   OH233274   6.208   2.330   1.322  0.2454  0.0010  0.1792
 3880TIP3    H133275   6.196   2.325   1.417  0.8223  0.9383  0.3156
 3880TIP3    H233276   6.302   2.343   1.310 -0.1495  3.5442 -0.3067
 3881TIP3   OH233277   0.734   0.152   7.085  0.3100  0.2087 -0.0259
 3881TIP3    H133278   0.735   0.232   7.137 -1.4940 -0.9283  1.9266
 3881TIP3    H233279   0.650   0.154   7.040  0.2526 -0.5622  0.0344
 3882TIP3   OH233280   2.999   4.138   0.648  0.2388 -0.6810 -0.2267
 3882TIP3    H133281   3.077   4.166   0.697 -0.4122 -0.2108  0.5596
 3882TIP3    H233282   3.024   4.147   0.556  1.5060 -1.6431  0.0012
 3883TIP3   OH233283   6.318   3.205   1.588  0.0308  0.1148  0.4406
 3883TIP3    H133284   6.353   3.264   1.654  0.5245  1.5697 -1.0550
 3883TIP3    H233285   6.393   3.151   1.562  0.4218  1.0620 -0.4802
 3884TIP3   OH233286   5.867   0.017   6.946 -0.2697 -0.1451 -0.3487
 3884TIP3    H133287   5.833  -0.048   7.007  1.7978 -0.4645  0.5512
 3884TIP3    H233288   5.906  -0.035   6.876 -1.3506  0.2101 -1.2551
 3885TIP3   OH233289   4.821   3.889   7.732 -0.1012  0.3653 -0.1693
 3885TIP3    H133290   4.744   3.943   7.751  0.8001  1.2847  1.1471
 3885TIP3    H233291   4.893   3.952   7.728  0.7808 -0.6079 -0.0037
 3886TIP3   OH233292   3.647   4.338   7.422 -0.4171  0.2295  0.2593
 3886TIP3    H133293   3.633   4.285   7.500  1.1500 -0.7710 -0.0884
 3886TIP3    H233294   3.742   4.343   7.412 -0.5650  0.7978 -1.2711
 3887TIP3   OH233295   6.418   2.930   0.654 -0.7902 -0.3834 -0.3158
 3887TIP3    H133296   6.439   2.909   0.745 -3.2651 -0.4339  0.3130
 3887TIP3    H233297   6.441   3.023   0.645 -1.1579 -0.1935  0.5801
 3888TIP3   OH233298   1.977   3.655   1.210  0.3910  0.0911 -0.6247
 3888TIP3    H133299   2.011   3.733   1.255 -2.0089  0.3066  1.0560
 3888TIP3    H233300   2.042   3.587   1.225  1.3413  1.1301  0.0923
 3889TIP3   OH233301   6.758   5.523   0.325  0.3848 -0.0530 -0.4946
 3889TIP3    H133302   6.683   5.566   0.366  0.8586  1.8581 -1.5075
 3889TIP3    H233303   6.768   5.441   0.373 -1.6443  0.1542  0.3923
 3890TIP3   OH233304   3.683   4.577   7.139 -0.0580 -0.2795 -0.5148
 3890TIP3    H133305   3.716   4.490   7.158 -0.6062 -0.1419  1.2779
 3890TIP3    H233306   3.589   4.564   7.126 -0.4458  0.2300  1.5014
 3891TIP3   OH233307   5.422   0.688   2.148  0.1032  0.3749 -0.0031
 3891TIP3    H133308   5.507   0.721   2.118  0.7906  0.5369  1.9710
 3891TIP3    H233309   5.442   0.640   2.228 -1.2092 -2.7188 -1.3808
 3892TIP3   OH233310   4.794   2.299   7.902 -0.5321  0.0236  0.6105
 3892TIP3    H133311   4.834   2.225   7.948  0.2488  0.7143  1.0688
 3892TIP3    H233312   4.733   2.337   7.965  0.0637  0.5780  0.8684
 3893TIP3   OH233313   0.487   2.034   8.383  0.2207  0.0139 -0.2003
 3893TIP3    H133314   0.413   1.994   8.338  0.4001  1.1069 -1.5139
 3893TIP3    H233315   0.548   1.962   8.399  0.5744 -0.2687 -2.5950
 3894TIP3   OH233316   3.873   4.678   1.783  0.0942 -0.4340 -0.5324
 3894TIP3    H133317   3.918   4.611   1.730 -0.9148  1.0574 -3.4905
 3894TIP3    H233318   3.932   4.753   1.781  0.0165 -0.3231  0.5343
 3895TIP3   OH233319   2.898   0.659   0.047 -0.1925  0.0039  0.8983
 3895TIP3    H133320   2.933   0.573   0.070  2.1875  0.5377 -0.4449
 3895TIP3    H233321   2.875   0.698   0.132 -0.3512 -1.5189  1.6020
 3896TIP3   OH233322   6.486   4.793   0.081  0.3684  0.0322 -0.4904
 3896TIP3    H133323   6.506   4.828   0.167 -0.4792 -0.2864 -0.1562
 3896TIP3    H233324   6.490   4.698   0.091 -1.0490 -0.0522 -0.4450
 3897TIP3   OH233325   5.004   2.208   8.401  0.1545  0.4952  0.2389
 3897TIP3    H133326   5.098   2.201   8.417  0.2366  0.5718 -0.1978
 3897TIP3    H233327   4.990   2.157   8.321 -0.1409  0.6687  0.1812
 3898TIP3   OH233328   3.995   2.850   8.190  0.3860 -0.2849  0.0607
 3898TIP3    H133329   4.089   2.843   8.205  0.6215 -0.2630 -1.2962
 3898TIP3    H233330   3.964   2.908   8.260  1.1023 -1.5126  1.4411
 3899TIP3   OH233331   5.532   2.724   8.086 -0.1555 -0.6994  0.4190
 3899TIP3    H133332   5.574   2.671   8.154  2.4781 -0.9047 -1.2060
 3899TIP3    H233333   5.579   2.808   8.089  0.2597 -0.8205 -1.2806
 3900TIP3   OH233334   4.351   1.538   8.231  0.4060  0.0179  0.3789
 3900TIP3    H133335   4.256   1.527   8.232  0.3210  0.6782  1.9759
 3900TIP3    H233336   4.367   1.610   8.171 -0.3585  1.7190  2.1288
 3901TIP3   OH233337   1.358   6.116   2.090  0.3748 -0.2352  0.1855
 3901TIP3    H133338   1.349   6.028   2.127  2.9068 -0.5014  0.3062
 3901TIP3    H233339   1.373   6.102   1.997  0.5639  0.0782  0.1661
 3902TIP3   OH233340   6.431   3.403   7.322 -0.4943  0.2252 -0.2477
 3902TIP3    H133341   6.524   3.416   7.343 -0.2326 -1.1062 -0.4866
 3902TIP3    H233342   6.420   3.308   7.324 -2.2547  0.4081  1.4460
 3903TIP3   OH233343   4.036   3.387   7.325 -0.2203  0.2729 -0.3004
 3903TIP3    H133344   4.083   3.461   7.363  1.7930 -1.0600 -0.0388
 3903TIP3    H233345   4.010   3.333   7.400 -0.0321 -0.2172 -0.5809
 3904TIP3   OH233346   0.648   4.634   8.237 -0.1814 -0.3901 -0.4988
 3904TIP3    H133347   0.604   4.588   8.166  3.2292 -0.9241 -2.4832
 3904TIP3    H233348   0.679   4.715   8.197 -0.2943  0.4901  1.1189
 3905TIP3   OH233349   4.957   0.990   8.143  0.0573 -0.3027 -0.6701
 3905TIP3    H133350   4.896   0.964   8.074  1.2097 -0.1412 -1.7847
 3905TIP3    H233351   4.943   0.926   8.213 -1.6010 -0.0696 -0.7443
 3906TIP3   OH233352   1.372   2.916   7.895 -0.2974  0.7291  0.5766
 3906TIP3    H133353   1.399   2.933   7.804  2.7693  0.4317  1.2967
 3906TIP3    H233354   1.389   2.999   7.941 -0.5092  0.4635  1.1401
 3907TIP3   OH233355   3.239   2.493   8.388 -0.0525 -0.1006  0.4670
 3907TIP3    H133356   3.264   2.423   8.448 -2.0349 -1.1433  0.1239
 3907TIP3    H233357   3.259   2.459   8.301  0.4662  0.4230  0.3699
 3908TIP3   OH233358   2.858   3.738   1.503 -0.2753 -0.5332 -0.3446
 3908TIP3    H133359   2.875   3.644   1.512  0.0095 -0.5162 -0.6880
 3908TIP3    H233360   2.909   3.778   1.573  0.1414 -0.5824 -0.6159
 3909TIP3   OH233361   4.927   0.712   7.929 -0.3037 -0.1477  0.4785
 3909TIP3    H133362   4.883   0.673   8.004 -0.6996 -0.4959  0.0742
 3909TIP3    H233363   4.959   0.637   7.878  0.3714  0.0897  0.5305
 3910TIP3   OH233364   2.902   1.064   8.103  0.1854  0.0395  0.1960
 3910TIP3    H133365   2.839   1.019   8.047 -1.1342  2.7292 -0.6792
 3910TIP3    H233366   2.984   1.063   8.054  0.1881 -1.2938  0.1894
 3911TIP3   OH233367   5.167   1.619   8.789  0.4849 -0.4174 -0.4235
 3911TIP3    H133368   5.079   1.617   8.827  0.2012  1.3590 -0.9069
 3911TIP3    H233369   5.181   1.529   8.759 -1.9078 -0.3777 -1.9505
 3912TIP3   OH233370   0.050   5.332   7.323 -0.0100 -0.0836 -0.0429
 3912TIP3    H133371   0.037   5.265   7.256 -2.8382  1.9649 -1.7259
 3912TIP3    H233372  -0.033   5.336   7.370  0.0479  2.2283 -0.0196
 3913TIP3   OH233373   4.460   3.401   0.426 -0.6744 -0.5163 -0.5176
 3913TIP3    H133374   4.434   3.469   0.364  0.6217 -0.7650 -1.3813
 3913TIP3    H233375   4.390   3.400   0.491 -2.0779 -0.2261 -1.9485
 3914TIP3   OH233376   1.754   1.200   2.109  0.2075 -0.3999  0.7396
 3914TIP3    H133377   1.793   1.272   2.060  1.8082 -0.4939  1.7965
 3914TIP3    H233378   1.746   1.129   2.045  0.1589  0.1862  0.0845
 3915TIP3   OH233379   2.514   5.009   1.530 -0.1094 -0.0641  0.1948
 3915TIP3    H133380   2.585   5.025   1.591 -0.2152 -0.3279  0.3882
 3915TIP3    H233381   2.544   5.047   1.447 -0.1890  0.7676  0.5393
 3916TIP3   OH233382   4.864   6.562   0.832 -0.0564  0.1998  0.4320
 3916TIP3    H133383   4.867   6.576   0.926 -0.5554  0.4510  0.4152
 3916TIP3    H233384   4.948   6.521   0.811  0.1873  0.4362  0.9324
 3917TIP3   OH233385   0.592   3.563   1.196 -0.0167 -0.7612  0.0288
 3917TIP3    H133386   0.606   3.477   1.156 -1.3680 -0.3019 -1.5464
 3917TIP3    H233387   0.681   3.595   1.215  0.7364 -1.1426 -2.4497
 3918TIP3   OH233388   5.607   6.751   6.645  0.3943  0.1861  0.0893
 3918TIP3    H133389   5.681   6.695   6.622 -1.0066 -2.3581  1.2951
 3918TIP3    H233390   5.552   6.752   6.567 -0.0528 -1.0545  0.3580
 3919TIP3   OH233391   5.422   4.668   8.423  0.2217 -0.6003  0.5808
 3919TIP3    H133392   5.414   4.674   8.518 -0.0663 -2.0583  0.6756
 3919TIP3    H233393   5.499   4.613   8.409 -0.1939 -1.0513 -0.0018
 3920TIP3   OH233394   6.809   2.084   0.879  0.2586  0.0661 -0.1712
 3920TIP3    H133395   6.809   2.037   0.963  0.4713 -0.6858 -0.5815
 3920TIP3    H233396   6.717   2.107   0.864  0.1151 -0.4237 -0.0676
 3921TIP3   OH233397   6.334   4.646   7.430  0.1441  0.3545  0.2296
 3921TIP3    H133398   6.321   4.559   7.393 -2.7313  0.0480  1.7015
 3921TIP3    H233399   6.295   4.705   7.365  0.4182  0.3925  0.0959
 3922TIP3   OH233400   2.588   0.097   6.558 -0.1239 -0.6942 -0.5696
 3922TIP3    H133401   2.626   0.024   6.607  1.1372  0.5491  0.3655
 3922TIP3    H233402   2.630   0.094   6.472  0.6109 -0.5431 -0.2221
 3923TIP3   OH233403   4.396   4.927   1.916 -0.0780  0.5494  0.0387
 3923TIP3    H133404   4.338   4.994   1.880 -1.8521 -1.3271 -0.7850
 3923TIP3    H233405   4.338   4.855   1.940  1.8146 -1.0351  0.1277
 3924TIP3   OH233406   4.348   5.776   0.624 -0.0220  0.0535  0.3117
 3924TIP3    H133407   4.404   5.802   0.551  0.3885  0.8145  0.8767
 3924TIP3    H233408   4.287   5.849   0.635 -0.1687 -0.1151  0.6431
 3925TIP3   OH233409   0.303   1.875   7.841 -0.4778  0.5785 -0.7701
 3925TIP3    H133410   0.324   1.830   7.759  1.4721  1.6386 -0.9202
 3925TIP3    H233411   0.388   1.901   7.877 -1.2692  0.2214  1.5793
 3926TIP3   OH233412   0.078   3.605   0.619 -1.1343  0.3294  0.4613
 3926TIP3    H133413   0.067   3.672   0.551  0.1170  0.5849  0.4890
 3926TIP3    H233414   0.106   3.527   0.570  3.3447  1.4026  0.8235
 3927TIP3   OH233415   6.374   1.998   1.205  0.4247 -0.0587  0.3055
 3927TIP3    H133416   6.429   1.928   1.168  2.2258  1.7680 -0.6935
 3927TIP3    H233417   6.394   2.074   1.151 -2.3370  0.9900  0.6301
 3928TIP3   OH233418   5.755   6.287   8.754  0.1984  0.1083 -0.2422
 3928TIP3    H133419   5.698   6.287   8.677 -1.2139  0.7969  0.7731
 3928TIP3    H233420   5.793   6.199   8.755  0.6979  0.2601 -2.0301
 3929TIP3   OH233421   1.490   3.266   7.000  0.0937 -0.5495 -0.1971
 3929TIP3    H133422   1.488   3.171   6.985  0.1863 -0.4033 -1.1739
 3929TIP3    H233423   1.523   3.303   6.918 -0.7230  0.3863 -0.1222
 3930TIP3   OH233424   0.458   6.468   8.286  0.3869 -0.2755 -0.1135
 3930TIP3    H133425   0.381   6.525   8.292 -0.2190 -1.1349  0.6841
 3930TIP3    H233426   0.532   6.526   8.300 -0.2869  0.1445  2.1378
 3931TIP3   OH233427   6.029   4.860   8.246  0.0337 -0.4274  0.2816
 3931TIP3    H133428   6.125   4.860   8.242  0.0990  0.0967  1.3907
 3931TIP3    H233429   6.002   4.811   8.168  1.1230  1.1916 -1.1794
 3932TIP3   OH233430   3.090   2.906   7.128 -0.1124 -0.5553  0.1939
 3932TIP3    H133431   3.157   2.974   7.124  0.2171 -0.8363  0.8091
 3932TIP3    H233432   3.036   2.921   7.051 -0.3136  0.6769  0.5544
 3933TIP3   OH233433   2.338   3.265   0.519 -0.0188 -0.6060  0.0606
 3933TIP3    H133434   2.396   3.321   0.571  1.1864 -1.1635 -0.6256
 3933TIP3    H233435   2.349   3.177   0.557 -2.8699 -0.2433  1.9627
 3934TIP3   OH233436   1.295   4.027   0.364  0.2314 -0.1210  0.2334
 3934TIP3    H133437   1.310   4.076   0.283  0.1372  0.5723  0.6371
 3934TIP3    H233438   1.238   3.954   0.338  1.0912 -0.5418 -0.5438
 3935TIP3   OH233439   0.828   1.671   8.479  0.0863  0.2700 -0.1943
 3935TIP3    H133440   0.888   1.735   8.442 -0.0377  0.1742 -0.5593
 3935TIP3    H233441   0.886   1.604   8.517  0.2890 -1.1886 -2.8315
 3936TIP3   OH233442   0.994   1.670   8.069 -0.4577  0.0783  0.3071
 3936TIP3    H133443   1.083   1.705   8.070 -0.6502  0.5992  1.9019
 3936TIP3    H233444   0.999   1.590   8.122 -1.3579  1.3399  2.4115
 3937TIP3   OH233445   0.094   2.136   0.608  0.0628  0.0848 -0.3426
 3937TIP3    H133446   0.185   2.113   0.586 -0.4528 -0.6156 -1.8182
 3937TIP3    H233447   0.103   2.192   0.686  1.7492 -0.0641 -0.3768
 3938TIP3   OH233448   5.927   0.620   0.337  0.1954  0.5120  0.4398
 3938TIP3    H133449   5.917   0.525   0.340  2.6371  0.1625 -0.5305
 3938TIP3    H233450   5.883   0.646   0.257 -0.2592  0.1670  0.5731
 3939TIP3   OH233451   6.295   4.476   8.075 -0.5848  0.1317  0.6993
 3939TIP3    H133452   6.365   4.425   8.034 -1.3886 -1.5704  1.3593
 3939TIP3    H233453   6.335   4.514   8.153 -0.2142 -0.2374  0.6906
 3940TIP3   OH233454   5.808   0.152   8.151  0.1373  0.3109 -0.2745
 3940TIP3    H133455   5.858   0.135   8.071 -0.4562  0.6514 -0.7297
 3940TIP3    H233456   5.771   0.240   8.137 -1.0465 -0.1548 -0.2042
 3941TIP3   OH233457   1.095   5.553   6.005  0.4637  0.0425  0.2189
 3941TIP3    H133458   1.043   5.473   6.008  1.3014 -0.5787 -1.0832
 3941TIP3    H233459   1.175   5.532   6.053  0.1594  0.5189  0.9512
 3942TIP3   OH233460   0.080   5.185   6.598  0.1346  0.6131 -0.0068
 3942TIP3    H133461   0.149   5.121   6.583  0.9843  2.0042 -2.4909
 3942TIP3    H233462   0.126   5.264   6.628 -0.4234  1.3288 -0.9797
 3943TIP3   OH233463   3.437   5.536   8.689  0.2414 -0.3131  0.2778
 3943TIP3    H133464   3.403   5.621   8.718 -0.8704 -0.5871 -0.1746
 3943TIP3    H233465   3.522   5.528   8.733 -0.0707  0.5949  1.0822
 3944TIP3   OH233466   1.865   5.421   8.097 -0.4019 -0.3833 -0.4152
 3944TIP3    H133467   1.835   5.391   8.183  0.4303 -0.0114  0.0088
 3944TIP3    H233468   1.817   5.366   8.035 -0.3541 -1.2683  0.3109
 3945TIP3   OH233469   2.215   1.005   6.573 -0.2408 -0.0967  0.1319
 3945TIP3    H133470   2.134   1.015   6.524 -0.2628 -1.3822 -0.1249
 3945TIP3    H233471   2.276   0.966   6.511 -0.5708 -2.7680  1.3304
 3946TIP3   OH233472   6.007   1.274   7.582  0.2117 -0.1510 -0.3695
 3946TIP3    H133473   6.048   1.304   7.663 -2.3513 -2.2352  1.8857
 3946TIP3    H233474   5.956   1.350   7.552 -0.3730  0.0720  1.1049
 3947TIP3   OH233475   2.751   1.219   7.471  0.2140  0.9445 -0.0284
 3947TIP3    H133476   2.696   1.270   7.529  0.4903 -1.1750  2.2427
 3947TIP3    H233477   2.691   1.158   7.428  0.4468  0.1241  0.7752
 3948TIP3   OH233478   6.777   4.804   8.434 -0.0594 -0.2684 -0.4409
 3948TIP3    H133479   6.686   4.826   8.453  0.1607  0.2882 -0.0033
 3948TIP3    H233480   6.775   4.711   8.411 -0.8409 -0.0850 -1.1827
 3949TIP3   OH233481   2.488   3.510   1.353  0.8097  0.0002  0.4672
 3949TIP3    H133482   2.484   3.420   1.385  1.4744 -0.4708 -0.6926
 3949TIP3    H233483   2.556   3.508   1.285 -0.6592  0.8874 -1.0995
 3950TIP3   OH233484   4.589   2.322   1.405 -0.3088  0.0903 -0.0324
 3950TIP3    H133485   4.574   2.239   1.452  1.8914 -1.3520 -1.6700
 3950TIP3    H233486   4.648   2.371   1.462 -1.6630  0.5966  0.9717
 3951TIP3   OH233487   5.344   4.997   0.766 -0.2599 -0.0617 -0.5220
 3951TIP3    H133488   5.331   4.957   0.853 -1.9574  1.3641 -0.0452
 3951TIP3    H233489   5.437   4.986   0.748 -0.0626 -1.3324  1.0115
 3952TIP3   OH233490   2.824   1.406   1.231  0.2128 -0.0743 -0.9638
 3952TIP3    H133491   2.778   1.474   1.280  1.2690  0.2512 -0.3855
 3952TIP3    H233492   2.879   1.454   1.169  0.0718 -0.4401 -1.3761
 3953TIP3   OH233493   1.084   6.769   2.259  0.3788 -0.0541 -0.6298
 3953TIP3    H133494   1.016   6.731   2.315 -0.5559  0.1939 -1.5518
 3953TIP3    H233495   1.047   6.852   2.230  0.3946 -0.6023 -2.3745
 3954TIP3   OH233496   2.316   2.381   0.567 -0.2476  0.1279 -0.1497
 3954TIP3    H133497   2.351   2.467   0.545 -2.0868  0.8595 -0.4401
 3954TIP3    H233498   2.265   2.356   0.490 -1.7471 -0.0841  0.8719
 3955TIP3   OH233499   0.955   1.889   1.481 -0.4305 -0.0406  0.2460
 3955TIP3    H133500   0.902   1.844   1.547 -4.4186  1.9629 -1.2906
 3955TIP3    H233501   0.963   1.825   1.410  1.3915 -1.1674  1.3732
 3956TIP3   OH233502   6.432   5.156   0.249  0.2402 -1.1821  0.9374
 3956TIP3    H133503   6.431   5.249   0.273  0.7949 -1.5306  2.3840
 3956TIP3    H233504   6.349   5.122   0.284  0.0406 -1.2502  0.4131
 3957TIP3   OH233505   3.899   5.951   1.330  0.1940 -0.2316 -0.1348
 3957TIP3    H133506   3.939   6.035   1.349  0.0684  1.2382 -4.9733
 3957TIP3    H233507   3.816   5.973   1.288 -0.5694 -2.8427 -0.1972
 3958TIP3   OH233508   6.800   3.765   8.289 -0.0819  0.6813  0.3726
 3958TIP3    H133509   6.777   3.857   8.285 -1.5532  0.3522  0.6135
 3958TIP3    H233510   6.838   3.753   8.377  0.0668  1.0387  0.3578
 3959TIP3   OH233511   0.611   1.763   0.554  0.2354 -0.1895 -0.2791
 3959TIP3    H133512   0.701   1.758   0.522  0.3063 -0.5630 -0.0324
 3959TIP3    H233513   0.573   1.677   0.534  0.0084 -0.1169 -0.1691
 3960TIP3   OH233514   2.727   5.301   2.322 -0.5291 -0.0083 -0.1040
 3960TIP3    H133515   2.795   5.289   2.388 -0.9160 -1.2765  0.1099
 3960TIP3    H233516   2.680   5.217   2.322 -1.2485  0.3764 -1.1832
 3961TIP3   OH233517   5.923   3.257   7.550  0.0207 -0.2773 -0.7278
 3961TIP3    H133518   5.909   3.163   7.542  0.7234 -0.3120 -1.7325
 3961TIP3    H233519   5.839   3.296   7.524 -1.1440 -0.6263  2.1139
 3962TIP3   OH233520   0.564   1.320   1.428 -0.2017  0.2181  0.0250
 3962TIP3    H133521   0.609   1.404   1.415  0.4593  0.0454  1.0349
 3962TIP3    H233522   0.474   1.344   1.449  0.3300  0.7886  1.8479
 3963TIP3   OH233523   0.595   3.664   1.877  0.1915 -0.1036 -0.0532
 3963TIP3    H133524   0.553   3.586   1.912 -0.7572 -0.1067 -1.1536
 3963TIP3    H233525   0.526   3.709   1.828  1.3995 -0.0086 -1.7650
 3964TIP3   OH233526   5.076   5.372   0.020  0.2176 -0.2566  0.1796
 3964TIP3    H133527   4.997   5.334   0.058 -1.2102  1.0074 -1.3594
 3964TIP3    H233528   5.051   5.461  -0.003  2.5837  0.7095  1.0165
 3965TIP3   OH233529   2.224   0.667   6.630 -0.3189  0.6992 -0.4374
 3965TIP3    H133530   2.255   0.719   6.704 -0.1612  1.7988 -1.2385
 3965TIP3    H233531   2.204   0.732   6.562 -0.3655 -0.2768 -1.3921
 3966TIP3   OH233532   0.780   1.234   1.583 -0.2547 -0.0979  0.0821
 3966TIP3    H133533   0.829   1.295   1.638  1.2654 -1.9335  0.8913
 3966TIP3    H233534   0.701   1.282   1.559  0.6001  1.9773  1.0880
 3967TIP3   OH233535   1.893   3.872   7.935 -0.2293 -0.7991  0.0797
 3967TIP3    H133536   1.874   3.796   7.879  2.8158 -3.8619  2.7809
 3967TIP3    H233537   1.965   3.916   7.890  0.0416 -1.3231 -0.0132
 3968TIP3   OH233538   4.457   0.498   0.037  0.6046  0.9097 -0.0597
 3968TIP3    H133539   4.392   0.428   0.035  0.0535  1.4167  0.0152
 3968TIP3    H233540   4.452   0.538  -0.050  0.9552  0.8257 -0.1197
 3969TIP3   OH233541   2.283   1.696   2.368 -0.4356  0.2750 -0.2190
 3969TIP3    H133542   2.216   1.694   2.300 -0.2039 -0.0505 -0.4426
 3969TIP3    H233543   2.365   1.680   2.321 -0.4151 -1.3330  0.3047
 3970TIP3   OH233544   4.928   0.617   0.355 -0.3100 -0.1229  0.3183
 3970TIP3    H133545   4.934   0.689   0.292  1.0635 -0.0840  0.4732
 3970TIP3    H233546   4.877   0.654   0.428 -0.0692  0.5170  0.1726
 3971TIP3   OH233547   0.295   5.084   8.271 -0.3088 -0.4804  0.5378
 3971TIP3    H133548   0.294   5.043   8.185  0.7974  0.6070 -0.0097
 3971TIP3    H233549   0.322   5.013   8.330  2.5551 -0.4145 -0.5226
 3972TIP3   OH233550   2.471   2.119   0.449 -0.3477  0.4973  0.1191
 3972TIP3    H133551   2.463   2.024   0.437 -1.0573  0.5842 -0.1239
 3972TIP3    H233552   2.564   2.133   0.465 -0.3017 -0.2928  0.6214
 3973TIP3   OH233553   1.496   0.269   7.799 -0.0079 -0.7864 -0.1766
 3973TIP3    H133554   1.590   0.272   7.780  0.1342  1.3317  0.7086
 3973TIP3    H233555   1.490   0.229   7.886  0.3460  1.6218  1.0315
 3974TIP3   OH233556   2.854   5.302   1.420  0.6456  0.1373  1.0903
 3974TIP3    H133557   2.805   5.314   1.502  0.6319 -0.6872  1.2121
 3974TIP3    H233558   2.834   5.380   1.369 -1.5709 -0.5831  0.7558
 3975TIP3   OH233559   2.276   1.803   7.351 -0.1728  0.5122 -0.0190
 3975TIP3    H133560   2.304   1.712   7.363  0.1232  0.3308 -1.7975
 3975TIP3    H233561   2.239   1.806   7.262 -0.8835  1.9623  0.2868
 3976TIP3   OH233562   4.429   4.699   1.126 -0.2354  0.6462  0.3065
 3976TIP3    H133563   4.445   4.737   1.040  0.6234  1.0319  0.6286
 3976TIP3    H233564   4.333   4.690   1.131 -0.3204  1.0573 -0.4972
 3977TIP3   OH233565   6.405   0.947   6.819 -0.1479 -0.4741 -0.6766
 3977TIP3    H133566   6.346   1.022   6.815 -0.4571 -0.3109  3.0750
 3977TIP3    H233567   6.490   0.985   6.839 -0.0252 -1.0392 -0.0974
 3978TIP3   OH233568   5.205   1.940   1.122  0.5233  0.4450  0.4029
 3978TIP3    H133569   5.119   1.983   1.125  0.1548 -0.2934  0.5030
 3978TIP3    H233570   5.253   1.979   1.195  0.1362  0.5778  0.5924
 3979TIP3   OH233571   1.805   3.902   0.517 -0.2076 -0.4560 -0.1419
 3979TIP3    H133572   1.719   3.927   0.549 -0.4587  0.6786 -1.5969
 3979TIP3    H233573   1.790   3.872   0.427  1.2392  3.2024 -1.8382
 3980TIP3   OH233574   4.557   5.175   6.921  0.1494  0.1959 -0.1819
 3980TIP3    H133575   4.615   5.129   6.860  0.5957 -0.7882  0.9560
 3980TIP3    H233576   4.604   5.255   6.943  0.5843 -0.0798 -0.1012
 3981TIP3   OH233577   1.450   4.382   8.714 -0.4193  0.2908 -0.1328
 3981TIP3    H133578   1.470   4.289   8.725  1.0350  0.3734 -1.6386
 3981TIP3    H233579   1.407   4.407   8.796 -0.9156 -1.7109  0.2784
 3982TIP3   OH233580   4.599   2.632   8.162  0.0351  0.1203  0.3432
 3982TIP3    H133581   4.540   2.593   8.227  0.2159 -0.5053  0.1439
 3982TIP3    H233582   4.681   2.583   8.172 -0.3311 -0.8624 -1.2206
 3983TIP3   OH233583   1.707   1.664   7.438 -0.1504 -0.2608  0.0142
 3983TIP3    H133584   1.677   1.592   7.493 -1.5070  0.7713  0.6820
 3983TIP3    H233585   1.675   1.641   7.350 -0.5303 -0.5036  0.2118
 3984TIP3   OH233586   2.827   3.244   7.312 -0.1098  0.3486 -0.3605
 3984TIP3    H133587   2.900   3.228   7.373  0.0238  1.7040 -0.1215
 3984TIP3    H233588   2.849   3.327   7.270 -2.3420  1.7655  1.0342
 3985TIP3   OH233589   5.737   2.828   0.528 -0.6327 -0.2725  0.5644
 3985TIP3    H133590   5.685   2.906   0.546  2.3213  1.3654  2.8807
 3985TIP3    H233591   5.788   2.851   0.451  0.0068 -0.0123  1.0587
 3986TIP3   OH233592   4.184   1.752   1.650 -0.1782  0.2323  0.1657
 3986TIP3    H133593   4.090   1.770   1.650 -0.1075  0.6231 -0.0615
 3986TIP3    H233594   4.196   1.689   1.579 -0.1139  1.0674 -0.5786
 3987TIP3   OH233595   2.678   3.921   1.415  0.7333 -0.3028  0.2244
 3987TIP3    H133596   2.738   3.855   1.450  0.8673  0.1380  0.8502
 3987TIP3    H233597   2.699   4.001   1.464 -1.2433 -0.4553  1.4243
 3988TIP3   OH233598   3.912   0.489   1.223 -0.4234 -0.9078 -0.0530
 3988TIP3    H133599   3.850   0.427   1.259 -2.1836  1.9256  2.1884
 3988TIP3    H233600   3.858   0.560   1.189  1.4967  1.0346  0.7334
 3989TIP3   OH233601   5.316   5.075   8.726 -0.3700 -0.8344  0.3326
 3989TIP3    H133602   5.331   5.098   8.635 -0.5481  0.1884  0.5491
 3989TIP3    H233603   5.403   5.074   8.765 -0.4908  1.8344  0.8373
 3990TIP3   OH233604   5.294   2.761   7.188  0.1024  0.4483 -0.3204
 3990TIP3    H133605   5.220   2.710   7.156 -1.0630  0.1247  2.6041
 3990TIP3    H233606   5.331   2.708   7.259  2.4037  1.1654 -0.8789
 3991TIP3   OH233607   1.144   5.799   8.116 -0.7712  0.3063  0.8699
 3991TIP3    H133608   1.157   5.829   8.206 -2.2651 -0.4001  1.3454
 3991TIP3    H233609   1.082   5.727   8.123 -1.0525  0.3534 -0.7558
 3992TIP3   OH233610   2.625   2.875   6.719 -0.3761 -0.1601  0.1798
 3992TIP3    H133611   2.611   2.880   6.625  0.8853  1.2343  0.0260
 3992TIP3    H233612   2.538   2.869   6.757 -1.0780  1.9626 -0.9660
 3993TIP3   OH233613   4.839   6.803   8.469  0.6960 -0.0237  0.0706
 3993TIP3    H133614   4.747   6.823   8.451  0.6463  1.2458  1.5401
 3993TIP3    H233615   4.885   6.826   8.388 -0.0356  1.3829  0.0317
 3994TIP3   OH233616   4.669   3.400   2.333 -0.6848 -0.0006 -0.3467
 3994TIP3    H133617   4.582   3.376   2.300 -1.2206 -0.1710  1.1249
 3994TIP3    H233618   4.724   3.404   2.255 -2.2545  1.2285 -1.4649
 3995TIP3   OH233619   5.241   3.007   2.301  0.0902  0.2406 -0.4339
 3995TIP3    H133620   5.305   2.969   2.240 -1.0380 -1.4116 -0.6647
 3995TIP3    H233621   5.279   2.990   2.387  0.7659  0.8379 -0.5997
 3996TIP3   OH233622   5.427   2.439   8.211 -0.0481 -0.1114 -0.0007
 3996TIP3    H133623   5.494   2.500   8.243 -0.5590 -0.6483  2.3124
 3996TIP3    H233624   5.474   2.357   8.198  0.3155  0.3090 -1.4686
 3997TIP3   OH233625   3.594   4.538   0.880 -0.4141  0.2646 -0.1096
 3997TIP3    H133626   3.620   4.572   0.795  1.7746 -2.0987 -0.4818
 3997TIP3    H233627   3.625   4.604   0.943  1.2594  0.3154 -0.9419
 3998TIP3   OH233628   6.578   1.620   7.359  0.1066 -0.4296 -0.4408
 3998TIP3    H133629   6.572   1.705   7.316 -0.3335 -0.1531  0.1587
 3998TIP3    H233630   6.656   1.625   7.414 -0.2920 -0.1712  0.1080
 3999TIP3   OH233631   4.661   1.227   7.951  0.1846 -0.5556  0.3275
 3999TIP3    H133632   4.739   1.278   7.973 -0.2356 -0.0271  0.5952
 3999TIP3    H233633   4.617   1.211   8.034  0.0168 -0.8789  0.1811
 4000TIP3   OH233634   1.096   1.119   8.708  0.3575 -0.4065  0.3732
 4000TIP3    H133635   1.188   1.131   8.731  0.6360 -1.7983  0.1119
 4000TIP3    H233636   1.071   1.037   8.751 -0.8658  0.1327  0.7342
 4001TIP3   OH233637   3.973   1.815   6.514 -0.2555  0.8165  0.1399
 4001TIP3    H133638   4.010   1.843   6.598 -1.9942 -1.6227  1.8555
 4001TIP3    H233639   4.033   1.748   6.483 -0.3110  0.7926  0.0843
 4002TIP3   OH233640   2.894   1.373   8.339 -0.5513  0.6239  0.0893
 4002TIP3    H133641   2.875   1.280   8.325 -0.6176  1.0468 -3.6146
 4002TIP3    H233642   2.989   1.379   8.338 -0.5263  0.5035  1.2701
 4003TIP3   OH233643   0.888   2.464   6.504  0.5129 -0.1235  0.2315
 4003TIP3    H133644   0.932   2.498   6.582  0.5013  0.0594  0.1596
 4003TIP3    H233645   0.887   2.538   6.443 -1.4936  0.4438  0.8788
 4004TIP3   OH233646   5.830   1.246   1.507  0.1201 -0.3102  0.0099
 4004TIP3    H133647   5.758   1.307   1.493  0.7084  0.3240 -0.3327
 4004TIP3    H233648   5.788   1.161   1.517 -0.5575 -0.3515 -2.5300
 4005TIP3   OH233649   5.285   1.287   7.910  0.3835 -0.7079 -0.6285
 4005TIP3    H133650   5.266   1.197   7.882  0.4899 -0.5520 -1.2165
 4005TIP3    H233651   5.368   1.308   7.869  0.7236 -0.5910  0.1046
 4006TIP3   OH233652   4.763   2.389   0.003 -0.3341 -0.0870 -0.1399
 4006TIP3    H133653   4.682   2.423  -0.036 -1.1736 -0.5502  1.1264
 4006TIP3    H233654   4.808   2.467   0.037  0.1250  0.2532 -1.4564
 4007TIP3   OH233655   6.004   3.939   7.310  0.2176 -0.0389  0.0950
 4007TIP3    H133656   6.092   3.903   7.318  0.1020 -0.0411  1.7130
 4007TIP3    H233657   6.013   4.032   7.332 -0.0093  0.2146 -0.8512
 4008TIP3   OH233658   2.250   0.704   0.524  0.2970  0.1839 -0.5426
 4008TIP3    H133659   2.321   0.732   0.581  0.9655 -1.6030 -0.4228
 4008TIP3    H233660   2.179   0.680   0.583  0.5692 -0.5534 -0.5032
 4009TIP3   OH233661   4.371   4.219   2.527 -0.1235  0.4429  0.3620
 4009TIP3    H133662   4.414   4.301   2.504  1.7292 -0.3199  0.9018
 4009TIP3    H233663   4.277   4.239   2.523  0.2741  2.5750  0.5189
 4010TIP3   OH233664   0.150   4.758   2.498 -0.3195 -1.0001 -0.0493
 4010TIP3    H133665   0.200   4.712   2.565 -0.2342 -1.6353 -0.5403
 4010TIP3    H233666   0.209   4.761   2.422  0.2967  1.3242  0.4538
 4011TIP3   OH233667   5.898   3.240   0.879 -0.8599 -0.2128  0.0290
 4011TIP3    H133668   5.864   3.297   0.949 -0.7567 -0.3442  0.1851
 4011TIP3    H233669   5.921   3.159   0.923  0.0875  0.0333 -0.0041
 4012TIP3   OH233670   2.407   3.031   7.249  0.2152 -0.4916 -0.4199
 4012TIP3    H133671   2.455   3.018   7.331 -1.4390 -1.9862  0.3644
 4012TIP3    H233672   2.432   2.957   7.195 -0.0999 -0.4869 -0.5695
 4013TIP3   OH233673   2.219   0.221   7.909 -0.3256  0.4177  0.8297
 4013TIP3    H133674   2.258   0.174   7.983  2.4227  0.3096 -0.5579
 4013TIP3    H233675   2.129   0.188   7.904  0.8654 -3.3184  1.0985
 4014TIP3   OH233676   6.045   1.524   1.084 -0.2369  0.5139 -0.1171
 4014TIP3    H133677   6.095   1.534   1.165  0.9328 -0.7310 -0.6620
 4014TIP3    H233678   6.054   1.432   1.060 -2.4634  0.3113 -0.4721
 4015TIP3   OH233679   3.147   1.088   7.970 -0.3131  0.3363  0.0245
 4015TIP3    H133680   3.150   1.126   7.882 -0.1497  1.2084  0.3962
 4015TIP3    H233681   3.238   1.091   8.000 -0.5904  1.5764  0.8409
 4016TIP3   OH233682   1.640   1.586   0.903  0.3640 -0.6247 -0.4551
 4016TIP3    H133683   1.734   1.589   0.884  0.6745  2.2941  1.0453
 4016TIP3    H233684   1.628   1.505   0.952  2.2662 -0.6342  0.0658
 4017TIP3   OH233685   3.836   1.705   2.030  0.5057 -0.5229 -0.1241
 4017TIP3    H133686   3.864   1.619   1.998  1.1196 -0.3466 -0.0704
 4017TIP3    H233687   3.859   1.703   2.123 -0.2349 -0.6093  0.0602
 4018TIP3   OH233688   4.764   1.009   0.298  0.0759 -0.0386 -0.3943
 4018TIP3    H133689   4.803   1.084   0.342 -1.2988 -0.1014  1.0171
 4018TIP3    H233690   4.686   1.044   0.255 -0.3924 -0.5658 -0.0043
 4019TIP3   OH233691   6.739   2.301   0.522  0.1651 -0.0067 -0.3090
 4019TIP3    H133692   6.815   2.250   0.550 -0.1955 -0.2061  0.3332
 4019TIP3    H233693   6.717   2.266   0.436  2.0150  1.4277 -1.4220
 4020TIP3   OH233694   4.169   0.457   7.874  0.0391 -0.4150 -0.8934
 4020TIP3    H133695   4.204   0.477   7.961 -2.2051  0.8858 -0.2213
 4020TIP3    H233696   4.206   0.372   7.852  1.3302 -0.3868  0.9462
 4021TIP3   OH233697   6.153   1.606   8.467 -0.3284  0.4829 -0.3955
 4021TIP3    H133698   6.225   1.551   8.498 -0.7831 -1.1776 -2.0477
 4021TIP3    H233699   6.092   1.610   8.541  0.5647  0.3160  0.3741
 4022TIP3   OH233700   0.713   2.443   0.073 -0.3294  0.1533  0.3849
 4022TIP3    H133701   0.753   2.444  -0.015 -0.6808 -1.9158  0.1722
 4022TIP3    H233702   0.655   2.519   0.073  0.0856  0.5079 -0.9679
 4023TIP3   OH233703   1.320   0.727   0.858  0.0655  0.0207  0.2348
 4023TIP3    H133704   1.329   0.795   0.791  0.0868 -0.2119 -0.0016
 4023TIP3    H233705   1.393   0.667   0.840  0.0113 -0.0954  0.4061
 4024TIP3   OH233706   4.789   0.940   7.929  0.1088 -0.0140  0.1344
 4024TIP3    H133707   4.844   0.866   7.905  1.1041  0.9686 -0.7077
 4024TIP3    H233708   4.752   0.970   7.846 -0.0118  0.6406  0.4189
 4025TIP3   OH233709   4.811   6.169   8.403 -0.3454 -0.1771  0.2868
 4025TIP3    H133710   4.823   6.160   8.498  0.4133  0.6274  0.2865
 4025TIP3    H233711   4.782   6.260   8.392 -1.0598 -0.4578 -0.2053
 4026TIP3   OH233712   1.116   3.437   0.708 -0.2601  0.1745  0.0494
 4026TIP3    H133713   1.055   3.376   0.668  0.0789 -0.5082  0.5475
 4026TIP3    H233714   1.072   3.464   0.789 -0.4593  0.6875 -0.2262
 4027TIP3   OH233715   1.768   5.308   7.014  0.4997  0.3241  0.2114
 4027TIP3    H133716   1.859   5.289   6.996  0.7681  0.4337  1.3737
 4027TIP3    H233717   1.765   5.403   7.028  0.1195  0.3937 -0.3086
 4028TIP3   OH233718   0.597   1.734   0.940  0.4493  0.3008  0.3671
 4028TIP3    H133719   0.563   1.661   0.888 -0.4413 -1.1615  2.8229
 4028TIP3    H233720   0.689   1.714   0.953 -0.0695 -1.2081  2.1468
 4029TIP3   OH233721   2.412   4.759   8.278 -0.1798 -0.7301 -0.0772
 4029TIP3    H133722   2.459   4.817   8.338  1.0923  0.4875 -2.1467
 4029TIP3    H233723   2.461   4.677   8.280 -0.3510 -0.8197  0.7674
 4030TIP3   OH233724   4.134   4.293   2.282 -0.6874 -0.1340 -0.1487
 4030TIP3    H133725   4.113   4.377   2.322 -1.5166 -1.5163  2.5611
 4030TIP3    H233726   4.072   4.284   2.210  0.1448  2.0076 -1.2039
 4031TIP3   OH233727   2.853   0.606   7.421 -0.1850  0.1652 -0.1629
 4031TIP3    H133728   2.864   0.670   7.351 -0.2219 -0.5157 -0.8088
 4031TIP3    H233729   2.915   0.536   7.399  0.1797  0.1807  0.7763
 4032TIP3   OH233730   4.538   6.584   6.429  0.5007 -0.4148  0.1645
 4032TIP3    H133731   4.630   6.583   6.403  1.1206  0.9370  2.0142
 4032TIP3    H233732   4.530   6.664   6.482 -0.9725 -2.0318  2.5765
 4033TIP3   OH233733   4.268   2.858   1.029 -0.0200 -0.3523 -0.7596
 4033TIP3    H133734   4.197   2.795   1.016 -1.1212  0.8305 -0.7136
 4033TIP3    H233735   4.341   2.823   0.978 -0.0188 -2.5142  0.5895
 4034TIP3   OH233736   3.763   6.247   0.057 -0.9288 -0.0486  0.4496
 4034TIP3    H133737   3.845   6.201   0.038 -1.2324  0.1817 -1.6586
 4034TIP3    H233738   3.697   6.200   0.006 -1.5146  1.7049 -0.5081
 4035TIP3   OH233739   5.603   5.546   7.921 -0.6582 -0.0335 -0.4221
 4035TIP3    H133740   5.634   5.616   7.979 -1.1376  0.6531 -0.9776
 4035TIP3    H233741   5.652   5.469   7.948 -1.9396 -0.1009  1.9011
 4036TIP3   OH233742   4.519   3.442   1.494  0.3472 -0.2939  0.1887
 4036TIP3    H133743   4.462   3.496   1.440 -0.1222  1.5140  2.3435
 4036TIP3    H233744   4.485   3.353   1.483 -0.6386  0.2214 -1.2856
 4037TIP3   OH233745   5.033   6.194   8.178  0.4808 -0.4371  0.3336
 4037TIP3    H133746   4.983   6.172   8.099  1.7913  1.2631 -1.0719
 4037TIP3    H233747   5.023   6.118   8.235 -0.0462 -2.0078 -1.7242
 4038TIP3   OH233748   0.169   1.542   7.618 -0.5794 -0.3120 -0.5672
 4038TIP3    H133749   0.147   1.453   7.646  0.4460 -0.2597  0.4791
 4038TIP3    H233750   0.257   1.557   7.653  0.0824  0.3992 -2.4488
 4039TIP3   OH233751   1.413   1.046   7.013  0.4161  0.2423  0.2793
 4039TIP3    H133752   1.368   1.114   6.962 -0.4346  0.1804  0.9286
 4039TIP3    H233753   1.349   0.975   7.020  0.7916 -0.0533  0.7994
 4040TIP3   OH233754   4.481   2.530   8.416  0.2391 -0.8680 -0.2050
 4040TIP3    H133755   4.403   2.558   8.465  1.5309 -0.6719  1.8467
 4040TIP3    H233756   4.504   2.445   8.454  2.8155  0.4863  1.5217
 4041TIP3   OH233757   3.481   4.308   1.720 -0.3003  0.4569 -0.0699
 4041TIP3    H133758   3.494   4.309   1.815 -0.1715  2.3017 -0.0713
 4041TIP3    H233759   3.533   4.234   1.689  0.3933  0.3898  1.2022
 4042TIP3   OH233760   2.370   0.827   6.852  0.0087 -0.8699 -0.0671
 4042TIP3    H133761   2.370   0.918   6.824  3.0981 -0.2704  1.4991
 4042TIP3    H233762   2.328   0.828   6.938  0.7730 -0.7357  0.3173
 4043TIP3   OH233763   5.234   3.656   1.221 -0.0310 -0.3432 -0.2668
 4043TIP3    H133764   5.283   3.612   1.152 -0.5927 -0.9615 -0.2771
 4043TIP3    H233765   5.145   3.624   1.212 -0.8360  1.9328 -1.2666
 4044TIP3   OH233766   0.472   2.275   8.532 -0.1606  0.5349 -0.7590
 4044TIP3    H133767   0.379   2.301   8.531 -0.2857  0.1765  0.4433
 4044TIP3    H233768   0.474   2.193   8.483 -1.0129 -1.0600  1.7203
 4045TIP3   OH233769   1.620   6.170   7.082  0.0172 -0.2780  0.1603
 4045TIP3    H133770   1.617   6.171   6.986 -0.0309 -0.5070  0.1582
 4045TIP3    H233771   1.708   6.199   7.104 -0.6868  2.0660  0.1087
 4046TIP3   OH233772   6.228   3.256   6.652  0.1784  0.0435 -0.8092
 4046TIP3    H133773   6.286   3.323   6.616 -1.1782  2.2980  0.9740
 4046TIP3    H233774   6.141   3.281   6.621 -0.4776 -0.3348  0.6696
 4047TIP3   OH233775   1.348   5.519   8.444 -0.0541  0.6158 -0.3896
 4047TIP3    H133776   1.386   5.496   8.359  2.3147  0.1167  0.7060
 4047TIP3    H233777   1.348   5.436   8.493  0.8346  1.2935  0.8356
 4048TIP3   OH233778   0.853   5.216   1.808  0.0521  0.5961 -0.1029
 4048TIP3    H133779   0.793   5.161   1.858 -0.4272  2.5651  1.6257
 4048TIP3    H233780   0.855   5.299   1.856  1.2334  1.8801 -2.2289
 4049TIP3   OH233781   1.801   6.379   1.124  0.0241 -0.3650  0.4435
 4049TIP3    H133782   1.761   6.292   1.129 -0.0497 -0.6415 -2.8692
 4049TIP3    H233783   1.892   6.365   1.151  0.0712 -1.5262 -0.2650
 4050TIP3   OH233784   5.480   3.509   0.243  0.1897 -0.2258  0.0172
 4050TIP3    H133785   5.403   3.465   0.279  0.8245 -0.2235  1.4316
 4050TIP3    H233786   5.539   3.438   0.218  0.4727 -0.2154  0.6365
 4051TIP3   OH233787   1.160   3.313   8.550 -0.6959  0.4935 -0.1894
 4051TIP3    H133788   1.186   3.387   8.604  0.8328  0.6469 -1.0594
 4051TIP3    H233789   1.215   3.241   8.582 -1.9954 -0.2229  0.4917
 4052TIP3   OH233790   4.047   1.013   8.722  0.5719 -0.2577 -0.0774
 4052TIP3    H133791   4.056   0.999   8.816  0.6231 -0.2075 -0.0752
 4052TIP3    H233792   3.960   0.980   8.701  0.2034  0.5557  0.1409
 4053TIP3   OH233793   2.140   3.764   2.445 -0.3525  0.0083 -0.3531
 4053TIP3    H133794   2.099   3.823   2.509 -0.8613 -0.4595 -0.2435
 4053TIP3    H233795   2.093   3.781   2.363 -2.0032 -1.7672  0.1574
 4054TIP3   OH233796   2.076   5.954   8.595  0.3272 -0.0356 -0.5177
 4054TIP3    H133797   2.090   6.028   8.535 -0.5916  0.0543 -0.6317
 4054TIP3    H233798   2.161   5.910   8.598  0.5820  0.3752 -1.3269
 4055TIP3   OH233799   2.563   4.579   1.844  0.0637 -0.4501 -0.5394
 4055TIP3    H133800   2.483   4.527   1.839 -0.5391  0.5893 -2.5628
 4055TIP3    H233801   2.568   4.607   1.936 -0.7721 -2.1836  0.0748
 4056TIP3   OH233802   1.291   5.269   1.839 -0.0586  0.5405  0.2020
 4056TIP3    H133803   1.351   5.302   1.905  1.6072  2.4058 -2.0958
 4056TIP3    H233804   1.274   5.344   1.782 -1.8585 -0.8358 -1.2101
 4057TIP3   OH233805   0.837   0.531   7.588  0.3224 -0.0854 -0.3377
 4057TIP3    H133806   0.900   0.583   7.538 -0.3052 -0.2748 -1.3443
 4057TIP3    H233807   0.773   0.595   7.620 -0.4117 -0.1865 -1.5193
 4058TIP3   OH233808   2.088   3.652   7.097  0.0641  0.0044  0.1113
 4058TIP3    H133809   2.051   3.737   7.071  0.6464  0.4299  0.6540
 4058TIP3    H233810   2.156   3.635   7.032 -1.4680 -1.1003 -1.2933
 4059TIP3   OH233811   2.806   2.657   7.429  0.2541 -0.2672 -0.0515
 4059TIP3    H133812   2.755   2.578   7.409 -0.7182  0.4957 -0.6371
 4059TIP3    H233813   2.804   2.709   7.348 -3.0809  2.5161  1.5840
 4060TIP3   OH233814   6.801   5.556   0.063 -0.1449 -0.2318  0.2635
 4060TIP3    H133815   6.786   5.537   0.155 -0.0762  0.1669  0.3606
 4060TIP3    H233816   6.874   5.499   0.038  0.3443  0.1983  0.6616
 4061TIP3   OH233817   4.257   3.681   7.936 -0.1769  0.0481  0.1636
 4061TIP3    H133818   4.339   3.715   7.902  0.7688 -1.8997  0.3446
 4061TIP3    H233819   4.237   3.606   7.880 -0.0090 -1.5656  2.1326
 4062TIP3   OH233820   6.462   4.259   0.233 -0.0721  0.4181 -0.2535
 4062TIP3    H133821   6.477   4.233   0.324 -0.7029 -0.5577 -0.4084
 4062TIP3    H233822   6.402   4.193   0.199 -1.7067  2.0820 -0.7238
 4063TIP3   OH233823   1.772   5.376   1.022  0.7857  0.3257  0.2435
 4063TIP3    H133824   1.708   5.408   1.086  1.3320  0.1907  0.8666
 4063TIP3    H233825   1.806   5.455   0.979 -0.3457  0.3615 -0.6461
 4064TIP3   OH233826   4.312   1.468   0.612 -0.2271  0.5743  0.4633
 4064TIP3    H133827   4.339   1.555   0.639  3.3143  0.1968 -1.2116
 4064TIP3    H233828   4.311   1.417   0.693  0.6261  1.5522  1.1224
 4065TIP3   OH233829   2.803   2.083   0.080  0.0221  0.1705 -0.3225
 4065TIP3    H133830   2.743   2.141   0.032 -1.5410  0.0693  1.3810
 4065TIP3    H233831   2.775   1.995   0.056 -0.5523  0.1235  0.4681
 4066TIP3   OH233832   3.289   6.651   0.415 -0.3807  0.0744  0.2279
 4066TIP3    H133833   3.247   6.630   0.498  0.4389 -0.7259  0.4581
 4066TIP3    H233834   3.290   6.569   0.366  1.0127  0.0256  0.2981
 4067TIP3   OH233835   5.259   5.464   0.201 -0.2856  0.0892 -0.4221
 4067TIP3    H133836   5.242   5.559   0.199 -0.0730  0.1211 -0.8954
 4067TIP3    H233837   5.230   5.434   0.115 -1.2522 -0.4364  0.0657
 4068TIP3   OH233838   5.659   6.017   0.012  0.3421 -0.1810 -0.4006
 4068TIP3    H133839   5.695   5.955   0.075  2.1387 -0.5669 -1.7231
 4068TIP3    H233840   5.577   5.977  -0.017 -0.0002 -0.4833  0.9010
 4069TIP3   OH233841   6.548   2.934   7.518  0.2173  0.0726 -0.1104
 4069TIP3    H133842   6.608   2.923   7.445  0.8964  0.0735  0.4418
 4069TIP3    H233843   6.580   3.012   7.564  1.1008 -1.1316  1.4058
 4070TIP3   OH233844   6.011   5.544   6.240  0.8197  0.1829 -0.2445
 4070TIP3    H133845   5.955   5.495   6.179  2.2221 -0.9968 -0.6284
 4070TIP3    H233846   5.989   5.636   6.225 -2.6051 -0.2434  1.1616
 4071TIP3   OH233847   3.269   4.887   7.598  0.2931 -0.8082 -0.7522
 4071TIP3    H133848   3.281   4.841   7.515  0.3792 -1.3209 -0.4630
 4071TIP3    H233849   3.187   4.936   7.587 -1.2866 -3.1581 -0.1430
 4072TIP3   OH233850   3.868   5.808   7.784  0.1877  0.0069  0.0656
 4072TIP3    H133851   3.774   5.805   7.804  0.2359  0.0173  0.2991
 4072TIP3    H233852   3.908   5.846   7.863  0.0646  2.8936 -1.1191
 4073TIP3   OH233853   2.483   4.218   2.434 -0.1171 -0.8462  0.0955
 4073TIP3    H133854   2.570   4.233   2.398 -0.2945  1.3129  0.4455
 4073TIP3    H233855   2.497   4.157   2.506  1.0765 -0.6446  0.0480
 4074TIP3   OH233856   2.746   5.470   8.173 -0.0413  0.5288  0.5624
 4074TIP3    H133857   2.805   5.540   8.200 -0.1392 -0.0533  2.4505
 4074TIP3    H233858   2.719   5.494   8.084  1.4519  1.8330  0.4135
 4075TIP3   OH233859   2.409   6.581   8.195  0.1524 -0.4337  0.2646
 4075TIP3    H133860   2.472   6.517   8.228  0.7795  0.8599  1.7228
 4075TIP3    H233861   2.450   6.666   8.211 -0.4556  0.3713 -2.0079
 4076TIP3   OH233862   0.503   5.241   1.143 -0.2797 -0.0830  0.4209
 4076TIP3    H133863   0.435   5.305   1.165 -0.8947 -0.1739 -1.1082
 4076TIP3    H233864   0.507   5.241   1.048 -1.9292 -3.9028  0.1470
 4077TIP3   OH233865   0.786   4.661   8.744 -0.4892  0.3041 -0.6926
 4077TIP3    H133866   0.817   4.724   8.809  1.0637 -1.1257 -0.0015
 4077TIP3    H233867   0.801   4.704   8.660 -1.5607  1.7492 -0.1928
 4078TIP3   OH233868   4.743   4.278   7.056 -0.2685 -0.3026  0.2703
 4078TIP3    H133869   4.684   4.318   7.120 -0.2725  1.3465 -0.7042
 4078TIP3    H233870   4.710   4.188   7.046  0.8495 -1.3063  3.8963
 4079TIP3   OH233871   5.361   5.611   1.521 -0.3400  0.4119  0.5243
 4079TIP3    H133872   5.339   5.693   1.477  0.3941  0.4488  0.1920
 4079TIP3    H233873   5.281   5.585   1.566 -0.9132  0.7341 -0.2777
 4080TIP3   OH233874   6.416   6.121   7.855  0.1430 -0.1414 -0.6145
 4080TIP3    H133875   6.509   6.109   7.872 -0.1239 -1.6586 -0.1243
 4080TIP3    H233876   6.413   6.188   7.787  1.5406  0.6079  0.0080
 4081TIP3   OH233877   4.432   1.905   8.782  0.2566 -0.1087 -0.0138
 4081TIP3    H133878   4.435   1.834   8.718 -0.8154 -0.3041  0.1324
 4081TIP3    H233879   4.339   1.931   8.785  0.3999  0.3340  0.9724
 4082TIP3   OH233880   3.914   5.709   8.772 -0.4851  0.6838 -0.1787
 4082TIP3    H133881   3.946   5.730   8.685  3.0597  1.8557  1.2482
 4082TIP3    H233882   3.838   5.766   8.784 -0.6703  0.9303 -2.2536
 4083TIP3   OH233883   2.327   2.761   0.769 -0.0911  0.4526 -0.4026
 4083TIP3    H133884   2.340   2.722   0.856 -1.3770  1.2187  0.1593
 4083TIP3    H233885   2.405   2.735   0.720  0.8224  0.2642  1.0723
 4084TIP3   OH233886   0.903   2.114   7.912  0.0663  0.0799 -0.5513
 4084TIP3    H133887   0.849   2.159   7.977 -0.5091  0.1568 -1.0701
 4084TIP3    H233888   0.954   2.051   7.963 -0.1536  0.3503  0.0103
 4085TIP3   OH233889   4.340   5.564   7.569 -0.9336 -0.1190  0.7011
 4085TIP3    H133890   4.406   5.624   7.603 -1.7975  1.0728  0.3490
 4085TIP3    H233891   4.288   5.540   7.646 -1.4035  0.6641  0.6408
 4086TIP3   OH233892   2.372   0.115   0.462  0.1224 -0.3747  0.0998
 4086TIP3    H133893   2.460   0.079   0.473 -0.1731 -0.8350  1.0584
 4086TIP3    H233894   2.340   0.074   0.381  1.9819  2.3449 -2.2051
 4087TIP3   OH233895   6.350   3.523   1.102 -0.0740  0.4258 -0.0329
 4087TIP3    H133896   6.293   3.478   1.040 -0.2465  0.9940 -0.2958
 4087TIP3    H233897   6.384   3.454   1.159  2.0523 -0.5351 -2.2485
 4088TIP3   OH233898   5.342   0.414   7.483  0.0156  0.6137  0.4112
 4088TIP3    H133899   5.339   0.357   7.406  0.1819 -1.8121  2.0795
 4088TIP3    H233900   5.414   0.379   7.536  0.1042  2.3989  1.5424
 4089TIP3   OH233901   0.967   3.435   1.986  0.8878  0.3006 -0.3870
 4089TIP3    H133902   1.030   3.395   2.046 -0.1407 -0.6667  0.0827
 4089TIP3    H233903   0.917   3.494   2.042  0.1526 -0.3459 -0.3524
 4090TIP3   OH233904   0.161   3.914   6.867 -0.0991  0.0877 -0.1348
 4090TIP3    H133905   0.226   3.977   6.898 -0.5213  0.2747  0.3873
 4090TIP3    H233906   0.108   3.895   6.944 -1.3438  0.7651 -0.7916
 4091TIP3   OH233907   1.290   5.532   0.720 -0.0489 -0.0651 -0.4456
 4091TIP3    H133908   1.241   5.548   0.801 -0.0545 -1.2846 -0.1989
 4091TIP3    H233909   1.223   5.522   0.653 -0.0669  0.2286 -0.4729
 4092TIP3   OH233910   1.723   5.143   8.735  0.0927 -0.6253 -0.1190
 4092TIP3    H133911   1.692   5.151   8.645  0.2382  1.0676 -0.0494
 4092TIP3    H233912   1.645   5.122   8.785 -0.2271 -0.2511 -0.4588
 4093TIP3   OH233913   1.561   2.570   7.284 -0.2665  0.0620  0.1039
 4093TIP3    H133914   1.530   2.656   7.255  0.1301 -0.7423 -3.1462
 4093TIP3    H233915   1.648   2.586   7.319 -0.1364  0.9868 -0.5969
 4094TIP3   OH233916   2.100   4.292   0.279  0.1000  0.0517  0.7772
 4094TIP3    H133917   2.117   4.272   0.186  0.8186  0.8563  0.7210
 4094TIP3    H233918   2.032   4.231   0.304 -0.7224  0.3910 -0.5218
 4095TIP3   OH233919   2.062   2.414   7.260  0.5151  0.1076  0.1589
 4095TIP3    H133920   2.095   2.324   7.257 -0.9179 -0.4669  0.7874
 4095TIP3    H233921   2.105   2.452   7.337  2.9677  0.7750 -1.4302
 4096TIP3   OH233922   4.020   5.048   6.580 -0.3711  0.2971 -0.9188
 4096TIP3    H133923   4.030   4.954   6.596 -2.0610  0.4669  1.7440
 4096TIP3    H233924   3.949   5.054   6.515 -2.1727 -0.3070  0.8893
 4097TIP3   OH233925   6.564   3.308   1.104  0.4495 -0.2981  0.0739
 4097TIP3    H133926   6.603   3.394   1.090  2.0641 -0.9249  0.5748
 4097TIP3    H233927   6.549   3.274   1.016  0.1772  0.3163 -0.1250
 4098TIP3   OH233928   4.451   2.259   2.267  0.4381  0.0231  0.1712
 4098TIP3    H133929   4.390   2.274   2.339  0.0366 -0.8602  0.0350
 4098TIP3    H233930   4.515   2.329   2.275  0.7328 -0.3711  1.7535
 4099TIP3   OH233931   6.761   3.714   6.319  0.4135 -0.0608 -0.2362
 4099TIP3    H133932   6.687   3.729   6.260 -0.2130 -1.0549  0.2873
 4099TIP3    H233933   6.838   3.735   6.265 -0.2083  0.4477 -0.9556
 4100TIP3   OH233934   2.211   3.863   6.935  0.2666  0.3938  0.2200
 4100TIP3    H133935   2.206   3.932   6.868  1.1191  0.1648 -0.0948
 4100TIP3    H233936   2.299   3.827   6.925  0.0548 -0.3037  0.8237
 4101TIP3   OH233937   5.336   0.175   2.465  0.8795  0.1590 -0.3773
 4101TIP3    H133938   5.247   0.208   2.452  0.4604 -0.3898  0.8720
 4101TIP3    H233939   5.393   0.241   2.426  0.1536  2.9715  2.7781
 4102TIP3   OH233940   5.320   6.779   8.586  0.4401  0.1213  0.2092
 4102TIP3    H133941   5.305   6.689   8.556  1.7676  0.5203 -1.8809
 4102TIP3    H233942   5.240   6.825   8.561  0.7568  0.0228 -1.0653
 4103TIP3   OH233943   5.392   6.252   0.620 -0.0123 -0.0797  0.3196
 4103TIP3    H133944   5.322   6.314   0.597  1.3154  0.6273 -2.1393
 4103TIP3    H233945   5.458   6.265   0.553  2.1602 -1.3048  2.0946
 4104TIP3   OH233946   6.464   6.571   8.750  0.1602 -0.1977  0.1797
 4104TIP3    H133947   6.436   6.534   8.666  2.8650  0.3736 -1.0960
 4104TIP3    H233948   6.387   6.566   8.806 -1.4941 -1.4220 -2.0628
 4105TIP3   OH233949   5.203   3.204   8.438 -0.0345 -0.0845 -0.1768
 4105TIP3    H133950   5.186   3.180   8.347 -0.0711  2.1940 -0.8534
 4105TIP3    H233951   5.298   3.213   8.443  0.1875 -2.2887  0.6540
 4106TIP3   OH233952   0.291   1.941   0.425  0.8309 -0.0495  0.1937
 4106TIP3    H133953   0.293   1.850   0.393 -1.6701  0.3669 -1.4258
 4106TIP3    H233954   0.317   1.935   0.517  0.2719 -2.4679  0.2534
 4107TIP3   OH233955   0.469   3.439   0.652  0.8444 -0.4037 -0.9128
 4107TIP3    H133956   0.438   3.497   0.582  1.8883  0.8233 -0.4032
 4107TIP3    H233957   0.430   3.354   0.632 -3.9204  1.1830  0.3450
 4108TIP3   OH233958   2.332   1.963   7.815  0.0198 -0.2072  0.4283
 4108TIP3    H133959   2.257   2.022   7.823  0.3488  0.1740  0.7529
 4108TIP3    H233960   2.362   1.974   7.725  0.4389  0.5749  0.6512
 4109TIP3   OH233961   2.892   2.916   8.122 -0.5013 -0.0335 -0.4569
 4109TIP3    H133962   2.897   2.860   8.044  1.0938 -1.7781  0.7920
 4109TIP3    H233963   2.800   2.940   8.129 -0.9356 -1.1109 -2.0229
 4110TIP3   OH233964   2.411   5.422   1.646  0.2381 -0.2761 -0.0668
 4110TIP3    H133965   2.350   5.490   1.617  0.1966  0.0575  0.7602
 4110TIP3    H233966   2.448   5.386   1.566 -0.4280  0.0965 -0.5454
 4111TIP3   OH233967   0.759   5.710   0.578 -0.0413  0.3072  0.3550
 4111TIP3    H133968   0.828   5.728   0.515 -0.4094  0.4395 -0.0170
 4111TIP3    H233969   0.799   5.651   0.642  0.0961 -0.5001 -0.4634
 4112TIP3   OH233970   6.537   3.791   0.038  0.1869  0.2984 -0.1519
 4112TIP3    H133971   6.471   3.831   0.095  0.7228 -0.5302  1.0980
 4112TIP3    H233972   6.492   3.718  -0.004 -0.6568  1.8270 -2.0651
 4113TIP3   OH233973   4.106   1.944   8.408  0.0391 -1.0500 -0.6431
 4113TIP3    H133974   4.068   2.031   8.395  0.7182 -0.5479  0.5011
 4113TIP3    H233975   4.036   1.894   8.450  0.2660 -0.4456  0.4982
 4114TIP3   OH233976   1.531   2.281   2.404  0.0534 -0.1399  0.0240
 4114TIP3    H133977   1.511   2.188   2.389  0.4931 -0.1259 -0.7026
 4114TIP3    H233978   1.614   2.295   2.358 -1.3669  1.2901 -2.2974
 4115TIP3   OH233979   1.229   2.875   8.813  0.0554  0.4161 -0.2508
 4115TIP3    H133980   1.301   2.863   8.750  0.5365  1.7019  0.0441
 4115TIP3    H233981   1.192   2.961   8.792 -0.2045  0.5725  0.8104
 4116TIP3   OH233982   5.710   2.347   2.025 -0.5191  0.2559 -0.0634
 4116TIP3    H133983   5.701   2.412   2.094  0.5108 -0.1669  0.4977
 4116TIP3    H233984   5.699   2.263   2.069  0.5095 -0.0319 -0.3293
 4117TIP3   OH233985   3.846   4.852   0.467 -0.2728 -0.9319  0.3945
 4117TIP3    H133986   3.876   4.917   0.403  0.6618  0.0702  1.7832
 4117TIP3    H233987   3.765   4.817   0.429  0.4588 -0.7004 -1.5142
 4118TIP3   OH233988   3.559   2.202   0.475  0.0110 -0.0044  0.0004
 4118TIP3    H133989   3.565   2.140   0.401  0.5853 -0.0294  0.0615
 4118TIP3    H233990   3.620   2.167   0.540 -0.0604  0.3377  0.2515
 4119TIP3   OH233991   2.959   4.846   1.731 -0.5262  0.0229 -0.8664
 4119TIP3    H133992   2.864   4.854   1.739 -0.5324 -1.3584  0.7666
 4119TIP3    H233993   2.979   4.889   1.648 -2.7291 -0.7920 -1.8975
 4120TIP3   OH233994   1.852   1.867   0.740  0.2912  0.5157 -0.2596
 4120TIP3    H133995   1.844   1.852   0.646  2.0039  1.7446 -0.6465
 4120TIP3    H233996   1.763   1.889   0.768  0.0343  1.7452 -1.9103
 4121TIP3   OH233997   5.066   4.738   1.328 -0.5664  1.0525  0.1702
 4121TIP3    H133998   5.105   4.801   1.268  1.6585 -0.0169  0.3967
 4121TIP3    H233999   5.097   4.653   1.297 -0.3020  0.3904  2.1169
 4122TIP3   OH234000   1.524   1.461   6.972  0.2208 -0.1454  0.4256
 4122TIP3    H134001   1.556   1.384   6.925  2.7083  0.7467  0.5137
 4122TIP3    H234002   1.484   1.516   6.905 -1.9608 -1.5994  0.4199
 4123TIP3   OH234003   3.782   5.978   0.886  0.4348 -0.1117  0.3292
 4123TIP3    H134004   3.763   6.060   0.841 -2.3240 -0.1549  1.2110
 4123TIP3    H234005   3.700   5.955   0.929  1.3256 -2.9754  0.7176
 4124TIP3   OH234006   6.159   2.862   7.252  0.6360 -0.0547 -0.2622
 4124TIP3    H134007   6.109   2.783   7.274 -0.8356  1.3968  1.9722
 4124TIP3    H234008   6.143   2.874   7.158 -2.3394 -0.3370  0.0946
 4125TIP3   OH234009   6.432   2.218   0.108 -0.2866 -0.2361  0.7547
 4125TIP3    H134010   6.367   2.287   0.106  0.3239  0.3386  0.3887
 4125TIP3    H234011   6.392   2.149   0.161 -1.4269 -0.1465  0.0448
 4126TIP3   OH234012   5.811   2.937   7.270 -0.4971  0.0236  0.5389
 4126TIP3    H134013   5.838   3.029   7.275  0.6097 -0.2823  0.4632
 4126TIP3    H234014   5.860   2.901   7.197  1.1072 -1.2703  2.1570
 4127TIP3   OH234015   0.404   0.698   0.292  0.1081 -0.5121  0.6207
 4127TIP3    H134016   0.344   0.772   0.300  0.8718  0.1644  0.2141
 4127TIP3    H234017   0.457   0.702   0.372  1.0065  0.1739  0.0154
 4128TIP3   OH234018   4.443   3.891   1.686  0.0650  0.1683 -0.5786
 4128TIP3    H134019   4.396   3.957   1.737 -2.4596 -0.7190 -1.6385
 4128TIP3    H234020   4.409   3.808   1.718  3.6149 -0.8127  1.1653
 4129TIP3   OH234021   0.134   5.153   1.640 -0.1575 -0.5187 -0.0765
 4129TIP3    H134022   0.148   5.092   1.712  1.0770 -0.0519  0.1126
 4129TIP3    H234023   0.129   5.239   1.682  3.1135  0.0926 -0.6236
 4130TIP3   OH234024   4.179   4.948   1.115  0.0783  0.1735  0.2695
 4130TIP3    H134025   4.115   4.981   1.051  0.8530  0.1697 -0.5325
 4130TIP3    H234026   4.179   4.853   1.101 -1.5677 -0.1620  2.0297
 4131TIP3   OH234027   2.195   2.233   7.574  0.0176  0.1557 -0.1997
 4131TIP3    H134028   2.248   2.255   7.497 -1.1557 -0.0120 -1.0776
 4131TIP3    H234029   2.221   2.143   7.596  0.1059  0.0804 -0.6095
 4132TIP3   OH234030   0.266   4.474   7.700 -0.0630 -0.1163  0.0831
 4132TIP3    H134031   0.215   4.555   7.701 -0.1514 -0.1749  0.1856
 4132TIP3    H234032   0.349   4.500   7.659  0.7241  0.5129  1.9660
 4133TIP3   OH234033   5.634   0.743   0.393 -0.3185  0.3325  0.1943
 4133TIP3    H134034   5.548   0.716   0.361 -0.5502  1.3850 -0.1109
 4133TIP3    H234035   5.693   0.674   0.363 -1.0334 -0.3682  0.3420
 4134TIP3   OH234036   3.279   2.786   0.098  0.4627  0.6746 -0.9040
 4134TIP3    H134037   3.299   2.840   0.175 -0.3468  1.2278 -1.0768
 4134TIP3    H234038   3.347   2.719   0.099 -0.9859 -0.9284  1.7845
 4135TIP3   OH234039   4.633   4.195   7.346  0.3221 -0.3512  0.2322
 4135TIP3    H134040   4.660   4.112   7.305  0.9413 -0.0518  0.0211
 4135TIP3    H234041   4.713   4.229   7.386  0.2265  0.4751 -0.2551
 4136TIP3   OH234042   1.363   1.170   1.601 -0.1268 -0.1604  0.2589
 4136TIP3    H134043   1.304   1.224   1.549  1.2475  0.0918 -1.1014
 4136TIP3    H234044   1.386   1.097   1.543 -0.1337 -0.9689  1.2484
 4137TIP3   OH234045   0.663   3.979   8.561 -0.2462  0.5532 -0.2821
 4137TIP3    H134046   0.568   3.980   8.574 -0.5090  1.4859 -1.9799
 4137TIP3    H234047   0.684   4.066   8.526  1.6945  1.4225  2.6815
 4138TIP3   OH234048   0.336   1.666   7.032 -0.0554  0.1965  0.1836
 4138TIP3    H134049   0.269   1.734   7.028  0.0485  0.2603 -1.9705
 4138TIP3    H234050   0.415   1.710   7.061 -0.2219  0.7849 -0.2515
 4139TIP3   OH234051   2.620   2.864   0.741  0.0146  0.4112  0.1638
 4139TIP3    H134052   2.697   2.845   0.794  0.1869 -0.3974 -0.3624
 4139TIP3    H234053   2.570   2.927   0.793  0.4990  0.1247  0.9954
 4140TIP3   OH234054   3.355   3.387   2.582 -0.1639  0.6826 -0.3876
 4140TIP3    H134055   3.323   3.302   2.613  1.1772 -0.2395 -1.4014
 4140TIP3    H234056   3.280   3.426   2.538 -0.9441  0.2588  0.5335
 4141TIP3   OH234057   2.903   3.670   7.501  0.1602  0.0768 -0.2352
 4141TIP3    H134058   2.814   3.705   7.508 -0.2186 -0.9582  0.2873
 4141TIP3    H234059   2.959   3.746   7.511 -0.6665  0.9170 -1.6085
 4142TIP3   OH234060   2.312   2.013   1.489  0.0344  0.0494  0.4248
 4142TIP3    H134061   2.340   1.926   1.461  0.1548 -0.2664  1.4839
 4142TIP3    H234062   2.218   2.015   1.470 -0.0088 -0.3932  0.5750
 4143TIP3   OH234063   1.035   6.395   0.018  0.0406 -0.0718 -0.0314
 4143TIP3    H134064   1.087   6.357  -0.053  1.5381 -3.1129  2.4934
 4143TIP3    H234065   1.087   6.470   0.048 -0.3968  0.9760 -1.6978
 4144TIP3   OH234066   0.214   0.129   6.911  0.0691  0.2082  0.5869
 4144TIP3    H134067   0.147   0.063   6.893  0.6762 -1.2319  3.1047
 4144TIP3    H234068   0.163   0.205   6.941 -0.5396 -0.1903  0.6012
 4145TIP3   OH234069   1.828   4.444   7.532 -0.2582 -0.0550 -0.6733
 4145TIP3    H134070   1.911   4.396   7.531 -0.5677 -0.9481  2.7804
 4145TIP3    H234071   1.770   4.392   7.477  0.3424 -1.8486  0.3026
 4146TIP3   OH234072   0.316   4.319   1.929 -0.0969  0.2920 -0.2450
 4146TIP3    H134073   0.291   4.241   1.979  0.2858 -0.2682 -0.9069
 4146TIP3    H234074   0.412   4.317   1.928 -0.0955  0.4114 -0.8093
 4147TIP3   OH234075   1.167   2.846   8.495  0.2064 -0.2546 -0.0462
 4147TIP3    H134076   1.234   2.822   8.431  0.3241  0.9574 -0.3995
 4147TIP3    H234077   1.217   2.862   8.575  0.4060  1.0049 -0.4026
 4148TIP3   OH234078   4.430   0.916   2.037  0.0548 -0.7302 -0.2866
 4148TIP3    H134079   4.526   0.918   2.029  0.1578 -2.8727 -0.3086
 4148TIP3    H234080   4.410   0.983   2.102  1.6692 -0.7968  0.3338
 4149TIP3   OH234081   1.763   0.999   0.918  0.1052  0.4089  0.1717
 4149TIP3    H134082   1.762   0.992   1.014 -1.5757 -2.1100  0.0661
 4149TIP3    H234083   1.671   0.992   0.893  0.6511 -0.6142 -1.6961
 4150TIP3   OH234084   5.501   5.060   7.465 -0.0636 -0.1142  0.3806
 4150TIP3    H134085   5.437   5.103   7.408 -0.8812 -0.6269  0.8882
 4150TIP3    H234086   5.456   5.053   7.549  0.9608  0.2253  0.9731
 4151TIP3   OH234087   4.700   5.587   7.002  0.4336 -0.1807 -0.0772
 4151TIP3    H134088   4.763   5.659   6.995  0.6259 -0.4879 -1.9717
 4151TIP3    H234089   4.685   5.559   6.912 -2.8475  0.2059  0.2273
 4152TIP3   OH234090   1.317   5.534   6.192 -0.6208  0.7412  0.5528
 4152TIP3    H134091   1.351   5.620   6.220 -1.5435  1.1810  0.3584
 4152TIP3    H234092   1.292   5.491   6.273 -0.1452  0.6413  0.6524
 4153TIP3   OH234093   1.176   0.287   1.487 -0.0086 -0.1471  0.4800
 4153TIP3    H134094   1.207   0.234   1.414  1.5183  1.3525 -0.0274
 4153TIP3    H234095   1.246   0.351   1.502 -1.5593  1.4403  1.3518
 4154TIP3   OH234096   1.221   2.010   0.944 -0.0742  0.3957 -0.1919
 4154TIP3    H134097   1.174   2.081   0.900 -1.7390 -0.1367  0.6565
 4154TIP3    H234098   1.194   2.017   1.035 -1.0466 -1.8795 -0.2339
 4155TIP3   OH234099   0.025   2.137   7.277  0.1635  1.2805 -0.4146
 4155TIP3    H134100   0.037   2.231   7.295 -1.1531  1.3547  0.1197
 4155TIP3    H234101   0.011   2.133   7.183  1.0670  1.5167 -0.5744
 4156TIP3   OH234102   5.347   6.771   7.462 -0.1566  0.1335  0.4888
 4156TIP3    H134103   5.401   6.822   7.401 -0.7196  1.5028  1.0738
 4156TIP3    H234104   5.316   6.836   7.525 -2.6654 -0.5313  0.0591
 4157TIP3   OH234105   2.185   3.142   8.284 -0.5792  0.0580  0.3635
 4157TIP3    H134106   2.165   3.190   8.203 -0.7684  0.5313  0.6878
 4157TIP3    H234107   2.119   3.171   8.346 -2.3107 -2.4841 -0.1146
 4158TIP3   OH234108   1.412   6.575   7.505 -0.0081  0.2788  0.4009
 4158TIP3    H134109   1.453   6.658   7.529 -2.1474  1.2866  0.8166
 4158TIP3    H234110   1.336   6.601   7.452 -0.1961 -1.4840 -0.2492
 4159TIP3   OH234111   6.248   6.829   0.968 -0.2915 -0.4797  0.9221
 4159TIP3    H134112   6.209   6.868   1.046 -0.6085  0.9770  0.0753
 4159TIP3    H234113   6.334   6.800   0.996 -1.1194 -1.7277  2.2755
 4160TIP3   OH234114   5.955   2.834   8.046  0.4480  0.0469  0.6947
 4160TIP3    H134115   5.954   2.750   8.091 -0.0143 -0.5748 -0.4536
 4160TIP3    H234116   6.008   2.819   7.968 -0.0510  0.6814  0.2280
 4161TIP3   OH234117   1.671   0.319   6.797 -0.5706  0.3279 -0.9702
 4161TIP3    H134118   1.739   0.386   6.794 -0.5471  0.3083 -0.8775
 4161TIP3    H234119   1.666   0.285   6.707  0.7723 -0.9074 -0.6031
 4162TIP3   OH234120   5.951   0.704   1.829  0.1731 -0.2930  0.6412
 4162TIP3    H134121   5.911   0.646   1.894  0.6667 -0.4438  0.8116
 4162TIP3    H234122   6.022   0.652   1.790 -2.0938 -1.4334 -2.3764
 4163TIP3   OH234123   1.885   3.556   1.556 -0.0449 -0.4364 -0.2428
 4163TIP3    H134124   1.927   3.497   1.494  0.0144 -2.1550  1.3340
 4163TIP3    H234125   1.863   3.500   1.631  1.9080  1.8807  2.2864
 4164TIP3   OH234126   2.734   1.582   8.005 -0.2521  0.9483  0.0097
 4164TIP3    H134127   2.778   1.600   7.922 -0.9168 -0.4768 -0.6877
 4164TIP3    H234128   2.772   1.499   8.035 -0.8184  0.8843  0.5718
 4165TIP3   OH234129   2.156   3.944   0.749  0.1883 -0.5727  0.4715
 4165TIP3    H134130   2.178   3.981   0.663 -2.3760  2.2241  0.8759
 4165TIP3    H234131   2.241   3.930   0.790  1.4669  2.0468 -0.9730
 4166TIP3   OH234132   5.496   4.265   8.273 -0.4222 -0.2333  0.1401
 4166TIP3    H134133   5.555   4.213   8.327  1.5058  2.2390  0.5756
 4166TIP3    H234134   5.461   4.331   8.333  0.5491  1.6053 -1.2460
 4167TIP3   OH234135   1.629   0.980   1.322 -0.3831 -0.1369 -0.2877
 4167TIP3    H134136   1.568   1.045   1.288 -0.5205 -0.1682 -0.1036
 4167TIP3    H234137   1.693   0.968   1.252 -1.4873 -1.3114 -1.1500
 4168TIP3   OH234138   2.092   3.732   7.356 -0.1081  0.4294 -0.2042
 4168TIP3    H134139   2.128   3.699   7.274  1.4424 -2.1598  1.3959
 4168TIP3    H234140   2.048   3.657   7.395  1.0921  0.9493  2.3229
 4169TIP3   OH234141   2.043   4.948   8.387 -0.2562 -0.4149  0.1753
 4169TIP3    H134142   2.023   4.965   8.479  1.8612 -1.1638  0.8408
 4169TIP3    H234143   2.060   4.854   8.384 -2.4086 -0.8250 -1.4741
 4170TIP3   OH234144   1.796   3.573   8.023 -0.3365  0.1069 -0.0546
 4170TIP3    H134145   1.803   3.508   7.953  1.8864 -1.0143  1.1118
 4170TIP3    H234146   1.770   3.524   8.100  0.4426  0.7301  0.6338
 4171TIP3   OH234147   4.381   2.030   8.422  0.0402  0.1853 -0.1118
 4171TIP3    H134148   4.297   1.987   8.437  0.1586 -0.0066  0.0058
 4171TIP3    H234149   4.374   2.066   8.333 -0.3887  0.6945  0.1210
 4172TIP3   OH234150   2.135   5.168   1.073  0.2452 -0.2290  0.1581
 4172TIP3    H134151   2.047   5.138   1.052 -0.6719  0.0383  3.1637
 4172TIP3    H234152   2.128   5.263   1.076  0.1083 -0.2683  2.2201
 4173TIP3   OH234153   2.437   3.325   7.596 -0.1923  0.5614 -0.4253
 4173TIP3    H134154   2.497   3.315   7.522  0.6451 -0.6217  0.3770
 4173TIP3    H234155   2.366   3.265   7.578  0.4707 -0.4225  0.1492
 4174TIP3   OH234156   5.547   4.547   1.565 -0.3326  0.1352 -0.0433
 4174TIP3    H134157   5.493   4.591   1.631 -0.5534 -0.7605  0.3839
 4174TIP3    H234158   5.486   4.493   1.516 -0.0657  0.3206 -0.5899
 4175TIP3   OH234159   0.499   0.251   0.023 -0.3394  0.3082 -0.1919
 4175TIP3    H134160   0.410   0.239  -0.008 -0.8302  0.7813  0.9528
 4175TIP3    H234161   0.535   0.319  -0.034 -0.8941  0.4912 -0.3339
 4176TIP3   OH234162   5.245   6.732   6.803 -0.0734 -0.0325 -0.1649
 4176TIP3    H134163   5.296   6.676   6.745 -3.1491 -0.7010 -2.4348
 4176TIP3    H234164   5.225   6.809   6.750 -3.1548 -0.7550 -0.2013
 4177TIP3   OH234165   3.463   6.424   8.472 -0.4741  0.1562 -0.1239
 4177TIP3    H134166   3.473   6.519   8.462 -1.5347  0.3947  0.8413
 4177TIP3    H234167   3.372   6.407   8.445  0.0306 -0.7652 -1.3427
 4178TIP3   OH234168   4.287   5.867   7.904  0.3226  0.3224  0.1639
 4178TIP3    H134169   4.194   5.884   7.919  0.4544 -0.2451  1.8939
 4178TIP3    H234170   4.297   5.867   7.809 -1.3110  1.0660 -0.0372
 4179TIP3   OH234171   6.252   5.603   7.072  0.3351 -0.0417 -0.4767
 4179TIP3    H134172   6.170   5.652   7.082 -0.4980 -1.2869 -1.0203
 4179TIP3    H234173   6.320   5.671   7.070 -0.6032  0.9812  0.6001
 4180TIP3   OH234174   5.103   3.927   8.660  0.1325 -0.0093  1.1771
 4180TIP3    H134175   5.104   3.944   8.566  1.4123 -0.7150  1.0442
 4180TIP3    H234176   5.133   3.837   8.668 -0.8007 -0.2438  2.2218
 4181TIP3   OH234177   2.011   3.262   1.198  0.4673  0.0196 -0.7055
 4181TIP3    H134178   1.954   3.250   1.275 -0.5704 -1.2923 -1.6378
 4181TIP3    H234179   1.966   3.327   1.145  1.4954  1.3942  0.0371
 4182TIP3   OH234180   4.593   2.920   1.661 -0.1881  0.5456  0.2508
 4182TIP3    H134181   4.645   2.867   1.600 -0.4766  0.0441  0.4327
 4182TIP3    H234182   4.631   2.902   1.747 -0.0283  0.9540  0.2677
 4183TIP3   OH234183   5.197   1.287   8.456 -0.0729  0.2170 -0.3053
 4183TIP3    H134184   5.255   1.285   8.380  0.8768 -0.2120  0.4090
 4183TIP3    H234185   5.128   1.349   8.431  1.6176  2.1309 -0.5450
 4184TIP3   OH234186   2.495   3.332   8.090  0.2655  0.1127  0.0410
 4184TIP3    H134187   2.410   3.376   8.096 -0.3954 -1.2853  1.9988
 4184TIP3    H234188   2.478   3.255   8.035  0.3095 -0.0567  0.2632
 4185TIP3   OH234189   4.452   4.130   0.646 -0.2692 -0.3355 -0.3239
 4185TIP3    H134190   4.413   4.064   0.588 -1.2283 -0.4656  0.4331
 4185TIP3    H234191   4.522   4.083   0.692 -0.0432 -0.4481 -0.7769
 4186TIP3   OH234192   2.036   2.757   0.471 -0.2152 -0.2919  0.1090
 4186TIP3    H134193   2.120   2.781   0.432  0.0004 -0.2389  0.5935
 4186TIP3    H234194   2.042   2.787   0.562  0.0760 -2.1659  0.7648
 4187TIP3   OH234195   5.890   4.984   0.476  0.2999 -0.1136  0.0072
 4187TIP3    H134196   5.891   4.998   0.571 -0.5620  1.0425 -0.1258
 4187TIP3    H234197   5.976   5.012   0.447  0.3001  0.2683  0.3623
 4188TIP3   OH234198   1.579   1.784   0.290 -0.4417 -0.0436 -0.0190
 4188TIP3    H134199   1.603   1.871   0.323 -1.6015  0.0219  0.7210
 4188TIP3    H234200   1.532   1.744   0.363  0.2784 -1.3996 -0.2648
 4189TIP3   OH234201   0.080   1.505   7.930 -0.4095  0.2893  0.8028
 4189TIP3    H134202   0.055   1.597   7.918  0.0507  0.4850  1.3002
 4189TIP3    H234203   0.000   1.456   7.913 -0.6006  0.7673  0.2901
 4190TIP3   OH234204   2.772   3.208   0.105 -0.1463 -0.4307  0.4904
 4190TIP3    H134205   2.793   3.225   0.197 -1.8366  1.4340  0.6045
 4190TIP3    H234206   2.853   3.228   0.058  0.3588 -0.1008  1.4676
 4191TIP3   OH234207   4.798   6.161   8.674  0.4489  0.4252  0.3726
 4191TIP3    H134208   4.787   6.231   8.738 -0.7786 -0.3758  1.0823
 4191TIP3    H234209   4.755   6.085   8.714  1.1989 -0.5691 -0.6453
 4192TIP3   OH234210   5.348   2.540   8.444 -0.0999 -0.4511  0.0166
 4192TIP3    H134211   5.387   2.461   8.482  3.1417  0.4580 -1.1103
 4192TIP3    H234212   5.340   2.520   8.350 -2.6695 -0.6411  0.2064
 4193TIP3   OH234213   6.823   4.955   0.752  0.8654 -0.0358  0.1678
 4193TIP3    H134214   6.869   5.030   0.790  1.6871 -0.8372  0.7911
 4193TIP3    H234215   6.891   4.906   0.706  0.2610 -0.1956 -0.5878
 4194TIP3   OH234216   0.821   5.435   8.412  0.7117 -0.1196  0.1300
 4194TIP3    H134217   0.863   5.505   8.362 -0.0948  0.8831  0.8211
 4194TIP3    H234218   0.894   5.391   8.455  1.1650  1.0198  0.5787
 4195TIP3   OH234219   1.451   6.600   7.934  0.2288  0.6166 -0.5406
 4195TIP3    H134220   1.528   6.545   7.943  0.2711  0.4171 -1.9116
 4195TIP3    H234221   1.486   6.689   7.924  0.4387  0.3207 -3.0863
 4196TIP3   OH234222   1.365   2.044   7.600 -0.0877  0.7706 -0.3630
 4196TIP3    H134223   1.448   2.086   7.622  1.2180  0.2628 -3.6389
 4196TIP3    H234224   1.304   2.116   7.585 -0.0870  1.1697  1.3699
 4197TIP3   OH234225   0.279   6.665   8.315 -0.6478  0.3849  0.0267
 4197TIP3    H134226   0.222   6.694   8.244 -3.3845 -0.8029  1.5799
 4197TIP3    H234227   0.219   6.627   8.380  2.0046 -1.6553  1.4749
 4198TIP3   OH234228   1.316   2.751   8.245  0.6504 -0.2973 -0.1660
 4198TIP3    H134229   1.403   2.741   8.285  0.3105 -0.9461  0.4417
 4198TIP3    H234230   1.265   2.677   8.280  0.2612 -0.7401 -1.6275
 4199TIP3   OH234231   5.120   3.477   0.059  0.2050 -0.3040 -0.1948
 4199TIP3    H134232   5.127   3.558   0.111  0.4141 -0.5749  0.2084
 4199TIP3    H234233   5.157   3.409   0.116  2.1468 -0.3195 -1.3543
 4200TIP3   OH234234   0.526   4.029   8.170 -0.2579  0.3758 -0.5482
 4200TIP3    H134235   0.543   3.940   8.200 -0.3330  0.7489  0.6818
 4200TIP3    H234236   0.457   4.021   8.105 -1.0774 -0.3603  0.3858
 4201TIP3   OH234237   5.372   3.544   7.930 -0.4358 -0.0167 -0.0548
 4201TIP3    H134238   5.369   3.640   7.928 -0.7423 -0.0088  0.5976
 4201TIP3    H234239   5.332   3.517   7.847  0.3489  0.4246 -0.5898
 4202TIP3   OH234240   0.999   3.802   0.837  0.3723 -0.2855  0.3146
 4202TIP3    H134241   1.014   3.723   0.889 -0.6428 -1.4357 -1.0624
 4202TIP3    H234242   0.907   3.797   0.811  0.0329  1.8108  0.8945
 4203TIP3   OH234243   6.799   3.717   7.811 -0.4926  0.6056 -0.3005
 4203TIP3    H134244   6.858   3.695   7.883 -0.7885  0.1207 -0.1978
 4203TIP3    H234245   6.790   3.813   7.816 -2.1962  0.4335  1.6964
 4204TIP3   OH234246   4.722   6.065   0.303 -0.3403  0.6894 -0.8146
 4204TIP3    H134247   4.692   5.983   0.341 -0.5472  0.7821 -0.7788
 4204TIP3    H234248   4.647   6.099   0.255 -0.0709  0.5527 -1.3465
 4205TIP3   OH234249   4.219   2.756   7.783  0.7713 -0.0232 -0.4739
 4205TIP3    H134250   4.210   2.743   7.877 -0.3100 -2.7746 -0.8632
 4205TIP3    H234251   4.144   2.709   7.745  0.5931  1.8640 -2.6912
 4206TIP3   OH234252   1.123   0.476   1.166  0.0314  0.4167 -0.3603
 4206TIP3    H134253   1.050   0.520   1.210 -0.6930 -1.1516  0.0785
 4206TIP3    H234254   1.201   0.508   1.211 -0.4893  1.0735  0.0936
 4207TIP3   OH234255   3.274   1.672   7.719 -0.1917 -0.1421 -0.3972
 4207TIP3    H134256   3.358   1.703   7.685  0.4557 -1.6625 -0.2726
 4207TIP3    H234257   3.297   1.618   7.794 -1.1172 -2.0523 -1.4214
 4208TIP3   OH234258   1.024   2.409   0.080 -0.1253  0.0436 -0.0705
 4208TIP3    H134259   1.086   2.478   0.102 -1.2622  1.1306 -0.1783
 4208TIP3    H234260   0.939   2.444   0.105 -0.6717 -1.6078  0.5315
 4209TIP3   OH234261   4.687   3.644   8.618 -0.4454 -0.0499 -0.7777
 4209TIP3    H134262   4.611   3.589   8.600 -1.8015  1.0866  1.1964
 4209TIP3    H234263   4.654   3.734   8.613  0.9665  0.5073 -0.7148
 4210TIP3   OH234264   1.245   1.843   1.989 -0.0675  0.1679  0.1928
 4210TIP3    H134265   1.155   1.809   1.981 -0.8957  1.6747  2.1020
 4210TIP3    H234266   1.239   1.909   2.058  2.9107 -1.0042  1.7607
 4211TIP3   OH234267   1.214   0.482   7.012  0.2643 -0.1541 -0.0070
 4211TIP3    H134268   1.136   0.534   7.028  0.1905 -0.0493 -0.6799
 4211TIP3    H234269   1.189   0.422   6.942  0.7486 -0.1995 -0.1471
 4212TIP3   OH234270   0.387   3.959   2.254  0.4684  0.4137  0.1485
 4212TIP3    H134271   0.433   4.040   2.276 -0.1653  1.2355 -1.3812
 4212TIP3    H234272   0.315   3.987   2.197  0.3066 -1.2414 -0.5249
 4213TIP3   OH234273   5.100   1.724   7.215 -0.2970  0.5848 -0.3272
 4213TIP3    H134274   5.104   1.814   7.247 -0.2679  0.7243 -0.7244
 4213TIP3    H234275   5.180   1.712   7.164  0.4897 -0.1703  1.0054
 4214TIP3   OH234276   6.273   3.974   1.776  0.0660  0.0041 -0.0364
 4214TIP3    H134277   6.220   3.897   1.755  1.4458 -0.8641 -0.4758
 4214TIP3    H234278   6.308   3.957   1.863 -0.5999  0.7251  0.3909
 4215TIP3   OH234279   2.121   4.992   0.019  0.1068 -0.3602  0.1170
 4215TIP3    H134280   2.145   4.978   0.111  0.7313  0.1784  0.0464
 4215TIP3    H234281   2.177   4.933  -0.030  0.2971 -0.1222  0.0424
 4216TIP3   OH234282   3.502   2.821   0.997  0.0671  0.0735  0.2855
 4216TIP3    H134283   3.469   2.891   0.940  1.7646  0.3381 -0.4336
 4216TIP3    H234284   3.453   2.831   1.078  0.3080  2.1632  0.2299
 4217TIP3   OH234285   0.263   1.575   0.742 -0.1596  0.5578 -0.5111
 4217TIP3    H134286   0.219   1.546   0.822  0.8236  1.9187  0.5474
 4217TIP3    H234287   0.353   1.545   0.751 -0.1457  0.2966 -1.3585
 4218TIP3   OH234288   5.496   0.262   8.050  0.1285 -0.1664 -0.6106
 4218TIP3    H134289   5.408   0.286   8.022 -1.1929 -2.1367  1.4452
 4218TIP3    H234290   5.524   0.195   7.987 -0.0393  0.1388 -1.0118
 4219TIP3   OH234291   4.998   3.159   8.628  0.4185  0.1069  0.5170
 4219TIP3    H134292   5.025   3.076   8.669 -2.3167 -1.3491 -0.4205
 4219TIP3    H234293   5.073   3.184   8.574  0.7769 -2.5856 -0.3708
 4220TIP3   OH234294   1.047   3.297   0.933 -0.3037  0.8948 -0.3095
 4220TIP3    H134295   1.083   3.242   1.003 -0.0869  1.5757  0.1251
 4220TIP3    H234296   1.082   3.259   0.852 -0.0469  0.4786 -0.0071
 4221TIP3   OH234297   6.436   3.164   2.452 -0.5735 -0.1355 -0.0985
 4221TIP3    H134298   6.454   3.076   2.419  0.7775 -0.6705  1.8684
 4221TIP3    H234299   6.343   3.163   2.475 -0.3569 -1.3685  0.7665
 4222TIP3   OH234300   1.029   6.146   1.440 -0.5560 -0.0792  0.2309
 4222TIP3    H134301   1.021   6.241   1.446 -0.9544  0.1635 -2.5984
 4222TIP3    H234302   1.118   6.132   1.407 -1.3045 -0.4329 -1.8216
 4223TIP3   OH234303   1.287   1.077   1.204 -0.5105 -0.3381  0.4456
 4223TIP3    H134304   1.302   0.989   1.171  0.4099  0.1188 -0.4276
 4223TIP3    H234305   1.193   1.082   1.219 -0.5088 -1.6268  1.0195
 4224TIP3   OH234306   4.652   4.600   6.677 -0.1125  0.7124  0.4478
 4224TIP3    H134307   4.647   4.638   6.589  0.1784  0.0135  0.1218
 4224TIP3    H234308   4.742   4.615   6.705  0.1727 -0.2625  0.0713
 4225TIP3   OH234309   2.913   6.134   0.793  0.3326 -1.0312 -0.4179
 4225TIP3    H134310   2.944   6.055   0.750  0.1646 -1.0113 -0.5774
 4225TIP3    H234311   2.857   6.176   0.729  2.1534  0.3678 -1.1954
 4226TIP3   OH234312   6.446   4.567   2.322  0.6678 -0.0776  0.0418
 4226TIP3    H134313   6.475   4.540   2.235 -1.1563 -1.8249 -0.0890
 4226TIP3    H234314   6.444   4.486   2.373  0.3445  0.7036  1.3122
 4227TIP3   OH234315   5.211   2.515   0.899 -0.2471 -0.1449 -0.0522
 4227TIP3    H134316   5.167   2.583   0.951 -1.0317 -0.5807 -0.1449
 4227TIP3    H234317   5.304   2.539   0.903 -0.4134  0.4060  0.6980
 4228TIP3   OH234318   3.290   3.501   1.443  0.1243 -0.3771 -0.0240
 4228TIP3    H134319   3.353   3.458   1.501  0.2091 -2.3260 -1.4882
 4228TIP3    H234320   3.308   3.465   1.356 -1.9632  0.2324 -0.7718
 4229TIP3   OH234321   0.916   4.735   6.648 -0.0836 -0.2382  0.5373
 4229TIP3    H134322   0.883   4.654   6.688 -2.7340  0.6957  0.4709
 4229TIP3    H234323   0.839   4.773   6.605  1.2375  1.9818 -0.0220
 4230TIP3   OH234324   5.782   5.358   2.066  0.0443  0.0317 -0.0074
 4230TIP3    H134325   5.721   5.326   2.132 -0.7162 -1.6563 -1.4557
 4230TIP3    H234326   5.868   5.351   2.108 -0.4117 -1.0309  0.8064
 4231TIP3   OH234327   5.996   1.452   8.288 -0.6961  0.1701 -0.0535
 4231TIP3    H134328   6.042   1.383   8.335  0.7105  0.7530 -0.5185
 4231TIP3    H234329   6.045   1.532   8.309 -0.3703  0.5283 -1.9835
 4232TIP3   OH234330   0.355   1.542   8.237  0.0770 -0.4214  0.1619
 4232TIP3    H134331   0.320   1.502   8.156  0.0829  1.2188 -0.6844
 4232TIP3    H234332   0.447   1.518   8.237  0.9714  2.4113 -2.2535
 4233TIP3   OH234333   5.736   5.311   8.345  0.3110 -0.1885  0.2651
 4233TIP3    H134334   5.792   5.381   8.379  1.4267 -0.7237 -0.3956
 4233TIP3    H234335   5.772   5.230   8.383 -0.5369 -0.4824  0.4802
 4234TIP3   OH234336   2.655   1.378   0.375 -0.8330 -0.0746  0.2812
 4234TIP3    H134337   2.606   1.458   0.394  0.3824  0.9896 -0.8712
 4234TIP3    H234338   2.593   1.321   0.331 -1.5397  0.4762  0.5496
 4235TIP3   OH234339   6.371   5.908   2.259 -0.3585  0.4514  0.5009
 4235TIP3    H134340   6.293   5.881   2.211  0.7512 -0.3398 -0.9245
 4235TIP3    H234341   6.382   5.842   2.327  0.8268 -1.2872 -1.2915
 4236TIP3   OH234342   6.293   6.213   6.973 -0.3773  0.2002  0.3416
 4236TIP3    H134343   6.308   6.123   6.942  1.9568  0.3671  0.7861
 4236TIP3    H234344   6.298   6.206   7.068  0.2784  0.8675  0.3583
 4237TIP3   OH234345   4.155   0.038   7.090  0.4099  0.0281  0.3677
 4237TIP3    H134346   4.230   0.056   7.033 -0.5408 -0.8698 -1.2468
 4237TIP3    H234347   4.087   0.098   7.059 -0.9507 -2.1956 -1.2953
 4238TIP3   OH234348   5.576   2.279   7.702 -0.1863 -0.5693  0.2495
 4238TIP3    H134349   5.603   2.258   7.612 -0.6142  2.5533 -0.7274
 4238TIP3    H234350   5.610   2.367   7.717 -1.4852 -0.3959  2.5852
 4239TIP3   OH234351   4.132   2.534   6.978  0.6140  0.3077 -0.3858
 4239TIP3    H134352   4.173   2.574   6.902  1.8372 -1.4274 -0.6904
 4239TIP3    H234353   4.200   2.534   7.045  0.1635  0.0748  0.0792
 4240TIP3   OH234354   2.322   1.056   8.835  0.1590  0.5506  0.3105
 4240TIP3    H134355   2.227   1.049   8.833  0.0262  2.1155 -0.4023
 4240TIP3    H234356   2.352   0.980   8.785 -0.8389  1.1953 -1.3880
 4241TIP3   OH234357   3.843   2.711   1.376 -0.5216 -0.8064 -0.2274
 4241TIP3    H134358   3.786   2.651   1.424  0.8081 -1.3826  0.7079
 4241TIP3    H234359   3.805   2.797   1.389  0.0475 -0.8699  2.3415
 4242TIP3   OH234360   1.772   5.816   1.105 -0.5363 -0.1432 -1.0966
 4242TIP3    H134361   1.818   5.873   1.166 -1.1732  1.7373 -2.2702
 4242TIP3    H234362   1.680   5.824   1.129 -0.6572 -0.4381 -1.4537
 4243TIP3   OH234363   1.442   4.639   7.602  0.1982  0.2438 -0.0321
 4243TIP3    H134364   1.494   4.719   7.603  0.1485  0.2857 -0.4153
 4243TIP3    H234365   1.455   4.604   7.514 -0.0180 -0.0115  0.0371
 4244TIP3   OH234366   0.850   4.098   7.563  0.2959  0.1476  0.1429
 4244TIP3    H134367   0.853   4.137   7.650 -0.5603 -1.3031  0.8486
 4244TIP3    H234368   0.866   4.004   7.578 -2.1760 -0.5210 -0.9573
 4245TIP3   OH234369   5.416   6.283   2.198 -0.4620 -0.3951 -0.2850
 4245TIP3    H134370   5.330   6.298   2.238 -0.7088  0.4404 -1.0945
 4245TIP3    H234371   5.412   6.330   2.114  0.4369 -1.1707 -0.7793
 4246TIP3   OH234372   1.889   0.732   7.296 -0.0105  0.0006  0.6117
 4246TIP3    H134373   1.905   0.662   7.232 -2.1549 -0.6669  0.7174
 4246TIP3    H234374   1.975   0.770   7.313  0.5053  1.3449 -3.9048
 4247TIP3   OH234375   6.821   4.746   7.044 -0.3874 -0.4745 -0.2101
 4247TIP3    H134376   6.745   4.695   7.071 -1.3648  0.7433 -0.5828
 4247TIP3    H234377   6.893   4.683   7.045 -0.9164 -1.1633  2.3512
 4248TIP3   OH234378   4.204   1.016   7.621 -0.9240 -0.4131 -0.5305
 4248TIP3    H134379   4.263   1.050   7.553 -0.0428 -1.2775 -0.2220
 4248TIP3    H234380   4.178   1.094   7.671 -1.2799  0.1849 -1.6111
 4249TIP3   OH234381   1.876   2.736   1.233  0.8284  0.1138  0.1976
 4249TIP3    H134382   1.868   2.832   1.233  1.1315  0.1477 -0.5534
 4249TIP3    H234383   1.953   2.719   1.179 -0.5358 -0.6541 -1.5700
 4250TIP3   OH234384   2.163   0.905   2.103 -0.0635  0.2775  0.2958
 4250TIP3    H134385   2.254   0.934   2.111 -0.3428  1.0776  0.7983
 4250TIP3    H234386   2.139   0.879   2.192 -0.5925  0.9550  0.3628
 4251TIP3   OH234387   2.545   4.515   6.757  0.8389  0.3396 -0.4389
 4251TIP3    H134388   2.606   4.444   6.781  0.6057  0.7251  1.4182
 4251TIP3    H234389   2.463   4.470   6.738  1.0105  0.0183 -0.4403
 4252TIP3   OH234390   4.743   5.245   8.333  0.2520  0.2527  0.1072
 4252TIP3    H134391   4.686   5.315   8.300  0.5046  0.7122  0.6266
 4252TIP3    H234392   4.828   5.286   8.343  0.1135  0.2202  1.6082
 4253TIP3   OH234393   5.033   3.959   1.111 -0.0333  0.3474  0.2372
 4253TIP3    H134394   5.084   3.955   1.030  1.4062  1.4139  1.0382
 4253TIP3    H234395   5.018   3.867   1.135 -0.2146  0.0272 -1.0591
 4254TIP3   OH234396   5.082   6.438   8.417 -0.1519 -0.4725  0.1445
 4254TIP3    H134397   5.052   6.471   8.502  0.1445  1.7371 -0.5467
 4254TIP3    H234398   5.002   6.423   8.367 -0.3068  1.6918 -0.3648
 4255TIP3   OH234399   6.440   5.328   0.646  0.1361 -0.3984  0.1382
 4255TIP3    H134400   6.524   5.349   0.606 -1.0188 -0.5917 -2.6628
 4255TIP3    H234401   6.450   5.238   0.678  1.0252 -0.3655 -0.0301
 4256TIP3   OH234402   6.829   1.979   0.003  0.1524  0.2433 -0.6142
 4256TIP3    H134403   6.922   1.987  -0.018  1.5995 -4.4440  2.3025
 4256TIP3    H234404   6.819   2.025   0.086  0.0524  0.2685 -0.6402
 4257TIP3   OH234405   6.037   5.826   0.975 -0.0597  0.3415 -0.2223
 4257TIP3    H134406   5.963   5.767   0.988  0.1686  0.3552  1.3053
 4257TIP3    H234407   6.005   5.912   1.002  0.7811  0.1679  1.4222
 4258TIP3   OH234408   4.630   6.552   7.399  0.0030  0.0222 -0.7503
 4258TIP3    H134409   4.708   6.580   7.447  0.0058 -0.4239 -0.4835
 4258TIP3    H234410   4.556   6.581   7.452 -0.0153  0.5072 -1.0382
 4259TIP3   OH234411   0.331   6.234   7.191 -0.8200 -0.1585  0.0515
 4259TIP3    H134412   0.378   6.155   7.216  0.3273  0.4031 -0.2587
 4259TIP3    H234413   0.341   6.239   7.096  0.1970  0.9802  0.1828
 4260TIP3   OH234414   6.698   4.971   1.106 -0.5350  0.5100 -0.0954
 4260TIP3    H134415   6.790   4.997   1.104 -0.5926  0.7342 -1.7331
 4260TIP3    H234416   6.669   4.990   1.195  1.1797 -0.2295  0.6682
 4261TIP3   OH234417   0.639   1.780   6.984  0.2930  0.0217 -0.6179
 4261TIP3    H134418   0.683   1.704   7.023 -0.2661 -1.4855 -2.7043
 4261TIP3    H234419   0.686   1.795   6.903 -0.1998  1.3462 -0.6740
 4262TIP3   OH234420   6.247   4.548   0.303 -0.2893 -0.1107  0.4240
 4262TIP3    H134421   6.273   4.620   0.361  0.1020  0.8692 -0.9391
 4262TIP3    H234422   6.327   4.523   0.257 -0.5345 -1.0706  0.4823
 4263TIP3   OH234423   3.049   1.877   7.729 -0.6056  0.0002  0.4515
 4263TIP3    H134424   3.129   1.837   7.764 -0.3814  0.2236  0.1939
 4263TIP3    H234425   3.024   1.942   7.794 -0.5390 -0.0192  0.4963
 4264TIP3   OH234426   0.822   3.439   1.770 -0.0591  0.4994  0.9042
 4264TIP3    H134427   0.885   3.434   1.841  1.3074 -1.4255 -0.3489
 4264TIP3    H234428   0.749   3.384   1.798  1.4870 -2.2291 -0.0121
 4265TIP3   OH234429   1.895   3.215   0.417  0.2628  0.6718 -0.1029
 4265TIP3    H134430   1.910   3.124   0.441 -0.6915  0.2584 -1.0000
 4265TIP3    H234431   1.800   3.223   0.410  0.2168  2.1583  1.4879
 4266TIP3   OH234432   1.088   0.968   6.793  0.2858  0.2295 -0.3485
 4266TIP3    H134433   1.076   1.063   6.801  0.1887  0.1916  0.0029
 4266TIP3    H234434   1.076   0.950   6.700  0.6524  0.6101 -0.4764
 4267TIP3   OH234435   2.678   6.340   7.931  0.2479  0.2701 -1.0586
 4267TIP3    H134436   2.688   6.269   7.868  0.7340 -0.0787 -0.5962
 4267TIP3    H234437   2.705   6.418   7.883  1.8800 -0.1702 -0.9093
 4268TIP3   OH234438   1.070   5.331   7.322 -0.0499 -0.0009  0.1135
 4268TIP3    H134439   1.031   5.417   7.304 -1.6150 -0.7823 -0.4444
 4268TIP3    H234440   1.151   5.351   7.370  0.1193  1.8081 -0.8366
 4269TIP3   OH234441   5.885   4.099   0.130 -0.1659 -0.5138  0.3971
 4269TIP3    H134442   5.931   4.051   0.199  0.8512 -0.1662 -0.0247
 4269TIP3    H234443   5.898   4.047   0.051  2.0886  1.0581 -0.3524
 4270TIP3   OH234444   1.197   6.665   7.342 -0.2029 -0.5428 -0.3926
 4270TIP3    H134445   1.229   6.706   7.262 -1.1189  0.0659 -0.4674
 4270TIP3    H234446   1.150   6.736   7.388  1.3307 -0.5287  1.2846
 4271TIP3   OH234447   3.721   4.295   8.354 -0.8755  0.4016 -0.4477
 4271TIP3    H134448   3.788   4.233   8.382 -0.5937  0.9347  0.0745
 4271TIP3    H234449   3.638   4.253   8.379 -0.6771  0.3407  0.1200
 4272TIP3   OH234450   6.427   5.808   7.047  0.1094 -0.6893 -0.2349
 4272TIP3    H134451   6.361   5.854   6.996  0.1346 -1.8394 -1.3460
 4272TIP3    H234452   6.503   5.867   7.045 -1.1401  1.1658  1.9980
 4273TIP3   OH234453   3.043   4.487   1.183 -1.0010 -0.3895  1.2002
 4273TIP3    H134454   3.037   4.550   1.254  0.9376 -0.5498  1.5592
 4273TIP3    H234455   2.982   4.417   1.206 -3.5377  1.4883  0.5726
 4274TIP3   OH234456   2.435   0.935   2.127  0.0979 -0.3924  0.6399
 4274TIP3    H134457   2.510   0.915   2.183 -0.2451  2.0116  2.0634
 4274TIP3    H234458   2.462   0.904   2.040  2.5723 -0.0134  1.1896
 4275TIP3   OH234459   2.342   6.759   7.670 -0.0921  0.2765  0.0713
 4275TIP3    H134460   2.373   6.822   7.734  0.4941  1.0011 -0.8997
 4275TIP3    H234461   2.364   6.674   7.707  0.8355  0.7074  0.5385
 4276TIP3   OH234462   1.348   2.031   8.385  0.3994  0.2084  0.4751
 4276TIP3    H134463   1.346   1.937   8.404 -1.5437  0.1440  0.1130
 4276TIP3    H234464   1.423   2.041   8.325  0.0535 -1.2669 -0.2546
 4277TIP3   OH234465   2.224   0.920   0.337  0.4683 -0.5031  0.3974
 4277TIP3    H134466   2.276   0.852   0.380  0.9976  1.2795  2.7961
 4277TIP3    H234467   2.289   0.979   0.299  0.0911 -0.1621  0.2726
 4278TIP3   OH234468   3.386   0.899   7.334  0.0503 -0.4220 -0.2813
 4278TIP3    H134469   3.386   0.803   7.331  0.8213 -0.3994 -2.2130
 4278TIP3    H234470   3.455   0.925   7.273  2.3101  1.3510  2.7301
 4279TIP3   OH234471   3.871   6.523   7.487  0.1529  0.4064 -0.1360
 4279TIP3    H134472   3.824   6.572   7.419 -0.3905  0.1523  0.0494
 4279TIP3    H234473   3.876   6.434   7.452 -0.8423  0.0812  0.4869
 4280TIP3   OH234474   2.094   5.236   8.454  0.4165  0.2733 -0.0939
 4280TIP3    H134475   2.154   5.275   8.517 -0.1738 -1.0297  1.3583
 4280TIP3    H234476   2.116   5.143   8.454  0.4403  0.2287 -1.9057
 4281TIP3   OH234477   3.174   0.741   7.553 -0.2580 -0.4684 -0.2287
 4281TIP3    H134478   3.185   0.824   7.507 -0.5619 -1.0863 -1.4491
 4281TIP3    H234479   3.123   0.764   7.631 -0.0026  0.5480 -0.3485
 4282TIP3   OH234480   3.690   0.311   7.654 -0.5417 -0.1810  0.7075
 4282TIP3    H134481   3.766   0.267   7.693  1.5117 -1.0915 -3.7330
 4282TIP3    H234482   3.723   0.397   7.628 -1.7370  0.2805  0.6666
 4283TIP3   OH234483   6.214   5.325   7.066  0.2600  0.2864 -0.0234
 4283TIP3    H134484   6.147   5.329   6.997 -0.5280 -0.6685  0.6594
 4283TIP3    H234485   6.232   5.417   7.086 -1.1820  0.5742  0.0700
 4284TIP3   OH234486   2.400   5.255   0.271 -0.0272  0.3427 -0.0891
 4284TIP3    H134487   2.491   5.272   0.247 -0.2675  0.5165 -0.8907
 4284TIP3    H234488   2.377   5.328   0.329  0.7604 -0.4386  1.2686
 4285TIP3   OH234489   4.470   1.659   0.443  0.0876 -0.1238 -0.2183
 4285TIP3    H134490   4.400   1.703   0.491  0.6377  0.1751  0.3198
 4285TIP3    H234491   4.432   1.574   0.419 -1.0891  0.7381 -1.5443
 4286TIP3   OH234492   3.464   1.791   7.552  0.4041  0.4733 -0.1055
 4286TIP3    H134493   3.556   1.766   7.544  0.5158  0.4808  0.9845
 4286TIP3    H234494   3.467   1.881   7.585  0.0201  0.3727  0.2176
 4287TIP3   OH234495   2.373   6.618   6.438 -0.5079  1.2908  0.1097
 4287TIP3    H134496   2.384   6.680   6.366  1.1814 -0.2847 -1.0773
 4287TIP3    H234497   2.311   6.553   6.405 -0.2598  0.9368  0.3273
 4288TIP3   OH234498   0.787   3.043   7.013 -0.3962  0.1173  0.0151
 4288TIP3    H134499   0.799   3.089   6.930 -1.0909 -1.3935 -0.9885
 4288TIP3    H234500   0.870   2.998   7.027 -0.4152  0.0502 -0.0835
 4289TIP3   OH234501   5.772   4.435   0.238  0.1393  0.3645  0.1078
 4289TIP3    H134502   5.791   4.377   0.164 -1.1348  0.7220 -0.5261
 4289TIP3    H234503   5.756   4.521   0.198 -1.5831  0.3460  0.6599
 4290TIP3   OH234504   1.622   6.198   0.824 -0.0870 -0.0510  0.5089
 4290TIP3    H134505   1.686   6.192   0.754 -0.4326 -0.2346  0.2055
 4290TIP3    H234506   1.538   6.213   0.779 -0.2299  0.3778  0.9079
 4291TIP3   OH234507   2.606   1.519   0.977 -0.7183 -0.8003 -0.2668
 4291TIP3    H134508   2.620   1.613   0.968  1.4443 -0.8687  1.6338
 4291TIP3    H234509   2.530   1.512   1.034 -1.0747 -0.2441 -0.6553
 4292TIP3   OH234510   2.065   2.262   1.681  0.4439  0.2046 -0.1967
 4292TIP3    H134511   2.038   2.172   1.665  0.4097 -0.0732  1.2771
 4292TIP3    H234512   1.987   2.305   1.716  0.5963  0.6806 -0.4343
 4293TIP3   OH234513   3.702   5.472   7.585  0.6774  0.4936 -0.1795
 4293TIP3    H134514   3.705   5.439   7.674  1.1844  0.7698 -0.0888
 4293TIP3    H234515   3.770   5.423   7.539 -1.5746 -1.8817 -1.2134
 4294TIP3   OH234516   4.661   5.706   6.623  0.1127 -0.4315  0.2357
 4294TIP3    H134517   4.624   5.755   6.549 -0.4138 -1.0168  0.1104
 4294TIP3    H234518   4.641   5.760   6.700  1.7933  0.8315 -0.1609
 4295TIP3   OH234519   1.569   0.543   0.259  0.6339  0.3265  0.5276
 4295TIP3    H134520   1.543   0.553   0.168  3.3941  0.2149 -0.3419
 4295TIP3    H234521   1.609   0.456   0.264  1.7873  0.8843  1.4943
 4296TIP3   OH234522   0.217   3.899   8.320  0.1263 -0.1425 -0.3929
 4296TIP3    H134523   0.248   3.931   8.405 -0.6568  0.2404 -0.2433
 4296TIP3    H234524   0.151   3.963   8.293  0.2472 -0.3542 -1.2148
 4297TIP3   OH234525   0.653   3.432   0.303  0.3330 -0.2854  0.1980
 4297TIP3    H134526   0.561   3.426   0.327 -0.3013 -0.6517 -2.1328
 4297TIP3    H234527   0.671   3.526   0.299  0.7827 -0.1731  2.9767
 4298TIP3   OH234528   1.192   1.772   2.754 -0.0528  0.0915 -0.2605
 4298TIP3    H134529   1.184   1.867   2.754 -0.7872  0.0298 -0.4455
 4298TIP3    H234530   1.103   1.739   2.767  0.3973 -0.5639  1.3922
 4299TIP3   OH234531   0.989   0.632   7.091 -0.6490  0.1482  0.4580
 4299TIP3    H134532   0.931   0.589   7.028  0.1601  0.0103 -0.2131
 4299TIP3    H234533   0.946   0.715   7.111 -0.6728  0.4215 -0.6775
 4300TIP3   OH234534   3.038   4.874   1.301 -0.3922  0.8102  0.0262
 4300TIP3    H134535   3.022   4.969   1.303  1.9437  1.3269 -1.8938
 4300TIP3    H234536   3.124   4.865   1.261 -0.8487 -2.1815 -0.4893
 4301TIP3   OH234537   3.767   4.771   7.967  0.1990  0.0072  0.3686
 4301TIP3    H134538   3.735   4.783   7.878 -0.6663 -1.0671  0.5108
 4301TIP3    H234539   3.831   4.701   7.961  1.0306  0.7431  0.4196
 4302TIP3   OH234540   0.990   3.678   2.374  0.0348 -0.4390  0.3184
 4302TIP3    H134541   0.950   3.654   2.290 -1.0819 -0.4233  0.8169
 4302TIP3    H234542   1.001   3.773   2.369 -0.0735 -0.4323  0.1939
 4303TIP3   OH234543   2.384   6.433   0.958 -0.0278  0.1250 -0.2322
 4303TIP3    H134544   2.325   6.452   0.885 -0.5853  2.9759  0.8435
 4303TIP3    H234545   2.325   6.410   1.030  0.1860  1.7171  0.4923
 4304TIP3   OH234546   5.776   4.939   8.013  0.1515  0.0518 -0.0587
 4304TIP3    H134547   5.846   4.979   7.961 -1.7361  1.9239 -1.2730
 4304TIP3    H234548   5.781   4.984   8.098  0.5983 -0.0512 -0.0271
 4305TIP3   OH234549   6.342   3.229   8.645  0.7281  0.0924  0.4545
 4305TIP3    H134550   6.335   3.171   8.721 -2.8067 -1.0253 -0.5174
 4305TIP3    H234551   6.370   3.171   8.574 -0.5564  0.0102 -0.0177
 4306TIP3   OH234552   1.180   1.321   1.431  0.4952  0.2664  0.2105
 4306TIP3    H134553   1.184   1.314   1.336 -2.5441 -2.4750  0.1318
 4306TIP3    H234554   1.149   1.410   1.447 -0.9202  0.1529 -1.5320
 4307TIP3   OH234555   4.705   4.785   2.187 -0.0617 -0.4739 -0.0328
 4307TIP3    H134556   4.629   4.814   2.238 -0.3051  1.2694 -1.2859
 4307TIP3    H234557   4.779   4.832   2.226  0.0721 -0.6959 -0.0175
 4308TIP3   OH234558   5.695   0.437   8.118  0.0796  0.0074 -0.1490
 4308TIP3    H134559   5.621   0.400   8.069  1.0036 -0.3529 -1.3397
 4308TIP3    H234560   5.728   0.506   8.061 -0.6377  1.6359  1.3515
 4309TIP3   OH234561   4.663   4.724   8.847  0.0536 -0.0891 -0.4764
 4309TIP3    H134562   4.699   4.709   8.760 -0.5539  1.1731 -0.9761
 4309TIP3    H234563   4.570   4.742   8.832 -0.2408 -0.6719  0.5221
 4310TIP3   OH234564   4.298   2.302   0.066  0.1097  0.1677 -0.5213
 4310TIP3    H134565   4.322   2.393   0.084  0.2060 -0.1005  0.8544
 4310TIP3    H234566   4.380   2.259   0.043  0.3415  0.0984  0.3922
 4311TIP3   OH234567   4.025   6.828   1.307  0.0422 -0.0468 -0.2384
 4311TIP3    H134568   4.091   6.863   1.247 -0.0820  1.2997  0.3780
 4311TIP3    H234569   4.016   6.736   1.281  0.4386  0.3365 -1.8658
 4312TIP3   OH234570   3.935   5.620   7.604 -0.3189  0.1859 -0.3939
 4312TIP3    H134571   3.849   5.586   7.579 -0.4476 -0.8202  1.2240
 4312TIP3    H234572   3.916   5.683   7.674  0.2995 -1.0673  0.9598
 4313TIP3   OH234573   4.069   0.258   1.162 -0.5400 -0.0927 -0.0854
 4313TIP3    H134574   4.030   0.345   1.168 -0.3037  0.2214 -2.4115
 4313TIP3    H234575   4.041   0.214   1.243 -3.1370  1.1345 -0.2105
 4314TIP3   OH234576   1.545   0.189   1.161  0.0242 -0.1425 -0.9448
 4314TIP3    H134577   1.591   0.105   1.172  0.1977 -0.2610 -2.4511
 4314TIP3    H234578   1.538   0.224   1.250  0.5875 -1.4181 -0.3783
 4315TIP3   OH234579   3.677   2.356   7.462 -0.1415  0.1601  0.4441
 4315TIP3    H134580   3.583   2.366   7.444  0.1143  0.1330 -1.0781
 4315TIP3    H234581   3.719   2.421   7.406  0.8278 -0.7782  0.0472
 4316TIP3   OH234582   0.550   3.296   1.489  0.2213 -0.0464  0.5595
 4316TIP3    H134583   0.506   3.347   1.556  0.8256 -0.0541  0.9664
 4316TIP3    H234584   0.481   3.272   1.427 -0.7511 -1.7982  2.2326
 4317TIP3   OH234585   6.177   0.889   1.959 -0.2503  0.0446  0.5190
 4317TIP3    H134586   6.185   0.800   1.925 -1.0261  0.1281  0.0850
 4317TIP3    H234587   6.095   0.921   1.921  0.0905  0.9884  0.5678
 4318TIP3   OH234588   2.140   3.489   6.647 -0.7010  0.1369  0.5741
 4318TIP3    H134589   2.214   3.445   6.690 -1.8947  0.4967  3.1733
 4318TIP3    H234590   2.174   3.575   6.623  0.7656 -1.0011 -1.7745
 4319TIP3   OH234591   2.407   6.619   8.492  0.1720  0.0610  0.1728
 4319TIP3    H134592   2.442   6.535   8.522 -0.6537 -0.4917 -0.3705
 4319TIP3    H234593   2.482   6.678   8.492  1.7090 -1.6488 -3.1589
 4320TIP3   OH234594   3.655   5.726   6.798  0.0624 -0.3435 -0.2987
 4320TIP3    H134595   3.670   5.726   6.704  1.1163  0.5582 -0.1546
 4320TIP3    H234596   3.709   5.655   6.831  1.1620  0.5182 -0.1909
 4321TIP3   OH234597   0.427   3.411   7.054 -0.0566 -0.1232 -0.7797
 4321TIP3    H134598   0.459   3.339   7.110  0.2679 -0.0461 -0.8646
 4321TIP3    H234599   0.410   3.370   6.970 -0.9118 -0.3190 -0.5262
 4322TIP3   OH234600   0.163   4.586   1.472 -0.1684  0.2128  1.0914
 4322TIP3    H134601   0.079   4.616   1.507 -0.3004 -0.4788  1.4040
 4322TIP3    H234602   0.164   4.492   1.491  1.1323  0.3823  2.0331
 4323TIP3   OH234603   3.463   2.769   8.004  0.0643  0.0890  0.5644
 4323TIP3    H134604   3.436   2.726   8.085  0.9779  0.4777  1.0919
 4323TIP3    H234605   3.458   2.863   8.023  1.5646  0.1810  0.6365
 4324TIP3   OH234606   2.205   0.102   6.925 -0.6911  0.0613 -0.4330
 4324TIP3    H134607   2.288   0.119   6.879 -1.2987  0.6913 -1.3472
 4324TIP3    H234608   2.189   0.183   6.974 -1.3799  0.4610 -1.2762
 4325TIP3   OH234609   5.034   1.404   7.699  0.3399 -0.4877  0.6016
 4325TIP3    H134610   5.109   1.354   7.666 -0.7604 -1.1698 -0.9907
 4325TIP3    H234611   4.965   1.391   7.633 -1.2430 -0.0181  2.0733
 4326TIP3   OH234612   4.446   6.399   1.138 -0.1035  0.9213 -0.0181
 4326TIP3    H134613   4.461   6.346   1.060 -0.5406  3.4205 -1.9425
 4326TIP3    H234614   4.521   6.380   1.195  0.7766 -0.2140 -1.4737
 4327TIP3   OH234615   2.462   6.046   0.418 -0.0872  0.2784  0.1676
 4327TIP3    H134616   2.409   5.968   0.435 -0.3512  0.8577  2.4142
 4327TIP3    H234617   2.552   6.017   0.434  0.0551 -0.0477 -1.0823
 4328TIP3   OH234618   1.231   1.761   0.813 -0.0780 -0.3679 -0.0767
 4328TIP3    H134619   1.219   1.846   0.854 -0.3452 -0.7331  0.6134
 4328TIP3    H234620   1.148   1.745   0.767 -0.4254 -0.7035  0.6440
 4329TIP3   OH234621   6.608   5.306   7.777  0.2599 -0.1020 -0.5156
 4329TIP3    H134622   6.519   5.339   7.794  0.0805  0.4600 -2.3590
 4329TIP3    H234623   6.633   5.262   7.858 -1.9199 -0.7626 -0.1305
 4330TIP3   OH234624   3.722   5.529   7.207  0.2244 -0.0457  0.4424
 4330TIP3    H134625   3.774   5.606   7.228 -1.2281  1.2276 -0.4146
 4330TIP3    H234626   3.635   5.550   7.241 -0.4863 -0.7946 -0.8464
 4331TIP3   OH234627   5.298   5.133   8.450  0.4915  0.3889  0.0526
 4331TIP3    H134628   5.307   5.043   8.419 -0.1442  0.0697  0.7669
 4331TIP3    H234629   5.332   5.187   8.378  1.7609 -0.4482  0.0021
 4332TIP3   OH234630   4.739   4.668   8.223 -0.3181 -0.1176 -0.3265
 4332TIP3    H134631   4.699   4.751   8.197 -2.2429 -0.9086 -0.0773
 4332TIP3    H234632   4.792   4.690   8.299 -2.2863  0.6309  0.9121
 4333TIP3   OH234633   0.114   6.226   0.548 -0.4011  0.2850  0.1628
 4333TIP3    H134634   0.081   6.185   0.468 -0.1616  0.5842 -0.0888
 4333TIP3    H234635   0.067   6.181   0.619  1.1690 -1.7426  0.0155
 4334TIP3   OH234636   1.079   6.751   0.831  0.6486  0.3758  0.2958
 4334TIP3    H134637   1.156   6.765   0.887  0.8113  1.5702 -0.2136
 4334TIP3    H234638   1.020   6.823   0.851  0.2796  0.2651 -0.3506
 4335TIP3   OH234639   1.299   1.243   0.877 -0.2971 -0.3496 -0.8565
 4335TIP3    H134640   1.273   1.230   0.786  0.6521 -1.3267 -1.0035
 4335TIP3    H234641   1.217   1.234   0.926 -0.5556 -1.5866 -1.4710
 4336TIP3   OH234642   2.348   4.728   1.577  0.4018  0.1550  0.0468
 4336TIP3    H134643   2.389   4.813   1.592  1.2334  0.0693 -1.5509
 4336TIP3    H234644   2.332   4.725   1.483 -0.1581 -1.2179  0.1636
 4337TIP3   OH234645   4.777   5.051   7.094 -0.3119 -0.1554 -0.3070
 4337TIP3    H134646   4.783   5.117   7.025  2.0961  0.2434  0.2125
 4337TIP3    H234647   4.694   5.071   7.138 -0.1893  1.8272 -0.8634
 4338TIP3   OH234648   4.591   3.845   6.781 -0.1117 -0.5584 -0.2173
 4338TIP3    H134649   4.569   3.873   6.692 -2.1811  0.8846  0.6537
 4338TIP3    H234650   4.640   3.764   6.770 -0.4988 -0.5289 -2.6472
 4339TIP3   OH234651   4.068   2.276   8.227 -0.3095 -0.7193 -0.2025
 4339TIP3    H134652   4.052   2.355   8.176 -1.5008 -0.7082  0.1624
 4339TIP3    H234653   4.032   2.296   8.314  0.1036 -1.3749  0.1267
 4340TIP3   OH234654   3.180   2.333   1.742 -0.0481  0.1485  0.0766
 4340TIP3    H134655   3.202   2.372   1.827  0.7070 -1.2691  0.5748
 4340TIP3    H234656   3.105   2.384   1.711  0.8101  1.8984  0.7051
 4341TIP3   OH234657   3.234   5.122   0.745 -0.0957  0.7727 -0.4103
 4341TIP3    H134658   3.197   5.049   0.696  2.0680  0.6794 -2.0272
 4341TIP3    H234659   3.175   5.133   0.820 -0.1148 -3.1016  0.3416
 4342TIP3   OH234660   2.237   0.498   1.085  0.4251 -0.0775  0.3612
 4342TIP3    H134661   2.307   0.538   1.033  0.3544  2.5613  2.0900
 4342TIP3    H234662   2.283   0.450   1.155  0.5527  0.8659  0.9438
 4343TIP3   OH234663   1.671   4.962   7.217 -0.2669  0.0037  0.0528
 4343TIP3    H134664   1.717   4.996   7.140 -1.2826 -1.0335 -1.0629
 4343TIP3    H234665   1.593   4.920   7.181 -1.0954  0.0461  1.7292
 4344TIP3   OH234666   1.372   3.605   6.680 -0.2400 -0.6264  0.2547
 4344TIP3    H134667   1.313   3.559   6.621 -0.5530 -0.3845  0.3718
 4344TIP3    H234668   1.460   3.579   6.652 -0.3632 -0.1401 -0.6279
 4345TIP3   OH234669   5.029   4.299   6.387  0.3143  0.7420 -0.1010
 4345TIP3    H134670   5.084   4.246   6.330  3.1476  0.7647  2.3322
 4345TIP3    H234671   4.949   4.247   6.400  1.6529 -1.4866 -0.2844
 4346TIP3   OH234672   0.502   5.646   8.774  0.1182 -0.3583  0.0205
 4346TIP3    H134673   0.456   5.673   8.695  0.1161  0.0800  0.1713
 4346TIP3    H234674   0.476   5.709   8.840  2.0808  0.8225 -0.2618
 4347TIP3   OH234675   5.714   0.605   0.146  0.0588 -0.0197 -0.5191
 4347TIP3    H134676   5.677   0.685   0.110  2.3813  0.4626 -2.0443
 4347TIP3    H234677   5.638   0.555   0.177 -1.5393  2.2460 -0.5064
 4348TIP3   OH234678   1.675   0.926   0.112 -0.7887  0.1672  0.0457
 4348TIP3    H134679   1.640   0.940   0.024  0.6511  2.3497 -0.2341
 4348TIP3    H234680   1.710   0.837   0.109 -0.9370  0.1274 -1.5244
 4349TIP3   OH234681   6.441   0.623   0.995 -0.0675 -0.7705 -0.2946
 4349TIP3    H134682   6.356   0.591   0.966  0.3265 -0.2442 -2.1696
 4349TIP3    H234683   6.484   0.547   1.033 -1.1461 -1.1638  0.1837
 4350TIP3   OH234684   0.900   0.200   0.549 -0.6178 -0.4864 -0.1807
 4350TIP3    H134685   0.807   0.214   0.529 -0.7729  0.7433  1.2869
 4350TIP3    H234686   0.946   0.269   0.501 -0.4847 -0.8622 -0.6013
 4351TIP3   OH234687   1.336   3.386   7.218  0.2453 -0.0136 -0.3532
 4351TIP3    H134688   1.394   3.349   7.151 -0.8529 -1.4886 -0.5329
 4351TIP3    H234689   1.276   3.315   7.240 -0.5537  1.0078  0.9142
 4352TIP3   OH234690   3.852   6.014   8.518  0.5264 -0.7012  0.3930
 4352TIP3    H134691   3.786   5.945   8.525 -1.0644  0.7848  1.2536
 4352TIP3    H234692   3.837   6.053   8.432  0.0002 -0.1376  0.7281
 4353TIP3   OH234693   1.201   6.096   7.000 -0.4820 -0.2620  0.2006
 4353TIP3    H134694   1.174   6.094   6.908 -0.4062 -0.0703  0.1751
 4353TIP3    H234695   1.220   6.188   7.019  1.6023 -0.5466 -0.2173
 4354TIP3   OH234696   1.830   5.395   8.571 -0.1812  0.1239 -0.3665
 4354TIP3    H134697   1.839   5.300   8.570  2.0212  0.2361  1.0882
 4354TIP3    H234698   1.804   5.416   8.661  1.1823  0.9645 -0.1331
 4355TIP3   OH234699   1.320   1.113   7.383 -0.1299  0.0634  0.3316
 4355TIP3    H134700   1.350   1.083   7.468 -0.2104  2.8289  1.4176
 4355TIP3    H234701   1.400   1.134   7.334 -0.0966 -1.2224 -0.2201
 4356TIP3   OH234702   3.087   5.441   1.670  0.7659  0.0006  0.2407
 4356TIP3    H134703   3.085   5.486   1.755 -1.0862 -0.5077  0.5186
 4356TIP3    H234704   3.032   5.495   1.613  0.0076 -0.9141  0.0751
 4357TIP3   OH234705   1.826   2.975   6.795 -0.0174  0.5645 -0.3842
 4357TIP3    H134706   1.836   3.061   6.834 -0.7204  0.3300  0.3625
 4357TIP3    H234707   1.900   2.924   6.828  1.1186  1.2071 -1.8355
 4358TIP3   OH234708   0.058   2.632   1.537  0.1410  0.0345 -0.2462
 4358TIP3    H134709  -0.030   2.667   1.533 -0.3283 -0.9452  0.9111
 4358TIP3    H234710   0.073   2.594   1.450 -0.4219  0.5528 -0.5743
 4359TIP3   OH234711   4.845   3.984   6.158  0.3636 -0.0937  0.4282
 4359TIP3    H134712   4.840   3.963   6.251 -2.5963 -2.0876 -0.0264
 4359TIP3    H234713   4.884   3.906   6.118 -0.8277 -0.3809 -0.2226
 4360TIP3   OH234714   1.962   4.422   1.449  0.6588 -0.0242  0.0941
 4360TIP3    H134715   2.022   4.351   1.429  1.1938  0.3731  0.2830
 4360TIP3    H234716   1.877   4.378   1.463  0.9467 -0.6036  0.0558
 4361TIP3   OH234717   1.298   6.210   1.597 -0.3823  0.3644  0.4156
 4361TIP3    H134718   1.320   6.141   1.534 -1.4893  1.9024 -1.7867
 4361TIP3    H234719   1.215   6.181   1.636 -0.6867  0.2978 -0.2660
 4362TIP3   OH234720   4.551   3.083   7.413 -0.0932 -0.5761 -0.2916
 4362TIP3    H134721   4.542   3.168   7.370 -2.8519 -1.3938 -1.5522
 4362TIP3    H234722   4.626   3.042   7.369  1.3405  1.1301  0.3898
 4363TIP3   OH234723   3.184   4.494   7.643  0.0238  0.3050 -0.4970
 4363TIP3    H134724   3.122   4.565   7.636 -1.2925 -0.8539 -1.0419
 4363TIP3    H234725   3.260   4.532   7.687 -1.1919  1.6766  0.5033
 4364TIP3   OH234726   5.256   3.432   7.210  0.1336  0.2252 -0.0293
 4364TIP3    H134727   5.350   3.425   7.223  0.0923 -1.5881 -0.3036
 4364TIP3    H234728   5.245   3.435   7.115 -0.0895 -0.0519 -0.0167
 4365TIP3   OH234729   3.150   4.668   0.999  0.0823  0.0674  0.5903
 4365TIP3    H134730   3.094   4.739   0.967  0.2094  1.3747  3.0327
 4365TIP3    H234731   3.094   4.615   1.055 -0.3073 -2.5645 -2.0555
 4366TIP3   OH234732   3.192   6.145   8.305 -0.6599  0.6091 -0.2463
 4366TIP3    H134733   3.153   6.134   8.393  0.9369  1.4131  0.5963
 4366TIP3    H234734   3.211   6.238   8.299  2.6736  0.0774  0.1307
 4367TIP3   OH234735   1.872   1.239   0.810  0.2304 -0.4039  0.8987
 4367TIP3    H134736   1.912   1.262   0.894  0.0851 -0.1627  0.9022
 4367TIP3    H234737   1.828   1.155   0.827 -0.5738  0.0931  1.3118
 4368TIP3   OH234738   1.970   6.374   0.247 -0.3457  0.1265 -0.3091
 4368TIP3    H134739   1.974   6.364   0.152  0.8902  0.9571 -0.3656
 4368TIP3    H234740   1.905   6.442   0.261  2.0123  2.6768 -0.8409
 4369TIP3   OH234741   3.429   0.144   6.399 -0.2165  0.2735  0.0033
 4369TIP3    H134742   3.340   0.133   6.366 -1.1253 -3.0115  2.9045
 4369TIP3    H234743   3.418   0.178   6.487  1.3626 -0.5184  0.5421
 4370TIP3   OH234744   3.046   5.734   7.857  0.3057 -0.2004  0.0948
 4370TIP3    H134745   3.116   5.740   7.792 -0.2328 -0.5704 -0.5433
 4370TIP3    H234746   3.003   5.651   7.837  0.0524 -0.2610  0.8569
 4371TIP3   OH234747   3.803   1.992   1.944 -0.4061  0.1945  0.5757
 4371TIP3    H134748   3.837   1.904   1.934  0.1084  0.5975 -1.5446
 4371TIP3    H234749   3.807   2.008   2.039 -1.0125 -2.2109  1.0755
 4372TIP3   OH234750   3.566   3.155   0.428  0.1439  0.1311 -0.1665
 4372TIP3    H134751   3.504   3.103   0.479  0.4463 -0.0350  0.0301
 4372TIP3    H234752   3.520   3.238   0.413  0.2763  0.4152  0.8906
 4373TIP3   OH234753   3.326   1.366   1.570 -0.1753  0.3595  0.5223
 4373TIP3    H134754   3.391   1.329   1.629 -0.3441  1.4363  1.4131
 4373TIP3    H234755   3.331   1.461   1.584 -0.9662  0.5614 -0.4068
 4374TIP3   OH234756   6.254   3.084   7.475 -0.6211 -0.1757 -0.5924
 4374TIP3    H134757   6.344   3.060   7.454  0.0558 -0.4240  2.1938
 4374TIP3    H234758   6.251   3.178   7.460  0.0352 -0.2022 -0.9501
 4375TIP3   OH234759   6.499   0.838   8.031  0.1568 -0.0102  0.6143
 4375TIP3    H134760   6.593   0.839   8.012  0.2982 -1.0130  1.1649
 4375TIP3    H234761   6.491   0.881   8.116 -0.0178  1.0437  0.0725
 4376TIP3   OH234762   4.578   1.834   0.795  0.2043 -0.2428 -0.3342
 4376TIP3    H134763   4.586   1.905   0.859 -0.0641  1.4213 -2.0604
 4376TIP3    H234764   4.666   1.797   0.789  1.1437  2.0171 -1.6281
 4377TIP3   OH234765   0.320   5.392   7.597  0.7908  0.5612  0.9701
 4377TIP3    H134766   0.350   5.316   7.547  0.8038  0.8449  0.5335
 4377TIP3    H234767   0.378   5.396   7.673  1.6211  0.8727  0.3340
 4378TIP3   OH234768   3.829   5.577   2.456  0.0455 -0.4520 -0.4341
 4378TIP3    H134769   3.774   5.503   2.431 -0.4021  0.2030 -1.5162
 4378TIP3    H234770   3.913   5.559   2.415  0.5568 -1.2923  0.9409
 4379TIP3   OH234771   1.964   5.514   1.673 -0.4234  0.3085  0.1345
 4379TIP3    H134772   2.047   5.470   1.691 -0.1747  0.7778  0.1608
 4379TIP3    H234773   1.939   5.485   1.586 -0.3422 -0.0054  0.2164
 4380TIP3   OH234774   1.924   5.541   7.202 -1.0982 -0.6231 -0.3692
 4380TIP3    H134775   1.972   5.481   7.258 -0.9656 -0.5033 -0.3535
 4380TIP3    H234776   1.832   5.518   7.215 -1.0296 -1.0680 -0.6438
 4381TIP3   OH234777   0.083   4.339   7.577 -0.4958  0.1989  0.3205
 4381TIP3    H134778   0.137   4.405   7.620  0.8850 -0.0098 -0.9805
 4381TIP3    H234779   0.147   4.278   7.539 -1.6819 -0.4741 -0.6534
 4382TIP3   OH234780   2.517   3.989   2.587  0.1090 -0.6566  0.5601
 4382TIP3    H134781   2.580   4.024   2.650 -0.3054 -0.2073  0.7327
 4382TIP3    H234782   2.571   3.952   2.517  0.5979  1.5793 -0.3397
 4383TIP3   OH234783   1.021   4.830   2.082  0.1488  0.1555 -0.6054
 4383TIP3    H134784   1.053   4.749   2.043 -0.2581 -0.7868  0.9344
 4383TIP3    H234785   0.934   4.808   2.116  0.8913  0.5640  1.7714
 4384TIP3   OH234786   0.503   6.737   2.023  0.3802  0.1275 -0.0024
 4384TIP3    H134787   0.543   6.756   1.938 -2.8490  1.7813 -1.3219
 4384TIP3    H234788   0.496   6.642   2.026  1.8214 -0.0390 -0.8985
 4385TIP3   OH234789   3.725   0.604   7.650  0.3518  0.1892 -0.3723
 4385TIP3    H134790   3.817   0.578   7.652  0.6702  1.2468 -0.5914
 4385TIP3    H234791   3.707   0.617   7.557 -0.2721 -0.8531 -0.4059
 4386TIP3   OH234792   0.715   5.770   6.995 -0.1592  0.0431 -0.2411
 4386TIP3    H134793   0.697   5.736   7.083 -1.3483  0.4697 -0.3090
 4386TIP3    H234794   0.721   5.691   6.940 -1.3174 -0.1489 -0.1140
 4387TIP3   OH234795   2.884   4.363   6.406  0.2027  0.0741  0.0775
 4387TIP3    H134796   2.925   4.287   6.447 -1.2046 -0.5177  0.4622
 4387TIP3    H234797   2.957   4.422   6.387  1.0610 -0.0766  2.4677
 4388TIP3   OH234798   1.418   3.540   6.977 -0.2054 -0.1004 -0.2694
 4388TIP3    H134799   1.512   3.551   6.963 -0.4821  2.4666 -0.5940
 4388TIP3    H234800   1.379   3.560   6.892 -1.0731 -1.0415 -0.1085
 4389TIP3   OH234801   6.041   5.750   0.690  0.8153 -0.0271 -0.3408
 4389TIP3    H134802   6.135   5.738   0.702  0.6400  0.4430  1.8856
 4389TIP3    H234803   6.011   5.790   0.772 -1.2252  0.4388 -1.2497
 4390TIP3   OH234804   3.402   4.571   1.740 -0.2972 -0.1462 -0.0309
 4390TIP3    H134805   3.424   4.487   1.699  0.4775  0.2741 -0.4972
 4390TIP3    H234806   3.306   4.568   1.749 -0.1422 -1.9101  1.8016
 4391TIP3   OH234807   4.622   4.867   1.613 -0.2724  0.4914 -0.7338
 4391TIP3    H134808   4.577   4.784   1.633  0.6889  0.2586  0.5784
 4391TIP3    H234809   4.685   4.844   1.545  0.2848  0.0396 -0.0747
 4392TIP3   OH234810   4.777   6.739   1.769 -0.0152  0.1080 -0.1095
 4392TIP3    H134811   4.689   6.703   1.780  0.0367 -0.4902 -1.4561
 4392TIP3    H234812   4.775   6.783   1.684  0.5766  1.3894  0.5055
 4393TIP3   OH234813   4.834   5.242   2.144  0.0772 -0.2678 -0.0520
 4393TIP3    H134814   4.886   5.204   2.214 -1.5687 -1.5910  0.5257
 4393TIP3    H234815   4.898   5.272   2.080  1.5906  0.2075  1.6097
 4394TIP3   OH234816   2.557   2.954   7.443  0.1696 -0.1897 -0.1119
 4394TIP3    H134817   2.504   2.907   7.507 -0.0661  1.5039  1.0172
 4394TIP3    H234818   2.635   2.901   7.432 -1.0721 -1.9888 -0.6763
 4395TIP3   OH234819   5.990   2.619   7.290 -0.8146 -0.9973  0.3830
 4395TIP3    H134820   6.028   2.542   7.331 -0.0817 -0.3191  1.0146
 4395TIP3    H234821   5.906   2.631   7.334 -0.7375 -1.1923  0.5817
 4396TIP3   OH234822   4.201   5.268   8.364 -0.2656 -0.4059 -0.8064
 4396TIP3    H134823   4.163   5.331   8.425  0.4084 -0.4346 -0.3507
 4396TIP3    H234824   4.282   5.239   8.406 -0.9895 -2.2656 -0.5767
 4397TIP3   OH234825   2.163   2.190   1.927  0.7221  0.0797 -0.3327
 4397TIP3    H134826   2.130   2.238   1.851 -2.7022  0.5777  1.2891
 4397TIP3    H234827   2.165   2.255   1.997  1.3638 -0.9277  0.6187
 4398TIP3   OH234828   4.246   4.136   7.771  0.1963  0.2518  0.3648
 4398TIP3    H134829   4.338   4.112   7.786  0.2213 -0.4255 -0.7905
 4398TIP3    H234830   4.196   4.062   7.805  0.1871 -0.4680 -1.1510
 4399TIP3   OH234831   0.947   2.270   7.470 -0.1790  0.0128 -0.0729
 4399TIP3    H134832   0.893   2.194   7.490 -1.0995  0.3195 -1.2514
 4399TIP3    H234833   0.885   2.344   7.469 -0.1298  0.1498 -3.0194
 4400TIP3   OH234834   4.945   5.515   2.347 -0.0616  0.0199 -0.4077
 4400TIP3    H134835   4.887   5.548   2.415 -1.6458  0.3996 -1.8662
 4400TIP3    H234836   4.952   5.421   2.364 -0.2554  0.1475  0.3949
 4401TIP3   OH234837   4.336   1.049   8.728  0.0007 -1.2382 -0.3316
 4401TIP3    H134838   4.380   0.977   8.774 -0.8881 -0.3635  2.0200
 4401TIP3    H234839   4.250   1.014   8.704  1.0051 -2.2112 -2.9266
 4402TIP3   OH234840   4.756   3.950   1.513  0.4458  0.0543 -0.4754
 4402TIP3    H134841   4.830   3.892   1.497  0.2088 -0.5436  0.4611
 4402TIP3    H234842   4.790   4.038   1.500  1.4582 -0.1827  0.4076
 4403TIP3   OH234843   2.732   4.174   1.526  0.0895  0.2696  0.0169
 4403TIP3    H134844   2.784   4.230   1.468  0.8340  0.8560  1.2138
 4403TIP3    H234845   2.671   4.234   1.570 -1.1349 -0.3054 -0.8227
 4404TIP3   OH234846   0.359   6.754   2.594 -0.3605  0.4445 -0.4555
 4404TIP3    H134847   0.443   6.780   2.631 -0.2587 -1.7367  1.0176
 4404TIP3    H234848   0.349   6.809   2.516  0.2597  3.9772  1.7390
 4405TIP3   OH234849   2.191   3.086   7.829 -0.8718 -0.3932  0.4710
 4405TIP3    H134850   2.116   3.129   7.787 -0.8706  1.3097  2.0559
 4405TIP3    H234851   2.158   3.001   7.858 -1.3407 -0.8775 -1.3649
 4406TIP3   OH234852   2.157   0.198   8.759 -0.3370 -0.1646  0.0654
 4406TIP3    H134853   2.242   0.233   8.732  0.2639 -1.8336 -0.3740
 4406TIP3    H234854   2.152   0.218   8.852  0.0812  0.8142 -0.1045
 4407TIP3   OH234855   4.595   2.024   7.224 -0.4313 -0.0293  0.5259
 4407TIP3    H134856   4.569   2.080   7.297 -0.6462 -1.0209  1.2299
 4407TIP3    H234857   4.620   1.941   7.265  2.1071  0.2534 -0.2754
 4408TIP3   OH234858   5.396   2.142   0.641 -0.5502 -0.2909  0.1397
 4408TIP3    H134859   5.347   2.123   0.721  1.3150 -0.9495  1.1783
 4408TIP3    H234860   5.370   2.231   0.618 -0.7092  0.1256  1.8152
 4409TIP3   OH234861   1.237   1.457   2.141 -0.5240 -0.0211 -0.3147
 4409TIP3    H134862   1.204   1.536   2.185 -0.6480 -0.1429 -0.1881
 4409TIP3    H234863   1.180   1.387   2.172 -0.4618 -0.1488 -0.4870
 4410TIP3   OH234864   5.076   0.024   1.060  0.1082  0.2152  0.6845
 4410TIP3    H134865   5.163   0.016   1.099  1.9819 -0.8964 -3.2130
 4410TIP3    H234866   5.031  -0.057   1.086  1.0120 -0.1990  0.9849
 4411TIP3   OH234867   2.654   1.200   1.143  0.5217  0.1351  0.0127
 4411TIP3    H134868   2.670   1.129   1.205  0.8151  0.0997 -0.1047
 4411TIP3    H234869   2.722   1.265   1.161  1.1140 -0.2375 -0.8138
 4412TIP3   OH234870   5.139   4.110   0.012  0.3415 -0.3015 -0.4484
 4412TIP3    H134871   5.107   4.046  -0.052 -0.8796 -0.0003 -0.1636
 4412TIP3    H234872   5.176   4.056   0.082 -0.1993 -0.6971 -0.4535
 4413TIP3   OH234873   3.733   6.662   0.757 -0.2113 -0.7378 -0.6825
 4413TIP3    H134874   3.765   6.598   0.821  1.5312  2.1900  1.6613
 4413TIP3    H234875   3.811   6.685   0.706  0.3205  2.1762  1.1505
 4414TIP3   OH234876   2.389   2.233   6.774 -0.2666  0.1004  0.3520
 4414TIP3    H134877   2.333   2.293   6.725 -0.8861  0.3816  1.3587
 4414TIP3    H234878   2.448   2.195   6.709 -1.4710 -0.0194 -0.7072
 4415TIP3   OH234879   0.905   2.862   8.381  0.6177 -0.4256 -0.0981
 4415TIP3    H134880   0.834   2.874   8.445  0.4127  2.8003 -0.7643
 4415TIP3    H234881   0.984   2.888   8.429  0.6792  0.4716 -0.6717
 4416TIP3   OH234882   2.121   5.347   0.155  0.2211  0.7837 -0.5940
 4416TIP3    H134883   2.121   5.252   0.158 -1.4903  0.7540 -0.5422
 4416TIP3    H234884   2.148   5.374   0.243  3.0363  0.4228 -1.2492
 4417TIP3   OH234885   1.270   6.051   1.353  0.1096 -1.0257 -0.1764
 4417TIP3    H134886   1.346   6.035   1.410  2.1357  2.5575 -1.5606
 4417TIP3    H234887   1.309   6.069   1.267 -2.2206  1.4693 -0.8260
 4418TIP3   OH234888   3.301   0.108   0.176 -0.1090 -0.1019 -0.0267
 4418TIP3    H134889   3.305   0.186   0.121  1.3049  0.4674  0.8201
 4418TIP3    H234890   3.317   0.141   0.265 -0.4296 -1.2444  0.4760
 4419TIP3   OH234891   4.567   6.380   1.452  0.4981 -0.0245 -0.2236
 4419TIP3    H134892   4.507   6.397   1.524  2.4422  2.1675  0.9812
 4419TIP3    H234893   4.532   6.300   1.411 -1.5721 -0.4466  2.1127
 4420TIP3   OH234894   3.213   3.948   2.215  0.1130 -0.0426  0.4466
 4420TIP3    H134895   3.294   3.943   2.264 -0.0769  0.7333  0.8508
 4420TIP3    H234896   3.199   4.042   2.201  0.3358 -0.2456 -1.3770
 4421TIP3   OH234897   3.983   4.196   0.977 -0.3336  0.4716  0.1576
 4421TIP3    H134898   3.923   4.188   1.051 -0.4203  0.1999  0.0616
 4421TIP3    H234899   4.005   4.289   0.973 -0.5510  0.5324  0.3494
 4422TIP3   OH234900   6.429   6.469   7.486 -0.4096  0.3156  0.0928
 4422TIP3    H134901   6.426   6.379   7.453  0.5733  0.3567 -0.1568
 4422TIP3    H234902   6.438   6.523   7.408  0.6556  0.5022  0.3201
 4423TIP3   OH234903   6.472   6.545   0.821  0.1710 -0.5518  0.0578
 4423TIP3    H134904   6.487   6.610   0.889  0.3340 -0.3838 -0.1361
 4423TIP3    H234905   6.481   6.461   0.865  3.4897 -0.5449 -0.3366
 4424TIP3   OH234906   0.736   4.187   8.794 -0.6327 -0.5232  0.3704
 4424TIP3    H134907   0.824   4.215   8.769  0.8189 -4.1908  0.7592
 4424TIP3    H234908   0.693   4.166   8.711 -0.9551  0.6269  0.2260
 4425TIP3   OH234909   2.424   6.665   7.431 -0.3216 -0.2543 -0.3775
 4425TIP3    H134910   2.403   6.682   7.523 -0.3977 -2.0865 -0.0255
 4425TIP3    H234911   2.341   6.676   7.385 -1.0107 -2.3343  0.2577
 4426TIP3   OH234912   6.780   4.669   1.610 -0.1291 -0.0685 -0.0111
 4426TIP3    H134913   6.725   4.634   1.540  1.0548  0.5263 -1.2888
 4426TIP3    H234914   6.759   4.762   1.612 -1.1120 -0.2950  1.3552
 4427TIP3   OH234915   0.735   6.112   1.466 -0.0571  0.3073  0.3416
 4427TIP3    H134916   0.654   6.099   1.515 -0.3887  0.0930 -0.2671
 4427TIP3    H234917   0.801   6.125   1.534 -0.6634  0.8705  0.8321
 4428TIP3   OH234918   3.909   3.986   7.444 -0.7370  0.2102 -0.0087
 4428TIP3    H134919   4.002   4.009   7.439 -0.7490  0.4151  0.6595
 4428TIP3    H234920   3.906   3.894   7.418 -0.2470 -0.0183  0.7056
 4429TIP3   OH234921   0.482   4.098   1.176  0.2185  0.4826 -0.3032
 4429TIP3    H134922   0.449   4.010   1.196  1.3326  0.0672 -0.2381
 4429TIP3    H234923   0.418   4.134   1.115 -1.2163  0.3180  1.0300
 4430TIP3   OH234924   4.506   0.038   8.742 -0.6876  0.2860 -0.0847
 4430TIP3    H134925   4.457  -0.037   8.775 -0.1919  0.8778  2.1551
 4430TIP3    H234926   4.503   0.029   8.647  2.4738 -4.6344 -0.0627
 4431TIP3   OH234927   2.783   0.473   2.232  0.3156 -0.3159  0.2771
 4431TIP3    H134928   2.706   0.509   2.187  0.9214 -0.2170 -0.7105
 4431TIP3    H234929   2.798   0.534   2.304  0.4965  0.6824 -0.5618
 4432TIP3   OH234930   1.394   3.137   0.400 -0.1050 -0.5479  0.2676
 4432TIP3    H134931   1.412   3.135   0.494 -0.0922  0.6887  0.3164
 4432TIP3    H234932   1.312   3.089   0.390 -1.0931  0.8564  1.1903
 4433TIP3   OH234933   4.626   6.184   6.827  0.3561  0.0573 -0.4846
 4433TIP3    H134934   4.575   6.154   6.752 -1.0606  2.3478 -0.5551
 4433TIP3    H234935   4.561   6.214   6.890  1.4529 -2.6805  2.2055
 4434TIP3   OH234936   4.168   5.102   0.216  0.4066  0.5839  0.4044
 4434TIP3    H134937   4.262   5.120   0.211  0.3894  0.3230 -2.0521
 4434TIP3    H234938   4.159   5.012   0.184 -0.7356  0.9692 -0.4232
 4435TIP3   OH234939   0.464   5.004   8.018 -0.1688 -0.1609 -0.1453
 4435TIP3    H134940   0.540   5.005   8.076 -0.3061 -1.8314  0.1159
 4435TIP3    H234941   0.501   5.003   7.930  0.1928 -2.2647 -0.0114
 4436TIP3   OH234942   0.854   0.121   0.836  0.4782  0.2824  0.1169
 4436TIP3    H134943   0.862   0.208   0.875 -0.7429  0.6373 -0.3555
 4436TIP3    H234944   0.850   0.138   0.741 -1.8264 -0.0623  0.0940
 4437TIP3   OH234945   4.195   2.744   2.114 -0.2600  0.1940  0.2712
 4437TIP3    H134946   4.265   2.755   2.050 -1.5703 -1.3646 -1.5174
 4437TIP3    H234947   4.207   2.817   2.174  3.3777 -0.4071  0.5513
 4438TIP3   OH234948   5.097   4.390   1.803 -0.0388 -0.9837  0.3893
 4438TIP3    H134949   5.097   4.442   1.884  0.2122  0.4447 -0.4840
 4438TIP3    H234950   5.119   4.454   1.735  1.0336 -2.4166 -0.6513
 4439TIP3   OH234951   6.507   2.415   0.644  0.5036 -0.0035  0.1991
 4439TIP3    H134952   6.469   2.353   0.706  1.1908  1.2516  1.9631
 4439TIP3    H234953   6.594   2.379   0.624  1.4745  0.9792  2.3044
 4440TIP3   OH234954   1.923   5.389   1.423  0.1094  0.1469  0.1849
 4440TIP3    H134955   2.004   5.354   1.460  1.2320  0.8005 -1.5704
 4440TIP3    H234956   1.950   5.436   1.345 -1.9593  0.5201 -0.3629
 4441TIP3   OH234957   4.276   0.956   0.751 -0.2720  0.0569 -0.0826
 4441TIP3    H134958   4.360   0.986   0.718  0.6551 -0.5677  1.5871
 4441TIP3    H234959   4.222   1.034   0.755  0.5569  0.6466 -0.2302
 4442TIP3   OH234960   2.769   5.151   7.317 -0.1184 -0.1777  0.0525
 4442TIP3    H134961   2.841   5.091   7.338  1.0847  0.6681 -1.4755
 4442TIP3    H234962   2.805   5.238   7.331 -1.1049  0.2551 -0.0096
 4443TIP3   OH234963   6.002   4.552   0.938  0.2174  0.6013  0.3091
 4443TIP3    H134964   6.062   4.533   0.866  0.7300  0.1787  0.8384
 4443TIP3    H234965   5.938   4.612   0.900  0.8906  0.9533 -0.3078
 4444TIP3   OH234966   2.528   1.593   7.088  0.0917 -0.1503  0.7985
 4444TIP3    H134967   2.452   1.578   7.144 -0.7161  0.1688 -0.1669
 4444TIP3    H234968   2.511   1.539   7.011  0.4608  0.5224  0.2396
 4445TIP3   OH234969   5.462   6.049   8.528 -0.2870  0.1483  0.1412
 4445TIP3    H134970   5.442   6.067   8.620 -0.0913  1.2407 -0.0089
 4445TIP3    H234971   5.384   6.078   8.480 -0.4565 -0.5762 -0.0294
 4446TIP3   OH234972   4.898   2.533   0.764  0.7769 -0.1293 -0.4057
 4446TIP3    H134973   4.909   2.575   0.850 -0.0457 -1.1497  0.2189
 4446TIP3    H234974   4.807   2.553   0.740  1.0117  0.1664 -1.0603
 4447TIP3   OH234975   5.167   6.316   2.287  1.0234  0.1672 -0.1956
 4447TIP3    H134976   5.194   6.393   2.337 -2.4534  2.0325 -0.8540
 4447TIP3    H234977   5.074   6.306   2.307  0.6400 -1.9578 -2.5657
 4448TIP3   OH234978   1.367   0.888   0.102  0.4702  1.0774  0.0323
 4448TIP3    H134979   1.408   0.897   0.188  0.5595  1.5078 -0.0540
 4448TIP3    H234980   1.277   0.864   0.121  1.0892 -1.3624  0.2158
 4449TIP3   OH234981   6.087   0.100   1.540 -0.3091 -0.2077  0.7534
 4449TIP3    H134982   6.050   0.186   1.561 -0.0103 -0.0219  0.5402
 4449TIP3    H234983   6.172   0.099   1.584 -0.3394 -0.4202  0.8089
 4450TIP3   OH234984   5.614   5.942   1.187 -0.4033  0.2409 -0.6666
 4450TIP3    H134985   5.640   6.034   1.188 -1.0309  0.4202  0.3283
 4450TIP3    H234986   5.695   5.894   1.198 -0.3026  0.7542  1.1758
 4451TIP3   OH234987   4.755   6.046   6.474  0.0491  0.1474  0.0158
 4451TIP3    H134988   4.719   6.128   6.440 -1.1399 -0.2104  0.3466
 4451TIP3    H234989   4.831   6.028   6.420 -1.1124  0.1804 -1.7227
 4452TIP3   OH234990   3.225   6.605   0.688 -0.7910  0.3597  0.5209
 4452TIP3    H134991   3.259   6.533   0.742  0.1617  0.9641  0.7566
 4452TIP3    H234992   3.254   6.685   0.733 -3.5749  0.9882  1.4332
 4453TIP3   OH234993   0.436   2.211   7.782 -0.6348 -0.2564  0.0998
 4453TIP3    H134994   0.447   2.263   7.703 -0.9804  0.0749  0.2691
 4453TIP3    H234995   0.495   2.251   7.846  0.3145 -1.0575 -0.2355
 4454TIP3   OH234996   5.056   5.598   7.417  0.5075 -0.0216 -0.8652
 4454TIP3    H134997   5.026   5.559   7.335  0.8987  2.6589 -2.4025
 4454TIP3    H234998   5.144   5.562   7.430  0.3638 -0.6216 -1.4897
 4455TIP3   OH234999   3.541   4.387   1.104 -0.3547  0.0318  0.4057
 4455TIP3    H135000   3.556   4.424   1.016 -0.2319 -0.2580  0.3016
 4455TIP3    H235001   3.448   4.400   1.120 -0.1272  1.3313  0.8127
 4456TIP3   OH235002   3.530   1.651   8.619  0.0280  0.1791  0.2745
 4456TIP3    H135003   3.571   1.680   8.537  0.8916 -3.0465 -0.6016
 4456TIP3    H235004   3.469   1.583   8.592 -1.4957  0.7232  2.1564
 4457TIP3   OH235005   0.737   3.512   7.833  0.1078 -0.3811 -0.1097
 4457TIP3    H135006   0.715   3.479   7.746  1.3504 -0.0985 -0.5516
 4457TIP3    H235007   0.776   3.437   7.879  0.5334 -0.2245 -0.2106
 4458TIP3   OH235008   1.400   1.097   8.511  0.6111 -0.3032 -0.2909
 4458TIP3    H135009   1.316   1.062   8.483  1.8758 -2.8944 -1.1907
 4458TIP3    H235010   1.422   1.163   8.446 -1.3798  1.6307  0.8634
 4459TIP3   OH235011   3.917   5.421   2.692 -0.5876 -0.0921  0.6545
 4459TIP3    H135012   3.889   5.503   2.651 -1.9854 -0.4334  0.9018
 4459TIP3    H235013   3.906   5.355   2.623  0.5354 -0.1050  0.4551
 4460TIP3   OH235014   3.924   1.688   0.054  0.2529  0.3157  0.4997
 4460TIP3    H135015   3.943   1.608   0.103  2.6744  0.5799  0.1590
 4460TIP3    H235016   3.925   1.758   0.120 -2.4106  0.0836  0.8835
 4461TIP3   OH235017   1.756   3.561   8.722  1.1348 -0.1166 -0.1218
 4461TIP3    H135018   1.834   3.616   8.732  1.4569 -0.1094 -2.3082
 4461TIP3    H235019   1.685   3.623   8.711  1.1753 -0.1363 -0.4852
 4462TIP3   OH235020   1.362   2.217   0.778 -0.4371 -0.1910  0.1221
 4462TIP3    H135021   1.332   2.142   0.830 -2.9694 -0.7136 -1.8575
 4462TIP3    H235022   1.348   2.189   0.687  1.6975  1.5049 -0.8184
 4463TIP3   OH235023   6.786   5.521   1.699  0.0683  0.5218 -0.0787
 4463TIP3    H135024   6.859   5.550   1.754 -0.7916  1.9412  0.3577
 4463TIP3    H235025   6.771   5.430   1.725  1.7104  0.1749 -0.2361
 4464TIP3   OH235026   1.853   6.529   7.249  0.6767  0.0397 -0.6909
 4464TIP3    H135027   1.826   6.593   7.183 -0.8876 -1.6255 -1.7566
 4464TIP3    H235028   1.776   6.517   7.305  1.5029  0.3201  0.5569
 4465TIP3   OH235029   5.627   5.985   0.500 -0.2461 -0.7580  0.7188
 4465TIP3    H135030   5.605   6.077   0.485 -1.2831 -1.2644 -1.0969
 4465TIP3    H235031   5.597   5.939   0.422 -2.2156 -3.0409  2.6340
 4466TIP3   OH235032   1.453   4.197   1.018  0.2017  0.1906  0.5589
 4466TIP3    H135033   1.482   4.139   0.947 -0.8519 -0.0375  0.3069
 4466TIP3    H235034   1.477   4.285   0.988  0.1440  0.0581  0.1130
 4467TIP3   OH235035   0.007   3.114   7.628  0.3700  0.1717 -0.1898
 4467TIP3    H135036  -0.036   3.038   7.666 -0.5492  0.2595 -1.0069
 4467TIP3    H235037   0.064   3.079   7.560  1.5119  0.0665  0.8000
 4468TIP3   OH235038   5.478   6.678   7.082  0.3383  0.0414  0.0000
 4468TIP3    H135039   5.483   6.634   6.998 -2.6406 -0.9324  0.2234
 4468TIP3    H235040   5.446   6.766   7.061  0.2343  0.0157  0.0457
 4469TIP3   OH235041   5.850   6.557   8.753 -0.5863 -0.2793 -0.4285
 4469TIP3    H135042   5.798   6.633   8.779 -1.4988 -0.5714 -1.3497
 4469TIP3    H235043   5.786   6.494   8.720  0.1718 -1.3748  0.1169
 4470TIP3   OH235044   4.990   2.119   1.165 -0.0084 -0.5965  0.1808
 4470TIP3    H135045   4.899   2.100   1.185 -0.1731  0.5326  0.5314
 4470TIP3    H235046   5.018   2.179   1.233  0.7454 -0.2507 -0.4143
 4471TIP3   OH235047   4.645   2.202   8.497  0.0673 -0.6988  0.3569
 4471TIP3    H135048   4.648   2.169   8.586 -1.7689 -0.2674  0.6243
 4471TIP3    H235049   4.559   2.175   8.464  1.3539 -2.3336 -1.9151
 4472TIP3   OH235050   0.682   1.167   7.412 -0.1613 -0.6754  0.4973
 4472TIP3    H135051   0.700   1.196   7.322  0.5358 -3.2940 -0.3052
 4472TIP3    H235052   0.695   1.245   7.465  2.0095  0.3943 -1.3931
 4473TIP3   OH235053   2.290   4.380   2.359  0.0340  0.6573  0.1762
 4473TIP3    H135054   2.214   4.336   2.396  1.0022 -2.4281 -1.1475
 4473TIP3    H235055   2.365   4.333   2.395  1.2574  2.3379 -0.0722
 4474TIP3   OH235056   1.707   5.321   7.907  0.0811 -0.3111  0.4362
 4474TIP3    H135057   1.670   5.406   7.883  0.1216 -0.1469  0.9483
 4474TIP3    H235058   1.633   5.272   7.943  0.3434  0.0099  1.4431
 4475TIP3   OH235059   2.130   6.237   8.153  0.0490  0.0715  0.1175
 4475TIP3    H135060   2.101   6.146   8.161 -0.2289  0.2714  1.7843
 4475TIP3    H235061   2.211   6.232   8.103 -1.0815 -0.8357 -1.7704
 4476TIP3   OH235062   4.408   1.629   0.866 -0.0344  0.4906 -0.0234
 4476TIP3    H135063   4.475   1.610   0.932  0.1717  0.1387 -0.3317
 4476TIP3    H235064   4.434   1.714   0.830  0.8065 -0.0879 -0.8254
 4477TIP3   OH235065   3.342   2.529   7.810  0.0043 -0.8001 -0.2897
 4477TIP3    H135066   3.332   2.572   7.725 -0.4927 -0.7972 -0.2339
 4477TIP3    H235067   3.272   2.567   7.863  2.0290  1.3686  1.0242
 4478TIP3   OH235068   6.609   1.669   8.521  0.4740 -0.4152  0.6610
 4478TIP3    H135069   6.646   1.711   8.598 -1.0258  0.4481  0.9455
 4478TIP3    H235070   6.535   1.618   8.554 -0.3028  0.1178 -0.2055
 4479TIP3   OH235071   0.583   3.174   7.822  0.8552 -0.1427  0.2933
 4479TIP3    H135072   0.653   3.206   7.879  0.5088  1.5911 -0.1985
 4479TIP3    H235073   0.530   3.252   7.803 -1.6348 -1.4967  1.2165
 4480TIP3   OH235074   3.050   1.173   1.735  0.3418  0.2794  0.0987
 4480TIP3    H135075   2.960   1.141   1.731  0.2752  0.2859  1.2338
 4480TIP3    H235076   3.044   1.252   1.788  1.1083 -0.0502  0.6854
 4481TIP3   OH235077   1.413   0.732   8.554  0.3731  0.3582 -0.3045
 4481TIP3    H135078   1.450   0.820   8.545 -1.9054  1.2961 -1.3000
 4481TIP3    H235079   1.321   0.742   8.529 -0.6757 -1.7769  2.2168
 4482TIP3   OH235080   6.365   5.217   1.080  0.4508  0.8765  0.4224
 4482TIP3    H135081   6.288   5.246   1.031  0.2509 -0.8769 -0.3927
 4482TIP3    H235082   6.396   5.295   1.125  0.1618  2.4209 -1.8816
 4483TIP3   OH235083   4.971   1.938   8.824 -0.0419  0.0210  0.5682
 4483TIP3    H135084   4.910   2.010   8.808 -0.0778  0.4491  2.3616
 4483TIP3    H235085   5.011   1.960   8.909  1.9787 -0.6740 -0.1390
 4484TIP3   OH235086   5.467   6.429   7.217 -0.0744  0.6574 -0.0442
 4484TIP3    H135087   5.383   6.442   7.172  0.2876  0.1706 -0.8767
 4484TIP3    H235088   5.509   6.515   7.214 -0.9613  1.1817  1.2969
 4485TIP3   OH235089   3.825   5.159   0.619  0.0189  0.1376 -0.1635
 4485TIP3    H135090   3.773   5.080   0.602 -0.4689  0.1682  1.0514
 4485TIP3    H235091   3.780   5.228   0.571 -1.7070  0.3623  1.6287
 4486TIP3   OH235092   6.536   6.335   0.965  0.3124  0.2633 -0.5828
 4486TIP3    H135093   6.493   6.252   0.982 -3.0775  1.9136 -0.1500
 4486TIP3    H235094   6.611   6.337   1.025  0.1796 -2.2196 -0.2684
 4487TIP3   OH235095   5.259   1.702   8.342 -0.4503 -0.8630 -0.0945
 4487TIP3    H135096   5.251   1.708   8.437  0.6525 -0.9124  0.0172
 4487TIP3    H235097   5.256   1.793   8.311 -1.8000 -0.9003 -0.1196
 4488TIP3   OH235098   0.864   2.276   2.703 -0.2125  0.5460 -0.0090
 4488TIP3    H135099   0.950   2.317   2.703  0.2895 -0.4879  0.3246
 4488TIP3    H235100   0.804   2.348   2.723  0.7184  0.9846  1.3439
 4489TIP3   OH235101   6.817   2.858   0.655 -0.2537  0.2854 -0.2416
 4489TIP3    H135102   6.837   2.849   0.562 -0.0833  2.4689 -0.4732
 4489TIP3    H235103   6.746   2.795   0.671  0.8239 -1.3177 -1.4268
 4490TIP3   OH235104   2.720   3.344   7.818 -0.2805  0.5827  0.0186
 4490TIP3    H135105   2.776   3.345   7.740  0.1445  1.8786  0.3128
 4490TIP3    H235106   2.670   3.263   7.811  0.9358 -0.1274 -0.7596
 4491TIP3   OH235107   0.958   4.285   8.056 -0.1756 -0.2518  0.2833
 4491TIP3    H135108   0.915   4.232   8.122 -0.1501 -1.2433 -0.4737
 4491TIP3    H235109   0.918   4.259   7.973  0.0129  0.7295 -0.1453
 4492TIP3   OH235110   6.360   2.792   1.516 -0.0656  0.5711  0.0580
 4492TIP3    H135111   6.270   2.768   1.494 -0.1751  2.1358 -1.3973
 4492TIP3    H235112   6.407   2.709   1.521 -1.4735 -0.2388  0.3559
 4493TIP3   OH235113   0.015   1.179   8.210  0.7027  0.0204 -0.1630
 4493TIP3    H135114   0.022   1.102   8.266  2.0974 -0.1282 -0.5088
 4493TIP3    H235115  -0.069   1.168   8.165 -0.6804  0.3411  2.1414
 4494TIP3   OH235116   3.469   1.495   0.358 -0.3724 -0.6218 -0.3084
 4494TIP3    H135117   3.456   1.512   0.265 -0.5942 -1.4846 -0.4435
 4494TIP3    H235118   3.455   1.580   0.400  1.9962  0.3010 -1.2516
 4495TIP3   OH235119   0.424   6.022   7.515 -0.3565 -0.0794  0.3269
 4495TIP3    H135120   0.454   6.024   7.606 -2.0512  2.7208  0.9568
 4495TIP3    H235121   0.492   6.069   7.466 -0.7034  0.7633  0.6432
 4496TIP3   OH235122   5.411   5.204   2.075 -0.1825  0.7034 -0.7627
 4496TIP3    H135123   5.381   5.289   2.043  1.1483  1.3470 -0.3579
 4496TIP3    H235124   5.335   5.147   2.064 -0.5251  1.4677 -2.8270
 4497TIP3   OH235125   2.016   0.706   7.597  0.2256  0.7686 -0.2983
 4497TIP3    H135126   2.016   0.660   7.681  0.5614  1.5054  0.1091
 4497TIP3    H235127   1.927   0.695   7.564  0.1312  0.3533  0.0816
 4498TIP3   OH235128   6.036   5.669   2.671  0.1523 -0.0438  0.4438
 4498TIP3    H135129   6.033   5.673   2.575  0.1312  0.1353  0.4511
 4498TIP3    H235130   5.955   5.712   2.699 -0.1080 -0.5879  0.5330
 4499TIP3   OH235131   3.164   3.080   0.632 -0.5651  0.0367  0.3282
 4499TIP3    H135132   3.235   3.084   0.697  0.0274  0.1552 -0.3086
 4499TIP3    H235133   3.154   2.987   0.613 -1.4356 -0.0815  1.3284
 4500TIP3   OH235134   3.975   6.309   8.271 -0.6522  0.0268  0.3597
 4500TIP3    H135135   3.933   6.359   8.202  0.8185  1.9330  0.7680
 4500TIP3    H235136   3.906   6.293   8.335 -1.5998 -0.2107 -0.6986
 4501TIP3   OH235137   4.238   5.067   8.150  0.3070 -0.4207  0.0299
 4501TIP3    H135138   4.192   5.061   8.234  1.1602 -2.5096  0.4302
 4501TIP3    H235139   4.272   4.979   8.136 -0.6363 -0.3922 -3.0343
 4502TIP3   OH235140   6.190   0.102   8.462 -0.2331 -0.2327 -0.3341
 4502TIP3    H135141   6.133   0.025   8.470 -0.5837  0.1508  1.2057
 4502TIP3    H235142   6.134   0.170   8.425 -0.5021 -0.1399  0.2384
 4503TIP3   OH235143   1.738   3.112   6.382 -0.1510  0.0023  0.2485
 4503TIP3    H135144   1.741   3.207   6.392 -1.2727 -0.0085  0.8817
 4503TIP3    H235145   1.677   3.083   6.450  0.4187 -1.2067  0.2748
 4504TIP3   OH235146   4.718   2.461   6.750 -0.3477  0.0323  0.3776
 4504TIP3    H135147   4.796   2.448   6.697 -0.3113  0.3049  0.3620
 4504TIP3    H235148   4.652   2.404   6.711  0.0986 -0.8865  0.9396
 4505TIP3   OH235149   4.391   4.205   7.504 -0.0062 -0.4412 -0.0764
 4505TIP3    H135150   4.441   4.167   7.576  0.1347  1.7688  1.0702
 4505TIP3    H235151   4.456   4.227   7.438  0.6355  2.1429  1.2825
 4506TIP3   OH235152   2.514   2.085   1.301  0.2001  0.0201  0.0652
 4506TIP3    H135153   2.439   2.105   1.357 -0.7165 -1.2553 -0.6606
 4506TIP3    H235154   2.571   2.030   1.354 -1.0857 -1.9298 -0.4536
 4507TIP3   OH235155   2.158   2.742   2.392 -0.2086  0.2299 -0.1892
 4507TIP3    H135156   2.248   2.728   2.361 -0.6807 -0.1297 -1.4579
 4507TIP3    H235157   2.136   2.830   2.360  0.7747  1.7570  2.9157
 4508TIP3   OH235158   1.919   0.455   8.238  0.1832  0.3295 -0.3880
 4508TIP3    H135159   1.995   0.425   8.287  0.1844  0.4101 -0.3399
 4508TIP3    H235160   1.914   0.396   8.162 -1.8742 -2.1038  1.4478
 4509TIP3   OH235161   4.926   3.530   8.112 -0.1606 -0.0798  0.6372
 4509TIP3    H135162   5.001   3.470   8.108 -1.9257 -2.4530  0.3787
 4509TIP3    H235163   4.900   3.529   8.204 -0.8439 -0.6428  0.4529
 4510TIP3   OH235164   2.125   4.498   1.053 -0.0008 -0.1642 -0.5682
 4510TIP3    H135165   2.031   4.517   1.045 -0.3727 -2.0385 -1.2581
 4510TIP3    H235166   2.150   4.466   0.966  1.0694 -0.5503 -0.1295
 4511TIP3   OH235167   4.697   0.403   1.237 -0.5522 -0.5792 -0.2480
 4511TIP3    H135168   4.747   0.470   1.190 -2.4286  1.0441 -0.0435
 4511TIP3    H235169   4.607   0.435   1.237 -1.3616 -2.6411  0.7415
 4512TIP3   OH235170   0.379   6.344   7.563 -0.1275  0.2235  0.2879
 4512TIP3    H135171   0.421   6.279   7.508 -0.0676 -0.3824  1.0292
 4512TIP3    H235172   0.436   6.352   7.639  0.0709  1.4423  0.0297
 4513TIP3   OH235173   2.485   0.333   2.264 -0.0305  0.0763 -0.5026
 4513TIP3    H135174   2.559   0.297   2.313 -0.5306 -0.8084 -0.3820
 4513TIP3    H235175   2.441   0.257   2.226  0.6199  0.7357 -2.7844
 4514TIP3   OH235176   2.722   4.804   0.757 -0.2211 -0.0494 -0.3203
 4514TIP3    H135177   2.754   4.893   0.742  1.3536 -0.8859 -2.5136
 4514TIP3    H235178   2.628   4.815   0.775 -0.2348  1.9874 -1.3382
 4515TIP3   OH235179   6.024   3.693   7.647 -0.0513  0.2224 -0.3171
 4515TIP3    H135180   6.016   3.780   7.608 -1.1802 -0.1150 -0.8572
 4515TIP3    H235181   6.044   3.710   7.739 -1.0662  1.0762 -0.2416
 4516TIP3   OH235182   5.665   1.168   7.612  0.0827  0.4847  0.0977
 4516TIP3    H135183   5.576   1.140   7.630 -0.6411  1.4088 -1.7688
 4516TIP3    H235184   5.688   1.226   7.685 -0.5023 -0.4174  1.0203
 4517TIP3   OH235185   6.829   2.791   0.123 -0.6705  0.1491 -0.0266
 4517TIP3    H135186   6.882   2.720   0.087  0.5525  0.6090  0.8228
 4517TIP3    H235187   6.741   2.753   0.131  0.1767 -1.6441  1.4364
 4518TIP3   OH235188   0.961   5.948   8.647 -0.2436 -0.4167  0.1362
 4518TIP3    H135189   0.919   6.029   8.675 -1.4154 -1.9387  3.2084
 4518TIP3    H235190   1.036   5.938   8.706  0.8095 -0.8514 -1.2206
 4519TIP3   OH235191   4.296   6.334   8.840 -0.1215 -0.0886  0.5473
 4519TIP3    H135192   4.308   6.420   8.879 -1.6136  0.1255  0.5659
 4519TIP3    H235193   4.257   6.351   8.754  0.4731 -0.7046  0.1392
 4520TIP3   OH235194   6.723   5.790   8.827  0.4350 -0.3043  0.2403
 4520TIP3    H135195   6.767   5.791   8.741  1.8788  1.9302  0.9291
 4520TIP3    H235196   6.745   5.703   8.863  2.0798 -0.2787 -0.5757
 4521TIP3   OH235197   4.171   3.868   7.037  0.2041  0.3430  0.1962
 4521TIP3    H135198   4.150   3.935   6.972 -0.5234  0.9229  0.9990
 4521TIP3    H235199   4.250   3.900   7.080  0.3819  0.2249 -0.0415
 4522TIP3   OH235200   1.048   6.394   7.435  0.7537  0.0738  0.0297
 4522TIP3    H135201   0.960   6.430   7.424  0.5396 -0.2245  0.7236
 4522TIP3    H235202   1.106   6.468   7.419  0.3743  0.3049 -0.2973
 4523TIP3   OH235203   1.919   4.714   8.652  0.1427 -0.0298  0.4728
 4523TIP3    H135204   2.000   4.698   8.604 -0.1979 -1.7085  0.3917
 4523TIP3    H235205   1.920   4.808   8.671  1.5218  0.1920 -0.5583
 4524TIP3   OH235206   4.672   4.716   7.445 -0.5091 -0.8652  0.2709
 4524TIP3    H135207   4.608   4.739   7.377 -0.1466  0.9194  0.4948
 4524TIP3    H235208   4.664   4.621   7.453 -1.2659 -1.0023 -1.5542
 4525TIP3   OH235209   5.389   6.255   7.807  0.1090  0.3349 -0.0328
 4525TIP3    H135210   5.483   6.248   7.791  0.3444  1.0334  0.9557
 4525TIP3    H235211   5.359   6.165   7.818  0.0476 -0.1835 -3.4449
 4526TIP3   OH235212   4.556   3.491   6.688  0.1054 -0.0929 -0.4039
 4526TIP3    H135213   4.567   3.492   6.784  0.0327  2.7177 -0.3525
 4526TIP3    H235214   4.645   3.482   6.654  0.4055  1.2183 -0.0277
 4527TIP3   OH235215   2.693   4.521   2.307 -0.4157 -0.2499  0.3599
 4527TIP3    H135216   2.694   4.432   2.342 -1.7888 -0.3695  0.1404
 4527TIP3    H235217   2.602   4.549   2.314 -0.3847  0.4097 -1.3914
 4528TIP3   OH235218   6.718   1.348   8.440 -0.5149 -0.2418 -0.7594
 4528TIP3    H135219   6.702   1.303   8.522  2.9149  1.2633  0.9541
 4528TIP3    H235220   6.763   1.284   8.385 -0.4081 -0.4884 -0.3866
 4529TIP3   OH235221   0.191   5.163   0.861  0.0947  0.1682  0.1114
 4529TIP3    H135222   0.280   5.131   0.845 -0.6884 -1.1157 -2.2114
 4529TIP3    H235223   0.168   5.127   0.947  0.0156 -4.2061 -1.4748
 4530TIP3   OH235224   2.682   4.790   1.410  0.3097 -0.4494  0.4994
 4530TIP3    H135225   2.629   4.779   1.489 -0.0054 -0.4178  0.2958
 4530TIP3    H235226   2.744   4.860   1.432  0.7965 -1.0403  1.0112
 4531TIP3   OH235227   2.771   0.603   8.431  0.0893 -0.0699  0.3858
 4531TIP3    H135228   2.838   0.657   8.390  0.6318 -0.5724  0.6007
 4531TIP3    H235229   2.778   0.621   8.524  0.5391 -0.8046  0.4979
 4532TIP3   OH235230   1.546   0.655   1.797  0.1149  0.0307 -0.0946
 4532TIP3    H135231   1.463   0.662   1.751  1.5545 -1.3524 -3.2562
 4532TIP3    H235232   1.523   0.628   1.886 -2.8334  1.7740 -0.2358
 4533TIP3   OH235233   2.888   3.344   8.606 -0.4895  0.3426 -0.4914
 4533TIP3    H135234   2.856   3.415   8.661 -1.0055  0.6325 -1.1551
 4533TIP3    H235235   2.827   3.340   8.533 -1.4827 -1.8948  0.3600
 4534TIP3   OH235236   5.467   5.744   6.528 -0.1303 -0.2051 -0.1434
 4534TIP3    H135237   5.407   5.765   6.598  0.8924 -1.6148  1.2326
 4534TIP3    H235238   5.531   5.815   6.529 -0.2658 -0.0858  0.1810
 4535TIP3   OH235239   2.834   0.188   1.202  0.9452 -0.0164  0.2921
 4535TIP3    H135240   2.807   0.222   1.117 -0.4055  0.4979  0.9097
 4535TIP3    H235241   2.825   0.093   1.193 -1.1905  0.1226  0.4706
 4536TIP3   OH235242   0.886   2.831   8.752 -0.3220  0.7396 -0.0144
 4536TIP3    H135243   0.956   2.896   8.748  1.8909 -1.5678 -0.9022
 4536TIP3    H235244   0.886   2.803   8.844 -0.1327  0.7758 -0.0028
 4537TIP3   OH235245   0.365   1.812   2.168  0.1444  0.3594 -0.0544
 4537TIP3    H135246   0.311   1.880   2.208  0.3340 -0.3845  1.5703
 4537TIP3    H235247   0.322   1.792   2.085 -0.4350  1.7802 -0.1135
 4538TIP3   OH235248   4.384   1.628   2.644 -0.4312 -0.3159 -0.3930
 4538TIP3    H135249   4.476   1.605   2.633 -0.5438 -0.4974 -0.9425
 4538TIP3    H235250   4.339   1.585   2.572 -1.0840 -1.0228  0.4061
 4539TIP3   OH235251   0.026   2.763   0.981 -0.1086  0.0297 -0.3269
 4539TIP3    H135252  -0.063   2.740   1.007 -0.2902 -1.0456 -1.7713
 4539TIP3    H235253   0.081   2.735   1.054 -0.8319 -0.4886  0.0251
 4540TIP3   OH235254   0.884   1.454   7.500  0.5855 -0.7298  0.1491
 4540TIP3    H135255   0.935   1.376   7.478  1.1668 -0.2132 -0.3679
 4540TIP3    H235256   0.946   1.527   7.489  0.1230 -0.2178  0.8646
 4541TIP3   OH235257   0.025   0.824   7.619  0.0401  0.6103 -0.3763
 4541TIP3    H135258  -0.045   0.842   7.682 -0.2811  1.5989 -0.9893
 4541TIP3    H235259   0.070   0.908   7.608  1.7429 -0.1433  0.4801
 4542TIP3   OH235260   4.908   1.137   7.003  0.1042  0.7688  0.4743
 4542TIP3    H135261   4.835   1.199   7.002 -1.2624 -0.6284 -2.9139
 4542TIP3    H235262   4.866   1.051   6.998  1.9852 -0.2132  0.6771
 4543TIP3   OH235263   1.151   0.730   0.164  0.6097 -0.9761  0.0961
 4543TIP3    H135264   1.183   0.667   0.099  2.0480  0.1460 -0.3565
 4543TIP3    H235265   1.066   0.759   0.130 -0.3634 -3.0398  0.6163
 4544TIP3   OH235266   5.256   4.347   6.541 -0.3251  0.5325 -0.3766
 4544TIP3    H135267   5.211   4.277   6.587  1.3054 -0.8318 -0.7338
 4544TIP3    H235268   5.188   4.390   6.489 -1.4227 -0.5554  0.1165
 4545TIP3   OH235269   6.588   4.318   0.922  0.2504  0.9631  0.1038
 4545TIP3    H135270   6.506   4.367   0.910  0.1512  0.6987 -0.3065
 4545TIP3    H235271   6.636   4.330   0.841  0.1862  0.3086 -0.0365
 4546TIP3   OH235272   2.620   1.780   0.854  0.1802  0.1472 -0.0009
 4546TIP3    H135273   2.666   1.843   0.911  0.4757 -0.0577 -0.0113
 4546TIP3    H235274   2.664   1.789   0.770 -0.3312  0.5315 -0.2347
 4547TIP3   OH235275   2.543   0.905   0.891 -0.1259 -0.4355 -0.3775
 4547TIP3    H135276   2.529   0.917   0.985 -4.4581  1.9228 -1.0367
 4547TIP3    H235277   2.608   0.971   0.869  0.0222 -0.1514  0.8119
 4548TIP3   OH235278   1.070   4.867   0.432 -0.3173  0.2766  0.0577
 4548TIP3    H135279   0.996   4.917   0.398 -0.8278  0.8680  1.9573
 4548TIP3    H235280   1.074   4.789   0.376 -0.8320  1.4009 -1.6066
 4549TIP3   OH235281   6.373   3.326   6.918  0.7028 -0.0308  0.2470
 4549TIP3    H135282   6.352   3.259   6.853 -0.6757 -0.6534  1.2840
 4549TIP3    H235283   6.296   3.383   6.919  2.1926  2.1254 -1.2218
 4550TIP3   OH235284   3.547   2.130   1.417  0.2887  0.9104  0.1814
 4550TIP3    H135285   3.535   2.199   1.483  0.8865  1.4235 -0.2290
 4550TIP3    H235286   3.459   2.108   1.389 -0.0004  0.4370  1.3978
 4551TIP3   OH235287   6.514   2.698   8.460 -0.3275 -0.2172 -0.3039
 4551TIP3    H135288   6.472   2.612   8.465 -0.6031 -0.0351  0.7944
 4551TIP3    H235289   6.558   2.698   8.375 -1.0803 -1.0887 -0.7111
 4552TIP3   OH235290   0.992   6.169   7.584  0.4954 -0.4147 -0.1497
 4552TIP3    H135291   1.025   6.257   7.565  0.7108 -0.4188  0.1981
 4552TIP3    H235292   0.900   6.181   7.606  0.6811 -0.1969  0.5227
 4553TIP3   OH235293   5.116   4.594   7.824  0.3837 -0.0666 -0.3139
 4553TIP3    H135294   5.185   4.631   7.770 -0.8206  0.3455 -1.6323
 4553TIP3    H235295   5.056   4.667   7.841  0.4611 -0.3127  1.1644
 4554TIP3   OH235296   2.760   4.391   8.271  0.2380  0.3540 -0.0728
 4554TIP3    H135297   2.836   4.408   8.327  1.2303 -0.2893 -1.1896
 4554TIP3    H235298   2.780   4.435   8.189 -1.2038  1.2865  0.0430
 4555TIP3   OH235299   5.673   1.603   1.783 -0.1956  0.1331 -0.5087
 4555TIP3    H135300   5.768   1.604   1.771 -0.2544  0.7681 -0.9397
 4555TIP3    H235301   5.651   1.510   1.784  0.3349 -0.0092 -1.1647
 4556TIP3   OH235302   4.767   3.524   1.393  0.0294 -0.6967 -0.3543
 4556TIP3    H135303   4.727   3.559   1.313 -0.2461 -0.1902 -0.0010
 4556TIP3    H235304   4.702   3.463   1.428 -0.3945  0.0305  0.1515
 4557TIP3   OH235305   5.560   6.602   0.255 -0.2069 -0.1301  0.0613
 4557TIP3    H135306   5.563   6.621   0.349  0.6324 -0.2362  0.0610
 4557TIP3    H235307   5.530   6.511   0.250  2.6088 -1.1715  0.3869
 4558TIP3   OH235308   1.623   4.227   6.481  0.0145  0.6955 -0.3601
 4558TIP3    H135309   1.551   4.171   6.510  0.1538  0.3124 -0.7624
 4558TIP3    H235310   1.698   4.199   6.533  0.2019  0.1804 -0.9018
 4559TIP3   OH235311   6.022   5.062   6.418 -0.2510 -0.1166 -0.1801
 4559TIP3    H135312   5.929   5.082   6.417 -0.0513  1.1248  1.2974
 4559TIP3    H235313   6.026   4.967   6.424 -1.4798 -0.1247  1.0689
 4560TIP3   OH235314   4.301   5.241   6.879 -0.1956 -0.1904  0.3239
 4560TIP3    H135315   4.303   5.283   6.793 -0.2016  0.4870  0.6451
 4560TIP3    H235316   4.390   5.210   6.894 -0.1919 -0.2947  0.0800
 4561TIP3   OH235317   3.132   5.099   7.844  0.3327 -0.0584 -0.4970
 4561TIP3    H135318   3.141   5.015   7.799 -0.4989  0.7839 -2.3618
 4561TIP3    H235319   3.057   5.087   7.902 -0.8052 -0.1886 -1.9265
 4562TIP3   OH235320   3.006   1.749   0.514  0.3892  0.2743 -0.1739
 4562TIP3    H135321   3.032   1.731   0.424 -0.8217  0.1741 -0.5208
 4562TIP3    H235322   3.022   1.667   0.561 -0.0488 -0.0324 -0.5552
 4563TIP3   OH235323   5.493   5.711   1.073 -0.8910  0.1315  0.8203
 4563TIP3    H135324   5.426   5.682   1.135  1.2648  0.1443  3.3411
 4563TIP3    H235325   5.542   5.779   1.120  0.7919  0.2133 -0.9205
 4564TIP3   OH235326   0.958   6.521   0.927  0.3809 -0.0236 -0.0925
 4564TIP3    H135327   1.008   6.592   0.886 -0.1946 -0.3457 -1.3960
 4564TIP3    H235328   0.918   6.561   1.003  3.2711  0.0656  1.5421
 4565TIP3   OH235329   0.609   1.633   7.988 -0.6790 -0.0054 -0.3758
 4565TIP3    H135330   0.644   1.704   8.042 -0.2911  1.2826 -2.2247
 4565TIP3    H235331   0.638   1.553   8.032  1.6684  0.9988  0.0385
 4566TIP3   OH235332   4.455   2.547   7.490  0.1263 -0.1005  0.0677
 4566TIP3    H135333   4.368   2.510   7.472  0.4909 -0.8013 -0.2632
 4566TIP3    H235334   4.436   2.633   7.528 -0.7136 -0.2054 -0.0858
 4567TIP3   OH235335   5.903   3.590   1.257  0.0671  0.1663 -0.0091
 4567TIP3    H135336   5.852   3.654   1.307  0.5338  0.1509  0.4973
 4567TIP3    H235337   5.986   3.583   1.305  0.7122  0.4955 -1.0354
 4568TIP3   OH235338   0.994   1.084   1.437 -0.1094 -0.2800  0.2318
 4568TIP3    H135339   0.959   1.070   1.525  2.0294  0.2378  1.2292
 4568TIP3    H235340   1.026   1.174   1.438  1.5304 -0.8192 -0.4532
 4569TIP3   OH235341   4.593   1.409   0.703  0.0228 -0.0771  0.3820
 4569TIP3    H135342   4.664   1.454   0.657  0.6956  0.4119  1.8372
 4569TIP3    H235343   4.563   1.471   0.769  0.0640 -1.2299  1.5478
 4570TIP3   OH235344   4.009   3.727   7.200 -0.3209  0.2261 -0.4887
 4570TIP3    H135345   4.067   3.796   7.168 -1.1488  0.5467 -1.3455
 4570TIP3    H235346   3.939   3.722   7.134 -1.1079 -0.3512  0.3670
 4571TIP3   OH235347   0.313   3.215   0.581  0.2942 -0.5034  0.0412
 4571TIP3    H135348   0.268   3.193   0.663  0.4643 -2.7797 -0.4011
 4571TIP3    H235349   0.242   3.227   0.517  0.1244  1.9879  0.6014
 4572TIP3   OH235350   2.532   1.101   7.367 -0.0747  0.6659 -0.1704
 4572TIP3    H135351   2.471   1.134   7.433  0.2763 -0.1113  0.5580
 4572TIP3    H235352   2.481   1.035   7.319 -0.1060  0.7099 -0.1980
 4573TIP3   OH235353   0.670   5.525   0.166 -1.0306  0.2913 -0.0434
 4573TIP3    H135354   0.592   5.558   0.121 -1.7728  0.6003  1.3782
 4573TIP3    H235355   0.636   5.454   0.221 -0.7085  1.6669  2.0413
 4574TIP3   OH235356   5.012   5.408   0.800 -0.3494  0.1495 -0.0391
 4574TIP3    H135357   4.976   5.457   0.874 -0.9187 -0.8039  0.3300
 4574TIP3    H235358   5.106   5.424   0.805 -0.4465  0.5809  0.5331
 4575TIP3   OH235359   2.275   2.857   8.435 -0.1392  0.4877 -0.5238
 4575TIP3    H135360   2.227   2.933   8.401  1.6029  1.5830 -0.6195
 4575TIP3    H235361   2.259   2.859   8.529 -0.0276  1.0370 -0.5139
 4576TIP3   OH235362   5.854   5.717   8.137  0.0542  0.2394  0.3519
 4576TIP3    H135363   5.930   5.664   8.115 -0.2967  0.0151 -0.3510
 4576TIP3    H235364   5.862   5.796   8.084 -1.2221 -0.6687 -1.3034
 4577TIP3   OH235365   3.239   2.917   8.710 -0.0816  0.1741 -0.0828
 4577TIP3    H135366   3.268   2.846   8.653  1.2498  0.5765  0.0499
 4577TIP3    H235367   3.246   2.882   8.799  0.5674  0.4511 -0.0176
 4578TIP3   OH235368   2.457   4.198   1.685  0.8762  0.3932  0.1116
 4578TIP3    H135369   2.466   4.272   1.626  0.2857 -0.8812 -1.6493
 4578TIP3    H235370   2.394   4.227   1.751 -1.9061  0.4583 -2.3591
 4579TIP3   OH235371   4.438   0.442   6.717  0.2355 -0.5390 -0.1407
 4579TIP3    H135372   4.492   0.364   6.711  0.7905 -0.5438  2.8732
 4579TIP3    H235373   4.348   0.410   6.720  0.3697 -0.9323 -0.3600
 4580TIP3   OH235374   5.275   5.509   6.822 -0.2091 -0.2748  0.2845
 4580TIP3    H135375   5.327   5.443   6.776 -0.8673 -0.2163 -0.5739
 4580TIP3    H235376   5.215   5.458   6.877 -1.5381 -0.4832 -1.2662
 4581TIP3   OH235377   3.694   3.295   7.408 -0.4829  0.2888  0.2241
 4581TIP3    H135378   3.734   3.308   7.323 -1.5053  2.9332  0.0569
 4581TIP3    H235379   3.673   3.202   7.411  1.2879 -0.2295 -1.5929
 4582TIP3   OH235380   2.466   1.445   8.566 -0.0138 -0.0423 -0.5098
 4582TIP3    H135381   2.513   1.363   8.552  0.2084  0.0285 -0.1953
 4582TIP3    H235382   2.375   1.418   8.582  0.1905 -0.2778  0.2869
 4583TIP3   OH235383   5.944   3.868   8.132  0.4227  0.1223 -0.2842
 4583TIP3    H135384   5.945   3.879   8.227 -0.8133 -1.7987  0.0108
 4583TIP3    H235385   5.902   3.783   8.118  0.0385  0.6103 -2.5770
 4584TIP3   OH235386   2.953   2.299   8.037 -0.2450  0.3047 -0.3608
 4584TIP3    H135387   2.873   2.335   8.075 -0.3247 -0.6413  0.4118
 4584TIP3    H235388   2.923   2.249   7.962 -0.1145  1.9588 -1.5569
 4585TIP3   OH235389   4.964   0.673   0.708 -0.2103  0.0197  0.3651
 4585TIP3    H135390   5.000   0.730   0.640  0.8389 -0.3233  0.6004
 4585TIP3    H235391   4.897   0.725   0.750  1.7373  1.7267  1.5669
 4586TIP3   OH235392   5.772   1.004   8.341  0.0915  0.0573 -0.4508
 4586TIP3    H135393   5.783   0.975   8.432 -3.5298 -0.7293 -0.1317
 4586TIP3    H235394   5.752   1.097   8.348 -1.7549 -0.3115 -0.1995
 4587TIP3   OH235395   2.230   4.998   2.067  0.0733  0.3403 -0.0951
 4587TIP3    H135396   2.238   5.018   2.160  1.1493 -1.2641  0.2049
 4587TIP3    H235397   2.152   5.046   2.038  1.0117  2.7053  1.0697
 4588TIP3   OH235398   4.319   0.298   7.115 -0.4058  0.3764 -0.0964
 4588TIP3    H135399   4.294   0.363   7.050 -2.2786 -0.3099 -0.1159
 4588TIP3    H235400   4.361   0.228   7.065 -0.1808  0.6753 -0.3247
 4589TIP3   OH235401   6.057   4.311   0.113  0.3692 -0.5177 -0.6674
 4589TIP3    H135402   5.982   4.252   0.114 -1.7788  2.0017  0.6380
 4589TIP3    H235403   6.107   4.287   0.191 -1.1119  0.0306  0.5069
 4590TIP3   OH235404   0.774   1.141   7.135 -0.1761  0.1908  0.0490
 4590TIP3    H135405   0.741   1.228   7.112  1.2338  1.1147  1.3418
 4590TIP3    H235406   0.869   1.152   7.143  0.1579 -1.6933 -0.6598
 4591TIP3   OH235407   0.020   4.483   1.072  0.2443  0.2501 -0.1465
 4591TIP3    H135408   0.096   4.501   1.016  0.4326  0.3036  0.1247
 4591TIP3    H235409  -0.000   4.391   1.055  0.6086  0.1272  0.0622
 4592TIP3   OH235410   1.716   6.602   8.412  0.6515  0.2221 -0.1257
 4592TIP3    H135411   1.652   6.673   8.408 -2.2291 -2.1395  0.2547
 4592TIP3    H235412   1.739   6.596   8.504 -0.8588 -0.6576  0.2382
 4593TIP3   OH235413   2.421   1.455   0.785  0.3033 -0.3906 -0.3670
 4593TIP3    H135414   2.483   1.460   0.858 -0.0801  0.7451 -0.1116
 4593TIP3    H235415   2.458   1.388   0.727  0.5084 -1.4578  0.9536
 4594TIP3   OH235416   1.624   5.908   8.523  0.0171  0.4281 -0.0722
 4594TIP3    H135417   1.578   5.898   8.606  1.3813  0.9680  0.7750
 4594TIP3    H235418   1.695   5.969   8.542  1.4757 -0.8614 -1.1831
 4595TIP3   OH235419   2.507   2.002   0.092  0.3123 -0.0392  0.0855
 4595TIP3    H135420   2.432   1.972   0.041  0.8686 -0.1138 -0.7166
 4595TIP3    H235421   2.507   1.947   0.170 -2.1419  1.8460  1.5727
 4596TIP3   OH235422   3.470   4.073   1.247  0.6175  0.0603  0.0488
 4596TIP3    H135423   3.537   4.080   1.179 -2.2621 -1.1873 -3.2728
 4596TIP3    H235424   3.480   3.986   1.283 -0.1356 -0.7731 -1.6435
 4597TIP3   OH235425   1.612   4.848   7.667  0.6280  0.1338  0.7795
 4597TIP3    H135426   1.668   4.882   7.597 -1.8319  2.1772 -0.3718
 4597TIP3    H235427   1.666   4.855   7.746  2.4834  0.5766 -0.4699
 4598TIP3   OH235428   2.761   6.648   8.704 -0.0108 -0.0840  0.2185
 4598TIP3    H135429   2.769   6.740   8.727  1.8767  0.1234 -1.0795
 4598TIP3    H235430   2.718   6.608   8.780 -3.6784  2.2930 -0.3919
 4599TIP3   OH235431   6.516   0.413   1.568 -0.1181 -0.5263 -0.3820
 4599TIP3    H135432   6.543   0.465   1.645  1.3675  0.7215 -1.6733
 4599TIP3    H235433   6.597   0.374   1.537 -0.5630 -0.4164 -1.7368
 4600TIP3   OH235434   6.571   4.608   0.395  0.7758 -0.2699 -0.4182
 4600TIP3    H135435   6.666   4.613   0.400  0.9029 -0.6136 -1.8519
 4600TIP3    H235436   6.542   4.699   0.391  1.1324 -0.1753 -0.9845
 4601TIP3   OH235437   4.729   3.688   1.684  0.3674  0.0296  0.5112
 4601TIP3    H135438   4.747   3.650   1.598  1.3948  0.6580  0.4364
 4601TIP3    H235439   4.713   3.612   1.741 -0.6775 -0.3828 -0.2880
 4602TIP3   OH235440   1.214   6.586   0.171  0.2054 -0.2432 -0.0655
 4602TIP3    H135441   1.302   6.616   0.194  0.5497 -1.5931  0.4531
 4602TIP3    H235442   1.157   6.659   0.194  0.9304 -0.2160  1.7926
 4603TIP3   OH235443   0.321   2.312   8.825  0.1451 -0.0938 -0.2551
 4603TIP3    H135444   0.361   2.398   8.812 -0.3850  0.1501 -0.2768
 4603TIP3    H235445   0.394   2.250   8.817  0.6667  0.3990  0.4864
 4604TIP3   OH235446   4.852   2.427   2.436 -0.4197  0.6921  0.4346
 4604TIP3    H135447   4.807   2.350   2.470  1.0152  0.6126  2.3463
 4604TIP3    H235448   4.920   2.446   2.501  0.4062  2.5287 -0.8580
 4605TIP3   OH235449   4.785   1.906   0.423 -0.3051  0.2979  0.4074
 4605TIP3    H135450   4.737   1.976   0.466  0.4013  0.4761  0.9262
 4605TIP3    H235451   4.821   1.947   0.344 -2.0249 -0.1587 -0.6765
 4606TIP3   OH235452   0.284   3.001   1.688  0.5485  0.4479 -0.3237
 4606TIP3    H135453   0.349   2.978   1.621  1.6331  0.3447  0.7297
 4606TIP3    H235454   0.335   3.012   1.768 -0.8946 -1.1966  0.9063
 4607TIP3   OH235455   4.713   1.817   7.995 -0.2145 -0.4988  0.1140
 4607TIP3    H135456   4.659   1.897   7.994  0.0581 -0.3008 -1.2413
 4607TIP3    H235457   4.718   1.793   8.087  0.8002  1.8110  0.7467
 4608TIP3   OH235458   3.074   2.783   2.391 -0.1744  0.1947  0.9530
 4608TIP3    H135459   3.019   2.850   2.351 -0.0559 -1.1535 -1.7414
 4608TIP3    H235460   3.020   2.703   2.388  1.0957 -0.6773  0.2720
 4609TIP3   OH235461   4.640   2.266   1.134  0.2502  0.6917 -0.7091
 4609TIP3    H135462   4.676   2.354   1.126  2.1338  0.0853  0.3656
 4609TIP3    H235463   4.658   2.241   1.225 -1.0893 -0.4472 -0.7272
 4610TIP3   OH235464   4.495   5.807   8.207 -0.0984  0.6552  0.3057
 4610TIP3    H135465   4.526   5.879   8.151  1.6093 -1.6720 -1.9828
 4610TIP3    H235466   4.537   5.823   8.291  1.0104  1.8282 -0.4221
 4611TIP3   OH235467   6.527   0.256   1.296 -0.0847 -0.2663  0.7536
 4611TIP3    H135468   6.608   0.210   1.318  0.0298 -1.3584 -1.6293
 4611TIP3    H235469   6.457   0.201   1.330  0.1161  0.6244  2.7215
 4612TIP3   OH235470   3.314   5.946   0.910  0.0378  0.1140  1.0084
 4612TIP3    H135471   3.237   5.901   0.948 -0.1318 -2.1417 -1.6551
 4612TIP3    H235472   3.277   6.008   0.847  0.3153 -1.3074 -0.6233
 4613TIP3   OH235473   2.717   1.978   2.080 -0.0111 -0.3419 -0.3548
 4613TIP3    H135474   2.707   2.055   2.024  1.0460 -0.7206 -1.1024
 4613TIP3    H235475   2.740   1.908   2.019  0.4612 -0.9272  0.4740
 4614TIP3   OH235476   3.541   4.984   7.510  0.5618  0.2750  0.0421
 4614TIP3    H135477   3.559   4.956   7.420 -0.9204  0.7022 -0.4181
 4614TIP3    H235478   3.462   4.936   7.535 -0.7818  2.3501  0.0074
 4615TIP3   OH235479   4.641   5.201   6.490  0.2989  0.6436 -0.6174
 4615TIP3    H135480   4.717   5.207   6.547  0.1379  0.9254 -0.4273
 4615TIP3    H235481   4.590   5.127   6.524 -0.4126  1.5679  0.3680
 4616TIP3   OH235482   5.693   3.164   8.298 -0.3007  0.0056  0.3282
 4616TIP3    H135483   5.626   3.127   8.241 -0.9049  0.7743  0.5281
 4616TIP3    H235484   5.745   3.220   8.240 -1.4261  1.4553  0.6556
 4617TIP3   OH235485   4.339   6.645   0.421 -0.9860  0.2787  0.1584
 4617TIP3    H135486   4.325   6.624   0.513 -1.0589  0.1216  0.1113
 4617TIP3    H235487   4.352   6.740   0.420 -0.0400  0.1635  0.4435
 4618TIP3   OH235488   6.205   4.091   0.578  0.2571 -0.1491  0.5018
 4618TIP3    H135489   6.124   4.092   0.629  0.1356  0.8897  0.3052
 4618TIP3    H235490   6.206   4.175   0.533  0.7340 -0.7413 -0.6340
 4619TIP3   OH235491   3.009   4.390   0.444  0.2103  0.2535  0.1351
 4619TIP3    H135492   3.057   4.394   0.527 -0.7757 -0.5545  0.7807
 4619TIP3    H235493   2.928   4.344   0.466 -1.2121  2.2037 -0.7433
 4620TIP3   OH235494   4.306   1.450   8.482  0.1888  0.2589 -0.1792
 4620TIP3    H135495   4.342   1.518   8.539 -0.2999  1.5159 -1.3246
 4620TIP3    H235496   4.332   1.476   8.394 -1.2585 -0.2563 -0.7833
 4621TIP3   OH235497   6.551   5.414   7.126 -0.0424 -0.0513  0.4101
 4621TIP3    H135498   6.635   5.377   7.100  0.8340  1.1443  1.4337
 4621TIP3    H235499   6.492   5.339   7.130  0.9770 -0.9160 -0.2604
 4622TIP3   OH235500   1.216   4.773   7.566 -0.1834 -0.6971  0.3540
 4622TIP3    H135501   1.283   4.705   7.567 -2.1044 -2.7061  1.0056
 4622TIP3    H235502   1.170   4.760   7.482 -0.3330  0.0414  0.3156
 4623TIP3   OH235503   4.398   1.308   8.723 -0.0070  0.0545 -0.4086
 4623TIP3    H135504   4.342   1.350   8.658  1.0139  0.6728 -0.9172
 4623TIP3    H235505   4.372   1.216   8.721 -2.3094  0.6173  0.7617
 4624TIP3   OH235506   2.775   5.836   8.401  0.1512  0.2060 -0.1215
 4624TIP3    H135507   2.794   5.903   8.334 -0.3309 -0.2207 -0.7004
 4624TIP3    H235508   2.811   5.872   8.482 -0.0997  1.1717 -0.4241
 4625TIP3   OH235509   5.766   2.423   0.197 -0.0898  0.1772 -0.5148
 4625TIP3    H135510   5.738   2.335   0.223 -0.6347  0.6042  0.4058
 4625TIP3    H235511   5.779   2.417   0.102 -0.5975 -0.7656 -0.5407
 4626TIP3   OH235512   4.846   4.932   0.798 -0.3306 -0.7052  0.3204
 4626TIP3    H135513   4.771   4.877   0.820  0.6871 -2.3417 -0.1258
 4626TIP3    H235514   4.840   4.945   0.704 -1.2440  1.0267  0.5952
 4627TIP3   OH235515   2.600   4.614   7.901 -0.1700 -0.4528 -0.5718
 4627TIP3    H135516   2.657   4.649   7.833  0.5625 -0.3814  0.0609
 4627TIP3    H235517   2.540   4.685   7.923  0.4537 -0.0320 -0.2193
 4628TIP3   OH235518   6.150   1.398   0.277 -0.0198  0.2917  0.1424
 4628TIP3    H135519   6.204   1.345   0.337 -1.9142  0.3139  1.9460
 4628TIP3    H235520   6.122   1.473   0.329 -3.5046 -0.7695  0.0397
 4629TIP3   OH235521   1.907   2.078   1.491  0.3136 -0.2296  0.1276
 4629TIP3    H135522   1.919   2.098   1.399  0.4477  1.7030  0.5343
 4629TIP3    H235523   1.927   1.984   1.498  1.9067 -0.0613 -1.5195
 4630TIP3   OH235524   0.677   0.524   7.373 -0.7257 -0.6718 -0.1821
 4630TIP3    H135525   0.699   0.545   7.463  0.1153  0.4671 -0.6244
 4630TIP3    H235526   0.625   0.599   7.343  0.1467 -0.3732 -1.0298
 4631TIP3   OH235527   6.764   2.017   7.032  0.2267  0.2901  0.4682
 4631TIP3    H135528   6.704   2.091   7.036  1.4681  1.5429 -2.1637
 4631TIP3    H235529   6.760   1.986   6.942  1.8299 -1.0547  0.7915
 4632TIP3   OH235530   5.720   4.502   2.854 -0.1259 -0.4775  0.3004
 4632TIP3    H135531   5.775   4.563   2.905 -1.0199  0.1246  0.5794
 4632TIP3    H235532   5.734   4.528   2.763 -0.5477  0.2074  0.4201
 4633TIP3   OH235533   4.993   2.007   0.889  0.6847 -0.0575 -0.0324
 4633TIP3    H135534   5.038   2.084   0.855  1.3291 -0.9129 -1.2161
 4633TIP3    H235535   4.956   2.034   0.973  2.6913  0.9191  0.5732
 4634TIP3   OH235536   2.488   3.603   7.322 -0.0744 -0.5463  0.2987
 4634TIP3    H135537   2.407   3.576   7.365  0.3037 -0.6387  0.9730
 4634TIP3    H235538   2.460   3.639   7.238 -0.8080 -0.6170  0.5050
 4635TIP3   OH235539   6.420   5.331   1.381  0.0308  0.6925 -0.0026
 4635TIP3    H135540   6.443   5.388   1.307 -0.1786  1.0726  0.2226
 4635TIP3    H235541   6.378   5.390   1.444  0.6955  0.4696  0.6513
 4636TIP3   OH235542   4.456   5.838   7.123 -0.2028 -0.0932 -0.0582
 4636TIP3    H135543   4.489   5.797   7.204 -0.8682  1.6239  1.1474
 4636TIP3    H235544   4.421   5.765   7.072  3.2064 -1.7331 -0.3898
 4637TIP3   OH235545   3.110   5.517   6.952  0.7179 -0.0927  0.5280
 4637TIP3    H135546   3.129   5.466   6.874 -1.1316 -0.9221  0.5536
 4637TIP3    H235547   3.166   5.480   7.020 -1.1311 -2.7869  0.7453
 4638TIP3   OH235548   5.220   3.498   7.697 -0.0723 -0.5214 -0.1334
 4638TIP3    H135549   5.195   3.582   7.735 -0.6122 -0.6615 -0.1775
 4638TIP3    H235550   5.137   3.452   7.683  0.3054 -1.8004  1.5336
 4639TIP3   OH235551   2.102   4.641   7.965 -0.1975  0.0916  0.1842
 4639TIP3    H135552   2.042   4.608   7.899 -0.9931 -0.9417  1.3696
 4639TIP3    H235553   2.115   4.733   7.942 -0.1485 -0.3248 -1.5916
 4640TIP3   OH235554   3.366   2.131   1.759 -0.2652  0.3936  0.0795
 4640TIP3    H135555   3.317   2.212   1.767 -0.8481 -0.1396  2.7500
 4640TIP3    H235556   3.437   2.152   1.697 -1.1157  2.5266 -0.2469
 4641TIP3   OH235557   1.138   4.763   6.949 -0.1679 -0.2237  0.2108
 4641TIP3    H135558   1.180   4.680   6.923 -0.2362  0.3667 -2.0105
 4641TIP3    H235559   1.210   4.824   6.959 -0.2628 -0.0076 -0.3935
 4642TIP3   OH235560   6.345   5.964   8.493 -0.4240  0.0946  0.0268
 4642TIP3    H135561   6.402   5.991   8.565 -1.0038 -1.0564  0.9526
 4642TIP3    H235562   6.320   6.046   8.451  0.9146  0.7084  0.3561
 4643TIP3   OH235563   6.405   6.094   1.912 -0.3921 -0.1366  0.3070
 4643TIP3    H135564   6.444   6.008   1.901  0.7897  0.4675 -0.4415
 4643TIP3    H235565   6.475   6.155   1.890 -2.0546  1.0132 -2.1741
 4644TIP3   OH235566   5.038   2.893   0.500 -0.0867 -0.2827 -0.2406
 4644TIP3    H135567   4.978   2.894   0.575  1.0445 -3.6146  0.8793
 4644TIP3    H235568   4.981   2.905   0.424 -1.8940 -1.0564  0.9190
 4645TIP3   OH235569   5.713   1.243   8.835 -0.3484  0.4757 -0.2046
 4645TIP3    H135570   5.781   1.226   8.901 -1.2570  0.0462  0.6575
 4645TIP3    H235571   5.684   1.332   8.853 -0.7356  0.2894  0.1326
 4646TIP3   OH235572   3.986   2.488   1.938 -0.4293  0.2793 -0.6523
 4646TIP3    H135573   3.933   2.409   1.937 -0.6439  0.3909  0.5950
 4646TIP3    H235574   4.025   2.490   2.025  2.0384 -0.0496 -1.6818
 4647TIP3   OH235575   6.594   2.834   8.679 -0.1532 -0.1208 -0.6251
 4647TIP3    H135576   6.558   2.799   8.597 -1.0132 -1.3049  0.2263
 4647TIP3    H235577   6.522   2.885   8.716  0.2298  0.3977 -0.5947
 4648TIP3   OH235578   2.512   4.678   2.088  0.2333 -0.0733  0.8388
 4648TIP3    H135579   2.563   4.759   2.090 -0.5700  0.4297  1.5074
 4648TIP3    H235580   2.494   4.658   2.179 -0.0145 -0.7287  0.6513
 4649TIP3   OH235581   6.488   6.493   1.363 -0.1850 -0.4271  0.0276
 4649TIP3    H135582   6.480   6.468   1.455 -2.2213 -1.0433 -0.2742
 4649TIP3    H235583   6.580   6.515   1.352  0.5069 -2.2058  1.7486
 4650TIP3   OH235584   3.672   2.951   0.211  0.6092 -0.3454 -0.1885
 4650TIP3    H135585   3.603   2.886   0.202  1.2146 -0.7073 -3.7643
 4650TIP3    H235586   3.639   3.013   0.276 -2.0505 -1.7289 -0.1124
 4651TIP3   OH235587   4.998   1.633   2.626 -0.2726  0.2135  0.0802
 4651TIP3    H135588   4.925   1.691   2.647  1.2391  2.4459 -0.3553
 4651TIP3    H235589   5.074   1.691   2.625  1.4126 -1.8756 -0.1567
 4652TIP3   OH235590   6.383   1.193   0.773 -0.4384  0.9844  0.2786
 4652TIP3    H135591   6.375   1.246   0.852  0.5942  2.9007 -0.8401
 4652TIP3    H235592   6.362   1.253   0.701  0.1796 -0.2757 -1.0061
 4653TIP3   OH235593   2.736   1.121   0.828 -0.8523 -0.5020  0.2745
 4653TIP3    H135594   2.761   1.190   0.890 -1.2708 -0.5255  0.4697
 4653TIP3    H235595   2.811   1.114   0.769 -0.1483 -0.9643  1.1978
 4654TIP3   OH235596   3.387   0.944   1.560 -0.1147 -0.5207  0.2097
 4654TIP3    H135597   3.293   0.960   1.550 -0.5987 -1.2415  2.9025
 4654TIP3    H235598   3.422   1.024   1.597  0.6356  0.2081 -1.9380
 4655TIP3   OH235599   5.944   1.475   0.052 -0.4170  0.3025  0.0355
 4655TIP3    H135600   6.009   1.416   0.092 -1.6902 -0.9752  0.2931
 4655TIP3    H235601   5.925   1.436  -0.033  0.5860  1.7738 -0.9135
 4656TIP3   OH235602   2.933   6.088   1.740  0.4254  1.1407  0.0124
 4656TIP3    H135603   2.881   6.088   1.820  0.6700  0.7183  0.1765
 4656TIP3    H235604   2.956   5.996   1.726  1.4198  1.3499  0.1370
 4657TIP3   OH235605   0.519   1.171   1.788  0.4615 -0.4416 -0.4288
 4657TIP3    H135606   0.521   1.241   1.853  0.1130 -0.1073 -0.7674
 4657TIP3    H235607   0.441   1.120   1.810  0.5370 -0.5344 -0.3756
 4658TIP3   OH235608   5.137   3.767   7.851 -0.0863  0.4891  0.2506
 4658TIP3    H135609   5.218   3.783   7.899 -0.2141 -0.5204  0.8337
 4658TIP3    H235610   5.071   3.818   7.899  0.1990  1.3807 -0.2767
 4659TIP3   OH235611   6.160   6.574   0.912 -0.0068 -0.2141  0.3207
 4659TIP3    H135612   6.170   6.526   0.829 -2.8309 -0.5149  0.0475
 4659TIP3    H235613   6.207   6.656   0.898  1.6157 -1.2535 -0.6522
 4660TIP3   OH235614   1.860   1.372   1.922  0.1123 -0.7395 -0.5955
 4660TIP3    H135615   1.915   1.377   1.844 -0.5641 -0.1989 -1.0475
 4660TIP3    H235616   1.773   1.397   1.892  0.0472  0.5074  0.5374
 4661TIP3   OH235617   4.941   1.204   0.126  0.0489  0.1828  0.1613
 4661TIP3    H135618   4.916   1.237   0.212  0.0786 -0.4886  0.4355
 4661TIP3    H235619   4.916   1.274   0.065 -0.7054  0.3324  0.6257
 4662TIP3   OH235620   3.973   0.626   0.550  0.2763  0.7351 -0.1953
 4662TIP3    H135621   3.952   0.719   0.558  1.3361  0.9421  0.3404
 4662TIP3    H235622   4.048   0.623   0.490  1.0213  0.3492  0.7236
 4663TIP3   OH235623   1.044   3.070   8.726  0.6244 -0.4407 -0.0493
 4663TIP3    H135624   1.004   3.127   8.660  2.6572 -0.4746 -1.3945
 4663TIP3    H235625   1.104   3.127   8.774 -1.5368 -0.1725  2.5758
 4664TIP3   OH235626   6.571   0.055   8.099 -0.3633  0.5119 -0.0015
 4664TIP3    H135627   6.627   0.130   8.078 -1.3974  1.4335  0.4678
 4664TIP3    H235628   6.512   0.087   8.167  0.5067 -1.3409  1.7277
 4665TIP3   OH235629   1.721   6.343   0.086  0.2708 -0.0860  0.0796
 4665TIP3    H135630   1.705   6.384   0.171 -0.0699 -0.2585  0.1014
 4665TIP3    H235631   1.726   6.249   0.106  1.9580 -0.0121  0.1686
 4666TIP3   OH235632   1.919   3.554   8.503 -0.3929 -0.0284  0.3451
 4666TIP3    H135633   1.851   3.547   8.571  0.9501  0.8814  1.8544
 4666TIP3    H235634   1.976   3.624   8.534  0.1034  0.6520 -1.9170
 4667TIP3   OH235635   4.504   4.423   1.156 -0.0523  0.3154 -0.3852
 4667TIP3    H135636   4.541   4.394   1.073 -0.8344  1.6100 -1.2098
 4667TIP3    H235637   4.489   4.517   1.145  1.2493  0.8491  1.7634
 4668TIP3   OH235638   4.625   0.871   8.562  0.0256  0.1172  0.0723
 4668TIP3    H135639   4.632   0.941   8.628  0.7490 -0.2010  0.3451
 4668TIP3    H235640   4.634   0.916   8.478 -0.8324  0.5185  0.1818
 4669TIP3   OH235641   3.867   0.828   7.380  0.3464 -0.6040  0.5021
 4669TIP3    H135642   3.810   0.869   7.445  1.6779  2.1870  0.0606
 4669TIP3    H235643   3.944   0.802   7.431  0.6500 -0.0038  0.3648
 4670TIP3   OH235644   5.153   2.121   1.919  0.4213  0.2412  0.2488
 4670TIP3    H135645   5.143   2.169   2.001 -0.9238  0.1760  0.1380
 4670TIP3    H235646   5.066   2.086   1.900  1.1528 -1.4915 -0.1481
 4671TIP3   OH235647   4.327   0.385   8.598 -0.1928  0.1564  0.1874
 4671TIP3    H135648   4.276   0.331   8.659 -1.4312  0.2830 -0.7133
 4671TIP3    H235649   4.303   0.475   8.620 -0.4177  0.2145 -0.2858
 4672TIP3   OH235650   1.722   4.567   7.287  0.1420 -0.1388 -0.0459
 4672TIP3    H135651   1.629   4.583   7.304  0.2348  0.9914 -0.5149
 4672TIP3    H235652   1.757   4.541   7.372 -0.4848  0.0210  0.2703
 4673TIP3   OH235653   3.451   6.348   1.952 -0.1928 -0.0524 -0.3410
 4673TIP3    H135654   3.376   6.380   1.902 -0.3267  0.2997  0.0795
 4673TIP3    H235655   3.481   6.271   1.903 -1.5176 -0.8748  0.0713
 4674TIP3   OH235656   0.797   2.989   8.011 -0.4560  0.0146 -0.1440
 4674TIP3    H135657   0.859   2.929   8.051  0.5395  1.6257  0.8557
 4674TIP3    H235658   0.820   2.989   7.918  0.4568 -0.0923  0.0731
 4675TIP3   OH235659   2.058   3.957   8.676  0.2025  0.4883 -0.3055
 4675TIP3    H135660   2.033   3.922   8.591 -2.3153  0.2258  0.4626
 4675TIP3    H235661   2.153   3.951   8.677  0.2481 -0.3072 -2.7412
 4676TIP3   OH235662   5.558   0.042   0.200  0.1064 -0.5107  0.4669
 4676TIP3    H135663   5.568  -0.053   0.195 -1.6917 -0.6930 -0.5106
 4676TIP3    H235664   5.603   0.075   0.122  0.5028 -0.5703  0.6670
 4677TIP3   OH235665   0.448   4.394   1.594 -0.6757  0.1406 -0.0447
 4677TIP3    H135666   0.467   4.336   1.520  0.1238  0.5401 -0.1590
 4677TIP3    H235667   0.450   4.336   1.671 -1.2238 -0.2206 -0.2942
 4678TIP3   OH235668   1.789   6.167   6.362  0.6586  0.2747  0.5115
 4678TIP3    H135669   1.723   6.236   6.357  0.4988  0.1410  0.7389
 4678TIP3    H235670   1.871   6.213   6.381  0.3802  0.3222  1.6899
 4679TIP3   OH235671   1.505   2.516   1.614  0.0514 -0.1937 -0.4658
 4679TIP3    H135672   1.515   2.610   1.602  0.9268 -0.2308 -0.1138
 4679TIP3    H235673   1.594   2.481   1.611 -0.2739 -1.0331 -0.7525
 4680TIP3   OH235674   1.547   3.695   1.798 -0.0824 -0.3080  0.7907
 4680TIP3    H135675   1.534   3.655   1.712  0.0475 -0.0590  0.6547
 4680TIP3    H235676   1.576   3.623   1.854 -0.2656 -0.4908  0.6507
 4681TIP3   OH235677   0.679   6.229   7.968  0.6105 -0.3060 -0.2218
 4681TIP3    H135678   0.594   6.272   7.961  0.0605 -1.6317 -2.7065
 4681TIP3    H235679   0.741   6.301   7.982 -0.9525  0.5829  3.0140
 4682TIP3   OH235680   6.526   5.135   0.867 -0.4589 -0.4793 -0.0897
 4682TIP3    H135681   6.597   5.200   0.861 -0.0901 -1.0016 -2.1779
 4682TIP3    H235682   6.461   5.176   0.923  1.4904 -0.0013  1.9897
 4683TIP3   OH235683   4.050   4.251   8.242 -0.7354 -0.7336 -0.0595
 4683TIP3    H135684   4.010   4.215   8.321  0.2530 -0.7717  0.4316
 4683TIP3    H235685   3.986   4.234   8.173 -0.6397 -2.7267  0.2908
 4684TIP3   OH235686   0.443   2.350   0.762  0.1049  0.3737  0.1754
 4684TIP3    H135687   0.369   2.291   0.775  0.9959 -1.0016 -0.6810
 4684TIP3    H235688   0.406   2.438   0.772 -1.4283 -0.3006  0.7097
 4685TIP3   OH235689   3.981   2.224   8.565  0.1626 -0.3890 -0.0854
 4685TIP3    H135690   3.927   2.169   8.622 -0.5916  0.5475  0.1278
 4685TIP3    H235691   3.920   2.257   8.499  0.5790  0.2877 -0.1423
 4686TIP3   OH235692   1.491   5.694   0.636 -0.2625 -0.6155 -0.2763
 4686TIP3    H135693   1.432   5.624   0.662 -1.1408 -0.5412 -1.8922
 4686TIP3    H235694   1.438   5.774   0.642  1.4628  0.4950  4.2232
 4687TIP3   OH235695   3.101   1.250   0.862 -0.0258  0.2481 -0.1757
 4687TIP3    H135696   3.054   1.299   0.928 -0.7518  2.4234 -2.1591
 4687TIP3    H235697   3.190   1.284   0.865  0.0281  0.1040 -0.1086
 4688TIP3   OH235698   3.182   0.139   7.852 -0.4764  0.2378  0.3521
 4688TIP3    H135699   3.113   0.191   7.894  1.1697  1.2729  1.9423
 4688TIP3    H235700   3.225   0.199   7.791  0.8148  0.5319  1.4896
 4689TIP3   OH235701   1.192   6.189   7.296  0.4505 -0.0442  0.0456
 4689TIP3    H135702   1.142   6.254   7.346 -1.6066 -0.2905 -1.5949
 4689TIP3    H235703   1.283   6.207   7.321 -0.2753  1.3962  2.0164
 4690TIP3   OH235704   3.257   5.288   1.500  0.4111 -0.3717 -0.3272
 4690TIP3    H135705   3.188   5.314   1.561  0.8223  0.8908 -0.3761
 4690TIP3    H235706   3.311   5.366   1.491  1.1983 -1.0022 -1.1728
 4691TIP3   OH235707   3.586   2.754   8.332 -0.3537 -0.2795 -0.6865
 4691TIP3    H135708   3.541   2.677   8.297  0.0236 -0.8165 -0.0094
 4691TIP3    H235709   3.536   2.777   8.411  0.5662 -0.9184  0.1092
 4692TIP3   OH235710   6.354   1.181   1.416 -0.5686  0.4530 -0.1434
 4692TIP3    H135711   6.360   1.105   1.475  0.4063 -0.5119 -1.4359
 4692TIP3    H235712   6.284   1.234   1.454 -0.5306 -0.5285  1.4263
 4693TIP3   OH235713   4.627   4.437   8.303 -0.3222 -0.5182 -0.7347
 4693TIP3    H135714   4.647   4.520   8.261  0.4527 -0.9077 -1.1543
 4693TIP3    H235715   4.709   4.410   8.344 -1.0893 -0.0735  1.2014
 4694TIP3   OH235716   5.594   2.714   1.476  0.0461  0.7849 -0.4316
 4694TIP3    H135717   5.547   2.708   1.392  0.5775  0.3143 -0.7008
 4694TIP3    H235718   5.606   2.623   1.503  0.9591  0.8866 -0.4639
 4695TIP3   OH235719   3.112   3.404   1.762  0.1653 -0.2073 -1.0131
 4695TIP3    H135720   3.108   3.474   1.697  0.4615 -1.0676 -1.9893
 4695TIP3    H235721   3.052   3.432   1.831  1.0490  1.4918 -0.8737
 4696TIP3   OH235722   3.936   4.305   7.371 -0.0273 -0.1073  0.0059
 4696TIP3    H135723   3.950   4.249   7.447 -2.6676 -0.2834  0.4723
 4696TIP3    H235724   3.934   4.244   7.297  0.5014 -0.1908  0.0587
 4697TIP3   OH235725   1.340   2.425   2.539 -0.4826 -0.2230  0.1787
 4697TIP3    H135726   1.347   2.518   2.515  0.1375 -0.0178  1.1051
 4697TIP3    H235727   1.417   2.384   2.499  0.5513  0.1192  1.7478
 4698TIP3   OH235728   2.379   3.812   0.117 -0.4794 -0.3989 -0.0831
 4698TIP3    H135729   2.314   3.742   0.123  0.7395 -1.6379 -0.5607
 4698TIP3    H235730   2.422   3.813   0.202 -1.0441  0.3564  0.2024
 4699TIP3   OH235731   5.737   6.723   7.191 -0.5462  0.0524  0.2250
 4699TIP3    H135732   5.681   6.668   7.136  0.2407 -0.1283 -0.4283
 4699TIP3    H235733   5.769   6.663   7.259  0.0370 -0.2390 -0.2870
 4700TIP3   OH235734   4.772   4.546   8.574  0.2791  0.2764  0.2841
 4700TIP3    H135735   4.694   4.534   8.628  0.7000  0.7001  0.9920
 4700TIP3    H235736   4.839   4.494   8.618  0.6642  0.7470  0.2584
 4701TIP3   OH235737   6.459   5.353   6.534  0.3757  0.9695  0.0660
 4701TIP3    H135738   6.554   5.344   6.521  0.0536 -0.1298 -1.9618
 4701TIP3    H235739   6.425   5.265   6.522 -1.1343  1.7383 -1.6982
 4702TIP3   OH235740   1.017   1.851   8.410  0.1230  0.3599  0.2553
 4702TIP3    H135741   1.043   1.923   8.468  0.2244  0.7421 -0.2641
 4702TIP3    H235742   1.020   1.889   8.322  0.3445 -0.3296 -0.0360
 4703TIP3   OH235743   0.748   4.688   1.061 -0.3503 -0.4808  0.1102
 4703TIP3    H135744   0.798   4.742   1.122  1.1710 -0.2633 -1.2661
 4703TIP3    H235745   0.668   4.665   1.109 -0.2392  1.5341  1.3570
 4704TIP3   OH235746   2.620   4.052   8.694 -0.3333 -0.2046  0.8701
 4704TIP3    H135747   2.678   4.103   8.638  0.3327  0.6709  2.3039
 4704TIP3    H235748   2.622   3.963   8.657  0.4851  0.2294 -0.1669
 4705TIP3   OH235749   1.026   6.488   7.765 -0.1161 -0.0612  0.1687
 4705TIP3    H135750   0.971   6.512   7.691  2.8706 -2.1876 -3.0401
 4705TIP3    H235751   1.096   6.553   7.766  1.8875 -2.0712 -1.4070
 4706TIP3   OH235752   3.570   3.354   6.344  0.0697 -0.2723  0.2664
 4706TIP3    H135753   3.634   3.385   6.281 -0.8126  0.6272 -0.2033
 4706TIP3    H235754   3.575   3.416   6.417  0.3410 -0.7071  0.6284
 4707TIP3   OH235755   2.910   2.194   2.185 -0.8706  0.4241  0.6417
 4707TIP3    H135756   2.890   2.284   2.157  0.3204  0.4597 -0.1657
 4707TIP3    H235757   2.877   2.139   2.115  1.6292  0.4805 -0.6795
 4708TIP3   OH235758   5.474   6.431   0.842 -0.0839  0.0505 -0.0824
 4708TIP3    H135759   5.422   6.476   0.774 -0.5449  1.0651  0.9074
 4708TIP3    H235760   5.502   6.350   0.800 -1.8264 -0.1763 -0.9223
 4709TIP3   OH235761   1.035   3.671   8.615 -0.6888 -0.1136  0.2707
 4709TIP3    H135762   1.040   3.667   8.520  2.2356  0.7323  0.2951
 4709TIP3    H235763   1.080   3.592   8.645 -2.4909 -0.9187  1.0219
 4710TIP3   OH235764   3.980   3.287   1.346 -0.1775  0.2201 -0.1462
 4710TIP3    H135765   4.045   3.351   1.374  0.5510 -0.7595  0.5135
 4710TIP3    H235766   4.003   3.268   1.254 -0.3936  0.8819 -0.3399
 4711TIP3   OH235767   1.875   1.484   1.561 -0.3808 -0.2049  0.2155
 4711TIP3    H135768   1.803   1.525   1.513  0.0918 -2.1980 -2.3938
 4711TIP3    H235769   1.911   1.420   1.500  1.8709 -1.1985  2.4344
 4712TIP3   OH235770   1.792   3.266   2.054  0.9077 -0.1482 -0.3152
 4712TIP3    H135771   1.862   3.202   2.057  2.0839  1.1210  0.9790
 4712TIP3    H235772   1.794   3.309   2.140 -0.5605  0.8483 -0.7276
 4713TIP3   OH235773   1.903   2.275   7.848  0.1663 -0.0709  0.1152
 4713TIP3    H135774   1.932   2.184   7.853 -1.9780 -0.7762  1.1542
 4713TIP3    H235775   1.902   2.305   7.939  0.4166  0.8549 -0.1787
 4714TIP3   OH235776   6.291   6.038   0.143 -0.1557  0.4567 -0.0633
 4714TIP3    H135777   6.362   5.977   0.123  1.9126  2.3504  1.0811
 4714TIP3    H235778   6.285   6.094   0.065 -0.7838 -0.0470 -0.3797
 4715TIP3   OH235779   4.408   0.623   1.992  1.2314  0.1085  0.4076
 4715TIP3    H135780   4.395   0.717   2.003  0.1603  0.1011 -0.4986
 4715TIP3    H235781   4.389   0.585   2.078  0.1010  0.6038  0.4022
 4716TIP3   OH235782   2.943   0.463   1.265  0.2566  0.8076  0.1162
 4716TIP3    H135783   2.917   0.382   1.221  0.8853  0.7753 -0.2142
 4716TIP3    H235784   2.999   0.435   1.337  0.1466  0.9219  0.2454
 4717TIP3   OH235785   5.327   1.701   7.107 -0.2921  0.2946 -0.2255
 4717TIP3    H135786   5.369   1.737   7.029  1.6936  1.5214  1.3038
 4717TIP3    H235787   5.380   1.626   7.131 -1.8947 -1.1251 -0.9532
 4718TIP3   OH235788   3.810   6.463   1.417  0.1813 -0.1490  0.0289
 4718TIP3    H135789   3.768   6.437   1.499  1.3640 -0.8549  0.4437
 4718TIP3    H235790   3.808   6.559   1.418  2.0995 -0.0516  1.9679
 4719TIP3   OH235791   3.959   6.110   8.763 -0.0013  0.2493 -0.8539
 4719TIP3    H135792   3.930   6.071   8.680  3.2748 -1.8863 -1.1788
 4719TIP3    H235793   4.000   6.192   8.738 -1.7872  1.1805 -0.8828
 4720TIP3   OH235794   2.678   5.868   0.269  0.2781  0.2216  0.0238
 4720TIP3    H135795   2.774   5.872   0.275  0.2262  0.3832  0.9398
 4720TIP3    H235796   2.660   5.858   0.175  1.2522 -1.6246 -0.0164
 4721TIP3   OH235797   1.588   2.827   8.792  0.1987 -0.8445  0.0226
 4721TIP3    H135798   1.657   2.888   8.763 -1.2335  0.9989  0.2680
 4721TIP3    H235799   1.608   2.810   8.884 -0.8632  1.5540  0.7841
 4722TIP3   OH235800   0.284   3.606   7.676  0.3173 -0.2938  0.1031
 4722TIP3    H135801   0.248   3.646   7.755 -0.0474  0.5735 -0.4883
 4722TIP3    H235802   0.210   3.561   7.636  0.5363 -0.8640  0.3259
 4723TIP3   OH235803   4.948   6.554   2.382  0.3376 -0.2536  0.0621
 4723TIP3    H135804   4.940   6.559   2.286  0.8865 -0.5228 -0.0016
 4723TIP3    H235805   4.864   6.587   2.414  0.5758  0.9395 -0.4800
 4724TIP3   OH235806   1.853   5.117   1.010  0.1760 -0.3724 -0.4401
 4724TIP3    H135807   1.812   5.202   1.029 -0.4225 -0.6858 -0.3192
 4724TIP3    H235808   1.781   5.061   0.981  0.9661 -0.0387 -3.3461
 4725TIP3   OH235809   2.521   0.292   1.686  0.0667 -0.1921 -0.3067
 4725TIP3    H135810   2.579   0.342   1.629  0.2164  0.9134  0.7811
 4725TIP3    H235811   2.556   0.306   1.774 -2.0623  0.8524  0.4509
 4726TIP3   OH235812   5.573   6.284   0.118 -0.8366  0.1953 -0.1688
 4726TIP3    H135813   5.608   6.197   0.099 -2.1771 -0.9121  1.9915
 4726TIP3    H235814   5.623   6.343   0.062  0.2979 -1.9239 -1.5143
 4727TIP3   OH235815   1.707   6.481   7.984 -0.4073 -0.3372  0.0958
 4727TIP3    H135816   1.719   6.421   8.058  2.7078  0.8102  0.6888
 4727TIP3    H235817   1.748   6.435   7.911  0.5639  0.3586  0.1852
 4728TIP3   OH235818   3.119   2.414   2.265 -0.8876 -0.0532 -0.0137
 4728TIP3    H135819   3.034   2.440   2.230 -0.5456  1.4871  0.2341
 4728TIP3    H235820   3.098   2.359   2.340 -1.6377 -1.1367 -0.9822
 4729TIP3   OH235821   4.069   2.076   8.033 -0.4358  0.2699 -0.7155
 4729TIP3    H135822   3.986   2.068   7.987 -0.6116  0.5925 -0.4629
 4729TIP3    H235823   4.056   2.150   8.092  0.0970  0.4392 -0.8086
 4730TIP3   OH235824   3.331   1.199   7.196 -0.6391 -0.2922  0.3428
 4730TIP3    H135825   3.301   1.190   7.106  0.3635 -0.2256 -0.0163
 4730TIP3    H235826   3.425   1.214   7.188  0.0126 -3.1936  1.5092
 4731TIP3   OH235827   4.579   3.062   0.622  0.4431 -0.6406 -0.2953
 4731TIP3    H135828   4.540   3.093   0.541  1.4001 -0.1024 -0.5723
 4731TIP3    H235829   4.643   2.996   0.595 -0.9721 -2.2890  0.2263
 4732TIP3   OH235830   0.470   6.623   7.072  0.2910 -0.0269 -0.9476
 4732TIP3    H135831   0.442   6.564   7.002 -1.6378  0.5669 -0.7442
 4732TIP3    H235832   0.423   6.592   7.150  1.1065  0.3367 -0.2949
 4733TIP3   OH235833   1.936   3.116   7.102 -0.4949  0.0855  0.0433
 4733TIP3    H135834   1.946   3.170   7.024  1.0827  0.2931  0.3505
 4733TIP3    H235835   2.025   3.107   7.137 -0.7381 -2.4126  0.2107
 4734TIP3   OH235836   6.277   3.237   1.111  0.2657  0.0440 -0.4171
 4734TIP3    H135837   6.361   3.278   1.087  0.2788 -0.5378 -1.4357
 4734TIP3    H235838   6.265   3.259   1.203  1.6291 -0.0057 -0.2030
 4735TIP3   OH235839   2.777   0.151   2.003 -0.1117 -0.3732  0.1174
 4735TIP3    H135840   2.751   0.223   1.947  2.0137 -1.2854 -2.1841
 4735TIP3    H235841   2.703   0.090   1.999 -0.7336  0.3881 -0.2112
 4736TIP3   OH235842   4.472   3.679   2.270 -0.2345 -0.6472  0.3896
 4736TIP3    H135843   4.488   3.765   2.310 -2.2715 -0.3024  0.5884
 4736TIP3    H235844   4.493   3.616   2.338  2.7755 -0.4677 -0.2400
 4737TIP3   OH235845   4.108   0.766   1.022  0.1873  0.2517  0.4823
 4737TIP3    H135846   4.184   0.825   1.025 -1.6855  2.7837  0.8470
 4737TIP3    H235847   4.126   0.709   0.947  2.0135  1.4030 -0.0349
 4738TIP3   OH235848   0.397   5.336   7.989 -0.3422 -0.1566  0.8588
 4738TIP3    H135849   0.485   5.303   7.972 -0.7004  0.4301 -2.8735
 4738TIP3    H235850   0.342   5.258   7.987 -0.4095 -0.1201 -1.6488
 4739TIP3   OH235851   0.357   4.363   8.620 -0.1607 -0.0148  0.0395
 4739TIP3    H135852   0.422   4.382   8.687 -0.6731 -0.4620  0.6705
 4739TIP3    H235853   0.382   4.419   8.546  0.7383  0.0617  0.3898
 4740TIP3   OH235854   3.561   1.196   8.515  0.0030  0.1202 -0.4042
 4740TIP3    H135855   3.505   1.244   8.453  0.9920  0.2279 -1.2381
 4740TIP3    H235856   3.626   1.260   8.544 -0.6174  0.1488  0.9945
 4741TIP3   OH235857   5.077   0.336   7.577  0.1897 -0.4714  0.4255
 4741TIP3    H135858   5.066   0.428   7.601 -0.1120 -0.3852 -0.0242
 4741TIP3    H235859   5.169   0.328   7.551  0.2798 -0.3559  0.7122
 4742TIP3   OH235860   2.705   5.136   1.725  0.2965  0.1578 -0.2874
 4742TIP3    H135861   2.693   5.120   1.819  2.7363  1.0416  0.2467
 4742TIP3    H235862   2.648   5.210   1.706 -0.7712 -0.4849  0.3031
 4743TIP3   OH235863   5.081   1.123   7.781 -0.1353  0.2615  0.5207
 4743TIP3    H135864   5.008   1.118   7.719  0.1843  1.2996  0.0443
 4743TIP3    H235865   5.040   1.135   7.866 -0.5268  2.5367  0.0713
 4744TIP3   OH235866   3.344   5.450   7.067  0.4259 -0.4111 -0.2817
 4744TIP3    H135867   3.408   5.453   6.995  0.0557 -2.1412 -0.7512
 4744TIP3    H235868   3.321   5.357   7.073 -2.1130  0.1624 -0.1916
 4745TIP3   OH235869   6.815   1.948   2.140 -0.3949 -0.3681 -0.6835
 4745TIP3    H135870   6.773   2.030   2.164 -1.3358 -1.3146  1.0708
 4745TIP3    H235871   6.901   1.951   2.182  0.0064  0.1438 -1.5101
 4746TIP3   OH235872   2.515   5.485   0.495 -0.2429 -0.2179 -0.3183
 4746TIP3    H135873   2.505   5.513   0.404 -0.8196  1.1346  0.1353
 4746TIP3    H235874   2.608   5.497   0.513 -0.3094  0.5080 -0.4263
 4747TIP3   OH235875   3.265   3.754   7.231  0.0246 -0.5354 -0.0721
 4747TIP3    H135876   3.263   3.794   7.318  0.3537 -0.4377 -0.1083
 4747TIP3    H235877   3.195   3.799   7.182  0.3681 -0.0253 -0.1013
 4748TIP3   OH235878   1.430   2.740   7.488  0.7614  0.3138 -0.4212
 4748TIP3    H135879   1.467   2.789   7.415 -0.0257 -0.7494 -1.5737
 4748TIP3    H235880   1.480   2.659   7.490  0.5801  0.2111  0.0414
 4749TIP3   OH235881   3.640   2.353   1.013 -0.3479 -0.3396  0.2277
 4749TIP3    H135882   3.664   2.420   1.077  0.4985  2.0778 -2.4770
 4749TIP3    H235883   3.544   2.353   1.014 -0.3511  0.6999  0.4723
 4750TIP3   OH235884   6.762   3.609   0.303  0.3244  0.1897 -0.3215
 4750TIP3    H135885   6.695   3.667   0.339  0.3817 -0.7099  1.3250
 4750TIP3    H235886   6.715   3.556   0.239 -1.0293 -1.6233  2.0225
 4751TIP3   OH235887   3.645   4.432   7.754  0.3037 -0.3834 -0.5672
 4751TIP3    H135888   3.632   4.494   7.683  1.4991  0.5977  0.0303
 4751TIP3    H235889   3.581   4.363   7.738 -2.1028  1.6833 -0.4321
 4752TIP3   OH235890   4.939   5.458   8.349 -0.1343 -0.5925 -0.5918
 4752TIP3    H135891   4.865   5.490   8.401  0.0692 -3.0737  1.4307
 4752TIP3    H235892   4.923   5.492   8.261 -2.0281  1.4492  0.4409
 4753TIP3   OH235893   1.392   1.963   1.182  0.2496 -0.3544 -0.1394
 4753TIP3    H135894   1.404   1.922   1.096  0.6893 -0.9095  0.1801
 4753TIP3    H235895   1.386   1.889   1.243 -2.5166 -0.0975  0.0380
 4754TIP3   OH235896   4.630   5.588   0.303 -0.8089 -0.7258  0.2628
 4754TIP3    H135897   4.616   5.524   0.233 -1.0590 -0.7209  0.3096
 4754TIP3    H235898   4.718   5.567   0.337  1.1400  1.7438 -2.6942
 4755TIP3   OH235899   4.370   1.135   2.173  0.5080 -0.1187  0.2173
 4755TIP3    H135900   4.360   1.160   2.265  0.4246  0.4649  0.0558
 4755TIP3    H235901   4.433   1.198   2.138  1.7005 -1.2713  0.2334
 4756TIP3   OH235902   3.862   5.789   7.297  0.1430  0.2838 -0.0606
 4756TIP3    H135903   3.921   5.783   7.222  1.1277 -0.8828  0.7492
 4756TIP3    H235904   3.920   5.810   7.371 -0.3668 -1.2486  0.8175
 4757TIP3   OH235905   6.433   5.483   1.157 -0.0922  0.4690  0.2574
 4757TIP3    H135906   6.365   5.551   1.153  0.3328  1.0718  2.2683
 4757TIP3    H235907   6.514   5.529   1.134 -0.1032  0.1268 -0.4965
 4758TIP3   OH235908   5.509   0.892   7.497 -0.1749  0.4385 -0.3569
 4758TIP3    H135909   5.506   0.799   7.477  0.5646  0.3752 -0.2141
 4758TIP3    H235910   5.463   0.934   7.424 -1.8074 -0.1201  0.3125
 4759TIP3   OH235911   1.021   2.249   1.644  0.1720  0.1663 -0.9225
 4759TIP3    H135912   1.059   2.266   1.558  0.3464  1.0349 -0.6748
 4759TIP3    H235913   1.095   2.252   1.705  0.0958 -0.7198 -0.7641
 4760TIP3   OH235914   1.729   3.359   7.163 -0.0965  0.1442 -0.0883
 4760TIP3    H135915   1.698   3.292   7.103 -0.5229  0.8315 -0.6525
 4760TIP3    H235916   1.681   3.343   7.244  1.1915 -1.3883  0.4254
 4761TIP3   OH235917   0.765   2.968   6.704 -0.1163 -0.1393  0.2656
 4761TIP3    H135918   0.817   2.912   6.762 -0.5410 -0.0118  0.7771
 4761TIP3    H235919   0.809   3.053   6.707 -1.7936  0.7352  2.7865
 4762TIP3   OH235920   0.352   1.785   8.565  0.3419  0.1022 -0.6749
 4762TIP3    H135921   0.331   1.699   8.601 -0.1218  0.3741 -0.2923
 4762TIP3    H235922   0.442   1.775   8.532  0.3219 -0.5045 -0.5680
 4763TIP3   OH235923   0.492   6.130   1.657  0.5233 -0.7834 -0.0352
 4763TIP3    H135924   0.492   6.223   1.634  1.8416 -0.7967 -0.1733
 4763TIP3    H235925   0.492   6.129   1.752  2.6942 -0.5647  0.0186
 4764TIP3   OH235926   0.186   3.149   7.375  0.3600 -0.0427 -0.3914
 4764TIP3    H135927   0.166   3.055   7.370  0.4519 -0.0144 -1.6815
 4764TIP3    H235928   0.281   3.153   7.368  0.5938  0.0445  1.9803
 4765TIP3   OH235929   1.996   2.822   6.945  0.2415 -0.0985  0.3512
 4765TIP3    H135930   2.046   2.856   7.019 -1.1917 -0.5967  1.6087
 4765TIP3    H235931   2.004   2.727   6.952  0.9655 -0.1459 -0.7981
 4766TIP3   OH235932   0.486   5.236   0.623 -0.6627  0.1031 -0.2053
 4766TIP3    H135933   0.488   5.162   0.684 -0.8399 -0.0291 -0.3600
 4766TIP3    H235934   0.516   5.311   0.675 -1.7757  0.1956  0.3299
 4767TIP3   OH235935   2.266   0.934   7.798  0.9228 -0.5285 -0.2746
 4767TIP3    H135936   2.328   0.882   7.747 -1.2202 -0.9016 -2.7027
 4767TIP3    H235937   2.269   1.021   7.759  0.4379 -0.3580  0.0542
 4768TIP3   OH235938   1.463   2.452   0.902  0.2023  0.5110 -0.1848
 4768TIP3    H135939   1.480   2.528   0.845 -1.4708  1.0370 -0.0448
 4768TIP3    H235940   1.416   2.391   0.845  1.0035 -0.1803 -0.1209
 4769TIP3   OH235941   2.965   0.988   1.460 -0.0883  1.4129  0.5864
 4769TIP3    H135942   3.044   1.035   1.489  1.8417 -2.2981  1.9061
 4769TIP3    H235943   2.984   0.962   1.370  0.1051  0.7572  0.8115
 4770TIP3   OH235944   0.757   6.461   0.270  0.2794  0.2964 -0.2441
 4770TIP3    H135945   0.669   6.431   0.247 -0.1321  0.7522  0.7133
 4770TIP3    H235946   0.813   6.386   0.249 -0.5892 -0.7570  1.0369
 4771TIP3   OH235947   2.344   0.536   7.493 -0.3505 -0.1202 -0.0559
 4771TIP3    H135948   2.412   0.489   7.542  1.2170  0.4145 -1.6053
 4771TIP3    H235949   2.262   0.498   7.524  0.4946  0.2788  3.0584
 4772TIP3   OH235950   1.399   0.440   1.571  0.2870  0.4642  0.3894
 4772TIP3    H135951   1.408   0.536   1.569  0.6246  0.4283 -0.0721
 4772TIP3    H235952   1.384   0.419   1.663 -0.1236  0.9902  0.4486
 4773TIP3   OH235953   3.055   1.085   6.673 -0.0929  0.0482  0.4747
 4773TIP3    H135954   3.027   1.146   6.604  1.0251  0.4784  0.3793
 4773TIP3    H235955   2.976   1.071   6.726 -0.8546  0.0805 -0.6119
 4774TIP3   OH235956   0.118   4.836   1.111 -0.2612 -0.1466 -0.2535
 4774TIP3    H135957   0.134   4.906   1.174  0.4585 -2.0159  1.7879
 4774TIP3    H235958   0.187   4.772   1.128 -0.6856 -1.2360 -2.2685
 4775TIP3   OH235959   5.962   6.326   6.999  0.3130 -0.1305  0.2137
 4775TIP3    H135960   5.928   6.253   6.947  0.9501  1.3774 -2.5322
 4775TIP3    H235961   6.027   6.287   7.056  0.5618 -1.7481 -1.1048
 4776TIP3   OH235962   0.855   5.896   1.009  0.0158 -0.2326  0.3025
 4776TIP3    H135963   0.915   5.896   0.934 -0.0117 -1.2532  0.2653
 4776TIP3    H235964   0.889   5.963   1.068 -0.5099  1.2912 -1.0389
 4777TIP3   OH235965   2.798   2.122   2.421  0.0983 -0.1370 -0.4047
 4777TIP3    H135966   2.834   2.182   2.355 -1.3846  1.9190  0.5536
 4777TIP3    H235967   2.872   2.103   2.478  0.7014  0.3990 -0.9875
 4778TIP3   OH235968   3.697   3.058   1.183  0.3126 -0.0162  0.2804
 4778TIP3    H135969   3.762   3.062   1.113 -1.2575 -1.0719 -1.3221
 4778TIP3    H235970   3.613   3.064   1.137 -0.7454  0.5183  2.2071
 4779TIP3   OH235971   6.653   3.674   8.083  0.6626  0.0305  0.0390
 4779TIP3    H135972   6.619   3.758   8.052 -1.7714 -0.4840  1.1033
 4779TIP3    H235973   6.681   3.691   8.173  0.3071 -0.2734  0.2066
 4780TIP3   OH235974   1.872   4.464   1.029  0.0900 -0.1028 -0.1530
 4780TIP3    H135975   1.799   4.486   1.087  0.6458 -0.6533  0.7769
 4780TIP3    H235976   1.845   4.383   0.985 -0.0114 -0.1008 -0.0925
 4781TIP3   OH235977   2.625   1.840   7.308 -0.1601 -0.1992  0.2651
 4781TIP3    H135978   2.658   1.770   7.252 -1.7527 -1.9034  1.3681
 4781TIP3    H235979   2.614   1.800   7.394 -1.4835  1.2831  0.8423
 4782TIP3   OH235980   4.762   0.123   1.591  0.3889  0.4687  0.1023
 4782TIP3    H135981   4.783   0.070   1.514  1.2558  0.0600  0.5922
 4782TIP3    H235982   4.670   0.144   1.582  0.0541 -1.0114 -0.1977
 4783TIP3   OH235983   2.312   4.179   8.511  0.0121 -0.0775  0.7475
 4783TIP3    H135984   2.334   4.246   8.576 -0.3285 -0.9708  1.8191
 4783TIP3    H235985   2.395   4.135   8.492  0.5692  1.7203 -1.2596
 4784TIP3   OH235986   0.559   4.130   1.640 -0.1413  1.0137 -0.2055
 4784TIP3    H135987   0.622   4.120   1.710 -2.3534 -0.5991  1.6976
 4784TIP3    H235988   0.585   4.066   1.574 -0.2773 -0.3381  0.9990
 4785TIP3   OH235989   2.132   3.801   7.839 -0.2368 -0.3665  0.1577
 4785TIP3    H135990   2.171   3.729   7.890  0.9827  0.3418  0.2556
 4785TIP3    H235991   2.192   3.814   7.766 -0.7832  0.1482 -0.2110
 4786TIP3   OH235992   3.002   4.404   8.417 -0.3816 -0.1858 -0.3533
 4786TIP3    H135993   3.061   4.354   8.361 -2.4464 -0.7815 -2.1491
 4786TIP3    H235994   2.994   4.351   8.496  0.2473 -0.9073 -0.7548
 4787TIP3   OH235995   5.944   3.681   0.742 -0.4341  0.0266  0.8471
 4787TIP3    H135996   5.885   3.675   0.817 -2.4059  0.3479 -0.6111
 4787TIP3    H235997   5.932   3.598   0.695 -0.6692  0.5854 -0.1145
 4788TIP3   OH235998   3.965   5.395   0.375 -0.0767 -0.2320 -0.5490
 4788TIP3    H135999   3.888   5.360   0.420  0.7502 -3.5569 -1.3977
 4788TIP3    H236000   3.943   5.388   0.282  0.4243  0.9683 -0.7745
 4789TIP3   OH236001   4.457   0.016   7.293  0.4084  0.0779 -0.2674
 4789TIP3    H136002   4.403  -0.037   7.352  0.7919  0.6393  0.6241
 4789TIP3    H236003   4.395   0.058   7.234 -0.1604  0.7330  0.7612
 4790TIP3   OH236004   5.661   5.197   1.493  0.0334 -0.1496 -0.6796
 4790TIP3    H136005   5.617   5.124   1.535 -0.4269  1.0548  1.0612
 4790TIP3    H236006   5.604   5.221   1.420 -1.5714  0.5521  0.7538
 4791TIP3   OH236007   3.100   1.775   1.911  0.0961 -0.6309  0.3356
 4791TIP3    H136008   3.072   1.794   1.822 -1.5162  0.5002  1.0347
 4791TIP3    H236009   3.177   1.719   1.901 -0.2766 -0.8370 -1.7421
 4792TIP3   OH236010   1.151   5.560   0.951  0.6515 -0.0046 -0.3399
 4792TIP3    H136011   1.074   5.604   0.985  0.3694  1.4268 -2.5709
 4792TIP3    H236012   1.136   5.467   0.968 -0.8110  0.3913  0.6613
 4793TIP3   OH236013   6.770   3.526   2.394  0.2772  0.2949  0.4143
 4793TIP3    H136014   6.727   3.530   2.479 -1.1542  0.1726 -0.2803
 4793TIP3    H236015   6.794   3.617   2.375 -1.8828  0.7907 -0.2475
 4794TIP3   OH236016   5.969   0.574   0.873 -0.4763  0.1198 -0.1217
 4794TIP3    H136017   5.894   0.579   0.933  0.5904 -0.7184  1.3257
 4794TIP3    H236018   5.929   0.578   0.786 -2.2523 -0.5949  0.5997
 4795TIP3   OH236019   3.611   3.358   1.320 -0.3938 -0.1983  0.1690
 4795TIP3    H136020   3.635   3.352   1.413 -2.4381 -1.9888  0.6686
 4795TIP3    H236021   3.614   3.268   1.288 -2.2603  0.0300 -0.7717
 4796TIP3   OH236022   2.647   0.666   1.526 -0.2676  0.1104  0.1930
 4796TIP3    H136023   2.682   0.691   1.440 -1.2792  0.2792 -0.1895
 4796TIP3    H236024   2.681   0.578   1.541 -1.5321 -0.6856 -1.2521
 4797TIP3   OH236025   6.181   5.644   1.121 -0.4397  0.3783  0.0527
 4797TIP3    H136026   6.110   5.579   1.122 -1.2043  1.1918  1.3312
 4797TIP3    H236027   6.142   5.722   1.080 -1.0894  1.6150  2.8041
 4798TIP3   OH236028   1.186   0.106   7.909  0.1489 -0.6311  0.1571
 4798TIP3    H136029   1.152   0.160   7.980  1.7801  0.2397  0.3222
 4798TIP3    H236030   1.141   0.137   7.831 -1.3109 -1.2772  0.7001
 4799TIP3   OH236031   5.768   3.116   0.031 -0.0952  0.6822  0.0875
 4799TIP3    H136032   5.744   3.068   0.110 -1.4690  1.4292  0.1585
 4799TIP3    H236033   5.861   3.100   0.020 -0.2481 -0.9215  0.8329
 4800TIP3   OH236034   1.234   6.316   7.838  0.0445  0.1673 -0.7320
 4800TIP3    H136035   1.174   6.389   7.819 -0.9932  0.7024  3.5190
 4800TIP3    H236036   1.177   6.248   7.875  1.6341 -0.6242  0.3808
 4801TIP3   OH236037   1.508   0.099   8.540 -0.7228  0.6425  0.1479
 4801TIP3    H136038   1.542   0.072   8.454 -2.6119  0.0943 -0.4856
 4801TIP3    H236039   1.480   0.017   8.581 -1.5727  1.0765  0.4653
 4802TIP3   OH236040   6.821   0.325   0.780 -0.3738  0.9400 -0.0332
 4802TIP3    H136041   6.850   0.243   0.820  1.0282  1.8328  0.8687
 4802TIP3    H236042   6.873   0.392   0.823  0.6353  2.0516 -2.7764
 4803TIP3   OH236043   1.532   3.602   1.009  0.2616  0.0133  0.4217
 4803TIP3    H136044   1.593   3.631   0.940 -0.6713 -1.9305 -1.3221
 4803TIP3    H236045   1.581   3.537   1.058 -0.0026 -0.7015 -0.2473
 4804TIP3   OH236046   2.166   2.055   0.372 -0.3584  0.2004  0.1060
 4804TIP3    H136047   2.228   1.984   0.390  0.2824  1.0801  1.5709
 4804TIP3    H236048   2.151   2.095   0.458 -0.9813  1.6023 -0.6373
 4805TIP3   OH236049   4.303   4.449   0.902 -0.5089 -0.4981  0.4879
 4805TIP3    H136050   4.394   4.468   0.880 -0.9012  0.2234 -0.6416
 4805TIP3    H236051   4.301   4.355   0.920  0.1008 -0.9549 -1.5557
 4806TIP3   OH236052   4.285   6.031   7.098  0.2097 -0.1424 -0.4543
 4806TIP3    H136053   4.229   5.997   7.168 -1.8126  0.2476 -1.7840
 4806TIP3    H236054   4.356   5.968   7.090  1.9971  1.0192  3.5647
 4807TIP3   OH236055   3.169   4.145   8.384 -0.1702  0.0253  0.4427
 4807TIP3    H136056   3.154   4.063   8.336 -0.9540  0.0319  0.6656
 4807TIP3    H236057   3.123   4.133   8.467  0.3560  0.3986  0.7939
 4808TIP3   OH236058   3.628   4.969   1.785 -0.3513  0.1507  0.0260
 4808TIP3    H136059   3.614   4.885   1.830 -2.7061 -0.7066 -2.0420
 4808TIP3    H236060   3.592   5.034   1.845 -1.6286 -0.7368  0.2780
 4809TIP3   OH236061   2.977   4.391   1.623 -0.4613  0.5633  0.7259
 4809TIP3    H136062   3.052   4.396   1.682  0.4022 -1.0100 -0.1692
 4809TIP3    H236063   2.985   4.470   1.568 -0.5750  1.3860  1.8471
 4810TIP3   OH236064   1.399   0.976   2.238 -0.2685  0.4990 -0.4052
 4810TIP3    H136065   1.312   0.939   2.221 -0.1715  0.1522 -0.1576
 4810TIP3    H236066   1.414   1.035   2.164 -1.4416  1.9167  0.4339
 4811TIP3   OH236067   1.389   3.745   1.205  0.5369 -0.0848  0.2910
 4811TIP3    H136068   1.448   3.711   1.139  1.8543 -1.5509  2.1410
 4811TIP3    H236069   1.445   3.769   1.278 -0.7504  2.5493  0.5521
 4812TIP3   OH236070   1.914   0.561   8.629 -0.3247 -0.6442  0.3664
 4812TIP3    H136071   1.826   0.540   8.597 -0.0476 -1.1209 -0.0837
 4812TIP3    H236072   1.937   0.486   8.684 -1.0311  0.4126  2.1953
 4813TIP3   OH236073   1.901   0.061   6.879  0.1459 -0.2278  0.3131
 4813TIP3    H136074   1.990   0.096   6.878 -0.1670  0.6514 -1.3641
 4813TIP3    H236075   1.864   0.087   6.794 -2.4000  1.1907  1.7354
 4814TIP3   OH236076   3.012   2.198   0.797 -0.6813  0.5008 -0.1782
 4814TIP3    H136077   2.936   2.197   0.854 -0.1709  0.9770  0.5209
 4814TIP3    H236078   3.036   2.105   0.787 -1.9492  0.2496 -1.2524
 4815TIP3   OH236079   2.447   3.034   0.589  0.5345 -0.2955 -0.1918
 4815TIP3    H136080   2.524   3.083   0.562 -0.1308  0.7053 -0.3531
 4815TIP3    H236081   2.472   2.942   0.581  1.5565  0.0126 -0.6543
 4816TIP3   OH236082   1.295   3.622   8.428 -0.0377  0.0514  0.0494
 4816TIP3    H136083   1.385   3.616   8.396 -0.2585  0.8027 -0.7512
 4816TIP3    H236084   1.290   3.556   8.497  1.3865  0.6311  0.7362
 4817TIP3   OH236085   1.985   5.815   6.785 -0.5237 -0.1341 -0.2950
 4817TIP3    H136086   1.903   5.844   6.825 -0.1675  0.9991 -0.3443
 4817TIP3    H236087   1.958   5.771   6.704 -1.1076 -0.1493 -0.0944
 4818TIP3   OH236088   3.736   2.831   7.970  0.0608 -0.3252 -0.2791
 4818TIP3    H136089   3.641   2.823   7.976  0.0842 -0.1789  0.3737
 4818TIP3    H236090   3.763   2.859   8.058  0.7145 -0.4649 -0.4323
 4819TIP3   OH236091   3.738   2.708   1.702 -0.5519  1.0318 -0.3233
 4819TIP3    H136092   3.763   2.629   1.654 -1.0848 -0.1264  1.2350
 4819TIP3    H236093   3.818   2.737   1.744  0.3754  3.1109 -3.2075
 4820TIP3   OH236094   5.953   2.598   7.731 -0.3627  0.0223  0.1175
 4820TIP3    H136095   6.018   2.609   7.800 -1.2323  1.4670  0.7325
 4820TIP3    H236096   5.901   2.678   7.733 -2.4125 -1.2284 -0.1009
 4821TIP3   OH236097   4.833   4.228   0.504 -0.2608 -0.7138 -0.3901
 4821TIP3    H136098   4.892   4.303   0.510  0.2838 -1.0725 -1.0805
 4821TIP3    H236099   4.779   4.233   0.583 -0.9996  1.0354 -0.9444
 4822TIP3   OH236100   1.548   4.376   0.828  0.3995  0.3001  0.1774
 4822TIP3    H136101   1.634   4.335   0.834  0.1606 -0.4188 -1.0383
 4822TIP3    H236102   1.538   4.396   0.735 -1.6849 -1.7097 -0.1016
 4823TIP3   OH236103   0.313   4.204   0.991 -0.4102  0.3056  0.5636
 4823TIP3    H136104   0.320   4.179   0.899  0.0676  0.2042  0.6277
 4823TIP3    H236105   0.219   4.217   1.005 -0.8700 -2.5409  0.8013
 4824TIP3   OH236106   1.349   5.886   7.948 -0.3094 -0.0871 -0.6482
 4824TIP3    H136107   1.279   5.945   7.977 -0.3523 -0.0525 -0.8239
 4824TIP3    H236108   1.321   5.799   7.978 -0.0451  0.0356 -0.0177
 4825TIP3   OH236109   6.017   2.549   8.633  0.6434  0.3801  0.4583
 4825TIP3    H136110   6.099   2.513   8.667  1.6956  0.2584 -2.0078
 4825TIP3    H236111   6.014   2.520   8.542 -4.0056 -2.7707  1.3229
 4826TIP3   OH236112   5.751   1.651   8.289  0.4972 -0.2592 -0.1786
 4826TIP3    H136113   5.831   1.618   8.248  1.3895  0.5021  0.9097
 4826TIP3    H236114   5.769   1.648   8.383 -1.0750 -0.8633  0.1346
 4827TIP3   OH236115   2.586   2.324   1.197  0.1972  0.4302  0.2636
 4827TIP3    H136116   2.566   2.239   1.236 -1.8046  0.7197 -0.0235
 4827TIP3    H236117   2.642   2.368   1.261  0.3656 -0.6932  0.9019
 4828TIP3   OH236118   5.005   4.957   8.274 -0.2339  0.1331 -0.0419
 4828TIP3    H136119   4.993   4.983   8.365  0.3359  1.7560 -0.4000
 4828TIP3    H236120   5.098   4.933   8.268 -0.3040 -0.1127 -0.1592
 4829TIP3   OH236121   5.338   5.954   8.100 -0.5623 -0.6278 -0.5215
 4829TIP3    H136122   5.278   5.929   8.029  0.0349 -1.5254 -0.7316
 4829TIP3    H236123   5.355   5.872   8.147  0.1111 -0.2976 -0.1776
 4830TIP3   OH236124   5.545   4.534   6.433 -0.1583 -0.1267 -0.2627
 4830TIP3    H136125   5.483   4.606   6.446  0.2856  0.0102  1.3562
 4830TIP3    H236126   5.623   4.576   6.397 -0.3486  0.0052 -0.5208
 4831TIP3   OH236127   1.465   4.403   7.751 -0.4501  0.7372  0.5070
 4831TIP3    H136128   1.544   4.446   7.718 -0.9538  1.9542  0.7957
 4831TIP3    H236129   1.393   4.458   7.720 -1.1112  0.2509  1.1311
 4832TIP3   OH236130   4.522   6.301   7.316 -0.3818 -0.3481  0.7554
 4832TIP3    H136131   4.580   6.365   7.358 -0.0375 -1.5262  2.1658
 4832TIP3    H236132   4.513   6.231   7.381 -2.3144 -0.8272  0.0276
 4833TIP3   OH236133   2.592   4.832   0.345 -0.1015  0.0138 -0.3225
 4833TIP3    H136134   2.516   4.878   0.308  0.4695 -1.1461 -3.2563
 4833TIP3    H236135   2.649   4.902   0.376 -0.2900  1.2495 -2.5027
 4834TIP3   OH236136   6.044   4.933   1.034 -1.0325 -0.2013 -0.6269
 4834TIP3    H136137   6.064   4.863   0.972 -0.9231 -0.7325 -0.0062
 4834TIP3    H236138   6.100   4.914   1.110 -0.6637  0.8247 -0.6308
 4835TIP3   OH236139   2.532   3.532   7.762  0.3237 -0.1391 -0.1937
 4835TIP3    H136140   2.466   3.469   7.736 -0.0580  0.3106 -0.3289
 4835TIP3    H236141   2.601   3.480   7.802 -0.0072 -0.6327 -0.2632
 4836TIP3   OH236142   0.381   2.028   6.861 -0.2035  0.0069  0.4641
 4836TIP3    H136143   0.352   2.118   6.848  0.4398  0.1043 -0.3517
 4836TIP3    H236144   0.440   2.010   6.788 -1.0640 -1.3904  0.0571
 4837TIP3   OH236145   4.329   1.130   0.305 -0.1085  0.3241  0.2402
 4837TIP3    H136146   4.383   1.061   0.343 -0.4553 -0.3109 -0.4018
 4837TIP3    H236147   4.279   1.165   0.378  0.7349  0.5214  0.7336
 4838TIP3   OH236148   5.531   3.748   2.261 -0.1742 -0.3650 -0.1447
 4838TIP3    H136149   5.464   3.749   2.329 -0.6540  1.4205 -0.5801
 4838TIP3    H236150   5.556   3.840   2.250  0.5877 -0.7133 -1.6862
 4839TIP3   OH236151   0.070   6.274   7.275 -0.1264  0.0204  0.1949
 4839TIP3    H136152   0.160   6.259   7.246 -1.2560 -1.5217 -2.9278
 4839TIP3    H236153   0.049   6.198   7.329 -0.1135 -0.6114 -0.6648
 4840TIP3   OH236154   0.758   2.140   1.649  0.7156  0.0985 -0.3753
 4840TIP3    H136155   0.839   2.190   1.643  0.6711  0.2003 -0.1442
 4840TIP3    H236156   0.780   2.063   1.700  0.2877  0.9519  1.1955
 4841TIP3   OH236157   6.589   3.328   0.431  0.1836  0.6166 -0.0727
 4841TIP3    H136158   6.632   3.352   0.513 -0.4645  0.8045  0.2247
 4841TIP3    H236159   6.660   3.320   0.367  1.4661 -4.4507  1.5340
 4842TIP3   OH236160   0.861   2.801   0.176  0.1770  0.1870 -0.5205
 4842TIP3    H136161   0.886   2.728   0.233 -0.1393 -0.4669 -1.2032
 4842TIP3    H236162   0.799   2.851   0.229  0.9544  0.3853  0.2271
 4843TIP3   OH236163   1.512   6.801   0.687 -0.2354  0.5238  0.1379
 4843TIP3    H136164   1.511   6.875   0.749 -1.7789  0.3886  0.2986
 4843TIP3    H236165   1.533   6.725   0.742  1.4706  0.8097 -0.0450
 4844TIP3   OH236166   5.601   5.279   7.274  0.0123 -0.1373  0.6569
 4844TIP3    H136167   5.659   5.348   7.242  0.7592 -0.0995  2.0183
 4844TIP3    H236168   5.573   5.233   7.195  0.9487  0.5862 -0.1272
 4845TIP3   OH236169   6.626   3.207   1.857  0.0007  0.4748 -0.3136
 4845TIP3    H136170   6.623   3.121   1.814 -0.6096 -0.7008  1.9155
 4845TIP3    H236171   6.551   3.254   1.821 -0.9288 -0.7491 -0.0512
 4846TIP3   OH236172   4.804   3.192   6.861 -0.0739  0.9570 -0.3502
 4846TIP3    H136173   4.834   3.117   6.809  2.2390 -1.1173  3.4790
 4846TIP3    H236174   4.710   3.196   6.844  0.1701 -0.9545 -2.8803
 4847TIP3   OH236175   2.592   6.274   0.933  0.1506 -0.7264  0.2761
 4847TIP3    H136176   2.517   6.333   0.938 -0.8714 -1.9410 -0.4451
 4847TIP3    H236177   2.645   6.297   1.009  0.0914  1.5087 -0.2836
 4848TIP3   OH236178   6.474   1.532   2.104  0.2546 -0.0337  0.1623
 4848TIP3    H136179   6.520   1.449   2.117 -0.3938 -0.5978 -1.0408
 4848TIP3    H236180   6.531   1.597   2.146  1.4418 -0.8996 -0.0431
 4849TIP3   OH236181   0.595   6.201   7.435  0.4826  0.4400 -0.1005
 4849TIP3    H136182   0.586   6.280   7.382 -0.7983  1.2924  1.2939
 4849TIP3    H236183   0.665   6.222   7.497  0.0196  0.5710  0.3867
 4850TIP3   OH236184   5.035   2.013   0.632  0.2520 -0.2503 -0.1386
 4850TIP3    H136185   4.987   2.089   0.665  1.1531  0.3483 -0.1853
 4850TIP3    H236186   5.085   1.982   0.708  0.8568 -0.0288 -0.4431
 4851TIP3   OH236187   1.293   2.913   6.264 -0.3195 -0.2990  0.2050
 4851TIP3    H136188   1.267   2.993   6.309 -0.7450 -0.2905 -0.0534
 4851TIP3    H236189   1.316   2.942   6.175  0.4064 -0.3312  0.3709
 4852TIP3   OH236190   4.378   1.944   1.753  0.2462  0.1393 -0.0796
 4852TIP3    H136191   4.438   1.900   1.813  1.1719  1.9305  0.3905
 4852TIP3    H236192   4.316   1.876   1.727  0.4529 -0.9559  2.0472
 4853TIP3   OH236193   1.999   1.793   1.495 -0.2302  0.5118  0.0541
 4853TIP3    H136194   2.060   1.725   1.524 -1.1723  0.0630  1.0593
 4853TIP3    H236195   1.941   1.748   1.433 -0.6810  0.4605  0.5070
 4854TIP3   OH236196   2.316   5.493   6.649 -0.7717  0.2967 -0.1949
 4854TIP3    H136197   2.322   5.529   6.738  0.2062 -0.8021  0.2085
 4854TIP3    H236198   2.268   5.411   6.660 -3.5754  1.6646 -1.2024
 4855TIP3   OH236199   1.891   2.100   1.209 -0.5410  0.0476  0.1298
 4855TIP3    H136200   1.889   2.195   1.214 -0.7032  0.2060 -2.0245
 4855TIP3    H236201   1.970   2.080   1.158 -0.8277 -0.9192  0.0390
 4856TIP3   OH236202   4.948   3.363   7.002  0.0678  0.3050 -0.1683
 4856TIP3    H136203   5.024   3.392   6.952  0.4370  0.8293  0.6725
 4856TIP3    H236204   4.903   3.302   6.944  0.3650  1.0574 -1.2225
 4857TIP3   OH236205   1.274   3.200   8.822  0.1132  0.0774  0.1794
 4857TIP3    H136206   1.358   3.246   8.824  0.4267 -0.5078  0.7180
 4857TIP3    H236207   1.256   3.178   8.913 -0.8976  0.6608  0.1329
 4858TIP3   OH236208   5.675   2.971   8.678  0.3893  0.5121 -0.1388
 4858TIP3    H136209   5.667   2.990   8.772  0.6845 -0.3679  0.0724
 4858TIP3    H236210   5.728   3.044   8.644  1.4205  0.1643  0.6346
 4859TIP3   OH236211   0.105   2.716   2.199  0.2077  0.0789  0.1968
 4859TIP3    H136212   0.166   2.781   2.164 -0.0774  0.3860  0.2635
 4859TIP3    H236213   0.020   2.760   2.199  0.3364  0.4045  2.0740
 4860TIP3   OH236214   4.069   4.151   7.180  0.0711 -0.1503  0.2906
 4860TIP3    H136215   4.155   4.131   7.218  0.4566  0.6291 -0.1643
 4860TIP3    H236216   4.082   4.144   7.086 -0.7196 -1.3933  0.2520
 4861TIP3   OH236217   2.733   6.758   7.535 -0.2877 -0.1649 -0.2347
 4861TIP3    H136218   2.713   6.718   7.450  0.2859 -0.5930 -0.1698
 4861TIP3    H236219   2.827   6.774   7.532  0.0637 -1.7896  0.9951
 4862TIP3   OH236220   5.837   0.706   1.479  0.7385  0.0421  0.1117
 4862TIP3    H136221   5.867   0.654   1.404 -0.8672 -0.8844  0.0712
 4862TIP3    H236222   5.875   0.662   1.555 -0.3491 -1.0593  0.0527
 4863TIP3   OH236223   1.398   6.410   0.005 -0.3073 -0.5582 -0.5480
 4863TIP3    H136224   1.473   6.449   0.051 -1.0894  0.4206 -0.0825
 4863TIP3    H236225   1.333   6.480   0.002 -2.1464 -2.0811  1.1870
 4864TIP3   OH236226   4.306   5.556   7.254 -0.5164 -0.5248 -0.1653
 4864TIP3    H136227   4.211   5.542   7.255 -0.7154  0.6767 -0.4735
 4864TIP3    H236228   4.326   5.584   7.343 -0.3381 -1.4317  0.0831
 4865TIP3   OH236229   3.088   3.139   0.357  0.5484  0.0495  0.4676
 4865TIP3    H136230   3.002   3.175   0.376 -1.0597 -3.1844  0.0947
 4865TIP3    H236231   3.116   3.097   0.438  0.8783 -0.4843  0.0929
 4866TIP3   OH236232   2.960   6.683   7.120  0.7361  0.6951  0.3334
 4866TIP3    H136233   2.915   6.621   7.063 -1.1722  1.0418  1.3838
 4866TIP3    H236234   3.046   6.643   7.135  0.2620 -0.7439 -0.5380
 4867TIP3   OH236235   4.912   6.347   6.688 -0.2399 -0.2695 -0.1299
 4867TIP3    H136236   4.984   6.411   6.692 -0.6216  0.1340  0.5759
 4867TIP3    H236237   4.894   6.337   6.595 -0.5107  1.0494 -0.2337
 4868TIP3   OH236238   3.519   2.652   1.509  0.6840  0.2835 -0.1737
 4868TIP3    H136239   3.569   2.724   1.547  1.2897 -1.1111  1.8843
 4868TIP3    H236240   3.455   2.630   1.577  0.1012 -0.7183 -1.0165
 4869TIP3   OH236241   4.369   2.444   6.682  0.0121 -0.4901  0.4868
 4869TIP3    H136242   4.410   2.358   6.676 -0.6031 -0.7376 -0.1666
 4869TIP3    H236243   4.378   2.481   6.594  1.6693  0.7684  1.1243
 4870TIP3   OH236244   0.415   5.123   0.370 -0.0816 -0.5935 -0.1677
 4870TIP3    H136245   0.321   5.139   0.361  0.3323  2.1119 -0.6931
 4870TIP3    H236246   0.437   5.158   0.456  0.6736  0.1992 -0.6697
 4871TIP3   OH236247   5.366   0.011   1.617 -0.0980 -0.4549 -0.1830
 4871TIP3    H136248   5.405   0.070   1.553 -0.7183  0.8682  0.6324
 4871TIP3    H236249   5.296  -0.033   1.569 -0.5687  0.5328 -0.4097
 4872TIP3   OH236250   5.483   0.406   7.040 -0.6156  0.2917 -0.7290
 4872TIP3    H136251   5.562   0.355   7.021 -0.1807  1.3309 -1.8286
 4872TIP3    H236252   5.428   0.347   7.092  0.6097 -0.6682 -0.4810
 4873TIP3   OH236253   2.143   1.612   8.006  0.3067 -0.0773 -0.7429
 4873TIP3    H136254   2.195   1.569   7.938  2.4755  0.3551  0.5497
 4873TIP3    H236255   2.156   1.558   8.084 -0.3480  0.6284 -0.1226
 4874TIP3   OH236256   0.272   3.967   8.072  0.2233  0.4505  0.4801
 4874TIP3    H136257   0.236   3.936   8.155 -0.4774  0.2186  0.1064
 4874TIP3    H236258   0.312   3.889   8.033 -0.2060  0.3503  0.2239
 4875TIP3   OH236259   2.893   1.583   1.884  0.1160 -0.2582  0.2116
 4875TIP3    H136260   2.977   1.627   1.877 -0.1845  0.4057  0.6576
 4875TIP3    H236261   2.912   1.498   1.924  0.7985 -0.8448 -1.3066
 4876TIP3   OH236262   1.661   5.061   0.318  0.0525 -1.0185  0.5167
 4876TIP3    H136263   1.735   5.105   0.360  0.7123 -2.1151  0.5222
 4876TIP3    H236264   1.590   5.067   0.382  0.5096 -1.0702  1.0353
 4877TIP3   OH236265   5.100   5.261   0.294  0.2317  0.6149 -0.6367
 4877TIP3    H136266   5.019   5.236   0.250 -0.2274  0.1013  0.4688
 4877TIP3    H236267   5.150   5.307   0.227 -0.8668  0.7310 -1.4075
 4878TIP3   OH236268   0.784   3.246   7.293  0.1478  0.1136 -0.1545
 4878TIP3    H136269   0.693   3.253   7.263 -0.5329 -0.9978  1.4707
 4878TIP3    H236270   0.833   3.217   7.215 -1.1081 -0.4068 -0.7806
 4879TIP3   OH236271   4.844   5.448   0.334 -0.6332  0.4404  0.8693
 4879TIP3    H136272   4.868   5.392   0.408  1.4566 -0.3946 -0.3327
 4879TIP3    H236273   4.856   5.393   0.257  1.4558  2.4140 -0.3716
 4880TIP3   OH236274   6.312   4.889   8.189 -0.1549  0.9520 -0.0206
 4880TIP3    H136275   6.387   4.831   8.203 -0.1166  1.1713  0.7036
 4880TIP3    H236276   6.330   4.932   8.105  0.7244  1.2849  0.3242
 4881TIP3   OH236277   4.758   2.879   1.171 -0.1164 -0.4563  0.3535
 4881TIP3    H136278   4.666   2.893   1.147 -0.3276  0.5801  1.6907
 4881TIP3    H236279   4.796   2.967   1.173  0.6893 -0.8044  0.6523
 4882TIP3   OH236280   4.081   1.544   0.471  0.0815 -0.1557 -0.5773
 4882TIP3    H136281   4.161   1.498   0.495 -0.1317 -0.7826 -1.0419
 4882TIP3    H236282   4.024   1.533   0.548  0.2145 -0.2349 -0.4897
 4883TIP3   OH236283   5.294   1.294   7.563 -0.5120  0.3935 -0.2250
 4883TIP3    H136284   5.298   1.200   7.580 -3.1742  0.4877  1.4392
 4883TIP3    H236285   5.359   1.331   7.624 -0.3996 -0.2720  0.0726
 4884TIP3   OH236286   5.926   0.411   7.115  0.0691 -0.1266 -0.6522
 4884TIP3    H136287   5.987   0.423   7.188 -2.6830  1.1841  1.6286
 4884TIP3    H236288   5.906   0.499   7.086 -0.5673 -0.5446 -1.5199
 4885TIP3   OH236289   1.057   5.203   6.985  0.9602 -0.1020 -0.2381
 4885TIP3    H136290   1.146   5.210   7.020  1.7743 -1.3960 -1.9334
 4885TIP3    H236291   1.068   5.185   6.892 -1.0821 -0.3222 -0.4944
 4886TIP3   OH236292   0.430   1.299   7.744 -0.7165 -0.5396 -0.7641
 4886TIP3    H136293   0.519   1.305   7.709 -0.9717 -1.6412 -1.6841
 4886TIP3    H236294   0.374   1.292   7.667 -1.4994 -0.9553 -0.1755
 4887TIP3   OH236295   5.033   0.337   8.678 -0.6839 -0.0143 -0.3430
 4887TIP3    H136296   4.967   0.375   8.621 -1.9522 -2.1734 -0.4268
 4887TIP3    H236297   5.015   0.375   8.765 -2.2216 -0.7726 -0.3156
 4888TIP3   OH236298   1.399   5.971   7.110  0.1217 -0.6700 -0.5921
 4888TIP3    H136299   1.477   6.023   7.092 -0.6045  1.2411  1.3736
 4888TIP3    H236300   1.326   6.026   7.080 -0.5442 -2.2359 -2.0012
 4889TIP3   OH236301   4.939   4.469   6.898  0.0533  0.0107  0.8290
 4889TIP3    H136302   4.884   4.460   6.976  0.3357 -0.9839  0.9247
 4889TIP3    H236303   4.892   4.421   6.830 -0.0263  0.5961  0.4659
 4890TIP3   OH236304   1.526   5.164   0.079  0.5097 -0.1933  0.2570
 4890TIP3    H136305   1.567   5.140   0.162  0.1349 -1.8332  0.0037
 4890TIP3    H236306   1.482   5.247   0.096  0.8923 -0.2400  1.5388
 4891TIP3   OH236307   1.734   6.139   2.180 -0.0629 -0.2634 -0.0131
 4891TIP3    H136308   1.751   6.076   2.110  0.8874  1.0355 -0.9965
 4891TIP3    H236309   1.653   6.108   2.221  1.2094 -3.0419  0.6328
 4892TIP3   OH236310   4.232   1.707   6.798  0.4497  0.3342 -0.0948
 4892TIP3    H136311   4.182   1.783   6.768 -1.6836 -0.8008  0.2972
 4892TIP3    H236312   4.169   1.635   6.793  2.0676 -1.1946  0.5822
 4893TIP3   OH236313   4.019   4.366   0.105  0.3123  0.5955 -0.3756
 4893TIP3    H136314   3.985   4.432   0.046  1.2527  2.8794  1.4719
 4893TIP3    H236315   4.022   4.409   0.191  0.9193 -1.8724  0.9628
 4894TIP3   OH236316   4.309   3.702   2.588  0.2417 -0.7229  0.4004
 4894TIP3    H136317   4.328   3.766   2.519  0.7655 -0.8688  0.4044
 4894TIP3    H236318   4.235   3.738   2.635 -0.8508 -1.1467 -0.9297
 4895TIP3   OH236319   5.533   1.304   0.771 -0.2844  0.3593  0.3435
 4895TIP3    H136320   5.445   1.335   0.749 -0.3637  0.9478  1.3932
 4895TIP3    H236321   5.524   1.210   0.782 -0.5837  0.2928 -0.4718
 4896TIP3   OH236322   0.457   5.976   0.633  0.0271 -0.2533 -0.1567
 4896TIP3    H136323   0.503   6.051   0.594  0.8676  1.0472  3.0056
 4896TIP3    H236324   0.375   5.970   0.584  0.8812  1.3768 -1.9114
 4897TIP3   OH236325   6.275   5.097   6.565  0.1939 -0.3579  0.0205
 4897TIP3    H136326   6.201   5.112   6.506  1.2957  2.9146 -0.7372
 4897TIP3    H236327   6.339   5.052   6.510  0.6031  1.2554 -0.8996
 4898TIP3   OH236328   1.954   3.376   7.293 -0.5401  0.2641  0.9460
 4898TIP3    H136329   2.014   3.323   7.241  0.6291  1.5751  0.9058
 4898TIP3    H236330   1.871   3.374   7.244  0.2459  0.6469 -0.4500
 4899TIP3   OH236331   0.300   6.471   0.928  0.1288 -0.3625 -0.1733
 4899TIP3    H136332   0.395   6.460   0.923  0.3237  0.6896  0.7755
 4899TIP3    H236333   0.283   6.488   1.020 -0.8818  0.3557 -0.4817
 4900TIP3   OH236334   2.192   0.299   0.421  0.0532  0.7332 -0.2508
 4900TIP3    H136335   2.160   0.298   0.511 -0.5490 -0.4701 -0.4649
 4900TIP3    H236336   2.276   0.254   0.425  0.1296  0.8750 -0.2552
 4901TIP3   OH236337   6.557   5.023   6.939  0.2635 -0.3291  0.2983
 4901TIP3    H136338   6.521   4.989   6.857 -0.6953 -1.0748  1.0062
 4901TIP3    H236339   6.650   4.999   6.935 -0.3228 -2.9747  0.6795
 4902TIP3   OH236340   5.560   5.062   8.834  0.1495  0.2836 -0.0755
 4902TIP3    H136341   5.606   4.989   8.793 -0.2956  0.1084 -0.2731
 4902TIP3    H236342   5.628   5.127   8.851  0.6550 -0.4042  0.6260
 4903TIP3   OH236343   2.466   0.791   0.650  0.4100 -0.3802  0.2172
 4903TIP3    H136344   2.466   0.860   0.716 -0.2095  0.4050 -0.5781
 4903TIP3    H236345   2.559   0.773   0.634  0.6105  0.8384 -0.1260
 4904TIP3   OH236346   1.411   0.201   8.168  0.0391  0.4341 -0.0230
 4904TIP3    H136347   1.483   0.257   8.141 -0.4908  0.2812 -1.8498
 4904TIP3    H236348   1.453   0.125   8.207  0.9015  0.0568 -1.6350
 4905TIP3   OH236349   2.216   6.395   0.361 -0.0497 -0.1306  0.3538
 4905TIP3    H136350   2.126   6.389   0.330  0.3379 -1.8879 -0.5978
 4905TIP3    H236351   2.217   6.472   0.418 -1.4384  1.8110 -1.9837
 4906TIP3   OH236352   5.496   4.593   1.862 -0.6172  0.2749 -0.1805
 4906TIP3    H136353   5.573   4.559   1.906 -0.1131 -0.3210 -1.4847
 4906TIP3    H236354   5.424   4.577   1.923  0.4434  2.1954  1.7244
 4907TIP3   OH236355   1.949   3.721   8.793  0.2119  0.2641  0.3447
 4907TIP3    H136356   1.976   3.812   8.779 -1.1892  0.5959 -0.3524
 4907TIP3    H236357   2.031   3.675   8.814  0.8752  1.7515  1.1706
 4908TIP3   OH236358   5.571   5.585   7.371 -0.6245  0.0726  0.0198
 4908TIP3    H136359   5.579   5.493   7.347  0.3588  0.3442 -0.7411
 4908TIP3    H236360   5.626   5.595   7.449  1.8774  0.6457 -1.7083
 4909TIP3   OH236361   1.660   1.134   1.773  0.4311 -0.5586 -0.4942
 4909TIP3    H136362   1.727   1.105   1.711  0.5143 -0.5524 -0.4083
 4909TIP3    H236363   1.668   1.229   1.775  0.5799 -0.5743 -0.3055
 4910TIP3   OH236364   3.978   1.788   8.653 -0.4516  0.6106 -0.8660
 4910TIP3    H136365   3.981   1.717   8.589 -1.6609  0.1277 -0.4151
 4910TIP3    H236366   3.973   1.745   8.738 -2.1065  1.1814 -0.6308
 4911TIP3   OH236367   5.962   0.006   0.826 -0.3188 -0.0861 -0.3596
 4911TIP3    H136368   5.977   0.100   0.838  0.1500 -0.1009 -0.7941
 4911TIP3    H236369   6.013  -0.036   0.895  0.9046 -0.0912 -1.2310
 4912TIP3   OH236370   3.936   1.997   1.425  0.2242 -0.0495 -0.2603
 4912TIP3    H136371   4.029   2.020   1.431  0.3148  0.4463 -2.5775
 4912TIP3    H236372   3.922   1.935   1.497  2.1180  0.5380  0.6739
 4913TIP3   OH236373   2.783   0.755   0.301  0.9394 -0.5580  0.3966
 4913TIP3    H136374   2.695   0.720   0.310  0.1985  0.8997 -0.6703
 4913TIP3    H236375   2.839   0.694   0.349 -1.0040  0.1576  3.8424
 4914TIP3   OH236376   5.795   4.529   1.952  0.3289 -0.3363  0.5096
 4914TIP3    H136377   5.849   4.604   1.925  0.9594 -1.1940 -0.7263
 4914TIP3    H236378   5.820   4.513   2.043  0.1146  0.9938  0.8322
 4915TIP3   OH236379   2.668   2.936   0.143 -0.1458  0.4273 -0.4795
 4915TIP3    H136380   2.577   2.954   0.118 -0.5323 -1.3694 -0.5455
 4915TIP3    H236381   2.714   3.018   0.128 -2.5503  2.9501  3.8518
 4916TIP3   OH236382   5.945   6.782   8.476  0.3731  0.0991 -0.4644
 4916TIP3    H136383   5.910   6.694   8.465 -2.4654  1.1267 -0.4804
 4916TIP3    H236384   5.869   6.836   8.496  2.0077  2.5703 -0.4522
 4917TIP3   OH236385   0.672   5.809   0.260 -0.4681  0.0565 -0.3489
 4917TIP3    H136386   0.676   5.717   0.233  0.7313 -0.3640  1.1126
 4917TIP3    H236387   0.579   5.827   0.274 -0.9677 -0.2127 -2.8652
 4918TIP3   OH236388   2.360   3.302   6.808  0.2245 -0.3300 -0.1695
 4918TIP3    H136389   2.420   3.296   6.883  0.8339 -0.8249 -0.6890
 4918TIP3    H236390   2.417   3.294   6.732 -0.2522  1.2150 -0.7207
 4919TIP3   OH236391   5.349   1.769   6.144  0.0506  0.1011 -0.1006
 4919TIP3    H136392   5.268   1.772   6.094 -0.1820 -0.0983  0.2622
 4919TIP3    H236393   5.354   1.854   6.188 -1.2410 -0.7639  1.8627
 4920TIP3   OH236394   2.924   6.534   0.189  0.2252  0.2226 -0.3112
 4920TIP3    H136395   2.885   6.618   0.212 -0.8470 -0.3436  0.0382
 4920TIP3    H236396   2.934   6.488   0.272  1.2720  0.1788 -0.4443
 4921TIP3   OH236397   1.342   5.957   0.603  0.7178 -0.1834 -0.2113
 4921TIP3    H136398   1.409   5.985   0.541  1.1317  2.1217  1.1894
 4921TIP3    H236399   1.269   5.930   0.548  1.2924  1.1822 -1.7328
 4922TIP3   OH236400   1.863   5.798   7.200  0.6254 -0.9332 -0.0528
 4922TIP3    H136401   1.881   5.705   7.188  0.9143 -0.8256 -0.4692
 4922TIP3    H236402   1.945   5.833   7.237  0.6236 -0.7892 -0.1850
 4923TIP3   OH236403   3.278   6.779   1.480 -0.0214 -0.4239  0.1101
 4923TIP3    H136404   3.226   6.754   1.556  0.5394 -0.4659  0.4773
 4923TIP3    H236405   3.314   6.697   1.447 -1.6385 -0.6525 -1.2361
 4924TIP3   OH236406   5.098   5.965   0.487 -0.6408 -0.0021 -0.2248
 4924TIP3    H136407   5.067   5.962   0.396 -1.1383  0.5705 -0.0865
 4924TIP3    H236408   5.093   5.875   0.517 -2.2100  0.0565 -0.2156
 4925TIP3   OH236409   4.189   0.876   1.878 -0.0973  0.0234 -0.0335
 4925TIP3    H136410   4.280   0.899   1.895  0.5113 -1.2370 -1.3925
 4925TIP3    H236411   4.145   0.888   1.963  1.4288  0.1252  0.7736
 4926TIP3   OH236412   6.229   0.576   0.081  0.1777 -0.0077 -0.2005
 4926TIP3    H136413   6.136   0.553   0.079  0.0340  0.4946 -2.3263
 4926TIP3    H236414   6.269   0.514   0.142 -1.3119 -1.2602 -0.4453
 4927TIP3   OH236415   6.352   0.752   6.576  0.0130 -0.2460  0.1627
 4927TIP3    H136416   6.285   0.776   6.641  0.7646  2.6680 -0.0128
 4927TIP3    H236417   6.303   0.743   6.494 -0.3673  0.3868  0.3142
 4928TIP3   OH236418   6.740   5.910   8.442 -0.2058  0.0756  0.0531
 4928TIP3    H136419   6.812   5.861   8.482  0.7881 -0.1513 -1.8881
 4928TIP3    H236420   6.783   5.965   8.376 -1.5390  1.9350  0.6575
 4929TIP3   OH236421   6.751   5.062   8.651 -0.3260  0.2201 -0.3281
 4929TIP3    H136422   6.691   5.082   8.579 -1.0166 -0.8540 -0.0734
 4929TIP3    H236423   6.821   5.011   8.611 -2.4626 -3.4486  0.2457
 4930TIP3   OH236424   3.894   3.058   6.851 -0.6792 -0.2013  0.1544
 4930TIP3    H136425   3.839   3.023   6.781  1.3846 -0.8230 -1.2664
 4930TIP3    H236426   3.949   3.124   6.807 -0.9511  1.1362  1.7218
 4931TIP3   OH236427   6.670   0.206   1.865 -0.2085 -0.5865  0.4211
 4931TIP3    H136428   6.596   0.225   1.924  1.0585  1.9331  1.3446
 4931TIP3    H236429   6.747   0.219   1.920  0.9848 -2.3614 -0.7514
 4932TIP3   OH236430   0.257   0.332   1.615 -0.4915  0.4996 -0.0878
 4932TIP3    H136431   0.183   0.364   1.564 -1.6600 -0.4232  0.9637
 4932TIP3    H236432   0.284   0.407   1.668 -1.4420  0.5232  0.3717
 4933TIP3   OH236433   4.522   1.338   2.114  0.3441 -0.2023  0.0390
 4933TIP3    H136434   4.551   1.397   2.044  0.5029 -0.9536 -0.5549
 4933TIP3    H236435   4.574   1.363   2.190  0.1045  0.6960 -0.0850
 4934TIP3   OH236436   1.549   1.314   2.328  0.0055 -0.9616 -0.2102
 4934TIP3    H136437   1.636   1.315   2.369  0.4761 -1.6950 -1.1459
 4934TIP3    H236438   1.558   1.374   2.253 -0.4558 -0.6387 -0.0082
 4935TIP3   OH236439   1.701   2.276   8.372 -0.0067 -0.2037 -0.0570
 4935TIP3    H136440   1.773   2.213   8.369  0.7230  0.6347 -1.0836
 4935TIP3    H236441   1.716   2.326   8.452 -0.1613 -0.8232  0.3694
 4936TIP3   OH236442   0.878   4.195   0.939 -0.1845  0.2980 -0.4537
 4936TIP3    H136443   0.902   4.219   0.850  1.8356  0.8664  0.2037
 4936TIP3    H236444   0.826   4.269   0.971 -1.1192 -0.0150 -1.2075
 4937TIP3   OH236445   3.634   3.712   7.633 -0.7255  0.4600  0.6803
 4937TIP3    H136446   3.727   3.698   7.650 -0.1923  1.2265 -1.2513
 4937TIP3    H236447   3.601   3.627   7.606 -0.4226  0.3322  0.7153
 4938TIP3   OH236448   4.166   5.393   0.618  0.0252 -0.2253 -0.4162
 4938TIP3    H136449   4.127   5.312   0.585  0.5128 -0.4297 -0.4996
 4938TIP3    H236450   4.243   5.406   0.564 -0.5490  0.7943 -1.0053
 4939TIP3   OH236451   5.828   1.979   0.268  0.5984  0.0732  0.0571
 4939TIP3    H136452   5.748   1.941   0.304  0.5855  0.8438  0.8777
 4939TIP3    H236453   5.798   2.035   0.197  0.7001 -2.2298 -1.9382
 4940TIP3   OH236454   6.106   1.154   2.273 -0.0140  0.3446 -0.2937
 4940TIP3    H136455   6.124   1.060   2.278  1.1063  0.5503 -0.3293
 4940TIP3    H236456   6.082   1.178   2.363  0.9072  0.2540 -0.0151
 4941TIP3   OH236457   6.636   4.995   7.447  0.7019 -0.8676 -0.1599
 4941TIP3    H136458   6.617   4.947   7.366  0.3895 -0.6092 -0.2418
 4941TIP3    H236459   6.728   5.020   7.440  1.2324 -2.5202  0.4308
 4942TIP3   OH236460   6.526   0.954   0.605  0.2707  0.0574 -0.3276
 4942TIP3    H136461   6.606   0.983   0.648 -0.3060  4.3752 -1.6677
 4942TIP3    H236462   6.550   0.949   0.512 -0.6637  0.0996 -0.5790
 4943TIP3   OH236463   4.065   2.534   8.569  0.4588  0.7477 -0.1670
 4943TIP3    H136464   3.983   2.581   8.552  0.6723  1.3467  0.4401
 4943TIP3    H236465   4.041   2.442   8.558 -0.6127  0.8233  1.1269
 4944TIP3   OH236466   6.144   0.360   0.682 -0.2318  0.0198 -0.8320
 4944TIP3    H136467   6.178   0.297   0.619 -1.0616 -0.2847 -0.9755
 4944TIP3    H236468   6.219   0.378   0.740 -0.2223 -1.7483 -0.2459
 4945TIP3   OH236469   2.297   1.963   2.768  0.5955 -0.2295 -0.0968
 4945TIP3    H136470   2.318   1.877   2.732  0.7095 -0.9377  1.5833
 4945TIP3    H236471   2.206   1.955   2.798  0.4988  0.3403 -0.2340
 4946TIP3   OH236472   3.030   1.786   8.279  0.2815  0.3647 -0.3037
 4946TIP3    H136473   3.100   1.766   8.342 -0.8712 -0.1352  0.8813
 4946TIP3    H236474   2.955   1.734   8.310 -0.5231  0.6421 -1.7131
 4947TIP3   OH236475   0.479   1.221   6.502  0.6171  0.2765 -0.2688
 4947TIP3    H136476   0.454   1.198   6.591 -1.5645 -1.5255 -1.2580
 4947TIP3    H236477   0.474   1.139   6.453  1.8590  1.1942 -2.0574
 4948TIP3   OH236478   1.096   2.980   1.012  0.5345  0.6677 -0.4986
 4948TIP3    H136479   1.040   3.043   1.058  0.4588  0.2464 -0.0036
 4948TIP3    H236480   1.184   2.997   1.046  0.5810  0.7899 -0.6796
 4949TIP3   OH236481   0.508   2.004   2.597 -0.3108  0.6628 -0.0001
 4949TIP3    H136482   0.419   2.038   2.588 -0.2413  2.2533  3.5387
 4949TIP3    H236483   0.497   1.910   2.605 -1.8580  0.8891  1.1578
 4950TIP3   OH236484   0.162   4.045   7.274  0.0522 -0.0751 -0.2415
 4950TIP3    H136485   0.248   4.057   7.313  0.2905 -2.3826  0.0652
 4950TIP3    H236486   0.111   4.120   7.305  1.4030  0.3104  1.1800
 4951TIP3   OH236487   4.038   0.058   0.972 -0.7249  0.1381 -0.1579
 4951TIP3    H136488   4.050   0.143   1.015 -0.8554  0.7137 -1.2231
 4951TIP3    H236489   4.114   0.050   0.914 -1.2978  0.0597 -0.9075
 4952TIP3   OH236490   6.715   1.963   0.589  0.1123 -0.2045  0.0848
 4952TIP3    H136491   6.711   1.923   0.675 -0.7795 -1.0370 -0.3265
 4952TIP3    H236492   6.792   2.020   0.592 -0.6915  0.8662  1.8737
 4953TIP3   OH236493   1.143   6.076   1.006  0.2170 -0.1210 -0.0740
 4953TIP3    H136494   1.134   5.993   0.958 -1.4710 -0.5564  0.8940
 4953TIP3    H236495   1.224   6.066   1.056 -0.0323 -1.2704  0.1424
 4954TIP3   OH236496   2.310   1.257   0.370  0.2911  0.3983  0.5074
 4954TIP3    H136497   2.219   1.286   0.356  0.3949  0.2629 -0.5662
 4954TIP3    H236498   2.313   1.229   0.461 -1.5813 -2.4708 -0.1783
 4955TIP3   OH236499   2.803   6.518   0.844  0.4934 -0.1187 -0.0107
 4955TIP3    H136500   2.737   6.577   0.806  0.1755  0.5605  1.5170
 4955TIP3    H236501   2.787   6.434   0.801 -0.3723  0.4041 -0.7621
 4956TIP3   OH236502   6.273   2.554   8.750 -0.1786 -0.1707  0.2745
 4956TIP3    H136503   6.314   2.481   8.797  0.8607  0.4330  0.3204
 4956TIP3    H236504   6.285   2.630   8.807 -1.5618 -0.0066  0.3831
 4957TIP3   OH236505   5.051   1.827   1.701  0.3152 -0.0747  0.5060
 4957TIP3    H136506   5.132   1.775   1.698  0.6646  0.5054 -0.3008
 4957TIP3    H236507   5.053   1.880   1.622  0.0004  1.2254  1.3345
 4958TIP3   OH236508   5.372   3.502   1.037  0.3968  0.4190  0.8989
 4958TIP3    H136509   5.426   3.505   0.958 -0.8905  0.8467 -0.0169
 4958TIP3    H236510   5.419   3.446   1.097  1.8437  0.7903  0.1483
 4959TIP3   OH236511   1.789   2.530   6.886 -0.2315 -0.5163 -0.2524
 4959TIP3    H136512   1.869   2.527   6.832 -2.4291 -2.9433 -3.7899
 4959TIP3    H236513   1.809   2.474   6.961  1.1356 -1.9173 -1.5816
 4960TIP3   OH236514   1.918   5.028   8.139  0.2934 -0.8803 -0.3373
 4960TIP3    H136515   1.887   5.112   8.171  0.8768 -0.4405 -0.8884
 4960TIP3    H236516   1.967   4.990   8.212 -1.4832 -1.5819  0.5399
 4961TIP3   OH236517   6.380   1.821   1.943 -0.1447 -0.1129  0.1655
 4961TIP3    H136518   6.320   1.761   1.899  0.4770 -0.2964 -0.4438
 4961TIP3    H236519   6.428   1.765   2.005 -0.1668 -0.0859  0.2070
 4962TIP3   OH236520   5.180   3.395   8.110  0.2318  0.4435 -0.2431
 4962TIP3    H136521   5.221   3.415   8.026 -1.4083 -1.5342 -1.5981
 4962TIP3    H236522   5.242   3.336   8.153  0.5691  0.5938 -0.5192
 4963TIP3   OH236523   0.290   4.768   0.507 -0.3606 -0.0988  0.2764
 4963TIP3    H136524   0.350   4.842   0.507 -0.6539  0.1420  0.3201
 4963TIP3    H236525   0.279   4.745   0.599 -0.6731  0.1378  0.3010
 4964TIP3   OH236526   6.005   1.189   0.105 -0.1947  0.0011  0.4134
 4964TIP3    H136527   6.041   1.106   0.073 -0.0760  0.1868  0.0632
 4964TIP3    H236528   6.080   1.248   0.110 -0.0961 -0.2041  1.6461
 4965TIP3   OH236529   3.042   5.167   6.143 -0.4819  0.7759  0.2566
 4965TIP3    H136530   3.077   5.110   6.075  0.2881  0.9467  0.5024
 4965TIP3    H236531   3.071   5.128   6.225 -1.5352  0.4820  0.5098
 4966TIP3   OH236532   4.953   0.165   8.251  0.4825 -0.0342 -0.2106
 4966TIP3    H136533   4.946   0.260   8.256  0.9962  0.0190 -0.4297
 4966TIP3    H236534   5.046   0.147   8.266  0.4141 -0.4903 -0.3222
 4967TIP3   OH236535   2.030   1.969   7.198 -0.2956  0.7957  0.1237
 4967TIP3    H136536   1.999   1.944   7.286  0.0528  0.7333  0.2318
 4967TIP3    H236537   2.008   1.893   7.143 -0.8014  0.9645  0.0880
 4968TIP3   OH236538   1.078   4.645   7.770  0.4317 -0.4698 -0.2297
 4968TIP3    H136539   1.135   4.710   7.730 -0.3861 -0.3992 -1.3378
 4968TIP3    H236540   1.096   4.564   7.722  0.8292 -0.8695  0.5706
 4969TIP3   OH236541   2.561   3.532   0.127 -0.5592  0.3757  0.3452
 4969TIP3    H136542   2.487   3.472   0.135  0.4632 -1.1140 -0.7355
 4969TIP3    H236543   2.553   3.591   0.202 -1.9261 -0.7727  1.1409
 4970TIP3   OH236544   4.381   5.911   6.540  0.3298 -0.1070  0.1342
 4970TIP3    H136545   4.326   5.905   6.462 -0.6319 -2.0997  0.8711
 4970TIP3    H236546   4.464   5.873   6.514 -0.1495 -1.2210  0.1644
 4971TIP3   OH236547   1.772   6.141   8.555 -0.1802 -0.2951  0.8747
 4971TIP3    H136548   1.731   6.208   8.501 -1.4095 -1.0573  0.8289
 4971TIP3    H236549   1.856   6.180   8.581 -0.2402  0.6896 -0.2978
 4972TIP3   OH236550   4.493   3.095   2.137  0.4444 -0.3766  0.0235
 4972TIP3    H136551   4.443   3.150   2.197  1.6001 -0.4787  1.1236
 4972TIP3    H236552   4.465   3.006   2.158  2.1401 -0.5737  1.7596
 4973TIP3   OH236553   5.515   0.314   8.522  0.3883  0.1382  0.2612
 4973TIP3    H136554   5.502   0.280   8.434  0.5692 -0.8918  0.6176
 4973TIP3    H236555   5.435   0.363   8.541 -0.1036 -0.5280 -0.0772
 4974TIP3   OH236556   4.486   4.782   7.271 -0.4287 -0.3933 -0.1125
 4974TIP3    H136557   4.462   4.839   7.198 -2.2298 -1.0701 -0.0917
 4974TIP3    H236558   4.421   4.712   7.269  1.6893 -2.4578 -0.1113
 4975TIP3   OH236559   2.990   1.333   1.984 -0.0547  0.6240  0.2705
 4975TIP3    H136560   2.963   1.315   2.074  2.2293  1.9432  1.2945
 4975TIP3    H236561   3.085   1.321   1.984  0.0072  0.6256 -1.9975
 4976TIP3   OH236562   4.038   0.432   8.473 -0.6764 -0.3721 -0.0156
 4976TIP3    H136563   4.022   0.381   8.394 -0.9374 -0.6372  0.2044
 4976TIP3    H236564   4.073   0.515   8.442 -3.2863  0.6003 -0.5758
 4977TIP3   OH236565   3.435   4.475   7.070  0.4270  0.1658  0.2711
 4977TIP3    H136566   3.397   4.392   7.098 -0.7907 -0.0013 -1.6992
 4977TIP3    H236567   3.405   4.487   6.980  1.1837  2.3814  0.2349
 4978TIP3   OH236568   1.892   5.237   7.345  0.2839 -0.5141  0.6524
 4978TIP3    H136569   1.957   5.169   7.326  1.1572 -0.3776  2.8806
 4978TIP3    H236570   1.936   5.295   7.407 -1.7626 -0.1101  1.8115
 4979TIP3   OH236571   3.486   1.709   7.201 -0.7434  0.4897 -0.5912
 4979TIP3    H136572   3.504   1.650   7.274 -0.2116  0.2184 -0.9381
 4979TIP3    H236573   3.537   1.788   7.220 -1.5820  0.9251 -0.0429
 4980TIP3   OH236574   1.166   2.326   2.342 -0.3032  0.2896 -0.5192
 4980TIP3    H136575   1.191   2.365   2.425 -2.0604  0.5545 -0.0771
 4980TIP3    H236576   1.102   2.258   2.365  0.0390 -0.4243 -1.5651
 4981TIP3   OH236577   3.350   6.446   0.285 -0.6020 -0.2501 -0.2871
 4981TIP3    H136578   3.433   6.451   0.237 -0.2904  1.1304  0.3568
 4981TIP3    H236579   3.343   6.354   0.311  0.6295 -0.4269 -0.5103
 4982TIP3   OH236580   1.158   1.450   7.662  0.1802 -0.3493 -0.2913
 4982TIP3    H136581   1.167   1.399   7.581  0.8998 -1.1516  0.2729
 4982TIP3    H236582   1.065   1.446   7.683  0.3846 -2.8569  0.5870
 4983TIP3   OH236583   3.936   2.289   0.316  0.2669  0.3476 -0.0392
 4983TIP3    H136584   3.884   2.294   0.235  0.9443  2.9048 -0.4003
 4983TIP3    H236585   4.020   2.253   0.288 -0.3185 -1.1888  0.0508
 4984TIP3   OH236586   3.342   5.782   8.790  0.1993 -0.6167  0.7382
 4984TIP3    H136587   3.303   5.849   8.734 -1.0643 -1.9268 -0.0120
 4984TIP3    H236588   3.278   5.769   8.861  0.6581 -0.6940  1.1456
 4985TIP3   OH236589   4.567   0.558   8.127  0.3693 -0.4043  0.4773
 4985TIP3    H136590   4.593   0.650   8.124 -0.9889  0.1827  3.6338
 4985TIP3    H236591   4.649   0.511   8.144  0.7687  0.4446  0.9858
 4986TIP3   OH236592   4.047   1.008   7.957  0.0945  0.3490 -0.1925
 4986TIP3    H136593   4.115   0.949   7.989 -1.2527 -0.7044  0.8390
 4986TIP3    H236594   4.094   1.089   7.934  1.5477  0.0235  1.4547
 4987TIP3   OH236595   2.211   0.393   6.982 -0.8121 -0.5739 -0.1445
 4987TIP3    H136596   2.223   0.419   7.073  0.6330  0.3601 -0.5693
 4987TIP3    H236597   2.297   0.402   6.942 -1.4031 -0.9920 -1.6133
 4988TIP3   OH236598   3.354   3.743   8.155  0.1122  0.0713  0.0049
 4988TIP3    H136599   3.350   3.766   8.063  0.7576  0.2134  0.0049
 4988TIP3    H236600   3.443   3.769   8.182 -0.4755  1.1684  0.9638
 4989TIP3   OH236601   5.105   1.671   0.504 -0.1142  0.0599  0.3062
 4989TIP3    H136602   5.157   1.657   0.425 -2.0367 -0.5070 -0.9156
 4989TIP3    H236603   5.077   1.763   0.498 -1.1164 -0.2684 -0.2382
 4990TIP3   OH236604   3.385   6.812   6.739  0.0024 -0.7422  0.1749
 4990TIP3    H136605   3.479   6.805   6.723  0.2359  1.3338  0.4276
 4990TIP3    H236606   3.358   6.892   6.694 -1.1495  0.0485  2.1452
 4991TIP3   OH236607   0.518   4.481   2.432 -0.4574 -0.5486 -0.3346
 4991TIP3    H136608   0.596   4.426   2.433  0.5232  0.7744  0.6853
 4991TIP3    H236609   0.536   4.548   2.498 -3.7932 -1.9740  2.2848
 4992TIP3   OH236610   1.843   6.095   0.968  0.3434  0.0351 -0.0879
 4992TIP3    H136611   1.752   6.098   0.939  0.8055 -0.1932 -1.6667
 4992TIP3    H236612   1.844   6.027   1.035 -0.6411  0.0050 -0.0837
 4993TIP3   OH236613   5.947   3.807   1.064  0.2705  0.1085  0.1646
 4993TIP3    H136614   5.911   3.719   1.069 -0.8955  0.5622 -0.0449
 4993TIP3    H236615   6.005   3.813   1.141  0.0652 -0.6926  0.3931
 4994TIP3   OH236616   5.537   0.689   8.669 -0.3085 -0.3794 -0.3420
 4994TIP3    H136617   5.483   0.739   8.607  1.0679  0.9120 -0.5560
 4994TIP3    H236618   5.585   0.627   8.614 -0.6787 -0.7134 -0.2933
 4995TIP3   OH236619   6.113   6.074   2.103  0.3135 -0.1993  0.0100
 4995TIP3    H136620   6.053   6.006   2.132  1.0149 -1.3022 -1.0584
 4995TIP3    H236621   6.200   6.036   2.114  0.7142  0.4878 -0.6769
 4996TIP3   OH236622   2.434   4.481   7.085  0.1436 -0.7089  0.1078
 4996TIP3    H136623   2.477   4.556   7.125 -0.7825 -0.5998  0.9188
 4996TIP3    H236624   2.437   4.499   6.991 -0.9485  0.8598  0.3354
 4997TIP3   OH236625   0.664   4.857   6.565 -0.6151  0.5286 -0.3179
 4997TIP3    H136626   0.592   4.900   6.518  0.5518  2.6176 -0.3318
 4997TIP3    H236627   0.651   4.883   6.656 -0.6581 -0.2475 -0.0988
 4998TIP3   OH236628   0.277   2.213   8.124 -0.1467  0.5776 -0.2289
 4998TIP3    H136629   0.357   2.161   8.114 -0.1758  0.4714  0.0831
 4998TIP3    H236630   0.250   2.232   8.034  0.3410  0.7868 -0.3371
 4999TIP3   OH236631   5.328   1.253   2.493 -0.2292 -0.4335 -0.0508
 4999TIP3    H136632   5.273   1.310   2.546  0.4181 -0.8842  1.1648
 4999TIP3    H236633   5.311   1.165   2.527  1.3318 -0.5689  0.4709
 5000TIP3   OH236634   3.961   2.967   1.306  0.4203 -0.2449  0.5451
 5000TIP3    H136635   3.868   2.985   1.293  0.6354 -0.1298 -1.0845
 5000TIP3    H236636   3.993   3.042   1.356 -0.2066  0.1394  0.3890
 5001TIP3   OH236637   2.474   3.731   0.358  0.0082  0.0973 -0.3620
 5001TIP3    H136638   2.407   3.670   0.388 -0.1916 -0.4626 -1.8587
 5001TIP3    H236639   2.539   3.732   0.428 -1.5754  0.7369  1.1650
 5002TIP3   OH236640   4.599   0.727   2.380  0.1578 -0.2410 -0.4662
 5002TIP3    H136641   4.594   0.817   2.349 -0.5859 -0.1054  0.0060
 5002TIP3    H236642   4.691   0.713   2.400 -0.0211  1.2574  1.8108
 5003TIP3   OH236643   0.323   5.012   7.699 -0.2690 -0.1925  0.4472
 5003TIP3    H136644   0.336   4.925   7.660  0.7855 -0.3605  1.1426
 5003TIP3    H236645   0.274   5.060   7.633  0.3586 -0.8746 -0.5455
 5004TIP3   OH236646   1.377   0.342   1.838 -0.5795 -0.3739 -0.6210
 5004TIP3    H136647   1.415   0.412   1.891  0.2277 -0.5106 -1.0062
 5004TIP3    H236648   1.331   0.288   1.901 -0.5972  0.1044 -0.2159
 5005TIP3   OH236649   6.253   4.767   0.910 -0.7419 -0.4842  0.1517
 5005TIP3    H136650   6.299   4.839   0.953 -0.0339  0.1469 -1.5760
 5005TIP3    H236651   6.284   4.688   0.955 -0.5380  0.1791  1.2113
 5006TIP3   OH236652   2.499   1.727   7.855  0.2857 -0.4367  0.0216
 5006TIP3    H136653   2.455   1.811   7.842  1.3042 -0.1217 -1.6687
 5006TIP3    H236654   2.592   1.746   7.846  0.5532 -1.7030 -0.1894
 5007TIP3   OH236655   6.601   6.020   0.515  0.9794  0.0960  0.1499
 5007TIP3    H136656   6.684   5.991   0.554  1.0950 -0.5393 -0.5514
 5007TIP3    H236657   6.538   6.014   0.587  0.6763 -3.2632 -0.2034
 5008TIP3   OH236658   0.970   1.963   7.686  0.4514 -0.2638 -0.5971
 5008TIP3    H136659   0.927   1.955   7.600  0.9744 -0.5129 -0.8443
 5008TIP3    H236660   0.920   2.030   7.732  0.0279 -0.2850 -1.0190
 5009TIP3   OH236661   2.261   4.757   7.707 -0.0904  0.1010 -0.1307
 5009TIP3    H136662   2.172   4.783   7.729 -0.6203 -2.2078  0.6111
 5009TIP3    H236663   2.258   4.738   7.613 -0.6414 -0.9268  0.0876
 5010TIP3   OH236664   1.919   0.301   8.719  0.5162  0.3839 -0.0665
 5010TIP3    H136665   1.881   0.237   8.660  0.2836 -0.7441  1.2682
 5010TIP3    H236666   2.014   0.289   8.711  0.5030  0.5931 -0.5733
 5011TIP3   OH236667   4.110   3.515   2.050 -0.4182  0.1526 -0.3945
 5011TIP3    H136668   4.196   3.531   2.012 -0.5267  1.4636 -0.1653
 5011TIP3    H236669   4.127   3.468   2.132  0.1851  1.2550  0.1408
 5012TIP3   OH236670   5.874   5.045   1.739 -0.1935  0.3920 -0.1544
 5012TIP3    H136671   5.839   5.134   1.731 -3.3661 -0.7414  0.1160
 5012TIP3    H236672   5.892   5.034   1.833 -1.3261  0.2345  0.0514
 5013TIP3   OH236673   6.331   5.012   8.843 -0.2974 -0.2450  0.1733
 5013TIP3    H136674   6.379   4.950   8.898  0.9755  1.6261  1.2887
 5013TIP3    H236675   6.324   5.091   8.897 -1.2406  0.8221 -1.4353
 5014TIP3   OH236676   1.144   0.843   1.951 -0.1898 -0.3324 -0.2467
 5014TIP3    H136677   1.114   0.890   2.028  2.8156  0.9926  0.2155
 5014TIP3    H236678   1.168   0.756   1.984 -2.5514 -1.1651 -0.5006
 5015TIP3   OH236679   5.186   4.480   0.891  0.1019  0.0290 -0.2191
 5015TIP3    H136680   5.200   4.515   0.803  1.2976  0.7788  0.2557
 5015TIP3    H236681   5.093   4.457   0.892 -1.0622  3.9920 -0.3188
 5016TIP3   OH236682   5.991   6.717   0.115  0.3345 -0.4440 -0.0831
 5016TIP3    H136683   6.073   6.668   0.113  0.3644 -0.5000  1.4278
 5016TIP3    H236684   5.936   6.675   0.050  1.5571 -0.2867 -1.2627
 5017TIP3   OH236685   6.292   4.623   7.853 -0.0635  0.3899  0.1076
 5017TIP3    H136686   6.205   4.605   7.818  0.1726 -0.5781  0.0067
 5017TIP3    H236687   6.294   4.578   7.937  0.4291  0.1724 -0.0148
 5018TIP3   OH236688   5.493   3.598   8.200  0.0348 -0.5468  0.2349
 5018TIP3    H136689   5.480   3.504   8.184 -1.7219 -0.2335 -0.4069
 5018TIP3    H236690   5.423   3.640   8.150 -0.1952  1.0119  1.7862
 5019TIP3   OH236691   1.590   3.587   8.392 -0.3165  0.1181 -0.1640
 5019TIP3    H136692   1.662   3.563   8.333  0.3379 -1.3283  1.1723
 5019TIP3    H236693   1.619   3.668   8.433 -0.1285  0.3406 -0.7220
 5020TIP3   OH236694   2.392   5.155   1.927 -0.3146 -0.3089  0.0174
 5020TIP3    H136695   2.476   5.151   1.972 -0.2077 -1.5362 -0.2643
 5020TIP3    H236696   2.327   5.165   1.997 -0.0012 -0.1424  0.2853
 5021TIP3   OH236697   6.689   5.587   1.000 -0.4416 -0.2696  0.4138
 5021TIP3    H136698   6.716   5.654   0.939 -0.6041 -0.3655  0.2352
 5021TIP3    H236699   6.644   5.522   0.946  1.9137 -1.8157  0.1453
 5022TIP3   OH236700   1.868   6.479   1.534  0.3248 -0.3779  0.0983
 5022TIP3    H136701   1.882   6.386   1.517 -1.1067 -0.4722 -0.7293
 5022TIP3    H236702   1.773   6.488   1.539  0.4719  0.7901  1.7066
 5023TIP3   OH236703   3.578   4.731   0.364  0.0137 -0.1879  0.0050
 5023TIP3    H136704   3.517   4.780   0.309 -0.4418 -0.7164  0.0177
 5023TIP3    H236705   3.571   4.641   0.331  0.5109 -0.3177  0.2544
 5024TIP3   OH236706   5.990   3.954   8.766 -0.0577  0.0828  0.2497
 5024TIP3    H136707   6.067   3.995   8.806 -0.2433  0.2560  0.4315
 5024TIP3    H236708   6.004   3.860   8.776 -1.4994  0.0801  3.4433
 5025TIP3   OH236709   1.995   1.628   1.757  0.3247 -0.0534  0.4427
 5025TIP3    H136710   1.948   1.711   1.760  2.1662  1.0258  0.7292
 5025TIP3    H236711   1.966   1.587   1.676  1.1413  1.9856 -0.9521
 5026TIP3   OH236712   3.886   3.157   7.835 -0.1586 -0.2440  0.8596
 5026TIP3    H136713   3.917   3.077   7.793  1.7146 -0.1749  1.9875
 5026TIP3    H236714   3.835   3.202   7.768 -0.1235 -1.7307 -0.2070
 5027TIP3   OH236715   1.306   4.950   1.287 -0.5602  0.5671 -0.3988
 5027TIP3    H136716   1.300   5.042   1.312 -0.4714  0.8229 -1.2584
 5027TIP3    H236717   1.233   4.908   1.332 -1.1195  1.2225 -0.6717
 5028TIP3   OH236718   1.087   6.338   0.755 -0.0132 -0.0983  0.0154
 5028TIP3    H136719   1.024   6.341   0.683 -1.2125 -1.2364  0.9846
 5028TIP3    H236720   1.064   6.412   0.811 -1.4910 -1.3462  1.1345
 5029TIP3   OH236721   3.519   6.138   1.460 -0.3733  0.3355  0.0224
 5029TIP3    H136722   3.460   6.208   1.489 -1.2173 -0.1727 -0.4370
 5029TIP3    H236723   3.488   6.060   1.504  1.0932  0.3654  1.2074
 5030TIP3   OH236724   4.443   4.950   7.493 -0.0789  0.1060  0.1736
 5030TIP3    H136725   4.455   4.909   7.407  1.4304  0.1362  0.3361
 5030TIP3    H236726   4.390   4.887   7.542 -2.6195  0.9632 -1.3463
 5031TIP3   OH236727   3.562   2.267   8.682  0.1821  0.0818  0.6870
 5031TIP3    H136728   3.587   2.195   8.623 -2.0398 -1.2009  1.1967
 5031TIP3    H236729   3.550   2.225   8.767 -1.5469  0.9520  0.9075
 5032TIP3   OH236730   4.775   6.148   7.659  0.3292  0.1759 -0.1906
 5032TIP3    H136731   4.684   6.157   7.630  0.2131  1.4592  0.4948
 5032TIP3    H236732   4.769   6.131   7.753  0.7986  0.5646 -0.0871
 5033TIP3   OH236733   6.740   6.260   0.211 -0.2114  0.3915 -0.3678
 5033TIP3    H136734   6.676   6.235   0.144  0.1421 -1.3954 -0.0752
 5033TIP3    H236735   6.691   6.258   0.293  0.1033 -0.5080 -0.2005
 5034TIP3   OH236736   5.438   3.482   8.781  0.4321  0.0460 -0.0829
 5034TIP3    H136737   5.484   3.447   8.705 -0.3757  0.6496 -0.8754
 5034TIP3    H236738   5.401   3.404   8.825  0.6671 -0.2783 -0.4547
 5035TIP3   OH236739   0.202   3.204   7.785  0.3826  0.0235  0.4502
 5035TIP3    H136740   0.112   3.182   7.763  0.4307 -0.8843  1.0955
 5035TIP3    H236741   0.201   3.220   7.879  0.9176 -0.1127  0.4822
 5036TIP3   OH236742   0.998   5.853   7.800 -0.2637 -0.0084  0.0908
 5036TIP3    H136743   0.965   5.926   7.851  0.1936  0.1998  0.0962
 5036TIP3    H236744   1.062   5.892   7.740 -0.3247 -0.3406 -0.1971
 5037TIP3   OH236745   6.410   2.478   0.958  0.5190 -0.0932  0.2852
 5037TIP3    H136746   6.460   2.470   0.877  1.0840 -3.1390  0.7990
 5037TIP3    H236747   6.321   2.453   0.933  1.2359 -3.9343  0.9421
 5038TIP3   OH236748   5.233   3.110   0.863 -0.2374  0.0419 -0.1894
 5038TIP3    H136749   5.255   3.110   0.956 -0.6723  1.3776 -0.0724
 5038TIP3    H236750   5.138   3.111   0.861 -0.3594 -2.9635 -0.6902
 5039TIP3   OH236751   1.620   2.035   0.367 -0.0960 -0.4163 -0.0221
 5039TIP3    H136752   1.535   2.070   0.342  1.2234  1.0117 -2.9955
 5039TIP3    H236753   1.671   2.111   0.394  0.1387 -1.3318  2.4178
 5040TIP3   OH236754   4.892   2.645   0.120  0.2515  0.0077 -0.1710
 5040TIP3    H136755   4.876   2.725   0.168 -1.3278  0.9486 -2.1347
 5040TIP3    H236756   4.910   2.674   0.030  1.1913 -1.7622 -0.6081
 5041TIP3   OH236757   0.321   4.620   2.670 -0.4387 -0.3111 -0.6991
 5041TIP3    H136758   0.316   4.566   2.749 -0.9543  0.5676 -0.1039
 5041TIP3    H236759   0.411   4.652   2.669 -0.9107  1.2142  0.6351
 5042TIP3   OH236760   1.002   5.043   6.732 -0.2109 -0.0528 -0.1084
 5042TIP3    H136761   1.077   5.102   6.729 -1.4487  1.5842 -0.4233
 5042TIP3    H236762   1.021   4.985   6.806  1.1594  0.5986  0.0961
 5043TIP3   OH236763   6.790   6.113   0.750  0.5699 -0.2302  0.1691
 5043TIP3    H136764   6.720   6.104   0.814  0.7831 -0.9624  0.3154
 5043TIP3    H236765   6.868   6.078   0.795  0.2913 -2.8104 -1.1859
 5044TIP3   OH236766   5.214   0.675   8.598  0.2150 -0.4144  0.3373
 5044TIP3    H136767   5.156   0.734   8.646  0.1547 -0.1807 -0.0242
 5044TIP3    H236768   5.271   0.732   8.547 -0.7098 -0.6822 -1.0298
 5045TIP3   OH236769   5.427   3.603   1.406 -0.0406  0.1735  0.1679
 5045TIP3    H136770   5.417   3.645   1.492 -1.5295 -0.6496  0.4319
 5045TIP3    H236771   5.351   3.631   1.356  0.0750 -0.5013 -0.3984
 5046TIP3   OH236772   0.031   3.236   2.003  0.3708  0.4914 -0.4764
 5046TIP3    H136773   0.032   3.301   2.074  1.0498  0.8193 -0.7690
 5046TIP3    H236774  -0.060   3.234   1.973  0.0412  0.2361  0.4978
 5047TIP3   OH236775   6.708   1.241   1.322 -0.7440 -0.0517  0.2476
 5047TIP3    H136776   6.658   1.246   1.404 -1.1120 -0.5215  0.0577
 5047TIP3    H236777   6.799   1.246   1.350 -0.8799  0.4699  0.6269
 5048TIP3   OH236778   6.199   5.357   8.227  0.3698  0.2866  0.3597
 5048TIP3    H136779   6.138   5.286   8.248 -0.2817  0.6255 -0.3511
 5048TIP3    H236780   6.209   5.405   8.310  0.7311 -0.5574  0.8179
 5049TIP3   OH236781   6.053   4.998   0.020 -0.0302  0.1522 -0.2805
 5049TIP3    H136782   6.088   4.980   0.108  0.8711  0.7297 -0.5001
 5049TIP3    H236783   6.131   5.007  -0.034 -0.5843 -0.2816 -1.1691
 5050TIP3   OH236784   6.767   4.042   0.151  0.1351  0.0508 -0.4618
 5050TIP3    H136785   6.860   4.048   0.129 -0.3123  0.6741 -2.3390
 5050TIP3    H236786   6.744   3.951   0.130  0.7762 -0.8210  2.1949
 5051TIP3   OH236787   4.639   3.111   2.467 -0.3321 -0.0442 -0.3034
 5051TIP3    H136788   4.717   3.072   2.427 -0.4088  0.3421 -0.8368
 5051TIP3    H236789   4.653   3.205   2.459  0.2135  0.0866  1.6640
 5052TIP3   OH236790   4.348   0.953   1.363  0.1642 -0.3087 -0.3643
 5052TIP3    H136791   4.381   0.957   1.274  0.1398  1.0590 -0.3308
 5052TIP3    H236792   4.422   0.981   1.418 -0.0462 -0.4163 -0.0217
 5053TIP3   OH236793   4.750   6.480   0.409  0.3809 -0.0108 -0.1765
 5053TIP3    H136794   4.774   6.525   0.328  0.3334 -0.8300 -0.6560
 5053TIP3    H236795   4.725   6.550   0.469  0.2304  0.5939 -0.9310
 5054TIP3   OH236796   6.551   0.707   8.655 -0.3849 -0.8154  0.0430
 5054TIP3    H136797   6.496   0.675   8.583 -0.0468  0.8402 -0.9890
 5054TIP3    H236798   6.507   0.675   8.734 -0.4105 -3.2220 -0.8690
 5055TIP3   OH236799   0.371   2.300   0.497 -0.5115  0.2625 -0.3622
 5055TIP3    H136800   0.402   2.390   0.505  0.5750  0.2811 -3.4757
 5055TIP3    H236801   0.416   2.253   0.567  0.8336  1.6702 -0.2254
 5056TIP3   OH236802   3.015   2.334   1.136  0.1881  0.3551  0.1243
 5056TIP3    H136803   2.990   2.375   1.218  1.5389  3.9690 -1.0523
 5056TIP3    H236804   3.099   2.293   1.154 -0.2801 -0.2696  0.9068
 5057TIP3   OH236805   5.508   1.138   1.307 -0.4336 -0.3933  0.5779
 5057TIP3    H136806   5.533   1.141   1.215 -0.8990 -0.0322  0.4632
 5057TIP3    H236807   5.568   1.074   1.346  0.3473  0.1003  0.2074
 5058TIP3   OH236808   6.469   2.259   8.663 -0.0434  0.3829 -0.2074
 5058TIP3    H136809   6.462   2.254   8.758 -0.8110  0.3465 -0.2625
 5058TIP3    H236810   6.564   2.259   8.646  0.1558  2.3456  0.6536
 5059TIP3   OH236811   2.733   0.992   0.176 -0.3556  0.2468  0.0616
 5059TIP3    H136812   2.755   0.903   0.203 -0.0228  0.3408  0.1006
 5059TIP3    H236813   2.641   1.002   0.201 -0.2387  0.1074  0.5614
 5060TIP3   OH236814   1.782   1.870   1.745  0.1285  0.3822  0.4126
 5060TIP3    H136815   1.767   1.952   1.791 -0.1286  0.0514  0.9375
 5060TIP3    H236816   1.711   1.864   1.682 -0.7285 -0.1295  1.3868
 5061TIP3   OH236817   0.031   0.877   8.040 -0.2813  0.0597  0.1614
 5061TIP3    H136818   0.026   0.785   8.066  0.2123  0.5775  2.2495
 5061TIP3    H236819   0.125   0.894   8.031 -0.4097 -0.2719 -2.9182
 5062TIP3   OH236820   0.883   6.066   8.254 -0.1990  0.9233 -0.1309
 5062TIP3    H136821   0.876   5.985   8.305  2.3478  0.9203  0.3065
 5062TIP3    H236822   0.833   6.130   8.305  0.1029  0.2813  1.0038
 5063TIP3   OH236823   0.265   1.638   0.459 -0.0930 -0.1657 -0.3375
 5063TIP3    H136824   0.278   1.637   0.554  0.8623  1.7335 -0.4043
 5063TIP3    H236825   0.189   1.695   0.447  1.9471  2.6943 -0.8156
 5064TIP3   OH236826   1.938   3.095   1.778  0.2964 -0.1975 -0.0431
 5064TIP3    H136827   1.922   3.089   1.873 -0.3226  0.2460 -0.1125
 5064TIP3    H236828   2.003   3.027   1.761  0.8509  0.0931  0.7945
 5065TIP3   OH236829   6.017   3.393   8.785 -0.6007 -0.3219  0.0342
 5065TIP3    H136830   5.924   3.411   8.795 -0.5222 -0.2808  0.7585
 5065TIP3    H236831   6.030   3.309   8.830 -0.2468 -0.2043  0.1563
 5066TIP3   OH236832   5.992   5.046   2.003 -0.8028  0.4901 -0.0307
 5066TIP3    H136833   5.983   5.124   2.058 -0.6010 -0.0236  0.7441
 5066TIP3    H236834   6.018   4.977   2.063 -1.8400 -0.3969 -0.5662
 5067TIP3   OH236835   0.299   5.444   0.208  0.5326 -0.0428  0.0036
 5067TIP3    H136836   0.381   5.399   0.227  0.6827 -0.0743 -0.6903
 5067TIP3    H236837   0.309   5.529   0.251  0.9376 -0.0405 -0.0845
 5068TIP3   OH236838   4.550   6.073   7.488  0.1470 -0.1153 -0.0610
 5068TIP3    H136839   4.473   6.082   7.544  1.5306 -0.1645  1.9525
 5068TIP3    H236840   4.538   5.988   7.445 -0.5300 -0.5460  0.9222
 5069TIP3   OH236841   2.281   1.164   7.060  0.1474 -0.4216 -0.4410
 5069TIP3    H136842   2.343   1.188   6.992  0.0612  1.6298  0.1282
 5069TIP3    H236843   2.322   1.090   7.105  1.0417 -0.6253 -1.5546
 5070TIP3   OH236844   1.840   1.648   0.175 -0.3081 -0.3379  0.1006
 5070TIP3    H136845   1.780   1.718   0.200  1.6656  0.8961  1.7298
 5070TIP3    H236846   1.880   1.619   0.257  1.9617 -0.4396 -0.9469
 5071TIP3   OH236847   1.723   4.098   6.828 -0.2042  0.2488 -0.6628
 5071TIP3    H136848   1.767   4.155   6.764 -0.2311 -1.3263 -2.1609
 5071TIP3    H236849   1.633   4.093   6.798  0.3100 -2.4749 -2.0725
 5072TIP3   OH236850   5.598   1.846   7.988 -0.2504 -0.6481 -0.2735
 5072TIP3    H136851   5.523   1.786   7.991 -0.1900 -0.7447 -0.6543
 5072TIP3    H236852   5.568   1.919   7.935 -0.8359  0.3808  1.3973
 5073TIP3   OH236853   3.187   6.187   7.997  0.2248 -0.0695 -0.7654
 5073TIP3    H136854   3.209   6.200   8.089  1.2261  1.8003 -1.2159
 5073TIP3    H236855   3.218   6.098   7.978  1.5696  0.1226  0.2969
 5074TIP3   OH236856   2.186   4.068   0.480  0.0984  0.3320 -0.3022
 5074TIP3    H136857   2.102   4.109   0.456 -0.7315 -0.5794  0.9193
 5074TIP3    H236858   2.194   3.994   0.420  0.2427  0.6535 -0.6876
 5075TIP3   OH236859   1.764   4.204   1.453 -0.3187  0.6771  0.1420
 5075TIP3    H136860   1.739   4.182   1.363  0.2310  2.1965 -0.4248
 5075TIP3    H236861   1.680   4.217   1.498 -0.6066 -0.7348  0.0385
 5076TIP3   OH236862   4.845   5.542   8.773  0.2095 -0.7663  0.4991
 5076TIP3    H136863   4.792   5.621   8.780 -0.3464 -1.0584 -0.3555
 5076TIP3    H236864   4.832   5.511   8.684  2.8263 -0.1347 -0.1921
 5077TIP3   OH236865   2.376   4.805   1.315  0.5748 -0.3324 -0.8381
 5077TIP3    H136866   2.376   4.727   1.259  0.2584 -0.7128 -0.3129
 5077TIP3    H236867   2.468   4.814   1.342  0.5697 -0.6705 -0.6980
 5078TIP3   OH236868   3.891   0.712   2.459 -0.3251 -0.2742 -0.2594
 5078TIP3    H136869   3.830   0.754   2.399 -1.3017 -0.8017  0.3473
 5078TIP3    H236870   3.869   0.747   2.545  0.6462  0.0006 -0.1054
 5079TIP3   OH236871   0.173   3.412   7.495 -0.3620  0.6213 -0.0052
 5079TIP3    H136872   0.087   3.411   7.538 -0.6980  0.0910 -0.6681
 5079TIP3    H236873   0.176   3.329   7.447  1.1248 -0.0333  1.1582
 5080TIP3   OH236874   3.621   3.293   8.536 -0.0821 -0.3529 -0.6490
 5080TIP3    H136875   3.549   3.267   8.593  1.1350  2.0676  2.3162
 5080TIP3    H236876   3.579   3.324   8.456 -2.2089 -0.6450  0.2805
 5081TIP3   OH236877   1.750   3.811   8.395 -0.1814  0.1376 -0.1052
 5081TIP3    H136878   1.846   3.817   8.394 -0.2090  0.5721 -0.6078
 5081TIP3    H236879   1.721   3.894   8.435 -0.3672  0.3951 -0.7578
 5082TIP3   OH236880   0.395   1.969   0.978 -0.1173  0.1140 -0.4868
 5082TIP3    H136881   0.453   2.014   1.040 -0.7515 -1.3494  1.2759
 5082TIP3    H236882   0.451   1.905   0.935 -0.2614 -1.0454  0.9481
 5083TIP3   OH236883   4.137   1.438   1.110  0.1826 -0.3702 -0.1720
 5083TIP3    H136884   4.182   1.359   1.080  0.2549 -1.1570  1.8390
 5083TIP3    H236885   4.045   1.423   1.088  0.1431 -1.1979  0.5072
 5084TIP3   OH236886   2.659   5.275   0.169  0.0348  0.2454 -0.1318
 5084TIP3    H136887   2.713   5.197   0.180 -0.6396 -0.2331 -0.1404
 5084TIP3    H236888   2.699   5.322   0.096 -0.6698 -1.1028 -1.4490
 5085TIP3   OH236889   0.475   3.071   8.265 -0.7027  0.0177 -0.3578
 5085TIP3    H136890   0.429   3.085   8.348 -2.1446  0.9009 -1.2639
 5085TIP3    H236891   0.487   3.159   8.229  0.8125 -0.2724 -0.6469
 5086TIP3   OH236892   0.276   4.527   0.984  0.0362  0.4099  0.0626
 5086TIP3    H136893   0.333   4.555   1.055  0.8427 -0.5869 -0.1636
 5086TIP3    H236894   0.286   4.432   0.981 -0.8177  0.3213 -0.6875
 5087TIP3   OH236895   0.693   6.695   0.713  0.2054  0.2377  0.0852
 5087TIP3    H136896   0.629   6.762   0.687  0.2473 -0.0777 -0.8641
 5087TIP3    H236897   0.721   6.722   0.801 -0.6742  0.7931  0.2108
 5088TIP3   OH236898   4.049   6.406   8.728 -0.2196 -0.1275 -0.2984
 5088TIP3    H136899   3.971   6.392   8.675 -0.4103 -1.7492  0.3570
 5088TIP3    H236900   4.104   6.464   8.674 -1.3917  0.1695 -1.2265
 5089TIP3   OH236901   2.615   2.794   1.687  0.4910  0.1645  0.2235
 5089TIP3    H136902   2.605   2.754   1.774 -0.8492 -0.8405 -0.3444
 5089TIP3    H236903   2.634   2.886   1.705 -0.6666  0.1745  1.6009
 5090TIP3   OH236904   5.965   0.343   1.593 -0.1065 -0.0308 -0.1706
 5090TIP3    H136905   5.879   0.361   1.632  0.5324  0.5953  1.0149
 5090TIP3    H236906   6.023   0.408   1.632  1.1625 -1.2259  0.0295
 5091TIP3   OH236907   3.897   2.818   7.739  0.0196 -0.2738  0.3092
 5091TIP3    H136908   3.854   2.821   7.824 -1.0241 -1.3253 -0.1522
 5091TIP3    H236909   3.830   2.846   7.677  1.0635  1.4477 -0.0932
 5092TIP3   OH236910   6.346   5.704   0.601 -0.3952 -0.3116  0.7953
 5092TIP3    H136911   6.375   5.792   0.624 -0.3719 -0.4123  1.1676
 5092TIP3    H236912   6.311   5.712   0.513  1.2940 -0.2917  0.0800
 5093TIP3   OH236913   4.347   1.801   8.062 -0.2549 -0.0734 -0.0712
 5093TIP3    H136914   4.319   1.806   7.971 -0.5690 -0.5543 -0.0066
 5093TIP3    H236915   4.368   1.891   8.086 -0.6159  0.1244 -0.4806
 5094TIP3   OH236916   5.723   3.620   0.936  0.1515  0.3613  0.7158
 5094TIP3    H136917   5.696   3.626   1.028  0.3228  0.1575  0.7795
 5094TIP3    H236918   5.724   3.711   0.906 -0.9880  0.3470  0.6004
 5095TIP3   OH236919   1.534   0.476   1.118 -0.0918  0.6658 -0.1512
 5095TIP3    H136920   1.443   0.474   1.146 -0.3667  1.3389 -0.9746
 5095TIP3    H236921   1.564   0.385   1.127 -0.3003  0.7530  1.8073
 5096TIP3   OH236922   3.110   2.179   1.505 -0.0785 -0.2478  0.1217
 5096TIP3    H136923   3.108   2.149   1.596 -2.6165 -0.5625  0.0474
 5096TIP3    H236924   3.171   2.253   1.505  2.2720 -2.0549  1.3947
 5097TIP3   OH236925   1.812   4.165   0.319 -0.1584 -0.8301 -0.0675
 5097TIP3    H136926   1.820   4.245   0.267  0.9305 -1.1128 -0.3665
 5097TIP3    H236927   1.730   4.175   0.367  0.1908  0.6748  0.2539
 5098TIP3   OH236928   5.867   4.655   6.936  0.3475  0.5097 -0.0931
 5098TIP3    H136929   5.795   4.657   6.874  0.3894  2.1761 -0.1485
 5098TIP3    H236930   5.940   4.697   6.890  0.5508  1.2330  0.8417
 5099TIP3   OH236931   3.918   3.702   7.587 -0.1677 -0.5042  0.3442
 5099TIP3    H136932   3.951   3.619   7.553  0.4485 -0.3112  0.4559
 5099TIP3    H236933   3.846   3.724   7.528 -1.4581 -1.9355  1.3084
 5100TIP3   OH236934   2.998   0.325   1.690  0.1270  0.8415  0.3950
 5100TIP3    H136935   2.974   0.268   1.764 -1.2529  2.3229  1.1404
 5100TIP3    H236936   3.086   0.358   1.713 -0.2827  1.2845  1.3965
 5101TIP3   OH236937   1.918   1.124   7.508 -0.5097 -0.6271  0.0648
 5101TIP3    H136938   1.922   1.032   7.534  0.8723 -0.3691  0.9295
 5101TIP3    H236939   2.001   1.161   7.541 -0.6364  0.7182 -1.0427
 5102TIP3   OH236940   0.529   1.756   1.591  0.6076  0.4703  0.0282
 5102TIP3    H136941   0.454   1.799   1.550  1.2963  1.7993  0.0789
 5102TIP3    H236942   0.494   1.717   1.670  0.1189  1.8641  0.5322
 5103TIP3   OH236943   1.927   1.332   8.131 -0.6661  0.0461 -0.0432
 5103TIP3    H136944   1.864   1.384   8.181 -0.0183 -0.1988  1.0617
 5103TIP3    H236945   1.978   1.285   8.197  0.7167  0.2737 -0.8938
 5104TIP3   OH236946   5.125   2.961   1.790  0.6323  0.0599 -0.1617
 5104TIP3    H136947   5.054   2.921   1.840  1.2789  0.0550  0.7748
 5104TIP3    H236948   5.084   3.036   1.746  0.3139  0.8532  1.4227
 5105TIP3   OH236949   3.107   0.958   8.450 -0.8430  0.3858 -0.4019
 5105TIP3    H136950   3.095   0.874   8.493  0.0098 -0.9797 -2.6607
 5105TIP3    H236951   3.202   0.971   8.446 -0.9611  1.5520  0.0585
 5106TIP3   OH236952   5.141   4.444   0.259  0.2497 -0.4962  0.4778
 5106TIP3    H136953   5.221   4.395   0.237  0.0215 -0.8739  0.4853
 5106TIP3    H236954   5.143   4.520   0.201  0.8901 -0.2238  0.8514
 5107TIP3   OH236955   1.444   5.733   6.346  0.5680  0.0501 -0.1887
 5107TIP3    H136956   1.533   5.745   6.379  0.7678 -0.3493 -0.5757
 5107TIP3    H236957   1.419   5.819   6.314  1.3522 -0.1488 -1.3799
 5108TIP3   OH236958   4.655   2.557   7.671 -0.3506  0.4860 -0.2988
 5108TIP3    H136959   4.601   2.587   7.743 -0.4235  1.6531 -0.8088
 5108TIP3    H236960   4.600   2.567   7.593 -0.3975 -1.0758 -0.5051
 5109TIP3   OH236961   4.673   3.439   0.597 -0.3773 -0.0873  0.3666
 5109TIP3    H136962   4.622   3.390   0.532 -0.5606  0.0942  0.3720
 5109TIP3    H236963   4.664   3.388   0.678 -3.3492  1.5899  1.2817
 5110TIP3   OH236964   1.358   0.998   7.618 -0.1289 -0.3725  0.1226
 5110TIP3    H136965   1.292   1.016   7.685 -1.0301 -4.5675  0.6431
 5110TIP3    H236966   1.410   0.927   7.655  1.9837 -0.1085 -2.0735
 5111TIP3   OH236967   0.234   2.320   0.266  0.2671  0.1457 -0.2909
 5111TIP3    H136968   0.292   2.306   0.341 -0.6711  1.3050  0.6966
 5111TIP3    H236969   0.289   2.361   0.199  0.6283  1.1630  0.5992
 5112TIP3   OH236970   6.505   2.027   8.461 -0.4155 -0.2443 -0.5289
 5112TIP3    H136971   6.433   1.973   8.492  0.2409 -1.1762 -0.5903
 5112TIP3    H236972   6.489   2.113   8.500 -1.3968 -0.5168 -0.3138
 5113TIP3   OH236973   1.729   5.750   0.478  0.1377 -0.1272  0.3600
 5113TIP3    H136974   1.735   5.783   0.389  0.3272  0.2716  0.5125
 5113TIP3    H236975   1.635   5.737   0.493  0.1271 -0.4473  0.0172
 5114TIP3   OH236976   6.338   0.397   0.276 -0.4353  0.4916  0.9863
 5114TIP3    H136977   6.389   0.382   0.355 -0.9367  2.3337  1.7228
 5114TIP3    H236978   6.308   0.310   0.249  4.0272 -0.9079 -0.2395
 5115TIP3   OH236979   4.717   5.043   7.745 -0.0102 -0.6598 -0.0819
 5115TIP3    H136980   4.810   5.048   7.725 -0.5315 -2.2415 -3.7384
 5115TIP3    H236981   4.695   4.950   7.734 -2.2797 -0.0960 -0.8784
 5116TIP3   OH236982   6.373   2.210   7.224 -0.4454  0.2197  0.2800
 5116TIP3    H136983   6.294   2.239   7.270 -0.7034  1.3662 -0.8385
 5116TIP3    H236984   6.354   2.119   7.200 -2.0591  0.8766 -1.1925
 5117TIP3   OH236985   5.318   3.769   1.751 -0.9008 -0.0963  0.3882
 5117TIP3    H136986   5.371   3.756   1.830 -0.5764 -0.7001  0.0765
 5117TIP3    H236987   5.241   3.713   1.764 -1.1155  0.2270  0.5186
 5118TIP3   OH236988   1.824   2.614   0.425  0.1954 -0.1661  0.0615
 5118TIP3    H136989   1.909   2.645   0.396 -0.0407  0.1056 -0.3413
 5118TIP3    H236990   1.829   2.618   0.521 -0.0654  1.7781  0.0264
 5119TIP3   OH236991   3.520   4.206   0.310  0.7954 -0.0686 -0.2516
 5119TIP3    H136992   3.446   4.254   0.274  0.7510 -0.4857 -0.7235
 5119TIP3    H236993   3.583   4.273   0.334  0.6022  0.2418 -0.6113
 5120TIP3   OH236994   3.497   0.385   7.394 -0.2502  0.3061  0.4266
 5120TIP3    H136995   3.427   0.420   7.340 -0.4881 -0.2110  0.3954
 5120TIP3    H236996   3.561   0.457   7.399 -0.1470  0.3138 -0.6628
 5121TIP3   OH236997   1.485   5.851   0.915 -0.5242  0.1949 -0.4263
 5121TIP3    H136998   1.393   5.875   0.924 -0.2027  1.9092 -1.3712
 5121TIP3    H236999   1.515   5.897   0.836  0.8374 -1.3150 -0.8557
 5122TIP3   OH237000   5.362   3.203   8.801  0.5119 -0.0330  0.0802
 5122TIP3    H137001   5.313   3.179   8.723  0.7532 -0.3386  0.0230
 5122TIP3    H237002   5.338   3.137   8.866 -0.2151  0.6053  0.4841
 5123TIP3   OH237003   4.739   5.257   1.461 -0.2290 -0.4502  0.2804
 5123TIP3    H137004   4.658   5.247   1.510 -0.6803  1.4549 -0.0046
 5123TIP3    H237005   4.726   5.204   1.382  0.1527 -2.7978  1.6918
 5124TIP3   OH237006   0.871   4.800   8.488  0.1894 -0.2011  0.2087
 5124TIP3    H137007   0.956   4.769   8.457 -0.2597 -0.6828 -0.5844
 5124TIP3    H237008   0.836   4.853   8.416 -0.0309  0.2958  0.6687
 5125TIP3   OH237009   4.333   6.823   7.991 -0.1452 -0.1217 -0.1045
 5125TIP3    H137010   4.270   6.775   7.937  0.3502 -1.8913  0.8356
 5125TIP3    H237011   4.410   6.767   7.993 -0.1803 -0.1728  2.5198
 5126TIP3   OH237012   2.635   5.447   7.266  0.2691 -0.0558 -0.3491
 5126TIP3    H137013   2.622   5.361   7.226  2.4153  0.1718 -1.6967
 5126TIP3    H237014   2.727   5.448   7.292  0.0230  1.4665  0.5949
 5127TIP3   OH237015   4.245   5.930   8.731 -0.2895 -0.0194 -0.3723
 5127TIP3    H137016   4.236   5.835   8.723 -0.5220 -0.0013 -0.3509
 5127TIP3    H237017   4.224   5.949   8.823 -1.8928  0.2208 -0.7471
 5128TIP3   OH237018   3.354   4.728   0.600  0.5238 -0.6491 -0.2196
 5128TIP3    H137019   3.425   4.780   0.637 -0.9456  1.4104 -0.1755
 5128TIP3    H237020   3.280   4.787   0.595 -0.8442 -2.3537 -1.5433
 5129TIP3   OH237021   0.187   0.795   7.064  0.2585  0.0367 -0.0975
 5129TIP3    H137022   0.282   0.784   7.060  0.2023 -0.5326  0.0472
 5129TIP3    H237023   0.163   0.761   7.150  0.0558  1.2629  0.3573
 5130TIP3   OH237024   1.552   4.835   1.238 -0.0743 -0.9681  0.1446
 5130TIP3    H137025   1.469   4.875   1.265  0.8650 -0.1358  2.0182
 5130TIP3    H237026   1.544   4.826   1.143 -2.0967 -0.4503  0.2066
 5131TIP3   OH237027   3.757   2.603   6.659  0.7328  0.1399 -0.0893
 5131TIP3    H137028   3.838   2.567   6.621  0.1488 -1.8911  0.4535
 5131TIP3    H237029   3.702   2.526   6.674 -2.5321  1.6237 -3.0737
 5132TIP3   OH237030   5.409   2.962   8.602  0.4478  0.2869  0.2302
 5132TIP3    H137031   5.407   3.051   8.567  0.2062  0.1849 -0.0216
 5132TIP3    H237032   5.501   2.947   8.623  0.5753  0.4059 -0.2310
 5133TIP3   OH237033   5.039   6.647   7.015 -0.0054 -0.0741 -0.2463
 5133TIP3    H137034   5.073   6.584   7.078  0.7142 -0.1363 -0.6853
 5133TIP3    H237035   5.114   6.703   6.994 -0.5962  0.8419  0.0234
 5134TIP3   OH237036   6.688   5.836   7.873 -0.0186  0.0289  0.3686
 5134TIP3    H137037   6.763   5.890   7.852 -0.4173  0.5995  0.3868
 5134TIP3    H237038   6.672   5.851   7.966  0.8479 -1.3681  0.7706
 5135TIP3   OH237039   0.608   2.378   7.948 -0.5244 -0.3727  0.0127
 5135TIP3    H137040   0.664   2.362   8.025  0.8420 -1.9413 -1.2062
 5135TIP3    H237041   0.615   2.472   7.932 -2.1791  0.3218  2.7177
 5136TIP3   OH237042   0.284   4.136   0.133 -0.3600 -0.2760 -0.4114
 5136TIP3    H137043   0.364   4.084   0.125 -1.4366 -2.2744  1.0343
 5136TIP3    H237044   0.290   4.176   0.220  0.0085  1.3293 -1.1330
 5137TIP3   OH237045   5.444   3.645   0.776  0.3793  0.5776 -0.3051
 5137TIP3    H137046   5.526   3.645   0.727 -0.3163 -0.7610 -1.5570
 5137TIP3    H237047   5.389   3.580   0.731 -0.0375 -1.4210  2.7290
 5138TIP3   OH237048   5.899   5.555   8.431  0.0345  0.2145  0.2882
 5138TIP3    H137049   5.956   5.618   8.386 -1.0692  0.0247 -1.5178
 5138TIP3    H237050   5.958   5.490   8.468  1.0441  0.6748 -0.4748
 5139TIP3   OH237051   0.534   2.444   1.428  0.8900  0.2143 -0.2883
 5139TIP3    H137052   0.465   2.494   1.473  0.0097 -0.3206 -1.0094
 5139TIP3    H237053   0.573   2.390   1.496  0.3033  0.2166  0.0588
 5140TIP3   OH237054   0.570   6.502   1.470  0.2673 -0.3975  0.2776
 5140TIP3    H137055   0.599   6.446   1.398  1.1816  0.2752  0.1160
 5140TIP3    H237056   0.514   6.568   1.428  2.6055  1.3862 -0.2277
 5141TIP3   OH237057   4.438   3.899   2.403  0.7313  0.3237 -0.1377
 5141TIP3    H137058   4.433   3.978   2.349  0.2559  0.1015 -0.4220
 5141TIP3    H237059   4.472   3.930   2.487  0.2793  0.8868 -0.1532
 5142TIP3   OH237060   1.441   3.424   2.574 -0.2237 -0.2059 -0.0571
 5142TIP3    H137061   1.503   3.494   2.557  0.5848 -1.2245 -1.6478
 5142TIP3    H237062   1.381   3.459   2.639  1.3217  1.2323  0.6593
 5143TIP3   OH237063   3.732   5.100   1.392 -0.0314 -0.9244 -0.2727
 5143TIP3    H137064   3.771   5.119   1.478  0.2495  2.7093 -1.0734
 5143TIP3    H237065   3.638   5.112   1.405 -0.2193 -2.3440 -0.0928
 5144TIP3   OH237066   3.089   4.289   2.688 -0.5896 -0.4395 -0.3271
 5144TIP3    H137067   3.057   4.283   2.598  0.5030  1.5987 -0.9135
 5144TIP3    H237068   3.018   4.331   2.736 -0.8925 -0.8534 -0.4156
 5145TIP3   OH237069   3.662   3.300   1.582  0.5025  0.0913 -0.0450
 5145TIP3    H137070   3.585   3.243   1.581  1.3959 -1.1855 -2.2327
 5145TIP3    H237071   3.683   3.308   1.675 -2.5685  1.0050  0.6943
 5146TIP3   OH237072   2.095   6.712   7.114 -0.0380 -0.1022 -0.5163
 5146TIP3    H137073   2.113   6.650   7.184 -0.8935  1.1150  0.8378
 5146TIP3    H237074   2.003   6.737   7.126 -0.2052  0.1687 -2.0642
 5147TIP3   OH237075   0.576   0.964   7.561 -0.0862  0.5054 -0.2132
 5147TIP3    H137076   0.513   0.938   7.495 -0.4827 -0.5823  0.5644
 5147TIP3    H237077   0.641   1.016   7.513 -0.8209  0.4794 -1.2726
 5148TIP3   OH237078   1.460   5.153   0.502  0.5353 -0.3903  0.1630
 5148TIP3    H137079   1.485   5.170   0.593 -0.4817 -1.8165  0.7591
 5148TIP3    H237080   1.369   5.182   0.497  0.8242  0.4041 -0.6343
 5149TIP3   OH237081   5.970   5.142   6.179 -0.1259  0.7414  0.7907
 5149TIP3    H137082   5.978   5.154   6.274  0.5548 -1.0285  0.9972
 5149TIP3    H237083   6.015   5.059   6.162 -0.1623  1.0761 -1.1012
 5150TIP3   OH237084   5.151   0.458   0.630  0.5995  0.5318  0.3464
 5150TIP3    H137085   5.127   0.405   0.706 -1.6718  0.8603 -0.0574
 5150TIP3    H237086   5.079   0.521   0.621  1.3209  1.1689 -1.4588
 5151TIP3   OH237087   1.843   3.547   7.469 -0.8869  0.5618 -0.0596
 5151TIP3    H137088   1.752   3.523   7.487 -2.0453  2.5933 -2.4932
 5151TIP3    H237089   1.875   3.478   7.411  0.1910 -1.6750  2.9647
 5152TIP3   OH237090   6.747   3.434   7.953 -0.0374 -0.3412  0.3946
 5152TIP3    H137091   6.824   3.412   8.006  1.5833  0.4493 -1.5211
 5152TIP3    H237092   6.724   3.522   7.981  0.3193 -0.2277  0.3344
 5153TIP3   OH237093   5.131   4.588   7.120  0.5964 -0.1940 -0.0648
 5153TIP3    H137094   5.113   4.637   7.040  0.2988 -1.7247 -0.9725
 5153TIP3    H237095   5.047   4.545   7.141  0.5481  0.5120  1.3154
 5154TIP3   OH237096   2.527   1.222   8.800  0.5504 -0.0310  0.4084
 5154TIP3    H137097   2.577   1.188   8.725 -0.0628 -1.9261  0.7886
 5154TIP3    H237098   2.447   1.169   8.801 -0.4988  1.4883  1.0802
 5155TIP3   OH237099   5.873   2.130   0.541  0.1390  0.0215 -0.1669
 5155TIP3    H137100   5.788   2.099   0.511 -0.0164  2.7600 -3.1251
 5155TIP3    H237101   5.866   2.132   0.637 -3.0284 -0.0342 -0.3091
 5156TIP3   OH237102   4.684   5.003   0.601 -0.4207 -0.1359  0.3046
 5156TIP3    H137103   4.675   5.092   0.636 -2.1922 -0.5743  1.0811
 5156TIP3    H237104   4.621   5.000   0.528  1.2041 -0.1180 -1.1732
 5157TIP3   OH237105   3.739   6.189   0.715 -0.6893 -0.0176  0.1845
 5157TIP3    H137106   3.668   6.244   0.683 -1.4035 -0.1705  1.4592
 5157TIP3    H237107   3.750   6.122   0.647  0.5524  1.9204 -1.6676
 5158TIP3   OH237108   4.277   1.881   0.208 -0.4095 -0.0405  0.5073
 5158TIP3    H137109   4.210   1.950   0.220 -1.0814 -0.1337 -2.1538
 5158TIP3    H237110   4.353   1.914   0.256 -0.6112  2.7470 -0.8945
 5159TIP3   OH237111   1.121   6.403   6.200 -0.1186  0.0236 -0.1660
 5159TIP3    H137112   1.115   6.473   6.265 -2.5423  1.0849 -1.3825
 5159TIP3    H237113   1.158   6.445   6.123  0.6378 -0.6695 -0.1950
 5160TIP3   OH237114   1.919   3.175   7.825  0.0258  0.3609  0.9941
 5160TIP3    H137115   1.917   3.196   7.732  2.6027  0.0739  0.8040
 5160TIP3    H237116   1.918   3.079   7.828  1.6908  0.3120  1.1099
 5161TIP3   OH237117   6.526   3.723   1.053  0.1846  0.4492 -0.8281
 5161TIP3    H137118   6.464   3.660   1.090  0.0035  1.1213  0.0319
 5161TIP3    H237119   6.602   3.669   1.029  0.3059 -0.0375  0.5121
 5162TIP3   OH237120   6.787   4.040   8.309 -0.1563  0.2956 -0.4782
 5162TIP3    H137121   6.723   4.072   8.245  0.6360  1.7345 -0.5792
 5162TIP3    H237122   6.770   4.092   8.387 -0.9746 -1.3044  0.4777
 5163TIP3   OH237123   5.126   5.921   7.137  0.3172  0.1878  0.1276
 5163TIP3    H137124   5.152   5.831   7.115 -0.3197  0.0380 -0.0349
 5163TIP3    H237125   5.117   5.921   7.232  1.2906  0.3520  0.2340
 5164TIP3   OH237126   2.652   6.170   7.135  0.3334 -1.0409 -0.1894
 5164TIP3    H137127   2.648   6.077   7.114  1.0248 -1.7406  2.3908
 5164TIP3    H237128   2.731   6.179   7.188 -0.4404  0.7724  0.7418
 5165TIP3   OH237129   6.684   5.565   8.362 -0.3214  1.0355 -0.3639
 5165TIP3    H137130   6.721   5.541   8.447 -1.0070  2.7332  0.4634
 5165TIP3    H237131   6.616   5.499   8.345  0.7629 -0.1359 -0.3071
 5166TIP3   OH237132   4.572   5.473   7.386  0.4974  0.1453  0.0131
 5166TIP3    H137133   4.640   5.434   7.331  1.3607  0.0446  1.1192
 5166TIP3    H237134   4.527   5.399   7.426 -1.1965  0.1595 -1.7507
 5167TIP3   OH237135   2.223   3.917   1.628  0.4653 -0.1980 -0.0076
 5167TIP3    H137136   2.276   3.977   1.575 -0.4808  0.5954 -0.0825
 5167TIP3    H237137   2.267   3.832   1.620  1.0268  0.1757 -1.0556
 5168TIP3   OH237138   3.930   6.235   1.135 -0.5752 -0.7021 -0.4212
 5168TIP3    H137139   3.839   6.210   1.147 -0.9118  0.3515 -0.6477
 5168TIP3    H237140   3.971   6.221   1.220 -1.5305  1.0569  0.3785
 5169TIP3   OH237141   0.546   5.489   8.261 -0.0432  0.4282 -0.2803
 5169TIP3    H137142   0.612   5.432   8.300  0.0743  0.3694 -0.5627
 5169TIP3    H237143   0.582   5.512   8.175 -1.8467 -2.2515 -1.8861
 5170TIP3   OH237144   1.672   2.226   1.522 -0.3305  0.4450 -0.3149
 5170TIP3    H137145   1.735   2.155   1.508 -0.3936  0.2811  0.2062
 5170TIP3    H237146   1.590   2.193   1.484 -0.7619 -0.4119  1.2387
 5171TIP3   OH237147   2.715   4.129   7.356 -0.0034  0.5105  0.2970
 5171TIP3    H137148   2.692   4.110   7.447 -0.6943 -0.0497  0.0135
 5171TIP3    H237149   2.645   4.089   7.305  1.0916 -0.4079 -0.5371
 5172TIP3   OH237150   1.180   3.146   1.510 -0.8123 -0.3301 -0.4051
 5172TIP3    H137151   1.164   3.232   1.549  0.0813  0.0262 -0.8264
 5172TIP3    H237152   1.157   3.156   1.418  2.5281  0.4662 -1.2733
 5173TIP3   OH237153   3.019   2.694   8.854  0.1839 -0.2821  0.1620
 5173TIP3    H137154   2.926   2.697   8.873  0.3906 -0.3983  1.2481
 5173TIP3    H237155   3.058   2.762   8.909  0.9242 -1.3190  0.9621
 5174TIP3   OH237156   5.766   0.816   0.851 -0.0231  0.4226 -0.7474
 5174TIP3    H137157   5.740   0.812   0.943  1.0976  1.1290 -0.3734
 5174TIP3    H237158   5.720   0.743   0.810 -4.2504  2.7561 -0.6420
 5175TIP3   OH237159   3.611   0.919   1.420  0.5516  0.4977  0.3754
 5175TIP3    H137160   3.530   0.937   1.468  1.7083  0.8945  2.2820
 5175TIP3    H237161   3.681   0.935   1.484  2.1497  0.2238 -1.2253
 5176TIP3   OH237162   5.338   3.818   8.067 -0.5209  0.3513 -0.5011
 5176TIP3    H137163   5.352   3.912   8.055 -0.7621  0.5362  0.6170
 5176TIP3    H237164   5.275   3.811   8.138 -4.0979 -0.5371 -3.4765
 5177TIP3   OH237165   1.607   3.613   2.465  0.4417 -0.6499  0.1563
 5177TIP3    H137166   1.681   3.628   2.406 -0.6952 -1.2065 -1.4699
 5177TIP3    H237167   1.552   3.691   2.456 -0.9315 -1.7217 -1.4221
 5178TIP3   OH237168   4.021   2.585   7.694 -0.1506 -0.0638 -0.0616
 5178TIP3    H137169   3.962   2.653   7.725  0.7804  0.0404  1.5939
 5178TIP3    H237170   3.979   2.551   7.615 -3.0283 -0.7842  1.6443
 5179TIP3   OH237171   3.498   2.566   1.263 -0.2588 -0.2632 -0.1417
 5179TIP3    H137172   3.554   2.489   1.272  2.0634  1.4365  0.8142
 5179TIP3    H237173   3.500   2.607   1.349 -1.6684  0.7741 -0.5589
 5180TIP3   OH237174   5.213   2.786   6.867  0.0027  0.0509 -0.0591
 5180TIP3    H137175   5.148   2.717   6.879 -0.9479  0.9747  0.2598
 5180TIP3    H237176   5.169   2.866   6.897  0.9995  0.8350 -0.6201
 5181TIP3   OH237177   3.976   6.659   7.218  0.2117 -0.1813  0.4179
 5181TIP3    H137178   3.963   6.615   7.134 -2.3762  1.1873 -0.0278
 5181TIP3    H237179   4.025   6.738   7.196 -1.9728  1.1004 -0.2564
 5182TIP3   OH237180   5.551   1.959   7.663 -0.6359 -0.3794 -0.4184
 5182TIP3    H137181   5.639   1.997   7.660 -0.0329 -1.5695  0.9924
 5182TIP3    H237182   5.496   2.028   7.700  0.2373 -0.4557  1.1195
 5183TIP3   OH237183   3.828   5.432   8.374  0.1083 -0.1645 -0.1496
 5183TIP3    H137184   3.770   5.508   8.380 -0.0256 -0.2570 -0.2536
 5183TIP3    H237185   3.795   5.383   8.298  1.0865  0.4203 -0.9763
 5184TIP3   OH237186   3.166   1.642   1.198  0.0529 -0.2198  0.2382
 5184TIP3    H137187   3.160   1.554   1.236 -1.2165 -1.1243 -1.8781
 5184TIP3    H237188   3.235   1.685   1.249  1.9942 -3.0250  0.2541
 5185TIP3   OH237189   4.496   3.189   8.756 -0.2733 -0.1919  0.6200
 5185TIP3    H137190   4.515   3.171   8.664 -0.3837 -0.1619  0.5916
 5185TIP3    H237191   4.515   3.106   8.800 -0.1980 -0.1997  0.5737
 5186TIP3   OH237192   5.394   6.103   7.227 -0.5410 -0.1411  0.3526
 5186TIP3    H137193   5.427   6.177   7.277 -0.7438 -1.6054  2.8010
 5186TIP3    H237194   5.413   6.126   7.136 -0.3880  2.7690  1.0049
 5187TIP3   OH237195   1.487   2.738   0.386  0.0862  0.1936  0.5524
 5187TIP3    H137196   1.538   2.815   0.359 -1.0547  0.7072 -0.2679
 5187TIP3    H237197   1.396   2.761   0.364 -0.3098 -1.3057  0.4956
 5188TIP3   OH237198   3.765   2.441   0.510  0.3182 -0.1491  0.7504
 5188TIP3    H137199   3.682   2.393   0.500 -0.3978  1.0373  0.8465
 5188TIP3    H237200   3.830   2.384   0.468 -0.4045 -1.4503  1.3271
 5189TIP3   OH237201   1.157   0.102   0.101 -0.3741  0.2536  0.0404
 5189TIP3    H137202   1.102   0.061   0.168  0.9692 -0.7342  0.5821
 5189TIP3    H237203   1.247   0.089   0.132  0.2349  0.6755 -1.4510
 5190TIP3   OH237204   2.096   4.648   2.151 -0.4189 -0.2304 -0.2338
 5190TIP3    H137205   2.178   4.670   2.108 -0.7233  0.2294 -0.5923
 5190TIP3    H237206   2.046   4.730   2.151 -1.2978 -0.7465 -0.9804
 5191TIP3   OH237207   5.863   5.332   1.777 -0.6854  0.3598 -0.5761
 5191TIP3    H137208   5.772   5.338   1.748 -0.8386  1.9414  0.1454
 5191TIP3    H237209   5.857   5.323   1.872 -0.0869  1.5421 -0.4093
 5192TIP3   OH237210   0.893   5.503   0.707  0.7015  0.1120  0.1014
 5192TIP3    H137211   0.868   5.411   0.717 -1.6026  0.8855  2.4696
 5192TIP3    H237212   0.888   5.540   0.795 -0.6804  2.9924 -1.0278
 5193TIP3   OH237213   3.071   4.535   2.054 -0.0454  0.3335  0.8065
 5193TIP3    H137214   2.976   4.540   2.058 -0.1432 -0.7422  0.2769
 5193TIP3    H237215   3.102   4.608   2.108 -1.1585  1.0457  0.5099
 5194TIP3   OH237216   0.770   3.201   0.432 -0.6213 -0.0622 -0.2095
 5194TIP3    H137217   0.739   3.285   0.400 -2.1545 -0.5534 -0.0938
 5194TIP3    H237218   0.819   3.222   0.512  1.2835  0.9330 -1.5652
 5195TIP3   OH237219   1.218   1.384   0.309 -0.1655 -0.0557 -0.1891
 5195TIP3    H137220   1.234   1.421   0.222 -0.7114  2.2814  0.6409
 5195TIP3    H237221   1.297   1.403   0.359 -1.0272  1.4409  0.6796
 5196TIP3   OH237222   4.427   6.140   8.249 -0.6373  0.1071 -0.0202
 5196TIP3    H137223   4.463   6.191   8.321 -0.0145  0.8703 -0.8351
 5196TIP3    H237224   4.430   6.049   8.279  2.2563  0.0729 -0.0954
 5197TIP3   OH237225   6.472   2.191   1.045  0.1025  0.2847  0.0818
 5197TIP3    H137226   6.481   2.286   1.047  1.4601  0.1573  0.6770
 5197TIP3    H237227   6.489   2.168   0.953  2.0327  0.4462  0.3523
 5198TIP3   OH237228   2.845   1.912   8.084  0.5317  0.0605 -0.0303
 5198TIP3    H137229   2.764   1.911   8.136 -0.1236  2.2058 -0.9132
 5198TIP3    H237230   2.905   1.855   8.133 -1.4771 -1.6197  0.6476
 5199TIP3   OH237231   0.283   2.621   7.660  0.7723  0.3582  0.7451
 5199TIP3    H137232   0.250   2.671   7.585 -1.3890 -0.5536  0.9904
 5199TIP3    H237233   0.245   2.665   7.737  2.0879  0.6502  1.2492
 5200TIP3   OH237234   5.934   0.176   7.899 -0.3822 -0.0001  0.5844
 5200TIP3    H137235   5.998   0.244   7.877 -1.3922  0.8144  0.0780
 5200TIP3    H237236   5.883   0.163   7.819  1.6332 -3.5564 -0.3343
 5201TIP3   OH237237   6.153   2.006   7.468 -0.3375  0.3684  0.0949
 5201TIP3    H137238   6.066   2.023   7.432 -0.5096  0.6802  0.6487
 5201TIP3    H237239   6.152   2.047   7.555  0.2010 -0.0286  0.2984
 5202TIP3   OH237240   0.188   6.631   2.342 -0.1094  0.0949 -0.0126
 5202TIP3    H137241   0.280   6.611   2.320 -0.0373  1.5386 -1.1510
 5202TIP3    H237242   0.193   6.711   2.393 -0.8044  0.9887 -1.2987
 5203TIP3   OH237243   4.946   2.193   7.695 -0.2760  0.0614  0.2307
 5203TIP3    H137244   4.995   2.273   7.673  1.6621 -0.2413  2.8914
 5203TIP3    H237245   4.875   2.223   7.752  0.1749 -0.0179  0.8511
 5204TIP3   OH237246   5.218   6.727   1.432  0.5448 -0.3176  0.5012
 5204TIP3    H137247   5.252   6.693   1.350  1.5044  0.8483  0.3703
 5204TIP3    H237248   5.167   6.804   1.407 -0.8155 -1.0801  0.8511
 5205TIP3   OH237249   0.133   5.112   7.497  0.4053 -0.0003 -0.2132
 5205TIP3    H137250   0.129   5.189   7.440 -0.6795  0.1209  0.0058
 5205TIP3    H237251   0.127   5.037   7.438  0.5058  0.1018 -0.3517
 5206TIP3   OH237252   4.057   1.101   0.770  0.3679 -0.4834 -0.2073
 5206TIP3    H137253   3.995   1.028   0.775 -0.9121  0.6125  0.6209
 5206TIP3    H237254   4.005   1.174   0.736  1.2127  0.4664  0.4931
 5207TIP3   OH237255   3.313   4.797   1.218 -0.0238 -0.2388  0.1232
 5207TIP3    H137256   3.324   4.794   1.123 -1.8914 -3.4821 -0.1375
 5207TIP3    H237257   3.380   4.739   1.252 -1.3045 -1.5868  0.4481
 5208TIP3   OH237258   3.890   6.580   7.750  0.3921 -0.0706  0.1790
 5208TIP3    H137259   3.811   6.633   7.756  1.3081  1.5706 -1.4582
 5208TIP3    H237260   3.901   6.561   7.657  3.5321  2.4191 -0.1284
 5209TIP3   OH237261   2.026   1.303   1.049 -0.0124 -0.1773  0.9464
 5209TIP3    H137262   1.987   1.328   1.133 -1.9703  1.3912 -0.3322
 5209TIP3    H237263   2.061   1.385   1.014  1.2693 -0.9095  0.4389
 5210TIP3   OH237264   3.836   4.016   1.435 -0.3974 -0.0731  0.0750
 5210TIP3    H137265   3.885   4.098   1.436 -0.4704 -0.0322  1.2205
 5210TIP3    H237266   3.890   3.954   1.483 -0.5632 -0.5696 -0.3664
 5211TIP3   OH237267   0.885   4.933   7.201 -0.1971 -0.3068 -0.0545
 5211TIP3    H137268   0.864   5.019   7.238 -0.0169 -0.9191  1.5484
 5211TIP3    H237269   0.858   4.940   7.109 -0.3792  1.3842  0.0820
 5212TIP3   OH237270   4.059   4.093   2.486 -0.4081  0.0755  0.2309
 5212TIP3    H137271   4.093   4.142   2.561  0.5782  0.5393 -0.4859
 5212TIP3    H237272   4.046   4.160   2.418  0.0783 -0.5170 -0.4604
 5213TIP3   OH237273   0.743   6.705   7.112  0.2258  0.0623 -0.2915
 5213TIP3    H137274   0.750   6.801   7.115 -0.9647  0.1265  1.6314
 5213TIP3    H237275   0.652   6.688   7.088 -0.3526 -0.5213  2.0770
 5214TIP3   OH237276   4.419   2.886   1.444 -0.4365  0.0688  0.4815
 5214TIP3    H137277   4.334   2.915   1.475 -0.8361 -0.3129 -0.2271
 5214TIP3    H237278   4.477   2.892   1.520 -0.9572  0.8807  0.8181
 5215TIP3   OH237279   1.848   5.776   8.078  0.2503  1.0083 -0.0662
 5215TIP3    H137280   1.839   5.732   8.162 -0.3739 -1.1714 -1.2072
 5215TIP3    H237281   1.919   5.729   8.034 -0.9288  0.6372 -1.6277
 5216TIP3   OH237282   5.867   0.749   8.265 -0.2173 -0.4448  0.1979
 5216TIP3    H137283   5.952   0.719   8.299  0.5181  1.3049  0.0091
 5216TIP3    H237284   5.860   0.839   8.295  0.1979  1.0589 -3.6791
 5217TIP3   OH237285   2.915   6.334   7.352 -0.4668 -0.2692  0.4156
 5217TIP3    H137286   2.919   6.239   7.361  0.1604 -0.2258  0.6061
 5217TIP3    H237287   2.973   6.354   7.279  1.1802  0.1679  1.7940
 5218TIP3   OH237288   4.066   0.438   0.229  0.2029  0.6935  0.1243
 5218TIP3    H137289   4.027   0.443   0.316  1.1274  0.4043  0.5713
 5218TIP3    H237290   4.145   0.385   0.241  1.1130  1.8250 -0.6054
 5219TIP3   OH237291   2.817   5.061   0.192  0.5603  0.0537 -0.4394
 5219TIP3    H137292   2.866   5.048   0.273 -0.4289 -0.3675  0.1048
 5219TIP3    H237293   2.884   5.069   0.125  1.3661 -1.6959  0.1037
 5220TIP3   OH237294   5.206   3.963   0.246 -0.1710 -0.7406 -0.1575
 5220TIP3    H137295   5.123   3.962   0.293  0.0194 -0.0957  0.2128
 5220TIP3    H237296   5.252   3.884   0.276 -0.3324 -0.6906  0.2340
 5221TIP3   OH237297   1.210   3.846   8.293 -0.7287 -0.6003 -0.2786
 5221TIP3    H137298   1.234   3.776   8.354  2.5443 -0.2851 -1.0497
 5221TIP3    H237299   1.168   3.912   8.349 -0.4120 -1.5265  1.1244
 5222TIP3   OH237300   1.609   0.023   7.911 -0.4014  0.9566  0.3642
 5222TIP3    H137301   1.679   0.074   7.870  0.0434 -1.2801 -1.8408
 5222TIP3    H237302   1.650  -0.016   7.989 -0.0687  1.9517  0.7078
 5223TIP3   OH237303   3.422   0.801   0.074  0.6557  0.4008 -0.8226
 5223TIP3    H137304   3.398   0.717   0.113  1.2852  0.4660 -0.2820
 5223TIP3    H237305   3.340   0.851   0.072  0.8538  0.9947  1.9219
 5224TIP3   OH237306   6.437   1.292   8.249 -0.1691 -0.4162  0.9258
 5224TIP3    H137307   6.482   1.364   8.293 -1.2730 -0.5685  2.3934
 5224TIP3    H237308   6.427   1.322   8.158  0.7471  0.6109  1.1417
 5225TIP3   OH237309   2.046   3.254   8.846  0.5441 -0.1392 -0.2969
 5225TIP3    H137310   2.021   3.336   8.802  2.7871  0.2791 -0.8880
 5225TIP3    H237311   2.094   3.282   8.924 -0.1375 -0.9161  0.4260
 5226TIP3   OH237312   4.494   6.395   8.106  0.3053  0.1172 -0.0472
 5226TIP3    H137313   4.436   6.460   8.145 -0.1352 -0.4545  0.2772
 5226TIP3    H237314   4.461   6.311   8.139  1.6075 -0.1907  0.4980
 5227TIP3   OH237315   2.800   4.093   8.451  0.1698 -0.1622  0.3447
 5227TIP3    H137316   2.772   4.009   8.414  0.9031 -1.0804  1.7908
 5227TIP3    H237317   2.764   4.159   8.390 -0.6444 -1.4883 -0.6760
 5228TIP3   OH237318   4.417   6.309   1.674 -0.4860 -0.2652  0.3718
 5228TIP3    H137319   4.393   6.232   1.724 -1.1750 -0.8607 -0.8318
 5228TIP3    H237320   4.343   6.368   1.683 -0.4429 -0.2103  0.3690
 5229TIP3   OH237321   5.265   3.444   1.647  0.4910  0.3792 -0.1883
 5229TIP3    H137322   5.329   3.374   1.631 -2.4116 -2.8494  1.0001
 5229TIP3    H237323   5.225   3.460   1.561  0.8191  0.1818 -0.3784
 5230TIP3   OH237324   5.594   1.799   0.256 -0.8021  0.3903  0.3879
 5230TIP3    H137325   5.611   1.705   0.266  0.2660  0.3039 -1.7081
 5230TIP3    H237326   5.509   1.812   0.298 -2.7745 -2.2688 -2.2946
 5231TIP3   OH237327   0.975   2.649   7.854 -0.3556  0.7401 -0.3804
 5231TIP3    H137328   0.937   2.708   7.919 -0.8290 -0.1815  0.1923
 5231TIP3    H237329   0.899   2.605   7.815 -0.0049  0.5007 -0.8007
 5232TIP3   OH237330   4.055   3.759   0.728  0.2017 -0.1920  0.0323
 5232TIP3    H137331   4.032   3.836   0.675  3.1737  0.5618 -0.3577
 5232TIP3    H237332   4.058   3.792   0.817 -1.6671 -0.7005  0.3271
 5233TIP3   OH237333   3.193   4.864   8.050  0.1162 -0.5918  0.2455
 5233TIP3    H137334   3.163   4.852   8.140  1.2930 -1.1741  0.5741
 5233TIP3    H237335   3.286   4.842   8.052  0.3744  0.2698 -0.9290
 5234TIP3   OH237336   4.410   6.705   1.644  0.1672 -0.4516 -0.2760
 5234TIP3    H137337   4.459   6.684   1.723 -0.8305  1.8286  1.0253
 5234TIP3    H237338   4.473   6.749   1.587  0.2765  0.1741  0.3243
 5235TIP3   OH237339   5.390   0.796   7.160 -0.1238  0.0836 -0.0764
 5235TIP3    H137340   5.424   0.748   7.236  0.1424 -1.0033 -0.8488
 5235TIP3    H237341   5.321   0.739   7.125 -0.6848  0.8780 -0.2732
 5236TIP3   OH237342   5.616   5.762   1.509 -0.1917 -0.0200  0.3169
 5236TIP3    H137343   5.567   5.704   1.451  1.2693  0.8426 -1.9772
 5236TIP3    H237344   5.650   5.830   1.450  4.2290 -0.8748  1.5281
 5237TIP3   OH237345   6.668   6.131   8.601 -1.3338 -0.0504  0.2890
 5237TIP3    H137346   6.705   6.053   8.558  0.0883  1.2158 -0.8910
 5237TIP3    H237347   6.661   6.196   8.531 -1.5805  1.2006  1.4431
 5238TIP3   OH237348   4.582   4.470   6.226  0.1539  0.5607  0.6348
 5238TIP3    H137349   4.627   4.454   6.308  0.4900  0.5271  0.4458
 5238TIP3    H237350   4.599   4.391   6.173  2.7860  1.9326 -0.7411
 5239TIP3   OH237351   2.007   5.788   1.720  0.1100 -0.2331 -0.4837
 5239TIP3    H137352   2.013   5.783   1.815 -0.0836  0.2690 -0.4404
 5239TIP3    H237353   1.989   5.699   1.691 -1.7880 -0.0772  0.0982
 5240TIP3   OH237354   4.842   4.542   7.163 -0.1948  0.0775  0.2565
 5240TIP3    H137355   4.830   4.637   7.159  0.6743  0.1866 -2.8993
 5240TIP3    H237356   4.754   4.507   7.169 -0.6667  1.0995 -0.3243
 5241TIP3   OH237357   2.878   4.269   1.254  0.3254  0.4501 -0.8386
 5241TIP3    H137358   2.909   4.179   1.252  1.2174  0.6739  1.0049
 5241TIP3    H237359   2.822   4.277   1.176  0.3848 -1.6046 -1.1446
 5242TIP3   OH237360   1.555   3.837   7.527 -0.0674  0.0323 -0.1618
 5242TIP3    H137361   1.637   3.807   7.566 -0.0929 -0.0456 -0.1684
 5242TIP3    H237362   1.580   3.917   7.479 -0.0080  0.0448 -0.1104
 5243TIP3   OH237363   1.823   5.731   8.628  0.6442 -0.3310  0.3866
 5243TIP3    H137364   1.756   5.670   8.657  0.5698 -0.6412 -0.4108
 5243TIP3    H237365   1.826   5.798   8.696 -1.4371  0.4474 -0.2218
 5244TIP3   OH237366   3.747   3.746   7.945  0.4563  0.7159 -0.5410
 5244TIP3    H137367   3.655   3.770   7.940  0.5177  0.6769 -2.8165
 5244TIP3    H237368   3.793   3.813   7.895  1.2477 -0.9527 -2.2139
 5245TIP3   OH237369   5.191   0.490   8.124 -0.3113  0.4260 -0.2699
 5245TIP3    H137370   5.265   0.550   8.122  0.5765 -0.5700  1.4389
 5245TIP3    H237371   5.218   0.419   8.181 -2.8626  0.3979  1.0570
 5246TIP3   OH237372   2.010   5.009   1.702 -0.0356 -0.5312  0.0766
 5246TIP3    H137373   2.106   5.015   1.700  0.1519 -1.8273  2.0084
 5246TIP3    H237374   1.986   4.983   1.613  1.4200 -0.3308 -0.4039
 5247TIP3   OH237375   6.480   4.494   6.604 -0.0351  0.3013  0.0758
 5247TIP3    H137376   6.551   4.538   6.556 -0.2237 -1.1317 -1.6183
 5247TIP3    H237377   6.401   4.518   6.557 -0.4533  0.3515  0.8000
 5248TIP3   OH237378   2.563   3.263   1.434  0.2342 -1.1166 -0.4928
 5248TIP3    H137379   2.619   3.205   1.384  0.5915 -0.9467 -0.2916
 5248TIP3    H237380   2.511   3.205   1.490  2.0290 -1.1708  1.2211
 5249TIP3   OH237381   1.251   3.107   0.720 -0.5880  0.5750 -0.9533
 5249TIP3    H137382   1.235   3.013   0.713 -0.0096  0.4168 -0.2671
 5249TIP3    H237383   1.344   3.117   0.703 -0.8062  1.1392 -1.9127
 5250TIP3   OH237384   2.399   1.071   1.437 -0.4503 -0.0261  0.3569
 5250TIP3    H137385   2.331   1.025   1.388 -0.7107 -0.2141  0.8916
 5250TIP3    H237386   2.351   1.129   1.497 -0.1296  0.7203 -0.0910
 5251TIP3   OH237387   2.316   4.942   8.072 -0.5528 -0.9234  0.4473
 5251TIP3    H137388   2.354   4.891   8.144  0.7355  0.6193  0.9044
 5251TIP3    H237389   2.332   5.033   8.096  2.1521 -0.2971 -2.9029
 5252TIP3   OH237390   3.115   3.712   1.010  0.0738 -0.0211  0.3902
 5252TIP3    H137391   3.099   3.787   0.953  0.2572 -0.7970 -0.7171
 5252TIP3    H237392   3.049   3.720   1.079  0.4121  1.4230  0.5850
 5253TIP3   OH237393   4.584   4.469   0.870 -0.0817 -0.4789  0.1818
 5253TIP3    H137394   4.641   4.532   0.826 -1.3722  0.2701 -0.4715
 5253TIP3    H237395   4.632   4.386   0.866  1.5713  0.3851  0.8925
 5254TIP3   OH237396   2.106   5.002   0.337  0.6187  0.6176  0.6450
 5254TIP3    H137397   2.052   5.081   0.338  0.6657  0.6485  0.7214
 5254TIP3    H237398   2.071   4.948   0.408  1.1230  0.9311  1.1356
 5255TIP3   OH237399   5.627   4.305   7.645  0.2544 -0.1527 -0.3268
 5255TIP3    H137400   5.551   4.338   7.694  0.6307  0.1781  0.0335
 5255TIP3    H237401   5.701   4.356   7.678  0.7529 -0.9572 -0.1709
 5256TIP3   OH237402   3.250   5.497   7.527  0.4121 -0.6243  0.4353
 5256TIP3    H137403   3.312   5.426   7.508  1.1405 -0.2863  1.4471
 5256TIP3    H237404   3.271   5.565   7.462 -0.9425 -1.6653 -1.1820
 5257TIP3   OH237405   5.903   1.978   8.723 -0.4553  0.3085 -0.6593
 5257TIP3    H137406   5.886   1.886   8.745 -0.6692 -0.0405 -2.1685
 5257TIP3    H237407   5.983   2.000   8.771 -1.3720 -0.0922  1.1450
 5258TIP3   OH237408   4.474   5.012   7.871  0.3121  0.1015  0.3719
 5258TIP3    H137409   4.424   5.091   7.890  0.4955  0.2904  0.0601
 5258TIP3    H237410   4.543   5.040   7.811  0.4786 -0.2618  0.3894
 5259TIP3   OH237411   2.946   3.398   7.605 -0.3566 -0.5574 -0.2006
 5259TIP3    H137412   2.997   3.441   7.672 -0.5859 -0.9414  0.2267
 5259TIP3    H237413   2.904   3.469   7.556  1.2633 -0.1880 -1.1251
 5260TIP3   OH237414   4.128   6.370   7.623 -0.2184  0.6165  0.1222
 5260TIP3    H137415   4.195   6.433   7.649 -0.3190  1.0494 -0.6230
 5260TIP3    H237416   4.064   6.422   7.574  0.4214 -0.2903 -1.7771
 5261TIP3   OH237417   4.687   3.235   0.829 -0.1566  0.1257 -0.3115
 5261TIP3    H137418   4.669   3.156   0.777  0.1357 -0.7162  0.8265
 5261TIP3    H237419   4.631   3.226   0.906  0.9351  0.2948  0.5220
 5262TIP3   OH237420   5.262   1.251   1.324  0.1144  0.4345  0.3974
 5262TIP3    H137421   5.352   1.224   1.342  0.0766  0.5881  0.8343
 5262TIP3    H237422   5.271   1.319   1.257  0.4038  1.0637  1.0464
 5263TIP3   OH237423   6.197   1.563   2.058  0.0402 -0.0410  0.1323
 5263TIP3    H137424   6.183   1.641   2.005  1.2881  3.1350  3.9797
 5263TIP3    H237425   6.292   1.553   2.062 -0.0138 -0.2086  1.6421
 5264TIP3   OH237426   0.450   2.618   6.802  0.5138  0.2234  0.6535
 5264TIP3    H137427   0.355   2.611   6.795  0.5685 -0.4197  0.5202
 5264TIP3    H237428   0.471   2.701   6.759  0.3551 -1.3060 -2.6569
 5265TIP3   OH237429   4.569   0.595   0.403 -0.1831  1.0808 -0.4039
 5265TIP3    H137430   4.617   0.663   0.450 -0.0782 -0.2990  1.5949
 5265TIP3    H237431   4.514   0.554   0.469  1.3425 -2.1979 -0.9762
 5266TIP3   OH237432   3.203   0.955   0.019  0.1264 -0.6710  0.1846
 5266TIP3    H137433   3.162   1.035  -0.013  1.5383  0.5591  1.3096
 5266TIP3    H237434   3.160   0.937   0.102 -0.7880 -1.6285 -0.4550
 5267TIP3   OH237435   2.070   1.589   2.780 -0.7541 -0.0681  0.4784
 5267TIP3    H137436   2.000   1.532   2.748 -0.2338 -0.7078  0.4447
 5267TIP3    H237437   2.122   1.533   2.838 -0.0647  0.2887  0.2238
 5268TIP3   OH237438   2.153   2.971   0.808  0.3426 -0.2321 -0.3515
 5268TIP3    H137439   2.212   2.897   0.796  0.1239 -0.4947  0.1750
 5268TIP3    H237440   2.203   3.033   0.863  0.5020 -0.0111 -0.7396
 5269TIP3   OH237441   3.263   6.589   7.103 -0.1085 -0.1660  0.1870
 5269TIP3    H137442   3.268   6.629   7.190  0.1784  1.2640 -0.4763
 5269TIP3    H237443   3.349   6.549   7.090  0.1673  0.4240  0.1798
 5270TIP3   OH237444   2.538   5.530   0.943  0.3114  0.0773 -0.5529
 5270TIP3    H137445   2.536   5.470   0.868 -2.3496 -0.5875 -0.0313
 5270TIP3    H237446   2.520   5.616   0.905 -0.4555 -0.1718 -0.7659
 5271TIP3   OH237447   1.340   6.789   7.145 -0.2274 -0.0017  0.0043
 5271TIP3    H137448   1.359   6.875   7.181 -0.0699 -0.6452  1.5188
 5271TIP3    H237449   1.262   6.802   7.091 -0.9439  0.8432  1.2198
 5272TIP3   OH237450   5.086   1.914   0.396 -0.1724  0.0044  0.0203
 5272TIP3    H137451   5.050   1.957   0.474  1.9038  1.2351  0.3754
 5272TIP3    H237452   5.079   1.980   0.327  1.9875  0.5757  0.2857
 5273TIP3   OH237453   1.242   5.489   1.686  0.3793 -0.1811  0.3011
 5273TIP3    H137454   1.323   5.479   1.635  1.1724  0.2369  1.4347
 5273TIP3    H237455   1.261   5.560   1.747 -1.0304  0.2580  0.2682
 5274TIP3   OH237456   6.725   2.397   1.246  0.2935  0.2599  0.0703
 5274TIP3    H137457   6.805   2.394   1.298  0.3105  0.2857  0.0449
 5274TIP3    H237458   6.754   2.389   1.156  0.2549  0.0948  0.0719
 5275TIP3   OH237459   2.431   5.584   1.945  0.1628  0.1467  0.5621
 5275TIP3    H137460   2.337   5.580   1.926 -0.1115 -0.2659  1.9117
 5275TIP3    H237461   2.441   5.532   2.025  1.6279 -0.2608  0.1346
 5276TIP3   OH237462   5.210   0.704   0.922  0.5799  0.1494  0.4853
 5276TIP3    H137463   5.273   0.635   0.944  0.8633 -0.1412 -1.1510
 5276TIP3    H237464   5.174   0.677   0.838 -1.7036  0.3514  1.3452
 5277TIP3   OH237465   3.251   2.374   0.771  0.8970 -0.0672  0.3991
 5277TIP3    H137466   3.172   2.328   0.796 -0.5641  1.6510 -0.8023
 5277TIP3    H237467   3.260   2.445   0.835  1.8524 -0.6267  0.9104
 5278TIP3   OH237468   2.817   0.718   0.960 -0.2579 -0.2105 -0.0189
 5278TIP3    H137469   2.744   0.757   1.009 -0.4513  1.2248 -1.3780
 5278TIP3    H237470   2.894   0.767   0.989 -0.1439 -0.3575 -0.0735
 5279TIP3   OH237471   5.881   5.288   1.323 -0.1315  0.1982 -0.1042
 5279TIP3    H137472   5.830   5.264   1.401  1.4112 -0.4686  0.7391
 5279TIP3    H237473   5.897   5.205   1.278  1.8872  0.0863  0.7267
 5280TIP3   OH237474   3.315   3.963   0.893  0.1752 -0.5966  0.4302
 5280TIP3    H137475   3.358   3.898   0.948  2.4857  1.0265  0.7103
 5280TIP3    H237476   3.326   3.931   0.804  0.1563 -1.1840  0.6339
 5281TIP3   OH237477   2.118   6.547   1.406  0.3638 -0.6973  0.1285
 5281TIP3    H137478   2.094   6.468   1.356 -0.6670 -0.1055 -0.3457
 5281TIP3    H237479   2.056   6.549   1.479  0.6791 -0.5611  0.3956
 5282TIP3   OH237480   1.310   1.892   7.833 -0.0147  0.0385  0.1856
 5282TIP3    H137481   1.308   1.976   7.880 -0.7930  1.0627 -1.5748
 5282TIP3    H237482   1.310   1.917   7.740 -0.5065 -1.9369 -0.3819
 5283TIP3   OH237483   2.829   4.146   0.256 -0.4360 -0.1301  0.3245
 5283TIP3    H137484   2.750   4.106   0.220 -1.0756  2.5895 -1.6473
 5283TIP3    H237485   2.800   4.185   0.339 -0.8638 -0.2538  0.2390
 5284TIP3   OH237486   4.683   3.849   0.385  0.6134  0.2823  0.8037
 5284TIP3    H137487   4.593   3.824   0.366  0.2862  0.9406  1.4451
 5284TIP3    H237488   4.699   3.817   0.474  0.5729  1.2624  1.1831
 5285TIP3   OH237489   1.551   1.749   7.747  0.3454  0.1836 -0.1400
 5285TIP3    H137490   1.457   1.760   7.736  0.5395  0.6037 -1.6079
 5285TIP3    H237491   1.566   1.656   7.729  0.0567 -0.2232  1.5485
 5286TIP3   OH237492   0.538   5.376   7.241  0.1000  0.0157  0.0604
 5286TIP3    H137493   0.620   5.407   7.280 -0.7263  2.2874  0.1825
 5286TIP3    H237494   0.471   5.401   7.305 -0.7924 -0.9634 -0.4639
 5287TIP3   OH237495   4.721   3.958   0.128  0.8745 -0.0411  0.6420
 5287TIP3    H137496   4.653   4.022   0.106  0.1186 -0.4983  1.5510
 5287TIP3    H237497   4.700   3.931   0.217  2.3092 -0.1569  0.9610
 5288TIP3   OH237498   6.289   5.293   7.391 -0.1772 -0.0291 -0.4677
 5288TIP3    H137499   6.330   5.213   7.424 -0.4277 -0.5100 -1.2891
 5288TIP3    H237500   6.338   5.313   7.311 -1.3339 -0.4316 -1.2931
 5289TIP3   OH237501   2.171   0.672   8.555 -0.0759 -0.1897 -0.4693
 5289TIP3    H137502   2.218   0.595   8.523  0.9941  0.2185  0.0684
 5289TIP3    H237503   2.081   0.641   8.569  0.0989 -1.0780 -1.1853
 5290TIP3   OH237504   4.353   5.233   2.152 -0.0400 -0.4089 -0.4192
 5290TIP3    H137505   4.261   5.259   2.144  0.0215  0.4492  1.2634
 5290TIP3    H237506   4.352   5.160   2.215  0.4847  0.0410  0.1237
 5291TIP3   OH237507   2.389   1.514   1.887 -0.4864  0.1922  0.2920
 5291TIP3    H137508   2.380   1.546   1.797  1.3822  1.2354  0.4262
 5291TIP3    H237509   2.452   1.442   1.880 -0.6645 -0.0041  0.7106
 5292TIP3   OH237510   5.366   3.988   8.455 -1.1056  0.3037  0.3596
 5292TIP3    H137511   5.279   4.013   8.422 -1.3262 -1.5453 -0.6272
 5292TIP3    H237512   5.363   3.892   8.458  1.2155  0.1337 -0.6519
 5293TIP3   OH237513   4.750   6.332   8.054  0.4257 -0.4254 -0.2178
 5293TIP3    H137514   4.755   6.244   8.019 -0.5117 -0.4463 -0.3083
 5293TIP3    H237515   4.660   6.341   8.086  0.5372  0.4596 -0.1238
 5294TIP3   OH237516   0.752   2.014   2.685 -0.2569  0.0516 -0.1728
 5294TIP3    H137517   0.769   2.098   2.727 -0.6442  0.2141 -0.3414
 5294TIP3    H237518   0.668   2.026   2.640  0.8519  0.3643 -2.2648
 5295TIP3   OH237519   1.180   5.180   0.459  0.0755  0.0524  0.0227
 5295TIP3    H137520   1.113   5.149   0.399  0.7068 -1.1913 -0.0870
 5295TIP3    H237521   1.132   5.204   0.538 -0.3442 -3.5080  1.0210
 5296TIP3   OH237522   3.315   6.281   1.570 -0.4145 -0.2557 -0.2950
 5296TIP3    H137523   3.354   6.349   1.626 -0.1700 -1.6138  1.2276
 5296TIP3    H237524   3.226   6.272   1.601 -0.0802 -1.4877  0.3562
 5297TIP3   OH237525   6.757   5.738   1.305  0.0268 -0.1725  0.2441
 5297TIP3    H137526   6.802   5.813   1.265  1.1523 -1.5286 -1.1967
 5297TIP3    H237527   6.665   5.763   1.304  0.3836  1.2713  0.0054
 5298TIP3   OH237528   4.127   0.612   1.858 -0.0057  0.1367  0.1313
 5298TIP3    H137529   4.130   0.707   1.846  1.5506  0.0114 -0.7428
 5298TIP3    H237530   4.097   0.578   1.774  1.0102 -0.2248 -0.0945
 5299TIP3   OH237531   5.229   4.928   0.219 -0.3930 -0.0176  0.0304
 5299TIP3    H137532   5.264   5.016   0.206 -2.2181  0.5955 -1.1285
 5299TIP3    H237533   5.182   4.909   0.137 -0.8065 -1.7009  0.6181
 5300TIP3   OH237534   2.957   6.138   1.410  0.4378 -0.3803 -0.5174
 5300TIP3    H137535   2.991   6.218   1.449  1.7575  0.5538 -3.3579
 5300TIP3    H237536   2.881   6.166   1.358 -1.2664 -1.5815  1.1649
 5301TIP3   OH237537   5.082   6.533   1.854  0.5989 -0.6138 -0.4102
 5301TIP3    H137538   5.170   6.571   1.861  0.7365 -1.0216  0.2330
 5301TIP3    H237539   5.060   6.539   1.762  0.3300  1.6250 -0.2379
 5302TIP3   OH237540   6.780   2.359   7.688  0.6122  0.1113  0.2180
 5302TIP3    H137541   6.815   2.282   7.642 -1.0458 -0.0019 -0.9446
 5302TIP3    H237542   6.782   2.429   7.622  4.1493  1.8223  1.8315
 5303TIP3   OH237543   1.193   0.877   7.019 -0.3625  0.5399  0.2250
 5303TIP3    H137544   1.126   0.820   7.054 -0.7971  1.4395  0.9123
 5303TIP3    H237545   1.167   0.894   6.929  0.3650 -1.1996 -0.3467
 5304TIP3   OH237546   5.221   3.432   1.950  0.1277  0.0348 -0.1008
 5304TIP3    H137547   5.149   3.429   2.013  0.7547 -1.3647  0.6039
 5304TIP3    H237548   5.271   3.352   1.967  1.3387  0.5213 -1.1821
 5305TIP3   OH237549   3.126   4.539   6.971 -0.3379 -0.4481  0.6066
 5305TIP3    H137550   3.126   4.474   6.901  0.0960 -0.4950  0.6435
 5305TIP3    H237551   3.140   4.623   6.925 -3.4135 -0.0034  0.2629
 5306TIP3   OH237552   0.856   3.010   1.647  0.0856  0.5403 -0.3031
 5306TIP3    H137553   0.777   3.045   1.689  0.1258 -0.7801  0.9691
 5306TIP3    H237554   0.929   3.047   1.697  0.1113 -1.9147  1.6682
 5307TIP3   OH237555   1.582   4.172   1.856  0.2386  0.1385 -0.2558
 5307TIP3    H137556   1.545   4.161   1.944  1.2885 -0.9649  0.0842
 5307TIP3    H237557   1.574   4.265   1.837 -0.5646  0.2879  0.7548
 5308TIP3   OH237558   0.666   2.670   1.085  1.0402 -0.0122  0.3398
 5308TIP3    H137559   0.676   2.588   1.037  1.6087 -0.6274  1.4407
 5308TIP3    H237560   0.708   2.652   1.170  1.8285  1.6530  0.3379
 5309TIP3   OH237561   2.535   1.778   0.252 -0.2845  0.4699  0.6562
 5309TIP3    H137562   2.456   1.748   0.208  0.7668  0.3725 -1.2620
 5309TIP3    H237563   2.510   1.782   0.345 -1.9235 -1.4984  0.3802
 5310TIP3   OH237564   2.502   5.843   6.707  0.0260  0.3205 -0.0658
 5310TIP3    H137565   2.569   5.909   6.687 -0.1118  0.6896  0.6702
 5310TIP3    H237566   2.484   5.854   6.800 -1.1045  0.2663 -0.2660
 5311TIP3   OH237567   4.402   6.445   7.654 -0.2245 -0.2184 -0.1011
 5311TIP3    H137568   4.473   6.393   7.692 -1.0926 -1.5960 -0.3052
 5311TIP3    H237569   4.435   6.535   7.655  1.5162 -0.8181 -0.1619
 5312TIP3   OH237570   3.549   4.198   8.695  0.0742  0.1636  0.1979
 5312TIP3    H137571   3.629   4.217   8.744 -0.8824  1.7593  1.2160
 5312TIP3    H237572   3.482   4.253   8.736 -1.1610  0.2167 -1.7862
 5313TIP3   OH237573   1.719   2.167   0.865 -0.4101  0.5714  0.0755
 5313TIP3    H137574   1.656   2.112   0.911 -0.3803  0.4878  0.0157
 5313TIP3    H237575   1.748   2.114   0.791  0.4731  0.2354  0.6516
 5314TIP3   OH237576   4.521   2.480   8.730 -0.4417  0.5395 -0.5158
 5314TIP3    H137577   4.467   2.403   8.714 -1.3125  0.7673  1.0959
 5314TIP3    H237578   4.468   2.553   8.699 -2.3032  1.0226  3.2055
 5315TIP3   OH237579   0.139   2.404   1.356 -0.2547  0.0616  0.1300
 5315TIP3    H137580   0.206   2.469   1.334 -0.1869 -0.2789 -0.7078
 5315TIP3    H237581   0.180   2.320   1.336 -0.7086 -0.1850  0.2348
 5316TIP3   OH237582   5.357   1.492   2.237  0.1148 -0.0777  0.2221
 5316TIP3    H137583   5.327   1.508   2.147  1.2056 -1.1943 -0.3785
 5316TIP3    H237584   5.418   1.418   2.229 -0.3673 -0.7100  2.0104
 5317TIP3   OH237585   3.999   1.813   7.120 -0.2657  0.0195 -0.1779
 5317TIP3    H137586   3.967   1.843   7.035 -1.4629 -0.6843  0.0070
 5317TIP3    H237587   3.927   1.829   7.180 -0.1915 -1.3556  0.3165
 5318TIP3   OH237588   2.056   5.613   0.461  0.1719  0.0907 -0.3999
 5318TIP3    H137589   1.997   5.578   0.394 -0.0859 -0.7007  0.2253
 5318TIP3    H237590   2.099   5.687   0.419 -0.3107 -0.1259 -1.2946
 5319TIP3   OH237591   2.082   1.033   1.086  0.0070 -0.3495  0.0019
 5319TIP3    H137592   2.120   1.010   1.001  1.6720  1.2693  0.2684
 5319TIP3    H237593   2.042   1.118   1.072 -1.5949 -1.0121  0.3371
 5320TIP3   OH237594   5.248   2.865   8.385  0.2215  0.0121  0.0688
 5320TIP3    H137595   5.164   2.841   8.426  0.3509 -1.1608 -0.3171
 5320TIP3    H237596   5.298   2.904   8.456  0.0700 -1.0838  0.8123
 5321TIP3   OH237597   0.352   1.703   0.182 -0.5218 -0.5542 -0.0344
 5321TIP3    H137598   0.274   1.665   0.143  0.6913 -0.9048 -2.2444
 5321TIP3    H237599   0.375   1.642   0.253 -1.6698 -0.9550  0.0127
 5322TIP3   OH237600   5.425   1.318   0.125 -0.2730 -0.4232 -0.0565
 5322TIP3    H137601   5.449   1.356   0.040  2.0579 -2.8790 -0.6384
 5322TIP3    H237602   5.370   1.243   0.102 -0.0551 -0.7987  0.6565
 5323TIP3   OH237603   2.296   4.353   6.801 -0.6450 -0.3269 -0.1213
 5323TIP3    H137604   2.208   4.332   6.772 -0.3818 -2.1521  0.2773
 5323TIP3    H237605   2.352   4.289   6.758  0.6638  1.4339 -1.2004
 5324TIP3   OH237606   6.225   1.163   1.947  0.1526 -0.0652 -0.3304
 5324TIP3    H137607   6.283   1.136   2.018 -2.9729  0.4229  2.6572
 5324TIP3    H237608   6.182   1.082   1.919 -0.2817  0.0639 -0.0417
 5325TIP3   OH237609   3.332   2.958   0.297 -0.4324  0.7093  1.0568
 5325TIP3    H137610   3.291   3.033   0.340  0.0115  0.9160  1.1276
 5325TIP3    H237611   3.388   2.919   0.364 -0.5027  0.4407  0.9588
 5326TIP3   OH237612   6.162   5.945   0.387  0.2997 -0.4648  0.2749
 5326TIP3    H137613   6.116   5.865   0.360  0.3816 -0.2599 -0.4881
 5326TIP3    H237614   6.210   5.972   0.309  1.1334 -0.2666  0.8508
 5327TIP3   OH237615   4.780   1.299   0.331 -0.1261  0.4051 -0.0415
 5327TIP3    H137616   4.758   1.383   0.291  1.2844  0.1413 -1.4668
 5327TIP3    H237617   4.697   1.269   0.369 -1.1576  1.4675 -1.3280
 5328TIP3   OH237618   1.676   1.370   7.944  0.4148 -0.5965  0.5269
 5328TIP3    H137619   1.644   1.285   7.912  1.0649 -0.6634  0.0371
 5328TIP3    H237620   1.751   1.390   7.888  0.4203  0.1865  0.8041
 5329TIP3   OH237621   5.051   1.324   7.436 -0.4866  0.1072 -0.2230
 5329TIP3    H137622   5.138   1.285   7.444 -0.1039  0.9010 -0.4555
 5329TIP3    H237623   5.000   1.257   7.389 -0.2618 -0.7324  0.6910
 5330TIP3   OH237624   0.619   0.462   8.354 -0.6373 -0.0039  0.0584
 5330TIP3    H137625   0.624   0.416   8.438  0.5434 -1.5859 -0.8140
 5330TIP3    H237626   0.527   0.453   8.328 -0.5787 -1.3495  0.2344
 5331TIP3   OH237627   0.435   2.992   8.753  0.2741 -0.0887 -0.2141
 5331TIP3    H137628   0.522   3.032   8.746  0.3165  0.8653  3.5244
 5331TIP3    H237629   0.453   2.901   8.777  0.2773 -0.0070  0.1064
 5332TIP3   OH237630   5.756   4.390   0.780  0.5178  0.2692  0.1042
 5332TIP3    H137631   5.766   4.424   0.691  2.3087  0.6012  0.4078
 5332TIP3    H237632   5.701   4.456   0.824 -1.2472 -0.4115 -0.9970
 5333TIP3   OH237633   3.694   6.155   1.231 -0.3716 -0.2430  0.1199
 5333TIP3    H137634   3.668   6.231   1.180 -0.1354 -0.1262  0.1714
 5333TIP3    H237635   3.633   6.151   1.304 -0.6374 -0.3415 -0.1078
 5334TIP3   OH237636   4.703   5.535   7.689 -0.5182  0.0685  0.0322
 5334TIP3    H137637   4.671   5.555   7.601  1.7755 -0.9342 -1.1083
 5334TIP3    H237638   4.644   5.466   7.721 -1.4040  0.4776 -0.6787
 5335TIP3   OH237639   5.918   3.425   0.653 -0.3231  0.2834 -0.4090
 5335TIP3    H137640   5.901   3.345   0.703  0.4897 -0.0706 -0.6793
 5335TIP3    H237641   5.835   3.446   0.611 -0.0940 -1.4541 -1.8088
 5336TIP3   OH237642   6.828   5.828   0.233 -0.6541  0.5541  0.7453
 5336TIP3    H137643   6.870   5.744   0.214 -1.0758  0.3884  0.5292
 5336TIP3    H237644   6.797   5.859   0.149 -0.6237  0.8648  0.8463
 5337TIP3   OH237645   2.396   2.466   6.977 -0.1629  0.3957 -0.6486
 5337TIP3    H137646   2.421   2.385   6.933 -0.7844 -0.2886  0.2164
 5337TIP3    H237647   2.404   2.534   6.909 -0.6667 -0.5465 -1.6823
 5338TIP3   OH237648   1.874   4.349   7.854 -0.0377 -0.5683 -0.3612
 5338TIP3    H137649   1.950   4.408   7.852 -1.7603  1.8875  1.0712
 5338TIP3    H237650   1.850   4.339   7.762  0.8721  0.2056 -0.7080
 5339TIP3   OH237651   5.994   1.592   0.376  0.0237  0.4328 -0.3646
 5339TIP3    H137652   5.971   1.637   0.295  0.1244 -0.1454 -0.7194
 5339TIP3    H237653   5.943   1.637   0.444 -0.2448  0.7615 -0.7786
 5340TIP3   OH237654   2.466   3.919   7.949  0.4237  0.6453  0.3369
 5340TIP3    H137655   2.422   3.853   7.896  0.4804  0.5278  0.4339
 5340TIP3    H237656   2.432   4.003   7.918 -2.7788  0.4983  2.9065
 5341TIP3   OH237657   4.673   4.451   7.515  0.6959  0.4083  0.4696
 5341TIP3    H137658   4.731   4.383   7.548 -0.0044 -0.1508  0.5802
 5341TIP3    H237659   4.604   4.458   7.581  0.0079  0.2244 -0.2157
 5342TIP3   OH237660   2.326   2.602   1.860 -0.2397 -0.3348  0.9102
 5342TIP3    H137661   2.305   2.608   1.954 -0.9165 -0.3679  0.7608
 5342TIP3    H237662   2.244   2.577   1.818  0.2514 -1.1637  0.3978
 5343TIP3   OH237663   2.752   3.610   8.334 -0.8612 -0.0294 -0.3725
 5343TIP3    H137664   2.797   3.585   8.254 -0.8100  0.1237 -0.3898
 5343TIP3    H237665   2.690   3.538   8.350 -2.6771  1.1048 -1.9036
 5344TIP3   OH237666   2.653   5.474   8.549  0.4229  0.5907  0.2885
 5344TIP3    H137667   2.602   5.522   8.615 -0.7481 -0.1256 -0.0555
 5344TIP3    H237668   2.741   5.469   8.586 -0.3520 -0.4088  2.1794
 5345TIP3   OH237669   6.714   5.351   0.821  0.2566  0.2275  0.3325
 5345TIP3    H137670   6.695   5.397   0.739  0.6172 -0.5795 -0.2235
 5345TIP3    H237671   6.809   5.339   0.819  0.2072 -0.2186  0.6451
 5346TIP3   OH237672   4.546   0.730   1.462  0.1576 -0.0650  0.1597
 5346TIP3    H137673   4.529   0.709   1.371 -2.3059 -0.8352  0.7303
 5346TIP3    H237674   4.594   0.813   1.460  1.1511 -0.6495 -1.8355
 5347TIP3   OH237675   0.596   5.853   7.271  0.1053  0.1856 -0.1852
 5347TIP3    H137676   0.506   5.822   7.258  0.0363  0.8914 -1.4586
 5347TIP3    H237677   0.600   5.936   7.224  1.1603  0.6359  0.6710
 5348TIP3   OH237678   0.150   3.070   0.348  0.1716 -0.4607  0.0978
 5348TIP3    H137679   0.121   2.981   0.368  0.0124 -0.3109  0.5683
 5348TIP3    H237680   0.072   3.124   0.363  0.6573 -0.0575  1.3672
 5349TIP3   OH237681   2.576   6.252   0.044 -0.5671 -0.2672  0.5489
 5349TIP3    H137682   2.670   6.270   0.045 -0.3631 -1.2352  0.5541
 5349TIP3    H237683   2.542   6.294   0.123 -0.0872 -0.1423  0.6909
 5350TIP3   OH237684   4.617   5.426   0.079 -0.2198 -0.2464  0.1323
 5350TIP3    H137685   4.535   5.449   0.035  0.1930  0.9999 -0.0351
 5350TIP3    H237686   4.685   5.458   0.020  0.3845 -1.0484  0.3889
 5351TIP3   OH237687   5.685   1.308   7.845  0.6756 -0.3166 -0.1443
 5351TIP3    H137688   5.667   1.256   7.923  2.4185  0.6994  0.9972
 5351TIP3    H237689   5.752   1.371   7.873 -0.8016  2.0725 -1.6417
 5352TIP3   OH237690   1.850   1.809   2.171  0.0367 -0.3358  0.8061
 5352TIP3    H137691   1.834   1.714   2.173  0.6559 -0.4371  1.5240
 5352TIP3    H237692   1.781   1.846   2.226  0.1585 -0.4370  1.0307
 5353TIP3   OH237693   6.676   3.497   2.634  0.0975  0.2061  0.5745
 5353TIP3    H137694   6.582   3.515   2.640 -0.0301 -0.4877  0.8201
 5353TIP3    H237695   6.693   3.434   2.704  1.0793  1.6010  1.6527
 5354TIP3   OH237696   1.474   6.662   8.568  0.4558 -0.1748  0.5241
 5354TIP3    H137697   1.500   6.598   8.635  0.8174  0.5254  1.0582
 5354TIP3    H237698   1.402   6.619   8.522  0.2546 -0.7103  1.3049
 5355TIP3   OH237699   1.598   3.208   0.059 -0.2923  0.4963  0.0260
 5355TIP3    H137700   1.554   3.288   0.088  0.2604  0.7386  0.2074
 5355TIP3    H237701   1.619   3.162   0.140  0.0504  0.5224 -0.0488
 5356TIP3   OH237702   1.716   4.077   8.516  0.2500 -0.3112  0.0112
 5356TIP3    H137703   1.743   4.154   8.466 -1.0455 -1.4868 -2.7283
 5356TIP3    H237704   1.755   4.090   8.602  0.1196  3.3569 -0.3134
 5357TIP3   OH237705   4.010   6.223   1.399  0.4389 -0.0535 -0.3390
 5357TIP3    H137706   4.101   6.246   1.417  0.0483  0.7718  0.6727
 5357TIP3    H237707   3.965   6.307   1.392 -0.1888 -0.4498 -1.1630
 5358TIP3   OH237708   5.037   6.630   0.571  1.0074 -0.4077  0.5572
 5358TIP3    H137709   4.949   6.641   0.609  1.2904 -0.1129  1.1406
 5358TIP3    H237710   5.091   6.695   0.616  1.6289 -0.8970  0.5389
 5359TIP3   OH237711   1.589   0.789   0.682 -0.5222 -0.4525 -0.6405
 5359TIP3    H137712   1.568   0.705   0.723  1.6758 -0.9905 -0.4651
 5359TIP3    H237713   1.638   0.765   0.603  1.1256  0.6215 -0.0085
 5360TIP3   OH237714   4.549   1.332   7.330 -0.0987  0.0481 -0.6485
 5360TIP3    H137715   4.510   1.402   7.277 -0.7387 -0.2709 -0.6134
 5360TIP3    H237716   4.474   1.289   7.371  0.3623  0.0903  0.2688
 5361TIP3   OH237717   3.159   0.259   1.000 -0.3995  0.4951 -0.5752
 5361TIP3    H137718   3.179   0.340   1.046 -2.1303  1.2550 -1.0433
 5361TIP3    H237719   3.177   0.189   1.063 -1.2383  1.4089  0.7139
 5362TIP3   OH237720   5.377   5.166   1.382 -0.2432 -0.0696 -0.2799
 5362TIP3    H137721   5.369   5.184   1.476  1.0731 -0.4825 -0.0608
 5362TIP3    H237722   5.295   5.122   1.359 -0.7142  0.3074  0.6016
 5363TIP3   OH237723   2.829   0.505   1.974 -0.4754 -0.2573 -0.3390
 5363TIP3    H137724   2.862   0.474   2.059 -0.6055 -0.7370 -0.4582
 5363TIP3    H237725   2.739   0.472   1.971 -0.8963  0.8517 -0.1113
 5364TIP3   OH237726   5.897   0.310   0.771  0.1747  0.3138  0.0127
 5364TIP3    H137727   5.976   0.304   0.718 -1.2593  1.4751 -2.4325
 5364TIP3    H237728   5.899   0.399   0.808 -0.3434  0.6366 -0.7130
 5365TIP3   OH237729   3.708   5.150   0.071 -0.1417  0.2731 -0.0526
 5365TIP3    H137730   3.771   5.108   0.013  1.2325  1.3379  0.6072
 5365TIP3    H237731   3.648   5.195   0.012 -1.5082 -2.3082 -0.7662
 5366TIP3   OH237732   1.317   2.151   8.018 -0.4543  0.3726 -0.6230
 5366TIP3    H137733   1.397   2.130   8.066  0.5437  0.0924 -2.3419
 5366TIP3    H237734   1.337   2.233   7.972 -1.2467  0.4435 -0.8612
 5367TIP3   OH237735   6.066   1.249   1.024 -0.4994 -0.3275 -0.0708
 5367TIP3    H137736   6.056   1.224   1.116 -0.6666  0.4409  0.1289
 5367TIP3    H237737   6.042   1.170   0.975 -1.7506 -0.3345  0.5207
 5368TIP3   OH237738   0.056   1.304   0.684 -0.0822  0.4759 -0.2350
 5368TIP3    H137739   0.027   1.361   0.613 -0.6598 -0.3943 -0.7129
 5368TIP3    H237740   0.149   1.289   0.666 -0.2172  0.2807 -0.8094
 5369TIP3   OH237741   6.590   5.117   1.769 -0.2093  0.1551  0.1311
 5369TIP3    H137742   6.500   5.118   1.735  0.1457  0.7965 -0.8162
 5369TIP3    H237743   6.616   5.025   1.766 -0.7573 -0.0068  0.2029
 5370TIP3   OH237744   2.736   0.926   7.921  0.6774 -0.1393  0.7840
 5370TIP3    H137745   2.673   0.985   7.879  1.5526 -1.4812 -2.8120
 5370TIP3    H237746   2.703   0.838   7.901  2.0878 -0.8581  1.4699
 5371TIP3   OH237747   2.620   3.962   0.095  0.2383 -0.9042 -0.2863
 5371TIP3    H137748   2.618   4.033   0.032  0.6226  0.3669  1.0925
 5371TIP3    H237749   2.531   3.925   0.093 -0.1661  0.0547 -0.5438
 5372TIP3   OH237750   1.750   0.819   1.848  0.1023 -0.0223  0.2011
 5372TIP3    H137751   1.780   0.874   1.776  1.5539 -2.2735 -1.0431
 5372TIP3    H237752   1.679   0.767   1.810  1.4060 -1.8002  0.0272
 5373TIP3   OH237753   3.196   1.570   7.237  0.2916 -0.8801 -0.1488
 5373TIP3    H137754   3.158   1.484   7.217  1.1059 -1.4002  0.4986
 5373TIP3    H237755   3.220   1.565   7.329  2.8953 -0.9607 -0.7658
 5374TIP3   OH237756   2.316   0.168   6.421  0.9669 -0.0270 -0.0875
 5374TIP3    H137757   2.258   0.096   6.447  0.7859  0.8280  2.0686
 5374TIP3    H237758   2.399   0.148   6.465  0.9994  0.8985  0.2911
 5375TIP3   OH237759   0.614   3.121   0.202  0.0041  0.2990 -0.2874
 5375TIP3    H137760   0.653   3.190   0.148  0.2569  0.4016  0.0229
 5375TIP3    H237761   0.656   3.131   0.287 -1.3862  1.0391  0.3447
 5376TIP3   OH237762   5.622   4.976   0.403  0.2579  0.0760  0.4953
 5376TIP3    H137763   5.708   4.975   0.445  0.3838  1.2029  0.3030
 5376TIP3    H237764   5.640   4.956   0.311  0.6140  2.3147  0.0209
 5377TIP3   OH237765   3.225   2.929   7.515  0.0367 -0.0139  0.3692
 5377TIP3    H137766   3.184   3.013   7.534 -1.5936 -0.9885  1.3327
 5377TIP3    H237767   3.277   2.909   7.593 -0.9376 -0.6690  0.8687
 5378TIP3   OH237768   0.378   4.855   8.396 -0.0525  0.2119 -0.3090
 5378TIP3    H137769   0.464   4.842   8.434 -0.3558 -0.1177  0.2768
 5378TIP3    H237770   0.362   4.775   8.346  0.3241  0.6224 -1.1063
 5379TIP3   OH237771   5.038   0.823   8.782  0.0673 -0.2494  0.7758
 5379TIP3    H137772   4.974   0.894   8.781  0.3622  0.0218  0.4978
 5379TIP3    H237773   5.020   0.774   8.862  2.1426  2.2533  2.9388
 5380TIP3   OH237774   3.264   3.765   7.510 -0.1871  0.3449 -0.3643
 5380TIP3    H137775   3.287   3.678   7.542  1.2451  0.4166 -1.0733
 5380TIP3    H237776   3.255   3.819   7.589 -2.8856 -0.7967  0.1870
 5381TIP3   OH237777   3.364   4.556   7.372  0.2310 -0.4956  0.1066
 5381TIP3    H137778   3.381   4.464   7.350  0.2470 -1.0809  2.3187
 5381TIP3    H237779   3.280   4.575   7.330  0.3979 -1.3828 -0.6810
 5382TIP3   OH237780   4.804   3.453   0.249  0.0571  0.6241 -0.1264
 5382TIP3    H137781   4.800   3.476   0.156 -1.0118 -0.8764 -0.4794
 5382TIP3    H237782   4.744   3.515   0.291 -1.0132  0.0200 -0.7315
 5383TIP3   OH237783   3.761   3.248   0.609  0.0942 -0.2721  0.2542
 5383TIP3    H137784   3.712   3.329   0.618  0.3526 -0.1761  0.8703
 5383TIP3    H237785   3.733   3.211   0.526  0.2441  0.6369 -0.2072
 5384TIP3   OH237786   5.050   3.972   8.385 -0.0047 -0.4302 -0.3765
 5384TIP3    H137787   5.080   4.062   8.401 -0.2291 -0.4998  0.4874
 5384TIP3    H237788   4.969   3.983   8.335 -0.4226 -0.1198  0.3519
 5385TIP3   OH237789   6.461   2.425   1.226  0.1263  0.1960 -0.1307
 5385TIP3    H137790   6.556   2.428   1.237  0.0135 -0.0230  0.9435
 5385TIP3    H237791   6.446   2.471   1.143  1.1489  0.4424 -0.1962
 5386TIP3   OH237792   5.793   3.956   8.568  0.2504 -0.1841  0.3371
 5386TIP3    H137793   5.855   3.997   8.507  0.7695  0.3377  1.2042
 5386TIP3    H237794   5.838   3.955   8.652  0.3420 -2.7236  0.3453
 5387TIP3   OH237795   4.433   5.577   7.015 -0.3479  0.5003 -0.7039
 5387TIP3    H137796   4.404   5.542   7.100  0.6221 -0.4885 -0.7626
 5387TIP3    H237797   4.527   5.591   7.025 -0.3942  1.3410 -1.3058
 5388TIP3   OH237798   2.882   6.296   7.650 -0.3026 -0.0974 -0.0974
 5388TIP3    H137799   2.962   6.311   7.699 -0.9895  0.2426  0.9517
 5388TIP3    H237800   2.901   6.330   7.562  0.3736  0.8982  0.4098
 5389TIP3   OH237801   4.134   4.769   1.663 -0.4426 -0.1767 -0.1655
 5389TIP3    H137802   4.219   4.810   1.647 -0.4967  0.6132  1.3980
 5389TIP3    H237803   4.078   4.801   1.593  0.9396 -2.1463 -2.3395
 5390TIP3   OH237804   5.362   6.153   8.785  0.1138 -0.7724 -0.0818
 5390TIP3    H137805   5.434   6.199   8.828 -1.1300  0.1587  1.1303
 5390TIP3    H237806   5.283   6.193   8.822 -1.0427 -3.0466  0.0933
 5391TIP3   OH237807   6.767   2.036   8.036 -0.4244  0.1898 -0.2926
 5391TIP3    H137808   6.825   2.084   7.977 -0.6175  1.2748  0.3763
 5391TIP3    H237809   6.711   2.103   8.074 -0.7942 -0.5913  0.5725
 5392TIP3   OH237810   1.170   4.198   0.552 -0.4548  0.2544 -0.2312
 5392TIP3    H137811   1.220   4.136   0.499 -3.0887 -2.2860  0.0215
 5392TIP3    H237812   1.170   4.279   0.501 -1.2828 -1.5117 -3.3093
 5393TIP3   OH237813   6.302   1.622   6.560  0.5117 -0.0541 -0.5198
 5393TIP3    H137814   6.309   1.572   6.479 -1.4026 -0.8761 -0.2194
 5393TIP3    H237815   6.227   1.680   6.547  0.2059 -0.1651  0.6262
 5394TIP3   OH237816   6.444   4.364   8.308 -0.2531  0.0600  0.8419
 5394TIP3    H137817   6.353   4.351   8.334 -0.6293  0.0286 -0.4257
 5394TIP3    H237818   6.486   4.402   8.385 -1.4184  0.4259  1.3189
 5395TIP3   OH237819   4.084   3.974   1.221 -0.1650  0.1437 -0.0012
 5395TIP3    H137820   4.122   3.965   1.308  0.6895 -1.9028 -0.5082
 5395TIP3    H237821   4.062   4.066   1.213  0.9989  0.6362  1.8566
 5396TIP3   OH237822   1.196   4.154   1.757 -0.2701 -0.7018  0.0343
 5396TIP3    H137823   1.265   4.204   1.712 -1.4075 -0.5203 -1.5718
 5396TIP3    H237824   1.218   4.063   1.740 -0.8681 -0.6360 -1.2569
 5397TIP3   OH237825   1.126   0.098   7.432 -0.4918  0.2660  0.0294
 5397TIP3    H137826   1.088   0.167   7.486 -1.6515 -0.7167  0.5167
 5397TIP3    H237827   1.140   0.139   7.346  1.4385  1.8728  1.0192
 5398TIP3   OH237828   4.982   2.048   1.531 -0.3225  0.0629 -0.0238
 5398TIP3    H137829   4.932   2.000   1.465  1.2646 -1.4363 -0.2035
 5398TIP3    H237830   5.008   2.129   1.487 -1.3903  0.2321 -0.3739
 5399TIP3   OH237831   3.280   4.201   1.418 -0.3888 -0.2775 -1.0114
 5399TIP3    H137832   3.320   4.180   1.334 -1.8001  0.4097 -1.8820
 5399TIP3    H237833   3.245   4.289   1.407  1.2364  0.7010  0.9977
 5400TIP3   OH237834   2.870   2.739   7.175  0.4923  1.0251  0.2804
 5400TIP3    H137835   2.946   2.796   7.190 -0.3028  1.9015  1.0931
 5400TIP3    H237836   2.881   2.707   7.085  1.5523  1.5474  0.2149
 5401TIP3   OH237837   3.205   6.492   8.494  0.0238 -0.2801 -0.1958
 5401TIP3    H137838   3.228   6.560   8.557 -0.0593 -0.0972 -0.3582
 5401TIP3    H237839   3.163   6.540   8.422 -0.3774 -0.5449 -0.1428
 5402TIP3   OH237840   1.346   2.111   0.516  0.0305  0.1967  0.0271
 5402TIP3    H137841   1.269   2.054   0.516 -0.2983  0.5808  2.1075
 5402TIP3    H237842   1.335   2.164   0.437 -1.0869 -0.7283 -0.4744
 5403TIP3   OH237843   4.140   3.440   7.075 -0.8661 -0.5868 -0.3733
 5403TIP3    H137844   4.217   3.494   7.093 -1.7823  0.4043  0.7073
 5403TIP3    H237845   4.110   3.411   7.161 -1.8155 -0.8093 -0.7664
 5404TIP3   OH237846   6.748   0.815   7.365  0.2203 -1.1204  0.5791
 5404TIP3    H137847   6.786   0.842   7.449  1.3474 -0.5589 -0.0971
 5404TIP3    H237848   6.721   0.724   7.379 -1.7152 -0.3640  2.2575
 5405TIP3   OH237849   3.398   5.473   8.202 -0.4423 -0.4219 -0.5296
 5405TIP3    H137850   3.311   5.435   8.189 -0.0860 -1.8968  1.0409
 5405TIP3    H237851   3.381   5.556   8.248 -1.0660 -0.1057 -1.3120
 5406TIP3   OH237852   4.365   6.511   7.215  0.8485  0.5815  0.3488
 5406TIP3    H137853   4.317   6.472   7.142 -0.1441  2.1505  0.1228
 5406TIP3    H237854   4.394   6.436   7.267  3.5059 -0.7853 -2.7202
 5407TIP3   OH237855   6.015   6.211   6.366 -0.0208 -0.1832  0.0619
 5407TIP3    H137856   6.069   6.267   6.310  0.1093  0.1647  0.5310
 5407TIP3    H237857   5.925   6.240   6.352 -0.0096 -0.2527 -0.1456
 5408TIP3   OH237858   0.900   4.481   7.567 -0.1050  0.0191 -0.2812
 5408TIP3    H137859   0.993   4.457   7.567  0.0235  0.5034 -0.6051
 5408TIP3    H237860   0.881   4.501   7.475 -0.3395  0.6415 -0.1041
 5409TIP3   OH237861   5.931   0.535   1.270  0.1252  0.4977  0.1268
 5409TIP3    H137862   5.957   0.447   1.296  1.4038  0.6487 -0.5463
 5409TIP3    H237863   6.013   0.577   1.245 -0.5693  1.6289 -0.2953
 5410TIP3   OH237864   2.882   5.890   1.413  0.0546  0.0609  0.9098
 5410TIP3    H137865   2.927   5.973   1.401  2.1380 -1.2561 -1.3611
 5410TIP3    H237866   2.834   5.875   1.332 -1.1612 -0.4986  1.6921
 5411TIP3   OH237867   0.683   0.613   1.035 -0.4383  0.3286 -0.1358
 5411TIP3    H137868   0.603   0.617   0.983 -0.6525 -0.7055  0.0792
 5411TIP3    H237869   0.670   0.537   1.092  0.2836  0.7379  0.6026
 5412TIP3   OH237870   5.446   1.783   0.040 -0.0949 -0.5986 -0.1792
 5412TIP3    H137871   5.472   1.827  -0.040 -0.0660 -1.0947 -0.4454
 5412TIP3    H237872   5.507   1.816   0.106  0.2407 -0.6135 -0.4782
 5413TIP3   OH237873   0.986   5.875   1.519 -0.2607  0.7373 -0.1604
 5413TIP3    H137874   0.982   5.969   1.504 -0.3990  1.0378  1.5597
 5413TIP3    H237875   1.078   5.857   1.540  0.1269  0.1735 -2.1612
 5414TIP3   OH237876   2.184   5.287   1.486 -0.4029  0.1977  0.8792
 5414TIP3    H137877   2.238   5.233   1.428  0.5862  0.8146  1.2008
 5414TIP3    H237878   2.180   5.239   1.568  1.3244  1.0415  1.5007
 5415TIP3   OH237879   0.994   1.679   7.436  0.3468  0.1186  0.0407
 5415TIP3    H137880   1.054   1.751   7.454  1.1272 -0.3517 -0.5760
 5415TIP3    H237881   0.947   1.707   7.357  1.2709 -0.3934 -0.7156
 5416TIP3   OH237882   0.361   3.660   8.508  0.0478  0.6846  0.0665
 5416TIP3    H137883   0.306   3.598   8.556 -0.6999  1.6006  0.4308
 5416TIP3    H237884   0.441   3.611   8.488 -1.0600 -0.8339 -0.8840
 5417TIP3   OH237885   5.239   0.717   7.865  0.2764 -0.2145  0.7539
 5417TIP3    H137886   5.162   0.685   7.817  0.6421 -0.7111  0.4839
 5417TIP3    H237887   5.247   0.808   7.838  0.2005 -0.3603  0.2160
 5418TIP3   OH237888   0.094   2.080   0.289 -0.0465 -0.3847  0.1878
 5418TIP3    H137889   0.152   2.012   0.325  0.8764 -1.9309 -3.6812
 5418TIP3    H237890   0.152   2.154   0.272 -0.0041 -0.4595 -0.0069
 5419TIP3   OH237891   0.167   6.309   0.100 -0.1148 -0.3257 -0.4167
 5419TIP3    H137892   0.075   6.312   0.126 -0.4471 -0.2873 -1.5440
 5419TIP3    H237893   0.185   6.395   0.063  0.7900  0.1623  1.0673
 5420TIP3   OH237894   2.057   5.652   7.739  0.1575 -0.2193 -0.8547
 5420TIP3    H137895   2.043   5.639   7.833 -1.7033  1.5200 -0.8025
 5420TIP3    H237896   2.062   5.564   7.703  0.0943 -0.9287  0.7818
 5421TIP3   OH237897   1.738   0.079   0.401 -0.0133  0.7820  0.1108
 5421TIP3    H137898   1.779   0.024   0.468 -1.3014 -0.5756 -0.1613
 5421TIP3    H237899   1.645   0.059   0.408 -0.3366  1.8436 -1.0010
 5422TIP3   OH237900   4.607   1.615   1.072  0.4593  0.0830 -0.3664
 5422TIP3    H137901   4.545   1.603   1.144 -0.6190 -1.0350 -1.4312
 5422TIP3    H237902   4.651   1.531   1.063  1.8472  0.7338  0.0893
 5423TIP3   OH237903   4.002   3.312   7.575  0.6657  0.1833  0.2233
 5423TIP3    H137904   4.041   3.379   7.631 -0.4456  0.7052  0.4083
 5423TIP3    H237905   4.023   3.229   7.618  2.3964  0.3655 -0.2196
 5424TIP3   OH237906   5.693   3.711   0.488 -0.1841  0.2671 -0.1639
 5424TIP3    H137907   5.701   3.805   0.474 -1.4032  0.2785 -0.8458
 5424TIP3    H237908   5.687   3.673   0.400  0.5412 -0.4808  0.0901
 5425TIP3   OH237909   3.645   6.724   1.475  0.4309 -0.3685  0.4669
 5425TIP3    H137910   3.597   6.703   1.395  0.9471  0.2622 -0.0092
 5425TIP3    H237911   3.577   6.722   1.543  0.1205 -1.6398  0.1498
 5426TIP3   OH237912   1.120   6.313   8.633  0.3577 -0.0379  0.2855
 5426TIP3    H137913   1.196   6.326   8.575 -0.3093  0.5419 -0.4779
 5426TIP3    H237914   1.112   6.218   8.641  0.6504 -0.1181 -0.3127
 5427TIP3   OH237915   1.734   1.899   7.092 -0.7776  0.6093 -0.2766
 5427TIP3    H137916   1.668   1.887   7.024 -1.4105  0.3361  0.3764
 5427TIP3    H237917   1.792   1.823   7.083 -1.0439  0.4081 -0.3099
 5428TIP3   OH237918   0.698   5.324   1.327 -0.0449 -0.4575  0.5078
 5428TIP3    H137919   0.640   5.293   1.258 -1.8917  1.0309  1.3168
 5428TIP3    H237920   0.686   5.261   1.398 -0.6710 -0.1692  0.6627
 5429TIP3   OH237921   1.490   5.734   7.212 -0.2258  0.2423 -0.5749
 5429TIP3    H137922   1.459   5.809   7.162  0.4172  0.6316 -0.3979
 5429TIP3    H237923   1.539   5.772   7.285 -0.7982 -0.3274  0.1215
 5430TIP3   OH237924   2.612   4.860   1.108  0.0785 -0.1544  0.6553
 5430TIP3    H137925   2.602   4.765   1.108 -1.1084 -0.0485  0.3542
 5430TIP3    H237926   2.552   4.891   1.040  1.9292  0.6875 -0.6721
 5431TIP3   OH237927   6.312   3.673   1.570  0.1066 -0.3114  0.3863
 5431TIP3    H137928   6.245   3.712   1.626  1.4672 -0.2644  2.0983
 5431TIP3    H237929   6.350   3.604   1.624  1.9289  0.1688 -0.1955
 5432TIP3   OH237930   5.424   3.811   0.227  0.2565  0.2750 -0.3887
 5432TIP3    H137931   5.429   3.802   0.132 -1.4818 -0.4054 -0.4425
 5432TIP3    H237932   5.434   3.722   0.260 -0.1673  0.3698  0.0043
 5433TIP3   OH237933   2.573   4.469   0.895  0.1417 -0.5770 -0.2342
 5433TIP3    H137934   2.654   4.517   0.880 -0.1563 -0.0341 -0.1397
 5433TIP3    H237935   2.551   4.432   0.809 -0.4284  0.7342 -0.6764
 5434TIP3   OH237936   1.790   1.186   8.457  0.5247  0.0322  0.4501
 5434TIP3    H137937   1.776   1.270   8.413 -1.7883  0.3029  1.5392
 5434TIP3    H237938   1.854   1.204   8.525  0.0716  0.9188  0.6522
 5435TIP3   OH237939   0.828   1.375   6.987 -0.2825  0.3324  0.1476
 5435TIP3    H137940   0.908   1.334   6.956 -1.5147 -2.6124  0.4966
 5435TIP3    H237941   0.768   1.371   6.912 -1.2312 -1.0178  0.9068
 5436TIP3   OH237942   6.243   3.913   8.038  0.8457  0.2792 -0.3131
 5436TIP3    H137943   6.160   3.874   8.011  0.5364 -0.7729  1.8821
 5436TIP3    H237944   6.219   3.978   8.104  1.6884  0.9628 -0.6612
 5437TIP3   OH237945   1.793   6.192   6.661 -0.3944 -1.0405  0.6709
 5437TIP3    H137946   1.795   6.287   6.647  0.7090 -1.0227  0.8188
 5437TIP3    H237947   1.804   6.155   6.574  0.2264 -1.0058  0.7261
 5438TIP3   OH237948   5.039   3.923   7.052  0.6810  0.0089 -0.3375
 5438TIP3    H137949   5.018   4.016   7.055  1.0535  0.0675  1.2860
 5438TIP3    H237950   5.135   3.920   7.043  0.5278 -0.2514 -2.3838
 5439TIP3   OH237951   4.149   4.526   1.408  0.1339 -0.0406 -0.1762
 5439TIP3    H137952   4.188   4.464   1.347 -1.5199 -0.5725 -0.7422
 5439TIP3    H237953   4.219   4.589   1.427  1.5115 -1.4440 -0.4373
 5440TIP3   OH237954   6.418   6.583   7.921 -0.4300  0.7266 -0.4772
 5440TIP3    H137955   6.410   6.677   7.900 -0.4514  0.8871  0.2328
 5440TIP3    H237956   6.364   6.571   7.999  0.3597  0.3209  0.0139
 5441TIP3   OH237957   6.485   1.730   0.067  0.0204 -0.4817 -0.1459
 5441TIP3    H137958   6.425   1.659   0.089 -1.0053  0.6629  0.9561
 5441TIP3    H237959   6.511   1.766   0.151 -1.6853  2.1782 -0.6029
 5442TIP3   OH237960   1.524   1.824   2.087 -0.1539 -0.2013  0.5008
 5442TIP3    H137961   1.435   1.857   2.077  0.6257  2.2926  1.2507
 5442TIP3    H237962   1.579   1.902   2.096  2.0440 -1.6744  0.7716
 5443TIP3   OH237963   3.188   5.141   0.228 -0.0809  0.4504 -0.0818
 5443TIP3    H137964   3.248   5.174   0.294  0.2005  1.4020 -0.8041
 5443TIP3    H237965   3.243   5.122   0.152 -0.4417 -0.3572 -0.1508
 5444TIP3   OH237966   6.210   1.052   0.558  0.1919  0.4688  0.6151
 5444TIP3    H137967   6.173   1.002   0.485 -0.1090 -0.0594  1.1291
 5444TIP3    H237968   6.170   1.139   0.549 -0.4071  0.1938  0.5802
 5445TIP3   OH237969   2.353   3.962   2.316  0.0923  0.8147  0.2202
 5445TIP3    H137970   2.447   3.960   2.337  0.1979  0.2901 -0.2735
 5445TIP3    H237971   2.319   4.036   2.366  0.9919  1.7335 -0.4870
 5446TIP3   OH237972   5.693   3.969   0.430 -0.6528  0.5225  0.3419
 5446TIP3    H137973   5.623   3.975   0.365  0.7198  1.1959 -1.1267
 5446TIP3    H237974   5.695   4.055   0.472  0.8369  1.3526 -1.3220
 5447TIP3   OH237975   5.275   3.166   2.008  0.4169  1.0794  0.0601
 5447TIP3    H137976   5.269   3.123   1.923  0.7743  0.9505  0.0981
 5447TIP3    H237977   5.322   3.104   2.063 -1.4203  0.3544  0.8823
 5448TIP3   OH237978   0.081   6.626   0.875 -0.8069 -0.0139  0.4365
 5448TIP3    H137979   0.025   6.580   0.812 -0.6436  0.7734 -0.3035
 5448TIP3    H237980   0.164   6.578   0.873 -0.9939 -0.3427  0.4920
 5449TIP3   OH237981   3.088   4.108   0.357  0.4367  0.1461  0.5071
 5449TIP3    H137982   3.038   4.184   0.328 -1.6457 -1.9795 -2.0465
 5449TIP3    H237983   3.164   4.104   0.298  0.1066 -0.1605  0.0936
 5450TIP3   OH237984   5.929   4.401   7.018  0.2374 -0.5063 -0.6765
 5450TIP3    H137985   5.921   4.496   7.011  0.5406 -0.3123  1.0887
 5450TIP3    H237986   5.945   4.371   6.928  3.8419  1.4678 -0.8739
 5451TIP3   OH237987   2.702   3.208   0.883  0.1979  0.3873 -0.1821
 5451TIP3    H137988   2.727   3.286   0.932 -3.1887 -0.0136  2.4940
 5451TIP3    H237989   2.785   3.161   0.869  1.9162  2.9401  0.7513
 5452TIP3   OH237990   4.575   6.333   7.843  0.1391 -0.2463  0.4186
 5452TIP3    H137991   4.565   6.344   7.938 -0.2380  1.2041  0.2380
 5452TIP3    H237992   4.544   6.245   7.825 -0.1762 -0.3870  1.5949
 5453TIP3   OH237993   3.253   0.897   6.741  0.4276 -0.2986 -0.1228
 5453TIP3    H137994   3.298   0.879   6.658  0.4304 -0.3624 -0.1073
 5453TIP3    H237995   3.167   0.931   6.714  0.2270 -0.8186 -0.1537
 5454TIP3   OH237996   2.551   2.508   0.983 -0.0927  0.0831  0.0282
 5454TIP3    H137997   2.523   2.443   1.048 -1.7707 -1.1610 -1.8320
 5454TIP3    H237998   2.498   2.586   1.003  2.3156  1.2160  2.6122
 5455TIP3   OH237999   1.630   1.416   1.786  0.3024 -0.4126 -0.1521
 5455TIP3    H138000   1.676   1.441   1.706  0.8058  2.0334  0.7825
 5455TIP3    H238001   1.577   1.493   1.808  0.6750 -0.7272  2.1650
 5456TIP3   OH238002   2.466   2.855   7.052  0.2454 -0.7643 -0.3393
 5456TIP3    H138003   2.465   2.893   6.964  2.4259 -0.5035 -0.3218
 5456TIP3    H238004   2.482   2.762   7.039  2.8353 -0.4134 -0.2562
 5457TIP3   OH238005   1.837   6.630   1.253  0.3572  0.7367  0.3978
 5457TIP3    H138006   1.828   6.548   1.205  1.1014  0.8799  0.0009
 5457TIP3    H238007   1.878   6.605   1.336 -0.7089  0.5232  0.8784
 5458TIP3   OH238008   0.586   2.077   0.464  0.0116 -0.0482  0.3152
 5458TIP3    H138009   0.592   1.995   0.415  1.1114 -0.3200  0.8927
 5458TIP3    H238010   0.579   2.145   0.396 -2.2501 -0.6674 -0.1722
 5459TIP3   OH238011   3.483   2.348   1.594  0.1886  0.5743 -0.3574
 5459TIP3    H138012   3.470   2.372   1.686 -1.5611 -0.8198 -0.1960
 5459TIP3    H238013   3.517   2.428   1.553 -0.8414  1.8073  1.1065
 5460TIP3   OH238014   2.838   0.080   0.610 -0.0438 -0.7587  0.1961
 5460TIP3    H138015   2.925   0.084   0.650  0.9998 -1.5267 -1.8368
 5460TIP3    H238016   2.810   0.171   0.605  0.8117 -0.4646  0.5265
 5461TIP3   OH238017   4.871   4.955   1.067  0.1439  0.2021 -0.2805
 5461TIP3    H138018   4.960   4.949   1.102  0.2408  0.1339 -0.5362
 5461TIP3    H238019   4.882   4.992   0.979 -0.0489 -0.1269 -0.4457
 5462TIP3   OH238020   0.950   3.684   1.413  0.1835  0.2827  0.6340
 5462TIP3    H138021   0.914   3.706   1.327 -2.0784 -0.4905  1.2880
 5462TIP3    H238022   1.009   3.611   1.397  2.2319  2.1097 -0.6019
 5463TIP3   OH238023   3.474   5.130   1.523 -0.2683 -0.3350  0.3968
 5463TIP3    H138024   3.488   5.121   1.617 -0.3060 -0.9313  0.3470
 5463TIP3    H238025   3.395   5.184   1.516 -1.1209 -1.5027  0.7233
 5464TIP3   OH238026   0.347   3.620   0.852 -0.1880 -0.0171  0.2305
 5464TIP3    H138027   0.431   3.663   0.866  0.6052 -0.7004 -1.9164
 5464TIP3    H238028   0.370   3.529   0.832 -1.5858 -0.6511  1.3264
 5465TIP3   OH238029   6.733   3.635   8.697  0.6930  0.4952  0.0429
 5465TIP3    H138030   6.788   3.706   8.664  0.2301  2.0604  2.4471
 5465TIP3    H238031   6.667   3.622   8.628  1.6346  1.3640 -1.0639
 5466TIP3   OH238032   0.921   1.634   7.062  0.0917  0.4093  0.3812
 5466TIP3    H138033   0.869   1.556   7.041  0.2423  0.3938  0.0654
 5466TIP3    H238034   1.006   1.619   7.022  0.4173  0.3427  1.0817
 5467TIP3   OH238035   5.928   2.256   7.769 -0.8937  0.3868  0.3426
 5467TIP3    H138036   5.893   2.325   7.826  1.9007 -0.4618  3.4218
 5467TIP3    H238037   6.007   2.293   7.731 -1.3313  0.0514 -0.9329
 5468TIP3   OH238038   2.371   2.606   1.306  0.5466  0.1281 -0.3731
 5468TIP3    H138039   2.461   2.588   1.335 -0.1802  0.9680  2.8386
 5468TIP3    H238040   2.336   2.520   1.284  1.3977 -0.5709  0.8558
 5469TIP3   OH238041   3.745   3.402   2.255  0.3429 -0.0905  0.5964
 5469TIP3    H138042   3.674   3.390   2.318  0.0161  2.9397  0.9797
 5469TIP3    H238043   3.823   3.370   2.300 -0.5334 -2.3583  0.6274
 5470TIP3   OH238044   3.622   6.431   0.203 -0.3712 -0.3078 -0.5537
 5470TIP3    H138045   3.655   6.343   0.185  1.8018  0.0934  1.0515
 5470TIP3    H238046   3.647   6.482   0.126  1.1297 -0.4548 -0.1886
 5471TIP3   OH238047   4.670   1.536   8.648  0.1997  0.4758 -0.4902
 5471TIP3    H138048   4.703   1.478   8.716 -0.8612  0.9784  0.4930
 5471TIP3    H238049   4.747   1.586   8.620  0.6333  0.3260  0.4011
 5472TIP3   OH238050   1.428   5.047   7.572 -0.0611 -0.4384 -0.1238
 5472TIP3    H138051   1.484   4.989   7.623 -0.7859 -0.1890  0.9924
 5472TIP3    H238052   1.484   5.121   7.548  0.2475 -0.4700  0.4874
 5473TIP3   OH238053   5.091   4.371   0.583  0.0408 -0.1962 -0.3991
 5473TIP3    H138054   5.104   4.321   0.503 -1.3012 -0.2394 -0.6000
 5473TIP3    H238055   5.132   4.318   0.651 -0.3145 -0.9926 -0.7912
 5474TIP3   OH238056   6.120   2.932   0.676  0.0540  0.0135  0.3166
 5474TIP3    H138057   6.192   2.993   0.659  0.8227 -1.1493 -0.8145
 5474TIP3    H238058   6.128   2.912   0.769 -0.2159  1.5983  0.7131
 5475TIP3   OH238059   3.339   2.554   0.965  0.7986 -0.5574  0.2650
 5475TIP3    H138060   3.326   2.478   1.022  0.0681  0.5619  1.6672
 5475TIP3    H238061   3.388   2.616   1.019 -0.9825  1.0323  0.1832
 5476TIP3   OH238062   4.836   0.076   6.325 -0.2225 -0.0442  0.0192
 5476TIP3    H138063   4.915   0.130   6.328 -0.1105 -0.1355 -1.0273
 5476TIP3    H238064   4.790   0.097   6.406  0.4406  0.6699  0.2251
 5477TIP3   OH238065   6.358   2.969   1.124 -0.5190  0.7236 -0.7300
 5477TIP3    H138066   6.290   3.021   1.082 -3.6573 -1.4053  1.2849
 5477TIP3    H238067   6.392   3.025   1.193  0.4380  2.0661 -2.1974
 5478TIP3   OH238068   3.476   1.224   0.496  0.3577  0.7365 -0.1044
 5478TIP3    H138069   3.556   1.189   0.456 -0.4482 -0.3252 -0.8467
 5478TIP3    H238070   3.487   1.319   0.492  1.3200  0.6117 -0.7473
 5479TIP3   OH238071   5.780   1.652   8.559 -0.4214  0.3424 -0.3454
 5479TIP3    H138072   5.870   1.649   8.593 -0.6506 -0.9168  0.1847
 5479TIP3    H238073   5.725   1.648   8.637 -0.9454 -1.2367 -0.7702
 5480TIP3   OH238074   3.019   2.310   0.534 -0.0768 -0.1869 -0.1758
 5480TIP3    H138075   2.971   2.283   0.612 -2.1092  0.6393 -1.0696
 5480TIP3    H238076   3.110   2.282   0.551 -0.7392 -1.3756  1.7928
 5481TIP3   OH238077   5.812   5.937   1.604  0.0859  0.5262  1.0921
 5481TIP3    H138078   5.839   5.855   1.563 -0.7164  1.1709 -0.8322
 5481TIP3    H238079   5.878   5.953   1.672  2.1257 -0.0361 -0.6739
 5482TIP3   OH238080   0.002   3.997   6.344 -0.1362 -0.0797  0.0948
 5482TIP3    H138081   0.061   4.053   6.395 -0.5103 -0.1648  0.6341
 5482TIP3    H238082   0.060   3.951   6.283  0.1840  0.8321 -0.3034
 5483TIP3   OH238083   6.031   6.293   8.392  0.1925 -0.3139 -0.4216
 5483TIP3    H138084   5.971   6.366   8.406  1.9488  0.9321  1.2645
 5483TIP3    H238085   5.975   6.220   8.366 -1.5996  1.7163 -2.7002
 5484TIP3   OH238086   6.011   2.807   8.751  0.1714  0.1801  0.7664
 5484TIP3    H138087   5.938   2.815   8.812 -1.6830 -1.3926 -1.1063
 5484TIP3    H238088   6.024   2.713   8.741  0.3469  0.3752 -1.2706
 5485TIP3   OH238089   1.711   2.339   6.669 -0.0572  0.3408  0.0264
 5485TIP3    H138090   1.657   2.298   6.737 -1.8310  0.3365 -1.2918
 5485TIP3    H238091   1.661   2.417   6.644 -0.2430 -0.4493 -2.2727
 5486TIP3   OH238092   1.722   3.503   0.542  0.3347  0.2920 -0.0033
 5486TIP3    H138093   1.716   3.571   0.475 -0.2287  0.1733 -0.0774
 5486TIP3    H238094   1.718   3.421   0.493  1.7061  0.1805  0.0177
 5487TIP3   OH238095   6.097   3.601   8.210  0.2544 -0.0121  0.1504
 5487TIP3    H138096   6.068   3.634   8.295 -0.1253 -0.8514  0.3577
 5487TIP3    H238097   6.074   3.508   8.212 -0.1039  0.0439 -1.0206
 5488TIP3   OH238098   5.161   3.647   8.690  0.3138 -0.1801 -0.0495
 5488TIP3    H138099   5.178   3.581   8.758  0.5615 -0.5102 -0.4280
 5488TIP3    H238100   5.184   3.604   8.608  2.9858  1.1586 -0.1364
 5489TIP3   OH238101   0.801   0.046   7.414  0.0691 -0.0998 -0.2931
 5489TIP3    H138102   0.713   0.008   7.415 -0.4679  1.1127  0.0595
 5489TIP3    H238103   0.800   0.107   7.341 -0.5956  2.5771  1.8092
 5490TIP3   OH238104   3.822   1.406   1.023  0.8430 -0.5170 -0.4459
 5490TIP3    H138105   3.763   1.351   0.971  1.0497  0.5622 -1.8774
 5490TIP3    H238106   3.796   1.495   1.002  1.0179 -0.0257  1.2557
 5491TIP3   OH238107   5.274   4.848   7.523 -0.4536 -0.2394 -0.1577
 5491TIP3    H138108   5.249   4.790   7.451  1.9330  1.3779 -2.4666
 5491TIP3    H238109   5.265   4.936   7.487 -0.5594  0.7133  2.0567
 5492TIP3   OH238110   5.810   2.037   1.720 -0.2913 -0.4503  0.2311
 5492TIP3    H138111   5.841   2.000   1.803  0.1115 -1.5553 -0.3893
 5492TIP3    H238112   5.862   1.992   1.653  1.1542  2.1633 -0.5312
 5493TIP3   OH238113   6.193   1.536   1.310  0.4540  0.0644 -0.0929
 5493TIP3    H138114   6.288   1.542   1.323  0.6408 -1.6193 -0.4500
 5493TIP3    H238115   6.164   1.468   1.371 -0.3872 -0.0307 -0.5806
 5494TIP3   OH238116   0.172   6.574   8.823 -0.8382 -0.4908  0.3321
 5494TIP3    H138117   0.183   6.625   8.903 -0.6474  1.6207 -0.9711
 5494TIP3    H238118   0.077   6.560   8.815 -0.9978  0.6416  0.1485
 5495TIP3   OH238119   4.782   0.191   8.020 -0.6812  0.2157 -0.4028
 5495TIP3    H138120   4.847   0.199   8.090 -1.0425  1.3201 -0.1727
 5495TIP3    H238121   4.698   0.208   8.063 -1.0493 -0.3942 -0.8561
 5496TIP3   OH238122   0.430   0.067   1.045  0.2766  0.4666  0.0653
 5496TIP3    H138123   0.476   0.002   1.097 -1.5443 -0.7092  0.2931
 5496TIP3    H238124   0.415   0.025   0.960 -1.0552  0.4989  0.2632
 5497TIP3   OH238125   1.457   1.051   6.644 -0.0192  0.0665 -0.0710
 5497TIP3    H138126   1.374   1.088   6.613 -0.3304 -1.3726 -1.0597
 5497TIP3    H238127   1.508   1.127   6.671 -1.3640  1.0498 -0.1609
 5498TIP3   OH238128   0.170   3.618   1.081 -0.2682  0.2026  0.5402
 5498TIP3    H138129   0.155   3.711   1.062 -0.5533  0.2071  0.7929
 5498TIP3    H238130   0.181   3.578   0.994  0.8943  0.6407  0.4547
 5499TIP3   OH238131   5.872   2.204   8.203 -0.0958 -0.4522 -0.0654
 5499TIP3    H138132   5.956   2.189   8.159 -0.8679 -1.8311 -1.1478
 5499TIP3    H238133   5.807   2.201   8.133 -1.3379 -2.3945  1.0806
 5500TIP3   OH238134   0.301   3.673   7.031  0.1192 -0.2083  0.3957
 5500TIP3    H138135   0.226   3.698   7.085  0.6506 -0.0510  1.0836
 5500TIP3    H238136   0.298   3.578   7.029 -1.8259 -0.2066 -2.1058
 5501TIP3   OH238137   6.341   4.428   0.929 -0.1775 -0.2171  0.1920
 5501TIP3    H138138   6.274   4.375   0.972 -0.7727  0.3697  0.0045
 5501TIP3    H238139   6.293   4.476   0.861  0.3328  0.6008  0.3969
 5502TIP3   OH238140   1.285   5.643   1.288  0.1276 -1.2711  0.7446
 5502TIP3    H138141   1.334   5.581   1.234 -0.3829  0.7567 -2.2424
 5502TIP3    H238142   1.195   5.639   1.256  0.2569  1.6479 -0.3046
 5503TIP3   OH238143   3.660   3.761   8.833 -0.4734  0.1849 -0.3024
 5503TIP3    H138144   3.718   3.704   8.783  2.1179  1.3195  1.1929
 5503TIP3    H238145   3.626   3.823   8.768  1.4125  0.5527 -1.0040
 5504TIP3   OH238146   5.731   2.359   1.328 -0.2779  0.1610 -0.3937
 5504TIP3    H138147   5.814   2.339   1.370 -0.2217 -0.5943 -0.8381
 5504TIP3    H238148   5.670   2.376   1.400 -0.0697 -0.6275 -0.0235
 5505TIP3   OH238149   6.500   0.944   8.747 -0.2821  0.7655  0.5687
 5505TIP3    H138150   6.550   0.871   8.710 -1.2464 -0.1733  1.0823
 5505TIP3    H238151   6.555   1.021   8.731  1.6062 -0.3012  1.5995
 5506TIP3   OH238152   2.617   2.440   6.691  0.0750  0.1023 -0.2097
 5506TIP3    H138153   2.568   2.376   6.640  1.3580  0.1034 -1.5057
 5506TIP3    H238154   2.708   2.430   6.662  0.4692  1.7606  0.3336
 5507TIP3   OH238155   1.648   2.909   8.199  0.0897 -0.2078 -0.1304
 5507TIP3    H138156   1.730   2.944   8.165 -0.3386  0.3210 -0.6456
 5507TIP3    H238157   1.591   2.986   8.208 -0.8916 -0.7431 -1.3461
 5508TIP3   OH238158   3.186   0.528   1.779 -0.2854  0.6385  0.0892
 5508TIP3    H138159   3.100   0.568   1.766 -0.7566 -0.7402 -1.5205
 5508TIP3    H238160   3.248   0.597   1.757 -1.0228  1.1718 -0.3966
 5509TIP3   OH238161   4.772   0.654   7.673 -0.9025  0.6843 -0.2472
 5509TIP3    H138162   4.697   0.648   7.614  0.0283 -0.9021 -1.3603
 5509TIP3    H238163   4.769   0.572   7.724  0.3631  0.3311 -0.7109
 5510TIP3   OH238164   3.472   6.756   0.804  0.1763 -0.5032 -0.0448
 5510TIP3    H138165   3.463   6.847   0.834  0.5927 -0.6244  0.4638
 5510TIP3    H238166   3.560   6.730   0.833  1.8841  0.3011 -3.8452
 5511TIP3   OH238167   1.675   2.440   2.111 -0.1747 -0.0842  0.1775
 5511TIP3    H138168   1.693   2.393   2.192  1.1175 -1.9344 -1.1201
 5511TIP3    H238169   1.756   2.486   2.091  0.3090 -1.4788 -1.2107
 5512TIP3   OH238170   4.895   2.345   1.864 -0.0895 -0.4785  0.2495
 5512TIP3    H138171   4.821   2.293   1.830  0.5554 -0.3003 -1.5672
 5512TIP3    H238172   4.906   2.315   1.954 -2.9595  0.1604  0.9275
 5513TIP3   OH238173   5.674   5.914   0.798  0.4578  0.2656 -0.2218
 5513TIP3    H138174   5.691   6.005   0.774 -1.6607  0.5581 -0.8610
 5513TIP3    H238175   5.674   5.914   0.894 -1.6158  1.4566 -0.1631
 5514TIP3   OH238176   5.724   5.359   2.486  0.0281  0.0594  0.1524
 5514TIP3    H138177   5.700   5.268   2.475  1.1164 -0.0610 -1.6122
 5514TIP3    H238178   5.643   5.403   2.514 -1.1626 -1.0031 -1.5007
 5515TIP3   OH238179   4.783   5.200   8.688  0.1848 -0.1617  0.6746
 5515TIP3    H138180   4.743   5.214   8.603 -0.3832  1.7105  1.2224
 5515TIP3    H238181   4.877   5.200   8.671  0.0668 -1.3472 -0.1346
 5516TIP3   OH238182   0.634   1.322   8.062  0.6126 -0.0629 -0.4700
 5516TIP3    H138183   0.613   1.241   8.108  0.3023 -0.0419 -0.5712
 5516TIP3    H238184   0.563   1.333   7.999  0.2722  0.6508  0.0193
 5517TIP3   OH238185   2.078   2.510   8.617  0.5487 -0.1939 -0.2921
 5517TIP3    H138186   2.030   2.529   8.698  0.7640  0.1002 -0.2314
 5517TIP3    H238187   2.080   2.414   8.612  1.5279 -0.2438  0.6575
 5518TIP3   OH238188   0.554   4.256   2.662  0.5402  0.3096 -0.1460
 5518TIP3    H138189   0.548   4.323   2.594  0.6183  0.2277 -0.2342
 5518TIP3    H238190   0.634   4.207   2.640 -0.0932 -0.4942 -0.7098
 5519TIP3   OH238191   2.699   0.081   6.308  0.2486 -0.3033  0.0799
 5519TIP3    H138192   2.662   0.078   6.220  0.2989  0.6584  0.0175
 5519TIP3    H238193   2.790   0.052   6.296  0.1596 -0.5014 -0.1269
 5520TIP3   OH238194   2.928   1.354   0.376  0.3744  0.0688  0.0473
 5520TIP3    H138195   2.832   1.354   0.376  0.3558 -0.8940 -0.6708
 5520TIP3    H238196   2.952   1.334   0.466 -0.1638 -2.1925 -0.2457
 5521TIP3   OH238197   0.676   3.989   2.493 -0.1966 -0.0749 -0.2292
 5521TIP3    H138198   0.676   3.896   2.517 -0.4580 -0.0759 -0.2285
 5521TIP3    H238199   0.684   3.989   2.398 -0.0603 -0.0953 -0.2176
 5522TIP3   OH238200   1.442   0.500   8.288  0.2165 -0.2227 -0.3481
 5522TIP3    H138201   1.392   0.581   8.293  2.2047  1.0480  0.5037
 5522TIP3    H238202   1.398   0.440   8.349 -0.6829  0.5553 -0.2185
 5523TIP3   OH238203   6.820   0.554   1.602 -0.3793 -0.3409  0.4480
 5523TIP3    H138204   6.758   0.625   1.586  0.1417  0.0896  0.2910
 5523TIP3    H238205   6.879   0.589   1.669 -0.1461 -0.6420  0.4012
 5524TIP3   OH238206   5.278   5.849   7.687  0.6124 -0.4056 -0.5893
 5524TIP3    H138207   5.231   5.812   7.762 -0.8431 -0.7140 -1.6019
 5524TIP3    H238208   5.368   5.820   7.698 -0.0002 -2.2821 -0.1019
 5525TIP3   OH238209   0.943   1.387   0.608 -0.0696 -0.5188  0.6877
 5525TIP3    H138210   0.850   1.368   0.598  0.0509  0.0701 -3.4695
 5525TIP3    H238211   0.987   1.304   0.588  0.2971 -0.3083  0.6065
 5526TIP3   OH238212   6.069   2.177   2.377 -0.0828 -0.5632 -0.0465
 5526TIP3    H138213   6.126   2.159   2.451 -1.2730 -1.8620  0.5842
 5526TIP3    H238214   6.032   2.092   2.353 -2.9925  0.3912  0.6173
 5527TIP3   OH238215   2.368   4.066   1.433  0.7042  0.2173 -0.6469
 5527TIP3    H138216   2.393   3.978   1.404  0.4131  0.2132 -0.8977
 5527TIP3    H238217   2.445   4.099   1.479 -0.1019 -1.2140  1.9203
 5528TIP3   OH238218   1.858   3.485   1.049 -0.2578  0.1100  0.7801
 5528TIP3    H138219   1.915   3.511   0.976  0.4249 -0.6051  1.0453
 5528TIP3    H238220   1.878   3.548   1.118 -0.5901  0.5259  0.5010
 5529TIP3   OH238221   5.960   1.538   1.749  0.1813  0.4861 -0.1828
 5529TIP3    H138222   5.957   1.572   1.660  2.4195  2.2931  0.3285
 5529TIP3    H238223   6.013   1.458   1.743 -0.2400  0.2361 -0.5665
 5530TIP3   OH238224   0.086   3.145   2.603 -0.2583 -0.0408 -0.0530
 5530TIP3    H138225   0.009   3.198   2.583 -0.7927  0.3875  2.7912
 5530TIP3    H238226   0.050   3.059   2.626  0.2172 -0.1571  0.2543
 5531TIP3   OH238227   4.217   6.500   1.628 -0.6423  0.5510  0.4193
 5531TIP3    H138228   4.138   6.522   1.677 -0.0564  0.4439  1.4595
 5531TIP3    H238229   4.265   6.583   1.621 -0.6367  0.5286  0.1830
 5532TIP3   OH238230   3.432   4.905   0.170 -0.3194 -0.1424  0.0896
 5532TIP3    H138231   3.467   4.964   0.238 -1.5577 -0.1415  0.7563
 5532TIP3    H238232   3.404   4.964   0.100 -4.2788  0.5013  1.9313
 5533TIP3   OH238233   5.898   5.228   1.007  0.2423 -0.1240 -0.1944
 5533TIP3    H138234   5.813   5.206   0.970  0.2513 -0.4835 -0.0036
 5533TIP3    H238235   5.903   5.324   1.001  0.5669 -0.2108 -1.8233
 5534TIP3   OH238236   4.032   6.277   6.639  0.6303  0.2578 -0.0558
 5534TIP3    H138237   3.994   6.193   6.613  0.1957  0.3761  0.1915
 5534TIP3    H238238   3.967   6.342   6.611  1.7572  0.6634 -1.8792
 5535TIP3   OH238239   0.140   4.814   7.950 -0.2117  0.6275 -0.3241
 5535TIP3    H138240   0.121   4.874   8.022 -0.4321  2.2168 -1.6544
 5535TIP3    H238241   0.231   4.788   7.964 -1.0412 -1.3581  2.0745
 5536TIP3   OH238242   6.140   4.168   7.834 -0.4947  0.2135 -0.4163
 5536TIP3    H138243   6.076   4.178   7.904  0.2722  0.1782  0.3091
 5536TIP3    H238244   6.221   4.144   7.879 -0.3768 -1.5071 -1.4357
 5537TIP3   OH238245   1.065   0.565   0.894 -0.2703 -0.5607 -0.2436
 5537TIP3    H138246   1.079   0.544   0.986  1.5471 -1.0021 -0.5694
 5537TIP3    H238247   1.137   0.623   0.871 -2.5299  2.3227 -0.6112
 5538TIP3   OH238248   6.693   2.060   1.806 -0.0834 -0.2059 -0.1464
 5538TIP3    H138249   6.732   1.975   1.824  0.2596  0.1788  0.9928
 5538TIP3    H238250   6.764   2.110   1.765 -0.3838 -0.5530 -1.1342
 5539TIP3   OH238251   3.822   4.557   6.427  0.3042  0.2841 -0.8261
 5539TIP3    H138252   3.913   4.530   6.421  0.1599 -0.6703  0.7977
 5539TIP3    H238253   3.792   4.525   6.512 -1.6576  0.2171 -1.4786
 5540TIP3   OH238254   5.679   0.294   1.000  0.1600 -0.3452 -0.4512
 5540TIP3    H138255   5.584   0.286   0.994  0.0044  1.9251 -2.6820
 5540TIP3    H238256   5.712   0.248   0.922  0.7620  0.4595 -0.6813
 5541TIP3   OH238257   0.157   5.933   8.007 -0.5704 -0.0629 -0.3311
 5541TIP3    H138258   0.127   5.923   8.097 -3.6694  1.1951 -1.0778
 5541TIP3    H238259   0.247   5.966   8.015 -0.4538 -0.7932  2.2291
 5542TIP3   OH238260   2.722   6.079   7.733  0.3589 -0.5096  0.2256
 5542TIP3    H138261   2.776   6.158   7.725  0.6238 -0.6938  0.1551
 5542TIP3    H238262   2.650   6.093   7.673 -0.3997  0.3206  1.2843
 5543TIP3   OH238263   1.142   0.046   1.598 -0.5236  0.1851  0.3285
 5543TIP3    H138264   1.143   0.127   1.547 -0.2441 -0.7062 -1.1589
 5543TIP3    H238265   1.124   0.074   1.688  0.0421  1.9312 -0.0560
 5544TIP3   OH238266   2.395   3.099   1.942  0.3119 -0.2158  0.4894
 5544TIP3    H138267   2.334   3.043   1.990 -0.9730  0.6014 -0.1325
 5544TIP3    H238268   2.442   3.148   2.010 -0.4859 -0.0869  0.9544
 5545TIP3   OH238269   4.900   0.074   0.161  0.5952 -0.1466 -0.4880
 5545TIP3    H138270   4.846   0.137   0.113  0.2082  1.2750  1.6739
 5545TIP3    H238271   4.984   0.118   0.172  0.2947  0.0852  1.1201
 5546TIP3   OH238272   3.246   6.544   1.729 -0.3582  0.4829  0.0126
 5546TIP3    H138273   3.223   6.562   1.820 -0.9097 -2.1920  0.4944
 5546TIP3    H238274   3.180   6.591   1.677  0.3930  2.6266  0.9070
 5547TIP3   OH238275   5.760   0.955   8.613  0.5099  0.4122  0.0924
 5547TIP3    H138276   5.684   1.004   8.644 -1.9200 -1.2704 -2.6545
 5547TIP3    H238277   5.743   0.864   8.638  2.1689  0.1275  0.3368
 5548TIP3   OH238278   3.813   4.277   2.344 -0.5918  0.6995 -0.3940
 5548TIP3    H138279   3.764   4.197   2.359 -0.7803  0.9233  0.1898
 5548TIP3    H238280   3.809   4.290   2.249 -0.4346 -0.0554 -0.5113
 5549TIP3   OH238281   1.143   2.895   1.935 -0.2597 -0.3727 -0.9832
 5549TIP3    H138282   1.226   2.869   1.896  0.4853  0.5741 -0.0801
 5549TIP3    H238283   1.152   2.989   1.952 -1.4496 -0.2893 -0.7186
 5550TIP3   OH238284   2.428   3.188   8.394  0.0173 -0.1036 -0.2646
 5550TIP3    H138285   2.434   3.119   8.460  0.8963 -0.5420 -0.7888
 5550TIP3    H238286   2.352   3.164   8.341  0.1365 -0.5059 -0.2569
 5551TIP3   OH238287   1.106   4.613   8.675 -0.0459  0.0424  0.6707
 5551TIP3    H138288   1.175   4.629   8.739  0.5995 -3.2978  0.9869
 5551TIP3    H238289   1.032   4.582   8.728 -0.6684  0.4565  0.0541
 5552TIP3   OH238290   4.831   5.743   1.641  0.4641  0.3859  0.1165
 5552TIP3    H138291   4.784   5.743   1.724  0.5579  0.5683  0.1722
 5552TIP3    H238292   4.922   5.762   1.665  0.4057  0.9326 -0.0717
 5553TIP3   OH238293   0.213   3.259   1.790  0.2153  0.2094  0.3170
 5553TIP3    H138294   0.208   3.185   1.730 -2.6098  0.0876  0.5692
 5553TIP3    H238295   0.170   3.228   1.870 -1.1434  2.0700  0.3874
 5554TIP3   OH238296   6.670   5.158   1.394  0.1555  0.5346 -0.5828
 5554TIP3    H138297   6.600   5.219   1.370 -1.1635 -0.9191 -0.5374
 5554TIP3    H238298   6.750   5.212   1.391 -1.0851  2.5943  0.7199
 5555TIP3   OH238299   3.070   3.918   7.091  0.3999 -0.1487  0.3268
 5555TIP3    H138300   2.989   3.901   7.042  0.2316 -0.9816  0.8792
 5555TIP3    H238301   3.115   3.985   7.040 -0.8713  0.7012  0.2710
 5556TIP3   OH238302   3.283   4.500   1.403  0.0034 -0.0907 -0.0562
 5556TIP3    H138303   3.226   4.469   1.332  0.2802 -0.3448 -0.1674
 5556TIP3    H238304   3.370   4.468   1.380 -0.4276 -3.2399  2.1533
 5557TIP3   OH238305   1.554   3.157   6.639  0.1844  0.1174  0.3471
 5557TIP3    H138306   1.557   3.251   6.624  0.8747  0.5337  2.6958
 5557TIP3    H238307   1.473   3.128   6.598 -0.3524  1.8490  0.1293
 5558TIP3   OH238308   3.001   1.031   1.189  0.4847  0.1344  0.1116
 5558TIP3    H138309   2.971   0.991   1.108 -0.1774 -0.1558  0.4854
 5558TIP3    H238310   3.076   1.084   1.164 -0.6905  1.3554 -0.9714
 5559TIP3   OH238311   4.446   5.229   8.489 -0.1197  0.0620  0.5480
 5559TIP3    H138312   4.433   5.158   8.553  2.9756 -0.3891  0.8052
 5559TIP3    H238313   4.437   5.309   8.540 -1.4875 -0.1595  0.6990
 5560TIP3   OH238314   6.549   2.251   2.665 -0.6492 -0.1696 -0.2689
 5560TIP3    H138315   6.618   2.247   2.599 -1.0357 -1.5552 -0.6119
 5560TIP3    H238316   6.595   2.274   2.746 -0.0222  0.4824 -0.7980
 5561TIP3   OH238317   5.242   1.168   1.753 -0.3431  0.0033  0.1628
 5561TIP3    H138318   5.197   1.233   1.698  1.4921 -1.4918 -3.4134
 5561TIP3    H238319   5.333   1.172   1.725  0.0848 -3.1529  0.7426
 5562TIP3   OH238320   3.777   6.094   0.451  0.1973  0.0719 -0.2652
 5562TIP3    H138321   3.717   6.153   0.404  1.7987  0.8711 -1.4343
 5562TIP3    H238322   3.863   6.133   0.436  1.0031 -0.9925  1.4289
 5563TIP3   OH238323   5.856   1.642   1.515  0.1905  0.0155 -0.6843
 5563TIP3    H138324   5.866   1.629   1.421 -1.2613  0.1653 -0.8788
 5563TIP3    H238325   5.876   1.735   1.529  3.3621 -0.5883 -0.3535
 5564TIP3   OH238326   5.973   4.108   2.604 -0.1047 -0.2163  0.4627
 5564TIP3    H138327   6.068   4.101   2.618  0.7159  4.3753 -0.9035
 5564TIP3    H238328   5.941   4.149   2.685 -0.8554 -1.1411  0.6485
 5565TIP3   OH238329   2.839   6.688   8.430 -0.1238 -0.1421 -0.1527
 5565TIP3    H138330   2.806   6.674   8.518  0.6237 -0.9152  0.0161
 5565TIP3    H238331   2.855   6.783   8.425  0.0125 -0.1192  0.6048
 5566TIP3   OH238332   3.149   3.071   7.822 -0.5054 -0.4698  0.2174
 5566TIP3    H138333   3.124   2.988   7.862  0.6801 -0.4940  0.9478
 5566TIP3    H238334   3.129   3.137   7.888 -1.1694 -0.1925 -0.2482
 5567TIP3   OH238335   1.032   1.748   0.327 -0.2160  0.8323 -0.1401
 5567TIP3    H138336   0.948   1.757   0.282 -0.4419  0.5884  0.2303
 5567TIP3    H238337   1.094   1.725   0.258 -0.6161  0.1853 -0.2847
 5568TIP3   OH238338   4.423   4.711   0.681  0.4593  0.1616 -0.4757
 5568TIP3    H138339   4.375   4.793   0.670 -1.1637 -0.7305 -0.3420
 5568TIP3    H238340   4.449   4.686   0.593 -1.0101 -0.2916 -0.8084
 5569TIP3   OH238341   6.098   5.930   8.154 -0.6028 -0.5556 -0.0404
 5569TIP3    H138342   6.062   5.957   8.069  0.9419 -0.1155 -0.5849
 5569TIP3    H238343   6.191   5.950   8.148 -0.0867 -2.4473  1.0147
 5570TIP3   OH238344   5.381   1.520   7.711  0.4424  0.2207  0.0073
 5570TIP3    H138345   5.451   1.582   7.689 -1.3414  1.8739 -1.3558
 5570TIP3    H238346   5.303   1.574   7.719 -0.7955 -1.6206  1.0022
 5571TIP3   OH238347   1.047   2.303   8.675  0.1327 -0.3471 -0.0462
 5571TIP3    H138348   1.091   2.378   8.635  1.2050 -1.2936 -0.6910
 5571TIP3    H238349   1.031   2.331   8.766  0.6887  0.5899 -0.2151
 5572TIP3   OH238350   1.403   3.401   0.175  0.2209  0.2941  0.0125
 5572TIP3    H138351   1.376   3.492   0.165  0.1109  0.6656  2.9417
 5572TIP3    H238352   1.329   3.359   0.219  0.0398 -1.3956 -1.7682
 5573TIP3   OH238353   4.648   6.818   0.345 -0.5129 -0.1768  0.0427
 5573TIP3    H138354   4.673   6.905   0.376  0.2896 -0.3642 -0.0726
 5573TIP3    H238355   4.709   6.798   0.275 -0.5904 -0.8972  0.1657
 5574TIP3   OH238356   3.829   2.399   0.811  0.0322 -0.1456 -0.2847
 5574TIP3    H138357   3.816   2.356   0.895  1.9714 -1.8608 -0.7781
 5574TIP3    H238358   3.741   2.419   0.780 -0.7370  1.7950  2.6945
 5575TIP3   OH238359   3.873   4.702   7.319  0.2256  0.1443  0.7574
 5575TIP3    H138360   3.870   4.795   7.297  0.1333  0.4157  1.8549
 5575TIP3    H238361   3.802   4.663   7.268  0.6247  0.5703 -0.1394
 5576TIP3   OH238362   5.417   0.884   6.813 -0.1587  0.3250  0.0997
 5576TIP3    H138363   5.480   0.874   6.742 -1.1711 -1.9452 -0.5844
 5576TIP3    H238364   5.398   0.794   6.841 -1.8981  1.0112  1.3215
 5577TIP3   OH238365   3.335   3.520   6.532  0.7005 -0.7241 -0.4188
 5577TIP3    H138366   3.323   3.461   6.458  1.8872 -1.6175  0.0782
 5577TIP3    H238367   3.429   3.519   6.549  0.3219 -1.7122  2.0227
 5578TIP3   OH238368   3.631   1.286   0.239  0.2259 -0.1275 -0.2614
 5578TIP3    H138369   3.587   1.240   0.168 -0.1254  0.8025 -0.6625
 5578TIP3    H238370   3.563   1.302   0.304  0.4815 -0.7043  0.1612
 5579TIP3   OH238371   3.320   6.152   1.173 -0.1487  0.5541 -0.2407
 5579TIP3    H138372   3.271   6.234   1.166  2.0131  1.8611 -1.1806
 5579TIP3    H238373   3.320   6.132   1.266 -0.8847  1.5210 -0.0144
 5580TIP3   OH238374   4.528   6.269   8.477  0.2389 -0.0028  0.0922
 5580TIP3    H138375   4.494   6.358   8.480 -0.6515 -0.3533  2.7237
 5580TIP3    H238376   4.497   6.228   8.558 -0.2941 -3.0604 -1.4905
 5581TIP3   OH238377   3.992   6.579   1.192  0.2331 -0.2603  0.3204
 5581TIP3    H138378   4.068   6.567   1.134  0.5861 -0.7328  0.8568
 5581TIP3    H238379   3.943   6.497   1.183 -0.1891  0.0274  0.0100
 5582TIP3   OH238380   4.225   4.845   7.844  0.1348 -0.5612  0.5029
 5582TIP3    H138381   4.307   4.894   7.835 -1.4179  2.1223 -0.4700
 5582TIP3    H238382   4.218   4.794   7.763 -0.9398  2.3874 -1.4430
 5583TIP3   OH238383   3.582   2.222   1.959 -0.2513  0.3974 -0.1642
 5583TIP3    H138384   3.655   2.198   1.902  0.6618  0.4669  0.9351
 5583TIP3    H238385   3.597   2.315   1.979  0.5345 -0.0830  1.6786
 5584TIP3   OH238386   5.327   4.114   8.103  0.3334  0.3401  0.1112
 5584TIP3    H138387   5.381   4.163   8.165 -0.2250  1.2100 -0.0747
 5584TIP3    H238388   5.237   4.130   8.132  0.1705 -1.5069  0.7287
 5585TIP3   OH238389   6.766   5.557   7.948 -0.2797  0.0511  0.1691
 5585TIP3    H138390   6.795   5.467   7.963 -0.5204 -0.0962 -0.2463
 5585TIP3    H238391   6.813   5.608   8.014  1.2786 -0.1204 -0.7481
 5586TIP3   OH238392   3.999   6.185   7.778 -0.0393 -0.6309  0.7810
 5586TIP3    H138393   3.942   6.181   7.702 -0.9476 -2.4164  1.5030
 5586TIP3    H238394   4.080   6.226   7.746 -1.1057  0.4492 -0.6386
 5587TIP3   OH238395   0.898   6.158   7.267  0.0861  0.0455 -0.4303
 5587TIP3    H138396   0.881   6.113   7.184  1.8112 -0.0125 -0.7952
 5587TIP3    H238397   0.903   6.251   7.244  1.1177 -0.0178 -0.5186
 5588TIP3   OH238398   1.967   5.783   8.356 -0.1988  0.1817  0.2025
 5588TIP3    H138399   2.039   5.720   8.364 -0.4372  0.0584  1.5873
 5588TIP3    H238400   1.965   5.827   8.441  0.0690  2.1921 -0.7682
 5589TIP3   OH238401   0.524   2.745   7.854  0.6341 -0.3389 -0.2456
 5589TIP3    H138402   0.506   2.828   7.898 -0.4115 -1.2711  1.1679
 5589TIP3    H238403   0.460   2.742   7.782  0.2888 -0.1790  0.0520
 5590TIP3   OH238404   2.847   1.499   7.702 -0.4471 -0.1466  0.3572
 5590TIP3    H138405   2.907   1.529   7.769  1.0369 -2.4698  0.1707
 5590TIP3    H238406   2.896   1.505   7.620 -0.5407 -1.6713  0.1462
 5591TIP3   OH238407   3.315   2.357   1.367 -0.4346 -0.2614  0.7459
 5591TIP3    H138408   3.356   2.346   1.453 -0.2338 -0.1345  0.6667
 5591TIP3    H238409   3.356   2.435   1.330 -0.8200 -0.0768  0.7059
 5592TIP3   OH238410   6.285   2.224   2.551  0.6201 -0.2339  0.2602
 5592TIP3    H138411   6.244   2.306   2.579  1.5241 -0.5989  2.9609
 5592TIP3    H238412   6.370   2.224   2.595  2.1173 -1.0947 -2.4193
 5593TIP3   OH238413   0.174   2.697   7.272 -0.4490  0.3029  0.0418
 5593TIP3    H138414   0.151   2.736   7.188  2.4327  1.0371 -0.5062
 5593TIP3    H238415   0.246   2.751   7.304  1.7051 -2.7372  0.7044
 5594TIP3   OH238416   1.789   1.858   8.432  0.7435  0.1652  0.4549
 5594TIP3    H138417   1.763   1.841   8.523 -0.2085  1.2048  0.3950
 5594TIP3    H238418   1.754   1.783   8.384 -0.2049  0.4228  0.7173
 5595TIP3   OH238419   1.408   2.909   1.405  0.2972 -0.0568  0.2356
 5595TIP3    H138420   1.314   2.920   1.396  0.5131  2.1395  0.1181
 5595TIP3    H238421   1.427   2.826   1.361 -1.5284 -0.4160  0.0479
 5596TIP3   OH238422   1.608   4.015   7.813 -0.2876 -0.0874  0.2487
 5596TIP3    H138423   1.626   3.926   7.843 -0.1038 -0.2719 -0.4061
 5596TIP3    H238424   1.689   4.045   7.773 -1.0013 -0.4709 -1.5878
 5597TIP3   OH238425   3.030   3.093   8.602  0.6743  0.1011  0.0276
 5597TIP3    H138426   3.102   3.035   8.629  0.4926 -0.2461 -0.2222
 5597TIP3    H238427   3.021   3.155   8.674 -0.2848 -1.2662  1.1638
 5598TIP3   OH238428   1.338   6.195   6.734 -0.8238  0.6228 -0.0767
 5598TIP3    H138429   1.295   6.110   6.720  0.1914 -0.0065  0.5239
 5598TIP3    H238430   1.267   6.253   6.762 -1.6301  0.1267 -1.0086
 5599TIP3   OH238431   4.909   3.719   0.153  0.4246 -0.0106 -0.1130
 5599TIP3    H138432   4.834   3.709   0.094  1.3249  0.5256 -1.3788
 5599TIP3    H238433   4.892   3.802   0.199  0.4511  0.3379 -0.7211
 5600TIP3   OH238434   0.715   5.159   8.181 -0.0529  0.2863  0.0787
 5600TIP3    H138435   0.790   5.211   8.210 -0.0615  0.3530 -0.0199
 5600TIP3    H238436   0.648   5.175   8.248 -0.1164  0.5404 -0.0463
 5601TIP3   OH238437   2.818   4.623   2.063  0.3286 -0.3913  0.0720
 5601TIP3    H138438   2.775   4.581   2.138 -0.0237 -0.6903 -0.2954
 5601TIP3    H238439   2.788   4.714   2.067  1.8289  0.0917  1.4213
 5602TIP3   OH238440   5.228   0.572   0.055 -0.2444  0.0177  0.2841
 5602TIP3    H138441   5.233   0.481   0.023 -0.5691 -0.1526  0.7214
 5602TIP3    H238442   5.206   0.623  -0.023  0.3530 -0.2247 -0.0512
 5603TIP3   OH238443   2.449   2.748   2.344  0.3884  0.3278 -0.5155
 5603TIP3    H138444   2.520   2.690   2.316  1.1996 -0.0933  2.1145
 5603TIP3    H238445   2.494   2.824   2.382 -0.3983 -0.8182  2.9974
 5604TIP3   OH238446   6.037   3.365   0.400 -0.2211 -0.1950 -0.7603
 5604TIP3    H138447   6.132   3.351   0.397 -0.1950  0.1368 -1.8791
 5604TIP3    H238448   6.015   3.362   0.494  1.0570  0.7935 -0.4018
 5605TIP3   OH238449   1.437   3.249   1.006 -0.2221 -0.1110 -0.2357
 5605TIP3    H138450   1.504   3.282   1.066 -1.8188  2.6093  0.2256
 5605TIP3    H238451   1.460   3.288   0.922 -0.6493  0.0389 -0.2851
 5606TIP3   OH238452   1.015   4.090   1.246 -0.0998 -0.5480  0.3226
 5606TIP3    H138453   1.107   4.100   1.222  0.9317 -1.9465  3.1948
 5606TIP3    H238454   0.982   4.024   1.184  0.9760 -0.4396 -0.4044
 5607TIP3   OH238455   0.192   6.550   0.418  0.4616 -0.0696 -0.5538
 5607TIP3    H138456   0.101   6.529   0.397 -0.0118  1.7670 -0.5329
 5607TIP3    H238457   0.212   6.497   0.495 -0.7243 -0.2300 -0.3320
 5608TIP3   OH238458   4.429   4.750   8.344 -0.0584  0.2427  0.1031
 5608TIP3    H138459   4.474   4.809   8.283  1.3922 -0.4496  0.4465
 5608TIP3    H238460   4.385   4.687   8.288  0.3843  0.2427 -0.2539
 5609TIP3   OH238461   3.345   4.364   8.819 -0.0437  0.4540 -0.0551
 5609TIP3    H138462   3.257   4.366   8.857 -0.2064 -0.3927 -0.3729
 5609TIP3    H238463   3.336   4.413   8.736 -0.3839 -0.2204 -0.4238
 5610TIP3   OH238464   1.023   5.088   8.165  0.0223  0.6280 -0.5505
 5610TIP3    H138465   1.047   5.041   8.085 -0.2550  0.4881 -0.5505
 5610TIP3    H238466   1.000   5.176   8.135  3.9553  1.9983 -0.2447
 5611TIP3   OH238467   5.832   4.034   1.164 -0.2881 -0.7959  0.0350
 5611TIP3    H138468   5.846   4.096   1.092 -0.5537 -1.1081 -0.2864
 5611TIP3    H238469   5.891   3.961   1.145  1.4144  0.1585  1.3909
 5612TIP3   OH238470   0.525   5.048   8.775  0.0146  0.0585 -0.0898
 5612TIP3    H138471   0.478   4.965   8.770 -0.8325  0.5660 -1.0218
 5612TIP3    H238472   0.467   5.111   8.732  0.9449  0.9903 -0.0274
 5613TIP3   OH238473   3.401   1.629   8.010  0.3918 -0.7897  0.0152
 5613TIP3    H138474   3.458   1.695   7.970 -0.3478 -0.3694 -0.3666
 5613TIP3    H238475   3.420   1.635   8.104  0.6016 -0.2895 -0.0550
 5614TIP3   OH238476   3.505   2.033   7.662  0.5807 -0.1837 -0.1593
 5614TIP3    H138477   3.458   2.110   7.695  1.2285 -0.1332  0.6869
 5614TIP3    H238478   3.555   2.066   7.587  0.4169  0.0943 -0.1502
 5615TIP3   OH238479   0.977   2.464   2.008  0.1596 -0.0214 -0.3352
 5615TIP3    H138480   0.917   2.405   2.054 -1.4106  0.8319 -1.2142
 5615TIP3    H238481   1.012   2.411   1.936  0.4721 -0.5207  0.1760
 5616TIP3   OH238482   0.321   3.859   0.691  0.1972  0.4257  0.5363
 5616TIP3    H138483   0.289   3.833   0.778  0.8509 -1.9599  0.1333
 5616TIP3    H238484   0.280   3.798   0.631  0.2873  1.6144 -0.7939
 5617TIP3   OH238485   6.109   0.014   1.203 -0.2977 -0.0454  0.4568
 5617TIP3    H138486   6.024  -0.020   1.174 -0.1684 -0.0543  0.0898
 5617TIP3    H238487   6.147  -0.057   1.254 -0.1953 -0.3122  0.0127
 5618TIP3   OH238488   3.587   4.685   2.442 -0.2684 -0.0909  0.2290
 5618TIP3    H138489   3.680   4.662   2.438  0.0521  1.2434 -0.8939
 5618TIP3    H238490   3.553   4.635   2.516  1.3050 -0.7216  0.5724
 5619TIP3   OH238491   0.951   6.220   2.602 -0.1988  0.2160 -0.5455
 5619TIP3    H138492   0.867   6.182   2.576 -0.1819  0.2798 -0.6924
 5619TIP3    H238493   0.996   6.148   2.647 -0.1713  0.0601 -0.8138
 5620TIP3   OH238494   0.006   0.469   0.202 -0.4137 -0.0698 -0.0958
 5620TIP3    H138495  -0.058   0.532   0.233 -0.9728  0.3413 -1.9419
 5620TIP3    H238496  -0.043   0.388   0.191  0.0440 -0.5398  1.1628
 5621TIP3   OH238497   2.016   2.691   1.012  1.2916 -0.0498 -0.1232
 5621TIP3    H138498   1.972   2.611   0.982 -0.1015  0.0210  1.6080
 5621TIP3    H238499   1.998   2.755   0.943  1.8807 -1.0191 -1.2219
 5622TIP3   OH238500   5.478   4.094   0.088  0.2023 -0.0527  0.6532
 5622TIP3    H138501   5.447   4.017   0.135 -3.6755 -0.6148 -2.2981
 5622TIP3    H238502   5.500   4.062   0.000 -1.2376  2.0533 -0.5724
 5623TIP3   OH238503   1.517   5.451   8.244 -0.5149  0.3409  0.1716
 5623TIP3    H138504   1.507   5.487   8.156 -1.8351 -1.2012 -0.3609
 5623TIP3    H238505   1.595   5.495   8.279  0.4602  0.4901 -2.0160
 5624TIP3   OH238506   6.161   0.551   7.451  0.0710 -0.0660 -0.1850
 5624TIP3    H138507   6.093   0.617   7.457 -1.0951 -1.2140 -0.3463
 5624TIP3    H238508   6.209   0.558   7.534  1.4410  2.4459 -1.0723
 5625TIP3   OH238509   6.800   4.764   2.174  0.1994  0.7280  0.1988
 5625TIP3    H138510   6.759   4.786   2.258  0.2873 -1.6867  0.9605
 5625TIP3    H238511   6.818   4.670   2.181  2.0379  0.8753 -1.7666
 5626TIP3   OH238512   2.157   3.083   8.656 -0.1316  0.3445 -0.0263
 5626TIP3    H138513   2.086   3.042   8.607 -0.8984  0.0962  1.2691
 5626TIP3    H238514   2.118   3.110   8.739  1.3261  0.0241  0.8041
 5627TIP3   OH238515   2.275   5.809   0.692  0.7615  0.3850  0.0521
 5627TIP3    H138516   2.262   5.720   0.725  0.3179  0.4318  0.0139
 5627TIP3    H238517   2.227   5.811   0.609 -0.8078  1.1927  0.9389
 5628TIP3   OH238518   6.079   5.298   1.598  0.2698 -0.3956 -0.0116
 5628TIP3    H138519   6.062   5.213   1.559  0.3448 -1.4420  2.0837
 5628TIP3    H238520   6.017   5.304   1.671  0.7882  1.0151  0.3536
 5629TIP3   OH238521   3.471   4.199   7.613  0.7011  0.3670 -0.0780
 5629TIP3    H138522   3.524   4.124   7.585  1.1936  1.1614 -1.3623
 5629TIP3    H238523   3.390   4.159   7.646  1.4906 -0.7869  0.5514
 5630TIP3   OH238524   5.821   4.430   8.631  0.0888  0.0573 -0.1067
 5630TIP3    H138525   5.831   4.339   8.656  0.4601 -0.2700 -1.3854
 5630TIP3    H238526   5.909   4.459   8.608 -0.3411  0.0264 -1.9592
 5631TIP3   OH238527   5.555   3.706   8.847 -0.0210 -0.2694  0.0354
 5631TIP3    H138528   5.499   3.643   8.800  0.7240 -0.7193 -0.2694
 5631TIP3    H238529   5.558   3.782   8.789  1.0155 -0.8803 -0.7536
 5632TIP3   OH238530   4.350   5.715   8.442 -0.4948  0.0895  0.0591
 5632TIP3    H138531   4.313   5.734   8.356 -0.2783  1.5017  0.2570
 5632TIP3    H238532   4.350   5.799   8.488 -1.3339 -0.7681  1.7435
 5633TIP3   OH238533   4.837   1.804   7.192  0.4638 -1.0434  0.0099
 5633TIP3    H138534   4.918   1.763   7.161  0.7033  1.1983 -2.7562
 5633TIP3    H238535   4.865   1.870   7.255  0.7840 -0.5301 -0.6595
 5634TIP3   OH238536   3.907   3.897   0.537 -0.6517  0.1322  0.4909
 5634TIP3    H138537   3.830   3.840   0.541  0.4720 -1.5548 -0.7043
 5634TIP3    H238538   3.909   3.927   0.446 -1.7809  2.9928  1.3067
 5635TIP3   OH238539   3.247   1.271   2.028 -0.8340 -0.7487  0.2731
 5635TIP3    H138540   3.246   1.242   2.120 -0.0213 -1.3681  0.1043
 5635TIP3    H238541   3.257   1.190   1.978  2.7922 -0.2132 -0.1629
 5636TIP3   OH238542   1.527   2.256   1.979 -0.0651  0.0512  0.3977
 5636TIP3    H138543   1.450   2.307   1.953 -0.1691 -0.7610 -1.0686
 5636TIP3    H238544   1.591   2.320   2.007 -0.0989  1.0455 -1.6324
 5637TIP3   OH238545   6.519   2.124   0.791  0.2104 -0.8235  0.1339
 5637TIP3    H138546   6.550   2.093   0.706  0.2887 -0.5923  0.0773
 5637TIP3    H238547   6.446   2.066   0.813  0.5464 -1.2375  0.1698
 5638TIP3   OH238548   0.958   3.472   0.047 -0.6115  0.8099 -0.0770
 5638TIP3    H138549   0.879   3.417   0.041 -2.6885  3.4133  1.0667
 5638TIP3    H238550   1.014   3.426   0.109 -1.0273 -1.2526 -1.1060
 5639TIP3   OH238551   1.951   4.146   8.029  0.8976  0.2297  0.6369
 5639TIP3    H138552   1.888   4.083   8.064  0.5503  0.5541  0.6134
 5639TIP3    H238553   1.896   4.217   7.994  1.2569  0.1737 -0.0531
 5640TIP3   OH238554   4.713   5.136   1.202 -0.5568  0.7161  0.1663
 5640TIP3    H138555   4.759   5.075   1.145  1.4268  1.5315  0.8370
 5640TIP3    H238556   4.625   5.141   1.165 -1.1837 -3.2593  0.6333
 5641TIP3   OH238557   5.572   5.697   1.774  0.9587 -0.3081 -0.1057
 5641TIP3    H138558   5.554   5.603   1.777 -3.5491  0.2991 -0.5736
 5641TIP3    H238559   5.595   5.714   1.683  0.8345 -0.8497 -0.2417
 5642TIP3   OH238560   3.731   1.716   0.817 -0.0129  0.2134  0.1085
 5642TIP3    H138561   3.715   1.731   0.910  1.6678  3.1817  0.0371
 5642TIP3    H238562   3.656   1.756   0.773  0.0313  0.3583  0.1634
 5643TIP3   OH238563   4.433   0.921   7.785  0.0797  0.1778  0.3649
 5643TIP3    H138564   4.344   0.946   7.760 -0.8046 -0.3535  2.7808
 5643TIP3    H238565   4.426   0.893   7.876  2.7664  0.2995  0.6926
 5644TIP3   OH238566   1.271   0.709   8.075  0.6113  0.6857 -0.4322
 5644TIP3    H138567   1.261   0.644   8.005 -0.5839  0.5025 -0.1181
 5644TIP3    H238568   1.352   0.754   8.054  1.3044 -0.6890 -0.8473
 5645TIP3   OH238569   0.330   5.443   1.486  0.7976  0.2458  0.7416
 5645TIP3    H138570   0.295   5.515   1.540 -0.7341 -0.3575  0.5913
 5645TIP3    H238571   0.391   5.398   1.544  0.3911  0.5757  1.4389
 5646TIP3   OH238572   3.302   1.481   8.574  0.4221  0.0984 -0.2128
 5646TIP3    H138573   3.218   1.523   8.589 -0.7358 -1.8998 -0.7427
 5646TIP3    H238574   3.309   1.415   8.643  1.2109 -0.2412 -0.6025
 5647TIP3   OH238575   3.023   1.369   0.630 -0.1774 -0.4660  0.6150
 5647TIP3    H138576   3.036   1.314   0.707  1.4243  1.5920  1.9231
 5647TIP3    H238577   2.954   1.430   0.655 -1.3879 -1.3270 -0.5237
 5648TIP3   OH238578   2.924   1.781   1.682  1.0371 -0.0513 -0.0231
 5648TIP3    H138579   2.872   1.707   1.715  1.1536  0.4423  1.3304
 5648TIP3    H238580   2.962   1.749   1.600 -0.6872 -0.7311 -0.6023
 5649TIP3   OH238581   2.373   5.207   8.177  0.4185  0.7225 -0.2624
 5649TIP3    H138582   2.452   5.225   8.228  1.5488  0.5398 -1.8948
 5649TIP3    H238583   2.315   5.280   8.198  1.0961  0.9799  0.7976
 5650TIP3   OH238584   6.355   0.882   1.149  0.0904 -0.4807  0.2393
 5650TIP3    H138585   6.426   0.839   1.195 -0.0591 -2.0998 -0.9934
 5650TIP3    H238586   6.392   0.910   1.066  0.1833  1.8581  0.9700
 5651TIP3   OH238587   0.144   1.041   7.525  0.1840 -0.4839 -0.1578
 5651TIP3    H138588   0.229   1.018   7.485 -0.9915 -1.8949 -2.0252
 5651TIP3    H238589   0.106   1.106   7.466 -0.5589 -0.7869 -0.0231
 5652TIP3   OH238590   5.958   0.469   0.091 -0.1699  0.0863  0.4795
 5652TIP3    H138591   5.869   0.497   0.110 -0.3239 -0.5636  0.7265
 5652TIP3    H238592   5.948   0.389   0.039  0.2680  0.2676  0.1000
 5653TIP3   OH238593   5.390   0.460   0.504 -0.3572 -0.2163 -0.5168
 5653TIP3    H138594   5.426   0.373   0.520 -1.3722 -0.9843 -2.0769
 5653TIP3    H238595   5.317   0.468   0.566 -0.9934 -0.9783 -1.1524
 5654TIP3   OH238596   4.477   6.236   7.055 -0.3213 -0.2950 -0.3291
 5654TIP3    H138597   4.404   6.179   7.076  0.8203 -2.0135 -0.7875
 5654TIP3    H238598   4.502   6.276   7.139 -0.1100 -1.7805  0.3466
 5655TIP3   OH238599   4.192   4.676   1.050  0.8510 -0.4678 -0.0318
 5655TIP3    H138600   4.110   4.704   1.009  1.0580  0.9322  0.4591
 5655TIP3    H238601   4.236   4.624   0.983  0.3788  0.2794 -0.9415
 5656TIP3   OH238602   3.040   1.765   0.935 -0.0183  0.2318  0.1618
 5656TIP3    H138603   3.063   1.844   0.886  1.2149  0.4127  1.0002
 5656TIP3    H238604   3.071   1.781   1.024 -0.7450 -0.7589  0.6181
 5657TIP3   OH238605   3.719   3.077   0.880 -0.2628  0.0179  0.1695
 5657TIP3    H138606   3.643   3.088   0.822  0.6252  0.9840 -0.8669
 5657TIP3    H238607   3.763   2.999   0.847  0.8149  1.1554 -1.1742
 5658TIP3   OH238608   6.723   2.649   1.892 -0.2438  0.0512  0.5292
 5658TIP3    H138609   6.812   2.682   1.903 -0.1321 -0.4360  1.1511
 5658TIP3    H238610   6.689   2.641   1.981 -0.2530 -1.5170  0.4121
 5659TIP3   OH238611   6.331   4.755   1.504 -0.0847 -0.0036 -0.6244
 5659TIP3    H138612   6.304   4.693   1.436  0.7437  0.3822 -1.3264
 5659TIP3    H238613   6.376   4.825   1.456 -0.2678  0.7186  0.2403
 5660TIP3   OH238614   0.403   4.618   7.988 -0.2065 -0.1484  0.0126
 5660TIP3    H138615   0.397   4.523   7.980 -0.4359 -0.0502 -1.2711
 5660TIP3    H238616   0.488   4.640   7.951  0.2098  0.0863  1.0817
 5661TIP3   OH238617   5.963   3.790   7.082 -0.0487  0.1738 -0.0162
 5661TIP3    H138618   5.954   3.853   7.154 -2.0092 -0.2126  0.1327
 5661TIP3    H238619   6.050   3.753   7.093  0.6690  1.9550  0.6283
 5662TIP3   OH238620   4.071   4.839   0.125  0.0694  0.4108  0.2826
 5662TIP3    H138621   4.069   4.776   0.054  0.2525  1.6000 -0.8172
 5662TIP3    H238622   3.999   4.813   0.183 -1.1067  0.3231 -1.1503
 5663TIP3   OH238623   0.343   6.507   7.274  0.1124  0.0930  1.0664
 5663TIP3    H138624   0.343   6.412   7.262 -0.9520  0.3474 -1.5282
 5663TIP3    H238625   0.259   6.526   7.316 -0.5934  0.0349 -0.2752
 5664TIP3   OH238626   4.511   3.433   8.292  0.0770 -0.4891  0.1977
 5664TIP3    H138627   4.564   3.512   8.283  0.1962 -0.4696  0.9900
 5664TIP3    H238628   4.450   3.454   8.364 -2.9141  0.5484 -2.3889
 5665TIP3   OH238629   5.464   3.711   1.978  0.2172 -0.6224  0.3563
 5665TIP3    H138630   5.500   3.629   1.946  1.1684 -0.4846  0.9983
 5665TIP3    H238631   5.476   3.707   2.073  1.9421  0.9705  0.2727
 5666TIP3   OH238632   5.386   2.146   7.821  0.2802  0.0119 -0.8238
 5666TIP3    H138633   5.448   2.217   7.803  1.6107 -0.4808  1.4427
 5666TIP3    H238634   5.324   2.183   7.884 -0.3181 -0.2086 -1.2731
 5667TIP3   OH238635   3.546   1.281   7.686 -0.6274  0.2749  0.2155
 5667TIP3    H138636   3.462   1.237   7.700 -0.9116  0.4111 -1.0037
 5667TIP3    H238637   3.569   1.263   7.595  1.5327 -1.1998  0.9789
 5668TIP3   OH238638   1.900   2.875   7.879 -0.2567 -0.3857 -0.2515
 5668TIP3    H138639   1.964   2.813   7.843 -1.5197 -1.4053 -0.8050
 5668TIP3    H238640   1.815   2.838   7.855 -1.0922  0.3095  1.4902
 5669TIP3   OH238641   3.602   1.904   8.738 -0.0645 -0.0828 -0.2419
 5669TIP3    H138642   3.523   1.946   8.772  0.5017 -0.0132  1.0403
 5669TIP3    H238643   3.572   1.818   8.707 -0.7290  0.1594 -0.2875
 5670TIP3   OH238644   3.242   3.396   0.396  0.1977 -0.3121  0.0774
 5670TIP3    H138645   3.185   3.436   0.462 -0.2582  0.2791 -0.6484
 5670TIP3    H238646   3.188   3.329   0.355 -0.4658  1.0818 -1.4673
 5671TIP3   OH238647   6.748   0.272   1.606 -0.1629  0.6144  0.1260
 5671TIP3    H138648   6.729   0.247   1.696 -1.0018  1.3027  0.1438
 5671TIP3    H238649   6.805   0.349   1.614  1.8474 -0.7702  0.0625
 5672TIP3   OH238650   0.760   5.939   7.647 -0.7197 -0.0006 -0.3024
 5672TIP3    H138651   0.801   5.889   7.717 -0.8774  1.3419  0.8189
 5672TIP3    H238652   0.742   5.876   7.579  0.7845 -1.0982  0.2656
 5673TIP3   OH238653   3.875   6.289   7.322  1.1444  0.2218 -0.2605
 5673TIP3    H138654   3.884   6.202   7.362  0.4459  0.6984  1.0030
 5673TIP3    H238655   3.852   6.271   7.231 -1.1178 -0.9886  0.4432
 5674TIP3   OH238656   5.704   4.261   2.145 -0.5070  0.4676 -0.2850
 5674TIP3    H138657   5.779   4.320   2.142  0.8002 -1.1454 -0.4692
 5674TIP3    H238658   5.628   4.319   2.155  0.8011  2.1073  0.5888
 5675TIP3   OH238659   0.700   1.512   0.210  0.0375  0.3863  0.2811
 5675TIP3    H138660   0.662   1.522   0.297 -0.5209  1.1482 -0.0425
 5675TIP3    H238661   0.721   1.601   0.182 -0.9681  0.2764 -0.8846
 5676TIP3   OH238662   1.795   3.452   8.284  0.4520 -0.4550  0.3409
 5676TIP3    H138663   1.800   3.369   8.329  1.8186  0.7309  2.5555
 5676TIP3    H238664   1.838   3.515   8.343 -1.0134  1.9387 -0.9573
 5677TIP3   OH238665   1.905   3.331   6.647 -0.6603 -0.0044  0.1199
 5677TIP3    H138666   1.847   3.316   6.572  0.2316 -1.7142 -0.2890
 5677TIP3    H238667   1.990   3.351   6.608 -0.0664 -1.4110  0.6194
 5678TIP3   OH238668   6.244   1.670   8.213 -0.0756  0.4191  0.2462
 5678TIP3    H138669   6.339   1.675   8.212 -0.1073  1.1754  0.2601
 5678TIP3    H238670   6.223   1.641   8.302  0.1065  1.3706  0.6097
 5679TIP3   OH238671   5.896   6.760   0.521 -0.0988 -0.4898 -0.1281
 5679TIP3    H138672   5.829   6.722   0.464 -2.0051 -0.0293  1.7005
 5679TIP3    H238673   5.873   6.730   0.609  2.2109 -0.4184  0.5576
 5680TIP3   OH238674   0.713   2.957   7.363  0.4019 -0.1341  0.0929
 5680TIP3    H138675   0.725   3.029   7.301 -0.0562 -0.3737 -0.2792
 5680TIP3    H238676   0.670   2.998   7.439 -0.8674 -0.2232 -0.5650
 5681TIP3   OH238677   1.785   6.703   0.899 -0.6132 -0.3751  0.2740
 5681TIP3    H138678   1.873   6.668   0.883 -0.2467  0.3574  0.6507
 5681TIP3    H238679   1.768   6.683   0.991 -0.1467  0.9659  0.6672
 5682TIP3   OH238680   3.849   0.406   0.461 -0.4272 -0.2593 -0.1039
 5682TIP3    H138681   3.894   0.466   0.520 -0.1820 -1.1183  0.6259
 5682TIP3    H238682   3.768   0.384   0.507 -0.0902 -1.1797  0.0718
 5683TIP3   OH238683   2.698   1.724   7.541 -0.1741  0.1269 -0.7507
 5683TIP3    H138684   2.777   1.677   7.513  1.5930  1.9241  0.8487
 5683TIP3    H238685   2.705   1.727   7.636 -2.6036 -0.2668 -0.4997
 5684TIP3   OH238686   0.180   0.011   1.247 -0.1312 -0.2083 -0.0772
 5684TIP3    H138687   0.272   0.012   1.220  0.0463 -0.4508  0.4880
 5684TIP3    H238688   0.154   0.103   1.246  0.2394 -0.0958  0.1360
 5685TIP3   OH238689   6.712   4.627   6.463  0.2137  0.5295 -0.3027
 5685TIP3    H138690   6.745   4.616   6.374 -0.1798  0.6919 -0.4731
 5685TIP3    H238691   6.745   4.551   6.511  0.1544  0.2685 -0.6732
 5686TIP3   OH238692   6.171   6.090   7.211 -0.1099 -0.1004  0.0890
 5686TIP3    H138693   6.148   6.016   7.268 -1.6166 -0.1479 -0.5244
 5686TIP3    H238694   6.162   6.056   7.122 -2.5049  1.1973 -0.2645
 5687TIP3   OH238695   1.328   3.025   7.162  0.5678  0.0613  0.4501
 5687TIP3    H138696   1.411   2.988   7.192 -0.5106 -1.6069  1.5628
 5687TIP3    H238697   1.287   3.061   7.240  0.2468  0.9239 -0.0979
 5688TIP3   OH238698   2.284   6.686   0.225  0.6349 -0.0141 -0.0957
 5688TIP3    H138699   2.348   6.635   0.275 -1.3469 -2.9112 -0.2991
 5688TIP3    H238700   2.276   6.641   0.141 -0.0393  1.6256 -0.9659
 5689TIP3   OH238701   0.240   3.629   1.565 -0.5774  0.2583 -0.1458
 5689TIP3    H138702   0.273   3.642   1.476  0.6709  2.8873  0.5827
 5689TIP3    H238703   0.298   3.563   1.603  3.4255  3.7874  0.6647
 5690TIP3   OH238704   2.552   2.558   1.545  0.4632 -1.0065  0.2276
 5690TIP3    H138705   2.637   2.558   1.499 -0.4666  0.6322 -1.6521
 5690TIP3    H238706   2.551   2.642   1.592 -0.8149 -0.1224 -1.2885
 5691TIP3   OH238707   2.153   4.922   0.663 -0.3426 -0.1515  0.1227
 5691TIP3    H138708   2.104   4.903   0.583  2.0036  0.2722 -1.5178
 5691TIP3    H238709   2.130   4.851   0.723 -2.1824 -0.4601 -0.8734
 5692TIP3   OH238710   3.465   0.084   1.194  0.4960  0.1367 -0.0296
 5692TIP3    H138711   3.486  -0.009   1.205  0.1906  0.2063  1.3918
 5692TIP3    H238712   3.541   0.131   1.228 -0.0181  0.3869  0.8137
 5693TIP3   OH238713   5.027   4.647   0.010  0.4334 -0.0806 -0.3752
 5693TIP3    H138714   4.962   4.619  -0.055  0.2054 -1.0073  0.2286
 5693TIP3    H238715   5.059   4.731  -0.023 -0.8569  0.2600 -0.8372
 5694TIP3   OH238716   5.600   4.270   7.969  0.5464 -0.5683  0.0493
 5694TIP3    H138717   5.557   4.332   8.028  0.8400  0.8604 -1.1897
 5694TIP3    H238718   5.638   4.204   8.028  2.8096  1.9845  1.7210
 5695TIP3   OH238719   4.506   2.923   8.818 -0.1912 -0.3438 -0.5727
 5695TIP3    H138720   4.525   2.864   8.890 -1.1302  1.8160  1.6083
 5695TIP3    H238721   4.561   2.893   8.746  0.8449 -2.5687  1.0481
 5696TIP3   OH238722   4.357   5.491   8.849  0.6107  0.3188  0.2216
 5696TIP3    H138723   4.316   5.565   8.893  0.5781  0.2888  0.2410
 5696TIP3    H238724   4.284   5.435   8.821  0.6614 -0.2754  1.2074
 5697TIP3   OH238725   1.291   3.452   1.093  0.1070 -0.3828  0.7903
 5697TIP3    H138726   1.373   3.501   1.085 -0.4997  0.4278 -1.0779
 5697TIP3    H238727   1.307   3.372   1.044 -0.1327 -0.3194  0.6068
 5698TIP3   OH238728   1.686   0.322   8.265  0.2279  0.6557 -0.5936
 5698TIP3    H138729   1.777   0.351   8.256  0.6570 -0.0555  1.0947
 5698TIP3    H238730   1.640   0.398   8.301  1.0397 -0.1403  2.3898
 5699TIP3   OH238731   4.676   4.010   6.992 -0.1154  0.2057 -0.8536
 5699TIP3    H138732   4.727   3.938   7.029 -2.5955 -0.7105  1.0876
 5699TIP3    H238733   4.625   3.970   6.922 -0.7993  0.2546 -0.3951
 5700TIP3   OH238734   3.169   5.060   8.628  0.0293 -0.3524 -0.5417
 5700TIP3    H138735   3.198   5.050   8.537 -0.4319  0.8523 -0.8375
 5700TIP3    H238736   3.152   5.154   8.638  0.0607 -0.4642  0.7892
 5701TIP3   OH238737   5.488   1.902   2.376  0.2488  0.1701 -0.1337
 5701TIP3    H138738   5.544   1.973   2.347  0.3196  0.5037  0.7748
 5701TIP3    H238739   5.417   1.946   2.423 -0.0443 -0.3201 -0.1180
 5702TIP3   OH238740   1.671   5.902   6.384 -0.0216 -0.1404 -0.0837
 5702TIP3    H138741   1.724   5.982   6.379 -1.3839  1.1680  3.0833
 5702TIP3    H238742   1.622   5.901   6.303  1.7526  0.9074 -1.2563
 5703TIP3   OH238743   3.675   5.347   0.477  0.0985 -0.3248 -0.3598
 5703TIP3    H138744   3.618   5.391   0.539  1.3622  0.4954  0.2691
 5703TIP3    H238745   3.634   5.363   0.392 -0.7381  0.0229  0.0953
 5704TIP3   OH238746   5.356   1.328   6.525 -0.4447 -0.7021  0.3970
 5704TIP3    H138747   5.424   1.365   6.581 -0.6348  0.6412 -0.2202
 5704TIP3    H238748   5.327   1.249   6.571  2.0336 -1.7510  0.3055
 5705TIP3   OH238749   1.951   1.720   7.062 -0.4786 -0.5955  0.0437
 5705TIP3    H138750   2.046   1.729   7.059 -0.3535 -1.9755 -1.3105
 5705TIP3    H238751   1.935   1.628   7.040 -2.1976  0.0250 -1.5486
 5706TIP3   OH238752   2.381   6.292   7.161 -0.5962  0.2646 -0.3904
 5706TIP3    H138753   2.304   6.239   7.183 -0.2040  0.2691  1.1132
 5706TIP3    H238754   2.448   6.229   7.135 -1.1548  0.2760 -1.9527
 5707TIP3   OH238755   1.960   2.216   7.441  0.0864 -0.8877  0.0268
 5707TIP3    H138756   2.042   2.245   7.480  0.1118 -0.6063 -0.2367
 5707TIP3    H238757   1.905   2.295   7.438 -0.0770 -1.0049 -0.0938
 5708TIP3   OH238758   5.510   3.391   1.243  0.2157  0.1495 -0.7008
 5708TIP3    H138759   5.507   3.463   1.306  1.2314  0.1656 -0.6633
 5708TIP3    H238760   5.601   3.363   1.242 -0.2013 -1.3188 -0.5191
 5709TIP3   OH238761   3.026   5.200   0.464  1.0409  0.4509  0.4222
 5709TIP3    H138762   3.120   5.190   0.447  0.8536 -0.1052 -0.2999
 5709TIP3    H238763   2.998   5.114   0.495  0.5358  0.2648 -0.5094
 5710TIP3   OH238764   0.782   6.731   0.992  0.3377  0.2578 -0.0192
 5710TIP3    H138765   0.805   6.815   0.952  1.7572 -0.1453 -0.0992
 5710TIP3    H238766   0.785   6.747   1.086  3.0362 -0.2541  0.0423
 5711TIP3   OH238767   3.515   6.245   7.698  0.2108  0.4363  0.0012
 5711TIP3    H138768   3.423   6.231   7.676 -0.0403 -1.6871  2.0085
 5711TIP3    H238769   3.551   6.157   7.708  2.6884  1.1988 -1.4339
 5712TIP3   OH238770   3.255   2.319   8.617 -0.2148  0.3824 -0.6839
 5712TIP3    H138771   3.349   2.306   8.631  0.0170  2.4883  0.0500
 5712TIP3    H238772   3.227   2.373   8.691 -1.7782  0.7142 -1.4804
 5713TIP3   OH238773   4.315   3.916   0.495 -0.1484  0.3565 -0.2822
 5713TIP3    H138774   4.313   3.827   0.531  1.7472  0.2043 -0.4456
 5713TIP3    H238775   4.259   3.912   0.418 -0.5838 -0.5318  0.0718
 5714TIP3   OH238776   6.704   5.141   2.182 -0.4934  0.8443  0.3013
 5714TIP3    H138777   6.708   5.083   2.105  1.1565  0.8955  0.3210
 5714TIP3    H238778   6.656   5.219   2.150 -1.2190  0.2117 -0.2052
 5715TIP3   OH238779   2.101   2.864   1.804 -0.3605  0.0047 -0.5011
 5715TIP3    H138780   2.062   2.779   1.782 -2.4876  0.3474  1.5241
 5715TIP3    H238781   2.126   2.855   1.896  0.0553  1.3529 -0.4644
 5716TIP3   OH238782   5.408   1.965   6.341 -0.3613  0.2156  0.1481
 5716TIP3    H138783   5.314   1.983   6.339 -0.1166  1.6700 -1.1231
 5716TIP3    H238784   5.446   2.043   6.383  0.2254 -0.7676  1.4990
 5717TIP3   OH238785   6.453   6.575   6.899 -0.0639 -0.3026 -0.1346
 5717TIP3    H138786   6.469   6.559   6.992 -1.0733 -0.4283  0.0315
 5717TIP3    H238787   6.404   6.658   6.898  0.1414 -0.1857 -0.5722
 5718TIP3   OH238788   5.378   2.199   0.078 -0.2185 -0.4196  0.2407
 5718TIP3    H138789   5.395   2.186   0.171  1.2597  0.4909  0.1292
 5718TIP3    H238790   5.457   2.167   0.034 -0.3256  0.3950 -0.5913
 5719TIP3   OH238791   0.090   3.867   1.755  0.3969  0.7977  0.3248
 5719TIP3    H138792   0.144   3.939   1.721 -1.0679  1.3431 -0.9829
 5719TIP3    H238793   0.066   3.895   1.843  3.0270  0.0636  1.3532
 5720TIP3   OH238794   4.047   4.846   8.212  0.2733 -0.1886  0.4528
 5720TIP3    H138795   4.061   4.820   8.121 -0.6909  0.8389 -0.0153
 5720TIP3    H238796   3.953   4.833   8.227  0.1077  1.1968  0.7690
 5721TIP3   OH238797   3.173   5.367   7.856 -0.1293 -0.2541 -0.3252
 5721TIP3    H138798   3.148   5.280   7.828 -1.3725  0.0742 -0.3083
 5721TIP3    H238799   3.107   5.425   7.817  1.7158  0.9138 -1.9050
 5722TIP3   OH238800   1.093   2.311   1.381  0.2296 -0.4425  0.0737
 5722TIP3    H138801   1.181   2.345   1.396  0.2160 -1.1680  2.1185
 5722TIP3    H238802   1.042   2.388   1.354  0.8189  0.6546  1.8709
 5723TIP3   OH238803   1.404   1.442   7.368  0.3781 -0.0416 -0.1117
 5723TIP3    H138804   1.378   1.381   7.437  0.1806 -1.0264 -1.0264
 5723TIP3    H238805   1.472   1.395   7.320  0.5561  0.6592 -0.5522
 5724TIP3   OH238806   3.179   0.616   0.810 -0.8092  0.1769  0.0327
 5724TIP3    H138807   3.111   0.670   0.769  0.4705  0.0547 -2.4841
 5724TIP3    H238808   3.261   0.651   0.775  0.2375 -1.4956  0.7105
 5725TIP3   OH238809   3.960   3.653   2.499  0.4025 -0.4154  0.0396
 5725TIP3    H138810   4.021   3.679   2.430 -0.2419 -0.4365 -0.5428
 5725TIP3    H238811   4.002   3.681   2.580  1.6835 -1.3511 -0.2671
 5726TIP3   OH238812   2.148   5.910   0.470 -0.4836 -0.6011  0.1563
 5726TIP3    H138813   2.093   5.984   0.445  1.4223  1.4590  1.6788
 5726TIP3    H238814   2.172   5.869   0.387 -0.4512  1.3701 -0.8593
 5727TIP3   OH238815   5.486   0.120   8.735 -0.1605  0.1804  0.2061
 5727TIP3    H138816   5.556   0.148   8.676 -1.0035  0.4984 -0.6665
 5727TIP3    H238817   5.419   0.085   8.678 -0.5352 -0.5382  1.0704
 5728TIP3   OH238818   4.754   2.504   1.505  0.0312 -0.2710  0.2790
 5728TIP3    H138819   4.764   2.534   1.595 -2.2356  2.5931 -0.2810
 5728TIP3    H238820   4.833   2.534   1.460 -0.4207  1.4728  0.5997
 5729TIP3   OH238821   4.823   4.628   7.918  0.6969  0.0465 -0.3696
 5729TIP3    H138822   4.847   4.649   8.008  1.6836  1.3396 -0.9014
 5729TIP3    H238823   4.727   4.621   7.920  0.7155 -0.1078  0.7918
 5730TIP3   OH238824   4.560   1.153   0.176 -0.4659  0.3697 -0.3736
 5730TIP3    H138825   4.475   1.145   0.218 -0.4036 -0.2722 -0.3539
 5730TIP3    H238826   4.560   1.240   0.137 -0.7805  0.7111  0.3807
 5731TIP3   OH238827   1.896   6.152   0.655 -0.0674 -0.2277 -0.5307
 5731TIP3    H138828   1.943   6.119   0.732  0.8668  1.3505 -0.3840
 5731TIP3    H238829   1.965   6.168   0.590  0.2570  4.8897  0.6400
 5732TIP3   OH238830   2.478   1.549   2.158 -0.1314 -0.3335  0.7842
 5732TIP3    H138831   2.461   1.544   2.064 -0.9511  0.2504  0.8959
 5732TIP3    H238832   2.539   1.476   2.175 -1.1665 -1.4061  0.0693
 5733TIP3   OH238833   6.268   2.278   0.720 -0.0658  0.2421  0.0956
 5733TIP3    H138834   6.256   2.232   0.803  0.0896 -0.7131 -0.3973
 5733TIP3    H238835   6.192   2.336   0.714 -0.6540 -0.4733  0.3970
 5734TIP3   OH238836   0.746   5.197   0.923 -0.2785  0.4927 -0.0919
 5734TIP3    H138837   0.781   5.213   0.836 -0.9082  1.5200 -0.1780
 5734TIP3    H238838   0.823   5.170   0.975  0.0934 -0.1276 -0.9493
 5735TIP3   OH238839   3.433   5.509   7.818  0.1872  0.1706  0.2001
 5735TIP3    H138840   3.392   5.445   7.876  1.0004 -2.7306 -2.1724
 5735TIP3    H238841   3.363   5.535   7.758  0.6758 -1.4304 -1.1293
 5736TIP3   OH238842   2.168   3.141   6.928  0.1556  0.0466  0.2498
 5736TIP3    H138843   2.225   3.190   6.869  1.4332 -0.7070  0.8202
 5736TIP3    H238844   2.128   3.074   6.872 -2.2261  2.1104 -0.7153
 5737TIP3   OH238845   5.809   6.636   0.751  0.1624 -0.4646  0.4759
 5737TIP3    H138846   5.876   6.691   0.792  0.0396  0.0938 -0.0741
 5737TIP3    H238847   5.785   6.573   0.820 -0.4246  0.7829  1.4490
 5738TIP3   OH238848   1.040   2.404   7.220 -0.7268 -0.1819 -0.5074
 5738TIP3    H138849   1.016   2.375   7.308  0.8120 -1.0127 -0.3272
 5738TIP3    H238850   0.964   2.384   7.166 -0.3928 -3.0148 -0.0443
 5739TIP3   OH238851   1.258   6.819   1.872 -0.5063  0.0373  0.4709
 5739TIP3    H138852   1.236   6.742   1.924 -0.2096 -0.0448  0.4784
 5739TIP3    H238853   1.236   6.893   1.928 -3.3411  0.0634 -0.5129
 5740TIP3   OH238854   0.044   6.758   8.213  0.3406  0.1480 -0.1052
 5740TIP3    H138855  -0.005   6.750   8.294  0.3388  1.4454  0.0284
 5740TIP3    H238856  -0.015   6.723   8.146  0.1789 -0.5241  0.3751
 5741TIP3   OH238857   2.340   5.880   7.669 -0.6286 -0.6188  0.1099
 5741TIP3    H138858   2.379   5.954   7.622  0.4169 -1.3215 -0.1566
 5741TIP3    H238859   2.401   5.861   7.739 -0.3184 -1.9160 -0.4731
 5742TIP3   OH238860   0.346   4.320   0.395  0.0466  0.1358  0.5429
 5742TIP3    H138861   0.436   4.288   0.400 -0.0288 -0.3441 -0.7859
 5742TIP3    H238862   0.355   4.415   0.391  0.5605  0.0629 -0.4148
 5743TIP3   OH238863   6.709   6.712   1.586 -0.4575 -0.5214 -0.0242
 5743TIP3    H138864   6.660   6.740   1.509  1.1605 -0.9343 -1.2475
 5743TIP3    H238865   6.678   6.623   1.603 -1.5104 -0.0868  0.4173
 5744TIP3   OH238866   0.941   3.204   0.661  0.7565 -0.4576 -0.5740
 5744TIP3    H138867   0.870   3.186   0.722 -0.8317  1.5752 -1.6880
 5744TIP3    H238868   0.993   3.124   0.659 -0.7434 -1.5437  1.2715
 5745TIP3   OH238869   3.111   5.452   8.411  1.3280 -0.1368 -0.6190
 5745TIP3    H138870   3.121   5.441   8.317  0.2665 -0.0959 -0.7533
 5745TIP3    H238871   3.021   5.424   8.429  1.8755 -1.1982  0.5569
 5746TIP3   OH238872   5.430   2.605   1.302  0.0529  0.0629 -0.0036
 5746TIP3    H138873   5.335   2.608   1.292 -0.0564  0.0795  0.9795
 5746TIP3    H238874   5.457   2.526   1.254 -0.6220 -0.7414  0.9061
 5747TIP3   OH238875   6.826   0.213   2.273 -0.2526 -0.0081  0.6870
 5747TIP3    H138876   6.763   0.161   2.324 -2.8148  0.0706 -2.1168
 5747TIP3    H238877   6.797   0.304   2.287 -2.4889 -0.0880 -2.4358
 5748TIP3   OH238878   5.658   3.409   1.512 -1.0083 -0.0798 -0.3509
 5748TIP3    H138879   5.726   3.361   1.464 -0.9598  0.2351 -0.5962
 5748TIP3    H238880   5.702   3.486   1.547 -1.5203  0.7922 -1.5859
 5749TIP3   OH238881   2.916   3.827   0.071 -0.0769 -0.0790 -0.0454
 5749TIP3    H138882   2.826   3.858   0.062  0.0887  0.5053  0.2438
 5749TIP3    H238883   2.941   3.855   0.159  0.0691 -1.0776  0.2447
 5750TIP3   OH238884   5.080   6.009   2.230 -0.1921  0.1640  0.6417
 5750TIP3    H138885   5.054   6.083   2.285 -1.4476 -0.8776  1.4761
 5750TIP3    H238886   5.034   6.024   2.147 -0.5287  0.2587  0.8436
 5751TIP3   OH238887   5.367   6.538   0.568 -0.5027  0.3983  0.2753
 5751TIP3    H138888   5.310   6.469   0.534 -1.0192  0.6761  0.5710
 5751TIP3    H238889   5.313   6.617   0.566 -0.8172  0.2981  2.4175
 5752TIP3   OH238890   4.629   3.661   8.178 -0.0508 -0.3676  0.0649
 5752TIP3    H138891   4.567   3.732   8.196 -1.6011 -1.0473 -2.1422
 5752TIP3    H238892   4.636   3.660   8.083  3.3908 -0.3881  0.2007
 5753TIP3   OH238893   1.450   5.798   7.660  0.2132 -0.3818 -0.6113
 5753TIP3    H138894   1.449   5.839   7.746  0.9561 -3.3985  0.9978
 5753TIP3    H238895   1.543   5.797   7.635  0.1685 -0.7377 -0.7753
 5754TIP3   OH238896   4.667   1.645   7.061  0.4205  0.4394 -0.1378
 5754TIP3    H138897   4.671   1.690   6.977  2.5268 -2.7630 -1.9701
 5754TIP3    H238898   4.724   1.696   7.118 -1.5288  3.0150 -0.3544
 5755TIP3   OH238899   0.982   3.642   8.330  0.3257  0.4837  0.1009
 5755TIP3    H138900   1.015   3.671   8.245  0.4222 -2.4098 -0.9383
 5755TIP3    H238901   0.899   3.689   8.341 -0.2360  0.0909 -2.1127
 5756TIP3   OH238902   4.315   1.570   1.975 -0.1020 -0.2696  0.6503
 5756TIP3    H138903   4.408   1.549   1.983 -0.3008 -1.4902  0.0384
 5756TIP3    H238904   4.300   1.576   1.880 -0.7460 -0.6610  0.7204
 5757TIP3   OH238905   0.956   1.830   0.734  0.1622 -0.0469 -0.0523
 5757TIP3    H138906   0.923   1.897   0.673 -1.4018  0.0687  0.8557
 5757TIP3    H238907   0.910   1.750   0.708 -0.9136  0.1156  1.2428
 5758TIP3   OH238908   4.841   5.764   7.453 -0.0851  0.0644 -0.1156
 5758TIP3    H138909   4.902   5.691   7.438  0.1804  0.0383  0.9782
 5758TIP3    H238910   4.888   5.841   7.423  0.0554 -0.0886 -0.2934
 5759TIP3   OH238911   3.993   4.811   1.420 -0.1948 -0.4447 -0.0233
 5759TIP3    H138912   4.027   4.736   1.371  1.7004  0.6787 -0.5619
 5759TIP3    H238913   3.927   4.849   1.362 -1.1799 -1.6575  0.2570
 5760TIP3   OH238914   2.604   4.978   8.375  0.5396 -0.3249  1.1297
 5760TIP3    H138915   2.584   5.072   8.370 -2.7144 -0.9661 -0.7299
 5760TIP3    H238916   2.647   4.958   8.292  2.0412 -0.4015  1.8856
 5761TIP3   OH238917   3.637   1.116   2.828 -0.2426 -0.0617 -0.2101
 5761TIP3    H138918   3.658   1.093   2.738  0.5600 -0.3500  0.0473
 5761TIP3    H238919   3.557   1.067   2.847 -0.1472 -0.3737 -0.6071
 5762TIP3   OH238920   2.768   5.661   0.493 -0.5331 -0.4912 -0.1416
 5762TIP3    H138921   2.832   5.596   0.466 -0.5629 -1.1367  1.2341
 5762TIP3    H238922   2.724   5.688   0.412  0.8458 -0.6912 -0.9883
 5763TIP3   OH238923   2.247   3.162   7.480  0.4827  0.4461 -0.2110
 5763TIP3    H138924   2.269   3.162   7.387 -1.7391  1.3321 -0.8113
 5763TIP3    H238925   2.237   3.069   7.502  1.3429  0.2115 -0.7526
 5764TIP3   OH238926   2.799   4.981   8.072 -0.2200  0.5265 -0.1861
 5764TIP3    H138927   2.783   4.969   7.978 -0.9018  1.5895 -0.2264
 5764TIP3    H238928   2.815   4.892   8.105 -0.9330  0.0224 -1.1351
 5765TIP3   OH238929   3.365   5.574   6.207 -0.1451  0.9500  0.3879
 5765TIP3    H138930   3.367   5.557   6.113 -0.5971  1.7223  0.2285
 5765TIP3    H238931   3.450   5.543   6.239  0.1193  0.9271 -0.3134
 5766TIP3   OH238932   6.385   6.082   6.576 -0.0920 -0.1774  0.2607
 5766TIP3    H138933   6.481   6.085   6.577 -0.0997 -0.1289  1.0824
 5766TIP3    H238934   6.363   6.065   6.484  0.7010 -0.1738  0.0619
 5767TIP3   OH238935   6.049   3.325   2.013 -0.1736 -0.2344 -0.0522
 5767TIP3    H138936   5.979   3.355   2.071  0.2522  2.2915 -0.7066
 5767TIP3    H238937   6.005   3.296   1.933 -0.5330  0.9358 -0.2982
 5768TIP3   OH238938   4.533   0.539   0.916  0.0561  0.3084  0.2208
 5768TIP3    H138939   4.475   0.504   0.984 -1.3158 -0.4277 -1.2407
 5768TIP3    H238940   4.475   0.590   0.859  1.0323  0.3867 -0.7386
 5769TIP3   OH238941   5.066   1.396   0.604 -0.0482 -0.2252  0.2758
 5769TIP3    H138942   5.080   1.390   0.509 -0.9739 -2.1942  0.2015
 5769TIP3    H238943   5.010   1.473   0.615 -1.2923 -0.8907 -0.9899
 5770TIP3   OH238944   3.149   1.785   8.033  0.3328 -0.2519 -0.1874
 5770TIP3    H138945   3.103   1.754   8.111 -0.1477  2.6165  0.7807
 5770TIP3    H238946   3.229   1.732   8.029  1.4251  0.8397  3.5248
 5771TIP3   OH238947   5.185   1.308   0.335 -0.1028  0.0476 -0.1668
 5771TIP3    H138948   5.174   1.382   0.276 -1.4009  1.0006  1.2141
 5771TIP3    H238949   5.275   1.316   0.369 -0.5417  1.5655  0.7005
 5772TIP3   OH238950   1.916   3.472   7.768 -0.9468 -1.2533  0.0708
 5772TIP3    H138951   1.985   3.440   7.826 -0.1672  0.4455  0.1279
 5772TIP3    H238952   1.958   3.477   7.682 -1.5411 -1.9252 -0.2684
 5773TIP3   OH238953   1.787   0.963   1.581 -0.0801  0.0516  0.2600
 5773TIP3    H138954   1.851   0.894   1.563 -0.8882 -0.5152 -0.5453
 5773TIP3    H238955   1.734   0.968   1.501 -0.8678  0.6934  0.8066
 5774TIP3   OH238956   2.914   1.860   2.657  0.1374 -0.4858 -0.2304
 5774TIP3    H138957   2.823   1.858   2.626 -0.5018 -1.9073  1.5479
 5774TIP3    H238958   2.950   1.940   2.620 -1.4065 -0.5814 -2.1349
 5775TIP3   OH238959   3.226   5.963   0.459 -0.1721  0.3591  0.7587
 5775TIP3    H138960   3.158   5.900   0.433 -0.7826  0.6359  1.6331
 5775TIP3    H238961   3.299   5.909   0.488 -0.9548  0.0143  2.1932
 5776TIP3   OH238962   0.949   3.999   0.543 -0.3412  0.0171  0.1312
 5776TIP3    H138963   1.012   4.071   0.551 -1.9098  1.5461 -0.6125
 5776TIP3    H238964   0.981   3.933   0.605  0.9955  1.4613  1.0791
 5777TIP3   OH238965   1.427   1.406   6.522 -0.5563 -0.4686  0.3647
 5777TIP3    H138966   1.438   1.493   6.484 -0.6991 -0.8242 -0.5028
 5777TIP3    H238967   1.363   1.420   6.593 -0.9771  0.0399 -0.1007
 5778TIP3   OH238968   3.918   5.833   8.279 -0.2175 -0.0138 -0.1202
 5778TIP3    H138969   3.889   5.757   8.228 -0.6784 -0.1750  0.3688
 5778TIP3    H238970   3.837   5.872   8.311 -0.0793  1.5009 -1.4851
 5779TIP3   OH238971   3.805   2.847   8.835 -0.7736 -0.3493  0.0342
 5779TIP3    H138972   3.775   2.902   8.907 -1.5352  1.1392 -1.3680
 5779TIP3    H238973   3.797   2.757   8.868  0.3702  0.3190  2.3334
 5780TIP3   OH238974   5.082   0.747   1.176 -0.1962  0.2747  0.5308
 5780TIP3    H138975   5.147   0.800   1.223  0.4289 -1.4467  1.7572
 5780TIP3    H238976   5.121   0.734   1.089  0.0576  1.0714  0.5173
 5781TIP3   OH238977   5.864   6.768   7.666  0.0609 -0.4578 -0.1893
 5781TIP3    H138978   5.949   6.770   7.710  0.9092 -1.7666 -1.7025
 5781TIP3    H238979   5.846   6.860   7.645 -0.1786  0.1704  2.4277
 5782TIP3   OH238980   0.819   5.281   2.459  0.4880 -0.3385 -0.2280
 5782TIP3    H138981   0.732   5.244   2.471  0.7786 -0.7907  0.5600
 5782TIP3    H238982   0.848   5.249   2.374 -1.0138  1.6741 -1.6017
 5783TIP3   OH238983   0.360   1.848   8.217 -0.1429  0.1466 -0.2659
 5783TIP3    H138984   0.392   1.760   8.237  0.5764  0.4450 -0.0650
 5783TIP3    H238985   0.265   1.840   8.219 -0.1110 -0.9501 -1.6866
 5784TIP3   OH238986   3.744   6.268   7.032 -0.0879 -0.3465  0.5209
 5784TIP3    H138987   3.674   6.242   7.092 -1.0934  1.6667  0.3342
 5784TIP3    H238988   3.702   6.267   6.946  0.3857 -0.0404  0.2861
 5785TIP3   OH238989   0.994   4.958   7.595 -0.2187  0.6760 -0.1816
 5785TIP3    H138990   1.000   4.955   7.500 -0.4175 -2.7784 -0.2099
 5785TIP3    H238991   1.070   4.908   7.625 -0.9853  0.4210  1.4147
 5786TIP3   OH238992   5.285   5.698   8.533 -0.3037 -0.2620 -0.1831
 5786TIP3    H138993   5.320   5.698   8.444  0.7103 -0.6912  0.2102
 5786TIP3    H238994   5.268   5.790   8.552 -1.0329 -0.2085 -0.9996
 5787TIP3   OH238995   0.484   3.027   1.927  0.5797 -0.1147 -0.0687
 5787TIP3    H138996   0.450   3.072   2.004 -0.2831 -2.9552  1.3886
 5787TIP3    H238997   0.573   3.061   1.915  0.0746  1.6828  1.0542
 5788TIP3   OH238998   3.582   6.255   8.646 -0.1192 -0.0817 -0.7387
 5788TIP3    H138999   3.504   6.210   8.678 -0.4049  0.7558 -0.2290
 5788TIP3    H239000   3.548   6.324   8.589  0.1097  1.4563  0.9010
 5789TIP3   OH239001   2.270   2.874   0.368 -0.0012 -0.0304 -0.3935
 5789TIP3    H139002   2.253   2.955   0.415  0.2796  1.0926 -2.1102
 5789TIP3    H239003   2.347   2.837   0.411 -0.0352  0.7017  0.3134
 5790TIP3   OH239004   5.812   5.624   0.946  0.0388  0.8165  0.7163
 5790TIP3    H139005   5.745   5.669   0.895  0.3324  0.6276  0.1606
 5790TIP3    H239006   5.762   5.572   1.009 -0.3956 -0.2036 -0.4241
 5791TIP3   OH239007   0.659   4.256   8.538 -0.8402  0.5666 -0.2285
 5791TIP3    H139008   0.727   4.306   8.493 -0.9900  0.3105 -0.7349
 5791TIP3    H239009   0.583   4.262   8.481 -0.4032 -1.5900 -1.1105
 5792TIP3   OH239010   0.836   4.394   7.825  0.0788  0.3213  0.0081
 5792TIP3    H139011   0.905   4.452   7.857  0.7144  0.0125 -0.7516
 5792TIP3    H239012   0.827   4.416   7.732  0.6197 -1.0364 -0.4020
 5793TIP3   OH239013   4.309   3.505   6.369  0.4187 -0.3000 -0.1089
 5793TIP3    H139014   4.392   3.519   6.322  1.0517 -0.6564  0.8652
 5793TIP3    H239015   4.281   3.417   6.343 -0.6362  0.5124 -1.8675
 5794TIP3   OH239016   1.775   0.584   0.806  0.2407 -0.2676 -0.1220
 5794TIP3    H139017   1.813   0.664   0.770 -0.8299  0.5096  0.4316
 5794TIP3    H239018   1.843   0.549   0.864  0.5438  0.4791 -0.0236
 5795TIP3   OH239019   3.622   2.011   0.245 -0.6069  0.0985 -0.6568
 5795TIP3    H139020   3.712   2.039   0.230 -0.1399 -0.2263  1.2715
 5795TIP3    H239021   3.570   2.066   0.187  0.8547 -0.2441 -2.4077
 5796TIP3   OH239022   4.827   3.175   0.055 -0.1478 -0.2645 -0.2003
 5796TIP3    H139023   4.784   3.195   0.138 -2.6053 -1.3037 -1.1554
 5796TIP3    H239024   4.831   3.260   0.010 -0.2990  0.0057  0.2831
 5797TIP3   OH239025   6.031   4.675   8.049 -0.2368 -0.5969  0.9836
 5797TIP3    H139026   6.090   4.606   8.080  0.4002 -0.6901 -0.3858
 5797TIP3    H239027   6.015   4.655   7.957  0.5889  1.4757  0.3205
 5798TIP3   OH239028   3.868   1.849   8.271 -0.0318  0.3984 -0.5076
 5798TIP3    H139029   3.832   1.931   8.238 -0.2974 -0.0979 -1.4856
 5798TIP3    H239030   3.935   1.825   8.207  0.2044 -0.0309 -0.1072
 5799TIP3   OH239031   4.727   0.801   0.503  0.0924 -0.8815  0.5511
 5799TIP3    H139032   4.744   0.785   0.596 -0.3788  0.5176  0.9126
 5799TIP3    H239033   4.769   0.886   0.486  0.2480 -1.1629 -0.5451
 5800TIP3   OH239034   6.317   2.601   2.014 -0.2589  0.3211 -0.2817
 5800TIP3    H139035   6.268   2.669   2.061 -0.6367  1.3654 -2.0844
 5800TIP3    H239036   6.343   2.539   2.082 -1.7514  1.1505  1.1308
 5801TIP3   OH239037   5.626   6.016   7.908 -0.1595  0.2603 -0.1250
 5801TIP3    H139038   5.555   6.031   7.970  0.9654 -0.8821  1.5166
 5801TIP3    H239039   5.597   5.940   7.856 -0.5047  0.3408 -0.0531
 5802TIP3   OH239040   4.027   3.640   8.730 -0.0507  0.3680  0.1668
 5802TIP3    H139041   3.938   3.607   8.721  1.1795 -3.3942 -0.0421
 5802TIP3    H239042   4.057   3.605   8.814  0.9872  2.3658  0.6975
 5803TIP3   OH239043   2.502   3.223   0.026  0.4402 -0.4084 -0.5378
 5803TIP3    H139044   2.461   3.243   0.110 -0.3889 -0.1863 -0.9788
 5803TIP3    H239045   2.596   3.224   0.044  0.3758  1.7643 -0.0504
 5804TIP3   OH239046   5.338   6.052   0.305  0.2317 -0.2996  0.3097
 5804TIP3    H139047   5.285   6.073   0.228  2.1301  0.0353 -0.9995
 5804TIP3    H239048   5.283   6.076   0.379 -1.9599 -1.3160 -0.8788
 5805TIP3   OH239049   2.718   1.950   1.047  0.2261  0.5437 -0.2868
 5805TIP3    H139050   2.804   1.949   1.089  0.1503  0.2052 -0.1386
 5805TIP3    H239051   2.709   2.039   1.014  0.1107  0.9393  0.7690
 5806TIP3   OH239052   1.757   4.662   7.012  0.0336  0.0053 -0.8272
 5806TIP3    H139053   1.747   4.627   7.100  1.0731 -0.4142 -0.8542
 5806TIP3    H239054   1.674   4.706   6.993 -0.0414  0.4907  0.5247
 5807TIP3   OH239055   1.450   3.973   8.530  0.0113 -0.3903 -0.0554
 5807TIP3    H139056   1.410   3.975   8.443 -0.9769 -0.8225  0.3693
 5807TIP3    H239057   1.539   4.005   8.517 -0.5133  0.7390 -1.0180
 5808TIP3   OH239058   2.275   5.694   1.537 -0.0696 -0.2824  0.5165
 5808TIP3    H139059   2.353   5.715   1.589 -1.2524  0.1687  2.1919
 5808TIP3    H239060   2.244   5.778   1.505 -1.1349 -0.1375  1.8070
 5809TIP3   OH239061   3.437   3.219   7.577 -0.1969  0.6725  0.0414
 5809TIP3    H139062   3.422   3.241   7.485  0.6011  1.8565  0.1801
 5809TIP3    H239063   3.449   3.124   7.577 -0.2701  0.6537 -1.0605
 5810TIP3   OH239064   3.533   5.852   0.399 -0.5427 -0.8842  0.1879
 5810TIP3    H139065   3.497   5.819   0.481 -0.6001 -0.7889  0.2013
 5810TIP3    H239066   3.626   5.831   0.403 -0.1661  0.7788  1.1106
 5811TIP3   OH239067   1.847   6.742   1.637  0.2470  0.4344 -0.1647
 5811TIP3    H139068   1.914   6.750   1.705  1.0940  0.7250 -1.0258
 5811TIP3    H239069   1.839   6.648   1.621 -0.3473  0.3218  0.7023
 5812TIP3   OH239070   3.399   6.245   6.170  0.5563 -0.5146 -0.4991
 5812TIP3    H139071   3.358   6.172   6.123  0.4633  0.7090 -2.4483
 5812TIP3    H239072   3.418   6.211   6.257  2.4831 -3.5629 -1.9586
 5813TIP3   OH239073   2.724   0.803   0.663 -0.1800 -0.4836  0.4740
 5813TIP3    H139074   2.795   0.779   0.723  1.5330 -0.6922 -1.5098
 5813TIP3    H239075   2.749   0.889   0.630  0.3460 -1.4422 -1.8294
 5814TIP3   OH239076   6.801   0.477   1.046 -0.1886  0.0609  0.4839
 5814TIP3    H139077   6.780   0.570   1.042 -0.1568  0.1381  1.6442
 5814TIP3    H239078   6.716   0.433   1.048 -0.2769  0.2170  2.2519
 5815TIP3   OH239079   5.269   2.860   0.218  0.4376 -0.4493  0.0753
 5815TIP3    H139080   5.182   2.828   0.195 -0.0793  0.7435  0.3455
 5815TIP3    H239081   5.325   2.832   0.146 -0.1163 -1.3750 -0.0167
 5816TIP3   OH239082   2.571   2.497   1.870 -0.4119  0.2408  0.1723
 5816TIP3    H139083   2.488   2.540   1.892 -1.0398  0.0466 -1.6447
 5816TIP3    H239084   2.546   2.424   1.813  0.9500 -0.3699  0.3124
 5817TIP3   OH239085   5.944   5.430   2.331 -0.0704 -0.0237  0.2749
 5817TIP3    H139086   5.872   5.416   2.392  0.3260 -0.9537  0.5371
 5817TIP3    H239087   5.970   5.521   2.346  0.0884 -0.2592  1.5656
 5818TIP3   OH239088   1.606   3.050   2.476 -0.1793 -0.3542 -0.0738
 5818TIP3    H139089   1.554   3.079   2.551  0.4290  1.0938 -0.1765
 5818TIP3    H239090   1.694   3.084   2.493 -0.1725  0.5944 -1.7229
 5819TIP3   OH239091   3.496   3.062   8.780  0.3052 -0.2637  0.0631
 5819TIP3    H139092   3.471   2.974   8.811 -3.2234  0.2727 -0.8945
 5819TIP3    H239093   3.454   3.122   8.842  3.1505  0.9060  1.0552
 5820TIP3   OH239094   2.955   3.873   0.347 -0.5032  0.4461  0.3795
 5820TIP3    H139095   2.979   3.965   0.348  0.6904  0.1457  1.0934
 5820TIP3    H239096   3.038   3.826   0.354 -1.0167 -0.7015 -0.7337
 5821TIP3   OH239097   1.042   2.215   6.917 -0.0311 -0.5464  0.3486
 5821TIP3    H139098   1.003   2.180   6.997 -0.3603 -0.2967  0.3003
 5821TIP3    H239099   1.082   2.298   6.943  0.7085 -0.9302  0.4531
 5822TIP3   OH239100   1.090   2.358   0.384  0.3952 -0.7333  0.4034
 5822TIP3    H139101   1.092   2.397   0.297 -1.8172 -0.8320  0.2672
 5822TIP3    H239102   1.057   2.269   0.370  0.4734 -0.9134  1.2973
 5823TIP3   OH239103   1.521   3.101   0.669 -0.4609 -0.1178 -0.5802
 5823TIP3    H139104   1.587   3.032   0.666 -2.5175 -2.3045  1.0457
 5823TIP3    H239105   1.567   3.176   0.707  1.4583 -1.0285 -0.9691
 5824TIP3   OH239106   0.824   5.389   2.020 -0.0318 -0.1097  0.2850
 5824TIP3    H139107   0.831   5.458   2.086  1.8623  1.5602 -1.5031
 5824TIP3    H239108   0.730   5.382   2.004 -0.4616  0.2260  2.3036
 5825TIP3   OH239109   3.036   2.672   1.263 -0.1115 -0.3082  0.8512
 5825TIP3    H139110   2.965   2.615   1.292 -0.7067  0.4072  0.8390
 5825TIP3    H239111   3.094   2.678   1.339  0.2110 -1.3067  0.6911
 5826TIP3   OH239112   1.681   0.637   7.980 -0.9006 -0.3006  0.1215
 5826TIP3    H139113   1.670   0.547   7.951 -2.0641  0.1217 -0.8626
 5826TIP3    H239114   1.670   0.634   8.075 -1.0655 -1.1802  0.0765
 5827TIP3   OH239115   2.530   2.615   7.838 -1.0381 -0.0547  0.5442
 5827TIP3    H139116   2.475   2.640   7.912 -0.4739  0.1541  0.8982
 5827TIP3    H239117   2.505   2.525   7.818 -1.5330  0.0513  0.6758
 5828TIP3   OH239118   5.481   2.306   7.424 -0.3596  0.6704  0.5233
 5828TIP3    H139119   5.476   2.356   7.342 -3.3832  0.3769  0.4147
 5828TIP3    H239120   5.441   2.222   7.403  1.9207 -0.7532  1.4896
 5829TIP3   OH239121   3.141   3.259   8.819  0.0738 -0.0087  0.6144
 5829TIP3    H139122   3.165   3.199   8.889 -0.8766 -0.6952  0.3807
 5829TIP3    H239123   3.142   3.345   8.860  1.9847 -0.0837  0.8247
 5830TIP3   OH239124   5.376   5.988   0.724 -0.2284  0.0532 -0.3273
 5830TIP3    H139125   5.360   6.072   0.681 -0.5014  1.0712  1.6286
 5830TIP3    H239126   5.292   5.964   0.763  0.1582 -0.4749  0.1970
 5831TIP3   OH239127   1.348   6.234   0.716 -0.2380  0.1167 -0.6421
 5831TIP3    H139128   1.334   6.144   0.685 -2.0480 -0.3234  1.2623
 5831TIP3    H239129   1.261   6.265   0.739  0.5545  1.8226  0.1993
 5832TIP3   OH239130   3.088   6.015   7.580 -0.1791 -0.3299 -0.3688
 5832TIP3    H139131   3.133   5.957   7.643 -0.8977  1.6187  2.1097
 5832TIP3    H239132   3.002   5.976   7.569  0.2614 -1.1824 -0.9106
 5833TIP3   OH239133   4.144   1.740   7.561 -0.1373 -0.0484 -0.0075
 5833TIP3    H139134   4.103   1.806   7.505  1.5179  1.6148  0.6447
 5833TIP3    H239135   4.236   1.766   7.565  0.4071 -1.9591  0.9467
 5834TIP3   OH239136   0.602   1.787   8.404 -0.4327 -0.1047 -0.3568
 5834TIP3    H139137   0.640   1.776   8.317  1.0617  1.8320 -0.0169
 5834TIP3    H239138   0.669   1.753   8.464 -0.3391  0.9056  0.1357
 5835TIP3   OH239139   1.285   6.046   8.304 -0.4032 -0.2032  0.5493
 5835TIP3    H139140   1.196   6.012   8.314  0.0357 -1.4525  0.4521
 5835TIP3    H239141   1.316   6.009   8.222 -0.5296  2.0060 -0.5490
 5836TIP3   OH239142   1.621   1.869   1.491 -0.2468 -0.3919  0.1958
 5836TIP3    H139143   1.584   1.947   1.449 -0.3942 -0.5794 -0.0286
 5836TIP3    H239144   1.572   1.796   1.452  0.5799 -0.6695 -0.3446
 5837TIP3   OH239145   1.474   6.580   1.222  0.0830  0.1061  0.3057
 5837TIP3    H139146   1.491   6.496   1.181 -0.2419  0.0857  0.2031
 5837TIP3    H239147   1.380   6.578   1.241  0.2311  0.1049  1.0715
 5838TIP3   OH239148   1.217   4.967   1.026  0.1313 -0.7119  0.0271
 5838TIP3    H139149   1.217   4.878   0.991  1.2254 -1.3676  1.5450
 5838TIP3    H239150   1.262   4.959   1.110 -0.1330  1.2131  0.3972
 5839TIP3   OH239151   5.009   5.346   1.953 -0.1646 -0.7114 -0.2164
 5839TIP3    H139152   4.967   5.341   1.867  0.2306  5.3056 -1.2002
 5839TIP3    H239153   5.101   5.366   1.934 -0.0155  0.5536  1.5980
 5840TIP3   OH239154   1.980   4.612   7.736  0.5480  0.1068 -0.4223
 5840TIP3    H139155   2.037   4.576   7.668 -1.7397 -1.5543 -1.6030
 5840TIP3    H239156   1.896   4.627   7.692  0.1989  3.1774  1.0461
 5841TIP3   OH239157   6.523   2.700   7.756  0.6888 -0.0318 -0.2234
 5841TIP3    H139158   6.485   2.707   7.669  1.9473  0.6583 -0.7578
 5841TIP3    H239159   6.500   2.783   7.799 -1.4945 -1.1130  0.8036
 5842TIP3   OH239160   6.372   3.120   8.068  0.1267 -0.1995  0.0868
 5842TIP3    H139161   6.292   3.130   8.119  0.8047 -0.0112  1.1492
 5842TIP3    H239162   6.375   3.197   8.012 -0.8890 -0.6625 -0.6448
 5843TIP3   OH239163   1.101   3.547   7.978  0.6608 -0.0032  0.1567
 5843TIP3    H139164   1.094   3.637   8.009  2.3550  0.3136 -0.2736
 5843TIP3    H239165   1.189   3.520   8.003 -0.1247 -1.9020  1.1330
 5844TIP3   OH239166   1.671   0.697   8.285 -1.2223  0.2461 -0.2103
 5844TIP3    H139167   1.761   0.668   8.298 -0.7192  1.6327 -0.4171
 5844TIP3    H239168   1.622   0.659   8.358 -0.1377  0.8282  0.8503
 5845TIP3   OH239169   6.223   0.163   0.201  0.2309 -0.8598 -0.1844
 5845TIP3    H139170   6.150   0.187   0.258 -0.1308  1.8967 -1.6787
 5845TIP3    H239171   6.253   0.079   0.237 -0.5553  0.2162  3.4421
 5846TIP3   OH239172   4.152   2.141   0.265  0.1819 -0.1211 -0.6297
 5846TIP3    H139173   4.211   2.180   0.330  1.4459 -1.1234 -1.1353
 5846TIP3    H239174   4.195   2.157   0.181 -1.0225  0.4298 -1.1661
 5847TIP3   OH239175   6.251   6.745   7.238  0.4524 -0.4713  0.4035
 5847TIP3    H139176   6.344   6.746   7.213  0.2557  1.0584 -0.3848
 5847TIP3    H239177   6.217   6.666   7.198  1.3268 -0.8207  0.3248
 5848TIP3   OH239178   6.625   1.385   7.602  0.2774  0.0891 -0.0179
 5848TIP3    H139179   6.710   1.354   7.573  0.6741  0.3532  0.8374
 5848TIP3    H239180   6.642   1.471   7.640 -0.1544 -0.3759  1.2953
 5849TIP3   OH239181   4.139   0.343   6.730  0.0807  0.3437  0.1806
 5849TIP3    H139182   4.082   0.266   6.727 -0.4551  0.7499 -0.4585
 5849TIP3    H239183   4.093   0.404   6.788 -0.9523  1.2863 -1.5753
 5850TIP3   OH239184   6.697   4.033   7.343 -0.3308 -0.0843  0.0737
 5850TIP3    H139185   6.676   4.069   7.256 -0.7842 -0.6626 -0.0608
 5850TIP3    H239186   6.744   3.952   7.324 -1.4627 -0.8191  0.3534
 5851TIP3   OH239187   1.303   0.636   1.292  0.4244  0.1685  0.0182
 5851TIP3    H139188   1.273   0.710   1.240 -2.8156 -0.3864  0.9049
 5851TIP3    H239189   1.367   0.673   1.353 -0.1322  1.9471 -0.4347
 5852TIP3   OH239190   3.018   1.023   0.246  0.1216 -0.5598 -0.1956
 5852TIP3    H139191   3.032   1.116   0.265  0.2386 -0.3358 -1.2943
 5852TIP3    H239192   2.925   1.017   0.223  0.3783 -0.4839 -1.3034
 5853TIP3   OH239193   3.674   5.371   2.327  0.1531  0.2872 -0.3966
 5853TIP3    H139194   3.591   5.383   2.280  0.2169  0.9674 -0.3473
 5853TIP3    H239195   3.738   5.353   2.258 -0.2511 -1.5107 -0.3373
 5854TIP3   OH239196   2.894   0.406   8.670  0.0123 -0.3453 -0.0991
 5854TIP3    H139197   2.968   0.466   8.662 -1.2493  1.2626 -0.3491
 5854TIP3    H239198   2.905   0.364   8.755  1.0701  0.0186 -0.0425
 5855TIP3   OH239199   2.797   4.466   0.259 -0.2231  0.2421  0.2108
 5855TIP3    H139200   2.774   4.556   0.238  2.6365  1.1162  0.3160
 5855TIP3    H239201   2.828   4.470   0.350  1.3769 -0.4728 -0.2591
 5856TIP3   OH239202   0.562   0.316   7.561  0.0104 -0.1264  0.0628
 5856TIP3    H139203   0.585   0.356   7.477 -0.7416 -0.2423 -0.2085
 5856TIP3    H239204   0.496   0.375   7.598 -1.7272 -1.4745 -0.7158
 5857TIP3   OH239205   6.281   4.353   1.615  0.3107 -0.8709  0.1830
 5857TIP3    H139206   6.285   4.430   1.671  0.2973 -1.4377  0.9722
 5857TIP3    H239207   6.285   4.388   1.526  1.9329 -0.0413  0.5373
 5858TIP3   OH239208   2.792   6.200   1.211  0.2399  0.1644 -0.3092
 5858TIP3    H139209   2.719   6.146   1.182 -0.2992  0.8499 -0.2520
 5858TIP3    H239210   2.864   6.175   1.154  0.3800 -1.5501  0.5559
 5859TIP3   OH239211   0.797   4.732   7.374 -0.5116 -0.3366  0.3128
 5859TIP3    H139212   0.834   4.802   7.320  1.1284 -1.3272  0.0598
 5859TIP3    H239213   0.845   4.654   7.347 -2.4449 -1.6230  0.4246
 5860TIP3   OH239214   4.169   1.583   1.431  0.1038 -0.7470 -0.0399
 5860TIP3    H139215   4.124   1.498   1.435 -0.5457 -0.4024  0.2235
 5860TIP3    H239216   4.114   1.637   1.375  0.8115 -0.6610 -0.6645
 5861TIP3   OH239217   1.174   4.143   7.648  0.0268  0.0584 -0.0717
 5861TIP3    H139218   1.248   4.102   7.693  0.0259 -0.2887 -0.3854
 5861TIP3    H239219   1.098   4.121   7.701  0.2466  1.0996  0.7047
 5862TIP3   OH239220   1.052   4.890   8.741  0.3734  0.1862 -0.0403
 5862TIP3    H139221   1.099   4.825   8.689 -1.2724 -0.2439 -1.0703
 5862TIP3    H239222   0.971   4.905   8.693 -0.3133  1.2854  1.3878
 5863TIP3   OH239223   3.840   5.435   0.741 -0.3550 -0.2957 -0.1692
 5863TIP3    H139224   3.746   5.419   0.734 -0.4320 -0.5717  1.2573
 5863TIP3    H239225   3.879   5.349   0.755  0.2838 -0.3596 -2.0366
 5864TIP3   OH239226   1.596   0.367   0.593 -0.3570 -0.2582  0.7490
 5864TIP3    H139227   1.599   0.351   0.688  1.5496 -0.5817  0.6810
 5864TIP3    H239228   1.688   0.370   0.567 -0.8226 -1.7961 -1.3529
 5865TIP3   OH239229   3.974   0.251   8.289  0.0086  0.0780 -0.3487
 5865TIP3    H139230   3.920   0.193   8.342 -1.1246  0.4232 -1.0993
 5865TIP3    H239231   3.919   0.275   8.214  0.9919  0.8989 -0.8426
 5866TIP3   OH239232   4.115   5.458   7.701  0.8188 -0.1521  0.4038
 5866TIP3    H139233   4.090   5.373   7.666 -0.0894 -0.0246  0.7169
 5866TIP3    H239234   4.057   5.520   7.657  1.0149  0.2294  0.6761
 5867TIP3   OH239235   3.958   4.956   7.081 -0.1708  0.2688  0.5959
 5867TIP3    H139236   4.013   5.020   7.036  0.5099  0.0309  1.0750
 5867TIP3    H239237   3.921   5.004   7.155 -1.6577  0.7899 -0.4429
 5868TIP3   OH239238   5.003   5.493   7.169 -0.2357  0.4522 -0.3040
 5868TIP3    H139239   5.008   5.576   7.121  0.7776  1.2794  1.1650
 5868TIP3    H239240   5.083   5.447   7.146 -1.5389 -0.9356 -2.4269
 5869TIP3   OH239241   6.398   1.713   7.058  0.0947  0.0986 -0.4778
 5869TIP3    H139242   6.371   1.684   6.971 -0.1339 -0.6713 -0.1606
 5869TIP3    H239243   6.488   1.682   7.066  0.4796  1.1023 -0.8464
 5870TIP3   OH239244   2.935   3.806   1.243 -0.1100  0.3704 -0.3176
 5870TIP3    H139245   3.024   3.839   1.252 -0.2896  0.5277  1.0823
 5870TIP3    H239246   2.905   3.791   1.332 -1.3294 -0.1283 -0.7777
 5871TIP3   OH239247   2.473   0.583   0.969  0.7466 -0.6155  0.2293
 5871TIP3    H139248   2.520   0.655   0.928  0.1595 -1.2868 -1.7481
 5871TIP3    H239249   2.531   0.553   1.038  1.7526  0.6508 -0.0300
 5872TIP3   OH239250   5.011   5.409   6.644  0.1261  0.3520 -0.5383
 5872TIP3    H139251   4.963   5.461   6.579  0.0301  0.9493  0.0021
 5872TIP3    H239252   4.962   5.327   6.650  0.4177  0.0897 -1.5797
 5873TIP3   OH239253   2.182   5.414   8.259 -0.1990  0.2631  0.0646
 5873TIP3    H139254   2.185   5.504   8.290 -4.0783  0.7107 -0.3834
 5873TIP3    H239255   2.126   5.368   8.322 -0.8025 -1.0384 -1.3424
 5874TIP3   OH239256   6.420   5.460   1.757  0.0949  0.4277  0.2790
 5874TIP3    H139257   6.402   5.483   1.848  1.4546 -1.0047  0.9459
 5874TIP3    H239258   6.480   5.528   1.726 -0.1085  0.7332  0.5514
 5875TIP3   OH239259   1.134   2.443   6.965  0.4399 -0.7928 -0.3192
 5875TIP3    H139260   1.121   2.481   7.052  0.0722 -1.1535 -0.2127
 5875TIP3    H239261   1.187   2.508   6.918 -0.2223 -0.1226 -0.1581
 5876TIP3   OH239262   5.008   2.273   0.772  0.1977 -0.1328  0.1704
 5876TIP3    H139263   5.097   2.272   0.808  0.6440 -0.1164 -0.9171
 5876TIP3    H239264   4.996   2.363   0.741 -0.4201  0.0226  0.8113
 5877TIP3   OH239265   2.599   0.035   7.281  0.0971  0.1322 -0.6245
 5877TIP3    H139266   2.561  -0.046   7.313 -0.7665  1.2598  1.4107
 5877TIP3    H239267   2.523   0.087   7.252  0.6507  0.1707 -2.0841
 5878TIP3   OH239268   2.390   3.669   6.714 -0.5393 -0.5130 -0.0911
 5878TIP3    H139269   2.452   3.699   6.780 -1.1754 -0.4458  0.4950
 5878TIP3    H239270   2.431   3.690   6.630  0.1855 -0.4000  0.2824
 5879TIP3   OH239271   0.567   4.603   2.192 -0.5883  0.2501 -0.0800
 5879TIP3    H139272   0.579   4.523   2.243 -0.7073  0.5305  0.3963
 5879TIP3    H239273   0.487   4.587   2.142 -0.0274 -0.3432 -0.8032
 5880TIP3   OH239274   2.445   4.756   0.025  0.2146  0.2918  0.3729
 5880TIP3    H139275   2.461   4.718   0.112  1.3607  0.1016  0.0933
 5880TIP3    H239276   2.404   4.841   0.043 -1.2382 -0.5052  1.0426
 5881TIP3   OH239277   2.407   2.442   2.227  0.0663  0.1537 -0.8385
 5881TIP3    H139278   2.470   2.513   2.242  0.4465 -0.4853  0.8206
 5881TIP3    H239279   2.455   2.377   2.176 -0.0203  0.7055 -1.6401
 5882TIP3   OH239280   6.489   5.581   7.348  0.0061  0.0969 -0.4511
 5882TIP3    H139281   6.518   5.497   7.312  2.3518 -0.3314  2.1027
 5882TIP3    H239282   6.443   5.624   7.275  0.3444 -2.5955 -2.3910
 5883TIP3   OH239283   2.244   4.700   7.415  0.3651  0.3852  0.0749
 5883TIP3    H139284   2.162   4.685   7.368  0.4028  1.3054 -0.3106
 5883TIP3    H239285   2.291   4.617   7.407 -0.3463 -0.0175 -0.0619
 5884TIP3   OH239286   6.348   1.158   0.292  0.3778  0.6715 -0.0136
 5884TIP3    H139287   6.370   1.077   0.338 -1.2360 -0.2271 -0.7524
 5884TIP3    H239288   6.354   1.136   0.199 -1.7400  0.8590 -0.2421
 5885TIP3   OH239289   1.269   1.642   1.791 -0.3375 -0.3444 -0.0340
 5885TIP3    H139290   1.247   1.681   1.706 -0.4386  0.6138  0.4097
 5885TIP3    H239291   1.264   1.716   1.853 -0.8406 -1.1292  0.8953
 5886TIP3   OH239292   0.678   3.344   1.053 -0.2337 -0.0249 -0.9013
 5886TIP3    H139293   0.755   3.366   1.105 -0.0545 -0.0953 -1.1392
 5886TIP3    H239294   0.691   3.389   0.970 -0.6347  0.2814 -0.8024
 5887TIP3   OH239295   3.101   3.394   6.870 -0.2323 -0.0333  0.4731
 5887TIP3    H139296   3.065   3.329   6.810  0.9293  0.8187 -1.2099
 5887TIP3    H239297   3.185   3.358   6.897  0.1978  0.5348 -0.0851
 5888TIP3   OH239298   2.946   5.802   0.239  0.3139  0.4397 -0.2643
 5888TIP3    H139299   3.006   5.739   0.277  0.2809 -0.3156 -1.3940
 5888TIP3    H239300   2.947   5.782   0.145 -1.5888  0.4954 -0.3317
 5889TIP3   OH239301   1.329   2.492   2.200 -0.0888 -0.1518  0.3126
 5889TIP3    H139302   1.417   2.453   2.204 -0.5809 -1.3691 -0.0871
 5889TIP3    H239303   1.277   2.439   2.261 -0.5040  0.7109  0.7290
 5890TIP3   OH239304   3.827   0.767   8.142  0.0432  0.1611  0.8122
 5890TIP3    H139305   3.746   0.819   8.137 -0.8742 -1.1417  1.4499
 5890TIP3    H239306   3.824   0.726   8.228  0.9621 -0.5936  0.5002
 5891TIP3   OH239307   4.330   4.967   0.615  0.3562  0.3434  0.4790
 5891TIP3    H139308   4.251   5.021   0.623 -0.4587 -0.4578 -1.4567
 5891TIP3    H239309   4.372   4.998   0.535  1.2342 -0.1994  0.7183
 5892TIP3   OH239310   3.041   1.161   8.773 -0.0344 -0.2728  0.5386
 5892TIP3    H139311   2.947   1.146   8.758 -0.2575 -3.3252  3.6881
 5892TIP3    H239312   3.043   1.225   8.844  0.3144 -0.0410  0.3241
 5893TIP3   OH239313   5.585   2.637   2.798  0.2101  0.0434  0.4440
 5893TIP3    H139314   5.544   2.619   2.713  1.9063 -0.7606 -0.2449
 5893TIP3    H239315   5.651   2.703   2.780  0.7276 -0.2856  1.0943
 5894TIP3   OH239316   0.822   1.755   0.117  0.0166  0.4018  0.2379
 5894TIP3    H139317   0.810   1.835   0.066 -1.9993  0.1940  0.3057
 5894TIP3    H239318   0.884   1.703   0.066 -0.4209  1.0429 -0.9833
 5895TIP3   OH239319   1.067   0.895   8.035 -0.6641 -0.3769 -0.4748
 5895TIP3    H139320   1.127   0.825   8.059 -2.3491 -1.3753  1.0671
 5895TIP3    H239321   1.112   0.943   7.965  0.9612 -2.3679 -0.8738
 5896TIP3   OH239322   3.304   0.907   8.194  0.0045 -0.1756  0.1555
 5896TIP3    H139323   3.226   0.937   8.148  0.4028 -0.4914 -0.7584
 5896TIP3    H239324   3.353   0.987   8.212 -0.0549 -0.0617 -0.1719
 5897TIP3   OH239325   6.473   1.799   7.958  0.1172  0.3579  0.3120
 5897TIP3    H139326   6.426   1.882   7.965  0.1957  0.3783  0.6118
 5897TIP3    H239327   6.506   1.783   8.046 -1.1820 -0.7611  0.6245
 5898TIP3   OH239328   2.161   4.409   0.758 -0.3776  0.3333 -0.1041
 5898TIP3    H139329   2.198   4.484   0.712 -0.5743 -0.1433 -1.0749
 5898TIP3    H239330   2.066   4.423   0.754 -0.3712  1.3183  1.9674
 5899TIP3   OH239331   4.832   5.980   6.730  0.0723 -0.0834 -0.1967
 5899TIP3    H139332   4.895   5.908   6.720 -1.1750 -1.1783 -0.3989
 5899TIP3    H239333   4.789   5.987   6.645 -0.5509  0.1817  0.1314
 5900TIP3   OH239334   4.466   3.322   7.926  0.0567 -0.4000  0.1385
 5900TIP3    H139335   4.499   3.234   7.946  2.4970  0.3390 -0.3625
 5900TIP3    H239336   4.544   3.376   7.917 -1.3728  1.7966  0.1506
 5901TIP3   OH239337   4.802   1.528   1.369  0.4225  0.4569  0.0206
 5901TIP3    H139338   4.894   1.550   1.354  0.3774  0.7205  0.1272
 5901TIP3    H239339   4.790   1.444   1.325  0.5701  0.6944 -0.4777
 5902TIP3   OH239340   2.366   5.607   7.451  0.0533  0.3244 -0.1992
 5902TIP3    H139341   2.288   5.655   7.478 -1.2239  0.4252 -3.5563
 5902TIP3    H239342   2.332   5.534   7.399  2.1807 -0.2670 -0.8572
 5903TIP3   OH239343   3.277   4.365   1.125 -0.6759  0.3105  0.1006
 5903TIP3    H139344   3.186   4.393   1.133 -0.5709  0.1503  2.5712
 5903TIP3    H239345   3.276   4.300   1.055 -2.7958 -0.9544  1.2160
 5904TIP3   OH239346   0.510   6.711   1.250 -0.5708  0.2404 -0.3426
 5904TIP3    H139347   0.490   6.622   1.220 -0.2012  0.3920 -1.0474
 5904TIP3    H239348   0.605   6.712   1.259 -0.6343  0.3527  0.3574
 5905TIP3   OH239349   2.493   2.649   8.277 -0.7676  0.1102 -0.4016
 5905TIP3    H139350   2.415   2.689   8.316  0.4341 -0.4127  2.8192
 5905TIP3    H239351   2.558   2.648   8.347  2.0481  0.0622 -2.8006
 5906TIP3   OH239352   0.870   1.369   1.288 -0.7805 -0.1982  0.6486
 5906TIP3    H139353   0.900   1.337   1.373 -1.2032 -0.3373  0.7456
 5906TIP3    H239354   0.822   1.449   1.308  0.7576  0.8511  0.3535
 5907TIP3   OH239355   4.772   2.809   8.741 -0.6640 -0.1463  0.6955
 5907TIP3    H139356   4.740   2.800   8.651 -0.7897  1.9271  0.4901
 5907TIP3    H239357   4.864   2.836   8.731  0.3590 -3.0066  1.2742
 5908TIP3   OH239358   5.234   3.888   2.222 -0.5117 -0.1488 -0.2310
 5908TIP3    H139359   5.247   3.972   2.266 -0.3051 -0.0470 -0.4808
 5908TIP3    H239360   5.308   3.834   2.251 -0.0429  0.1095 -0.8916
 5909TIP3   OH239361   4.125   4.320   2.644 -0.4013 -0.0995 -0.0842
 5909TIP3    H139362   4.030   4.322   2.634 -0.3838  0.4202 -0.1688
 5909TIP3    H239363   4.150   4.412   2.652  0.2051 -0.1643 -1.1449
 5910TIP3   OH239364   0.638   4.959   0.394  0.2157  0.4464 -0.0110
 5910TIP3    H139365   0.635   4.889   0.328 -0.9300  0.0127  0.4718
 5910TIP3    H239366   0.560   5.011   0.377 -0.2415  0.1704  1.1573
 5911TIP3   OH239367   2.015   0.731   1.902 -0.6524 -0.7553  0.4812
 5911TIP3    H139368   1.930   0.759   1.868 -0.2415 -0.5671 -0.4102
 5911TIP3    H239369   2.031   0.791   1.976 -0.3411  0.6253 -0.6562
 5912TIP3   OH239370   2.637   1.937   1.531 -0.3366  0.1969  0.2835
 5912TIP3    H139371   2.718   1.924   1.581 -2.2577 -1.1030  3.3143
 5912TIP3    H239372   2.628   2.032   1.527  2.0888  0.4668 -1.6336
 5913TIP3   OH239373   6.296   2.866   8.336  0.2116  0.3101 -0.1334
 5913TIP3    H139374   6.232   2.908   8.394  0.9751  1.9151 -0.3866
 5913TIP3    H239375   6.350   2.814   8.395 -1.5160 -1.4177  0.0363
 5914TIP3   OH239376   3.990   3.999   1.765  0.1402 -0.6395  0.1581
 5914TIP3    H139377   3.900   4.032   1.775  0.1678  0.3741 -2.3139
 5914TIP3    H239378   3.983   3.931   1.698  1.3377 -0.0222 -0.6102
 5915TIP3   OH239379   4.920   2.663   7.497  0.0335  0.4907  0.0246
 5915TIP3    H139380   4.832   2.643   7.531  0.0172 -0.2887 -0.4349
 5915TIP3    H239381   4.904   2.720   7.422 -0.3006 -1.5778 -1.5763
 5916TIP3   OH239382   3.069   6.379   7.119  0.2529  0.0475 -0.4942
 5916TIP3    H139383   3.127   6.446   7.082 -1.7483  2.1735  0.0414
 5916TIP3    H239384   3.027   6.339   7.042 -0.5441  1.3152 -0.7374
 5917TIP3   OH239385   3.808   4.140   7.653 -0.0040  0.2593 -0.1431
 5917TIP3    H139386   3.886   4.195   7.649  0.1337  0.2295  1.3580
 5917TIP3    H239387   3.817   4.079   7.580  0.4263  1.4547 -1.1110
 5918TIP3   OH239388   2.423   0.460   6.824  0.1976 -0.0404  0.1376
 5918TIP3    H139389   2.464   0.546   6.837  0.5955 -0.3038  0.6580
 5918TIP3    H239390   2.497   0.401   6.811 -0.0053 -0.5608  1.3058
 5919TIP3   OH239391   4.471   6.392   0.369  0.2224  0.3427  0.5507
 5919TIP3    H139392   4.426   6.475   0.352  0.6457  0.4639 -0.0450
 5919TIP3    H239393   4.563   6.417   0.380 -0.0526  0.3542  3.7773
 5920TIP3   OH239394   0.246   4.063   0.432 -0.5497  0.3736 -0.1467
 5920TIP3    H139395   0.185   4.059   0.506 -0.4149  1.4657  0.0279
 5920TIP3    H239396   0.271   4.155   0.425  2.1612 -0.2114  0.6744
 5921TIP3   OH239397   1.147   0.504   0.616 -0.2606 -0.0409 -0.2155
 5921TIP3    H139398   1.168   0.413   0.634 -0.4445  0.0734  0.6210
 5921TIP3    H239399   1.230   0.545   0.593  0.1866  0.0142  1.3531
 5922TIP3   OH239400   3.917   5.600   8.149 -0.1310 -0.5538 -0.2345
 5922TIP3    H139401   3.968   5.540   8.096  1.0956 -0.5746  0.9109
 5922TIP3    H239402   3.827   5.568   8.142  0.3306 -1.8530 -0.5131
 5923TIP3   OH239403   6.831   0.986   7.005  0.2404  0.1092 -0.6930
 5923TIP3    H139404   6.899   0.924   7.031 -0.6637  0.0599  1.8133
 5923TIP3    H239405   6.869   1.072   7.022  0.0690  0.1079 -0.2827
 5924TIP3   OH239406   6.267   6.170   8.349 -0.1777  0.3511  0.1543
 5924TIP3    H139407   6.281   6.177   8.255 -1.5061 -0.0698 -0.0989
 5924TIP3    H239408   6.188   6.222   8.366 -0.6282 -0.5141  0.8274
 5925TIP3   OH239409   3.973   5.618   0.599  0.6125  0.0630 -0.1057
 5925TIP3    H139410   3.911   5.576   0.658  2.3332 -0.2812  1.5575
 5925TIP3    H239411   4.020   5.546   0.557 -1.0079  0.2720 -2.5260
 5926TIP3   OH239412   6.678   2.198   2.135  0.0688 -0.1494  0.1892
 5926TIP3    H139413   6.670   2.292   2.148  0.2502 -0.0614 -0.3127
 5926TIP3    H239414   6.736   2.189   2.059  1.0848 -0.6892  0.9987
 5927TIP3   OH239415   0.594   4.337   0.134  0.0489  0.0242 -0.9010
 5927TIP3    H139416   0.643   4.275   0.079 -1.2498 -0.9451 -1.0381
 5927TIP3    H239417   0.561   4.284   0.207  0.0883  0.8687 -0.2537
 5928TIP3   OH239418   3.221   2.324   8.146 -0.0310  0.1211 -0.6249
 5928TIP3    H139419   3.141   2.289   8.106 -0.0015 -1.1239  0.3434
 5928TIP3    H239420   3.244   2.260   8.213  1.9297  0.3210 -1.0451
 5929TIP3   OH239421   6.461   5.779   1.908 -0.6228 -0.6155 -0.1103
 5929TIP3    H139422   6.511   5.735   1.840 -2.0685 -0.0241 -1.6422
 5929TIP3    H239423   6.397   5.714   1.937  0.0448 -0.8974  0.8043
 5930TIP3   OH239424   4.719   1.876   1.156 -0.0896 -0.2048 -0.2947
 5930TIP3    H139425   4.678   1.945   1.105 -2.0742  0.5064  2.1032
 5930TIP3    H239426   4.690   1.795   1.114 -0.8351  0.3537 -0.8791
 5931TIP3   OH239427   4.243   1.854   1.235 -0.3512  0.0320  0.1858
 5931TIP3    H139428   4.259   1.759   1.229  1.1467  0.3226 -1.1739
 5931TIP3    H239429   4.173   1.871   1.172 -0.6409 -0.1672  0.4513
 5932TIP3   OH239430   4.853   0.539   1.693 -0.2041 -0.5657  0.0137
 5932TIP3    H139431   4.885   0.603   1.757  0.7990 -2.2260  1.2400
 5932TIP3    H239432   4.878   0.575   1.608 -0.8804  1.3120  0.5444
 5933TIP3   OH239433   6.824   2.984   1.646 -0.4266 -0.6962  0.5200
 5933TIP3    H139434   6.913   2.967   1.679 -0.5464 -0.4546  0.9737
 5933TIP3    H239435   6.836   3.048   1.576 -0.3433  0.1911  1.3215
 5934TIP3   OH239436   1.789   4.383   8.638 -0.2040  0.0589  0.0135
 5934TIP3    H139437   1.772   4.477   8.631 -0.6257 -0.0125  0.0698
 5934TIP3    H239438   1.725   4.351   8.701  0.9255 -0.0022  1.1779
 5935TIP3   OH239439   0.553   1.175   0.920  0.5070 -0.2832  0.4177
 5935TIP3    H139440   0.520   1.115   0.987  0.0096 -0.1469  0.3015
 5935TIP3    H239441   0.622   1.126   0.876 -0.5906 -1.1853 -0.3609
 5936TIP3   OH239442   2.483   2.894   1.423  0.4807 -0.6531  0.3882
 5936TIP3    H139443   2.572   2.861   1.439  1.0023  1.3108  1.9330
 5936TIP3    H239444   2.437   2.880   1.506 -0.6446 -1.5006 -0.3493
 5937TIP3   OH239445   0.395   0.966   2.178  0.3153  0.4748  0.5558
 5937TIP3    H139446   0.383   1.059   2.195  0.3379  0.7864 -0.9534
 5937TIP3    H239447   0.470   0.962   2.119  0.5074 -0.5324  0.8441
 5938TIP3   OH239448   2.993   5.170   7.042  0.0010  0.2699 -0.3021
 5938TIP3    H139449   3.053   5.096   7.037 -0.2321  0.0618 -0.0199
 5938TIP3    H239450   3.008   5.208   7.129  0.9500  1.2606 -0.8837
 5939TIP3   OH239451   2.408   4.474   7.734 -0.0528 -0.1270  0.0168
 5939TIP3    H139452   2.317   4.476   7.764 -0.1492 -1.9316 -0.0760
 5939TIP3    H239453   2.459   4.486   7.814 -0.3218  2.4839 -0.1135
 5940TIP3   OH239454   3.360   6.070   6.877 -0.1790 -0.2898  0.4360
 5940TIP3    H139455   3.265   6.079   6.885 -0.2472 -0.9939  0.4895
 5940TIP3    H239456   3.375   6.040   6.788 -0.0418 -0.6355  0.5734
 5941TIP3   OH239457   0.471   2.574   0.431 -0.0105  0.3685  0.5188
 5941TIP3    H139458   0.417   2.649   0.456 -2.8204 -1.6890  1.1629
 5941TIP3    H239459   0.462   2.569   0.336  0.3303  0.9147  0.4516
 5942TIP3   OH239460   1.957   1.634   7.556 -0.0975 -0.0452 -0.0093
 5942TIP3    H139461   1.874   1.628   7.509 -0.2973  0.9694  0.1923
 5942TIP3    H239462   1.995   1.717   7.528 -0.3756  0.7550  1.8257
 5943TIP3   OH239463   3.870   2.518   2.398 -0.4705 -0.4211  0.0660
 5943TIP3    H139464   3.957   2.549   2.423 -0.8727  0.8471 -0.0347
 5943TIP3    H239465   3.870   2.425   2.420  1.2972 -0.7050 -1.0172
 5944TIP3   OH239466   6.463   3.518   7.661  0.2145 -0.2130 -0.1234
 5944TIP3    H139467   6.540   3.550   7.614  0.9897 -1.1110  0.4883
 5944TIP3    H239468   6.437   3.591   7.717  0.1524  0.3570 -0.8726
 5945TIP3   OH239469   3.515   3.873   7.827  0.1249  0.1149 -0.2223
 5945TIP3    H139470   3.561   3.818   7.764 -0.4410  0.7876 -1.2483
 5945TIP3    H239471   3.423   3.846   7.820  0.1149 -0.1249  0.6602
 5946TIP3   OH239472   0.855   0.817   2.024  0.1040 -0.4418 -0.2400
 5946TIP3    H139473   0.929   0.863   2.064 -0.6974 -0.0691  0.8503
 5946TIP3    H239474   0.878   0.724   2.029  0.2841 -0.3581  0.5433
 5947TIP3   OH239475   5.596   1.697   7.647 -0.2526  0.2807 -0.2656
 5947TIP3    H139476   5.601   1.792   7.642  1.4858  0.2575  0.2278
 5947TIP3    H239477   5.660   1.674   7.715 -1.6317 -1.1556  0.5928
 5948TIP3   OH239478   2.045   3.854   8.425 -0.3371  0.0221  0.3786
 5948TIP3    H139479   2.105   3.919   8.390  0.4419 -0.2546  1.1783
 5948TIP3    H239480   2.044   3.785   8.359  1.6960 -0.8376  1.1640
 5949TIP3   OH239481   2.291   5.087   1.324  0.2888  0.5334 -0.1139
 5949TIP3    H139482   2.332   5.107   1.241 -0.0935  0.8196 -0.2369
 5949TIP3    H239483   2.325   5.000   1.348  0.2489  0.3681 -0.6575
 5950TIP3   OH239484   1.785   1.004   7.902  0.7121 -0.2227  0.4831
 5950TIP3    H139485   1.870   1.038   7.932  0.7535 -1.3297  1.6913
 5950TIP3    H239486   1.793   0.909   7.909 -0.5667 -0.3514  0.4171
 5951TIP3   OH239487   1.362   4.390   1.667 -0.6779 -0.4939 -0.2903
 5951TIP3    H139488   1.434   4.431   1.714 -1.0244  1.0327 -1.0291
 5951TIP3    H239489   1.285   4.409   1.719 -0.8045 -0.4818 -0.4814
 5952TIP3   OH239490   3.024   4.120   8.627  0.1007  0.7066  0.0398
 5952TIP3    H139491   2.998   4.149   8.715 -0.1776  0.1730  0.1398
 5952TIP3    H239492   2.948   4.071   8.595  0.5406  0.1217 -0.1351
 5953TIP3   OH239493   0.895   3.420   1.196 -0.4532 -0.3539 -0.6335
 5953TIP3    H139494   0.842   3.412   1.275 -1.6100  1.4989 -1.1519
 5953TIP3    H239495   0.984   3.434   1.227 -0.5381 -1.6905  0.2833
 5954TIP3   OH239496   6.325   0.009   7.949  0.1332  0.6305 -0.3823
 5954TIP3    H139497   6.247   0.016   8.004 -0.0006  0.6452 -0.5735
 5954TIP3    H239498   6.394   0.052   8.000  0.5379 -1.2347  0.7540
 5955TIP3   OH239499   5.607   6.675   0.522 -0.5452  0.1981  0.1913
 5955TIP3    H139500   5.516   6.656   0.543  0.0514 -1.7119  1.3006
 5955TIP3    H239501   5.651   6.677   0.607  0.7407 -0.7202 -0.4180
 5956TIP3   OH239502   2.553   4.991   7.246 -0.3423  0.1217 -0.1691
 5956TIP3    H139503   2.505   5.052   7.302  0.1545 -1.3512  1.9401
 5956TIP3    H239504   2.631   5.040   7.221  0.3046  0.2451  1.9059
 5957TIP3   OH239505   4.151   2.482   2.171  0.1736  0.2653  0.4395
 5957TIP3    H139506   4.172   2.573   2.189  0.7178  0.3289 -0.4490
 5957TIP3    H239507   4.206   2.431   2.230  1.8370  0.4630 -0.8618
 5958TIP3   OH239508   0.721   6.557   8.337 -0.4556 -0.2560  0.0701
 5958TIP3    H139509   0.741   6.498   8.410  0.6508 -0.1696 -0.1450
 5958TIP3    H239510   0.791   6.541   8.273 -1.8466 -0.9242 -1.3557
 5959TIP3   OH239511   2.012   6.300   1.305 -0.0947  0.1417  0.3401
 5959TIP3    H139512   1.962   6.229   1.344  0.1195 -0.0402  0.2823
 5959TIP3    H239513   2.064   6.259   1.236 -1.8121  0.7343 -1.3800
 5960TIP3   OH239514   2.614   2.215   1.564 -0.3985 -0.7943 -0.2248
 5960TIP3    H139515   2.533   2.242   1.608 -0.2787 -0.7606 -0.0274
 5960TIP3    H239516   2.651   2.296   1.530  0.3631 -0.5926  1.0348
 5961TIP3   OH239517   0.027   4.861   0.373  0.0101  0.2756  0.0604
 5961TIP3    H139518   0.050   4.841   0.283 -3.9021 -2.0401 -0.6462
 5961TIP3    H239519   0.037   4.778   0.420 -1.3275  0.5795  0.9331
 5962TIP3   OH239520   4.883   2.050   1.921 -0.1958  0.5264  0.0199
 5962TIP3    H139521   4.824   2.033   1.847 -1.0284 -0.1705  0.8136
 5962TIP3    H239522   4.824   2.061   1.996  0.5554  2.4505  0.3890
 5963TIP3   OH239523   3.872   4.339   0.538 -0.1336  1.0659 -0.5072
 5963TIP3    H139524   3.951   4.386   0.565  1.8247 -1.5878 -1.1271
 5963TIP3    H239525   3.862   4.269   0.603 -1.1240  0.4797 -1.2518
 5964TIP3   OH239526   1.690   2.063   2.132 -0.3638  0.0550  0.2800
 5964TIP3    H139527   1.708   2.139   2.187  0.6622  1.1893 -1.5057
 5964TIP3    H239528   1.697   1.988   2.191 -1.0891  1.2989  2.0313
 5965TIP3   OH239529   0.412   0.990   8.323  0.1095 -0.7714 -0.3306
 5965TIP3    H139530   0.335   0.945   8.358 -0.0067 -0.2770  0.0681
 5965TIP3    H239531   0.376   1.057   8.264  0.0963  0.7219  1.2764
 5966TIP3   OH239532   0.634   2.289   6.542  0.8087 -0.1711  0.0069
 5966TIP3    H139533   0.720   2.328   6.526  0.4776  0.7801  0.4584
 5966TIP3    H239534   0.643   2.242   6.625  0.8946 -0.0639  0.0579
 5967TIP3   OH239535   5.760   4.753   7.700 -0.3495 -0.3331  0.0136
 5967TIP3    H139536   5.713   4.830   7.733  0.1182 -0.3717  0.7872
 5967TIP3    H239537   5.707   4.723   7.626 -0.6080  0.6517 -0.2139
 5968TIP3   OH239538   6.559   6.825   8.772  0.4201 -0.0004  0.1393
 5968TIP3    H139539   6.501   6.751   8.754  0.0200  0.3422 -0.0108
 5968TIP3    H239540   6.645   6.786   8.787  0.3909 -0.4356 -0.7729
 5969TIP3   OH239541   0.417   1.903   0.668  0.1039  0.0103  0.6716
 5969TIP3    H139542   0.481   1.845   0.627  0.6601  0.5857  0.7093
 5969TIP3    H239543   0.470   1.962   0.723 -0.6567 -1.1093  2.6938
 5970TIP3   OH239544   3.831   2.059   7.857 -0.3303  0.2173  0.2514
 5970TIP3    H139545   3.815   1.965   7.851 -0.6725  0.3111 -0.3559
 5970TIP3    H239546   3.889   2.078   7.783  0.0854  0.4144  0.6204
 5971TIP3   OH239547   0.743   3.937   2.233 -0.1056  0.2537 -0.2161
 5971TIP3    H139548   0.690   3.881   2.175  1.0254 -1.5555  0.3951
 5971TIP3    H239549   0.828   3.894   2.235  0.7024  1.8254  0.6358
 5972TIP3   OH239550   3.051   5.709   0.683 -0.1144  0.0354 -0.3406
 5972TIP3    H139551   3.023   5.624   0.719 -0.2442 -0.9012 -2.5038
 5972TIP3    H239552   2.976   5.767   0.698  0.3223  0.0813  1.9945
 5973TIP3   OH239553   2.326   3.625   7.990 -0.0450 -0.0195 -0.2747
 5973TIP3    H139554   2.262   3.556   7.974  0.1307 -0.1546 -0.3820
 5973TIP3    H239555   2.382   3.591   8.059 -2.3896  1.5459  2.6771
 5974TIP3   OH239556   2.289   3.487   0.971 -0.0246  0.3412 -0.3562
 5974TIP3    H139557   2.296   3.552   1.041  1.3412  0.6882 -0.7751
 5974TIP3    H239558   2.373   3.493   0.925 -0.1911 -1.1569 -0.8979
 5975TIP3   OH239559   6.509   0.799   0.142 -0.0468 -0.1349  0.2696
 5975TIP3    H139560   6.444   0.845   0.089  1.9058  0.9601 -1.2757
 5975TIP3    H239561   6.523   0.716   0.096  0.5024  0.1435 -0.0727
 5976TIP3   OH239562   4.707   5.236   8.012 -0.0168 -0.9191  0.3550
 5976TIP3    H139563   4.640   5.190   8.063 -0.1750  0.7039  1.6835
 5976TIP3    H239564   4.695   5.204   7.923 -1.0874 -2.3228  0.9697
 5977TIP3   OH239565   2.858   4.421   7.766  0.5220  0.2892 -0.1253
 5977TIP3    H139566   2.929   4.430   7.702  0.8982  1.1253  0.3906
 5977TIP3    H239567   2.804   4.499   7.753 -0.2468 -0.2754 -0.4214
 5978TIP3   OH239568   3.972   0.465   7.669  0.3131 -0.2600  0.0604
 5978TIP3    H139569   4.038   0.487   7.604 -0.1045  0.2406 -0.2000
 5978TIP3    H239570   4.018   0.470   7.753  0.3344  1.2420 -0.0187
 5979TIP3   OH239571   2.770   2.795   1.422 -0.1063  0.3735  0.4267
 5979TIP3    H139572   2.802   2.712   1.388 -1.1912 -0.2338  0.8587
 5979TIP3    H239573   2.814   2.806   1.506 -0.4523 -0.0874  0.6698
 5980TIP3   OH239574   1.855   6.239   7.842 -0.0207 -0.0220  0.3163
 5980TIP3    H139575   1.948   6.223   7.823  0.5183 -0.4650  2.9553
 5980TIP3    H239576   1.831   6.172   7.906 -2.0830  0.3018 -0.0332
 5981TIP3   OH239577   2.214   3.428   7.794 -0.3541  0.0217 -0.0179
 5981TIP3    H139578   2.210   3.428   7.698 -1.0149 -0.6478  0.0011
 5981TIP3    H239579   2.282   3.364   7.815  0.6377  1.0349 -0.0505
 5982TIP3   OH239580   4.604   4.738   6.398  0.2184 -0.7286 -0.6831
 5982TIP3    H139581   4.549   4.708   6.326  0.1807 -0.0334 -0.9515
 5982TIP3    H239582   4.680   4.681   6.396 -0.4107 -1.5906 -0.4176
 5983TIP3   OH239583   0.071   6.061   0.303  0.0289 -0.0172 -0.4154
 5983TIP3    H139584   0.023   5.978   0.297 -0.4974  0.3031 -0.7115
 5983TIP3    H239585   0.011   6.126   0.268  0.6543  0.4090 -0.7113
 5984TIP3   OH239586   6.312   1.941   7.231 -0.0446  0.2069  0.3386
 5984TIP3    H139587   6.268   1.938   7.315 -1.2699  0.1136 -0.2923
 5984TIP3    H239588   6.249   1.906   7.168  0.9673 -0.0586 -0.5791
 5985TIP3   OH239589   6.268   5.477   1.537  0.2237 -0.0885  0.3814
 5985TIP3    H139590   6.211   5.417   1.585  0.1768  0.6365  1.2623
 5985TIP3    H239591   6.332   5.507   1.602  1.3277 -0.5253 -0.4739
 5986TIP3   OH239592   6.457   4.914   0.677 -0.6440  0.3814  0.3105
 5986TIP3    H139593   6.369   4.951   0.686 -0.6180  0.0818  2.1003
 5986TIP3    H239594   6.500   4.971   0.614 -2.0592  0.6349 -0.4812
 5987TIP3   OH239595   3.550   6.494   6.325 -0.2740  0.0842  0.0587
 5987TIP3    H139596   3.559   6.589   6.323 -0.2138  0.0721 -0.2745
 5987TIP3    H239597   3.568   6.466   6.235  1.7547 -0.4290  0.5662
 5988TIP3   OH239598   2.931   1.601   7.457  0.0676 -0.2664 -0.2824
 5988TIP3    H139599   2.979   1.665   7.404 -0.1134 -0.1329 -0.2868
 5988TIP3    H239600   2.936   1.520   7.407 -0.6772  0.0158 -0.8429
 5989TIP3   OH239601   6.043   5.309   2.115  0.2457  0.2368 -0.2700
 5989TIP3    H139602   6.137   5.299   2.132  0.1811 -0.1472 -0.1302
 5989TIP3    H239603   6.010   5.355   2.192 -0.1311 -1.9284  0.9307
 5990TIP3   OH239604   5.444   4.743   1.252 -0.1532  0.0905 -0.6882
 5990TIP3    H139605   5.428   4.774   1.341  0.8807 -0.7825 -0.1855
 5990TIP3    H239606   5.361   4.702   1.226  0.0197 -1.0621  0.4745
 5991TIP3   OH239607   1.544   6.400   1.018 -0.9756  0.1682 -0.8504
 5991TIP3    H139608   1.543   6.336   0.946  0.6261 -2.8252  1.5294
 5991TIP3    H239609   1.637   6.419   1.031 -1.2603  0.8057  0.3068
 5992TIP3   OH239610   5.079   6.191   7.231  0.0342  0.3062 -0.3414
 5992TIP3    H139611   5.148   6.127   7.214 -0.3534 -0.3917  0.6240
 5992TIP3    H239612   5.015   6.143   7.284 -1.3162  0.8599 -1.3989
 5993TIP3   OH239613   2.771   3.470   8.064  0.0141 -0.6324 -0.2673
 5993TIP3    H139614   2.772   3.427   7.979  1.2523 -2.4841  0.5994
 5993TIP3    H239615   2.682   3.457   8.097 -0.7131  0.7919 -1.5426
 5994TIP3   OH239616   6.653   0.542   2.395 -0.1767 -0.2814 -0.6248
 5994TIP3    H139617   6.598   0.481   2.346 -0.9110 -1.3970  1.4313
 5994TIP3    H239618   6.739   0.537   2.354 -0.6428 -1.4969 -1.4849
 5995TIP3   OH239619   1.518   0.137   1.638  0.0893 -0.8963 -0.1650
 5995TIP3    H139620   1.449   0.183   1.686 -0.3414 -1.0743 -0.6041
 5995TIP3    H239621   1.476   0.057   1.606 -0.3653  0.3016 -2.8663
 5996TIP3   OH239622   1.489   5.433   6.852  0.1863 -0.7631  0.3247
 5996TIP3    H139623   1.466   5.413   6.761  1.1049 -1.2460  0.1825
 5996TIP3    H239624   1.549   5.508   6.845 -0.7425  0.0321  0.6357
 5997TIP3   OH239625   4.266   3.656   0.558 -0.1360 -0.1631 -0.2502
 5997TIP3    H139626   4.195   3.675   0.620 -0.2123  0.2059 -0.4483
 5997TIP3    H239627   4.339   3.627   0.613 -0.5753 -0.9741 -0.0732
 5998TIP3   OH239628   0.332   2.837   2.055 -0.2828 -0.5252  0.0102
 5998TIP3    H139629   0.399   2.886   2.006 -0.8058 -1.3914 -1.6475
 5998TIP3    H239630   0.383   2.776   2.109  0.3242  0.8351  1.0375
 5999TIP3   OH239631   1.436   1.388   8.089  0.4146 -0.0760  0.3553
 5999TIP3    H139632   1.381   1.397   8.012  1.3397 -2.3622 -0.6889
 5999TIP3    H239633   1.525   1.401   8.056  0.6781  1.3567  1.5576
 6000TIP3   OH239634   2.729   3.561   1.227  0.1252  0.6471 -0.0878
 6000TIP3    H139635   2.726   3.650   1.190 -1.8614  0.4891 -0.4263
 6000TIP3    H239636   2.756   3.574   1.318 -0.5885  1.6857  0.0021
 6001TIP3   OH239637   0.039   4.136   1.289 -0.4727  0.6822  0.7081
 6001TIP3    H139638   0.101   4.182   1.345 -1.0739  1.2656  0.9029
 6001TIP3    H239639  -0.031   4.199   1.272  0.3544  1.0077 -1.8645
 6002TIP3   OH239640   2.419   0.922   7.153 -0.1236  0.3481 -0.1245
 6002TIP3    H139641   2.456   0.834   7.166 -0.2197  0.5499  1.7959
 6002TIP3    H239642   2.486   0.968   7.103 -0.1199 -0.8394 -1.2746
 6003TIP3   OH239643   2.227   5.405   0.416 -0.1508  0.8772  0.8455
 6003TIP3    H139644   2.232   5.498   0.440 -0.4197  0.9481  0.6252
 6003TIP3    H239645   2.220   5.360   0.500 -0.0143  1.0553  0.9544
 6004TIP3   OH239646   6.120   1.042   1.230  0.6805 -0.1255  0.3887
 6004TIP3    H139647   6.163   1.106   1.287  0.9245 -0.3122  0.4165
 6004TIP3    H239648   6.193   0.995   1.189  0.4987 -0.5640  0.5667
 6005TIP3   OH239649   4.067   5.960   0.117 -0.3919  0.5083 -0.3553
 6005TIP3    H139650   3.996   5.923   0.169  0.5291  0.5539  1.0006
 6005TIP3    H239651   4.025   6.023   0.059 -1.3124  1.7280  1.5388
 6006TIP3   OH239652   1.498   1.085   2.491 -0.3041 -0.3624  0.2049
 6006TIP3    H139653   1.509   1.129   2.406  1.4420 -0.9117  0.1183
 6006TIP3    H239654   1.406   1.056   2.490 -0.1106 -1.1480 -1.9129
 6007TIP3   OH239655   4.674   5.473   6.739 -0.4371 -0.0702 -0.0333
 6007TIP3    H139656   4.639   5.412   6.674 -0.4880  1.0868 -1.1255
 6007TIP3    H239657   4.666   5.559   6.699  1.4495  0.4845  0.6570
 6008TIP3   OH239658   1.315   4.008   7.818 -0.1998 -0.0643 -0.0957
 6008TIP3    H139659   1.295   3.919   7.788 -0.9578  0.2969 -0.6993
 6008TIP3    H239660   1.411   4.010   7.824 -0.1630 -0.8530 -0.2850
 6009TIP3   OH239661   6.160   5.502   7.526 -0.2125 -0.4948 -0.7275
 6009TIP3    H139662   6.225   5.449   7.479 -1.0115 -2.4101  0.2065
 6009TIP3    H239663   6.138   5.450   7.603 -0.1580  1.7860  0.9364
 6010TIP3   OH239664   4.331   1.486   1.717  0.1998  0.2095  0.2226
 6010TIP3    H139665   4.344   1.522   1.629  0.2358  1.1608  0.6099
 6010TIP3    H239666   4.398   1.418   1.725  1.5897  1.5242  0.2590
 6011TIP3   OH239667   4.497   1.674   2.358  0.2276  0.0308 -0.0607
 6011TIP3    H139668   4.543   1.746   2.316  1.1602 -0.3826  0.2301
 6011TIP3    H239669   4.565   1.625   2.405 -0.9222  1.3731  3.2979
 6012TIP3   OH239670   5.224   5.425   6.439  0.4172 -0.2642  0.1752
 6012TIP3    H139671   5.175   5.461   6.365  0.2124 -0.5722  0.1600
 6012TIP3    H239672   5.157   5.405   6.505  0.0761 -3.5799 -0.9759
 6013TIP3   OH239673   2.414   0.355   0.810  0.5627 -0.0693 -0.3461
 6013TIP3    H139674   2.448   0.308   0.887  0.1835  0.6696  0.2786
 6013TIP3    H239675   2.400   0.444   0.841  1.3056  0.4735 -1.5373
 6014TIP3   OH239676   5.224   2.312   7.242  0.5399  0.1303 -0.3566
 6014TIP3    H139677   5.236   2.228   7.287  0.5495 -0.2539 -1.0738
 6014TIP3    H239678   5.203   2.373   7.313  1.5209 -0.2617  0.2962
 6015TIP3   OH239679   0.694   6.700   7.720  0.3257  0.2927 -0.2607
 6015TIP3    H139680   0.657   6.785   7.744 -2.1962  0.0272 -2.7779
 6015TIP3    H239681   0.788   6.717   7.712  0.0494  2.5079  0.5063
 6016TIP3   OH239682   2.644   3.072   8.183  0.0119 -0.6594  0.6371
 6016TIP3    H139683   2.571   3.110   8.233 -0.3300 -0.1513 -0.2348
 6016TIP3    H239684   2.698   3.147   8.160  0.9771 -1.0616  1.5021
 6017TIP3   OH239685   2.136   3.405   7.531 -0.0643 -0.0230  0.0829
 6017TIP3    H139686   2.189   3.441   7.460  1.5326 -0.8741  0.7675
 6017TIP3    H239687   2.172   3.317   7.545  1.5921  1.0418  3.7124
 6018TIP3   OH239688   5.216   1.122   8.835  0.1724  0.3716 -0.2341
 6018TIP3    H139689   5.132   1.128   8.881  1.3019  0.6000  1.9057
 6018TIP3    H239690   5.223   1.029   8.812 -0.3564  0.2104  0.2148
 6019TIP3   OH239691   4.714   0.981   1.154  0.3654 -0.3314  0.0264
 6019TIP3    H139692   4.650   1.032   1.104 -0.2678 -1.4578 -0.3426
 6019TIP3    H239693   4.698   0.890   1.128  0.0742 -0.9670  2.1803
 6020TIP3   OH239694   0.850   3.750   1.150 -0.3494  0.2437 -0.5219
 6020TIP3    H139695   0.805   3.833   1.137  0.5631  1.1795  1.7150
 6020TIP3    H239696   0.943   3.773   1.145 -0.0858 -0.7004 -0.1364
 6021TIP3   OH239697   0.685   1.245   0.011 -0.4067  0.3871 -0.6864
 6021TIP3    H139698   0.649   1.205   0.090  0.3742 -1.6119 -1.2763
 6021TIP3    H239699   0.773   1.273   0.035  0.0304 -0.7016 -0.9405
 6022TIP3   OH239700   5.818   0.652   7.389  0.1724  0.0065 -0.0221
 6022TIP3    H139701   5.801   0.655   7.483  1.4688  1.8352  0.2275
 6022TIP3    H239702   5.734   0.630   7.349 -0.9337  1.2887  1.4770
 6023TIP3   OH239703   0.002   4.448   0.173 -0.1873 -0.1758  0.4873
 6023TIP3    H139704  -0.034   4.387   0.108  0.9667  0.6782 -1.0234
 6023TIP3    H239705   0.095   4.455   0.151 -0.3037  2.2111  0.5158
 6024TIP3   OH239706   4.398   1.016   1.097 -0.0225  0.2833  0.3754
 6024TIP3    H139707   4.316   1.060   1.074 -0.6481 -1.9670 -2.1985
 6024TIP3    H239708   4.454   1.028   1.021  1.0133 -0.5590  0.9825
 6025TIP3   OH239709   3.008   5.434   0.749  0.0823 -0.4780  0.2347
 6025TIP3    H139710   2.991   5.387   0.667 -0.4655  0.3885 -0.1660
 6025TIP3    H239711   2.946   5.395   0.812 -1.6850  0.9133 -0.5658
 6026TIP3   OH239712   6.154   3.788   1.224  0.1439 -0.2006 -0.0480
 6026TIP3    H139713   6.222   3.852   1.245 -0.0028 -0.1421  0.2495
 6026TIP3    H239714   6.199   3.704   1.228  0.0778 -0.2082  0.6976
 6027TIP3   OH239715   0.537   2.179   2.114 -0.1583 -0.6162 -0.5546
 6027TIP3    H139716   0.477   2.180   2.189 -0.0473 -0.2296 -0.4662
 6027TIP3    H239717   0.564   2.270   2.104  1.7473 -1.0029  0.5019
 6028TIP3   OH239718   3.780   4.552   8.501  0.3306 -0.0660  0.0287
 6028TIP3    H139719   3.728   4.620   8.457 -0.8985 -0.5657  0.6716
 6028TIP3    H239720   3.741   4.470   8.470  0.5742 -0.4420  0.7238
 6029TIP3   OH239721   5.282   1.401   0.814 -0.1399  0.0251  0.4825
 6029TIP3    H139722   5.205   1.370   0.765  1.3691 -1.0526 -1.3574
 6029TIP3    H239723   5.289   1.493   0.791  0.1509 -0.3099 -0.8853
 6030TIP3   OH239724   5.419   2.819   7.614  0.4273  0.2545 -0.3510
 6030TIP3    H139725   5.502   2.845   7.654  0.0214  1.7458 -0.4348
 6030TIP3    H239726   5.379   2.901   7.585 -1.4870 -0.3261  0.4680
 6031TIP3   OH239727   2.051   2.005   7.851 -0.6375 -0.5018  0.6786
 6031TIP3    H139728   1.968   1.983   7.809  0.2228  0.5824 -1.8564
 6031TIP3    H239729   2.075   1.927   7.901 -1.5266 -2.2039 -1.3767
 6032TIP3   OH239730   5.629   4.026   8.364  0.4361 -0.3558  0.2085
 6032TIP3    H139731   5.549   3.973   8.369 -0.3199  0.6484 -0.6571
 6032TIP3    H239732   5.676   4.008   8.445  0.3191 -2.5070 -0.1639
 6033TIP3   OH239733   1.552   6.631   7.038  0.5830 -0.1465  0.0186
 6033TIP3    H139734   1.516   6.561   6.982  2.1134 -0.4064 -0.6965
 6033TIP3    H239735   1.483   6.649   7.101 -0.7406 -0.7086 -1.2059
 6034TIP3   OH239736   5.462   1.010   0.732 -0.0305  0.0705  0.5536
 6034TIP3    H139737   5.466   0.985   0.825 -1.6109  0.5434  0.7726
 6034TIP3    H239738   5.423   0.934   0.689 -0.9023  0.5065  0.5591
 6035TIP3   OH239739   6.189   5.121   8.455  0.4266 -1.2333 -0.2500
 6035TIP3    H139740   6.247   5.063   8.406  0.3655  0.3666 -2.3170
 6035TIP3    H239741   6.236   5.137   8.537  2.5493 -0.6644 -1.4925
 6036TIP3   OH239742   5.460   3.695   8.463 -0.3980 -0.0529 -0.1200
 6036TIP3    H139743   5.404   3.621   8.486 -1.5511  0.4303 -1.2580
 6036TIP3    H239744   5.473   3.687   8.369  0.4551  0.5478 -0.0697
 6037TIP3   OH239745   1.915   0.341   2.234  0.3022 -0.6116  0.5233
 6037TIP3    H139746   1.884   0.274   2.295  0.2551  0.0030  1.1873
 6037TIP3    H239747   1.839   0.361   2.179  0.6518 -1.9920 -0.5298
 6038TIP3   OH239748   4.339   5.149   7.237  0.2286  0.0603  0.0907
 6038TIP3    H139749   4.425   5.144   7.279 -0.1646  0.4942  0.9740
 6038TIP3    H239750   4.355   5.127   7.146  1.1277 -0.7650  0.4432
 6039TIP3   OH239751   2.835   5.438   8.822  0.6330  0.1248 -0.4450
 6039TIP3    H139752   2.895   5.386   8.875  0.9363 -0.0395 -0.9481
 6039TIP3    H239753   2.858   5.529   8.841  0.1717  0.0937  0.3558
 6040TIP3   OH239754   4.399   0.419   0.505  1.0256  0.5812 -0.4388
 6040TIP3    H139755   4.308   0.391   0.491  0.8822  1.4743 -1.4044
 6040TIP3    H239756   4.431   0.362   0.574 -0.7029  1.1178  0.8874
 6041TIP3   OH239757   4.966   5.407   1.451 -0.2150 -0.3328 -0.0949
 6041TIP3    H139758   4.953   5.447   1.364 -1.4492 -1.4316 -0.4401
 6041TIP3    H239759   4.885   5.358   1.467  0.5506 -1.2404  1.0955
 6042TIP3   OH239760   0.576   4.003   7.168 -0.2484  0.6424 -0.1013
 6042TIP3    H139761   0.532   3.944   7.107  1.0689 -0.0989 -0.3764
 6042TIP3    H239762   0.553   3.971   7.254  0.2681 -0.1650 -0.2491
 6043TIP3   OH239763   2.329   2.882   1.646  0.3340 -0.3152 -0.1471
 6043TIP3    H139764   2.398   2.852   1.705  0.4714  1.2396  0.5168
 6043TIP3    H239765   2.249   2.876   1.697  0.3652  0.4167  0.0037
 6044TIP3   OH239766   6.167   6.416   1.908 -0.5413  0.4070  0.1421
 6044TIP3    H139767   6.108   6.433   1.981  0.4831  2.3339  0.5910
 6044TIP3    H239768   6.254   6.441   1.940  0.3589 -1.2568 -0.8747
 6045TIP3   OH239769   0.571   3.977   0.584 -0.5247  0.0113 -0.3827
 6045TIP3    H139770   0.627   3.907   0.550 -1.7933 -1.3719  0.2416
 6045TIP3    H239771   0.494   3.931   0.619 -0.4323  1.5470  2.0608
 6046TIP3   OH239772   4.086   3.859   2.638  0.0326  0.1333 -0.1136
 6046TIP3    H139773   4.095   3.922   2.566 -0.2232  1.7245  1.1910
 6046TIP3    H239774   4.024   3.900   2.698  1.0749 -0.6407  1.5600
 6047TIP3   OH239775   1.002   0.383   8.431  0.2285 -0.2084  0.0034
 6047TIP3    H139776   1.097   0.393   8.426  0.5807 -3.2276 -1.3076
 6047TIP3    H239777   0.968   0.444   8.366  1.4706 -0.7822 -1.2237
 6048TIP3   OH239778   4.948   0.293   1.041  0.5055 -0.0125  0.0817
 6048TIP3    H139779   4.858   0.261   1.048  0.5784 -0.0837  0.7361
 6048TIP3    H239780   4.999   0.216   1.018  0.3899  0.0524 -0.4217
 6049TIP3   OH239781   5.180   2.649   8.661  0.2587  0.5831  0.1857
 6049TIP3    H139782   5.211   2.620   8.575  2.0713  0.5742  0.7871
 6049TIP3    H239783   5.144   2.571   8.702  0.2980  0.3667 -0.1947
 6050TIP3   OH239784   6.743   0.259   8.013 -0.0057  0.3116 -0.2901
 6050TIP3    H139785   6.812   0.216   7.964  0.6940 -0.0138  0.9415
 6050TIP3    H239786   6.763   0.353   8.006  0.7203  0.2075  0.2592
 6051TIP3   OH239787   0.009   3.774   0.093  0.3727  0.1327  0.2604
 6051TIP3    H139788  -0.034   3.740   0.171 -1.0626 -0.2119 -0.6372
 6051TIP3    H239789  -0.039   3.735   0.020  1.2281  0.9886 -0.8044
 6052TIP3   OH239790   4.208   4.394   8.478 -0.0854 -0.5425  0.6556
 6052TIP3    H139791   4.219   4.442   8.561 -0.2728  0.8258 -0.0822
 6052TIP3    H239792   4.121   4.420   8.448 -0.4188 -1.7901  0.4843
 6053TIP3   OH239793   1.494   3.841   0.436 -0.0824  0.0335 -0.7749
 6053TIP3    H139794   1.435   3.917   0.435 -0.7723 -0.4833 -0.0628
 6053TIP3    H239795   1.472   3.794   0.516 -1.9572 -2.7059 -2.7062
 6054TIP3   OH239796   2.717   6.323   1.781  0.2259  0.1382  0.0240
 6054TIP3    H139797   2.721   6.386   1.853 -1.7062 -0.0341  0.3211
 6054TIP3    H239798   2.737   6.239   1.822  1.9758  0.3937 -0.2194
 6055TIP3   OH239799   1.208   2.744   2.222  0.3412  0.1527  0.2428
 6055TIP3    H139800   1.280   2.807   2.216  1.6661 -1.3718 -1.1590
 6055TIP3    H239801   1.251   2.659   2.221 -1.4580 -0.8096  0.4537
 6056TIP3   OH239802   3.914   4.222   8.009  0.2761 -0.0580  0.1731
 6056TIP3    H139803   3.836   4.180   7.971 -1.4105  2.2578  0.8188
 6056TIP3    H239804   3.917   4.308   7.967  1.6639  0.4315  1.2171
 6057TIP3   OH239805   4.217   4.167   0.281  0.5864  0.2325  0.5143
 6057TIP3    H139806   4.182   4.116   0.354 -0.2964  1.6373  1.1174
 6057TIP3    H239807   4.147   4.167   0.216  0.4094  1.0169  0.6989
 6058TIP3   OH239808   5.037   2.553   7.269  0.6490 -0.2181  0.0131
 6058TIP3    H139809   5.002   2.559   7.358  2.2168  2.3660  0.5790
 6058TIP3    H239810   5.037   2.644   7.237 -1.3364 -1.2230 -3.3058
 6059TIP3   OH239811   1.683   6.080   0.143 -0.2116  0.3801  0.2253
 6059TIP3    H139812   1.623   6.065   0.070  1.9314  2.9168 -2.2859
 6059TIP3    H239813   1.755   6.018   0.128  0.2152  0.8773  0.1733
 6060TIP3   OH239814   0.085   1.146   6.598 -0.3242 -0.2211  0.9131
 6060TIP3    H139815   0.001   1.186   6.620 -0.1531 -1.5473  4.7366
 6060TIP3    H239816   0.062   1.065   6.552 -1.1351 -0.1984  1.2602
 6061TIP3   OH239817   3.388   0.697   1.688  0.5539  0.1600  0.0222
 6061TIP3    H139818   3.392   0.642   1.610  1.1661  0.7299 -0.3633
 6061TIP3    H239819   3.374   0.785   1.653  0.4414  0.3645  0.5803
 6062TIP3   OH239820   4.011   2.455   8.033  0.1395 -0.4414 -0.1664
 6062TIP3    H139821   3.934   2.509   8.054  0.7075  1.7251 -3.0657
 6062TIP3    H239822   3.991   2.418   7.947  0.9204 -2.8282  0.6081
 6063TIP3   OH239823   5.664   5.666   8.340 -0.5217  0.3405  0.1801
 6063TIP3    H139824   5.713   5.595   8.381  0.3116  1.5311  1.3478
 6063TIP3    H239825   5.716   5.691   8.264 -0.7290 -0.1788 -0.1333
 6064TIP3   OH239826   1.029   1.332   0.912 -0.3065  0.5485  0.5121
 6064TIP3    H139827   1.013   1.319   0.818 -0.4323 -1.0852  0.7403
 6064TIP3    H239828   1.010   1.247   0.952  3.3222  0.0663  1.5543
 6065TIP3   OH239829   0.323   1.527   1.255 -0.9403  0.9265  0.3560
 6065TIP3    H139830   0.391   1.594   1.249 -0.2938  0.3886  1.3727
 6065TIP3    H239831   0.333   1.475   1.175 -0.3174  1.0090  0.3741
 6066TIP3   OH239832   2.427   1.939   0.709 -0.2346  0.2679 -0.0756
 6066TIP3    H139833   2.469   2.022   0.734  1.2902 -0.0358 -1.4125
 6066TIP3    H239834   2.499   1.876   0.705 -0.7627 -0.3051 -2.4110
 6067TIP3   OH239835   3.634   1.250   0.870  0.8080 -0.2847 -0.2055
 6067TIP3    H139836   3.605   1.191   0.939 -0.1334 -0.2085 -0.5154
 6067TIP3    H239837   3.569   1.320   0.869  1.3025  0.1822 -0.5750
 6068TIP3   OH239838   6.426   2.340   1.667 -0.5842  0.0130 -0.2685
 6068TIP3    H139839   6.456   2.252   1.644 -0.4344  0.3279 -1.3407
 6068TIP3    H239840   6.507   2.390   1.679 -0.6185  0.7384 -2.6637
 6069TIP3   OH239841   5.383   1.316   8.253  0.1785  0.3997 -0.0223
 6069TIP3    H139842   5.398   1.283   8.164 -2.7717  0.4559 -0.6373
 6069TIP3    H239843   5.413   1.407   8.250  2.0890 -0.1968 -0.2793
 6070TIP3   OH239844   6.542   3.888   7.974  0.0874 -0.2297 -0.0370
 6070TIP3    H139845   6.613   3.948   7.999  0.6181 -0.5545 -0.7366
 6070TIP3    H239846   6.474   3.945   7.939  0.2686  0.0342  0.0336
 6071TIP3   OH239847   4.606   2.087   8.026 -0.1035 -0.1107  0.0299
 6071TIP3    H139848   4.588   2.147   7.953  0.6967  1.0992  0.7792
 6071TIP3    H239849   4.530   2.095   8.083  1.0376  2.1850  1.3716
 6072TIP3   OH239850   5.296   4.419   1.503 -0.3047  0.0930 -0.0125
 6072TIP3    H139851   5.277   4.389   1.414 -0.6252  0.0088  0.0833
 6072TIP3    H239852   5.217   4.466   1.530  0.4087  1.5788 -0.3826
 6073TIP3   OH239853   5.177   2.196   8.020 -0.0590  0.2164 -0.4829
 6073TIP3    H139854   5.204   2.136   8.089  0.7908 -0.8998 -1.7220
 6073TIP3    H239855   5.082   2.182   8.012  0.0978 -0.8654 -0.6255
 6074TIP3   OH239856   2.363   1.095   6.791 -0.4995  0.1531  0.1060
 6074TIP3    H139857   2.310   1.087   6.712 -0.0604  0.6343 -0.2358
 6074TIP3    H239858   2.445   1.134   6.762 -0.5589  0.8918  0.8950
 6075TIP3   OH239859   6.528   2.200   8.027  0.0223  0.3152  0.8432
 6075TIP3    H139860   6.457   2.135   8.023  0.4682 -0.1662  0.5703
 6075TIP3    H239861   6.488   2.280   7.994 -0.8637  0.4985  2.2481
 6076TIP3   OH239862   3.234   3.817   7.855  0.0763  0.2021 -0.1443
 6076TIP3    H139863   3.227   3.879   7.783  1.6191 -0.8893 -1.3271
 6076TIP3    H239864   3.145   3.807   7.888 -0.3554  2.2081 -0.6161
 6077TIP3   OH239865   6.322   3.698   7.855  0.6585 -0.0884  0.0213
 6077TIP3    H139866   6.351   3.769   7.913  1.1303  1.2088 -1.6978
 6077TIP3    H239867   6.233   3.678   7.885  1.1114  0.1005  1.5644
 6078TIP3   OH239868   5.474   6.115   1.820 -0.4197 -0.5092 -0.3458
 6078TIP3    H139869   5.533   6.040   1.822  0.6112  0.2808  0.3237
 6078TIP3    H239870   5.431   6.114   1.906 -1.7958 -1.3564 -0.9979
 6079TIP3   OH239871   2.323   1.938   2.472 -0.2660 -0.0502 -0.0428
 6079TIP3    H139872   2.328   1.854   2.428  0.8585 -0.2071  0.3418
 6079TIP3    H239873   2.405   1.944   2.522 -0.8499  0.7489  0.8712
 6080TIP3   OH239874   4.847   3.482   8.818 -0.3119  0.4099  0.4900
 6080TIP3    H139875   4.839   3.532   8.736  2.1445 -0.6309 -0.4824
 6080TIP3    H239876   4.941   3.474   8.832 -0.6002 -2.5608  1.4353
 6081TIP3   OH239877   2.366   0.112   6.161  0.0153 -0.4507 -0.2610
 6081TIP3    H139878   2.270   0.108   6.163  0.0152  0.0213  0.8671
 6081TIP3    H239879   2.389   0.175   6.229  1.0508  0.9259 -1.8185
 6082TIP3   OH239880   4.170   6.524   8.000 -0.0255 -0.0428  0.5296
 6082TIP3    H139881   4.169   6.589   7.930  0.9256 -1.2447 -0.6588
 6082TIP3    H239882   4.078   6.503   8.014 -0.4216  2.0044  1.4296
 6083TIP3   OH239883   1.179   0.204   1.142 -0.7145  0.3268  0.5257
 6083TIP3    H139884   1.228   0.222   1.062  1.1222 -0.5013  1.4093
 6083TIP3    H239885   1.146   0.289   1.169  0.0472  0.8781 -0.2158
 6084TIP3   OH239886   0.469   1.393   0.083 -0.5163  0.6544 -0.0616
 6084TIP3    H139887   0.529   1.356   0.018 -0.4947 -0.2170  0.4407
 6084TIP3    H239888   0.525   1.446   0.140 -0.5159  1.3174 -0.6689
 6085TIP3   OH239889   5.807   5.233   8.771  0.0483  0.1512 -0.5146
 6085TIP3    H139890   5.864   5.288   8.716  1.8081 -2.0391 -1.0310
 6085TIP3    H239891   5.860   5.214   8.848 -0.7282 -0.3698 -0.0969
 6086TIP3   OH239892   1.156   2.342   2.747  0.2163 -0.2764  0.1619
 6086TIP3    H139893   1.168   2.366   2.839 -1.6158  1.5008  0.0133
 6086TIP3    H239894   1.228   2.385   2.702 -0.5824  1.4207  0.4421
 6087TIP3   OH239895   0.263   4.428   0.086  0.9003  0.1657 -0.4494
 6087TIP3    H139896   0.292   4.338   0.069 -1.9033 -1.5971  2.7409
 6087TIP3    H239897   0.312   4.456   0.163 -1.1937 -0.4804  1.2319
 6088TIP3   OH239898   6.426   0.205   8.267  0.1898 -0.2657  0.1711
 6088TIP3    H139899   6.505   0.259   8.269  0.1933 -0.2720  0.2028
 6088TIP3    H239900   6.420   0.170   8.356  1.6512 -2.4375 -0.5056
 6089TIP3   OH239901   4.760   4.208   1.988 -0.4880 -0.4590  0.0662
 6089TIP3    H139902   4.835   4.169   2.033  0.0842  1.7103  1.1781
 6089TIP3    H239903   4.733   4.143   1.924  1.3584 -1.9495  0.7118
 6090TIP3   OH239904   6.327   4.699   1.798  0.5214 -0.4316  0.3055
 6090TIP3    H139905   6.343   4.687   1.704  0.3425 -2.0119  0.4554
 6090TIP3    H239906   6.252   4.758   1.802  0.7297 -0.0940 -0.5421
 6091TIP3   OH239907   3.582   2.071   8.499 -0.4813  0.2232  0.2627
 6091TIP3    H139908   3.589   1.988   8.547 -0.6114  1.4973  2.6311
 6091TIP3    H239909   3.597   2.047   8.408 -1.1401 -2.4999  0.7687
 6092TIP3   OH239910   5.364   2.071   7.336  0.3868 -0.1029  0.4283
 6092TIP3    H139911   5.406   2.040   7.256 -2.4958 -0.6236 -1.0249
 6092TIP3    H239912   5.311   1.996   7.365 -0.5072  0.8895  1.4260
 6093TIP3   OH239913   5.723   3.032   2.123  0.1273  0.2360  0.3307
 6093TIP3    H139914   5.725   3.096   2.052 -1.1794 -1.1084 -0.9835
 6093TIP3    H239915   5.754   2.951   2.083  1.2104 -0.1362  1.8195
 6094TIP3   OH239916   6.029   1.921   7.778 -0.2117  0.0931  0.2883
 6094TIP3    H139917   5.968   1.959   7.714 -0.0087 -0.1099 -0.0267
 6094TIP3    H239918   5.973   1.897   7.852 -0.1667  2.4424  1.1996
 6095TIP3   OH239919   0.306   1.559   8.719  0.0751  0.1551 -0.3413
 6095TIP3    H139920   0.335   1.530   8.805  0.4749 -1.3632 -0.9616
 6095TIP3    H239921   0.210   1.551   8.721  0.1314 -0.5684 -0.2616
 6096TIP3   OH239922   1.742   4.809   1.666 -0.4209 -0.0888 -0.2242
 6096TIP3    H139923   1.678   4.754   1.713 -0.9264  0.9334  0.3139
 6096TIP3    H239924   1.823   4.799   1.715 -1.1749  1.7249  1.5335
 6097TIP3   OH239925   0.013   6.152   1.795 -0.8971 -0.2760  0.1925
 6097TIP3    H139926  -0.027   6.173   1.880  1.9299 -1.5906  1.9958
 6097TIP3    H239927   0.104   6.130   1.816 -0.4345 -2.0260 -3.0204
 6098TIP3   OH239928   1.222   5.503   2.087  0.1743 -0.1930 -0.4109
 6098TIP3    H139929   1.273   5.422   2.086  0.0694 -0.2640 -1.2658
 6098TIP3    H239930   1.255   5.552   2.162  0.3654 -0.9470  0.0072
 6099TIP3   OH239931   2.186   1.491   8.247 -0.2462  0.3531  0.8591
 6099TIP3    H139932   2.132   1.435   8.303  0.0452 -0.7427  0.0806
 6099TIP3    H239933   2.184   1.576   8.290 -0.9415 -0.1733  1.9280
 6100TIP3   OH239934   0.665   0.798   0.195 -0.1966 -0.7138  0.5232
 6100TIP3    H139935   0.685   0.780   0.103 -1.1715 -1.4923  0.4473
 6100TIP3    H239936   0.638   0.713   0.231 -0.5347 -0.2720  1.3400
 6101TIP3   OH239937   6.527   1.165   7.989  0.0840  0.1931  0.2835
 6101TIP3    H139938   6.510   1.083   8.036  2.2740 -0.7501 -0.4460
 6101TIP3    H239939   6.474   1.156   7.909 -0.0147 -0.3125  0.3982
 6102TIP3   OH239940   4.834   4.349   1.678  0.3685 -0.4378 -0.3996
 6102TIP3    H139941   4.893   4.365   1.752  0.7103 -0.2296 -0.7096
 6102TIP3    H239942   4.789   4.432   1.665 -1.1311 -1.0251  0.8005
 6103TIP3   OH239943   2.163   0.917   1.319  0.0153  0.1480 -0.4635
 6103TIP3    H139944   2.115   0.940   1.239  0.6709 -1.5035 -1.3852
 6103TIP3    H239945   2.175   0.822   1.313 -1.7737 -0.4184  2.6596
 6104TIP3   OH239946   2.877   5.661   0.995 -0.2256  0.0087 -0.2767
 6104TIP3    H139947   2.810   5.615   0.945 -0.5220  0.8932 -0.7070
 6104TIP3    H239948   2.834   5.740   1.028  0.6557  0.7221 -0.7779
 6105TIP3   OH239949   2.836   5.869   0.657 -0.0580 -0.8624 -0.0011
 6105TIP3    H139950   2.802   5.793   0.610 -2.0442 -0.2045  0.3010
 6105TIP3    H239951   2.759   5.910   0.697  1.1102  0.6446  0.8264
 6106TIP3   OH239952   0.058   3.477   0.861  0.2445 -0.2758 -0.5375
 6106TIP3    H139953   0.064   3.531   0.782  1.8242 -0.9341 -0.8975
 6106TIP3    H239954   0.114   3.402   0.843 -1.8649 -2.0857 -0.0646
 6107TIP3   OH239955   1.243   2.595   1.598 -0.1711 -0.5796 -0.7220
 6107TIP3    H139956   1.322   2.542   1.592 -0.4877 -1.0243 -1.0599
 6107TIP3    H239957   1.194   2.574   1.518 -0.0767  0.5851 -1.1016
 6108TIP3   OH239958   2.063   5.948   7.365 -0.4006 -0.8341  0.0954
 6108TIP3    H139959   2.033   6.017   7.424 -0.3864 -0.6907 -0.0643
 6108TIP3    H239960   2.071   5.871   7.420 -1.4277 -0.9693  0.0780
 6109TIP3   OH239961   2.157   3.398   0.723  0.3841 -0.1788  0.4131
 6109TIP3    H139962   2.235   3.351   0.695  1.4724  1.8915 -0.1857
 6109TIP3    H239963   2.184   3.448   0.800 -0.3519  0.4996  0.2534
 6110TIP3   OH239964   2.681   0.347   6.821 -0.0396 -0.8154 -0.7083
 6110TIP3    H139965   2.710   0.382   6.736  0.2959  0.8074  0.0287
 6110TIP3    H239966   2.761   0.313   6.861  0.0095 -0.5535 -0.5822
 6111TIP3   OH239967   2.558   3.495   7.002 -0.1361 -0.0265 -0.4352
 6111TIP3    H139968   2.564   3.419   7.059 -0.1421  0.9446  0.9145
 6111TIP3    H239969   2.641   3.498   6.955  0.9691  0.6226  1.4825
 6112TIP3   OH239970   2.712   1.850   0.601  0.4965  0.0922  0.0173
 6112TIP3    H139971   2.683   1.899   0.524  0.7201  1.0212  0.5055
 6112TIP3    H239972   2.805   1.833   0.584  0.2223 -0.9060 -0.5283
 6113TIP3   OH239973   6.051   4.877   7.385  0.7445 -0.2150 -0.1126
 6113TIP3    H139974   6.080   4.897   7.474  0.5765 -1.7950  0.3333
 6113TIP3    H239975   6.051   4.781   7.381  1.7732 -0.1855 -2.1634
 6114TIP3   OH239976   0.279   4.084   1.716  0.0520  0.2622 -0.2449
 6114TIP3    H139977   0.250   4.101   1.806 -0.6766 -1.7254 -0.0399
 6114TIP3    H239978   0.373   4.069   1.723 -0.1529 -0.8732  0.3943
 6115TIP3   OH239979   5.347   6.334   7.462 -0.2774  0.1582  0.4814
 6115TIP3    H139980   5.359   6.372   7.375 -0.0195 -1.1387 -0.0807
 6115TIP3    H239981   5.394   6.393   7.521  1.0444  0.1294 -0.5009
 6116TIP3   OH239982   0.829   1.032   8.442 -0.0793 -0.0987 -0.4987
 6116TIP3    H139983   0.756   1.011   8.383 -0.0177 -1.9981  0.0644
 6116TIP3    H239984   0.788   1.038   8.528  0.4780 -1.6531 -0.1064
 6117TIP3   OH239985   1.100   0.000   0.341 -0.1082  0.4062 -0.2218
 6117TIP3    H139986   1.137  -0.027   0.425  1.4755  2.2842 -0.2356
 6117TIP3    H239987   1.022  -0.053   0.330  0.0471 -0.3830  2.1050
 6118TIP3   OH239988   3.991   6.256   0.367 -0.7498 -0.1038  0.2029
 6118TIP3    H139989   4.000   6.329   0.306 -0.7133  0.2218  0.5917
 6118TIP3    H239990   4.076   6.211   0.364 -1.3961 -1.3397 -1.5337
 6119TIP3   OH239991   0.588   6.789   1.773 -0.1446  0.3628  0.4238
 6119TIP3    H139992   0.526   6.861   1.760  0.6177  0.7049 -1.6541
 6119TIP3    H239993   0.633   6.780   1.689  0.1104 -2.2700  0.7759
 6120TIP3   OH239994   3.639   4.092   8.205  0.3592  0.0950 -0.1176
 6120TIP3    H139995   3.711   4.154   8.200  0.3173  0.1143 -0.6339
 6120TIP3    H239996   3.563   4.145   8.229  0.0805  0.4816 -1.6926
 6121TIP3   OH239997   3.439   3.582   8.630 -0.4069 -0.3215  0.5722
 6121TIP3    H139998   3.398   3.495   8.624 -0.6771 -0.4222  2.9870
 6121TIP3    H239999   3.523   3.566   8.672 -1.0222  0.7051  2.2722
 6122TIP3   OH240000   0.603   3.736   0.960  0.4921  0.6726  0.0604
 6122TIP3    H140001   0.546   3.805   0.995 -0.8581 -0.1506 -0.4507
 6122TIP3    H240002   0.622   3.680   1.035  1.7570  1.6447  0.5260
 6123TIP3   OH240003   1.406   6.101   1.119 -0.2503  0.0976 -0.4980
 6123TIP3    H140004   1.484   6.063   1.160 -0.4605  0.5891  0.3801
 6123TIP3    H240005   1.435   6.188   1.091 -0.1868 -0.1311 -1.1598
 6124TIP3   OH240006   3.540   3.502   7.470 -0.1353  0.0850 -0.3212
 6124TIP3    H140007   3.576   3.413   7.463 -1.1166 -0.2276 -1.8808
 6124TIP3    H240008   3.446   3.489   7.484 -0.0574  0.9031  1.2267
 6125TIP3   OH240009   3.494   3.465   0.026 -0.1010  0.1657 -1.2266
 6125TIP3    H140010   3.427   3.508  -0.028 -4.5432 -1.8900  2.0638
 6125TIP3    H240011   3.515   3.530   0.094 -1.1379 -0.2001 -0.5359
 6126TIP3   OH240012   4.297   0.467   1.586 -0.4114 -0.4768  0.3434
 6126TIP3    H140013   4.229   0.405   1.558 -0.2721 -0.6910  0.4679
 6126TIP3    H240014   4.306   0.528   1.513  0.1726 -1.2097 -0.2175
 6127TIP3   OH240015   4.657   2.601   0.688 -0.1555  0.3246 -0.7895
 6127TIP3    H140016   4.626   2.541   0.756  2.0129  0.7933  0.7120
 6127TIP3    H240017   4.604   2.580   0.612 -1.8615 -1.0655  0.6829
 6128TIP3   OH240018   0.354   6.282   8.468 -0.2997  0.5807  0.8553
 6128TIP3    H140019   0.413   6.303   8.395 -0.9480 -2.6166 -0.7584
 6128TIP3    H240020   0.412   6.272   8.543  0.6183  1.9195  0.3820
 6129TIP3   OH240021   1.885   5.903   7.816  0.7236  0.1110  0.2036
 6129TIP3    H140022   1.827   5.917   7.891  0.5916 -0.2889  0.1758
 6129TIP3    H240023   1.973   5.909   7.853  0.6540 -0.7081  0.5034
 6130TIP3   OH240024   0.314   1.014   7.303 -0.2251  0.3243 -0.2621
 6130TIP3    H140025   0.336   1.072   7.229 -1.3688  0.8477 -0.2149
 6130TIP3    H240026   0.366   0.935   7.288 -1.0493  0.0774 -2.1072
 6131TIP3   OH240027   3.573   1.010   0.135 -0.0319  0.1670 -0.1619
 6131TIP3    H140028   3.536   1.086   0.088 -0.5651 -0.4299 -0.7277
 6131TIP3    H240029   3.522   0.936   0.103  1.3515 -0.6241 -0.6185
 6132TIP3   OH240030   4.022   6.779   0.171  0.2022  0.5222 -0.5938
 6132TIP3    H140031   3.989   6.827   0.246 -1.3522  1.7367 -1.9806
 6132TIP3    H240032   4.029   6.844   0.102  2.3988 -0.3839 -1.3125
 6133TIP3   OH240033   1.152   5.512   8.143  0.1925  0.9894  0.0341
 6133TIP3    H140034   1.240   5.504   8.106 -0.5778  0.2666 -1.7399
 6133TIP3    H240035   1.151   5.451   8.217  0.3738 -1.1102 -1.6093
 6134TIP3   OH240036   3.306   2.179   0.566 -0.1070  0.2496 -0.3060
 6134TIP3    H140037   3.396   2.175   0.535 -0.2765  1.2465 -1.0090
 6134TIP3    H240038   3.301   2.262   0.613 -0.8738  0.6656 -1.0782
 6135TIP3   OH240039   0.836   5.677   8.785 -0.3578  0.0289  0.5427
 6135TIP3    H140040   0.840   5.769   8.810 -1.3053  0.8545 -2.0677
 6135TIP3    H240041   0.908   5.665   8.724 -2.9777  0.4644 -2.9692
 6136TIP3   OH240042   2.390   4.180   7.957 -0.3118 -0.4501  0.1000
 6136TIP3    H140043   2.319   4.209   8.013 -1.8083 -0.7265 -1.5667
 6136TIP3    H240044   2.447   4.257   7.949 -1.3191  0.3156  0.1232
 6137TIP3   OH240045   0.758   4.815   2.199  0.3579  0.2362  0.0522
 6137TIP3    H140046   0.701   4.739   2.209 -1.8866  2.0646  2.6995
 6137TIP3    H240047   0.700   4.885   2.168  1.7740  1.4900  0.1256
 6138TIP3   OH240048   2.187   2.477   2.472  0.8808  0.3204 -0.1257
 6138TIP3    H140049   2.154   2.556   2.430  1.3970 -0.6934 -2.6093
 6138TIP3    H240050   2.108   2.426   2.492  0.6085  0.9834  0.5192
 6139TIP3   OH240051   0.822   3.313   1.489  0.1377 -0.3606 -0.0371
 6139TIP3    H140052   0.730   3.293   1.469 -0.3611  2.9351 -1.6684
 6139TIP3    H240053   0.822   3.336   1.582 -0.2379 -2.3302  0.4953
 6140TIP3   OH240054   6.102   3.493   6.940  0.5990 -0.0293 -0.0369
 6140TIP3    H140055   6.097   3.556   7.012 -1.0729  0.0180 -0.1645
 6140TIP3    H240056   6.047   3.420   6.968  0.9494 -0.5738 -0.7360
 6141TIP3   OH240057   3.061   4.041   1.342 -0.4503  0.1866  0.3082
 6141TIP3    H140058   3.135   4.090   1.376  0.0944  0.1932 -0.8431
 6141TIP3    H240059   3.054   4.068   1.250 -0.9469 -0.9190  0.0032
 6142TIP3   OH240060   2.604   0.344   7.398  0.0862 -0.6983  0.0441
 6142TIP3    H140061   2.624   0.263   7.445 -1.4852 -1.5044 -0.6065
 6142TIP3    H240062   2.618   0.323   7.306 -0.3013 -0.2163 -0.1285
 6143TIP3   OH240063   4.735   5.528   8.499  0.0921  0.6081  0.0062
 6143TIP3    H140064   4.735   5.621   8.524  0.8197  0.6792 -0.2303
 6143TIP3    H240065   4.643   5.507   8.484 -0.3022  0.7943  1.8640
 6144TIP3   OH240066   6.299   3.336   1.362 -0.4090 -0.8549  0.2670
 6144TIP3    H140067   6.233   3.403   1.375 -0.7730 -0.8054 -1.5201
 6144TIP3    H240068   6.315   3.300   1.449 -0.3168  1.4191  1.2486
 6145TIP3   OH240069   2.131   4.674   8.259 -0.0123  0.8029  0.0860
 6145TIP3    H140070   2.227   4.670   8.261 -0.0674 -1.5432  0.4949
 6145TIP3    H240071   2.110   4.689   8.167  0.7390  1.7307  0.0529
 6146TIP3   OH240072   0.020   0.561   8.593  0.0097  0.1048 -0.3927
 6146TIP3    H140073  -0.071   0.565   8.621  0.4481  1.0247  0.9595
 6146TIP3    H240074   0.050   0.652   8.594  0.7950 -0.1189 -1.3909
 6147TIP3   OH240075   2.042   1.687   0.635 -0.1440 -0.0687  0.4085
 6147TIP3    H140076   2.041   1.777   0.601 -1.4458 -0.4656 -0.6974
 6147TIP3    H240077   1.979   1.641   0.581  0.5594 -1.6850  0.9159
 6148TIP3   OH240078   5.629   6.744   8.181  0.2078  0.1615 -0.7764
 6148TIP3    H140079   5.703   6.805   8.190  0.0504  0.1899  0.5241
 6148TIP3    H240080   5.596   6.760   8.093  0.0774  2.1013 -0.4399
 6149TIP3   OH240081   0.522   1.728   1.233  0.1146 -0.3796 -0.3392
 6149TIP3    H140082   0.559   1.729   1.145  1.1303 -1.7154  0.0365
 6149TIP3    H240083   0.562   1.803   1.277  0.1293 -0.1090 -0.8115
 6150TIP3   OH240084   4.291   1.496   2.405 -0.2381  0.1820  0.5231
 6150TIP3    H140085   4.347   1.565   2.370  0.9854 -1.5871 -1.1845
 6150TIP3    H240086   4.221   1.486   2.340 -0.5369 -0.0427  0.8742
 6151TIP3   OH240087   1.116   3.821   0.359 -0.0295 -0.4213  0.1663
 6151TIP3    H140088   1.042   3.789   0.307 -0.5557 -0.5411  0.9672
 6151TIP3    H240089   1.105   3.778   0.444  0.3920  0.3494  0.6179
 6152TIP3   OH240090   2.529   4.575   0.423 -0.7217 -0.0349 -0.3574
 6152TIP3    H140091   2.459   4.558   0.359  1.9423 -1.8713 -3.0396
 6152TIP3    H240092   2.558   4.664   0.402 -0.9834  0.0143 -0.5268
 6153TIP3   OH240093   4.068   6.684   0.815  0.4332  0.1158  0.9786
 6153TIP3    H140094   4.061   6.723   0.727 -0.0514  1.5840  1.6393
 6153TIP3    H240095   4.002   6.730   0.867  0.5281 -0.9306  2.0539
 6154TIP3   OH240096   1.502   4.177   7.618  0.1509  0.0442  0.0731
 6154TIP3    H140097   1.506   4.254   7.675 -0.0741  1.0272 -1.1848
 6154TIP3    H240098   1.527   4.104   7.674  2.3888  1.2973  0.8210
 6155TIP3   OH240099   5.661   2.568   7.636  0.2051 -0.1413 -0.0192
 6155TIP3    H140100   5.603   2.587   7.710  0.8944 -0.5189  0.6328
 6155TIP3    H240101   5.749   2.581   7.671  0.5533 -0.6694 -0.6779
 6156TIP3   OH240102   0.440   0.646   0.908  0.0844 -0.7811 -0.3100
 6156TIP3    H140103   0.367   0.616   0.854 -0.3393  3.0514 -2.2172
 6156TIP3    H240104   0.400   0.705   0.971  1.0914 -2.1150  1.6612
 6157TIP3   OH240105   0.309   4.621   8.267 -0.0410  0.6002 -0.0463
 6157TIP3    H140106   0.226   4.576   8.280 -0.6028  1.5787 -0.1066
 6157TIP3    H240107   0.332   4.603   8.176 -0.8623  1.3713 -0.4242
 6158TIP3   OH240108   0.516   1.570   2.164  0.4978  0.1645 -0.0124
 6158TIP3    H140109   0.433   1.603   2.198  1.7889  0.2969  3.3406
 6158TIP3    H240110   0.564   1.649   2.138 -0.1130  0.1290 -1.3317
 6159TIP3   OH240111   5.388   4.329   0.164  0.5331  0.1552 -0.2046
 6159TIP3    H140112   5.456   4.335   0.232 -0.2300 -0.0627  0.5855
 6159TIP3    H240113   5.388   4.237   0.138 -0.8990 -0.3233  1.3241
 6160TIP3   OH240114   4.013   6.272   0.716  0.0102  0.2693  0.1897
 6160TIP3    H140115   3.928   6.264   0.672  0.0584  1.4789 -0.1802
 6160TIP3    H240116   4.016   6.198   0.777 -0.3820 -1.0175 -1.2972
 6161TIP3   OH240117   0.506   2.328   6.827 -0.0579  0.2404  0.5365
 6161TIP3    H140118   0.435   2.365   6.775 -0.5663 -0.8748  0.4043
 6161TIP3    H240119   0.527   2.245   6.784  0.3932 -0.0908  1.3650
 6162TIP3   OH240120   2.472   4.859   7.855  0.3927  0.2718  0.8005
 6162TIP3    H140121   2.400   4.841   7.795  1.0054 -1.0532  0.4239
 6162TIP3    H240122   2.430   4.886   7.937 -0.4551  2.1471 -0.1940
 6163TIP3   OH240123   2.203   6.795   1.407  0.2780  0.0119 -0.1128
 6163TIP3    H140124   2.212   6.702   1.386  0.6134  0.2512 -1.1079
 6163TIP3    H240125   2.269   6.810   1.475 -1.3856 -0.9590  1.8168
 6164TIP3   OH240126   0.417   6.731   8.761 -0.3673 -0.0170 -0.2681
 6164TIP3    H140127   0.331   6.698   8.788  0.3757 -2.1947 -0.3618
 6164TIP3    H240128   0.429   6.698   8.672 -0.0309  1.5475 -0.8372
 6165TIP3   OH240129   0.560   0.403   0.700 -0.0564  0.1018  0.2973
 6165TIP3    H140130   0.482   0.432   0.652  1.0123  2.5246 -0.1552
 6165TIP3    H240131   0.526   0.366   0.781 -1.7386  4.1211  1.6959
 6166TIP3   OH240132   6.801   4.533   8.569  0.1105  0.2770 -0.4172
 6166TIP3    H140133   6.856   4.465   8.608 -1.7569 -2.1487 -1.7208
 6166TIP3    H240134   6.808   4.607   8.629  2.8052 -0.7699  0.7222
 6167TIP3   OH240135   1.836   0.898   1.166 -0.0473 -0.1767 -0.0423
 6167TIP3    H140136   1.808   0.808   1.146  0.6299 -0.1405 -1.2043
 6167TIP3    H240137   1.927   0.902   1.137 -0.6209  1.4262 -1.7569
 6168TIP3   OH240138   0.778   6.625   1.279 -0.4250 -0.0460 -0.2069
 6168TIP3    H140139   0.867   6.659   1.274 -0.7353  0.7301 -0.6761
 6168TIP3    H240140   0.789   6.532   1.299  0.4563  0.2416  0.7344
 6169TIP3   OH240141   1.187   0.233   7.197 -0.2476 -0.0192  0.2410
 6169TIP3    H140142   1.275   0.251   7.165 -0.4301 -1.3912 -1.1412
 6169TIP3    H240143   1.156   0.318   7.231  0.8125  0.9832 -1.1806
 6170TIP3   OH240144   3.467   4.194   8.430  0.4162 -0.0326  0.3627
 6170TIP3    H140145   3.372   4.183   8.428  0.6571 -2.9395  0.4412
 6170TIP3    H240146   3.489   4.196   8.523  0.4665  0.6579  0.3450
 6171TIP3   OH240147   5.248   1.636   0.242 -0.8169 -0.2690  0.1545
 6171TIP3    H140148   5.283   1.704   0.185 -1.9574  0.9953  0.9086
 6171TIP3    H240149   5.213   1.570   0.182  0.7781 -0.4675 -0.5840
 6172TIP3   OH240150   0.593   5.632   0.935 -0.2811  0.1704  0.4636
 6172TIP3    H140151   0.539   5.706   0.906 -0.5987  0.3165  1.4116
 6172TIP3    H240152   0.605   5.646   1.029 -0.1024 -0.8269  0.5960
 6173TIP3   OH240153   1.097   5.314   8.350 -0.1361  0.1901  0.0938
 6173TIP3    H140154   1.162   5.246   8.331  1.0578  1.2991  0.0831
 6173TIP3    H240155   1.061   5.289   8.435 -1.3021 -1.6153 -0.8530
 6174TIP3   OH240156   4.035   1.308   8.735  0.2821 -0.0200  0.1660
 6174TIP3    H140157   4.082   1.230   8.765 -1.3336 -0.9184  0.4871
 6174TIP3    H240158   3.947   1.298   8.772 -0.1732  1.5900 -0.4131
 6175TIP3   OH240159   3.197   1.135   6.969  0.3668  0.5425  0.1974
 6175TIP3    H140160   3.230   1.107   6.884 -0.5608  3.6996 -1.3522
 6175TIP3    H240161   3.102   1.127   6.961  0.2506  1.3033  0.7469
 6176TIP3   OH240162   3.930   5.222   6.014  0.2049  0.2108 -0.0755
 6176TIP3    H140163   3.852   5.209   5.959  0.9315  0.3567 -1.1911
 6176TIP3    H240164   3.908   5.296   6.070 -1.0118 -0.7098  0.7109
 6177TIP3   OH240165   4.748   3.942   1.071 -0.1970  0.5552  0.2227
 6177TIP3    H140166   4.841   3.941   1.094  0.1791  0.7473 -1.2044
 6177TIP3    H240167   4.705   3.982   1.147  0.7319 -0.5771  1.3741
 6178TIP3   OH240168   6.401   4.003   8.345  0.3464  0.2124  0.4825
 6178TIP3    H140169   6.437   3.917   8.324  0.4528  0.4419 -0.2991
 6178TIP3    H240170   6.434   4.061   8.276 -1.3955  0.4614 -0.2194
 6179TIP3   OH240171   1.119   0.360   7.732  0.3551 -0.0018  0.0546
 6179TIP3    H140172   1.135   0.435   7.675  1.6130  0.3056  0.7809
 6179TIP3    H240173   1.037   0.323   7.699  0.8914  0.3187 -1.7661
 6180TIP3   OH240174   5.400   5.992   0.988  0.3790 -0.1981  0.2858
 6180TIP3    H140175   5.461   5.951   1.049 -1.3946 -2.1392  0.8705
 6180TIP3    H240176   5.425   5.957   0.902  1.0654  0.2763  0.2855
 6181TIP3   OH240177   3.656   2.857   7.620  0.4715  0.0206 -0.6852
 6181TIP3    H140178   3.626   2.820   7.536 -0.0955 -0.5698 -0.2335
 6181TIP3    H240179   3.575   2.880   7.665  0.7652  0.0294 -0.1629
 6182TIP3   OH240180   3.104   2.744   7.368 -0.6806 -0.1919 -0.3569
 6182TIP3    H140181   3.143   2.806   7.430  0.2784 -1.4547  0.3458
 6182TIP3    H240182   3.107   2.789   7.284 -0.3831  0.8785  0.2115
 6183TIP3   OH240183   0.814   5.483   7.670  0.4399  0.1147 -0.2676
 6183TIP3    H140184   0.902   5.503   7.700  0.5562 -0.0703 -0.4843
 6183TIP3    H240185   0.757   5.528   7.732  0.6877  0.3539 -0.2103
 6184TIP3   OH240186   2.597   1.360   8.294 -0.2759 -0.6043  0.5393
 6184TIP3    H140187   2.609   1.455   8.303  1.5716 -0.6518 -0.7856
 6184TIP3    H240188   2.644   1.338   8.213 -3.8825 -2.1220 -1.3428
 6185TIP3   OH240189   1.155   2.672   0.132  0.2525  0.6647  0.5023
 6185TIP3    H140190   1.208   2.736   0.086  1.3634  0.3857  1.3399
 6185TIP3    H240191   1.079   2.721   0.164  0.5952  1.3361  0.2943
 6186TIP3   OH240192   0.179   0.607   0.836 -0.5618 -0.3323 -0.2202
 6186TIP3    H140193   0.122   0.656   0.776 -1.5219 -1.9283 -0.6932
 6186TIP3    H240194   0.154   0.639   0.923 -1.7359 -0.5228 -0.4635
 6187TIP3   OH240195   2.067   2.358   0.884  0.1637  0.2755 -0.3371
 6187TIP3    H140196   1.988   2.307   0.901  1.9156 -3.1912 -1.6443
 6187TIP3    H240197   2.126   2.337   0.956  0.7519  0.8989 -0.6219
 6188TIP3   OH240198   1.795   6.070   2.462  0.0365  0.2984  0.0353
 6188TIP3    H140199   1.833   6.088   2.376 -0.6553 -0.4673 -0.4426
 6188TIP3    H240200   1.701   6.080   2.449 -0.0545  0.4798  0.7870
 6189TIP3   OH240201   5.945   5.960   1.866 -0.0513  0.3033 -0.3436
 6189TIP3    H140202   6.003   5.886   1.849 -0.7640 -0.1230 -1.0159
 6189TIP3    H240203   6.002   6.029   1.899  0.8089 -0.1579 -0.8313
 6190TIP3   OH240204   5.135   0.976   6.929 -0.0979 -0.3346 -0.4912
 6190TIP3    H140205   5.214   1.018   6.963 -0.9790 -0.2622  1.6449
 6190TIP3    H240206   5.066   1.042   6.940 -0.6518 -0.7472 -1.3708
 6191TIP3   OH240207   0.756   6.222   8.444 -0.5475 -0.4772 -0.3761
 6191TIP3    H140208   0.668   6.233   8.482  0.6452 -1.6627  3.1715
 6191TIP3    H240209   0.799   6.306   8.457 -0.6214 -0.4203 -0.5025
 6192TIP3   OH240210   5.880   4.348   1.731 -0.3394  0.0788 -0.0944
 6192TIP3    H140211   5.963   4.396   1.727 -0.4996  0.2806 -1.3464
 6192TIP3    H240212   5.836   4.383   1.808 -0.4196  1.9517 -0.9244
 6193TIP3   OH240213   1.788   4.964   7.848  0.4996  0.4586 -0.3795
 6193TIP3    H140214   1.876   4.927   7.860  0.3026 -0.0283 -0.4203
 6193TIP3    H240215   1.799   5.057   7.864  1.7219  0.9949 -3.5590
 6194TIP3   OH240216   5.047   5.204   8.636 -0.5209  0.8851  0.0425
 6194TIP3    H140217   5.067   5.261   8.711 -0.5134 -0.9037  1.4648
 6194TIP3    H240218   5.105   5.236   8.567  1.1916  1.1509  1.5093
 6195TIP3   OH240219   0.130   1.989   1.622 -0.1613 -0.1489  0.3830
 6195TIP3    H140220   0.124   1.896   1.600  0.4409 -0.2613  0.6771
 6195TIP3    H240221   0.166   1.990   1.711 -0.0144  0.3704  0.3195
 6196TIP3   OH240222   0.009   1.199   7.333  1.0770  0.8782  0.1713
 6196TIP3    H140223   0.027   1.292   7.344 -0.3383  1.2686 -0.6809
 6196TIP3    H240224  -0.085   1.190   7.349  0.9579 -0.2077 -0.9833
 6197TIP3   OH240225   1.913   1.053   0.203  0.3523  0.1754 -0.8582
 6197TIP3    H140226   1.834   1.002   0.185 -0.0702  0.9587 -1.2987
 6197TIP3    H240227   1.948   1.016   0.283  1.7087 -2.7660 -2.6514
 6198TIP3   OH240228   4.286   0.265   8.335 -0.2266 -0.7390  0.1874
 6198TIP3    H140229   4.291   0.282   8.429  1.0940  0.1218 -0.0117
 6198TIP3    H240230   4.192   0.254   8.318 -0.5538 -0.1828  1.4814
 6199TIP3   OH240231   3.499   2.998   1.877 -0.6371  0.3121  0.2517
 6199TIP3    H140232   3.565   3.008   1.808 -0.9256 -1.1082 -0.2554
 6199TIP3    H240233   3.512   3.075   1.933  1.0917  0.3522 -0.1333
 6200TIP3   OH240234   5.636   5.002   7.044 -0.4375  0.1416  0.6836
 6200TIP3    H140235   5.555   5.001   7.093 -1.2695 -1.6864 -0.5972
 6200TIP3    H240236   5.613   4.963   6.959  2.2026 -2.5789  1.0628
 6201TIP3   OH240237   5.407   2.033   1.297 -0.0544 -0.1440  0.2390
 6201TIP3    H140238   5.495   2.005   1.273 -0.1826 -0.0656 -0.3272
 6201TIP3    H240239   5.418   2.075   1.383  0.3130 -0.9119  0.5735
 6202TIP3   OH240240   2.743   1.614   0.141 -0.1891 -0.3632  0.4312
 6202TIP3    H140241   2.706   1.533   0.107 -0.0533  0.0221 -0.6551
 6202TIP3    H240242   2.673   1.652   0.194 -0.6647 -0.6159 -0.0077
 6203TIP3   OH240243   0.080   3.385   8.336  0.6509  0.2186  0.3155
 6203TIP3    H140244   0.009   3.434   8.294 -0.3785 -1.3295  0.1446
 6203TIP3    H240245   0.145   3.451   8.359 -1.5767  1.9772  2.0720
 6204TIP3   OH240246   2.985   6.570   0.587  0.3343 -0.4537  0.1027
 6204TIP3    H140247   2.921   6.604   0.650 -0.5498 -2.7642  0.5501
 6204TIP3    H240248   3.070   6.586   0.629 -0.0462  0.8365  0.4220
 6205TIP3   OH240249   0.979   6.261   2.030 -0.2918  0.0970 -0.1988
 6205TIP3    H140250   0.890   6.258   1.994 -0.8394  1.4507  0.9414
 6205TIP3    H240251   1.036   6.244   1.955 -1.4590  0.8949 -1.3164
 6206TIP3   OH240252   2.299   0.056   8.119  0.7895  0.2486 -0.4674
 6206TIP3    H140253   2.343   0.083   8.199 -0.5313  1.7141 -0.1824
 6206TIP3    H240254   2.268  -0.033   8.137  0.8717  0.4021  0.4933
 6207TIP3   OH240255   2.067   1.985   2.093 -0.0362  0.4806 -0.1181
 6207TIP3    H140256   2.058   2.061   2.151 -2.5527  0.6357 -0.6114
 6207TIP3    H240257   2.018   1.916   2.137  2.5692 -1.0908  0.5331
 6208TIP3   OH240258   6.013   5.130   8.190 -0.2032 -0.1355 -0.1241
 6208TIP3    H140259   5.959   5.140   8.268  1.1060  1.2628  0.6425
 6208TIP3    H240260   6.055   5.044   8.201 -1.2423 -0.6510 -0.0980
 6209TIP3   OH240261   3.030   1.692   1.455 -0.6781 -0.3928 -0.0103
 6209TIP3    H140262   3.001   1.673   1.366 -0.4870  1.6800 -0.5821
 6209TIP3    H240263   3.112   1.740   1.443 -0.3233 -0.6345  1.3205
 6210TIP3   OH240264   4.122   2.508   0.520 -0.0011  0.0250  0.6099
 6210TIP3    H140265   4.030   2.531   0.533 -0.4203 -0.0292 -1.8132
 6210TIP3    H240266   4.137   2.521   0.426  2.4700  0.0164  0.9382
 6211TIP3   OH240267   1.082   5.129   8.827 -0.9451 -0.3720  0.3730
 6211TIP3    H140268   1.056   5.039   8.805  0.1601 -1.6371  3.7103
 6211TIP3    H240269   1.178   5.128   8.821 -0.7986  0.0102  2.1288
 6212TIP3   OH240270   6.350   3.222   0.157  0.3729 -0.0888 -0.3253
 6212TIP3    H140271   6.288   3.210   0.228 -0.0782  0.5824 -0.5948
 6212TIP3    H240272   6.423   3.164   0.178 -0.7455 -1.5996 -0.4785
 6213TIP3   OH240273   1.534   3.746   8.740  0.0708 -0.0895  0.3195
 6213TIP3    H140274   1.522   3.829   8.695 -0.4136 -0.2105  0.2130
 6213TIP3    H240275   1.524   3.767   8.833  1.6039  0.2500  0.4165
 6214TIP3   OH240276   5.033   4.541   1.552 -0.0011 -0.6015 -0.4792
 6214TIP3    H140277   4.966   4.499   1.498  0.3836 -0.3519 -1.1721
 6214TIP3    H240278   5.040   4.629   1.516 -0.9056  0.1210  1.0556
 6215TIP3   OH240279   1.092   4.815   1.442 -0.0413 -0.3222  0.6514
 6215TIP3    H140280   1.155   4.774   1.501  1.7056  0.8729 -0.2829
 6215TIP3    H240281   1.068   4.897   1.486 -2.9802 -1.8667  2.1885
 6216TIP3   OH240282   0.128   5.315   0.634 -0.7201 -0.3152 -0.7910
 6216TIP3    H140283   0.170   5.275   0.710 -0.8818 -0.5361 -0.8198
 6216TIP3    H240284   0.136   5.249   0.564 -1.8088 -0.6715 -0.5855
 6217TIP3   OH240285   2.441   1.537   0.420 -0.5573  0.4749  0.1793
 6217TIP3    H140286   2.394   1.459   0.391 -0.3356  0.4782 -0.1926
 6217TIP3    H240287   2.399   1.561   0.502 -0.1836 -0.4292  0.6476
 6218TIP3   OH240288   2.476   0.135   6.817 -0.0988  0.0950  0.1718
 6218TIP3    H140289   2.553   0.185   6.842 -0.1075 -0.4931  1.4561
 6218TIP3    H240290   2.492   0.112   6.725  2.2410 -1.6678  0.8924
 6219TIP3   OH240291   5.733   0.117   8.510  0.3302 -0.1099  0.1549
 6219TIP3    H140292   5.665   0.119   8.443 -0.6522  0.9866  1.1381
 6219TIP3    H240293   5.774   0.203   8.506 -0.3488  0.3099  1.5258
 6220TIP3   OH240294   4.639   2.139   6.430  0.5331  0.2588  0.0892
 6220TIP3    H140295   4.729   2.108   6.437  0.7309  0.6935 -0.4696
 6220TIP3    H240296   4.591   2.064   6.395  1.0603  0.6205 -1.5030
 6221TIP3   OH240297   3.098   5.659   6.275 -0.5495  0.2182  0.0427
 6221TIP3    H140298   3.185   5.641   6.238 -2.0394 -1.7618 -2.8158
 6221TIP3    H240299   3.082   5.751   6.256  0.6331  0.4352  0.0233
 6222TIP3   OH240300   1.605   1.500   1.355 -0.7422  0.2380  0.0841
 6222TIP3    H140301   1.541   1.496   1.283 -2.8420  0.2059  1.8426
 6222TIP3    H240302   1.556   1.538   1.428  1.0473 -0.5702  1.7850
 6223TIP3   OH240303   2.848   0.540   8.018 -0.1877 -0.5462 -0.0296
 6223TIP3    H140304   2.840   0.572   7.928  1.3254  0.4634  0.1555
 6223TIP3    H240305   2.934   0.569   8.046 -0.3323 -1.4901  1.5138
 6224TIP3   OH240306   4.443   1.868   6.834  0.8766 -0.1127 -0.0556
 6224TIP3    H140307   4.524   1.816   6.827  0.7548 -0.3085 -0.0077
 6224TIP3    H240308   4.373   1.804   6.824  0.7243  0.0026  0.2908
 6225TIP3   OH240309   2.398   1.991   8.095  0.1347  0.1902 -1.0103
 6225TIP3    H140310   2.375   1.952   8.011  1.7660  0.4334 -1.5930
 6225TIP3    H240311   2.314   1.998   8.141 -0.5484 -1.5803 -1.8976
 6226TIP3   OH240312   3.226   3.985   7.634 -0.3580  0.2878  0.6427
 6226TIP3    H140313   3.243   4.077   7.656 -0.6503  0.6980 -0.7014
 6226TIP3    H240314   3.135   3.985   7.604  0.5245  0.1995 -2.3306
 6227TIP3   OH240315   4.765   1.708   1.789  0.5203 -0.4740  0.1749
 6227TIP3    H140316   4.859   1.710   1.771  0.5654 -2.0397  0.1243
 6227TIP3    H240317   4.728   1.775   1.731  1.5768  0.0563  0.0893
 6228TIP3   OH240318   3.446   0.042   7.632  0.1998  0.0221  0.1902
 6228TIP3    H140319   3.405  -0.037   7.667  0.0298 -0.7076 -1.5749
 6228TIP3    H240320   3.475   0.090   7.710 -1.9280 -0.5353  1.4282
 6229TIP3   OH240321   0.320   2.993   7.645 -0.1458 -0.0261  0.0879
 6229TIP3    H140322   0.244   2.947   7.681 -0.1401 -0.3197 -0.2701
 6229TIP3    H240323   0.313   3.082   7.680  0.0409 -0.3870  1.0824
 6230TIP3   OH240324   3.367   4.607   6.490  0.2313  0.0822 -0.3179
 6230TIP3    H140325   3.307   4.677   6.463 -0.7012 -0.5567  0.0459
 6230TIP3    H240326   3.446   4.622   6.438  0.7239  2.4337  0.9799
 6231TIP3   OH240327   3.464   5.466   1.052  0.0424  0.6453  0.2013
 6231TIP3    H140328   3.449   5.547   1.003 -0.0147 -0.0219 -0.9211
 6231TIP3    H240329   3.528   5.490   1.119  0.1907  1.5715 -0.2550
 6232TIP3   OH240330   3.769   1.293   8.843  0.3889 -0.2162 -0.2213
 6232TIP3    H140331   3.792   1.310   8.935 -0.2452  0.0269 -0.1033
 6232TIP3    H240332   3.689   1.343   8.829  1.1906  0.8035 -1.2942
 6233TIP3   OH240333   5.081   2.696   8.176  0.1934 -0.1670 -0.2922
 6233TIP3    H140334   5.073   2.713   8.082 -2.6159  2.7926  0.2951
 6233TIP3    H240335   5.164   2.736   8.201 -0.0809  1.0175 -1.1933
 6234TIP3   OH240336   0.998   4.413   1.460 -0.1953  0.1825  0.6490
 6234TIP3    H140337   1.073   4.437   1.405 -0.7646  0.2841 -0.0923
 6234TIP3    H240338   1.036   4.357   1.528  0.5085 -0.0122  0.1107
 6235TIP3   OH240339   4.333   4.390   0.100 -0.1419 -0.4742 -0.1117
 6235TIP3    H140340   4.377   4.382   0.185 -0.5223  1.2522  0.2873
 6235TIP3    H240341   4.241   4.402   0.121 -0.6464 -2.6313 -0.8956
 6236TIP3   OH240342   3.134   4.315   7.414 -0.3176 -0.3266 -0.0609
 6236TIP3    H140343   3.096   4.388   7.364 -1.7086 -0.2871  0.9962
 6236TIP3    H240344   3.176   4.357   7.489  0.0188 -0.5279 -0.1366
 6237TIP3   OH240345   5.932   3.188   2.319 -0.0983  0.2095 -0.5699
 6237TIP3    H140346   5.882   3.111   2.294  0.8817  0.2505 -2.8703
 6237TIP3    H240347   5.900   3.258   2.261 -0.7314  1.5048  1.2380
 6238TIP3   OH240348   3.468   6.624   1.282 -0.8243 -0.4276 -0.0007
 6238TIP3    H140349   3.454   6.608   1.189 -2.6691  1.1529 -0.0424
 6238TIP3    H240350   3.410   6.562   1.326 -1.0144 -0.2122  0.0547
 6239TIP3   OH240351   0.788   4.396   8.338  0.4474 -0.2742 -0.5786
 6239TIP3    H140352   0.769   4.486   8.312  0.3297 -0.2920 -0.5544
 6239TIP3    H240353   0.770   4.344   8.260  2.7576 -0.0289 -1.3346
 6240TIP3   OH240354   4.995   5.954   0.236 -0.1243  0.1557 -0.7324
 6240TIP3    H140355   4.982   5.866   0.270 -0.2100  0.4918  0.1131
 6240TIP3    H240356   4.909   5.995   0.240 -0.3454 -0.1088 -2.2722
 6241TIP3   OH240357   4.400   5.422   0.437 -0.1057  0.6308  0.2891
 6241TIP3    H140358   4.357   5.458   0.359  0.7793  1.0922 -0.0030
 6241TIP3    H240359   4.470   5.485   0.457  0.4849 -0.1363  0.6969
 6242TIP3   OH240360   4.513   5.959   1.702 -0.3888  0.3748  0.0021
 6242TIP3    H140361   4.597   5.951   1.749  0.7950  1.0175 -1.8960
 6242TIP3    H240362   4.467   6.029   1.748 -0.5224 -0.8545  1.8888
 6243TIP3   OH240363   5.815   1.269   0.701 -0.6109  0.3290  0.2251
 6243TIP3    H140364   5.776   1.206   0.639  0.0198 -2.0023  2.0608
 6243TIP3    H240365   5.740   1.312   0.741 -1.0742  0.5445 -0.8366
 6244TIP3   OH240366   0.348   0.385   8.334 -0.8470  0.2005 -0.1821
 6244TIP3    H140367   0.311   0.376   8.421  1.5536 -1.5385  0.7976
 6244TIP3    H240368   0.328   0.302   8.291 -0.7330  0.4561 -0.7373
 6245TIP3   OH240369   6.269   2.648   6.934 -0.0986 -0.0966 -0.3226
 6245TIP3    H140370   6.345   2.592   6.919 -1.4736 -2.7111  1.5406
 6245TIP3    H240371   6.215   2.635   6.856 -0.2223 -1.1316 -0.0812
 6246TIP3   OH240372   6.085   2.434   7.486  0.0858 -0.3355  0.2806
 6246TIP3    H140373   6.024   2.493   7.530 -0.9158  0.3059 -1.8676
 6246TIP3    H240374   6.163   2.436   7.541 -0.9541  0.6950  1.8162
 6247TIP3   OH240375   2.114   6.652   1.122  0.6555  0.2486 -0.2541
 6247TIP3    H140376   2.115   6.723   1.187  1.1236 -0.3816  0.4418
 6247TIP3    H240377   2.174   6.586   1.157  2.2949  0.6200 -2.1388
 6248TIP3   OH240378   2.295   0.259   1.234  0.2311 -0.1454 -0.4479
 6248TIP3    H140379   2.216   0.226   1.277  0.9788 -1.2646  0.1244
 6248TIP3    H240380   2.354   0.184   1.232  0.8910  0.3773 -1.8364
 6249TIP3   OH240381   5.419   1.583   2.516 -0.1175 -0.3958  0.1653
 6249TIP3    H140382   5.375   1.550   2.438 -1.5013 -0.2260  0.8406
 6249TIP3    H240383   5.468   1.508   2.550  0.6008 -0.4365 -0.9104
 6250TIP3   OH240384   1.365   4.972   7.113 -0.2745 -0.1653  0.3804
 6250TIP3    H140385   1.434   5.030   7.080  0.4903 -1.4851 -0.4468
 6250TIP3    H240386   1.330   5.017   7.190  0.8809  0.9667  0.2731
 6251TIP3   OH240387   3.251   1.253   1.109 -0.3206  0.7588  0.5558
 6251TIP3    H140388   3.343   1.229   1.101 -0.5604  0.3102 -1.6627
 6251TIP3    H240389   3.252   1.338   1.152  1.2568  1.3839 -0.6151
 6252TIP3   OH240390   2.052   4.714   0.807 -0.8582 -0.0977  0.2027
 6252TIP3    H140391   2.041   4.704   0.901  0.7382  0.1000  0.4355
 6252TIP3    H240392   1.992   4.649   0.769 -2.0072  0.2654  1.3094
 6253TIP3   OH240393   4.849   5.975   1.486  0.1004 -0.2264 -0.4172
 6253TIP3    H140394   4.876   5.943   1.400 -1.1231 -0.1382 -0.8653
 6253TIP3    H240395   4.830   5.896   1.536 -2.7938 -0.3478 -1.4822
 6254TIP3   OH240396   0.648   5.997   6.716  0.2974  0.2012 -0.0581
 6254TIP3    H140397   0.728   6.049   6.724  0.0951  0.5974 -0.5402
 6254TIP3    H240398   0.581   6.047   6.762  0.2686  0.0051  0.1119
 6255TIP3   OH240399   5.579   1.865   8.270  0.6348  0.0557  0.5590
 6255TIP3    H140400   5.626   1.789   8.306  2.1154  0.6662  0.0132
 6255TIP3    H240401   5.601   1.863   8.177  1.1788  1.4842  0.6402
 6256TIP3   OH240402   5.202   3.036   7.201  0.2282  0.6377 -0.4821
 6256TIP3    H140403   5.232   2.953   7.237  1.9206  0.6192 -1.7875
 6256TIP3    H240404   5.193   3.094   7.276 -0.2177 -0.4928  0.3549
 6257TIP3   OH240405   0.902   1.856   1.030 -1.1236 -0.1963 -0.1493
 6257TIP3    H140406   0.946   1.873   0.946 -0.0378  0.7920  0.5914
 6257TIP3    H240407   0.841   1.929   1.039 -1.5125 -0.5077 -0.2481
 6258TIP3   OH240408   0.875   5.827   7.376  0.2805 -0.1671 -0.0852
 6258TIP3    H140409   0.894   5.733   7.375 -0.7163 -0.3854  0.2185
 6258TIP3    H240410   0.799   5.837   7.318  0.2926  0.4311 -0.0039
 6259TIP3   OH240411   2.808   1.051   1.691  0.4666  0.1207 -0.3166
 6259TIP3    H140412   2.757   0.973   1.713  0.2295  0.3304 -0.1204
 6259TIP3    H240413   2.856   1.027   1.611  2.7841 -1.2968  1.3731
 6260TIP3   OH240414   4.424   5.045   8.698  0.6099  0.0941 -0.1851
 6260TIP3    H140415   4.507   5.022   8.656  0.2242 -0.6946 -0.5406
 6260TIP3    H240416   4.394   4.964   8.739 -0.3756  0.1649 -0.7411
 6261TIP3   OH240417   0.577   4.179   0.366  0.0031  0.4181 -0.1729
 6261TIP3    H140418   0.616   4.199   0.451  0.6810 -1.2018 -0.0552
 6261TIP3    H240419   0.578   4.083   0.362 -2.8112  0.3246 -0.7297
 6262TIP3   OH240420   1.443   0.323   7.050 -0.1132 -0.4149 -0.2039
 6262TIP3    H140421   1.515   0.366   7.095 -0.8928 -0.6689  1.3584
 6262TIP3    H240422   1.385   0.394   7.022  1.5313 -0.0649 -3.0413
 6263TIP3   OH240423   3.353   4.297   2.614 -0.4853  0.4712 -0.3891
 6263TIP3    H140424   3.368   4.232   2.545  0.2604  0.6070 -0.3615
 6263TIP3    H240425   3.269   4.271   2.654 -0.4799 -0.1260 -0.7613
 6264TIP3   OH240426   3.822   0.493   7.971 -0.0666  0.2102  0.5270
 6264TIP3    H140427   3.886   0.565   7.970 -0.7499  0.8228  0.5432
 6264TIP3    H240428   3.738   0.535   7.956 -0.5149 -0.5563  0.8504
 6265TIP3   OH240429   6.128   6.768   7.473  0.3414  0.1386 -0.0747
 6265TIP3    H140430   6.187   6.766   7.398 -0.2054  2.1707 -0.6264
 6265TIP3    H240431   6.045   6.800   7.437  0.2174  1.6949  1.4530
 6266TIP3   OH240432   6.611   2.608   0.235  0.2463 -0.4740  0.1646
 6266TIP3    H140433   6.525   2.586   0.272  0.9387 -1.4907  1.2176
 6266TIP3    H240434   6.666   2.532   0.253  1.1321 -0.2479 -1.3670
 6267TIP3   OH240435   3.904   1.358   8.090  0.3322 -0.6176  0.0330
 6267TIP3    H140436   3.833   1.367   8.026 -0.8874  0.3455  1.4346
 6267TIP3    H240437   3.899   1.267   8.119  0.3720 -0.8427 -0.6594
 6268TIP3   OH240438   4.987   1.096   7.280 -0.2741 -0.2188 -0.5801
 6268TIP3    H140439   4.895   1.096   7.309 -0.2176  1.0419 -0.3232
 6268TIP3    H240440   4.983   1.082   7.186 -0.8533  1.2054 -0.7990
 6269TIP3   OH240441   6.027   3.631   8.452 -0.0941  0.1528  0.5097
 6269TIP3    H140442   5.941   3.651   8.488  0.3806  0.9939  1.2309
 6269TIP3    H240443   6.030   3.535   8.449 -1.2565  0.1232 -0.0594
 6270TIP3   OH240444   0.406   2.809   7.401  0.2923 -1.0381  0.2649
 6270TIP3    H140445   0.379   2.849   7.484 -0.4487 -1.1207  0.0656
 6270TIP3    H240446   0.432   2.884   7.346 -0.1379 -0.9075  0.2384
 6271TIP3   OH240447   0.588   0.486   8.749 -0.2134  0.3165  0.2500
 6271TIP3    H140448   0.646   0.502   8.675 -0.4304  0.9942  0.2227
 6271TIP3    H240449   0.557   0.573   8.776 -3.4552 -0.1379 -1.5294
 6272TIP3   OH240450   0.999   3.949   2.383 -0.3891  0.3480 -0.1712
 6272TIP3    H140451   0.941   4.025   2.390 -0.4038  0.3972 -0.7902
 6272TIP3    H240452   1.073   3.980   2.331 -1.4479 -0.6641 -2.4006
 6273TIP3   OH240453   3.105   3.649   6.560 -0.0969 -0.5260  0.1025
 6273TIP3    H140454   3.183   3.593   6.557  0.5030  0.2994 -0.1412
 6273TIP3    H240455   3.138   3.734   6.588 -0.6478  0.2494 -1.4870
 6274TIP3   OH240456   0.403   4.755   0.123 -0.4249 -0.5263 -0.1056
 6274TIP3    H140457   0.407   4.742   0.028  0.6486  1.7326 -0.4444
 6274TIP3    H240458   0.494   4.768   0.149 -0.6988 -1.1733  1.2641
 6275TIP3   OH240459   2.100   0.671   6.933  0.9988 -0.6978 -0.5827
 6275TIP3    H140460   2.018   0.703   6.895  0.7015  0.4049  0.9396
 6275TIP3    H240461   2.075   0.592   6.980  1.3104 -1.8737 -2.2766
 6276TIP3   OH240462   2.782   6.634   8.008 -0.5523 -0.0012  0.5551
 6276TIP3    H140463   2.786   6.730   8.005 -0.0792 -0.0311  0.2291
 6276TIP3    H240464   2.762   6.615   8.100  0.6713  0.3764  0.9257
 6277TIP3   OH240465   1.840   6.752   0.104 -0.3878  0.1462  0.2515
 6277TIP3    H140466   1.829   6.847   0.100  1.2997  0.3488 -0.5015
 6277TIP3    H240467   1.897   6.738   0.180 -2.1663 -0.4882  1.5629
 6278TIP3   OH240468   6.179   4.689   8.566 -0.6010  0.3302  0.2369
 6278TIP3    H140469   6.123   4.684   8.644  0.5633 -0.3503  1.0648
 6278TIP3    H240470   6.156   4.611   8.515  0.7824 -0.9315  1.4457
 6279TIP3   OH240471   2.376   2.126   1.005 -0.3600 -0.4220 -0.1200
 6279TIP3    H140472   2.400   2.154   0.916 -1.8777  3.1451  0.4290
 6279TIP3    H240473   2.453   2.144   1.058  0.5932 -2.6687 -0.5906
 6280TIP3   OH240474   0.034   4.188   0.969  0.2143  0.0653 -0.2404
 6280TIP3    H140475  -0.001   4.175   0.881  0.6176  1.0881 -0.5623
 6280TIP3    H240476  -0.026   4.140   1.026  1.7123 -3.4673 -1.3185
 6281TIP3   OH240477   5.035   2.888   8.748  0.0057  0.0233  0.1323
 6281TIP3    H140478   5.067   2.908   8.836  1.1001  0.2430 -0.2912
 6281TIP3    H240479   5.106   2.837   8.708 -0.0903  0.6760 -0.9098
 6282TIP3   OH240480   5.728   3.973   7.306 -0.0510 -0.0485 -0.1074
 6282TIP3    H140481   5.699   3.960   7.216  0.1446 -1.9326  0.0634
 6282TIP3    H240482   5.823   3.967   7.302 -0.0960 -1.2530  0.3693
 6283TIP3   OH240483   1.785   3.375   2.298 -0.0292 -0.4579  0.4354
 6283TIP3    H140484   1.778   3.471   2.299 -0.4328 -0.4773 -0.1095
 6283TIP3    H240485   1.697   3.345   2.321 -0.3913 -0.6958 -1.1578
 6284TIP3   OH240486   0.902   2.141   1.237  0.6617 -0.3711 -0.1716
 6284TIP3    H140487   0.875   2.079   1.305 -0.3864  0.8838  0.6189
 6284TIP3    H240488   0.970   2.194   1.279 -0.5789  0.9583  0.2429
 6285TIP3   OH240489   6.076   4.537   1.726  0.3076  0.0348  0.6489
 6285TIP3    H140490   6.040   4.566   1.642  0.1987  0.7248  0.9281
 6285TIP3    H240491   6.057   4.608   1.786 -1.3467 -1.2508  1.7413
 6286TIP3   OH240492   6.480   6.726   1.073  0.2810  0.2899 -0.9553
 6286TIP3    H140493   6.434   6.693   1.151  0.8864 -1.9677 -1.4861
 6286TIP3    H240494   6.562   6.762   1.107 -0.9350  2.6636 -0.2180
 6287TIP3   OH240495   3.768   3.243   2.651  0.9673  0.2561  0.0217
 6287TIP3    H140496   3.719   3.192   2.586  0.6245  1.5862 -0.7987
 6287TIP3    H240497   3.786   3.180   2.721  0.4574 -0.9581 -0.8885
 6288TIP3   OH240498   3.255   1.893   1.608  0.3793  0.0635  0.3038
 6288TIP3    H140499   3.284   1.979   1.638  2.3614 -0.5021  0.1551
 6288TIP3    H240500   3.295   1.882   1.521  0.6987 -1.2366  0.5827
 6289TIP3   OH240501   2.661   3.762   8.657 -0.6134  0.1578 -0.3016
 6289TIP3    H140502   2.664   3.682   8.605  0.7905  0.4823 -0.7554
 6289TIP3    H240503   2.720   3.745   8.731 -1.3036  0.3085  0.2953
 6290TIP3   OH240504   6.347   0.709   6.916 -0.3968  0.1267 -0.2088
 6290TIP3    H140505   6.353   0.638   6.851 -3.9649  1.0276 -1.7846
 6290TIP3    H240506   6.364   0.788   6.866  1.5383  0.6100  1.1103
 6291TIP3   OH240507   6.503   6.330   6.795  0.3226  0.2932  0.1955
 6291TIP3    H140508   6.492   6.421   6.824 -0.1345  0.3452 -0.1268
 6291TIP3    H240509   6.428   6.284   6.834 -0.0265  0.2669 -0.4930
 6292TIP3   OH240510   4.209   2.406   0.971 -0.7359 -0.0465 -0.1760
 6292TIP3    H140511   4.192   2.395   0.877  0.4505  0.6131 -0.4910
 6292TIP3    H240512   4.190   2.499   0.988  2.0590  0.6773 -0.5027
 6293TIP3   OH240513   5.852   6.550   0.281 -0.0953  0.8454  0.3821
 6293TIP3    H140514   5.763   6.583   0.285 -0.2729  0.4386 -0.1136
 6293TIP3    H240515   5.897   6.607   0.219 -0.6555 -0.3794 -1.2229
 6294TIP3   OH240516   2.296   1.695   2.658  0.3785 -0.0554  0.2518
 6294TIP3    H140517   2.281   1.679   2.564  2.5240 -1.0306  0.0337
 6294TIP3    H240518   2.230   1.642   2.702 -0.2941 -0.0352 -0.6940
 6295TIP3   OH240519   2.624   1.040   7.021 -0.1695 -0.0237 -0.1652
 6295TIP3    H140520   2.642   1.132   7.000 -0.9514  0.0842 -0.4153
 6295TIP3    H240521   2.710   0.998   7.021  0.1115  0.5087 -1.0401
 6296TIP3   OH240522   3.713   3.683   7.341 -0.4834 -0.6239 -0.5936
 6296TIP3    H140523   3.669   3.609   7.381  0.4171 -1.5928 -1.3333
 6296TIP3    H240524   3.757   3.647   7.265  3.2105 -0.2082  1.1035
 6297TIP3   OH240525   4.270   5.516   8.255 -0.1824 -0.1279  0.2318
 6297TIP3    H140526   4.205   5.448   8.236 -1.0319  1.3089 -2.6534
 6297TIP3    H240527   4.256   5.537   8.347 -2.0798 -1.6279  0.3543
 6298TIP3   OH240528   2.467   3.936   7.411  0.0469  0.2008  0.0784
 6298TIP3    H140529   2.515   3.862   7.448 -1.2287 -1.7822 -1.9559
 6298TIP3    H240530   2.404   3.896   7.351 -2.3463  2.8195  0.6325
 6299TIP3   OH240531   3.161   5.919   6.248  0.1187 -0.1559 -0.0712
 6299TIP3    H140532   3.245   5.948   6.210  1.3908  0.1669  2.7544
 6299TIP3    H240533   3.107   5.997   6.250  0.3401  0.0090 -0.3979
 6300TIP3   OH240534   0.133   0.670   0.022 -0.0174  0.3639 -0.1340
 6300TIP3    H140535   0.115   0.577   0.034  1.8601  0.0795  1.0464
 6300TIP3    H240536   0.135   0.706   0.110  1.4296  1.0301 -0.3954
 6301TIP3   OH240537   0.589   5.233   6.599 -0.4117  0.4754 -0.3804
 6301TIP3    H140538   0.524   5.299   6.572 -1.4075 -0.8236 -1.2607
 6301TIP3    H240539   0.549   5.190   6.675 -0.3006  0.0883 -0.5399
 6302TIP3   OH240540   4.039   4.236   1.354  0.3168  0.0871 -0.5185
 6302TIP3    H140541   3.970   4.299   1.335  1.8550  1.6450 -1.1409
 6302TIP3    H240542   4.116   4.270   1.310  1.7274 -1.1430  0.8685
 6303TIP3   OH240543   1.826   4.930   0.135  0.1469 -0.4322  0.3298
 6303TIP3    H140544   1.776   4.963   0.210 -0.0268 -1.2980  0.6116
 6303TIP3    H240545   1.885   5.001   0.112 -1.1544  0.6016  0.0384
 6304TIP3   OH240546   2.988   4.796   7.224  0.3528  0.7230  0.4035
 6304TIP3    H140547   2.901   4.781   7.261  0.5896 -0.0506  0.6561
 6304TIP3    H240548   3.022   4.872   7.272 -0.3115  1.2568  0.0600
 6305TIP3   OH240549   2.252   5.686   8.303  0.0757  0.4999 -0.6799
 6305TIP3    H140550   2.265   5.766   8.253  1.0941 -0.4713 -2.0353
 6305TIP3    H240551   2.339   5.666   8.338  0.0992 -0.6358 -1.3553
 6306TIP3   OH240552   2.385   1.279   1.635  0.2216  0.3259 -0.0902
 6306TIP3    H140553   2.471   1.264   1.597  0.7768  0.8236  0.9214
 6306TIP3    H240554   2.371   1.373   1.625  0.0157  0.3263  0.1854
 6307TIP3   OH240555   4.535   5.748   7.639 -0.3853 -0.7359  0.0423
 6307TIP3    H140556   4.625   5.771   7.617  0.5744 -4.0556 -0.0939
 6307TIP3    H240557   4.481   5.809   7.588  1.7627  0.7657 -0.5471
 6308TIP3   OH240558   0.376   4.798   8.696 -0.3198  0.3838  0.2817
 6308TIP3    H140559   0.331   4.718   8.670 -1.7291  0.8769  1.0812
 6308TIP3    H240560   0.459   4.796   8.648 -0.9832 -0.8018 -0.8703
 6309TIP3   OH240561   3.440   0.650   0.685 -0.1916 -0.2538  0.2953
 6309TIP3    H140562   3.388   0.582   0.641  0.3107 -0.8512  0.6123
 6309TIP3    H240563   3.531   0.624   0.670 -0.0064  0.0740  0.8492
 6310TIP3   OH240564   3.698   4.437   0.359 -0.3022  0.1659 -0.2221
 6310TIP3    H140565   3.757   4.481   0.298  0.0969  0.4316  0.3459
 6310TIP3    H240566   3.757   4.395   0.422 -0.6930  1.8738  1.3737
 6311TIP3   OH240567   4.711   3.590   1.121 -0.4246 -0.0155 -0.2394
 6311TIP3    H140568   4.633   3.637   1.092  0.3850  1.6063  0.0820
 6311TIP3    H240569   4.717   3.514   1.063 -2.5047 -0.4712  0.0567
 6312TIP3   OH240570   0.563   6.091   7.124  0.2275  0.1201  0.1826
 6312TIP3    H140571   0.620   6.156   7.165 -2.2543  2.0354  0.8730
 6312TIP3    H240572   0.523   6.138   7.050 -0.0563 -1.3284 -0.6211
 6313TIP3   OH240573   5.448   0.998   0.389 -0.2074 -0.1965  0.1635
 6313TIP3    H140574   5.517   1.041   0.440  0.4555 -0.8665 -0.1410
 6313TIP3    H240575   5.446   0.909   0.423 -0.1566 -0.4856 -0.5809
 6314TIP3   OH240576   4.730   5.922   8.357 -0.0111  0.2064  0.1465
 6314TIP3    H140577   4.785   5.902   8.282 -0.8136  0.4582 -0.5279
 6314TIP3    H240578   4.745   6.014   8.375 -0.1373  0.2532  0.0167
 6315TIP3   OH240579   6.735   4.729   0.952  0.1461  0.5152  0.0825
 6315TIP3    H140580   6.789   4.778   1.015 -0.9672  0.4022  1.1663
 6315TIP3    H240581   6.734   4.640   0.987 -0.7490  0.5210  0.0953
 6316TIP3   OH240582   6.815   2.122   6.763 -0.0417  0.0377 -0.6166
 6316TIP3    H140583   6.756   2.056   6.725  0.0485 -0.3755 -0.0496
 6316TIP3    H240584   6.771   2.206   6.746 -0.8330 -0.2676 -0.1456
 6317TIP3   OH240585   1.961   0.446   0.989 -0.3919 -0.4164 -0.0041
 6317TIP3    H140586   2.041   0.491   1.018  0.0271 -1.3621  0.3747
 6317TIP3    H240587   1.926   0.407   1.069 -2.2539  1.4682  0.1824
 6318TIP3   OH240588   3.389   4.711   7.760 -0.7004  0.0744  0.1958
 6318TIP3    H140589   3.386   4.745   7.849  0.0930  1.9284 -0.4407
 6318TIP3    H240590   3.357   4.783   7.705  2.0376  0.2995 -1.2958
 6319TIP3   OH240591   2.579   3.331   6.606 -0.5857  0.0525  0.1430
 6319TIP3    H140592   2.612   3.267   6.669 -0.7984  0.4992  0.7144
 6319TIP3    H240593   2.629   3.411   6.624 -0.3212  0.0600 -0.5673
 6320TIP3   OH240594   0.299   6.598   7.887  0.4916 -0.2179  0.2665
 6320TIP3    H140595   0.297   6.596   7.791  0.5488 -1.7350  0.2725
 6320TIP3    H240596   0.366   6.664   7.908 -0.9844  1.6586 -0.6723
 6321TIP3   OH240597   4.265   3.942   1.447 -0.0855  0.5266 -0.3599
 6321TIP3    H140598   4.283   4.028   1.484 -0.2500  0.3244  0.2003
 6321TIP3    H240599   4.351   3.900   1.442 -0.2830 -0.2070  1.7336
 6322TIP3   OH240600   4.291   3.206   0.682  0.1974 -0.0342  0.2155
 6322TIP3    H140601   4.199   3.207   0.655  0.3684 -2.0205 -0.6137
 6322TIP3    H240602   4.338   3.180   0.603  1.3762  0.0213  0.8876
 6323TIP3   OH240603   2.035   0.586   1.464  0.5206 -0.3338  0.1749
 6323TIP3    H140604   2.042   0.628   1.379 -0.0646 -0.4167  0.0783
 6323TIP3    H240605   2.115   0.611   1.511  0.3649  0.5480 -0.0206
 6324TIP3   OH240606   2.122   0.917   7.424  0.0506  0.2881 -0.2379
 6324TIP3    H140607   2.133   0.971   7.503  0.0200 -0.0809  0.0194
 6324TIP3    H240608   2.127   0.827   7.455  1.4211  0.1349 -0.8532
 6325TIP3   OH240609   4.077   4.175   8.660  0.2463 -0.3005  0.3518
 6325TIP3    H140610   4.171   4.182   8.646  0.3004 -1.4886 -0.0213
 6325TIP3    H240611   4.049   4.264   8.680  1.0060  0.6255 -2.2734
 6326TIP3   OH240612   1.130   2.899   1.385  0.3737  0.2887 -0.4769
 6326TIP3    H140613   1.068   2.919   1.315 -1.4333  1.2187  1.2715
 6326TIP3    H240614   1.106   2.959   1.456  1.1036 -1.6018  1.4911
 6327TIP3   OH240615   4.356   3.929   1.104 -0.1788 -0.1885  0.1933
 6327TIP3    H140616   4.264   3.919   1.126 -0.1831 -0.8832 -0.0878
 6327TIP3    H240617   4.401   3.935   1.188 -0.2481 -2.2788  0.4329
 6328TIP3   OH240618   1.947   0.980   2.541  0.2868 -0.3424  0.0340
 6328TIP3    H140619   1.873   1.035   2.567  0.9054 -0.0584  1.2761
 6328TIP3    H240620   2.022   1.040   2.541  1.1106 -1.3116  2.1730
 6329TIP3   OH240621   2.839   0.169   6.940  0.5934 -0.4655  0.6701
 6329TIP3    H140622   2.843   0.149   7.033 -1.3629  0.7909  1.0614
 6329TIP3    H240623   2.794   0.093   6.901 -2.6091  0.8582  1.4762
 6330TIP3   OH240624   2.795   6.742   1.162 -0.4336 -0.0910  0.3552
 6330TIP3    H140625   2.812   6.697   1.244 -1.9321 -0.2110  0.6293
 6330TIP3    H240626   2.753   6.676   1.106 -0.2255  0.2293 -0.1938
 6331TIP3   OH240627   5.090   4.957   8.844 -0.1749  0.5186  0.5229
 6331TIP3    H140628   5.023   5.025   8.835  0.0364  0.5616 -1.1717
 6331TIP3    H240629   5.167   4.993   8.800  0.3252 -0.3397  0.6674
 6332TIP3   OH240630   4.374   6.327   0.658 -0.0446  0.2883 -0.5005
 6332TIP3    H140631   4.400   6.324   0.566  1.4376 -0.3539 -0.0811
 6332TIP3    H240632   4.284   6.294   0.658 -0.2000  0.6681 -1.7633
 6333TIP3   OH240633   2.316   1.129   1.875 -0.0228  0.6285 -0.1946
 6333TIP3    H140634   2.399   1.161   1.911  0.1098 -0.9098  0.9884
 6333TIP3    H240635   2.296   1.190   1.804  1.8484  1.3415 -0.1827
 6334TIP3   OH240636   2.591   6.038   1.075 -0.0198 -0.1099  0.6136
 6334TIP3    H140637   2.586   6.112   1.015  0.0275  0.4823  1.3185
 6334TIP3    H240638   2.506   5.995   1.068 -0.1315  0.1464  0.3671
 6335TIP3   OH240639   5.712   6.029   2.125  0.2394  0.0343  0.5308
 6335TIP3    H140640   5.794   5.979   2.133  0.9413  0.6605 -1.9765
 6335TIP3    H240641   5.696   6.035   2.031 -1.8298  1.3747  0.8946
 6336TIP3   OH240642   6.041   5.050   1.503  0.2077  0.3997 -0.2528
 6336TIP3    H140643   5.978   5.056   1.431  1.2905 -1.1887 -1.4132
 6336TIP3    H240644   5.992   5.008   1.574 -0.9742  2.3024  0.1297
 6337TIP3   OH240645   0.471   2.888   2.383 -0.1865 -0.4069  0.0205
 6337TIP3    H140646   0.398   2.933   2.341 -0.1351 -0.6773 -0.3685
 6337TIP3    H240647   0.476   2.803   2.338 -3.0077 -2.6653  3.4813
 6338TIP3   OH240648   1.677   4.748   0.520 -0.2618  0.0342 -0.6892
 6338TIP3    H140649   1.592   4.788   0.539 -0.0549 -0.2482  1.0038
 6338TIP3    H240650   1.691   4.764   0.427 -0.3482  3.5752 -0.2061
 6339TIP3   OH240651   0.834   5.196   7.333 -0.5252 -0.4873  0.2554
 6339TIP3    H140652   0.799   5.205   7.421  0.1520  0.2367  0.4633
 6339TIP3    H240653   0.916   5.246   7.334  0.4333 -1.9751 -0.2582
 6340TIP3   OH240654   2.097   6.081   0.106  0.2110 -0.0508 -0.0263
 6340TIP3    H140655   2.192   6.094   0.111  0.4706 -0.8889 -1.8557
 6340TIP3    H240656   2.061   6.170   0.106  1.2883  0.5001 -2.7285
 6341TIP3   OH240657   1.335   2.045   8.767 -0.4185 -0.5515 -0.1827
 6341TIP3    H140658   1.256   2.054   8.821 -0.6324 -0.0477 -0.5768
 6341TIP3    H240659   1.401   2.095   8.815 -0.8322  0.6366 -0.8191
 6342TIP3   OH240660   0.187   5.354   1.834  0.2164  0.7789 -0.2570
 6342TIP3    H140661   0.151   5.441   1.848  1.3613  0.8698  2.7013
 6342TIP3    H240662   0.146   5.299   1.901  1.5910 -0.2989 -0.2412
 6343TIP3   OH240663   3.711   3.009   7.330  0.3396 -0.6081  0.1578
 6343TIP3    H140664   3.679   2.941   7.270 -1.0281  0.6041 -0.5544
 6343TIP3    H240665   3.719   2.965   7.414 -2.5405 -1.2381  0.2085
 6344TIP3   OH240666   6.767   0.610   8.103 -0.2355 -0.0099  0.6726
 6344TIP3    H140667   6.832   0.608   8.173 -0.3741  1.5646  0.8981
 6344TIP3    H240668   6.811   0.569   8.028 -0.0926 -1.7047  1.6532
 6345TIP3   OH240669   5.127   5.959   1.119  0.1061 -0.0407  0.3215
 6345TIP3    H140670   5.182   6.037   1.130  0.9151 -0.5454 -0.0827
 6345TIP3    H240671   5.185   5.894   1.080 -0.7290 -0.6540  0.0793
 6346TIP3   OH240672   5.601   5.234   2.240 -0.0561  0.3111 -0.1237
 6346TIP3    H140673   5.586   5.190   2.324 -0.4519 -0.5774 -0.6400
 6346TIP3    H240674   5.526   5.207   2.186  1.9031 -2.0458 -1.8987
 6347TIP3   OH240675   0.234   6.144   7.846 -0.1039 -0.5199  0.3546
 6347TIP3    H140676   0.323   6.132   7.812 -0.0107  1.6947 -0.3490
 6347TIP3    H240677   0.192   6.059   7.834  1.7313 -1.4617  0.1810
 6348TIP3   OH240678   0.419   5.882   0.057 -0.3229  0.0125  0.3325
 6348TIP3    H140679   0.421   5.977   0.061 -1.3722  0.0222  1.2868
 6348TIP3    H240680   0.359   5.856   0.127  0.3007 -1.3726  0.4006
 6349TIP3   OH240681   5.394   4.869   1.490 -0.3950 -0.2602  0.2419
 6349TIP3    H140682   5.452   4.895   1.561 -0.5917 -2.3052  1.2389
 6349TIP3    H240683   5.305   4.879   1.525 -0.5268 -0.4292 -0.0340
 6350TIP3   OH240684   1.425   1.417   0.491  0.5599 -0.1807 -0.0171
 6350TIP3    H140685   1.520   1.406   0.482  0.5708 -1.5902  1.4818
 6350TIP3    H240686   1.415   1.472   0.569  0.1416 -1.3902  0.8144
 6351TIP3   OH240687   1.819   5.102   1.525  0.0694 -0.3542  0.2099
 6351TIP3    H140688   1.827   5.175   1.464 -2.1167 -0.6575 -0.5086
 6351TIP3    H240689   1.740   5.121   1.576  0.8004 -1.0437  1.6645
 6352TIP3   OH240690   3.115   6.328   7.780  0.2294 -0.4526  1.0573
 6352TIP3    H140691   3.124   6.279   7.861 -1.0280  1.2528  2.3111
 6352TIP3    H240692   3.105   6.419   7.808 -1.7371  0.0171 -0.8953
 6353TIP3   OH240693   4.453   5.062   1.153 -0.5024 -0.3972  0.2296
 6353TIP3    H140694   4.365   5.028   1.168 -1.1768  0.3242 -1.7455
 6353TIP3    H240695   4.475   5.031   1.065  1.0431 -0.2033  0.5296
 6354TIP3   OH240696   1.104   1.310   7.424  0.5414  0.0427  0.2171
 6354TIP3    H140697   1.106   1.345   7.335 -1.9341 -1.3566 -0.4810
 6354TIP3    H240698   1.167   1.238   7.423 -0.1796 -0.5984 -0.7303
 6355TIP3   OH240699   3.910   0.135   0.362 -0.2681  0.0209 -0.2050
 6355TIP3    H140700   3.882   0.221   0.393  1.0625  0.0482  1.0322
 6355TIP3    H240701   3.831   0.096   0.325 -1.3939  0.9602  1.0976
 6356TIP3   OH240702   5.562   0.090   1.437  0.1206  0.2302 -0.2308
 6356TIP3    H140703   5.617   0.115   1.363  0.4064 -0.7965 -0.3844
 6356TIP3    H240704   5.623   0.057   1.503 -0.0947  1.4803  0.6378
 6357TIP3   OH240705   3.443   0.684   7.620 -1.0488 -0.8523  0.7891
 6357TIP3    H140706   3.470   0.662   7.531 -0.3335  2.8765 -0.1040
 6357TIP3    H240707   3.353   0.715   7.610 -0.6324  0.5290  1.1192
 6358TIP3   OH240708   1.889   2.058   8.293 -0.4045  0.4909  0.4233
 6358TIP3    H140709   1.949   2.005   8.242 -0.8259  1.0112 -0.6395
 6358TIP3    H240710   1.859   2.000   8.363  0.7075 -0.0153  0.4986
 6359TIP3   OH240711   3.137   3.440   8.047  0.5895  0.0668 -0.0643
 6359TIP3    H140712   3.125   3.470   8.137 -1.4348  1.0195 -0.6066
 6359TIP3    H240713   3.081   3.363   8.040 -1.4159  1.5365 -1.1899
 6360TIP3   OH240714   2.329   1.856   6.687 -0.5611  0.1933  0.2819
 6360TIP3    H140715   2.275   1.863   6.609  1.1909  0.4858 -0.9627
 6360TIP3    H240716   2.384   1.780   6.671  3.0866  2.7974 -1.0379
 6361TIP3   OH240717   4.600   2.854   0.325 -0.4526  0.3630  0.3628
 6361TIP3    H140718   4.617   2.790   0.257 -0.7761  0.6537 -0.0006
 6361TIP3    H240719   4.510   2.835   0.353  0.2194 -0.7910  1.8508
 6362TIP3   OH240720   4.733   1.402   7.562 -0.1693 -0.2949 -0.4742
 6362TIP3    H140721   4.660   1.447   7.607  1.4216 -0.6718  2.8251
 6362TIP3    H240722   4.701   1.314   7.547 -0.6334 -0.2799  0.3617
 6363TIP3   OH240723   2.775   5.883   7.899 -0.2194  0.2542 -0.3605
 6363TIP3    H140724   2.855   5.830   7.892 -0.9695 -0.8625 -0.6911
 6363TIP3    H240725   2.780   5.944   7.826  0.9885  1.1273  0.4172
 6364TIP3   OH240726   1.845   2.577   0.678  0.6490  0.6328 -0.4484
 6364TIP3    H140727   1.938   2.578   0.703  0.5089  0.0572  0.1140
 6364TIP3    H240728   1.807   2.505   0.728  0.0916  0.2469 -1.3827
 6365TIP3   OH240729   0.094   2.160   7.549  0.0771 -0.0727  0.1922
 6365TIP3    H140730   0.049   2.121   7.474 -0.6243 -0.7395  0.9513
 6365TIP3    H240731   0.179   2.117   7.551 -0.2371 -0.6927  0.2988
 6366TIP3   OH240732   4.283   2.100   0.988 -0.1711  0.0624  0.4430
 6366TIP3    H140733   4.228   2.028   0.958 -1.0765  1.1662 -0.6439
 6366TIP3    H240734   4.231   2.179   0.974  1.2421  1.0484  0.4664
 6367TIP3   OH240735   1.586   6.349   8.487  0.7964 -0.4712  0.5494
 6367TIP3    H140736   1.622   6.415   8.427  0.5271  1.2449  2.2075
 6367TIP3    H240737   1.493   6.347   8.467  1.0507 -1.7277 -0.7265
 6368TIP3   OH240738   5.611   6.527   1.216 -0.3758  0.1922  0.4817
 6368TIP3    H140739   5.623   6.598   1.278 -1.9689  0.1190  0.9263
 6368TIP3    H240740   5.596   6.449   1.270  0.1726 -0.2596  0.0017
 6369TIP3   OH240741   5.348   0.265   7.244  0.7373 -0.2847  0.0655
 6369TIP3    H140742   5.269   0.262   7.190  1.8481  0.3637 -1.6729
 6369TIP3    H240743   5.390   0.181   7.230  0.9467 -0.1807  0.0689
 6370TIP3   OH240744   6.357   1.802   7.631 -0.3495 -0.1462 -0.0474
 6370TIP3    H140745   6.425   1.855   7.589 -0.9267  0.2093 -0.5495
 6370TIP3    H240746   6.285   1.863   7.646  0.0999 -0.0919  2.1426
 6371TIP3   OH240747   5.872   5.854   1.226  0.2599  0.5279  0.6647
 6371TIP3    H140748   5.958   5.896   1.239  1.1395 -0.7016 -0.8361
 6371TIP3    H240749   5.881   5.768   1.267  0.4047 -0.3069 -1.0252
 6372TIP3   OH240750   4.016   2.487   7.438 -0.2071  0.3838 -0.6568
 6372TIP3    H140751   3.945   2.534   7.396  0.1217  1.5931  0.0915
 6372TIP3    H240752   4.058   2.438   7.367 -0.8596  0.8421 -1.3697
 6373TIP3   OH240753   5.166   1.741   7.759 -0.4057 -0.2221  0.2795
 6373TIP3    H140754   5.178   1.829   7.723  0.4934  0.7292  2.7274
 6373TIP3    H240755   5.081   1.744   7.801 -0.0505 -0.2756  1.0065
 6374TIP3   OH240756   3.486   1.868   7.882  0.6159 -0.1588  0.3079
 6374TIP3    H140757   3.477   1.916   7.965 -2.2153  0.6066 -0.3531
 6374TIP3    H240758   3.489   1.936   7.815 -2.6270 -0.7266 -0.5853
 6375TIP3   OH240759   2.855   3.094   8.394  0.2998  0.7782  0.0621
 6375TIP3    H140760   2.931   3.118   8.447  0.0115  0.4235  0.6509
 6375TIP3    H240761   2.805   3.034   8.449 -0.7371  1.4883 -0.0703
 6376TIP3   OH240762   3.871   5.390   7.408 -0.0357 -0.4313  0.0525
 6376TIP3    H140763   3.932   5.450   7.365 -1.3979  0.5342 -0.6184
 6376TIP3    H240764   3.797   5.383   7.348 -1.8336  0.6418  1.9989
 6377TIP3   OH240765   4.081   5.359   8.117 -0.4375  0.5858 -0.2827
 6377TIP3    H140766   4.017   5.311   8.065 -0.5964  1.4361 -0.9088
 6377TIP3    H240767   4.092   5.308   8.197 -0.0240 -0.8831 -1.2447
 6378TIP3   OH240768   0.977   5.969   0.133 -0.3459  0.0094 -0.6472
 6378TIP3    H140769   1.053   5.950   0.079 -0.3843 -0.6083 -0.4842
 6378TIP3    H240770   0.995   5.927   0.217 -0.9058 -0.2249 -0.6408
 6379TIP3   OH240771   1.887   2.470   7.575  0.0334 -0.2837  0.0493
 6379TIP3    H140772   1.952   2.523   7.620 -0.9766  0.0657  1.1619
 6379TIP3    H240773   1.833   2.433   7.645 -0.3893 -1.3336 -0.7915
 6380TIP3   OH240774   2.239   5.362   8.663  0.0839  0.0382 -0.2211
 6380TIP3    H140775   2.284   5.388   8.743  1.2006 -0.4908 -0.6532
 6380TIP3    H240776   2.161   5.417   8.659  1.2284  1.7342  0.0091
 6381TIP3   OH240777   0.927   6.238   0.193 -0.2989 -0.0050  0.0788
 6381TIP3    H140778   0.968   6.152   0.183  0.8392  0.7049 -1.8099
 6381TIP3    H240779   0.993   6.300   0.161 -2.1161  1.3432 -1.2325
 6382TIP3   OH240780   1.547   1.515   2.140 -0.1454 -0.5714 -0.3952
 6382TIP3    H140781   1.453   1.523   2.152  0.0840 -0.5247  1.7371
 6382TIP3    H240782   1.574   1.601   2.107 -0.8166 -0.5711 -0.9811
 6383TIP3   OH240783   2.959   2.491   0.889 -0.2440  0.2303  0.6072
 6383TIP3    H140784   2.916   2.554   0.947 -0.1114  1.4357 -0.5564
 6383TIP3    H240785   2.970   2.413   0.943 -1.1183  0.9307  1.8595
 6384TIP3   OH240786   0.467   6.579   2.282 -0.7328  0.2852 -0.3193
 6384TIP3    H140787   0.507   6.492   2.286 -1.3077 -0.0447 -1.4420
 6384TIP3    H240788   0.535   6.635   2.244 -0.6759  0.1489 -0.4177
 6385TIP3   OH240789   1.336   1.394   1.885 -0.2559  0.3127  0.2977
 6385TIP3    H140790   1.321   1.481   1.848 -0.7704  0.7554  1.4884
 6385TIP3    H240791   1.304   1.400   1.975 -0.7382 -1.2526  0.2675
 6386TIP3   OH240792   5.714   4.667   0.955 -0.7136 -0.2262  0.6945
 6386TIP3    H140793   5.720   4.720   0.876 -0.1982 -2.5926 -0.9353
 6386TIP3    H240794   5.628   4.624   0.949  0.0932 -1.8613  0.4174
 6387TIP3   OH240795   6.626   5.067   0.524 -0.2279 -0.2419 -0.1405
 6387TIP3    H140796   6.715   5.036   0.541  0.0306 -0.0780 -1.1214
 6387TIP3    H240797   6.637   5.134   0.456 -0.9102  1.0529  0.9769
 6388TIP3   OH240798   4.099   1.020   1.416 -0.7371 -0.0455 -0.1771
 6388TIP3    H140799   4.074   1.023   1.508  0.5148  1.2294  0.1617
 6388TIP3    H240800   4.190   0.988   1.417  0.1600  2.2668 -0.7155
 6389TIP3   OH240801   0.063   0.230   2.016 -0.2295 -0.7365 -0.4804
 6389TIP3    H140802   0.051   0.235   2.111 -1.4794 -1.8009 -0.5576
 6389TIP3    H240803   0.151   0.264   2.001  0.2957 -1.2919  1.1414
 6390TIP3   OH240804   0.422   5.173   7.457 -0.1195  0.4576 -0.1860
 6390TIP3    H140805   0.382   5.158   7.372 -0.9297  0.2098  0.2271
 6390TIP3    H240806   0.468   5.091   7.476 -0.3788  0.3157 -0.1562
 6391TIP3   OH240807   1.874   5.168   0.443  0.0729  0.3573  0.2718
 6391TIP3    H140808   1.886   5.135   0.532 -1.5486 -0.5685  0.1763
 6391TIP3    H240809   1.867   5.263   0.454 -0.2517  0.2410  1.1399
 6392TIP3   OH240810   3.574   5.265   8.316  0.3004 -0.2425 -0.3194
 6392TIP3    H140811   3.484   5.277   8.287  0.2721 -1.2510 -0.6952
 6392TIP3    H240812   3.606   5.192   8.264  1.7964  0.9852 -1.2156
 6393TIP3   OH240813   1.652   3.471   6.844  0.2608 -0.5014  0.4262
 6393TIP3    H140814   1.632   3.483   6.751  0.9681 -0.5588  0.2559
 6393TIP3    H240815   1.710   3.394   6.846 -3.4293 -3.5526  1.3753
 6394TIP3   OH240816   6.221   0.751   0.682  0.0202 -0.1758 -0.6634
 6394TIP3    H140817   6.185   0.680   0.734 -0.6548 -0.8266 -1.9905
 6394TIP3    H240818   6.306   0.718   0.652 -0.0076 -0.1642 -0.7545
 6395TIP3   OH240819   2.629   6.822   0.422  0.1845 -0.0188  0.4313
 6395TIP3    H140820   2.680   6.877   0.482  0.4584  1.2098 -0.8756
 6395TIP3    H240821   2.693   6.760   0.386 -0.3331 -2.0640  2.7512
 6396TIP3   OH240822   6.493   4.352   7.649 -0.5613 -0.3318  0.4887
 6396TIP3    H140823   6.563   4.289   7.632  0.0699  0.5300 -0.1769
 6396TIP3    H240824   6.518   4.430   7.599 -1.6434  0.2312  0.8020
 6397TIP3   OH240825   1.654   5.220   7.636 -0.2117  0.2524 -0.1348
 6397TIP3    H140826   1.633   5.302   7.591  0.7794 -0.0724 -1.2453
 6397TIP3    H240827   1.672   5.246   7.726  0.2952  1.2920 -0.5151
 6398TIP3   OH240828   4.377   4.399   0.588 -0.0587 -0.8569  0.3981
 6398TIP3    H140829   4.407   4.453   0.661  0.0013  0.2356 -0.4280
 6398TIP3    H240830   4.409   4.311   0.609  1.1780 -0.2841  0.9887
 6399TIP3   OH240831   1.652   3.752   7.867 -0.1291  0.1535 -0.1847
 6399TIP3    H140832   1.716   3.710   7.925 -0.2374  0.5160  0.2040
 6399TIP3    H240833   1.625   3.683   7.807 -0.2476 -0.3151  0.3997
 6400TIP3   OH240834   4.557   2.037   1.005  0.3323 -0.3722 -0.1089
 6400TIP3    H140835   4.605   2.119   1.015 -0.0254 -0.1591 -0.1245
 6400TIP3    H240836   4.465   2.062   1.014  0.2005 -0.7124 -0.5158
 6401TIP3   OH240837   1.140   4.944   8.415  0.3941 -0.1895  0.2041
 6401TIP3    H140838   1.134   4.950   8.319 -0.1813  1.1176  0.2995
 6401TIP3    H240839   1.080   5.011   8.447  1.2788  0.0430  1.4691
 6402TIP3   OH240840   2.469   3.456   1.677 -0.5505  0.2576 -0.4149
 6402TIP3    H140841   2.510   3.408   1.749 -1.3680  2.6979  1.8735
 6402TIP3    H240842   2.523   3.437   1.601  1.3256 -1.2176  1.1785
 6403TIP3   OH240843   1.271   0.387   8.508  0.1394  0.2210  0.1818
 6403TIP3    H140844   1.264   0.300   8.549 -2.2148  0.6367  0.8271
 6403TIP3    H240845   1.350   0.425   8.547  0.9596 -1.4400  0.2326
 6404TIP3   OH240846   6.654   2.535   7.913 -0.0945 -0.6572  0.1637
 6404TIP3    H140847   6.613   2.610   7.870  0.5032 -0.4469 -0.0508
 6404TIP3    H240848   6.705   2.492   7.844  0.2740 -0.7505  0.4848
 6405TIP3   OH240849   0.017   1.512   8.695  0.1143  0.0785  0.0319
 6405TIP3    H140850  -0.016   1.583   8.751  1.2817 -0.7826  1.9245
 6405TIP3    H240851  -0.037   1.437   8.718  0.9225 -0.4047  0.3889
 6406TIP3   OH240852   0.026   5.983   1.086  0.0054  0.9408 -0.3021
 6406TIP3    H140853   0.119   6.006   1.081 -0.6878  4.1090 -0.7223
 6406TIP3    H240854   0.006   5.943   1.001  0.8631  0.6680 -0.3842
 6407TIP3   OH240855   2.367   4.753   6.882  0.2181 -0.0276  0.4472
 6407TIP3    H140856   2.378   4.722   6.792 -0.7229  2.3955 -0.5838
 6407TIP3    H240857   2.451   4.793   6.904 -0.3394  1.7067 -0.3926
 6408TIP3   OH240858   5.099   0.132   1.401  0.6586 -0.0338  0.0631
 6408TIP3    H140859   5.165   0.180   1.450  0.3643  1.6179 -1.0989
 6408TIP3    H240860   5.024   0.190   1.397 -0.0186 -0.9241 -0.6641
 6409TIP3   OH240861   1.820   4.798   1.145 -0.2932  0.2701  0.3061
 6409TIP3    H140862   1.900   4.819   1.193 -0.1110 -0.0616  0.1513
 6409TIP3    H240863   1.792   4.714   1.182 -1.1928  0.9109  1.1520
 6410TIP3   OH240864   3.361   6.003   1.654  0.5815  0.3483 -0.0059
 6410TIP3    H140865   3.291   6.060   1.620  0.6206 -0.4747 -1.5606
 6410TIP3    H240866   3.314   5.928   1.690  0.6203  0.2926 -0.0718
 6411TIP3   OH240867   4.643   5.443   6.324  0.4050 -0.0788 -0.0646
 6411TIP3    H140868   4.682   5.355   6.316 -0.4897 -0.6918  1.7054
 6411TIP3    H240869   4.555   5.427   6.359  0.0970  1.5206 -0.0334
 6412TIP3   OH240870   5.084   1.869   6.731 -0.3680 -0.0225  0.1676
 6412TIP3    H140871   5.013   1.808   6.711 -0.3189  0.6267 -2.3013
 6412TIP3    H240872   5.054   1.954   6.697  1.5327  0.2755 -0.9292
 6413TIP3   OH240873   4.125   2.577   0.267 -0.4605  0.7184 -0.0941
 6413TIP3    H140874   4.065   2.643   0.232 -2.3371 -1.2837 -0.9139
 6413TIP3    H240875   4.176   2.547   0.192 -0.0287  0.8160  0.1558
 6414TIP3   OH240876   0.112   3.812   6.136 -0.4005 -0.0173  0.6044
 6414TIP3    H140877   0.143   3.891   6.092  0.2218 -0.5302  0.0984
 6414TIP3    H240878   0.184   3.750   6.126 -1.4728 -1.1666 -0.3519
 6415TIP3   OH240879   0.732   3.169   1.896 -0.0816  0.3176 -0.0756
 6415TIP3    H140880   0.728   3.166   1.991 -2.1289 -0.1725 -0.1240
 6415TIP3    H240881   0.825   3.159   1.875  0.1246 -2.6488  1.7702
 6416TIP3   OH240882   1.453   2.684   1.278  0.3771  0.3016 -0.0327
 6416TIP3    H140883   1.483   2.604   1.321 -0.8220  0.6317  1.5019
 6416TIP3    H240884   1.384   2.654   1.218 -0.9308  0.2817  1.4344
 6417TIP3   OH240885   0.656   1.463   8.535 -0.0351  0.6509 -0.0792
 6417TIP3    H140886   0.684   1.551   8.511 -0.7290  1.0566  0.5515
 6417TIP3    H240887   0.624   1.472   8.625 -0.7415 -0.0994 -0.2445
 6418TIP3   OH240888   2.674   2.169   1.837  0.4432 -0.0418  0.4665
 6418TIP3    H140889   2.617   2.173   1.760  0.8612  0.8847  0.1886
 6418TIP3    H240890   2.753   2.125   1.806  0.0294 -1.0203  0.7649
 6419TIP3   OH240891   3.020   4.205   0.065 -0.0164 -0.0564  0.0769
 6419TIP3    H140892   2.995   4.295   0.042  0.9266  0.1935 -0.0350
 6419TIP3    H240893   2.953   4.176   0.125 -0.4002  0.6899  0.0238
 6420TIP3   OH240894   6.684   1.702   1.740 -0.4686 -0.4061 -0.5244
 6420TIP3    H140895   6.672   1.617   1.783  2.7571 -0.4160  0.6269
 6420TIP3    H240896   6.712   1.760   1.811 -1.3496  1.3222 -1.5382
 6421TIP3   OH240897   4.361   4.538   7.313 -0.1128 -0.3867  0.4600
 6421TIP3    H140898   4.340   4.520   7.404 -0.5371 -1.7559  0.1040
 6421TIP3    H240899   4.276   4.552   7.271 -0.0572 -1.6334 -0.0957
 6422TIP3   OH240900   3.318   0.335   7.664  0.1079  0.9722 -0.3342
 6422TIP3    H140901   3.386   0.321   7.598 -1.2146  0.0191 -1.5632
 6422TIP3    H240902   3.239   0.354   7.613 -0.6423  1.6518  1.0395
 6423TIP3   OH240903   3.842   0.754   2.021 -0.0207  0.2617  0.1092
 6423TIP3    H140904   3.837   0.798   1.936  1.4680 -2.9381 -1.8405
 6423TIP3    H240905   3.921   0.789   2.062  0.9382 -0.2104 -1.2378
 6424TIP3   OH240906   4.032   4.450   0.929 -0.2538 -0.2405  0.4531
 6424TIP3    H140907   4.125   4.446   0.949  0.0612 -0.1460 -0.8872
 6424TIP3    H240908   4.028   4.484   0.840 -1.6735  2.8683  1.5525
 6425TIP3   OH240909   3.812   2.557   0.122  0.4540 -0.4534  0.0775
 6425TIP3    H140910   3.858   2.499   0.062  1.5882  0.3769  0.1043
 6425TIP3    H240911   3.865   2.556   0.201 -0.5703 -0.8754  0.7719
 6426TIP3   OH240912   2.583   3.344   7.359 -0.1631  0.2807 -0.7126
 6426TIP3    H140913   2.605   3.429   7.323 -0.1175  0.8628  0.6196
 6426TIP3    H240914   2.661   3.290   7.342  0.2499  0.8283 -0.5925
 6427TIP3   OH240915   6.261   0.854   0.059 -0.3631  0.1792 -0.4002
 6427TIP3    H140916   6.286   0.764   0.038 -0.3436 -0.4410  1.9756
 6427TIP3    H240917   6.165   0.851   0.063 -0.4074  0.4830 -1.1582
 6428TIP3   OH240918   2.694   3.311   8.369  0.0921 -0.4135 -0.1982
 6428TIP3    H140919   2.605   3.278   8.383 -0.1875  0.5649  0.4172
 6428TIP3    H240920   2.748   3.232   8.364 -0.8614 -1.0398 -1.0366
 6429TIP3   OH240921   1.535   3.018   6.874  0.0957  0.6569  0.1273
 6429TIP3    H140922   1.592   2.943   6.892  0.3848  0.6451 -0.7600
 6429TIP3    H240923   1.581   3.067   6.805 -0.7155  0.9311 -0.2337
 6430TIP3   OH240924   6.623   6.402   7.804 -0.3806 -0.5368  0.0590
 6430TIP3    H140925   6.534   6.385   7.774  0.5704 -0.6914 -3.0133
 6430TIP3    H240926   6.651   6.480   7.756  1.3601 -0.8868  0.4124
 6431TIP3   OH240927   4.724   1.074   7.336 -0.2873 -0.0351  0.4177
 6431TIP3    H140928   4.675   0.997   7.306  1.2948 -0.3854 -1.4456
 6431TIP3    H240929   4.674   1.149   7.303 -0.7845 -0.3132  0.5273
 6432TIP3   OH240930   3.266   2.752   8.224  0.5889 -0.0185  0.0050
 6432TIP3    H140931   3.216   2.675   8.197  0.2124 -0.0971  0.8959
 6432TIP3    H240932   3.235   2.770   8.313  0.1898  1.5382 -0.4196
 6433TIP3   OH240933   5.820   4.409   7.860  0.0260 -0.6283  0.0939
 6433TIP3    H140934   5.785   4.490   7.896  0.5557 -0.2565 -0.2171
 6433TIP3    H240935   5.759   4.341   7.890 -1.6815  0.1441 -1.4204
 6434TIP3   OH240936   2.913   2.398   0.144 -0.1267 -0.3807  0.4019
 6434TIP3    H140937   2.889   2.323   0.197  0.4645 -1.8080 -1.2562
 6434TIP3    H240938   2.838   2.411   0.085  0.2698 -0.4641 -0.1340
 6435TIP3   OH240939   2.904   2.878   1.781  0.4834 -0.4780  0.4216
 6435TIP3    H140940   2.860   2.963   1.780  0.9129 -0.1686  2.6238
 6435TIP3    H240941   2.996   2.898   1.796  0.6688 -1.3048  0.4605
 6436TIP3   OH240942   3.940   3.545   1.014 -0.4451 -0.5275  0.1743
 6436TIP3    H140943   3.932   3.496   1.096 -0.1716 -0.7569  0.0677
 6436TIP3    H240944   3.898   3.490   0.948  0.8037 -1.1475 -0.1500
 6437TIP3   OH240945   1.445   0.047   0.167 -0.3751 -0.1551 -0.3290
 6437TIP3    H140946   1.430   0.050   0.261  0.5453 -0.8460 -0.1507
 6437TIP3    H240947   1.494   0.127   0.147 -0.1379 -0.2513 -0.1345
 6438TIP3   OH240948   5.602   5.021   1.172  0.1995 -0.2335  0.4541
 6438TIP3    H140949   5.535   5.054   1.112 -1.3492  2.5207  3.4307
 6438TIP3    H240950   5.553   4.975   1.240  1.4967  0.2721  1.7647
 6439TIP3   OH240951   0.804   5.424   1.090 -0.5078  0.5987 -0.2919
 6439TIP3    H140952   0.772   5.405   1.178 -0.6078 -2.7652 -0.9149
 6439TIP3    H240953   0.770   5.352   1.036  2.5917  0.4633 -2.3222
 6440TIP3   OH240954   4.525   3.658   0.102  0.0219  0.2537  0.2896
 6440TIP3    H140955   4.488   3.599   0.036 -0.8670  1.0533  0.0506
 6440TIP3    H240956   4.469   3.647   0.179 -0.2406  0.8916  0.1939
 6441TIP3   OH240957   4.648   3.915   7.487  0.4000 -0.1811 -0.4788
 6441TIP3    H140958   4.604   3.954   7.563 -0.9589 -1.7443 -0.4218
 6441TIP3    H240959   4.726   3.970   7.474  1.3323 -0.5202  2.7745
 6442TIP3   OH240960   1.794   1.124   2.366 -0.2598 -0.9742  0.6024
 6442TIP3    H140961   1.813   1.202   2.417  1.8099 -1.6243  0.9067
 6442TIP3    H240962   1.767   1.157   2.280  0.9529  0.0885  0.5995
 6443TIP3   OH240963   4.468   0.648   8.405 -0.0008 -0.0103  0.7734
 6443TIP3    H140964   4.509   0.625   8.321 -0.9503 -0.7557  0.4946
 6443TIP3    H240965   4.485   0.741   8.415  1.8714 -0.3181  0.7423
 6444TIP3   OH240966   0.390   5.699   1.366  0.5105 -0.1097 -0.9062
 6444TIP3    H140967   0.323   5.744   1.417 -0.0397 -1.2500 -0.5980
 6444TIP3    H240968   0.384   5.608   1.394  3.7269  0.0610  0.8818
 6445TIP3   OH240969   4.640   3.794   1.955  0.1488  0.4012  0.7284
 6445TIP3    H140970   4.649   3.807   2.050  1.6532  1.4811  0.4824
 6445TIP3    H240971   4.650   3.700   1.942 -1.7115  0.0275  1.7758
 6446TIP3   OH240972   4.038   5.972   7.927  0.1865 -0.4221 -0.6866
 6446TIP3    H140973   4.081   6.023   7.997 -0.2125  0.1606 -0.8560
 6446TIP3    H240974   4.031   6.034   7.854 -1.5222 -0.3025 -0.4468
 6447TIP3   OH240975   5.364   2.285   1.561 -0.0329  0.2447 -0.1603
 6447TIP3    H140976   5.271   2.273   1.581  0.4911 -1.4490  1.5549
 6447TIP3    H240977   5.402   2.197   1.569  1.8533  1.0179 -0.0898
 6448TIP3   OH240978   3.790   0.137   6.838  0.4603  0.7008  0.4197
 6448TIP3    H140979   3.840   0.152   6.918 -1.3011 -1.0101  1.9370
 6448TIP3    H240980   3.719   0.200   6.842 -0.9322 -0.8421  1.4558
 6449TIP3   OH240981   0.627   6.783   0.083  0.8372 -0.8540  0.2232
 6449TIP3    H140982   0.547   6.784   0.031  0.8964 -0.1609  0.1414
 6449TIP3    H240983   0.686   6.724   0.036  0.9419 -0.1200 -0.5795
 6450TIP3   OH240984   0.494   1.511   0.417 -0.0168 -0.0294 -0.3112
 6450TIP3    H140985   0.409   1.552   0.433 -0.4723 -0.9197 -0.4138
 6450TIP3    H240986   0.474   1.420   0.397  0.8948 -0.0491 -1.2448
 6451TIP3   OH240987   5.146   5.456   8.569  0.4150 -0.0023 -0.2072
 6451TIP3    H140988   5.066   5.479   8.522  1.2818 -1.8855 -2.8176
 6451TIP3    H240989   5.200   5.536   8.565  0.4833 -0.0944 -2.6010
 6452TIP3   OH240990   3.555   1.759   2.590 -0.2287  0.0482 -0.3899
 6452TIP3    H140991   3.640   1.742   2.629 -0.6401  0.9071  0.9771
 6452TIP3    H240992   3.493   1.711   2.645 -0.7718  0.7415 -0.3784
 6453TIP3   OH240993   2.285   5.826   6.543  0.3252  0.1336  0.0706
 6453TIP3    H140994   2.368   5.807   6.586 -0.6433 -1.0164  1.5260
 6453TIP3    H240995   2.308   5.840   6.451  2.1104 -0.1424  0.4411
 6454TIP3   OH240996   3.627   0.956   8.112 -0.7837 -0.1771 -0.4336
 6454TIP3    H140997   3.583   0.929   8.032  1.3793 -0.5401 -1.5597
 6454TIP3    H240998   3.606   1.049   8.121 -1.9334 -0.3831 -0.7812
 6455TIP3   OH240999   5.213   1.013   7.503  0.3736 -0.0929 -0.6421
 6455TIP3    H141000   5.211   1.012   7.599 -1.0605 -0.0430 -0.6522
 6455TIP3    H241001   5.125   1.038   7.477  0.1941 -1.8926 -2.0052
 6456TIP3   OH241002   1.777   0.136   1.487  1.1933  0.1501  0.5652
 6456TIP3    H141003   1.790   0.048   1.523  0.6533 -0.2911 -0.2875
 6456TIP3    H241004   1.684   0.153   1.499  1.0790  0.1461 -0.2707
 6457TIP3   OH241005   3.047   2.989   1.243  0.0549  0.6065 -0.4066
 6457TIP3    H141006   3.088   3.020   1.162  2.0107 -0.0384  0.2735
 6457TIP3    H241007   2.954   3.007   1.231 -0.0567 -1.3548 -3.6877
 6458TIP3   OH241008   0.697   5.785   8.095 -0.1399 -0.4997 -0.2499
 6458TIP3    H141009   0.758   5.834   8.039  1.5722 -0.5077  1.4821
 6458TIP3    H241010   0.700   5.696   8.062  0.2371 -0.3487 -0.6320
 6459TIP3   OH241011   5.603   2.448   1.589  0.1042  0.4436  0.5328
 6459TIP3    H141012   5.525   2.397   1.567  0.5102  0.4076 -0.9272
 6459TIP3    H241013   5.653   2.391   1.648  0.8345 -1.1670 -1.5256
 6460TIP3   OH241014   5.241   3.732   0.488 -0.4069  0.1966 -0.1551
 6460TIP3    H141015   5.270   3.664   0.549 -0.9368 -0.5288 -0.7086
 6460TIP3    H241016   5.176   3.690   0.433 -1.9719  1.5756  0.5320
 6461TIP3   OH241017   1.494   5.986   1.482 -0.4085 -0.5023 -0.0809
 6461TIP3    H141018   1.512   5.909   1.537 -2.3761 -1.5083 -0.7437
 6461TIP3    H241019   1.529   5.963   1.396 -2.4927 -1.4556 -0.7376
 6462TIP3   OH241020   4.494   2.145   2.012 -0.0410  0.3980 -0.2338
 6462TIP3    H141021   4.492   2.170   2.105 -1.2598  0.0326 -0.1473
 6462TIP3    H241022   4.508   2.051   2.013  0.6583  0.4929 -0.4547
 6463TIP3   OH241023   1.905   2.587   2.043 -0.1114  1.1876  0.1385
 6463TIP3    H141024   1.993   2.549   2.041 -0.4644  0.3427 -1.9666
 6463TIP3    H241025   1.919   2.678   2.068  1.3153  0.9770  0.1859
 6464TIP3   OH241026   3.847   1.044   0.239  0.5592  0.1151  0.8087
 6464TIP3    H141027   3.911   1.053   0.309 -0.5619 -1.1796  2.0805
 6464TIP3    H241028   3.763   1.063   0.280 -0.0696 -0.0575 -0.3445
 6465TIP3   OH241029   5.856   1.514   7.535  0.1145 -0.1819  0.6704
 6465TIP3    H141030   5.830   1.555   7.618 -2.5867 -0.6507  0.1554
 6465TIP3    H241031   5.919   1.575   7.497 -0.0620  1.0043  2.1695
 6466TIP3   OH241032   6.035   3.761   0.492  0.3612  0.0670  0.0644
 6466TIP3    H141033   6.010   3.774   0.584 -0.5951  1.1634 -0.3237
 6466TIP3    H241034   5.968   3.702   0.457  0.6651 -0.2662  0.0376
 6467TIP3   OH241035   6.332   2.948   8.719 -0.6404 -0.9656  0.2514
 6467TIP3    H141036   6.316   2.871   8.774  0.4652 -0.8066  0.8219
 6467TIP3    H241037   6.252   2.958   8.668 -1.3878 -1.5915  1.2626
 6468TIP3   OH241038   6.369   3.837   0.857 -0.3877 -0.2104 -0.3575
 6468TIP3    H141039   6.365   3.755   0.808  2.0825  0.0301 -1.0924
 6468TIP3    H241040   6.433   3.821   0.926 -0.0368  1.0111 -0.3674
 6469TIP3   OH241041   2.130   6.168   7.776  0.6866  0.3467  0.3904
 6469TIP3    H141042   2.215   6.192   7.739 -0.1533 -1.2589 -3.0034
 6469TIP3    H241043   2.144   6.080   7.812  0.4282 -0.1417 -0.6426
 6470TIP3   OH241044   5.219   5.080   7.388  0.3962 -0.8405  0.1122
 6470TIP3    H141045   5.130   5.051   7.365 -1.2685  2.1813  2.0418
 6470TIP3    H241046   5.248   5.130   7.313 -1.1058  1.1179  0.7446
 6471TIP3   OH241047   1.002   6.787   8.587  0.2459  0.4917  0.1320
 6471TIP3    H141048   1.063   6.726   8.547  1.5431  2.2752 -0.7798
 6471TIP3    H241049   0.967   6.838   8.514  1.8066  3.0677  1.0027
 6472TIP3   OH241050   3.600   6.743   6.426  0.0555 -0.6842  0.4388
 6472TIP3    H141051   3.538   6.814   6.408 -0.0740 -0.5399  1.3809
 6472TIP3    H241052   3.609   6.743   6.521  2.7266  0.3174  0.2613
 6473TIP3   OH241053   4.347   2.893   0.690  0.1211  0.3578  0.1110
 6473TIP3    H141054   4.422   2.952   0.680  0.1366  0.7378  2.1422
 6473TIP3    H241055   4.277   2.949   0.723 -0.6023 -0.3111 -0.2523
 6474TIP3   OH241056   3.146   1.767   7.406 -0.3805 -0.5248 -0.4534
 6474TIP3    H141057   3.195   1.761   7.488  0.7293 -1.7706 -1.1757
 6474TIP3    H241058   3.084   1.839   7.421  1.2744  0.7394  0.6898
 6475TIP3   OH241059   2.410   0.604   8.779  0.1705 -0.5235 -0.1623
 6475TIP3    H141060   2.377   0.690   8.807 -0.6344 -0.4973 -1.1432
 6475TIP3    H241061   2.346   0.542   8.813  1.3034 -0.8540  1.4503
 6476TIP3   OH241062   3.948   3.936   8.632  0.2652  0.2449 -0.3907
 6476TIP3    H141063   3.992   4.017   8.658 -0.6847  1.0171 -1.1154
 6476TIP3    H241064   3.961   3.877   8.706 -3.0015  2.5767  2.3276
 6477TIP3   OH241065   5.857   5.352   8.053  0.1589 -0.1048  0.0731
 6477TIP3    H141066   5.832   5.350   8.145  0.1207  1.4170  0.1117
 6477TIP3    H241067   5.933   5.409   8.049 -0.2930  0.4545 -0.9388
 6478TIP3   OH241068   0.821   2.458   6.883  0.0320  0.4725  0.1875
 6478TIP3    H141069   0.858   2.384   6.930 -1.5985 -1.2532 -1.0923
 6478TIP3    H241070   0.882   2.475   6.811 -0.2943 -0.6046 -0.3577
 6479TIP3   OH241071   1.188   5.822   0.909 -0.6144 -0.8854  0.2644
 6479TIP3    H141072   1.210   5.729   0.911  2.5598 -0.3194 -1.5037
 6479TIP3    H241073   1.118   5.829   0.843 -1.1419 -2.0147  0.6827
 6480TIP3   OH241074   6.386   3.951   1.309  0.0586  0.2360  0.0068
 6480TIP3    H141075   6.429   4.023   1.264 -2.6351  0.9286 -1.6767
 6480TIP3    H241076   6.349   3.990   1.388  1.4203 -0.1232  0.8702
 6481TIP3   OH241077   6.011   4.595   7.783 -0.0951 -0.4081  0.2974
 6481TIP3    H141078   5.945   4.526   7.787 -2.9580  2.1927  2.0105
 6481TIP3    H241079   5.975   4.659   7.722  2.6397 -0.4239 -1.5119
 6482TIP3   OH241080   4.427   0.473   1.174  0.5931 -0.1233  0.4203
 6482TIP3    H141081   4.348   0.499   1.221 -0.7751  0.0196 -1.8531
 6482TIP3    H241082   4.404   0.391   1.129  2.2478 -0.9213  0.9022
 6483TIP3   OH241083   6.674   5.538   0.620 -0.6783  0.2559 -0.6685
 6483TIP3    H141084   6.587   5.565   0.647 -0.2437  0.5196  0.5243
 6483TIP3    H241085   6.733   5.605   0.654 -0.0413  0.4136 -1.9739
 6484TIP3   OH241086   3.897   3.366   8.047  0.2825  1.0143 -0.7420
 6484TIP3    H141087   3.878   3.318   7.966  2.0806  0.6139 -0.9536
 6484TIP3    H241088   3.914   3.299   8.112  2.3859  1.2869 -0.9359
 6485TIP3   OH241089   5.116   4.756   0.920 -0.0837 -0.0718 -0.1116
 6485TIP3    H141090   5.062   4.682   0.949  0.1715  0.2659  1.3176
 6485TIP3    H241091   5.126   4.743   0.826 -2.3372 -0.3460 -0.3599
 6486TIP3   OH241092   0.052   4.935   8.183  0.4978 -0.0612  0.4632
 6486TIP3    H141093  -0.002   4.896   8.252 -0.3183  0.9254  0.4131
 6486TIP3    H241094   0.083   5.017   8.221 -0.1815  0.6258 -0.4067
 6487TIP3   OH241095   0.113   0.024   6.390  0.1403  0.3920 -0.3197
 6487TIP3    H141096   0.090   0.072   6.470  1.3311  0.1698  0.1723
 6487TIP3    H241097   0.042   0.044   6.329  0.7556  3.1245 -0.2847
 6488TIP3   OH241098   6.535   3.044   0.272  0.3005 -0.4632 -0.2282
 6488TIP3    H141099   6.596   2.995   0.217  1.1261 -1.1017  1.2032
 6488TIP3    H241100   6.475   2.977   0.307  0.8766 -0.3436  1.0240
 6489TIP3   OH241101   4.738   0.421   8.704  0.2050  0.7899 -0.3925
 6489TIP3    H141102   4.684   0.499   8.715  0.1429  0.4569  1.9750
 6489TIP3    H241103   4.797   0.421   8.779  0.2686 -1.3982 -0.3832
 6490TIP3   OH241104   1.523   0.371   8.627  0.6002 -0.2473  0.5425
 6490TIP3    H141105   1.519   0.282   8.593  0.5891 -0.3979  0.9360
 6490TIP3    H241106   1.524   0.361   8.722  1.5759  0.1219  0.5839
 6491TIP3   OH241107   0.184   0.158   0.868 -0.3465 -0.3794 -0.2568
 6491TIP3    H141108   0.206   0.101   0.942  0.2602 -1.3566 -1.1620
 6491TIP3    H241109   0.258   0.218   0.862  0.3542 -1.2810 -0.9898
 6492TIP3   OH241110   5.736   2.877   7.633 -0.0597 -0.0678 -0.6466
 6492TIP3    H141111   5.662   2.918   7.588 -1.4200 -2.3947 -0.6989
 6492TIP3    H241112   5.809   2.938   7.619 -2.1248  2.8810  0.2917
 6493TIP3   OH241113   4.949   6.741   8.126 -0.5551  0.0166 -0.1326
 6493TIP3    H141114   4.960   6.835   8.140 -3.3611  0.3160  0.5524
 6493TIP3    H241115   5.029   6.702   8.162 -0.7617  1.9173  2.6435
 6494TIP3   OH241116   2.542   0.653   0.341 -0.0393 -0.0966 -0.4143
 6494TIP3    H141117   2.480   0.588   0.306  1.0973 -1.2070 -0.4274
 6494TIP3    H241118   2.542   0.638   0.435 -0.4857  0.5384 -0.3098
 6495TIP3   OH241119   0.996   4.532   0.494  0.2613  0.5741 -0.7267
 6495TIP3    H141120   0.946   4.515   0.414  0.5926  1.0025 -1.0301
 6495TIP3    H241121   1.081   4.491   0.478 -0.0440 -0.3179 -0.1357
 6496TIP3   OH241122   6.731   4.679   8.776  0.5537  0.3204 -0.1613
 6496TIP3    H141123   6.676   4.749   8.810  2.0664  0.3799  2.4532
 6496TIP3    H241124   6.763   4.633   8.853  1.2675 -1.9968 -1.7107
 6497TIP3   OH241125   3.008   1.584   7.902 -0.0092  0.4760  0.4889
 6497TIP3    H141126   3.048   1.663   7.937 -0.7040  1.0401  0.0354
 6497TIP3    H241127   3.074   1.516   7.915  0.5658  1.1070  0.9518
 6498TIP3   OH241128   0.615   2.889   1.275  0.2419  0.0975 -0.2231
 6498TIP3    H141129   0.710   2.876   1.269  0.1901  0.2652 -1.9012
 6498TIP3    H241130   0.594   2.949   1.203 -1.4033 -1.5890 -1.2461
 6499TIP3   OH241131   1.289   4.581   7.986 -0.1535 -0.2671  0.2603
 6499TIP3    H141132   1.217   4.588   7.923  0.6566 -0.6832 -0.7504
 6499TIP3    H241133   1.267   4.643   8.055  0.5633  2.8082 -2.0705
 6500TIP3   OH241134   3.767   5.775   1.542 -0.2828 -0.4879  0.3780
 6500TIP3    H141135   3.805   5.697   1.500 -0.7188 -0.3553 -0.2779
 6500TIP3    H241136   3.685   5.790   1.495  0.0153  0.6462  0.1928
 6501TIP3   OH241137   4.161   3.008   0.368 -0.6551 -0.0313 -0.1728
 6501TIP3    H141138   4.103   3.075   0.332 -1.0004 -0.6618 -0.8186
 6501TIP3    H241139   4.113   2.926   0.357  0.1076 -0.4874 -0.1669
 6502TIP3   OH241140   5.387   0.975   7.932 -0.1626  0.3473 -0.1802
 6502TIP3    H141141   5.447   0.932   7.992 -0.9490  1.3191  1.3510
 6502TIP3    H241142   5.338   1.038   7.986 -0.3747  1.8124 -1.9628
 6503TIP3   OH241143   2.593   2.513   7.161  0.0166  0.1812  0.1853
 6503TIP3    H141144   2.513   2.522   7.109  0.1933  1.1559  0.0521
 6503TIP3    H241145   2.655   2.573   7.118  1.2892 -1.6134 -0.5986
 6504TIP3   OH241146   2.142   6.501   7.293 -0.1676  0.4565 -0.2734
 6504TIP3    H141147   2.163   6.409   7.309 -0.8071  0.6232  1.8486
 6504TIP3    H241148   2.047   6.503   7.284 -0.1627  0.9305 -0.2504
 6505TIP3   OH241149   0.459   1.609   7.679  0.2723 -0.1593  0.1970
 6505TIP3    H141150   0.513   1.621   7.757 -0.1762  0.1628  0.4662
 6505TIP3    H241151   0.521   1.609   7.606  0.4051  4.3865  0.0519
 6506TIP3   OH241152   1.923   5.553   0.230 -0.4449 -0.0436 -0.8865
 6506TIP3    H141153   1.990   5.537   0.164 -0.6678 -0.2816 -1.0595
 6506TIP3    H241154   1.851   5.495   0.205 -1.1167  0.9292 -1.2935
 6507TIP3   OH241155   5.330   6.440   8.023  0.2286 -0.3768 -0.1454
 6507TIP3    H141156   5.389   6.404   7.956  0.3090  0.3356 -0.4681
 6507TIP3    H241157   5.324   6.371   8.089 -0.6629 -1.5212 -1.3714
 6508TIP3   OH241158   2.796   5.194   8.733  0.1527  0.0896  0.0447
 6508TIP3    H141159   2.845   5.276   8.729  0.7297 -0.2184  0.7599
 6508TIP3    H241160   2.713   5.214   8.688 -0.1499  1.3628  1.1099
 6509TIP3   OH241161   6.194   1.595   6.846  0.5889  0.3168  0.5866
 6509TIP3    H141162   6.166   1.512   6.809  0.4889 -0.1404  1.6681
 6509TIP3    H241163   6.161   1.661   6.784  1.2353 -0.4600 -0.6209
 6510TIP3   OH241164   6.589   1.259   2.105  0.2633  0.3823  0.0288
 6510TIP3    H141165   6.535   1.184   2.079  0.1037  1.1600 -2.0351
 6510TIP3    H241166   6.670   1.220   2.137  0.2976 -0.6908 -1.2889
 6511TIP3   OH241167   4.903   2.766   1.869 -0.3943  0.3821  0.1204
 6511TIP3    H141168   4.909   2.697   1.935 -1.0658 -0.2301 -0.4325
 6511TIP3    H241169   4.809   2.782   1.861 -0.2048  2.1441  1.0103
 6512TIP3   OH241170   4.939   5.424   7.756 -0.6325 -0.2911  0.4025
 6512TIP3    H141171   4.857   5.470   7.774 -0.8675 -0.3782 -0.3952
 6512TIP3    H241172   4.926   5.385   7.669  1.1660  1.8462 -0.9510
 6513TIP3   OH241173   6.372   2.126   0.521 -0.1505 -0.2902  0.4060
 6513TIP3    H141174   6.321   2.192   0.569 -1.1665 -0.6245 -0.1925
 6513TIP3    H241175   6.338   2.042   0.553 -2.9604 -0.6270 -2.8593
 6514TIP3   OH241176   6.524   5.525   0.044 -0.0762 -0.2996  0.3859
 6514TIP3    H141177   6.618   5.537   0.059  0.1730 -0.1855 -1.1283
 6514TIP3    H241178   6.482   5.579   0.110  0.9154 -0.4446  1.1636
 6515TIP3   OH241179   1.439   2.671   2.470  0.2470  0.3768 -0.3680
 6515TIP3    H141180   1.409   2.753   2.431  0.5692  1.0063  0.6695
 6515TIP3    H241181   1.533   2.683   2.484 -0.1867  1.0998  2.6432
 6516TIP3   OH241182   5.718   6.305   7.206  0.2175 -0.1882 -0.1861
 6516TIP3    H141183   5.623   6.310   7.217  0.1808 -3.1123  2.3903
 6516TIP3    H241184   5.730   6.244   7.133 -0.0172 -1.6984  0.9744
 6517TIP3   OH241185   4.511   1.532   7.640 -0.2400 -0.0947 -0.2022
 6517TIP3    H141186   4.429   1.494   7.669 -0.0804 -0.5339 -0.3135
 6517TIP3    H241187   4.549   1.573   7.718 -0.3488 -0.2843 -0.0517
 6518TIP3   OH241188   2.503   4.724   7.157  0.5204 -0.2114 -0.6871
 6518TIP3    H141189   2.421   4.741   7.202  1.0213 -1.5512  0.8332
 6518TIP3    H241190   2.540   4.811   7.140  0.1676  0.3618  1.2727
 6519TIP3   OH241191   6.368   3.662   7.376 -0.4812 -0.0898  0.0740
 6519TIP3    H141192   6.400   3.693   7.461 -0.4361  1.8033 -0.5801
 6519TIP3    H241193   6.397   3.571   7.371  1.1353  0.3055  1.3144
 6520TIP3   OH241194   4.706   4.389   6.479 -0.1774  0.2657 -0.4793
 6520TIP3    H141195   4.700   4.409   6.573 -1.9094  1.0742 -0.7349
 6520TIP3    H241196   4.741   4.300   6.477  2.3427  1.1246  0.8268
 6521TIP3   OH241197   4.892   1.413   8.808 -0.2043  0.4171 -0.3313
 6521TIP3    H141198   4.862   1.503   8.795  1.6584  0.9659 -1.0687
 6521TIP3    H241199   4.972   1.406   8.756 -1.1385 -2.1660 -1.5987
 6522TIP3   OH241200   0.942   4.783   0.101  0.3914  0.4501 -0.0826
 6522TIP3    H141201   0.979   4.834   0.029 -1.6703  1.2422 -0.6736
 6522TIP3    H241202   1.006   4.715   0.118  0.8478  0.0735 -2.8736
 6523TIP3   OH241203   4.921   4.511   1.125 -0.0646  0.3037  0.2122
 6523TIP3    H141204   4.907   4.489   1.033  0.9865  0.4329  0.0122
 6523TIP3    H241205   4.876   4.595   1.138  1.8051  1.5137 -0.8137
 6524TIP3   OH241206   4.096   5.105   0.584 -0.2933  0.7398 -0.0444
 6524TIP3    H141207   4.083   5.088   0.491 -1.5313  0.5025  0.1483
 6524TIP3    H241208   4.007   5.114   0.620  0.1247  0.0799  1.2399
 6525TIP3   OH241209   1.473   2.743   0.800  0.2674  0.0622  0.0174
 6525TIP3    H141210   1.470   2.677   0.730  1.3378 -0.0547  0.0720
 6525TIP3    H241211   1.400   2.801   0.780  0.7194  0.1986 -1.3915
 6526TIP3   OH241212   2.002   1.328   7.861 -0.5632  0.1935  0.7070
 6526TIP3    H141213   1.972   1.344   7.951  0.0126  0.5422  0.8490
 6526TIP3    H241214   1.966   1.401   7.811  2.5135  2.4360  1.4604
 6527TIP3   OH241215   0.823   5.928   1.322  0.3160 -0.1491  0.1000
 6527TIP3    H141216   0.885   5.880   1.378  0.5688 -1.2387 -1.0614
 6527TIP3    H241217   0.814   6.014   1.363  3.3817  0.4274 -0.2413
 6528TIP3   OH241218   2.015   1.274   1.385  0.2946  0.0629  0.9197
 6528TIP3    H141219   1.935   1.261   1.334  1.2028  1.5576 -1.0171
 6528TIP3    H241220   2.021   1.196   1.441 -2.6640  0.0719  1.4139
 6529TIP3   OH241221   3.346   5.776   0.625 -0.2059 -0.0264  0.6114
 6529TIP3    H141222   3.269   5.735   0.664 -0.6628  1.0810  0.8865
 6529TIP3    H241223   3.406   5.789   0.699 -0.0208 -0.2779  0.5077
 6530TIP3   OH241224   6.527   3.587   6.687  0.2531  0.2911  0.4722
 6530TIP3    H141225   6.461   3.626   6.744  0.4244 -0.8646  1.5121
 6530TIP3    H241226   6.548   3.503   6.728 -0.7537 -1.3701 -2.0962
 6531TIP3   OH241227   1.669   4.719   8.375 -0.3159  0.1121  0.1907
 6531TIP3    H141228   1.703   4.699   8.462 -1.6639  2.4824  1.3916
 6531TIP3    H241229   1.577   4.692   8.379  0.5539 -3.8769 -2.1265
 6532TIP3   OH241230   3.418   0.445   8.591 -0.0240 -0.3234  0.3398
 6532TIP3    H141231   3.448   0.451   8.681  1.1082 -1.8334  0.1144
 6532TIP3    H241232   3.496   0.467   8.539 -0.7682  0.9408 -0.3006
 6533TIP3   OH241233   6.304   3.671   6.820 -0.3917  0.5227 -0.0994
 6533TIP3    H141234   6.235   3.616   6.857 -1.5533  0.6703 -1.8825
 6533TIP3    H241235   6.257   3.736   6.767  1.0683  1.5021 -0.2587
 6534TIP3   OH241236   2.643   0.789   7.466 -0.1078  0.3286 -0.4395
 6534TIP3    H141237   2.595   0.766   7.387  0.1054  1.1096 -0.8070
 6534TIP3    H241238   2.718   0.730   7.466 -0.0315  0.4188 -0.9011
 6535TIP3   OH241239   3.733   1.645   7.499 -0.0087 -0.2586 -0.2237
 6535TIP3    H141240   3.666   1.580   7.477 -0.5471  0.2573 -0.1295
 6535TIP3    H241241   3.736   1.645   7.594  0.3402 -0.4881 -0.2309
 6536TIP3   OH241242   1.742   1.204   7.725  0.3616 -0.1773 -0.3488
 6536TIP3    H141243   1.797   1.202   7.646 -0.4356 -0.6887 -0.9011
 6536TIP3    H241244   1.774   1.131   7.779  0.8222  0.0933 -0.2481
 6537TIP3   OH241245   3.830   2.633   8.173  0.3507  0.2634  0.0870
 6537TIP3    H141246   3.834   2.651   8.267  0.1921  0.2920  0.0881
 6537TIP3    H241247   3.878   2.706   8.133 -1.4720  1.4775 -0.0030
 6538TIP3   OH241248   6.787   1.310   1.863 -0.8394 -0.2590 -0.2443
 6538TIP3    H141249   6.746   1.238   1.910 -1.0532 -0.6468 -1.0176
 6538TIP3    H241250   6.854   1.268   1.809  0.1511  0.2947  0.5049
 6539TIP3   OH241251   0.318   5.168   7.212  0.2072 -0.1858 -0.4036
 6539TIP3    H141252   0.325   5.109   7.136 -2.1325 -1.6043  0.3724
 6539TIP3    H241253   0.294   5.253   7.174  1.0391 -0.3610 -1.3729
 6540TIP3   OH241254   5.081   2.962   7.752 -0.2604 -0.0623  0.2986
 6540TIP3    H141255   5.008   2.909   7.719 -0.7575  0.4960  0.4833
 6540TIP3    H241256   5.144   2.898   7.785 -1.1016 -0.5299  1.0452
 6541TIP3   OH241257   6.646   1.108   0.929  0.7951  0.2052 -0.2197
 6541TIP3    H141258   6.668   1.096   1.021  1.5176  1.2294 -0.2337
 6541TIP3    H241259   6.554   1.083   0.922  1.1241 -1.2596  0.4789
 6542TIP3   OH241260   5.321   2.388   6.556  0.2581 -0.2440 -0.1884
 6542TIP3    H141261   5.288   2.477   6.556  1.7915  0.3707  0.7156
 6542TIP3    H241262   5.331   2.365   6.463 -2.5260 -0.4624 -0.5022
 6543TIP3   OH241263   0.821   0.107   1.336 -0.0781  0.7615  0.0112
 6543TIP3    H141264   0.844   0.188   1.382  0.5975  0.0405  0.9770
 6543TIP3    H241265   0.904   0.078   1.297 -0.1646  0.1646  0.2651
 6544TIP3   OH241266   4.959   2.740   8.435 -0.4970  0.4850  0.4726
 6544TIP3    H141267   4.966   2.713   8.344  1.1674  0.8949  0.4436
 6544TIP3    H241268   4.873   2.781   8.442 -1.3431 -1.0442 -0.4823
 6545TIP3   OH241269   5.551   5.795   7.772  0.6546 -0.1775  0.4238
 6545TIP3    H141270   5.560   5.700   7.778  2.7292 -0.0401  0.4704
 6545TIP3    H241271   5.583   5.816   7.684  0.3026  0.4833  0.4482
 6546TIP3   OH241272   5.566   1.873   8.664 -0.3093  0.3630  0.7130
 6546TIP3    H141273   5.553   1.968   8.665  0.1747  0.4323  0.6290
 6546TIP3    H241274   5.491   1.839   8.615 -0.9290  0.6304  1.4648
 6547TIP3   OH241275   1.090   0.831   1.495  0.2007  0.2536  0.2679
 6547TIP3    H141276   1.039   0.836   1.576 -0.3753 -0.4179 -0.0531
 6547TIP3    H241277   1.085   0.920   1.459 -0.2708  0.3331  0.5172
 6548TIP3   OH241278   1.583   2.085   7.964  0.0840  0.4255 -0.4182
 6548TIP3    H141279   1.613   2.002   7.927  1.7598  1.2713 -1.0511
 6548TIP3    H241280   1.634   2.152   7.918 -1.6262  1.8751 -0.3408
 6549TIP3   OH241281   1.872   3.015   0.093 -0.2663 -0.5025  0.0692
 6549TIP3    H141282   1.952   3.065   0.112  0.9638 -2.1491 -0.5017
 6549TIP3    H241283   1.862   3.021  -0.002 -2.9740  2.6942  0.3760
 6550TIP3   OH241284   2.870   4.882   6.952 -0.2756  0.1971 -0.9512
 6550TIP3    H141285   2.910   4.874   7.038 -3.8958  0.3289  0.9171
 6550TIP3    H241286   2.903   4.806   6.903 -0.6020 -1.7941  1.6815
 6551TIP3   OH241287   0.699   3.322   0.004  0.9256 -0.1412  0.4290
 6551TIP3    H141288   0.668   3.407  -0.028  0.9729  0.1131  1.0469
 6551TIP3    H241289   0.689   3.263  -0.071  0.7764  0.3801  0.0330
 6552TIP3   OH241290   6.479   1.693   6.749  0.1733 -0.0957  0.1539
 6552TIP3    H141291   6.417   1.662   6.683  0.7578  1.5180 -1.2043
 6552TIP3    H241292   6.541   1.621   6.759  0.8863  0.1279 -2.1258
 6553TIP3   OH241293   1.828   3.241   6.878 -0.3637  0.4097  0.0248
 6553TIP3    H141294   1.864   3.270   6.795  4.2938 -1.6588  0.9612
 6553TIP3    H241295   1.868   3.299   6.943 -0.3332 -0.6764  1.0290
 6554TIP3   OH241296   5.705   3.756   7.584 -0.0101 -0.8756  0.0008
 6554TIP3    H141297   5.794   3.723   7.601  0.3182 -1.2774 -2.0997
 6554TIP3    H241298   5.719   3.831   7.526 -1.0617 -1.7058 -1.3748
 6555TIP3   OH241299   1.686   1.671   6.627 -0.8515  0.1795  0.2880
 6555TIP3    H141300   1.623   1.629   6.569 -0.2536 -0.6076  0.1913
 6555TIP3    H241301   1.735   1.599   6.666 -0.5240  0.7461  0.9467
 6556TIP3   OH241302   4.704   6.635   0.621  0.2753  0.0972 -0.0953
 6556TIP3    H141303   4.700   6.730   0.629 -1.0489 -0.0488  1.3547
 6556TIP3    H241304   4.741   6.604   0.704 -0.0394 -0.6995 -0.2381
 6557TIP3   OH241305   1.850   0.345   1.236 -0.1006  0.2481 -0.2412
 6557TIP3    H141306   1.835   0.255   1.266  1.0070  0.0672 -0.1904
 6557TIP3    H241307   1.913   0.381   1.299  0.5828  0.5750 -1.0887
 6558TIP3   OH241308   0.843   6.529   2.157  0.6324 -0.2344  0.0359
 6558TIP3    H141309   0.893   6.552   2.079  1.0276  2.4033  0.9884
 6558TIP3    H241310   0.898   6.467   2.204  1.2339 -0.3826 -0.8451
 6559TIP3   OH241311   3.588   3.697   0.835  0.4191  0.0612  0.4237
 6559TIP3    H141312   3.511   3.658   0.793  1.7138 -2.8243  0.5053
 6559TIP3    H241313   3.562   3.705   0.927 -0.2655  0.4628  0.2043
 6560TIP3   OH241314   2.396   0.805   7.596 -0.9941  0.6690 -0.5296
 6560TIP3    H141315   2.463   0.814   7.528 -1.5367 -0.3233 -1.2288
 6560TIP3    H241316   2.354   0.721   7.576 -0.4771 -0.1869  1.6585
 6561TIP3   OH241317   6.443   0.765   7.415 -0.2329 -0.0928 -0.0567
 6561TIP3    H141318   6.401   0.703   7.474  0.9938 -1.3767 -0.4578
 6561TIP3    H241319   6.496   0.821   7.472 -0.4719 -0.1385  0.2109
 6562TIP3   OH241320   1.557   0.014   7.621  0.0544 -0.2829  0.8028
 6562TIP3    H141321   1.606  -0.002   7.702 -0.4250 -0.3420  1.0866
 6562TIP3    H241322   1.506   0.092   7.639 -0.3078 -0.4880  0.6715
 6563TIP3   OH241323   6.662   3.045   8.254 -0.1371 -0.1237  0.2031
 6563TIP3    H141324   6.595   2.994   8.300  1.5226 -0.3807  2.5607
 6563TIP3    H241325   6.660   3.130   8.298  1.1736 -0.2127  0.4866
 6564TIP3   OH241326   2.335   4.190   6.454  0.2758  0.4596  0.5043
 6564TIP3    H141327   2.246   4.174   6.485 -0.4622 -0.2180 -1.7720
 6564TIP3    H241328   2.388   4.189   6.534 -1.2891 -2.4208  1.6878
 6565TIP3   OH241329   2.733   2.365   8.767  0.1739  0.1888 -0.3245
 6565TIP3    H141330   2.731   2.369   8.672  1.0010 -0.3202 -0.3729
 6565TIP3    H241331   2.737   2.457   8.795  2.6896  0.3469 -0.8936
 6566TIP3   OH241332   5.880   2.508   0.445 -0.2017  0.4881 -0.3057
 6566TIP3    H141333   5.963   2.533   0.405  0.5638 -1.7036 -0.2283
 6566TIP3    H241334   5.825   2.482   0.370 -0.4797  0.9893 -0.2796
 6567TIP3   OH241335   2.821   5.016   1.518 -0.2964  0.4564  0.1326
 6567TIP3    H141336   2.912   5.026   1.546 -0.5192 -1.3579  1.7333
 6567TIP3    H241337   2.771   5.067   1.582 -0.4295  1.6990 -0.9199
 6568TIP3   OH241338   3.113   3.914   8.244 -0.4993 -0.2251  0.1538
 6568TIP3    H141339   3.175   3.843   8.230  3.9966  3.1641  0.7189
 6568TIP3    H241340   3.073   3.895   8.329  0.0393 -2.3287 -0.0284
 6569TIP3   OH241341   4.715   0.137   1.133 -0.2868 -0.4207  0.5250
 6569TIP3    H141342   4.715   0.076   1.207 -0.0053  1.7668  2.4484
 6569TIP3    H241343   4.705   0.223   1.173  2.0650  1.0857 -1.8126
 6570TIP3   OH241344   0.494   5.756   6.432 -0.1112  0.4757 -0.0730
 6570TIP3    H141345   0.562   5.695   6.402 -1.8424 -1.2857 -0.6323
 6570TIP3    H241346   0.437   5.767   6.356 -0.7788  1.4710  0.5576
 6571TIP3   OH241347   1.570   5.379   0.402 -0.3684  0.0567  0.0437
 6571TIP3    H141348   1.613   5.426   0.474  3.3321 -1.4667 -0.8934
 6571TIP3    H241349   1.535   5.300   0.443  0.0947  0.0790  0.4959
 6572TIP3   OH241350   6.465   4.637   1.031  0.3053  0.1117  0.7472
 6572TIP3    H141351   6.497   4.655   0.943  0.1954  1.5306  0.9730
 6572TIP3    H241352   6.451   4.542   1.033  1.9277 -0.1756 -0.1978
 6573TIP3   OH241353   2.140   5.772   7.531  0.0003 -0.1028  0.0205
 6573TIP3    H141354   2.080   5.742   7.599  0.5672  0.1068  0.6317
 6573TIP3    H241355   2.215   5.807   7.579 -0.5991  2.2828 -0.6201
 6574TIP3   OH241356   3.332   3.826   8.469  0.4283  0.2112  0.3799
 6574TIP3    H141357   3.384   3.829   8.389 -0.8768 -0.4979 -0.5557
 6574TIP3    H241358   3.361   3.746   8.514  0.1458 -0.1946 -0.1484
 6575TIP3   OH241359   4.980   3.484   7.437 -0.0836 -1.1675 -0.2947
 6575TIP3    H141360   4.960   3.573   7.463  1.1789 -1.4715  1.9249
 6575TIP3    H241361   4.989   3.435   7.519 -0.5522 -3.3056 -1.4274
 6576TIP3   OH241362   3.024   0.632   2.394 -0.1561 -0.2203  0.0680
 6576TIP3    H141363   2.932   0.646   2.370 -0.5439  0.5510  1.8342
 6576TIP3    H241364   3.020   0.580   2.474  1.0322 -1.6880 -0.7776
 6577TIP3   OH241365   2.108   2.956   6.735 -0.0493 -0.2645  0.0494
 6577TIP3    H141366   2.089   2.943   6.642  1.9331  0.9943 -0.5914
 6577TIP3    H241367   2.081   2.874   6.776 -0.2137 -1.1650 -1.7494
 6578TIP3   OH241368   1.179   1.384   7.140 -0.6130  0.9201  0.0035
 6578TIP3    H141369   1.274   1.390   7.131 -0.7448  0.5855 -2.6318
 6578TIP3    H241370   1.145   1.432   7.064 -2.4765 -0.3350 -0.0306
 6579TIP3   OH241371   2.946   6.375   0.406 -0.7470 -0.1194 -0.2661
 6579TIP3    H141372   2.962   6.425   0.486  1.8786 -0.1030 -0.7319
 6579TIP3    H241373   2.916   6.289   0.437 -3.8214  1.1042  0.5645
 6580TIP3   OH241374   0.340   3.596   1.299 -0.5083  0.1438  0.0562
 6580TIP3    H141375   0.430   3.594   1.267 -0.2635  0.5856  0.6994
 6580TIP3    H241376   0.290   3.630   1.225  0.0876  1.4000  0.1994
 6581TIP3   OH241377   2.379   0.451   7.924 -0.1881  0.1670  0.0866
 6581TIP3    H141378   2.333   0.522   7.879  1.4636  1.1238 -0.1843
 6581TIP3    H241379   2.336   0.371   7.895 -0.3607  0.8855 -1.7338
 6582TIP3   OH241380   1.789   4.352   0.134  0.1885  0.7017  0.1377
 6582TIP3    H141381   1.700   4.366   0.165  0.4452  0.6042  0.9445
 6582TIP3    H241382   1.823   4.440   0.117 -0.1220  0.7284 -0.3637
 6583TIP3   OH241383   2.663   5.346   2.027  0.6301 -0.1546 -0.3841
 6583TIP3    H141384   2.642   5.368   2.117  0.2559  0.7424 -0.6801
 6583TIP3    H241385   2.642   5.252   2.019 -0.2161 -0.0240  0.1988
 6584TIP3   OH241386   1.163   4.268   0.805 -0.5863 -0.5450 -0.4342
 6584TIP3    H141387   1.182   4.244   0.715  2.4466  1.5084 -0.4835
 6584TIP3    H241388   1.218   4.210   0.858  1.9629  1.8390 -0.2812
 6585TIP3   OH241389   2.316   1.470   7.226  0.1033 -0.2057  0.2339
 6585TIP3    H141390   2.261   1.444   7.152  0.8016  0.9544 -0.7204
 6585TIP3    H241391   2.271   1.435   7.303 -1.4832 -0.0496 -0.5958
 6586TIP3   OH241392   4.351   3.562   7.280  1.0214  0.3389  0.0722
 6586TIP3    H141393   4.418   3.513   7.328  0.4199  0.1200  0.6998
 6586TIP3    H241394   4.400   3.609   7.212  1.4684 -2.4255 -1.6841
 6587TIP3   OH241395   5.033   0.710   2.351  0.0892 -0.0580 -0.3548
 6587TIP3    H141396   4.962   0.698   2.413 -0.6269 -1.4720 -1.3861
 6587TIP3    H241397   4.993   0.754   2.276  1.0173  1.9548  0.2803
 6588TIP3   OH241398   2.624   4.506   6.318 -0.9220  0.0076 -0.3482
 6588TIP3    H141399   2.583   4.420   6.309 -0.4670 -0.2615  0.0639
 6588TIP3    H241400   2.696   4.492   6.380 -0.0991  0.4230 -1.1779
 6589TIP3   OH241401   0.871   3.477   0.915 -0.2752 -0.4408  0.3768
 6589TIP3    H141402   0.895   3.498   1.005  2.3478  2.7012 -0.8292
 6589TIP3    H241403   0.922   3.398   0.895 -0.1001 -0.5900  1.3347
 6590TIP3   OH241404   1.297   5.555   7.724  0.2543  0.5312  0.3797
 6590TIP3    H141405   1.268   5.646   7.730  1.7548  0.9440  2.3074
 6590TIP3    H241406   1.379   5.559   7.676  0.3186  0.1773  0.4566
 6591TIP3   OH241407   1.141   3.664   1.714  0.2345 -0.3505 -0.3117
 6591TIP3    H141408   1.155   3.722   1.788  0.4979 -0.3533 -0.3578
 6591TIP3    H241409   1.049   3.675   1.691  0.4545  0.6075 -0.7875
 6592TIP3   OH241410   4.242   2.145   7.800 -0.5937 -0.0920 -0.5058
 6592TIP3    H141411   4.318   2.202   7.813 -1.1908  0.5904  0.0919
 6592TIP3    H241412   4.167   2.204   7.803 -1.0852 -0.5428 -2.6258
 6593TIP3   OH241413   4.566   5.776   7.357 -0.0887  0.6325  0.2415
 6593TIP3    H141414   4.546   5.687   7.388 -1.4605  0.5079 -0.8891
 6593TIP3    H241415   4.660   5.784   7.368  0.0818 -1.0054  0.3073
 6594TIP3   OH241416   0.813   2.846   7.740  0.3584 -0.6589 -0.4366
 6594TIP3    H141417   0.796   2.757   7.769  0.7447 -0.2175  1.2647
 6594TIP3    H241418   0.726   2.880   7.716  0.1539 -1.3576 -0.7081
 6595TIP3   OH241419   2.155   4.611   1.766  0.5250 -0.1492 -0.1290
 6595TIP3    H141420   2.217   4.651   1.827  0.1710  0.8922 -0.4328
 6595TIP3    H241421   2.201   4.609   1.682  0.3965 -0.0067 -0.2031
 6596TIP3   OH241422   4.214   5.250   8.754 -0.1717 -0.1698 -0.5686
 6596TIP3    H141423   4.288   5.191   8.768 -0.2867 -0.3125 -0.5649
 6596TIP3    H241424   4.184   5.232   8.665  0.5843  0.7658 -1.0370
 6597TIP3   OH241425   3.909   6.763   1.534 -0.4846 -0.1663 -0.4039
 6597TIP3    H141426   3.955   6.792   1.455 -0.5424 -1.0776 -0.7769
 6597TIP3    H241427   3.817   6.762   1.510 -0.5313 -0.1578 -0.2294
 6598TIP3   OH241428   5.128   4.644   0.660  0.7460 -0.1783  0.1094
 6598TIP3    H141429   5.098   4.556   0.638  1.3402 -0.1103 -1.0677
 6598TIP3    H241430   5.110   4.696   0.582 -2.1567  1.4523  1.7154
 6599TIP3   OH241431   2.662   3.066   1.758 -0.5011 -0.0605  0.5262
 6599TIP3    H141432   2.600   3.134   1.734 -0.1208 -0.6474 -2.4267
 6599TIP3    H241433   2.738   3.113   1.792  0.1946  1.1478 -2.4498
 6600TIP3   OH241434   6.616   2.676   0.661  0.3845 -0.3424 -0.0232
 6600TIP3    H141435   6.580   2.588   0.655  0.7640 -0.4335 -1.2572
 6600TIP3    H241436   6.559   2.729   0.604 -0.4197  0.4336  1.4272
 6601TIP3   OH241437   4.631   0.260   7.407  0.0464 -0.1130 -0.0168
 6601TIP3    H141438   4.608   0.173   7.376  0.6985  0.1277 -1.2576
 6601TIP3    H241439   4.724   0.269   7.386 -0.2640  1.2715 -0.8822
 6602TIP3   OH241440   3.101   2.429   8.815 -0.2954 -0.1258 -0.2544
 6602TIP3    H141441   3.054   2.373   8.877 -1.9716  0.5595 -0.8414
 6602TIP3    H241442   3.063   2.516   8.829 -0.0740  0.2097 -1.6203
 6603TIP3   OH241443   2.247   2.617   0.293 -0.1032  0.3310 -0.3889
 6603TIP3    H141444   2.334   2.585   0.317 -0.0045  0.8615 -0.0179
 6603TIP3    H241445   2.253   2.712   0.300 -0.4081  0.4400 -1.4196
 6604TIP3   OH241446   2.970   0.760   8.327  0.0875 -0.1495  0.1343
 6604TIP3    H141447   3.019   0.831   8.368  0.5035 -0.7697  0.7310
 6604TIP3    H241448   3.030   0.724   8.262 -0.9489  1.5502 -1.9173
 6605TIP3   OH241449   0.105   1.415   0.930  0.7011  0.3630  0.0178
 6605TIP3    H141450   0.147   1.360   0.996 -3.1150 -0.2658  2.2003
 6605TIP3    H241451   0.064   1.354   0.870 -2.2184  0.6837  1.5420
 6606TIP3   OH241452   2.643   6.039   8.748 -0.4748  0.2936 -0.3722
 6606TIP3    H141453   2.624   5.958   8.794 -0.2514 -0.3512 -1.3807
 6606TIP3    H241454   2.628   6.108   8.813  0.1274 -0.5873  0.7481
 6607TIP3   OH241455   4.619   1.254   8.288 -0.4286  0.5532 -0.6352
 6607TIP3    H141456   4.578   1.337   8.310 -1.6826 -0.3000  0.4211
 6607TIP3    H241457   4.712   1.268   8.302 -0.7349  1.4541  0.6694
 6608TIP3   OH241458   2.793   5.879   6.757  0.6457  0.3564  0.2785
 6608TIP3    H141459   2.842   5.960   6.744 -0.1787  0.8530  0.2130
 6608TIP3    H241460   2.784   5.871   6.852  2.7887 -0.9267  0.4212
 6609TIP3   OH241461   6.623   0.305   8.682  0.3762  0.2690  0.3454
 6609TIP3    H141462   6.645   0.382   8.630 -0.0803 -0.1450 -0.4763
 6609TIP3    H241463   6.553   0.262   8.633 -0.7436  0.3838  1.7979
 6610TIP3   OH241464   6.039   0.841   0.475  0.1887 -0.5983  0.0672
 6610TIP3    H141465   6.014   0.772   0.414  0.9655 -1.9803  1.2751
 6610TIP3    H241466   6.104   0.801   0.533 -0.4128  0.6946  1.7223
 6611TIP3   OH241467   1.003   5.655   1.219 -0.8421  0.3774 -0.1624
 6611TIP3    H141468   0.969   5.732   1.172 -0.7467  2.4035  2.8128
 6611TIP3    H241469   0.927   5.621   1.267 -0.1289  0.9011  1.3859
 6612TIP3   OH241470   5.934   5.688   7.800 -0.6416 -0.1966  0.4098
 6612TIP3    H141471   5.922   5.776   7.834  1.6400  0.7373 -1.0201
 6612TIP3    H241472   5.985   5.643   7.867  1.4907  0.7978 -0.4771
 6613TIP3   OH241473   1.689   2.456   1.073  0.3862  0.1390 -0.6827
 6613TIP3    H141474   1.636   2.424   1.000  0.7844 -0.1159 -0.8698
 6613TIP3    H241475   1.654   2.543   1.093  0.3372  0.2495 -1.2417
 6614TIP3   OH241476   3.864   6.472   0.894 -0.0268  0.4609 -0.1791
 6614TIP3    H141477   3.857   6.399   0.832 -0.2599  1.2319 -1.0844
 6614TIP3    H241478   3.958   6.477   0.913 -0.1089 -0.6635  0.6379
 6615TIP3   OH241479   3.006   1.483   0.982 -0.3308  0.6696  0.1541
 6615TIP3    H141480   3.056   1.564   0.984  0.8162  0.0780 -1.8415
 6615TIP3    H241481   2.960   1.484   0.899  1.9911 -1.9295 -1.3360
 6616TIP3   OH241482   5.562   2.005   0.844  0.7319  0.6568 -0.5084
 6616TIP3    H141483   5.555   1.923   0.795 -0.0288  0.3971  0.0216
 6616TIP3    H241484   5.622   1.985   0.916  1.6346  0.9629 -1.1549
 6617TIP3   OH241485   2.546   0.033   8.262 -0.0537  0.2411  0.6358
 6617TIP3    H141486   2.529   0.045   8.356  0.1748  1.0070  0.5885
 6617TIP3    H241487   2.609   0.102   8.241  1.9337 -1.5248  0.4795
 6618TIP3   OH241488   4.286   0.934   8.364 -0.1097 -0.0510 -0.1839
 6618TIP3    H141489   4.201   0.976   8.377 -0.0138 -0.2558  1.2975
 6618TIP3    H241490   4.265   0.846   8.334 -0.3249  0.7834 -2.7052
 6619TIP3   OH241491   5.743   1.358   0.432  0.4153 -0.6153 -0.1489
 6619TIP3    H141492   5.808   1.428   0.436  0.5929 -0.7740 -0.2104
 6619TIP3    H241493   5.795   1.278   0.421  0.3600 -1.0261  2.0676
 6620TIP3   OH241494   3.822   2.553   7.059  0.5920 -0.4325 -0.3949
 6620TIP3    H141495   3.792   2.462   7.050  0.1720 -0.3372 -0.0154
 6620TIP3    H241496   3.913   2.551   7.030  1.0283 -1.2541  0.9380
 6621TIP3   OH241497   1.019   5.407   2.618  0.2524 -0.3836 -0.2022
 6621TIP3    H141498   0.973   5.471   2.672 -1.1893 -1.6747  0.1618
 6621TIP3    H241499   0.951   5.367   2.565  1.0345 -2.0114 -0.0316
 6622TIP3   OH241500   6.301   3.653   0.502 -0.3417 -0.2658 -0.3434
 6622TIP3    H141501   6.259   3.738   0.513 -1.3673 -0.5376 -1.8530
 6622TIP3    H241502   6.276   3.604   0.580 -0.0743  0.6698  0.3514
 6623TIP3   OH241503   3.006   4.317   7.995 -0.0742 -0.0485  0.1694
 6623TIP3    H141504   2.952   4.316   7.916  1.6188 -0.0207 -1.0297
 6623TIP3    H241505   2.983   4.236   8.041 -0.5957 -0.4033 -0.6909
 6624TIP3   OH241506   5.609   4.949   1.675  0.1835  0.4427 -0.2504
 6624TIP3    H141507   5.624   5.007   1.749 -0.6562  1.0580 -0.5458
 6624TIP3    H241508   5.695   4.909   1.658  0.4952  0.6633  0.7238
 6625TIP3   OH241509   3.310   5.732   7.031  0.5827 -0.1435  0.4096
 6625TIP3    H141510   3.268   5.646   7.034  0.1072  0.0905  0.6201
 6625TIP3    H241511   3.399   5.714   7.001  0.4927 -0.7103  0.4640
 6626TIP3   OH241512   3.124   5.725   8.515  0.7630 -0.1895  0.5823
 6626TIP3    H141513   3.074   5.701   8.593 -0.1817 -2.2155 -0.5712
 6626TIP3    H241514   3.157   5.642   8.481  1.4510  0.6768 -0.9835
 6627TIP3   OH241515   6.137   5.973   1.303 -0.0392  0.1506  0.4048
 6627TIP3    H141516   6.182   5.890   1.318  1.8857  1.2990  1.4593
 6627TIP3    H241517   6.118   6.006   1.391  0.2892  1.3405  0.0546
 6628TIP3   OH241518   2.172   2.886   7.179 -0.7042 -0.6674  0.7073
 6628TIP3    H141519   2.183   2.794   7.154 -0.8006 -0.7128  0.8311
 6628TIP3    H241520   2.260   2.923   7.176 -0.7722 -0.5519 -0.1662
 6629TIP3   OH241521   0.775   2.570   1.790 -0.2980  0.1137 -0.0076
 6629TIP3    H141522   0.765   2.576   1.885  1.1040  2.0303  0.0762
 6629TIP3    H241523   0.864   2.599   1.773 -0.1954 -1.0944 -1.8722
 6630TIP3   OH241524   3.799   1.002   8.803 -0.1344 -0.3853 -0.1519
 6630TIP3    H141525   3.761   0.968   8.884 -1.9875 -0.3290 -0.9478
 6630TIP3    H241526   3.787   1.097   8.809  1.1071 -0.2303  0.1506
 6631TIP3   OH241527   4.487   4.537   8.535  0.4966 -0.1139  0.8692
 6631TIP3    H141528   4.547   4.479   8.489  1.4465  1.3447  0.2161
 6631TIP3    H241529   4.487   4.618   8.484  0.7107  1.1707  2.7988
 6632TIP3   OH241530   1.012   5.644   1.967  0.2426  0.6048  0.3396
 6632TIP3    H141531   0.954   5.625   2.042  0.7031  0.5305  0.6791
 6632TIP3    H241532   1.089   5.590   1.982  0.5841  1.0277  0.1108
 6633TIP3   OH241533   3.851   6.430   1.983  0.0811 -0.0959  0.9628
 6633TIP3    H141534   3.842   6.445   2.077 -0.3344  1.3235  0.7216
 6633TIP3    H241535   3.772   6.467   1.945  0.0550 -1.0181  0.0706
 6634TIP3   OH241536   0.826   6.125   1.723  0.6934 -0.5445  0.1414
 6634TIP3    H141537   0.815   6.096   1.814  1.8895  0.8207  0.7676
 6634TIP3    H241538   0.768   6.201   1.714 -0.2867 -1.3600 -0.6109
 6635TIP3   OH241539   3.026   1.840   7.145 -0.5447 -0.5251  0.1227
 6635TIP3    H141540   3.030   1.876   7.057 -0.4522  1.7492  0.9804
 6635TIP3    H241541   2.971   1.762   7.137 -0.4996 -0.3901 -1.9240
 6636TIP3   OH241542   5.168   5.556   7.683  0.3367  0.0264 -0.1222
 6636TIP3    H141543   5.109   5.490   7.720  1.6327 -0.6911  0.7199
 6636TIP3    H241544   5.112   5.607   7.625 -1.1364 -0.5734  0.7083
 6637TIP3   OH241545   6.645   3.773   7.206 -0.0082 -0.1513 -0.3456
 6637TIP3    H141546   6.604   3.774   7.119 -0.3628  0.0035 -0.1762
 6637TIP3    H241547   6.637   3.683   7.235 -0.8781  0.0292 -0.0059
 6638TIP3   OH241548   3.636   0.641   0.206  0.0080  0.1120  0.6224
 6638TIP3    H141549   3.571   0.704   0.176 -0.5058 -1.3086 -1.4759
 6638TIP3    H241550   3.719   0.689   0.204 -0.6421  1.2977  1.1179
 6639TIP3   OH241551   3.183   2.110   1.243 -0.3674 -0.6657  0.1495
 6639TIP3    H141552   3.246   2.038   1.247 -1.3749 -1.5806  0.0407
 6639TIP3    H241553   3.173   2.138   1.334 -0.0244 -0.7161  0.2023
 6640TIP3   OH241554   0.965   1.928   2.515  0.2809 -0.6312  0.7088
 6640TIP3    H141555   0.885   1.923   2.567  0.0125  0.7402  0.4753
 6640TIP3    H241556   0.956   1.858   2.449 -0.3034 -1.0587  1.2335
 6641TIP3   OH241557   6.088   4.109   6.994 -0.0276 -0.1118 -0.1717
 6641TIP3    H141558   6.164   4.058   7.024 -0.0903  0.2514  0.6333
 6641TIP3    H241559   6.038   4.127   7.074 -1.3553 -0.9470 -0.7794
 6642TIP3   OH241560   5.783   4.645   1.635 -0.3764  0.2187  0.2223
 6642TIP3    H141561   5.782   4.579   1.705 -0.7057  0.4741  0.4601
 6642TIP3    H241562   5.708   4.622   1.580 -1.2808  1.1576  1.0259
 6643TIP3   OH241563   0.225   1.269   1.124  0.1019 -0.6457  0.0342
 6643TIP3    H141564   0.291   1.201   1.109  1.3939  0.6569 -0.3233
 6643TIP3    H241565   0.207   1.265   1.217 -1.2117 -2.6765 -0.2324
 6644TIP3   OH241566   0.457   5.068   0.868  0.2767 -0.3086  0.3729
 6644TIP3    H141567   0.440   4.979   0.838  0.8490 -0.4182  0.3713
 6644TIP3    H241568   0.551   5.070   0.886  0.6599  0.8693 -1.5359
 6645TIP3   OH241569   5.796   6.545   6.945  0.1724  0.4537 -0.4181
 6645TIP3    H141570   5.863   6.506   7.000  0.2275  0.1287 -0.7095
 6645TIP3    H241571   5.841   6.565   6.863 -0.2697 -0.5070 -0.9100
 6646TIP3   OH241572   1.113   5.872   0.480 -0.1107 -0.6297  1.1038
 6646TIP3    H141573   1.034   5.902   0.435  0.4921 -1.1546 -0.3678
 6646TIP3    H241574   1.124   5.781   0.451  0.0779 -1.1312  2.6737
 6647TIP3   OH241575   6.070   0.422   7.891 -0.8932 -0.3633  0.1347
 6647TIP3    H141576   6.034   0.509   7.910 -0.8365 -0.3505  0.1865
 6647TIP3    H241577   6.125   0.403   7.967 -0.8912 -0.4363  0.1141
 6648TIP3   OH241578   5.445   2.968   2.137  1.0609 -0.0659  0.0813
 6648TIP3    H141579   5.526   2.985   2.185  2.0522  2.3079 -2.1452
 6648TIP3    H241580   5.472   2.968   2.045 -1.5593  1.8978 -0.8058
 6649TIP3   OH241581   3.663   5.775   8.486  0.1557  0.7123 -0.3199
 6649TIP3    H141582   3.608   5.841   8.444  0.1452  1.0580  0.2309
 6649TIP3    H241583   3.633   5.773   8.577 -0.1992 -0.4268 -0.4457
 6650TIP3   OH241584   5.268   5.738   0.186 -0.0536  0.3957 -0.7036
 6650TIP3    H141585   5.300   5.818   0.229  2.6599 -2.2814  2.8139
 6650TIP3    H241586   5.337   5.715   0.124  0.4539 -0.4730  0.1487
 6651TIP3   OH241587   1.875   6.560   2.022  0.0327  0.2641 -0.4929
 6651TIP3    H141588   1.961   6.566   1.981  0.4037 -0.5260  0.1422
 6651TIP3    H241589   1.820   6.620   1.972  0.5562 -0.4023 -1.9223
 6652TIP3   OH241590   2.160   5.602   1.977  0.5453  0.0100  0.3335
 6652TIP3    H141591   2.124   5.550   1.905 -0.2755 -0.3131  0.9583
 6652TIP3    H241592   2.094   5.669   1.993  1.2165  0.7392  0.0835
 6653TIP3   OH241593   3.473   6.705   8.475 -0.2733  0.9425  0.1777
 6653TIP3    H141594   3.406   6.737   8.536 -0.6233 -0.4660  0.5765
 6653TIP3    H241595   3.476   6.771   8.406  0.1480  2.5870  1.7023
 6654TIP3   OH241596   1.295   3.794   7.630  0.2509 -0.1242 -0.8566
 6654TIP3    H141597   1.307   3.724   7.694  0.3640 -0.3642 -1.1385
 6654TIP3    H241598   1.379   3.800   7.585  0.1284 -0.0444 -1.0718
 6655TIP3   OH241599   4.883   1.060   8.771  0.1986 -0.3294  0.6231
 6655TIP3    H141600   4.814   1.110   8.726  1.2196  0.4008 -0.1701
 6655TIP3    H241601   4.902   1.112   8.849  1.5372  0.7921 -0.4003
 6656TIP3   OH241602   2.459   5.129   8.672 -0.9697 -0.1644  0.2098
 6656TIP3    H141603   2.488   5.081   8.595 -0.1885  2.3141 -1.1407
 6656TIP3    H241604   2.378   5.171   8.646  0.1176  2.0110  0.0819
 6657TIP3   OH241605   4.326   3.898   8.537  0.0997  0.0084 -0.2299
 6657TIP3    H141606   4.378   3.866   8.610 -2.1784  0.0788  1.5278
 6657TIP3    H241607   4.312   3.991   8.555  1.1382  0.5336 -1.8454
 6658TIP3   OH241608   2.916   4.318   0.945  0.3708 -0.4103  0.3988
 6658TIP3    H141609   2.944   4.343   0.857 -0.8950 -1.2342 -0.2619
 6658TIP3    H241610   2.857   4.389   0.972  1.3527  0.2276  0.9086
 6659TIP3   OH241611   6.152   5.878   7.389  0.1511 -0.0388 -0.3623
 6659TIP3    H141612   6.148   5.922   7.474 -1.3489  1.0136 -0.9410
 6659TIP3    H241613   6.096   5.801   7.398  2.7463 -1.9716  0.6383
 6660TIP3   OH241614   2.242   6.129   0.693 -0.1820  0.5314  0.3730
 6660TIP3    H141615   2.200   6.059   0.642  2.3687 -1.1654  0.3857
 6660TIP3    H241616   2.218   6.110   0.784  0.0929 -0.0428  0.3295
 6661TIP3   OH241617   6.646   0.757   1.594  0.3449 -0.3748 -0.1364
 6661TIP3    H141618   6.585   0.776   1.665  1.0687  0.0718  0.3744
 6661TIP3    H241619   6.671   0.843   1.560  0.6618 -0.5528 -0.3661
 6662TIP3   OH241620   0.399   6.392   1.638  0.2136 -0.2813 -0.4997
 6662TIP3    H141621   0.376   6.474   1.682  1.5926 -1.1705  2.1156
 6662TIP3    H241622   0.448   6.419   1.561  0.4111  1.3778  0.1596
 6663TIP3   OH241623   4.711   0.466   0.180  0.6501  0.3467 -0.0163
 6663TIP3    H141624   4.626   0.492   0.145  0.9715  0.5098 -0.7079
 6663TIP3    H241625   4.713   0.501   0.269 -0.9106 -1.5771  0.8525
 6664TIP3   OH241626   0.206   6.745   1.497 -0.4533  0.1795  0.7006
 6664TIP3    H141627   0.113   6.725   1.509 -0.3769  0.5861  2.1499
 6664TIP3    H241628   0.212   6.779   1.408 -1.5050 -0.8527  0.2012
 6665TIP3   OH241629   1.638   0.976   8.682 -0.0092  0.0334 -0.1819
 6665TIP3    H141630   1.560   1.003   8.634  0.3130 -1.3041 -1.5195
 6665TIP3    H241631   1.685   1.057   8.698 -1.6239  0.8744  0.6267
 6666TIP3   OH241632   5.886   0.648   6.995 -0.2061  0.4660 -0.4474
 6666TIP3    H141633   5.850   0.698   6.921 -0.4503  0.5302 -0.2884
 6666TIP3    H241634   5.972   0.687   7.011 -0.0098  0.2358 -0.9094
 6667TIP3   OH241635   3.057   1.482   1.634  0.0586 -0.1264  0.6297
 6667TIP3    H141636   3.052   1.537   1.557 -0.0104 -0.2736  0.5275
 6667TIP3    H241637   2.985   1.511   1.690 -0.7558 -0.9216  0.0375
 6668TIP3   OH241638   3.219   6.406   8.203  0.5400 -0.5276  0.0247
 6668TIP3    H141639   3.149   6.471   8.213  2.5869  1.5085  2.9410
 6668TIP3    H241640   3.255   6.424   8.116 -2.5423 -1.8027 -1.6681
 6669TIP3   OH241641   5.147   0.501   1.377  0.1321 -0.3507  1.0019
 6669TIP3    H141642   5.107   0.588   1.371  0.1092 -0.3924  0.5582
 6669TIP3    H241643   5.072   0.443   1.392  0.0072 -0.4403  0.0745
 6670TIP3   OH241644   4.607   4.937   6.610 -0.0182  0.4317 -0.2082
 6670TIP3    H141645   4.694   4.914   6.643  0.0674 -2.0028 -1.8747
 6670TIP3    H241646   4.597   4.885   6.531 -2.2113  2.2076 -1.2120
 6671TIP3   OH241647   2.892   4.424   8.819  0.3085 -0.0734 -0.2810
 6671TIP3    H141648   2.879   4.483   8.744 -0.4499 -0.4256 -0.4369
 6671TIP3    H241649   2.834   4.459   8.886  0.6304 -0.0415 -0.0197
 6672TIP3   OH241650   1.639   3.598   1.422 -0.4765 -0.2607  0.4590
 6672TIP3    H141651   1.727   3.561   1.416 -1.2588 -2.1869  0.2377
 6672TIP3    H241652   1.607   3.567   1.507 -1.1664 -0.1118  0.2543
 6673TIP3   OH241653   4.418   5.027   0.896 -0.3213  0.2715 -0.2341
 6673TIP3    H141654   4.330   5.056   0.920  0.1821  1.8991 -0.2857
 6673TIP3    H241655   4.415   5.015   0.801 -1.1402 -2.1351  0.0043
 6674TIP3   OH241656   4.921   2.820   7.267 -0.4707  0.4737 -0.3446
 6674TIP3    H141657   4.878   2.821   7.181  0.5534 -0.9132 -0.9126
 6674TIP3    H241658   4.925   2.912   7.293 -2.7925  0.7434 -0.7350
 6675TIP3   OH241659   1.944   6.202   1.635  0.1419  0.4159  0.0122
 6675TIP3    H141660   1.892   6.159   1.703  0.1211 -0.2489 -0.4083
 6675TIP3    H241661   1.999   6.132   1.599  1.0264  1.0189  0.1588
 6676TIP3   OH241662   3.144   3.310   8.428 -0.2004 -0.5402  0.1524
 6676TIP3    H141663   3.166   3.394   8.388  0.1042 -0.8052 -0.2497
 6676TIP3    H241664   3.070   3.329   8.485 -1.5784 -0.3984 -1.5879
 6677TIP3   OH241665   6.172   5.410   0.575 -0.1185  0.2787  0.0379
 6677TIP3    H141666   6.263   5.386   0.592  0.0988  1.9029  1.3900
 6677TIP3    H241667   6.137   5.436   0.660 -2.9247 -3.4309  0.2345
 6678TIP3   OH241668   0.089   1.780   8.462  0.8269 -0.0546 -0.4524
 6678TIP3    H141669   0.047   1.865   8.475 -2.2481 -1.6801  1.8463
 6678TIP3    H241670   0.178   1.791   8.494  2.1448  3.3370 -4.4995
 6679TIP3   OH241671   1.145   5.293   1.036  0.0873 -0.0414  0.1220
 6679TIP3    H141672   1.164   5.202   1.060  0.2804  0.1237  0.6095
 6679TIP3    H241673   1.081   5.322   1.100  0.3973  0.3176  0.2779
 6680TIP3   OH241674   1.656   2.339   7.792  0.1273 -0.2419  0.3747
 6680TIP3    H141675   1.746   2.307   7.791  1.1745  2.4654  0.5543
 6680TIP3    H241676   1.614   2.294   7.719  2.3689  0.3739 -1.3814
 6681TIP3   OH241677   6.459   5.029   6.379  0.9044  0.0024  0.5598
 6681TIP3    H141678   6.404   5.067   6.310  2.1094  1.7808  0.5196
 6681TIP3    H241679   6.454   4.934   6.364  0.7141  0.3092 -1.6329
 6682TIP3   OH241680   1.599   0.157   1.962  0.2124  0.4990  0.4034
 6682TIP3    H141681   1.591   0.194   2.050  0.2574 -1.6159  1.3506
 6682TIP3    H241682   1.511   0.164   1.924 -0.6316 -1.4745  1.8686
 6683TIP3   OH241683   5.538   4.006   6.529  0.1480 -0.0272  0.1066
 6683TIP3    H141684   5.516   3.933   6.471 -0.9921  0.4840 -0.1255
 6683TIP3    H241685   5.482   3.993   6.606  0.9360 -0.1493  0.6808
 6684TIP3   OH241686   2.147   3.492   2.483 -0.5133 -0.0612 -0.0436
 6684TIP3    H141687   2.144   3.587   2.471 -3.3567  0.0350  0.6051
 6684TIP3    H241688   2.192   3.460   2.405  0.0903  1.7745 -0.5063
 6685TIP3   OH241689   1.828   5.813   0.217 -0.1909  0.3929  0.2889
 6685TIP3    H141690   1.864   5.732   0.252 -1.3158 -0.7717 -1.1050
 6685TIP3    H241691   1.886   5.836   0.144  0.0320  0.7422  0.5780
 6686TIP3   OH241692   5.982   4.161   6.765 -0.2190 -0.3176 -0.2299
 6686TIP3    H141693   6.025   4.159   6.851  0.8672  0.1250 -0.7474
 6686TIP3    H241694   6.034   4.222   6.713 -0.8059 -0.6510 -1.2401
 6687TIP3   OH241695   2.500   2.841   1.138 -0.1787 -0.1859  0.1996
 6687TIP3    H141696   2.507   2.846   1.234 -0.7210 -0.0900  0.2352
 6687TIP3    H241697   2.496   2.933   1.111  1.6963 -0.1257 -0.0603
 6688TIP3   OH241698   0.046   5.940   7.171 -0.3942 -0.3471 -0.1208
 6688TIP3    H141699   0.036   5.847   7.189 -0.6176 -0.2950  0.0267
 6688TIP3    H241700   0.086   5.976   7.250  4.0510 -1.0724 -1.7731
 6689TIP3   OH241701   5.120   3.372   6.614 -0.6285  0.0236  0.1321
 6689TIP3    H141702   5.053   3.380   6.546  0.9107 -1.4664 -1.6639
 6689TIP3    H241703   5.180   3.444   6.596 -0.7582  0.2527  0.5965
 6690TIP3   OH241704   4.475   3.698   1.007  0.5629 -0.9637 -0.4121
 6690TIP3    H141705   4.450   3.789   1.026  0.2950 -1.5359  2.2461
 6690TIP3    H241706   4.391   3.653   0.994  0.6433 -1.0993 -0.4583
 6691TIP3   OH241707   3.118   0.498   7.426  0.0039 -0.1421 -0.8451
 6691TIP3    H141708   3.198   0.482   7.377  1.4251  0.6564  1.0623
 6691TIP3    H241709   3.135   0.580   7.473 -2.3085  0.5351 -1.0915
 6692TIP3   OH241710   6.577   2.573   8.793 -0.5264 -0.3309 -0.1797
 6692TIP3    H141711   6.587   2.618   8.877  0.4378  1.5058 -1.2228
 6692TIP3    H241712   6.580   2.642   8.728  2.0674 -1.9760 -1.9792
 6693TIP3   OH241713   2.118   6.181   7.189 -0.5121  0.4725 -0.3321
 6693TIP3    H141714   2.101   6.094   7.223  0.8335  1.0749  2.1005
 6693TIP3    H241715   2.032   6.219   7.174 -1.1223 -0.6834  0.1926
 6694TIP3   OH241716   3.126   3.512   0.621  0.1565 -0.4585  0.4413
 6694TIP3    H141717   3.045   3.519   0.671 -1.0626  4.2901 -1.6198
 6694TIP3    H241718   3.196   3.522   0.686 -1.1564  0.7352  1.7313
 6695TIP3   OH241719   6.712   0.741   1.040  0.0750  0.1618 -0.5951
 6695TIP3    H141720   6.651   0.716   1.110  1.7541 -0.8934  0.5602
 6695TIP3    H241721   6.750   0.823   1.069 -0.3554  0.5287 -1.0461
 6696TIP3   OH241722   5.207   5.975   7.424  0.6126 -0.1283  0.9604
 6696TIP3    H141723   5.239   5.911   7.488  0.3748 -1.8647 -0.5808
 6696TIP3    H241724   5.287   6.011   7.385  0.7354  0.1891  1.4841
 6697TIP3   OH241725   4.481   5.180   8.209 -0.1858 -0.1781  0.0065
 6697TIP3    H141726   4.506   5.196   8.300  0.8120 -0.0590 -0.2707
 6697TIP3    H241727   4.386   5.173   8.211 -0.4006  2.1252  0.7195
 6698TIP3   OH241728   6.220   2.185   6.857  0.1673 -0.6202  0.6895
 6698TIP3    H141729   6.160   2.235   6.912  0.1921 -0.7289  0.8143
 6698TIP3    H241730   6.165   2.120   6.814 -0.2009  0.6415 -0.8581
 6699TIP3   OH241731   3.145   0.768   1.460  0.4402 -0.3446  0.0263
 6699TIP3    H141732   3.172   0.808   1.377 -0.7087  0.3715 -0.0252
 6699TIP3    H241733   3.169   0.676   1.450 -1.5455 -0.7337 -1.9758
 6700TIP3   OH241734   6.131   4.309   0.411 -0.2107  0.3364 -0.0072
 6700TIP3    H141735   6.190   4.377   0.378  0.2689  0.7432  1.6161
 6700TIP3    H241736   6.082   4.351   0.481 -0.2054 -0.8501  0.7528
 6701TIP3   OH241737   6.724   1.752   8.763 -0.4228 -0.1324 -0.2619
 6701TIP3    H141738   6.631   1.768   8.778 -0.3129  1.7395 -1.2099
 6701TIP3    H241739   6.768   1.827   8.804  0.5993 -0.5886 -0.4920
 6702TIP3   OH241740   3.224   6.243   7.541  0.1316  0.0844  0.3799
 6702TIP3    H141741   3.181   6.158   7.546 -1.1997  0.7261  0.2919
 6702TIP3    H241742   3.206   6.285   7.625  2.2783 -0.3641  1.1292
 6703TIP3   OH241743   2.341   4.229   0.669 -0.6239  0.3420 -0.2606
 6703TIP3    H141744   2.280   4.285   0.717  0.6497  0.2743  1.5266
 6703TIP3    H241745   2.288   4.191   0.599 -2.5496  0.5812  0.9828
 6704TIP3   OH241746   0.620   4.633   0.797  0.0121  0.5226  0.4750
 6704TIP3    H141747   0.679   4.707   0.781  1.5970 -0.6228  0.8025
 6704TIP3    H241748   0.645   4.602   0.884 -1.1734  0.0715  0.6694
 6705TIP3   OH241749   4.419   4.444   6.967  0.0420 -0.6990 -0.2818
 6705TIP3    H141750   4.355   4.459   7.037 -0.2591  0.6557 -0.8128
 6705TIP3    H241751   4.492   4.400   7.011 -0.6569 -0.9935  0.6216
 6706TIP3   OH241752   4.263   6.280   7.905  0.6418  0.3989  0.2610
 6706TIP3    H141753   4.222   6.234   7.977 -0.3590  1.9096  0.6994
 6706TIP3    H241754   4.228   6.369   7.909 -0.4140  0.2642 -2.8052
 6707TIP3   OH241755   4.884   5.708   7.851  0.5450  0.1249 -0.1508
 6707TIP3    H141756   4.819   5.644   7.823  0.0999  0.3244  0.4150
 6707TIP3    H241757   4.855   5.791   7.812  0.4981  0.2010  0.0454
 6708TIP3   OH241758   3.335   3.397   1.200 -0.2712 -0.0127 -0.1475
 6708TIP3    H141759   3.389   3.408   1.122 -1.5161 -1.6947 -1.3284
 6708TIP3    H241760   3.333   3.302   1.214  0.5850  0.2832  2.4725
 6709TIP3   OH241761   0.682   5.631   2.397  1.1340 -0.3188  0.0693
 6709TIP3    H141762   0.631   5.708   2.420  0.2041 -0.8448 -0.1535
 6709TIP3    H241763   0.631   5.589   2.328  1.9771 -0.7621 -0.2983
 6710TIP3   OH241764   0.869   1.554   7.819  0.9035  0.0966 -0.0645
 6710TIP3    H141765   0.925   1.580   7.892  0.6414 -0.3340  0.2976
 6710TIP3    H241766   0.829   1.636   7.789  1.5348  0.3721 -0.1700
 6711TIP3   OH241767   4.710   0.945   6.540 -0.3055  0.0878 -0.3372
 6711TIP3    H141768   4.805   0.943   6.532 -0.2280  0.6507  0.3798
 6711TIP3    H241769   4.685   1.025   6.494 -0.4226  0.0153 -0.3999
 6712TIP3   OH241770   0.605   6.508   0.941 -0.4605 -0.1241 -0.1970
 6712TIP3    H141771   0.662   6.585   0.946 -2.4240  1.5075 -1.1882
 6712TIP3    H241772   0.591   6.483   1.033  1.3633 -0.2515  0.0821
 6713TIP3   OH241773   0.934   4.516   7.272  0.7533 -0.7791 -0.0436
 6713TIP3    H141774   0.964   4.426   7.284  1.9990 -0.5292 -1.0641
 6713TIP3    H241775   0.998   4.555   7.213 -0.3540  0.4735 -0.4669
 6714TIP3   OH241776   4.614   4.824   0.888 -0.1088  0.4238 -0.1343
 6714TIP3    H141777   4.557   4.898   0.910  1.3766  1.5939 -0.0794
 6714TIP3    H241778   4.586   4.798   0.800 -1.3922  0.2953  0.2899
 6715TIP3   OH241779   6.005   5.721   7.116 -0.5903 -0.2092 -0.2539
 6715TIP3    H141780   5.949   5.658   7.071 -1.8020  0.3744  0.3964
 6715TIP3    H241781   6.012   5.687   7.205  1.5153 -1.1764 -0.7335
 6716TIP3   OH241782   6.318   0.077   1.969  0.1403 -0.3100  0.2938
 6716TIP3    H141783   6.397   0.128   1.987 -0.2526  0.1815  0.6482
 6716TIP3    H241784   6.295   0.039   2.054 -0.4073  0.1222  0.3399
 6717TIP3   OH241785   1.392   4.287   1.396  0.6787  0.3088 -0.8894
 6717TIP3    H141786   1.426   4.366   1.354  1.8296  0.9348  1.1049
 6717TIP3    H241787   1.373   4.314   1.486 -3.6311 -0.4463 -1.3476
 6718TIP3   OH241788   5.866   4.271   1.011  0.1047 -0.0825  0.2173
 6718TIP3    H141789   5.774   4.288   1.033  0.6724  1.8298  1.3880
 6718TIP3    H241790   5.887   4.334   0.943  0.3641 -1.0523 -0.6232
 6719TIP3   OH241791   3.234   5.081   6.694  0.9889 -0.3800 -0.1440
 6719TIP3    H141792   3.240   5.140   6.619  2.3124 -0.4541 -0.1138
 6719TIP3    H241793   3.214   4.996   6.655 -1.1025  0.0614 -0.1725
 6720TIP3   OH241794   1.012   1.473   8.545 -0.1894 -0.2655  0.5146
 6720TIP3    H141795   0.970   1.387   8.544 -1.1887  0.2217 -0.1470
 6720TIP3    H241796   1.046   1.484   8.457 -0.0222  0.0039  0.6118
 6721TIP3   OH241797   6.210   0.909   8.271  0.0475  0.4169 -0.2723
 6721TIP3    H141798   6.297   0.950   8.266  0.3694 -0.0645  0.9678
 6721TIP3    H241799   6.195   0.874   8.183  2.3264 -1.8542  0.1067
 6722TIP3   OH241800   5.908   3.572   7.424 -0.0788  0.0112 -0.6581
 6722TIP3    H141801   5.957   3.577   7.506  0.4544  0.3068 -0.9900
 6722TIP3    H241802   5.974   3.549   7.358 -0.4792 -0.0974 -1.0241
 6723TIP3   OH241803   0.861   0.818   7.845 -0.7967  0.7202 -0.6507
 6723TIP3    H141804   0.901   0.905   7.852 -2.0139  1.1547  1.8336
 6723TIP3    H241805   0.921   0.761   7.894 -2.3595  1.1430  1.9650
 6724TIP3   OH241806   3.054   0.150   1.952 -0.0229 -0.3837  0.1885
 6724TIP3    H141807   2.964   0.149   1.986 -0.0785  1.4575  0.1786
 6724TIP3    H241808   3.105   0.195   2.019  0.8964 -1.2983  0.1323
 6725TIP3   OH241809   6.070   4.411   8.456 -0.0068 -0.1183  0.2445
 6725TIP3    H141810   6.022   4.351   8.398  1.0105 -0.5054 -0.2118
 6725TIP3    H241811   6.142   4.358   8.491  2.0444  1.3035 -1.6061
 6726TIP3   OH241812   4.382   0.090   0.474  0.4243  0.1399  0.0729
 6726TIP3    H141813   4.438   0.116   0.548 -0.4712 -0.8309  1.1296
 6726TIP3    H241814   4.444   0.074   0.403  1.3287  0.9780  0.6293
 6727TIP3   OH241815   3.753   6.829   1.098  0.4391  1.0666  0.1753
 6727TIP3    H141816   3.839   6.800   1.127 -0.4087 -1.6571  0.1950
 6727TIP3    H241817   3.767   6.860   1.009  1.0453 -2.0044 -0.8923
 6728TIP3   OH241818   2.223   3.407   8.142 -0.0029 -0.1476  0.0377
 6728TIP3    H141819   2.145   3.370   8.100 -0.1347  0.0296  0.1288
 6728TIP3    H241820   2.191   3.444   8.224  0.1905 -0.1449  0.1125
 6729TIP3   OH241821   0.830   2.020   0.568  0.1316  0.3943 -0.2110
 6729TIP3    H141822   0.738   2.003   0.549  0.2087  1.2512 -1.4748
 6729TIP3    H241823   0.835   2.114   0.581  0.7162  0.2607  0.6346
 6730TIP3   OH241824   6.254   6.215   8.075 -0.1650  0.5528 -0.3768
 6730TIP3    H141825   6.325   6.191   8.016 -0.5012  1.8445 -1.3548
 6730TIP3    H241826   6.175   6.184   8.031 -0.2396 -0.8469  0.6895
 6731TIP3   OH241827   1.850   4.114   7.679 -0.3321  0.1567 -0.6756
 6731TIP3    H141828   1.919   4.130   7.744 -0.8698  1.4751 -0.4134
 6731TIP3    H241829   1.889   4.049   7.620  0.2652 -0.8870  0.7822
 6732TIP3   OH241830   3.765   4.306   1.576 -0.1029  0.4436  0.3729
 6732TIP3    H141831   3.810   4.371   1.522  0.5014  1.3928  1.9484
 6732TIP3    H241832   3.678   4.298   1.537  0.7695 -0.0195 -1.6029
 6733TIP3   OH241833   1.726   1.252   8.728 -0.5121  0.0004  0.5345
 6733TIP3    H141834   1.670   1.263   8.651 -0.6368 -0.0136  0.6220
 6733TIP3    H241835   1.693   1.318   8.790 -0.3163  0.1111  0.5200
 6734TIP3   OH241836   0.243   1.990   8.745  0.1099 -0.2711  0.1424
 6734TIP3    H141837   0.330   2.000   8.784 -0.0253  1.4758  0.0690
 6734TIP3    H241838   0.260   1.945   8.662  1.1336  1.2180 -0.4935
 6735TIP3   OH241839   2.179   4.413   7.882  0.4787  0.1239  0.0164
 6735TIP3    H141840   2.155   4.502   7.910  0.3750  0.0161  0.2733
 6735TIP3    H241841   2.215   4.372   7.961  1.5265  0.2881 -0.3701
 6736TIP3   OH241842   1.065   2.566   8.554  0.1409 -0.4002 -0.1285
 6736TIP3    H141843   1.096   2.654   8.574 -0.7889 -0.2976  0.9644
 6736TIP3    H241844   0.971   2.569   8.568  0.0301 -1.4531 -0.5262
 6737TIP3   OH241845   0.201   6.159   2.630 -0.1408  0.1244  0.2707
 6737TIP3    H141846   0.152   6.210   2.566 -0.9799 -1.0125 -0.0117
 6737TIP3    H241847   0.184   6.203   2.714 -1.4289 -0.0918  0.1362
 6738TIP3   OH241848   2.198   0.477   0.078  0.5805  0.5950  0.0419
 6738TIP3    H141849   2.257   0.492   0.151  3.0340  0.3586 -1.7813
 6738TIP3    H241850   2.155   0.394   0.099  0.6619  0.9010  1.5263
 6739TIP3   OH241851   4.458   1.502   7.147  0.2135 -0.0622  0.3010
 6739TIP3    H141852   4.540   1.541   7.118  0.2922 -1.9857 -2.3607
 6739TIP3    H241853   4.390   1.547   7.096  0.1701 -2.1120 -1.5753
 6740TIP3   OH241854   4.014   3.449   2.747  0.0920 -0.1611 -0.0083
 6740TIP3    H141855   4.071   3.382   2.709  1.3490  2.1916 -2.6762
 6740TIP3    H241856   4.070   3.494   2.811  0.3695  0.4276 -0.6549
 6741TIP3   OH241857   3.323   4.794   8.572 -0.3439  0.0140 -0.1306
 6741TIP3    H141858   3.330   4.888   8.556  1.3540  0.3697  2.1639
 6741TIP3    H241859   3.251   4.785   8.634 -1.1929 -0.3635 -1.1352
 6742TIP3   OH241860   6.286   4.593   7.054 -0.6529  0.5294  1.1881
 6742TIP3    H141861   6.367   4.624   7.014 -0.5566 -0.6907  0.3985
 6742TIP3    H241862   6.307   4.506   7.088 -1.5301  0.3431  1.2907
 6743TIP3   OH241863   4.460   5.517   8.588 -1.2271  0.4949 -0.4048
 6743TIP3    H141864   4.424   5.487   8.672 -0.9186 -0.8609 -0.7329
 6743TIP3    H241865   4.393   5.574   8.551 -1.7635  0.3508  0.3287
 6744TIP3   OH241866   1.456   2.054   6.679 -0.3735  0.3509  0.4752
 6744TIP3    H141867   1.362   2.058   6.662 -0.6004 -0.6516  1.4281
 6744TIP3    H241868   1.469   2.115   6.751 -0.6030 -0.8523  1.5607
 6745TIP3   OH241869   4.571   5.472   8.279  0.3890 -0.1013  0.0105
 6745TIP3    H141870   4.502   5.408   8.295  0.7578 -0.4054  0.4119
 6745TIP3    H241871   4.524   5.551   8.251 -0.1138 -0.3369  0.1680
 6746TIP3   OH241872   6.079   6.426   7.846 -0.0404  0.1803  0.4265
 6746TIP3    H141873   6.061   6.504   7.897  0.6559 -0.2876  1.4231
 6746TIP3    H241874   6.100   6.459   7.758  1.1647  1.1838  1.0667
 6747TIP3   OH241875   2.668   6.580   7.742 -0.5678  0.2794  0.0097
 6747TIP3    H141876   2.697   6.629   7.819 -0.8694 -0.6026  0.7046
 6747TIP3    H241877   2.693   6.634   7.668  0.1712  0.9182  0.7107
 6748TIP3   OH241878   4.852   4.433   0.258 -0.7705 -0.0763  0.0307
 6748TIP3    H141879   4.945   4.453   0.271 -0.6750 -1.0613  1.0968
 6748TIP3    H241880   4.851   4.340   0.237 -1.5051 -0.0309 -0.1464
 6749TIP3   OH241881   1.921   4.586   0.037  0.0419  0.1862  0.2983
 6749TIP3    H141882   1.916   4.615  -0.055  0.1434  2.0131  0.8292
 6749TIP3    H241883   2.005   4.541   0.043 -0.0572 -0.1428 -0.5543
 6750TIP3   OH241884   2.428   6.563   1.661  0.0656  0.2603  0.3495
 6750TIP3    H141885   2.474   6.551   1.744 -0.2162  2.1312  0.8317
 6750TIP3    H241886   2.352   6.617   1.684 -0.4230  0.1805 -1.0169
 6751TIP3   OH241887   3.834   4.106   0.720 -0.3427 -0.4878  0.4336
 6751TIP3    H141888   3.872   4.036   0.667  0.2050  1.0360 -1.2887
 6751TIP3    H241889   3.898   4.122   0.789  1.0902  0.4162 -1.0354
 6752TIP3   OH241890   1.298   3.648   7.221  0.3131 -0.1001  0.4673
 6752TIP3    H141891   1.358   3.629   7.149 -0.1452  1.2457 -0.3092
 6752TIP3    H241892   1.294   3.567   7.271  1.2642 -0.8145 -0.5658
 6753TIP3   OH241893   0.518   4.643   7.340 -0.5143  0.0376  0.3844
 6753TIP3    H141894   0.610   4.671   7.339 -0.3590 -0.4446 -1.0584
 6753TIP3    H241895   0.502   4.612   7.251 -1.9664 -0.2703  0.7385
 6754TIP3   OH241896   4.046   0.726   8.482  0.3478  0.0448 -0.6003
 6754TIP3    H141897   4.029   0.820   8.489 -1.5372 -0.2364 -0.6629
 6754TIP3    H241898   3.960   0.688   8.462  1.0219 -1.7209 -0.3457
 6755TIP3   OH241899   1.271   4.399   0.117 -0.1808 -0.2374  0.1851
 6755TIP3    H141900   1.279   4.437   0.204 -0.3566 -0.5558  0.3402
 6755TIP3    H241901   1.184   4.426   0.087  0.5101  1.2618 -0.5622
 6756TIP3   OH241902   4.504   4.474   1.479 -0.5806  0.6376  0.1619
 6756TIP3    H141903   4.444   4.541   1.445  0.0143  0.9045 -0.3957
 6756TIP3    H241904   4.589   4.498   1.442  0.1243  0.9783  1.9305
 6757TIP3   OH241905   4.777   6.542   7.845  0.1745  0.0617 -0.5891
 6757TIP3    H141906   4.868   6.559   7.818  0.0312  0.3539 -0.8952
 6757TIP3    H241907   4.753   6.462   7.797 -0.0357  0.5064 -1.2410
 6758TIP3   OH241908   6.056   1.397   0.608 -0.0455  0.7141 -0.0843
 6758TIP3    H141909   5.992   1.335   0.642 -1.6853  1.9714 -0.7326
 6758TIP3    H241910   6.016   1.431   0.528  1.4550  1.5265 -0.5272
 6759TIP3   OH241911   2.515   6.570   1.943 -0.4224  0.1206 -0.0388
 6759TIP3    H141912   2.593   6.625   1.949 -0.8253  0.7780 -0.6357
 6759TIP3    H241913   2.500   6.539   2.032 -0.3543  1.2259  0.3739
 6760TIP3   OH241914   4.671   0.923   7.671 -0.0646  0.2041  0.1213
 6760TIP3    H141915   4.580   0.926   7.703 -0.9587  1.2444 -2.3077
 6760TIP3    H241916   4.694   0.830   7.673 -1.8612 -0.3047 -0.8838
 6761TIP3   OH241917   0.201   0.506   1.370  0.6820  0.1062 -0.1097
 6761TIP3    H141918   0.184   0.598   1.391  0.2046 -0.1970  0.9003
 6761TIP3    H241919   0.276   0.509   1.311 -0.0195  1.2014 -0.9938
 6762TIP3   OH241920   0.035   3.471   2.150 -0.2263 -0.2478  0.2193
 6762TIP3    H141921   0.028   3.470   2.245  1.1807  0.5257  0.3726
 6762TIP3    H241922  -0.010   3.551   2.123  3.4840  2.3307  0.7835
 6763TIP3   OH241923   1.118   3.801   1.967 -0.2420 -0.3861 -0.6772
 6763TIP3    H141924   1.175   3.876   1.984  1.1857 -1.4986 -0.4397
 6763TIP3    H241925   1.030   3.833   1.986  0.1126  1.7519 -2.2090
 6764TIP3   OH241926   0.645   5.140   7.118 -0.2095  0.2877 -0.3578
 6764TIP3    H141927   0.705   5.167   7.188  0.3195 -0.3401 -0.5476
 6764TIP3    H241928   0.578   5.208   7.115 -0.7096 -0.0865  1.3155
 6765TIP3   OH241929   6.725   4.705   7.997  0.1515  0.1976  0.2196
 6765TIP3    H141930   6.816   4.736   7.992  0.6164 -1.0455  0.4759
 6765TIP3    H241931   6.706   4.673   7.909  0.5941 -1.1551  0.5880
 6766TIP3   OH241932   5.750   4.480   8.176  0.4988 -0.0840 -0.2140
 6766TIP3    H141933   5.720   4.536   8.249  3.9554  1.3370  0.3253
 6766TIP3    H241934   5.761   4.541   8.103 -0.4561 -1.0370 -1.1770
 6767TIP3   OH241935   0.686   1.566   1.377  0.1463 -0.3660  0.3154
 6767TIP3    H141936   0.665   1.626   1.305  1.3402  0.0681  0.3049
 6767TIP3    H241937   0.724   1.621   1.444 -0.1434 -0.9024  0.9306
 6768TIP3   OH241938   3.837   5.897   0.246  0.0716 -0.1649  0.1480
 6768TIP3    H141939   3.781   5.964   0.285  1.0376 -0.6730  2.5476
 6768TIP3    H241940   3.804   5.815   0.281  0.6819 -0.6945 -0.5065
 6769TIP3   OH241941   1.157   1.583   1.013  0.6166 -0.0702  0.1440
 6769TIP3    H141942   1.139   1.505   0.961 -1.0511  0.6999 -0.5058
 6769TIP3    H241943   1.184   1.649   0.949  0.5196  0.3122  0.4917
 6770TIP3   OH241944   3.743   2.048   8.151 -0.0883  0.6711 -0.5103
 6770TIP3    H141945   3.713   2.086   8.069 -0.9465  0.8500 -0.1315
 6770TIP3    H241946   3.749   2.123   8.211 -1.2236  0.3099  0.0789
 6771TIP3   OH241947   4.525   1.296   0.474 -0.3354  0.2786 -0.3727
 6771TIP3    H141948   4.540   1.341   0.557 -0.8843  1.0857 -0.6977
 6771TIP3    H241949   4.465   1.353   0.426  0.3289  0.0525 -1.5146
 6772TIP3   OH241950   1.736   2.241   6.413 -0.4573  0.2213 -0.1990
 6772TIP3    H141951   1.710   2.262   6.503 -1.9511 -0.8119 -0.3457
 6772TIP3    H241952   1.662   2.272   6.360  0.4770  0.9522 -1.1000
 6773TIP3   OH241953   3.718   4.785   7.699 -0.1942  0.0829  0.1858
 6773TIP3    H141954   3.629   4.819   7.685  0.4075  0.8546 -2.1591
 6773TIP3    H241955   3.718   4.699   7.657  0.4872  0.6193 -0.9501
 6774TIP3   OH241956   6.026   3.925   8.399 -0.1557  0.4102  0.4478
 6774TIP3    H141957   6.062   3.844   8.434  0.0869  0.1278 -0.4290
 6774TIP3    H241958   6.102   3.980   8.381 -0.0114 -0.4826 -2.1341
 6775TIP3   OH241959   1.495   4.142   8.043  0.1254 -0.2771 -0.1998
 6775TIP3    H141960   1.491   4.111   8.133  1.6754  1.3793  0.5034
 6775TIP3    H241961   1.546   4.075   7.997 -0.0228 -0.7638  0.3307
 6776TIP3   OH241962   6.283   2.055   0.274  0.2589 -0.0925  0.0158
 6776TIP3    H141963   6.333   2.076   0.352  0.1158  1.8063 -0.3641
 6776TIP3    H241964   6.313   1.967   0.249  0.0537 -0.8994  2.3537
 6777TIP3   OH241965   1.444   3.478   1.607  0.3454  0.1239 -0.0906
 6777TIP3    H141966   1.363   3.527   1.594  0.3677  0.1510 -0.1294
 6777TIP3    H241967   1.424   3.390   1.576  0.4068  0.1966 -0.3382
 6778TIP3   OH241968   1.538   2.134   0.071 -0.3309  0.3748 -0.3352
 6778TIP3    H141969   1.486   2.210   0.043 -1.2927  0.0224  0.4489
 6778TIP3    H241970   1.543   2.142   0.166 -0.5077 -0.5888 -0.2370
 6779TIP3   OH241971   0.215   0.812   8.462  0.4550 -0.2308  0.0074
 6779TIP3    H141972   0.283   0.756   8.499  1.1948  0.0025 -0.9538
 6779TIP3    H241973   0.173   0.852   8.538  2.3628  0.7571  0.5946
 6780TIP3   OH241974   0.241   0.179   8.791 -0.5777  0.1181  0.0171
 6780TIP3    H141975   0.180   0.175   8.865  0.6626  0.1691  1.0896
 6780TIP3    H241976   0.214   0.109   8.733  0.3267 -2.0801  2.0887
 6781TIP3   OH241977   2.403   0.068   1.595 -0.1011 -0.1174 -0.5323
 6781TIP3    H141978   2.350   0.034   1.667 -1.5848  1.7645 -0.6369
 6781TIP3    H241979   2.447   0.144   1.631  0.9519 -0.4681 -1.0350
 6782TIP3   OH241980   0.270   2.045   1.876  0.3985 -0.1468 -0.1362
 6782TIP3    H141981   0.358   2.075   1.898  0.5210 -0.9634  0.5629
 6782TIP3    H241982   0.273   1.950   1.890 -0.6505 -0.1578  0.1080
 6783TIP3   OH241983   6.380   1.926   0.876  0.2751  0.2491  0.1631
 6783TIP3    H141984   6.393   1.873   0.797 -2.1258 -0.1968 -0.0051
 6783TIP3    H241985   6.401   1.867   0.948  0.6297  0.0607 -0.0872
 6784TIP3   OH241986   1.750   4.030   8.795  0.1058 -0.0379 -0.0546
 6784TIP3    H141987   1.665   4.045   8.837  0.6082  1.1164  0.6297
 6784TIP3    H241988   1.790   3.960   8.846 -0.8957 -1.4340 -1.1233
 6785TIP3   OH241989   5.087   2.630   6.597 -0.5998  0.0156 -0.6510
 6785TIP3    H141990   5.026   2.680   6.650 -0.2479  1.4507 -1.5510
 6785TIP3    H241991   5.033   2.568   6.549 -1.4877  1.7231 -1.9584
 6786TIP3   OH241992   3.882   3.095   1.548  0.3745 -0.7399 -0.2798
 6786TIP3    H141993   3.925   3.173   1.513  0.6686 -0.9405 -0.3737
 6786TIP3    H241994   3.791   3.102   1.520  0.7206 -1.1674 -1.5729
 6787TIP3   OH241995   1.820   2.371   7.110 -0.3248 -0.5240 -0.0591
 6787TIP3    H141996   1.800   2.280   7.133 -0.8502 -0.5201 -0.4826
 6787TIP3    H241997   1.887   2.397   7.173  0.0785 -1.3106 -0.1421
 6788TIP3   OH241998   4.296   6.074   0.901 -0.1312  0.0662  0.4496
 6788TIP3    H141999   4.204   6.101   0.891 -0.2904 -0.9710 -1.4747
 6788TIP3    H242000   4.319   6.037   0.816  1.3394 -1.8952  1.6108
 6789TIP3   OH242001   0.526   2.487   7.149  0.0877  0.2225  0.2652
 6789TIP3    H142002   0.458   2.420   7.139 -0.0472  0.6987 -2.6490
 6789TIP3    H242003   0.541   2.491   7.244  0.3876 -4.1997  0.6345
 6790TIP3   OH242004   0.936   5.461   6.482 -0.5574  0.3194  0.4235
 6790TIP3    H142005   0.937   5.377   6.528  0.0138  0.3963  0.5536
 6790TIP3    H242006   1.019   5.464   6.436 -0.3279  1.0707  0.8804
 6791TIP3   OH242007   6.250   3.371   7.548  0.1785  0.2171 -0.0287
 6791TIP3    H142008   6.309   3.446   7.554 -1.1412  1.2077  1.4964
 6791TIP3    H242009   6.184   3.387   7.615 -0.5701 -1.9652 -0.1470
 6792TIP3   OH242010   0.062   6.436   2.209 -0.2927  0.4798  0.4170
 6792TIP3    H142011   0.124   6.503   2.237  2.0007  0.0686 -3.0871
 6792TIP3    H242012  -0.013   6.486   2.176  0.4632  1.2732 -0.1559
 6793TIP3   OH242013   3.581   5.952   1.052 -0.3772  0.3449 -0.4345
 6793TIP3    H142014   3.597   6.001   1.133 -2.0707 -2.0646  1.5326
 6793TIP3    H242015   3.509   5.998   1.010 -0.4403  0.8204  0.1763
 6794TIP3   OH242016   3.791   1.636   2.695 -0.1828 -0.1886  0.0867
 6794TIP3    H142017   3.860   1.693   2.728  0.2571 -1.4694  1.4646
 6794TIP3    H242018   3.835   1.578   2.633 -0.1691 -0.4642  0.3490
 6795TIP3   OH242019   5.096   6.163   6.905 -0.0650  1.1197 -0.1612
 6795TIP3    H142020   5.174   6.168   6.850 -0.4213  0.8550 -0.6938
 6795TIP3    H242021   5.124   6.112   6.981  0.4885  1.6733  0.0164
 6796TIP3   OH242022   1.135   6.095   8.023 -0.1835  0.2916  0.0815
 6796TIP3    H142023   1.066   6.037   8.054  0.5699 -1.2288 -0.9309
 6796TIP3    H242024   1.134   6.169   8.084  0.0535 -1.6686  2.6183
 6797TIP3   OH242025   6.144   1.667   7.167  0.1105  0.0799  0.3330
 6797TIP3    H142026   6.103   1.703   7.088  0.4442 -1.5024 -0.5992
 6797TIP3    H242027   6.238   1.678   7.152  0.1716 -0.1203  0.5717
 6798TIP3   OH242028   2.710   0.115   8.030 -0.2382 -0.6176  0.4016
 6798TIP3    H142029   2.776   0.090   7.965  1.4117  1.1966  1.2866
 6798TIP3    H242030   2.675   0.198   7.997 -1.2951 -0.9932  0.5343
 6799TIP3   OH242031   4.483   6.552   8.811  0.9141  0.7461 -0.6958
 6799TIP3    H142032   4.410   6.533   8.752  0.9767 -0.8511 -0.3037
 6799TIP3    H242033   4.445   6.606   8.880  0.5612  1.5804 -1.5219
 6800TIP3   OH242034   1.125   2.351   8.074  0.1522 -0.4567 -0.2974
 6800TIP3    H142035   1.175   2.270   8.065  0.0640 -0.7355  1.4176
 6800TIP3    H242036   1.101   2.354   8.167 -1.1340  0.7766 -0.6350
 6801TIP3   OH242037   4.624   4.783   7.694 -0.2038 -0.3254  0.2262
 6801TIP3    H142038   4.544   4.830   7.675 -0.2589 -0.4465  0.1551
 6801TIP3    H242039   4.663   4.766   7.608  0.8407  1.3375  0.3351
 6802TIP3   OH242040   4.469   4.262   8.162  0.0073 -0.0081  0.0022
 6802TIP3    H142041   4.511   4.330   8.216  0.2056 -0.0555 -0.0932
 6802TIP3    H242042   4.429   4.311   8.090 -0.2423  0.0535  0.1808
 6803TIP3   OH242043   3.371   2.062   0.949 -0.1643  0.2870 -0.0845
 6803TIP3    H142044   3.332   2.058   0.861 -1.6916  0.0276  0.5717
 6803TIP3    H242045   3.427   1.985   0.954  0.9513  0.9906 -1.2746
 6804TIP3   OH242046   3.779   1.401   8.557 -0.4436 -0.2828  0.0561
 6804TIP3    H142047   3.871   1.422   8.544 -0.8511  1.6522 -0.1545
 6804TIP3    H242048   3.772   1.383   8.651  0.2310 -1.0190 -0.0254
 6805TIP3   OH242049   5.296   0.116   6.625 -0.2261 -0.0281 -0.1125
 6805TIP3    H142050   5.342   0.073   6.553  0.1119  0.4991 -0.2154
 6805TIP3    H242051   5.270   0.201   6.589 -0.4750  0.0468  0.2390
 6806TIP3   OH242052   5.976   3.861   6.634  0.1151  0.3100 -0.0812
 6806TIP3    H142053   6.007   3.946   6.603 -0.1321 -0.0173 -1.3099
 6806TIP3    H242054   6.047   3.801   6.611  0.7133  0.3120  1.6592
 6807TIP3   OH242055   4.907   2.906   0.221  1.0332  0.1017  0.5129
 6807TIP3    H142056   4.969   2.947   0.160  1.7873 -1.0271  0.4937
 6807TIP3    H242057   4.846   2.976   0.243  0.9186  0.6224 -1.3126
 6808TIP3   OH242058   0.694   0.725   1.739  0.1956 -0.1409  0.0139
 6808TIP3    H142059   0.767   0.709   1.800  0.6052  1.4583 -0.0139
 6808TIP3    H242060   0.695   0.819   1.725 -1.7200 -0.1137 -0.2145
 6809TIP3   OH242061   6.074   0.297   8.315  0.4796 -0.0739  0.3581
 6809TIP3    H142062   6.136   0.298   8.242 -0.3976  1.2985 -0.3853
 6809TIP3    H242063   6.092   0.377   8.363 -0.3292  0.0476  0.4699
 6810TIP3   OH242064   3.287   0.436   2.525  0.2140  0.1278 -0.1123
 6810TIP3    H142065   3.373   0.447   2.486  0.1452 -2.5694 -1.1978
 6810TIP3    H242066   3.304   0.420   2.617  0.9125 -0.6721 -0.3699
 6811TIP3   OH242067   6.272   1.122   8.775  0.3336  0.8194  0.6743
 6811TIP3    H142068   6.216   1.108   8.698  0.5910  0.4629  0.5489
 6811TIP3    H242069   6.309   1.036   8.793  0.4935  0.9635  1.0294
 6812TIP3   OH242070   2.165   4.080   7.702 -0.4925 -0.1301  0.0178
 6812TIP3    H142071   2.258   4.087   7.681 -0.3063 -0.5445  0.6807
 6812TIP3    H242072   2.162   4.030   7.784 -1.3882 -1.5963 -0.8815
 6813TIP3   OH242073   6.194   2.476   8.272 -0.2034  0.0809  0.2160
 6813TIP3    H142074   6.153   2.390   8.273  1.6775 -0.9372 -1.4144
 6813TIP3    H242075   6.251   2.477   8.349  1.4783 -1.1193 -0.9412
 6814TIP3   OH242076   2.215   0.765   7.998  0.7736  0.3444 -0.2929
 6814TIP3    H142077   2.301   0.733   8.023  1.0376  0.2533 -1.2710
 6814TIP3    H242078   2.231   0.822   7.923 -0.2896 -2.8023 -3.2102
 6815TIP3   OH242079   1.331   5.363   0.245  0.1432 -0.0049 -0.0257
 6815TIP3    H142080   1.407   5.394   0.293  0.1812 -0.6042  0.2959
 6815TIP3    H242081   1.272   5.328   0.312  0.0977 -0.6324 -0.3917
 6816TIP3   OH242082   1.782   3.042   7.316 -0.6786  0.3218  0.1458
 6816TIP3    H142083   1.826   2.959   7.332  0.8358  1.1564  0.5079
 6816TIP3    H242084   1.824   3.077   7.238 -1.1352  0.8586  0.1344
 6817TIP3   OH242085   2.425   3.062   8.692 -0.7133 -0.1958 -0.1433
 6817TIP3    H142086   2.459   3.121   8.759 -1.2078 -2.0814  1.8673
 6817TIP3    H242087   2.330   3.075   8.695 -1.0744 -2.6233  1.9882
 6818TIP3   OH242088   1.913   3.822   0.831  0.2465  0.1934  0.2886
 6818TIP3    H142089   2.006   3.802   0.822  0.2166 -0.1545  0.6896
 6818TIP3    H242090   1.910   3.896   0.892  0.1409 -1.8394  2.9589
 6819TIP3   OH242091   2.157   0.029   0.850 -0.2599  0.0921  0.2907
 6819TIP3    H142092   2.170   0.088   0.924 -2.4299 -1.3345  1.9308
 6819TIP3    H242093   2.075  -0.017   0.870  0.2628 -1.9938 -1.8959
 6820TIP3   OH242094   2.915   2.750   8.607  0.3639 -0.2700 -0.0102
 6820TIP3    H142095   2.979   2.734   8.677  0.2263 -0.0629  0.1613
 6820TIP3    H242096   2.968   2.780   8.533  0.7314 -2.2668 -0.6071
 6821TIP3   OH242097   0.142   3.012   8.824 -0.1501 -0.3828  0.6028
 6821TIP3    H142098   0.117   2.940   8.881  0.2138 -1.1226 -0.1498
 6821TIP3    H242099   0.232   3.033   8.849 -0.4805  0.2763  1.2788
 6822TIP3   OH242100   5.471   1.586   8.215  0.0716 -0.6377  0.5211
 6822TIP3    H142101   5.413   1.662   8.220 -0.8550 -0.9782 -2.6955
 6822TIP3    H242102   5.558   1.622   8.228 -0.2028  1.3481 -2.1996
 6823TIP3   OH242103   1.249   6.629   8.406 -0.0794 -0.5238  0.4050
 6823TIP3    H142104   1.164   6.609   8.366  0.4951 -2.0020 -0.1370
 6823TIP3    H242105   1.269   6.718   8.377 -0.2551 -1.0903 -1.6055
 6824TIP3   OH242106   2.850   2.805   0.280 -0.7626 -0.0540 -0.4165
 6824TIP3    H142107   2.938   2.844   0.276 -1.1223  1.0559  1.3726
 6824TIP3    H242108   2.804   2.842   0.205  0.0512 -0.0831 -0.9538
 6825TIP3   OH242109   5.487   2.171   0.328  0.0335  0.1166  0.3131
 6825TIP3    H142110   5.530   2.251   0.361 -2.0606  1.6242 -0.4133
 6825TIP3    H242111   5.546   2.101   0.354  1.9896  1.8818  0.9869
 6826TIP3   OH242112   2.606   0.641   6.929  0.0022  0.4609  0.2258
 6826TIP3    H142113   2.575   0.731   6.930 -0.6308  0.2452  0.3156
 6826TIP3    H242114   2.699   0.648   6.907 -0.3224  1.0446 -1.0169
 6827TIP3   OH242115   6.485   0.267   7.914  0.5122 -0.2004 -0.3767
 6827TIP3    H142116   6.563   0.231   7.955  0.7822 -0.6292 -1.2543
 6827TIP3    H242117   6.489   0.238   7.823  1.2261  2.7876 -1.4048
 6828TIP3   OH242118   2.702   6.562   7.346 -0.4110 -0.1251 -0.4240
 6828TIP3    H142119   2.618   6.543   7.387 -0.0635  1.2650  1.0533
 6828TIP3    H242120   2.752   6.481   7.354 -1.5279 -0.8978 -1.1303
 6829TIP3   OH242121   2.470   2.542   7.422 -0.0430  0.9419 -0.4822
 6829TIP3    H142122   2.543   2.515   7.478  0.7384 -0.0575 -1.9093
 6829TIP3    H242123   2.502   2.527   7.333 -2.0438  0.3857 -1.1477
 6830TIP3   OH242124   5.240   2.046   1.653 -0.1081 -0.1033  0.0055
 6830TIP3    H142125   5.262   2.068   1.744 -0.0042  3.9125 -0.8105
 6830TIP3    H242126   5.145   2.055   1.649 -0.1313 -0.4681 -0.2460
 6831TIP3   OH242127   4.780   2.179   7.092 -0.0291 -0.2895 -0.5186
 6831TIP3    H142128   4.724   2.203   7.018  0.6732  1.1435 -0.6315
 6831TIP3    H242129   4.736   2.104   7.132 -1.0555 -0.3444 -1.6734
 6832TIP3   OH242130   0.441   5.431   6.830 -0.1740 -0.5504 -0.0894
 6832TIP3    H142131   0.447   5.444   6.735  3.0023 -1.2503 -0.0909
 6832TIP3    H242132   0.431   5.336   6.840  1.1337 -0.6559  0.2829
 6833TIP3   OH242133   0.101   1.779   0.750  0.2795  0.4364 -0.3984
 6833TIP3    H142134   0.133   1.803   0.837  0.5654 -0.6288 -0.1994
 6833TIP3    H242135   0.157   1.707   0.722 -0.0684  0.5026 -1.2995
 6834TIP3   OH242136   4.402   1.856   7.597 -0.0175 -0.6830 -0.0445
 6834TIP3    H142137   4.393   1.950   7.580  1.2688 -0.5416 -0.0495
 6834TIP3    H242138   4.492   1.846   7.629 -0.8034 -1.6196  2.0833
 6835TIP3   OH242139   2.121   0.411   7.624  0.4909 -0.5747 -0.0953
 6835TIP3    H142140   2.046   0.417   7.565  0.1908 -0.2239  0.3147
 6835TIP3    H242141   2.180   0.350   7.581  1.0208  0.9025 -1.5768
 6836TIP3   OH242142   4.302   0.042   0.850  0.4245  0.0397  0.3310
 6836TIP3    H142143   4.307  -0.038   0.901 -0.1537  0.4588  1.0648
 6836TIP3    H242144   4.361   0.027   0.776  0.9492 -0.7430  0.8889
 6837TIP3   OH242145   3.573   3.642   0.197 -0.2003  0.6348  0.5284
 6837TIP3    H142146   3.617   3.691   0.128 -0.6236 -0.1576 -0.3175
 6837TIP3    H242147   3.547   3.709   0.260 -0.4256  1.4571 -0.4125
 6838TIP3   OH242148   6.653   1.421   7.948 -0.0897  0.1022 -0.3669
 6838TIP3    H142149   6.609   1.480   7.887  0.1230  1.8423  1.0775
 6838TIP3    H242150   6.619   1.334   7.927 -1.6052  0.9452 -1.5455
 6839TIP3   OH242151   0.169   4.456   7.157  0.4127  0.0371 -0.1987
 6839TIP3    H142152   0.240   4.408   7.199 -0.0864 -0.4356  0.1284
 6839TIP3    H242153   0.121   4.496   7.229  1.1643  1.5381 -0.5085
 6840TIP3   OH242154   6.162   0.869   7.836 -0.0636  0.0987 -0.3715
 6840TIP3    H142155   6.175   0.962   7.856 -1.5654  0.5352 -1.2458
 6840TIP3    H242156   6.228   0.849   7.770 -0.5762  0.9175 -1.1496
 6841TIP3   OH242157   2.306   5.743   7.138  0.0204  0.4180  0.1207
 6841TIP3    H142158   2.289   5.757   7.045  1.3817  1.7281  0.0260
 6841TIP3    H242159   2.344   5.655   7.142 -1.5846 -0.3323 -0.3150
 6842TIP3   OH242160   4.856   5.840   8.091  0.1789  0.1767  0.7807
 6842TIP3    H142161   4.830   5.770   8.030 -1.3886  0.5836  0.9360
 6842TIP3    H242162   4.936   5.807   8.132  0.3752 -0.8072 -0.3326
 6843TIP3   OH242163   1.547   2.732   8.393  0.0017  0.1986  0.2572
 6843TIP3    H142164   1.594   2.795   8.338 -0.0591  0.2689  0.2855
 6843TIP3    H242165   1.567   2.647   8.354 -1.2778  0.3624 -0.8209
 6844TIP3   OH242166   0.223   3.783   0.312 -0.4727 -0.0455  0.2302
 6844TIP3    H142167   0.154   3.784   0.245 -1.4222 -0.7642  1.1518
 6844TIP3    H242168   0.229   3.875   0.340  1.9203  0.8591 -2.6926
 6845TIP3   OH242169   4.659   6.807   7.118  0.4030 -0.2241  0.2049
 6845TIP3    H142170   4.597   6.778   7.183 -0.4551  3.0788  1.0624
 6845TIP3    H242171   4.742   6.816   7.165  0.0261  1.1628  0.6546
 6846TIP3   OH242172   4.754   1.670   0.239  0.4462 -0.0120 -0.1133
 6846TIP3    H142173   4.670   1.654   0.195 -0.7901 -0.9752  2.3754
 6846TIP3    H242174   4.746   1.759   0.274 -0.0734 -0.5020  1.0868
 6847TIP3   OH242175   0.161   6.228   2.074  0.3128  0.1480 -0.2759
 6847TIP3    H142176   0.214   6.269   2.006  1.4462  1.4500  1.3307
 6847TIP3    H242177   0.141   6.298   2.136 -1.5330 -0.7809  0.2725
 6848TIP3   OH242178   4.242   4.816   7.069 -0.0607 -0.2739  0.2998
 6848TIP3    H142179   4.322   4.869   7.062  0.9278 -1.7837 -0.5129
 6848TIP3    H242180   4.191   4.838   6.991  0.2090 -0.2971  0.1159
 6849TIP3   OH242181   2.916   6.078   7.282  0.0604 -0.6698 -0.0584
 6849TIP3    H142182   2.969   6.031   7.217  2.5262  0.9587  0.6531
 6849TIP3    H242183   2.910   6.017   7.356 -0.4105 -1.4684 -0.7388
 6850TIP3   OH242184   3.073   3.365   1.106 -0.4182 -0.4042  0.2571
 6850TIP3    H142185   3.111   3.280   1.082 -0.8176 -1.0645  1.8563
 6850TIP3    H242186   3.137   3.403   1.166  0.2845  0.9620 -1.2716
 6851TIP3   OH242187   0.696   2.921   8.573  0.6708  0.3933 -0.0431
 6851TIP3    H142188   0.751   2.888   8.644  2.2806 -0.0324 -1.4234
 6851TIP3    H242189   0.613   2.876   8.584  0.6678  0.7757  1.8883
 6852TIP3   OH242190   6.240   6.084   0.817 -0.1505 -0.0316  0.4219
 6852TIP3    H142191   6.253   6.058   0.909 -1.6670 -0.8479  0.4262
 6852TIP3    H242192   6.156   6.047   0.793  0.6258 -0.6217 -1.5961
 6853TIP3   OH242193   4.643   1.547   2.601  0.3893 -0.0406  0.2523
 6853TIP3    H142194   4.696   1.491   2.545  0.7735  2.2402 -1.8427
 6853TIP3    H242195   4.705   1.611   2.637 -0.4573  0.9402  0.0315
 6854TIP3   OH242196   1.354   5.060   1.678 -0.3759 -0.3432  0.0025
 6854TIP3    H142197   1.277   5.040   1.625 -1.6890 -0.0564  1.7168
 6854TIP3    H242198   1.326   5.130   1.736  1.5106  0.4692 -0.0011
 6855TIP3   OH242199   3.672   5.485   8.082  0.1727 -0.3151  0.1281
 6855TIP3    H142200   3.587   5.491   8.125  0.2221  2.0886  0.0210
 6855TIP3    H242201   3.654   5.444   7.997 -1.5859  3.1947 -1.3865
 6856TIP3   OH242202   0.203   1.493   8.442 -0.1913 -0.6335  0.3914
 6856TIP3    H142203   0.276   1.511   8.383  0.9935  1.6065  2.3737
 6856TIP3    H242204   0.241   1.435   8.509 -0.3931  0.0046  1.0660
 6857TIP3   OH242205   0.566   2.102   1.137 -0.7901 -0.0206 -0.0056
 6857TIP3    H142206   0.582   2.113   1.231 -1.1454 -0.9739  0.1784
 6857TIP3    H242207   0.652   2.113   1.096 -0.8154  1.5405  0.3038
 6858TIP3   OH242208   6.785   0.859   2.009 -0.0144 -0.1262 -0.0749
 6858TIP3    H142209   6.701   0.827   2.039 -0.9020  1.8186 -0.3112
 6858TIP3    H242210   6.842   0.856   2.086 -0.9662  0.6219  0.6749
 6859TIP3   OH242211   6.594   1.669   0.501  0.0475  0.2409  0.3815
 6859TIP3    H142212   6.567   1.599   0.559  1.3622  0.1238  0.8806
 6859TIP3    H242213   6.584   1.749   0.553 -0.2943  0.2994  0.2263
 6860TIP3   OH242214   4.904   1.598   7.859  0.0562 -0.3699  0.1113
 6860TIP3    H142215   4.943   1.547   7.789  0.0304  0.1750 -0.3069
 6860TIP3    H242216   4.853   1.666   7.814  0.1755  0.0879  0.6537
 6861TIP3   OH242217   0.852   2.314   2.211  0.0527 -0.3397  0.1188
 6861TIP3    H142218   0.771   2.353   2.244  0.3806 -0.0855  0.6484
 6861TIP3    H242219   0.893   2.276   2.289  1.8155  1.9684  0.4550
 6862TIP3   OH242220   5.336   4.380   7.991  0.3685  0.1030  0.2324
 6862TIP3    H142221   5.251   4.419   8.011  0.4393 -0.2233  1.2234
 6862TIP3    H242222   5.327   4.288   8.015  0.8382 -0.0487 -0.1477
 6863TIP3   OH242223   0.216   0.344   7.251 -0.4893 -0.3883  0.1379
 6863TIP3    H142224   0.150   0.320   7.186 -0.1959 -2.0407  0.4069
 6863TIP3    H242225   0.285   0.388   7.201  0.4419 -2.9437 -1.0119
 6864TIP3   OH242226   4.871   1.696   8.540  0.3395  0.5038  0.3504
 6864TIP3    H142227   4.958   1.670   8.509  0.2945  2.4343 -1.6139
 6864TIP3    H242228   4.886   1.730   8.629  1.3959 -0.1456  0.4395
 6865TIP3   OH242229   2.928   1.977   1.421 -0.2306  0.1619 -0.0535
 6865TIP3    H142230   2.879   2.056   1.397  0.7320  1.3495  1.6610
 6865TIP3    H242231   3.019   2.006   1.429  0.1846 -1.1697  0.4130
 6866TIP3   OH242232   3.567   0.535   8.365 -0.7030 -0.4477  0.1766
 6866TIP3    H142233   3.520   0.589   8.300  1.1226  1.6642  0.4841
 6866TIP3    H242234   3.603   0.463   8.315 -1.6122 -0.3656 -0.6346
 6867TIP3   OH242235   2.207   0.621   7.224 -0.4516  0.1959 -0.0396
 6867TIP3    H142236   2.300   0.621   7.203 -0.3275 -2.9794  0.0183
 6867TIP3    H242237   2.205   0.623   7.320 -0.3631 -0.7672 -0.0068
 6868TIP3   OH242238   4.509   4.605   8.011 -0.1366  0.1504 -0.6206
 6868TIP3    H142239   4.525   4.692   8.047  2.6747 -0.8050  0.7225
 6868TIP3    H242240   4.423   4.580   8.043 -0.3528  1.8443  0.1868
 6869TIP3   OH242241   1.573   1.629   8.425 -0.0531  0.4785 -0.1543
 6869TIP3    H142242   1.486   1.668   8.412 -0.5861 -0.5999  0.0929
 6869TIP3    H242243   1.594   1.648   8.516 -0.0515  0.6830 -0.1958
 6870TIP3   OH242244   3.214   3.085   8.340  0.6660  0.9110 -0.2102
 6870TIP3    H142245   3.195   3.170   8.380  0.5002  0.4635  0.6808
 6870TIP3    H242246   3.287   3.050   8.391  1.4296  0.9628 -1.2301
 6871TIP3   OH242247   1.187   4.565   6.727 -0.0673 -0.1813 -0.6166
 6871TIP3    H142248   1.207   4.516   6.648  0.5951  0.2052 -0.6960
 6871TIP3    H242249   1.098   4.538   6.750  0.6126 -2.1614 -0.0956
 6872TIP3   OH242250   2.459   6.270   0.595  0.2119 -0.3111 -0.0442
 6872TIP3    H142251   2.406   6.239   0.669 -1.4375 -0.5868 -1.2732
 6872TIP3    H242252   2.452   6.199   0.531  0.9506  0.2734 -0.7721
 6873TIP3   OH242253   0.327   3.696   2.299 -0.3680  0.5775 -0.2537
 6873TIP3    H142254   0.364   3.783   2.289 -1.9801  1.2993 -0.2402
 6873TIP3    H242255   0.255   3.707   2.362 -0.9092 -0.6517 -0.6154
 6874TIP3   OH242256   5.128   4.862   1.581 -0.2683  0.1089 -0.3495
 6874TIP3    H142257   5.083   4.873   1.497 -0.3238 -1.0125 -0.4825
 6874TIP3    H242258   5.061   4.824   1.638  0.8733 -3.2975 -1.0372
 6875TIP3   OH242259   1.728   6.457   8.701 -0.2943 -0.3331  0.0839
 6875TIP3    H142260   1.649   6.418   8.665  1.0885 -3.1918 -0.1451
 6875TIP3    H242261   1.730   6.428   8.793 -0.3226  1.1208  0.5699
 6876TIP3   OH242262   1.094   6.667   0.569  0.0822  0.5855 -0.1312
 6876TIP3    H142263   1.076   6.708   0.654 -0.8420  1.4182 -0.7113
 6876TIP3    H242264   1.013   6.621   0.547 -0.4018  1.9867 -1.4430
 6877TIP3   OH242265   2.149   0.275   0.686  0.1265  0.3591  0.4216
 6877TIP3    H142266   2.220   0.310   0.740 -0.0393 -0.2428  1.0339
 6877TIP3    H242267   2.092   0.229   0.747 -1.4194  1.7895  0.1201
 6878TIP3   OH242268   2.522   2.818   8.760 -0.3689 -0.6015  0.2537
 6878TIP3    H142269   2.454   2.759   8.726 -0.2001 -0.9424  0.4947
 6878TIP3    H242270   2.492   2.905   8.736 -0.9504 -0.7388  0.4491
 6879TIP3   OH242271   0.177   2.256   8.580 -0.1497  0.0732 -0.3451
 6879TIP3    H142272   0.173   2.163   8.605  0.2048 -0.1743 -1.1841
 6879TIP3    H242273   0.211   2.300   8.658  0.4665 -0.6164 -0.2125
 6880TIP3   OH242274   1.885   2.970   8.125  0.4900 -0.3497  0.0392
 6880TIP3    H142275   1.892   2.934   8.037  1.4088  0.2787 -0.1574
 6880TIP3    H242276   1.963   3.025   8.135  0.5857 -0.7044  1.3827
 6881TIP3   OH242277   1.672   3.694   0.733 -0.0863  0.4222  0.1225
 6881TIP3    H142278   1.708   3.646   0.658 -0.2493  0.2218  0.1707
 6881TIP3    H242279   1.749   3.730   0.777  0.1685 -0.9430  0.8755
 6882TIP3   OH242280   2.127   6.726   0.563 -0.0161  0.6358  0.1367
 6882TIP3    H142281   2.187   6.653   0.575  0.4735  0.7734 -1.2644
 6882TIP3    H242282   2.133   6.776   0.644  1.1433  0.1913  0.3355
 6883TIP3   OH242283   1.786   6.749   7.096  0.7193  0.1368 -0.5375
 6883TIP3    H142284   1.701   6.712   7.077  0.2447  1.2568 -0.6733
 6883TIP3    H242285   1.821   6.775   7.011  1.0409  0.0109 -0.4456
 6884TIP3   OH242286   5.768   1.277   8.317 -0.2713  0.1358 -0.1616
 6884TIP3    H142287   5.712   1.307   8.389  1.3813 -0.7561  1.5795
 6884TIP3    H242288   5.837   1.342   8.310  0.8535 -0.9229  0.6538
 6885TIP3   OH242289   4.898   1.680   0.010 -0.1416  0.0286  0.5634
 6885TIP3    H142290   4.863   1.667   0.098  2.2387  2.6778  2.0636
 6885TIP3    H242291   4.913   1.774   0.004 -0.0548 -0.0928 -2.6645
 6886TIP3   OH242292   5.634   6.785   1.722  0.1279  0.2685 -0.3994
 6886TIP3    H142293   5.637   6.716   1.788  0.6396 -0.1495 -0.8467
 6886TIP3    H242294   5.541   6.795   1.702 -0.0876  0.8440  0.8307
 6887TIP3   OH242295   5.487   5.421   1.348 -0.9468  0.1112 -0.9913
 6887TIP3    H142296   5.457   5.483   1.414 -0.1240  1.8984 -2.2226
 6887TIP3    H242297   5.472   5.335   1.388  0.1963  1.0867  1.8359
 6888TIP3   OH242298   0.746   3.955   1.458 -0.1186 -0.4457  0.2836
 6888TIP3    H142299   0.771   3.866   1.432 -0.1199 -0.6354  0.9058
 6888TIP3    H242300   0.725   3.999   1.376  1.9205 -0.3779 -0.2493
 6889TIP3   OH242301   3.836   0.759   1.104 -0.4699 -0.1093  0.2845
 6889TIP3    H142302   3.819   0.851   1.125 -0.2854  0.2712 -1.1464
 6889TIP3    H242303   3.926   0.758   1.071 -0.8374 -0.6095 -0.7518
 6890TIP3   OH242304   0.486   2.999   0.518 -0.2913 -0.2613 -0.7273
 6890TIP3    H142305   0.453   3.089   0.513  0.0685 -0.0659  0.1247
 6890TIP3    H242306   0.412   2.948   0.550  0.1290  0.1517  1.0416
 6891TIP3   OH242307   1.846   5.237   8.297 -0.0160 -0.3447 -0.2769
 6891TIP3    H142308   1.916   5.253   8.360  1.5222 -1.2391 -1.6775
 6891TIP3    H242309   1.767   5.230   8.350  0.8181  1.3530  1.2999
 6892TIP3   OH242310   3.570   6.207   2.149  0.3639  0.1955 -0.0983
 6892TIP3    H142311   3.503   6.146   2.181  1.7469  0.2454  3.3262
 6892TIP3    H242312   3.526   6.257   2.080 -2.4918 -1.0407  0.6766
 6893TIP3   OH242313   6.682   4.577   1.840 -0.7369 -0.3601 -0.1284
 6893TIP3    H142314   6.768   4.540   1.859 -0.8082 -0.8883 -0.7877
 6893TIP3    H242315   6.687   4.602   1.748 -1.0599  0.2578  0.0174
 6894TIP3   OH242316   2.203   4.060   8.281 -0.2917  0.0642  0.2875
 6894TIP3    H142317   2.274   4.079   8.341  1.9429 -0.6765 -1.9490
 6894TIP3    H242318   2.202   4.134   8.221 -0.7704 -0.3761 -0.2603
 6895TIP3   OH242319   4.420   1.648   8.656  0.0762 -0.0886 -0.3888
 6895TIP3    H142320   4.370   1.599   8.722  1.1802 -1.5299 -0.5777
 6895TIP3    H242321   4.507   1.607   8.657  1.0708  1.9370 -0.5184
 6896TIP3   OH242322   1.404   4.046   8.279  0.3714 -0.3380 -0.1603
 6896TIP3    H142323   1.343   3.973   8.267  1.0421 -0.7750 -0.9825
 6896TIP3    H242324   1.351   4.114   8.320  0.3374 -2.2037  3.3148
 6897TIP3   OH242325   5.477   2.587   2.552 -0.4445 -0.4774 -0.0121
 6897TIP3    H142326   5.438   2.613   2.469 -0.7102 -0.5283  0.0942
 6897TIP3    H242327   5.507   2.497   2.537 -2.2842 -1.2358  0.5248
 6898TIP3   OH242328   2.285   0.234   7.522  0.8553  0.4187 -0.3559
 6898TIP3    H142329   2.373   0.218   7.557  0.7591 -0.4886 -0.5073
 6898TIP3    H242330   2.254   0.148   7.494 -1.2988  0.1034  2.4713
 6899TIP3   OH242331   0.966   0.262   6.985 -0.1238 -0.6592 -0.0393
 6899TIP3    H142332   0.929   0.348   6.963  0.5707 -0.0145  1.1886
 6899TIP3    H242333   0.895   0.216   7.030  0.2866  0.3195  1.7043
 6900TIP3   OH242334   0.611   0.974   2.020  0.2460  0.1307 -0.2333
 6900TIP3    H142335   0.698   0.937   2.035 -0.6439 -2.0902 -0.0934
 6900TIP3    H242336   0.617   1.012   1.932  0.9610 -1.4495 -0.9269
 6901TIP3   OH242337   2.533   5.176   6.967 -0.3536  0.6689 -0.2460
 6901TIP3    H142338   2.620   5.212   6.984 -0.1654  0.2434 -0.2911
 6901TIP3    H242339   2.481   5.202   7.043  0.5865 -1.6143  1.2888
 6902TIP3   OH242340   0.848   6.021   7.985 -0.8574  0.1447 -0.1631
 6902TIP3    H142341   0.853   6.025   8.080  0.6943 -0.6744 -0.1897
 6902TIP3    H242342   0.766   6.067   7.964 -1.3825  0.0714  1.5640
 6903TIP3   OH242343   6.737   2.572   7.068  0.5836  0.4390 -0.2701
 6903TIP3    H142344   6.813   2.526   7.105  0.3060  0.9529  1.0124
 6903TIP3    H242345   6.766   2.663   7.060 -0.0401  0.7492  0.7534
 6904TIP3   OH242346   2.273   6.193   2.166  0.2027  0.1576  0.4932
 6904TIP3    H142347   2.359   6.174   2.129  1.6233  1.6637  2.7341
 6904TIP3    H242348   2.269   6.141   2.246 -1.8028 -1.2656 -0.4564
 6905TIP3   OH242349   5.936   1.359   8.642  0.0307 -0.3402 -0.4614
 6905TIP3    H142350   5.896   1.287   8.691  0.0806  0.2514  0.4980
 6905TIP3    H242351   5.963   1.321   8.559  1.4273 -1.8067  0.6111
 6906TIP3   OH242352   4.354   3.626   0.302  0.1122 -1.3223 -0.4730
 6906TIP3    H142353   4.276   3.621   0.246 -0.3478 -2.2911  0.2206
 6906TIP3    H242354   4.318   3.637   0.390  0.8137 -0.4035 -0.2876
 6907TIP3   OH242355   4.288   4.075   8.206  0.4406  0.3671  0.0488
 6907TIP3    H142356   4.364   4.134   8.204  0.6962  0.0292 -0.4074
 6907TIP3    H242357   4.212   4.133   8.204  0.6895  0.6808 -0.8854
 6908TIP3   OH242358   4.027   1.323   7.816  0.5922  0.3842 -0.9766
 6908TIP3    H142359   4.007   1.415   7.833  2.6366  0.6677  0.1521
 6908TIP3    H242360   4.086   1.297   7.887 -1.2407 -2.3186 -0.2789
 6909TIP3   OH242361   6.444   2.007   1.759  0.2422  0.1380  0.3213
 6909TIP3    H142362   6.423   1.932   1.815  0.7999 -0.5813 -0.4119
 6909TIP3    H242363   6.532   2.033   1.787  0.1527  0.3678  0.3960
 6910TIP3   OH242364   6.176   4.447   6.857  0.2953  0.3378 -0.0148
 6910TIP3    H142365   6.134   4.492   6.784 -3.2735 -0.6332  1.2513
 6910TIP3    H242366   6.197   4.516   6.920  0.9274  0.8781 -0.8010
 6911TIP3   OH242367   5.043   3.248   1.703 -0.6347  0.0057 -0.1503
 6911TIP3    H142368   5.121   3.301   1.684 -1.3447  0.3611 -2.3828
 6911TIP3    H242369   4.983   3.309   1.746 -0.9875  0.7690 -1.6319
 6912TIP3   OH242370   6.827   5.142   0.060 -0.2426  0.4879  0.2700
 6912TIP3    H142371   6.774   5.087   0.002  0.7739 -1.8572  1.4212
 6912TIP3    H242372   6.880   5.195   0.000 -0.0965 -0.9677 -0.9472
 6913TIP3   OH242373   6.168   6.662   8.323 -0.0889 -0.4999  0.6725
 6913TIP3    H142374   6.082   6.688   8.357 -1.1893 -1.1263 -1.4355
 6913TIP3    H242375   6.192   6.732   8.262  0.0299 -1.1943 -0.0971
 6914TIP3   OH242376   3.648   0.150   1.867  0.1282  0.0509 -0.1888
 6914TIP3    H142377   3.635   0.136   1.774  0.2087 -0.2022 -0.1639
 6914TIP3    H242378   3.560   0.142   1.905  0.3532 -2.1855  0.0440
 6915TIP3   OH242379   4.959   3.188   0.868  0.0002 -0.2462 -0.9211
 6915TIP3    H142380   4.994   3.270   0.834 -1.1514  1.2921  1.3893
 6915TIP3    H242381   4.864   3.201   0.869 -0.3718 -2.3306 -2.1381
 6916TIP3   OH242382   6.205   6.276   1.426 -0.0883  0.3709  0.1967
 6916TIP3    H142383   6.252   6.309   1.349 -0.2540  0.8110  0.2825
 6916TIP3    H242384   6.257   6.306   1.500 -0.9961  1.6736  0.3311
 6917TIP3   OH242385   0.007   3.412   1.707  0.4153 -0.1513 -0.2030
 6917TIP3    H142386  -0.068   3.356   1.727 -0.2922  0.3162 -1.4599
 6917TIP3    H242387   0.080   3.371   1.754 -0.1849 -1.8186 -0.6495
 6918TIP3   OH242388   3.051   5.616   2.551  0.4098 -0.4875 -0.3410
 6918TIP3    H142389   2.989   5.688   2.564 -0.4979 -0.0301 -5.1725
 6918TIP3    H242390   3.134   5.650   2.585  0.1782  3.3174 -2.8839
 6919TIP3   OH242391   5.339   4.207   7.442 -0.0688  0.6456  0.4397
 6919TIP3    H142392   5.357   4.204   7.536  0.3545  1.6614  0.4055
 6919TIP3    H242393   5.426   4.201   7.401  0.1116  3.2815  0.2138
 6920TIP3   OH242394   1.543   3.139   8.348 -0.4561 -0.7885 -1.1033
 6920TIP3    H142395   1.631   3.168   8.375 -0.5544 -1.1400 -0.3740
 6920TIP3    H242396   1.512   3.086   8.422 -2.3607  1.4790 -0.1349
 6921TIP3   OH242397   2.619   0.841   1.760 -0.3838  0.7430 -0.6754
 6921TIP3    H142398   2.609   0.779   1.688 -1.4573  1.6137 -1.3146
 6921TIP3    H242399   2.529   0.863   1.785 -0.0198  1.3371  0.1400
 6922TIP3   OH242400   5.426   4.059   0.914 -1.2649  0.5849 -0.2569
 6922TIP3    H142401   5.449   4.040   1.005 -3.2482 -0.7498  0.0196
 6922TIP3    H242402   5.510   4.068   0.870 -0.1990 -1.6504  1.1413
 6923TIP3   OH242403   0.087   0.879   8.692 -0.1871  0.0789 -0.4781
 6923TIP3    H142404   0.075   0.808   8.755 -0.9045  1.5168  1.0752
 6923TIP3    H242405   0.018   0.942   8.713 -0.5710  0.5424 -2.8518
 6924TIP3   OH242406   4.156   0.733   2.401  0.1154  0.2901  0.9013
 6924TIP3    H142407   4.191   0.809   2.446 -1.3289  1.7751 -0.3532
 6924TIP3    H242408   4.063   0.732   2.423  0.0753 -1.0558  0.7957
 6925TIP3   OH242409   4.973   3.374   7.719  0.1867 -0.3743 -0.1263
 6925TIP3    H142410   4.908   3.316   7.679  0.7670 -0.8259 -0.4307
 6925TIP3    H242411   5.001   3.327   7.798 -0.0616 -0.0478  0.1592
 6926TIP3   OH242412   0.159   5.737   7.831  0.6051 -0.0486 -0.2271
 6926TIP3    H142413   0.180   5.664   7.889 -1.2797 -0.0675  0.5272
 6926TIP3    H242414   0.162   5.814   7.888 -0.7040  0.0043 -0.2013
 6927TIP3   OH242415   4.884   6.090   1.038 -0.0180  0.3501  0.4733
 6927TIP3    H142416   4.973   6.059   1.050  0.1298  1.1777  1.7924
 6927TIP3    H242417   4.874   6.100   0.943  0.9498 -0.6821  0.2490
 6928TIP3   OH242418   4.204   4.445   0.349 -0.0461 -0.2401  0.0184
 6928TIP3    H142419   4.218   4.353   0.326 -0.1253 -0.1770 -0.2926
 6928TIP3    H242420   4.284   4.472   0.393  1.2707  0.3917 -2.5650
 6929TIP3   OH242421   6.451   0.062   8.514 -0.5007  0.0803  0.0444
 6929TIP3    H142422   6.358   0.074   8.498 -0.9994 -0.2023  2.3696
 6929TIP3    H242423   6.456   0.019   8.599  1.6639 -3.2928 -1.5398
 6930TIP3   OH242424   2.730   5.539   7.878 -0.0629 -0.8286 -0.4612
 6930TIP3    H142425   2.653   5.580   7.838  0.9175 -0.1690 -1.7343
 6930TIP3    H242426   2.797   5.541   7.810  1.2262 -1.0353  0.7461
 6931TIP3   OH242427   0.756   2.260   7.703 -0.4040  0.3952  0.6280
 6931TIP3    H142428   0.705   2.182   7.682  0.8563 -1.2915  3.3385
 6931TIP3    H242429   0.803   2.237   7.783 -0.9756  4.4003  2.3335
 6932TIP3   OH242430   3.393   3.320   8.090  0.3404 -0.3601 -0.3065
 6932TIP3    H142431   3.300   3.333   8.070  0.1116 -0.9744  0.3133
 6932TIP3    H242432   3.439   3.372   8.024 -0.4807  2.2661  1.0316
 6933TIP3   OH242433   4.556   4.720   6.895  0.0421  0.3177  0.5930
 6933TIP3    H142434   4.514   4.644   6.936  0.5533 -0.1472  0.2719
 6933TIP3    H242435   4.584   4.688   6.809 -0.3874  1.0768  0.1611
 6934TIP3   OH242436   5.688   6.196   6.531 -0.1362 -0.6197  0.2301
 6934TIP3    H142437   5.622   6.161   6.472 -0.6176  0.0747  0.3365
 6934TIP3    H242438   5.642   6.209   6.614 -0.1960  0.9507 -0.0103
 6935TIP3   OH242439   5.140   4.718   8.573  0.4444  0.3183 -0.0983
 6935TIP3    H142440   5.169   4.648   8.515 -1.2990 -0.0092 -0.6461
 6935TIP3    H242441   5.218   4.744   8.621  1.3528 -1.2804 -0.6415
 6936TIP3   OH242442   2.449   4.785   6.404  0.4593 -0.1309 -1.0539
 6936TIP3    H142443   2.425   4.729   6.331  0.1822 -0.5010 -0.6827
 6936TIP3    H242444   2.514   4.735   6.453 -1.1430 -0.9360  0.3202
 6937TIP3   OH242445   1.787   5.070   1.832 -0.4762  0.2607 -0.0687
 6937TIP3    H142446   1.862   5.045   1.779  1.0041 -0.0855  2.0892
 6937TIP3    H242447   1.774   5.163   1.813  1.0564  0.5339  0.1468
 6938TIP3   OH242448   6.485   5.758   8.352 -0.1488 -0.5705  0.6749
 6938TIP3    H142449   6.571   5.729   8.380 -0.1281 -0.8873  0.2919
 6938TIP3    H242450   6.465   5.833   8.408  1.0565  0.5117 -0.2850
 6939TIP3   OH242451   4.006   3.410   1.783  0.2173 -0.1051 -0.2592
 6939TIP3    H142452   4.057   3.476   1.830 -0.0521 -0.5719  0.7185
 6939TIP3    H242453   3.970   3.456   1.707  1.0916  0.5317 -0.2938
 6940TIP3   OH242454   5.471   0.624   6.640  0.1775 -0.2369  0.2990
 6940TIP3    H142455   5.529   0.698   6.623 -0.9627  0.2706 -1.6450
 6940TIP3    H242456   5.406   0.628   6.571 -1.3483 -1.6441  1.5704
 6941TIP3   OH242457   0.934   4.048   7.141 -0.2010 -0.3473  0.8003
 6941TIP3    H142458   1.009   4.023   7.088  0.2604 -0.5648  1.5364
 6941TIP3    H242459   0.916   3.971   7.195  0.0726  0.2500  1.7740
 6942TIP3   OH242460   0.720   5.534   6.871  0.3763  0.2812  0.1461
 6942TIP3    H142461   0.640   5.481   6.870  1.2003 -1.0116 -1.2618
 6942TIP3    H242462   0.768   5.502   6.948  0.1591  0.0745  0.1968
 6943TIP3   OH242463   2.057   2.426   0.386  0.7223  0.5895  0.0568
 6943TIP3    H142464   2.077   2.499   0.444  1.0475 -0.0359  0.7502
 6943TIP3    H242465   2.133   2.419   0.329  0.2746  1.3953 -0.6704
 6944TIP3   OH242466   6.674   3.488   0.074 -0.0448  0.1086 -0.4506
 6944TIP3    H142467   6.676   3.396   0.049  1.3969 -0.0847  0.2741
 6944TIP3    H242468   6.692   3.535  -0.008  0.6056 -0.3187 -0.5538
 6945TIP3   OH242469   3.554   3.922   8.646  0.4270 -1.0736  0.2359
 6945TIP3    H142470   3.566   4.015   8.666 -0.8970 -1.2602  2.2458
 6945TIP3    H242471   3.504   3.920   8.565 -0.6187  0.0281  0.8320
 6946TIP3   OH242472   2.639   0.424   7.123  0.0094 -0.3089  0.2366
 6946TIP3    H142473   2.621   0.452   7.033  1.0134  0.7242  0.3313
 6946TIP3    H242474   2.557   0.383   7.152 -1.2092  1.6091 -0.3031
 6947TIP3   OH242475   0.933   6.705   7.603 -0.3727 -0.3335  0.1150
 6947TIP3    H142476   0.915   6.778   7.544  0.2858 -1.4374 -1.5093
 6947TIP3    H242477   1.023   6.719   7.632 -0.6376  0.1110  0.7675
 6948TIP3   OH242478   0.846   0.520   8.227 -0.6445 -0.0215 -0.1683
 6948TIP3    H142479   0.841   0.616   8.228 -1.1603 -0.0478 -0.0583
 6948TIP3    H242480   0.757   0.491   8.245 -0.6267 -0.5239 -0.8630
 6949TIP3   OH242481   6.287   1.279   7.563 -0.3684 -0.3785 -0.1656
 6949TIP3    H142482   6.195   1.266   7.541 -0.7325 -0.4961  1.3351
 6949TIP3    H242483   6.309   1.365   7.527 -1.1964 -0.1535 -0.1482
 6950TIP3   OH242484   5.484   2.398   7.156 -0.0931  0.3215 -0.0291
 6950TIP3    H142485   5.508   2.373   7.067 -0.5684  2.1170 -0.7134
 6950TIP3    H242486   5.393   2.368   7.166  0.0710 -0.1822 -0.0098
 6951TIP3   OH242487   0.051   6.556   7.360  0.2312 -0.1719  0.2768
 6951TIP3    H142488   0.084   6.470   7.386  0.8191  0.1078  0.4623
 6951TIP3    H242489  -0.043   6.552   7.377 -0.1156 -1.4743 -1.6076
 6952TIP3   OH242490   3.496   1.570   6.960  0.6940  0.5588 -0.4462
 6952TIP3    H142491   3.477   1.607   7.046 -1.6776 -1.0305 -0.1701
 6952TIP3    H242492   3.554   1.496   6.977  1.2471  1.0067 -0.3760
 6953TIP3   OH242493   4.560   5.470   0.899  0.1441  0.2734 -0.1468
 6953TIP3    H142494   4.562   5.531   0.973 -1.7418  1.6945 -1.1836
 6953TIP3    H242495   4.548   5.526   0.822  0.6528 -1.2698 -1.4088
 6954TIP3   OH242496   4.150   6.711   7.782 -0.3424 -0.1505 -0.7430
 6954TIP3    H142497   4.155   6.760   7.700 -1.7963 -0.3381 -0.9767
 6954TIP3    H242498   4.075   6.652   7.770  0.8126 -1.7953 -0.1251
 6955TIP3   OH242499   0.254   2.158   0.837  0.1659  0.1395  0.2764
 6955TIP3    H142500   0.166   2.127   0.859  0.1965  0.6218  1.1180
 6955TIP3    H242501   0.313   2.091   0.871  0.1959  0.7123  1.4212
 6956TIP3   OH242502   5.781   4.619   2.591 -0.0467  0.1060  0.0304
 6956TIP3    H142503   5.725   4.687   2.555  0.7993  1.1835  0.7117
 6956TIP3    H242504   5.842   4.597   2.520 -1.6954 -1.5642 -0.9573
 6957TIP3   OH242505   3.952   2.854   0.283  0.0178  0.4611 -0.5712
 6957TIP3    H142506   3.934   2.933   0.335 -2.2003 -0.4598  0.1826
 6957TIP3    H242507   3.875   2.800   0.295  1.6803 -2.0780 -0.6675
 6958TIP3   OH242508   6.392   5.501   8.661 -0.4792  0.0980 -0.3515
 6958TIP3    H142509   6.434   5.535   8.739 -2.1494  2.0692 -0.2169
 6958TIP3    H242510   6.308   5.467   8.692 -1.4599  1.5314 -1.3254
 6959TIP3   OH242511   2.342   3.771   7.673  0.3204  0.5576  0.6883
 6959TIP3    H142512   2.414   3.799   7.616 -0.4911 -1.8724 -1.7448
 6959TIP3    H242513   2.371   3.687   7.709 -0.8892  0.0164  0.4509
 6960TIP3   OH242514   4.663   4.453   1.920  0.8181  0.0041 -0.2983
 6960TIP3    H142515   4.716   4.384   1.960  0.8876 -0.8013 -1.7241
 6960TIP3    H242516   4.584   4.409   1.891  0.9793  0.4692 -1.4733
 6961TIP3   OH242517   3.552   0.861   6.579  0.2071  0.1577 -0.1659
 6961TIP3    H142518   3.543   0.815   6.662 -1.5558  0.0976 -0.3581
 6961TIP3    H242519   3.582   0.794   6.517 -1.3344 -0.5331 -0.2076
 6962TIP3   OH242520   4.480   4.641   1.701 -0.1765  0.0322  0.2810
 6962TIP3    H142521   4.486   4.575   1.631  1.0345  1.4603 -1.0232
 6962TIP3    H242522   4.399   4.619   1.747 -0.7980 -1.2252 -1.3008
 6963TIP3   OH242523   2.353   5.952   7.293 -0.1308 -0.6759  0.2756
 6963TIP3    H142524   2.361   5.877   7.234 -1.6113  0.1463 -1.0763
 6963TIP3    H242525   2.264   5.947   7.326 -0.6134  0.9940 -0.6401
 6964TIP3   OH242526   6.377   1.371   0.497  0.2660 -0.2675  0.5895
 6964TIP3    H142527   6.466   1.397   0.520  0.6645 -0.5290 -0.5760
 6964TIP3    H242528   6.388   1.304   0.430 -0.8111  0.0681  0.0503
 6965TIP3   OH242529   6.502   2.842   0.912 -0.4448 -0.5073  0.1475
 6965TIP3    H142530   6.545   2.770   0.959 -1.9522 -1.8140 -0.3790
 6965TIP3    H242531   6.455   2.891   0.980  1.6189  0.8126  0.6959
 6966TIP3   OH242532   2.668   0.291   0.598 -0.5276 -0.2580 -0.4525
 6966TIP3    H142533   2.681   0.386   0.600  1.4645 -0.4761 -0.6817
 6966TIP3    H242534   2.615   0.272   0.676  0.1104  0.9085  0.2943
 6967TIP3   OH242535   0.189   3.049   2.347 -0.0300  0.7617 -0.1486
 6967TIP3    H142536   0.108   2.998   2.340 -0.1087  0.9549 -0.7736
 6967TIP3    H242537   0.174   3.108   2.421 -0.3357  0.5744 -0.0594
 6968TIP3   OH242538   0.640   0.683   8.482 -0.4579  0.0357 -0.5179
 6968TIP3    H142539   0.559   0.677   8.532  0.3312 -1.7788  0.6633
 6968TIP3    H242540   0.636   0.608   8.422  1.0729 -1.1418  0.7723
 6969TIP3   OH242541   3.560   4.313   1.974 -0.5802  0.5420  0.4039
 6969TIP3    H142542   3.598   4.397   1.996 -0.5621  0.6024  0.1385
 6969TIP3    H242543   3.484   4.305   2.033 -1.1652  1.1824 -0.2450
 6970TIP3   OH242544   3.974   4.756   0.864 -0.4526 -0.3440 -0.4412
 6970TIP3    H142545   3.995   4.772   0.772  0.7872  0.4194 -0.0493
 6970TIP3    H242546   3.911   4.825   0.887  1.5626  1.4200  0.0680
 6971TIP3   OH242547   3.287   5.415   0.799 -0.0730 -0.4643 -0.2085
 6971TIP3    H142548   3.320   5.438   0.886  0.6650  0.0021 -0.6026
 6971TIP3    H242549   3.196   5.446   0.799  0.0740 -0.0206  0.2253
 6972TIP3   OH242550   4.422   3.822   8.287 -0.5371 -0.3262  0.0123
 6972TIP3    H142551   4.377   3.794   8.366 -0.4367  0.4850  0.3673
 6972TIP3    H242552   4.457   3.908   8.308 -0.1972 -0.2521 -0.7956
 6973TIP3   OH242553   3.142   4.782   6.817 -0.4438 -0.2637  0.6154
 6973TIP3    H142554   3.054   4.761   6.786 -1.1412  1.1679  1.4765
 6973TIP3    H242555   3.193   4.796   6.738 -1.0424 -0.9119  0.1023
 6974TIP3   OH242556   6.714   2.214   2.445  0.9832 -0.4039  0.5464
 6974TIP3    H142557   6.689   2.267   2.369  0.7044  0.6713  1.3701
 6974TIP3    H242558   6.809   2.203   2.436  0.9275 -0.4340 -0.0467
 6975TIP3   OH242559   3.549   2.723   1.909 -0.6765 -0.2297  0.2743
 6975TIP3    H142560   3.621   2.720   1.846 -0.6615 -1.0966  0.3208
 6975TIP3    H242561   3.512   2.811   1.899  0.1225  0.0802 -0.0421
 6976TIP3   OH242562   6.532   3.716   1.394 -0.5084 -0.3387  0.4399
 6976TIP3    H142563   6.486   3.795   1.366 -1.2573 -0.3483  1.5668
 6976TIP3    H242564   6.495   3.696   1.480  0.4968 -1.2583  0.6816
 6977TIP3   OH242565   5.024   5.060   0.554 -0.2492 -0.2824  0.3697
 6977TIP3    H142566   5.015   5.110   0.635 -1.0571  0.4115 -0.1261
 6977TIP3    H242567   5.014   5.125   0.484  0.8067 -0.8071 -0.2898
 6978TIP3   OH242568   4.068   2.332   7.769  0.3353 -0.0740  0.5832
 6978TIP3    H142569   3.979   2.312   7.739  0.7757 -1.5682  0.1787
 6978TIP3    H242570   4.077   2.426   7.754 -1.0742  0.0585  0.3719
 6979TIP3   OH242571   1.022   3.436   7.282 -0.1557  0.0571 -0.0840
 6979TIP3    H142572   1.039   3.515   7.334  0.0677  0.1349 -0.2701
 6979TIP3    H242573   0.964   3.383   7.336  1.0794 -0.4421  0.7978
 6980TIP3   OH242574   4.651   3.210   8.209  0.0164  0.3319 -0.3455
 6980TIP3    H142575   4.686   3.198   8.297 -0.3403 -0.8076 -0.3376
 6980TIP3    H242576   4.587   3.281   8.218 -1.6613 -1.2200  0.8341
 6981TIP3   OH242577   2.646   3.085   7.706 -0.2301  0.1628 -0.1186
 6981TIP3    H142578   2.687   3.005   7.738 -1.6190 -0.7046 -0.4076
 6981TIP3    H242579   2.659   3.083   7.611  1.5403  1.3705  0.0530
 6982TIP3   OH242580   4.291   4.520   7.804 -0.1696 -0.1085 -0.1829
 6982TIP3    H142581   4.387   4.515   7.803  0.0301  2.4045 -0.5688
 6982TIP3    H242582   4.265   4.461   7.874  1.7530  0.0851  0.7710
 6983TIP3   OH242583   1.685   3.684   0.276  0.1147 -0.1968 -0.2430
 6983TIP3    H142584   1.719   3.748   0.213  1.6737  0.3580  1.0925
 6983TIP3    H242585   1.616   3.731   0.322  1.0771  0.4953  0.5523
 6984TIP3   OH242586   6.615   1.928   6.728 -0.2465 -0.0818  0.1397
 6984TIP3    H142587   6.569   1.849   6.698 -0.0312  0.2852 -1.2104
 6984TIP3    H242588   6.553   1.999   6.712 -0.4147  0.0578  1.2908
 6985TIP3   OH242589   0.070   2.781   0.383 -0.5899  0.4210  0.3468
 6985TIP3    H142590   0.041   2.785   0.292 -1.8873  1.4159  0.7780
 6985TIP3    H242591   0.075   2.687   0.402  0.5879  0.1683 -0.9854
 6986TIP3   OH242592   3.049   4.683   8.346  0.3555 -0.4568 -0.1428
 6986TIP3    H142593   2.991   4.677   8.423  0.7029  0.0713  0.1712
 6986TIP3    H242594   3.068   4.593   8.323  0.8253 -0.6165  0.8420
 6987TIP3   OH242595   0.926   0.680   0.580 -0.0242 -0.1818  0.1177
 6987TIP3    H142596   1.004   0.628   0.598  0.3136 -0.0562 -0.9323
 6987TIP3    H242597   0.857   0.638   0.631  0.8907  0.2304  1.7768
 6988TIP3   OH242598   1.703   4.862   8.773  0.1491 -0.6041  0.0658
 6988TIP3    H142599   1.746   4.782   8.741 -0.3391 -0.4528 -1.0121
 6988TIP3    H242600   1.742   4.878   8.859  2.7982 -0.0936 -1.1324
 6989TIP3   OH242601   4.348   1.444   0.317 -0.3433 -0.1210 -0.1844
 6989TIP3    H142602   4.267   1.495   0.311  0.4041  0.9862 -1.5181
 6989TIP3    H242603   4.321   1.353   0.301 -1.2782  0.2684 -0.8689
 6990TIP3   OH242604   5.564   0.059   7.869 -0.2123 -0.4932 -0.3500
 6990TIP3    H142605   5.488   0.039   7.815  0.8381 -1.1199 -1.6538
 6990TIP3    H242606   5.631   0.088   7.807  0.8400 -0.6504  0.6760
 6991TIP3   OH242607   5.244   0.274   8.282  0.5753  0.1808 -0.4367
 6991TIP3    H142608   5.326   0.229   8.304 -0.8552 -1.5956  1.7867
 6991TIP3    H242609   5.224   0.326   8.360 -0.2630  0.8539 -1.0840
 6992TIP3   OH242610   3.153   6.585   0.030 -0.3625  0.4166  0.1751
 6992TIP3    H142611   3.061   6.588   0.056 -0.4736 -1.0180  0.0313
 6992TIP3    H242612   3.191   6.517   0.086  0.8998  1.7934  1.0554
 6993TIP3   OH242613   2.895   6.066   0.438  0.4330  0.0454  0.3348
 6993TIP3    H142614   2.886   6.002   0.509  2.8332  0.3662  1.0369
 6993TIP3    H242615   2.902   6.014   0.359  4.1701 -0.8626  1.0646
 6994TIP3   OH242616   5.546   3.185   7.225  0.5144 -0.0845  0.0988
 6994TIP3    H142617   5.523   3.186   7.133  1.5380  0.2058 -0.1625
 6994TIP3    H242618   5.544   3.277   7.251  1.4237 -0.0421  0.0498
 6995TIP3   OH242619   3.631   5.059   7.198 -0.2832 -0.1400  0.0844
 6995TIP3    H142620   3.697   5.014   7.251  0.0679 -2.3820 -2.0636
 6995TIP3    H242621   3.679   5.128   7.154  0.1297 -0.3303  0.2290
 6996TIP3   OH242622   4.923   4.751   7.455  0.5711 -0.4088  0.2418
 6996TIP3    H142623   4.832   4.731   7.435 -0.0324 -0.3700  2.6217
 6996TIP3    H242624   4.966   4.666   7.459  1.0875 -0.3731 -2.3806
 6997TIP3   OH242625   5.379   0.657   0.333  0.2342  0.4374 -0.1831
 6997TIP3    H142626   5.311   0.637   0.268  0.3172 -0.0572 -0.1234
 6997TIP3    H242627   5.384   0.579   0.387 -0.0979  0.9931  0.6641
 6998TIP3   OH242628   0.477   5.381   1.906  0.1697  0.6166 -0.4881
 6998TIP3    H142629   0.417   5.455   1.913 -0.1224  0.3408 -0.0488
 6998TIP3    H242630   0.494   5.354   1.996  1.8763  1.4101 -0.5196
 6999TIP3   OH242631   3.568   6.257   8.287 -0.0638  0.1841 -0.1972
 6999TIP3    H142632   3.526   6.283   8.369 -0.3659 -0.7404 -0.0550
 6999TIP3    H242633   3.587   6.340   8.243  0.2272  0.6960  0.8645
 7000TIP3   OH242634   5.961   6.554   2.258  0.2393  0.4727 -0.2511
 7000TIP3    H142635   5.937   6.646   2.244  0.3454  0.8295  1.6159
 7000TIP3    H242636   6.056   6.553   2.254  0.7286  1.5444  4.6262
 7001TIP3   OH242637   2.184   5.142   2.310 -0.5143  0.6468 -0.7404
 7001TIP3    H142638   2.244   5.169   2.379 -1.5903  0.6918  0.1890
 7001TIP3    H242639   2.162   5.223   2.265 -2.1156  1.0773  0.7412
 7002TIP3   OH242640   2.383   6.089   0.129 -0.3919 -0.1585  0.2204
 7002TIP3    H142641   2.402   6.082   0.223 -1.3074 -0.0425  0.4179
 7002TIP3    H242642   2.455   6.143   0.094 -0.5335  0.5585  1.0088
 7003TIP3   OH242643   0.402   2.650   1.243 -0.1618 -0.1524 -0.0614
 7003TIP3    H142644   0.454   2.582   1.287 -1.7312 -0.9531  0.6264
 7003TIP3    H242645   0.467   2.705   1.199  1.2570 -1.1448  0.7158
 7004TIP3   OH242646   1.331   4.383   2.292 -0.5133  0.0535 -0.1569
 7004TIP3    H142647   1.318   4.470   2.254  0.4113 -0.0975 -0.8676
 7004TIP3    H242648   1.292   4.389   2.379  1.6112  1.9614  0.7971
 7005TIP3   OH242649   0.223   5.122   7.945 -0.4583  0.4206 -0.5407
 7005TIP3    H142650   0.288   5.054   7.963 -0.1593  0.9898  0.6952
 7005TIP3    H242651   0.207   5.116   7.851  1.8147  0.6296 -1.0072
 7006TIP3   OH242652   4.460   3.654   7.714  0.2158 -0.1788  0.5857
 7006TIP3    H142653   4.500   3.663   7.627  0.3083 -0.3064  0.6139
 7006TIP3    H242654   4.488   3.733   7.761 -1.1670  0.7011 -0.0149
 7007TIP3   OH242655   6.485   0.884   0.879  0.4165 -0.3750 -0.6872
 7007TIP3    H142656   6.491   0.796   0.915 -1.6253 -0.4573 -0.4381
 7007TIP3    H242657   6.574   0.904   0.849  0.5533 -3.2991 -2.6263
 7008TIP3   OH242658   2.507   5.666   0.240  0.4145  0.2094 -0.4038
 7008TIP3    H142659   2.545   5.752   0.257 -0.2440  0.7624 -1.6617
 7008TIP3    H242660   2.564   5.628   0.173  1.0337 -0.5955  0.5354
 7009TIP3   OH242661   5.563   6.827   1.031  0.0694  0.2187 -0.2603
 7009TIP3    H142662   5.626   6.829   0.959 -0.5893 -1.4758 -0.9317
 7009TIP3    H242663   5.539   6.735   1.039 -2.0199  0.7565  0.2473
 7010TIP3   OH242664   6.507   4.295   1.443 -0.8897 -0.1225 -0.2534
 7010TIP3    H142665   6.448   4.274   1.371 -1.6162  1.3782 -0.1377
 7010TIP3    H242666   6.580   4.341   1.402 -0.9771  0.1423 -0.1134
 7011TIP3   OH242667   3.507   0.368   7.860  0.0404 -0.3219  0.4983
 7011TIP3    H142668   3.433   0.360   7.800  0.0009  0.9886  0.3378
 7011TIP3    H242669   3.584   0.357   7.805  0.0874  2.9761 -0.3080
 7012TIP3   OH242670   3.637   1.792   8.413 -0.2776 -0.3491  0.4299
 7012TIP3    H142671   3.583   1.773   8.336  0.8836 -1.9961 -0.0123
 7012TIP3    H242672   3.723   1.814   8.378 -0.1078  0.3115  1.2163
 7013TIP3   OH242673   5.901   5.727   0.431  0.1114  0.0674 -0.6945
 7013TIP3    H142674   5.956   5.778   0.491  0.6276  0.8706 -1.7970
 7013TIP3    H242675   5.919   5.636   0.454  1.0160  0.3392 -0.2446
 7014TIP3   OH242676   1.329   5.721   1.888  0.4991 -0.2286 -0.3849
 7014TIP3    H142677   1.262   5.710   1.956  0.5338  2.1201  0.1243
 7014TIP3    H242678   1.409   5.685   1.926  0.2810  0.0978  0.3995
 7015TIP3   OH242679   3.780   4.630   1.120  0.1645  0.0534  0.5429
 7015TIP3    H142680   3.823   4.711   1.147  1.3099  0.4578 -2.2234
 7015TIP3    H242681   3.839   4.591   1.056 -0.9246 -2.4022  0.9018
 7016TIP3   OH242682   2.607   4.897   6.918 -0.2640  0.2221  0.0507
 7016TIP3    H142683   2.564   4.977   6.948  0.1824  0.4278  0.1530
 7016TIP3    H242684   2.701   4.917   6.922 -0.1696  0.0336 -0.8643
 7017TIP3   OH242685   5.839   6.430   2.459  0.4068  0.3844 -0.7015
 7017TIP3    H142686   5.903   6.476   2.405  0.4405 -0.8394 -1.7549
 7017TIP3    H242687   5.773   6.398   2.397 -0.7549  0.8528  0.2598
 7018TIP3   OH242688   4.452   3.157   1.623  0.3121  0.3855 -0.3501
 7018TIP3    H142689   4.500   3.077   1.643  0.5073  0.5032 -0.3520
 7018TIP3    H242690   4.409   3.180   1.706  0.1075  0.1795 -0.3961
 7019TIP3   OH242691   2.208   5.276   0.699  0.0012  0.1469 -0.3216
 7019TIP3    H142692   2.214   5.189   0.658  2.1865  0.5066 -0.8769
 7019TIP3    H242693   2.121   5.278   0.738 -0.1739 -2.2307 -0.4563
 7020TIP3   OH242694   3.143   4.269   2.152  0.9985 -0.5753 -0.1818
 7020TIP3    H142695   3.115   4.356   2.124 -1.5164  0.6625  5.0500
 7020TIP3    H242696   3.232   4.281   2.184  0.6716  0.1250  0.4950
 7021TIP3   OH242697   1.543   6.635   0.083  0.4094  0.0177 -0.1612
 7021TIP3    H142698   1.503   6.715   0.118  0.0657 -0.1075 -0.2692
 7021TIP3    H242699   1.637   6.648   0.097  0.3559  0.4371 -0.1664
 7022TIP3   OH242700   3.794   2.376   7.726  0.3015  0.2275  0.3032
 7022TIP3    H142701   3.734   2.435   7.771 -0.0023 -0.9827  1.5376
 7022TIP3    H242702   3.751   2.359   7.642  1.0136  2.7231 -0.6638
 7023TIP3   OH242703   6.816   1.607   1.068  0.2918  0.2064 -0.9791
 7023TIP3    H142704   6.886   1.671   1.054  3.1290 -1.2720  3.9938
 7023TIP3    H242705   6.852   1.525   1.035  0.0363 -0.1984 -0.2651
 7024TIP3   OH242706   2.151   6.518   8.093  0.3109 -0.6712 -0.3972
 7024TIP3    H142707   2.242   6.518   8.122 -0.3181 -1.1262  1.7490
 7024TIP3    H242708   2.125   6.426   8.095 -0.9074 -0.3648  1.6611
 7025TIP3   OH242709   3.420   5.598   1.698  0.2580 -0.1702  0.6303
 7025TIP3    H142710   3.452   5.571   1.784 -0.1651  0.2081  0.9107
 7025TIP3    H242711   3.363   5.672   1.716  2.6583  2.0321 -0.2391
 7026TIP3   OH242712   6.537   1.724   8.222 -0.2893 -0.0403 -0.1829
 7026TIP3    H142713   6.624   1.683   8.231 -0.8189 -1.0262  0.8014
 7026TIP3    H242714   6.542   1.803   8.276  0.1156  0.1238 -0.4562
 7027TIP3   OH242715   5.805   6.179   7.623 -0.5703  0.5077  0.2875
 7027TIP3    H142716   5.861   6.176   7.545 -0.8490 -0.1061  0.1049
 7027TIP3    H242717   5.717   6.159   7.591 -0.6356 -0.0582  0.8045
 7028TIP3   OH242718   1.659   6.144   1.281 -0.2762 -0.1713  0.0799
 7028TIP3    H142719   1.743   6.099   1.283 -1.3352 -2.4212 -1.6461
 7028TIP3    H242720   1.631   6.147   1.373  0.7362 -1.2754  0.4476
 7029TIP3   OH242721   6.353   4.228   6.864  0.6059  0.1813 -0.1393
 7029TIP3    H142722   6.434   4.278   6.871  0.1097  0.8964  0.8511
 7029TIP3    H242723   6.285   4.295   6.855  0.0393 -0.3572  0.0871
 7030TIP3   OH242724   3.740   5.604   0.980  0.2104  0.2288 -1.0742
 7030TIP3    H142725   3.790   5.684   0.966  2.3228 -0.5523  1.1516
 7030TIP3    H242726   3.772   5.544   0.912  2.8993 -0.4009  0.5532
 7031TIP3   OH242727   0.876   6.472   8.039 -0.3309  0.0976 -0.0213
 7031TIP3    H142728   0.908   6.465   7.949 -0.4589 -0.1147 -0.0510
 7031TIP3    H242729   0.935   6.534   8.081  1.0772 -1.4336  0.3671
 7032TIP3   OH242730   5.050   1.490   1.811  0.3604 -0.3406  0.0337
 7032TIP3    H142731   4.959   1.493   1.783  0.7599  0.0890 -1.2983
 7032TIP3    H242732   5.100   1.479   1.730  1.5536  0.4513  0.6220
 7033TIP3   OH242733   0.634   2.448   0.926  0.1405  0.0398 -0.2821
 7033TIP3    H142734   0.633   2.354   0.947 -2.4192  0.7054  3.7693
 7033TIP3    H242735   0.605   2.453   0.835  1.9777 -3.0737 -1.1885
 7034TIP3   OH242736   4.918   3.612   0.843  0.7047  0.1166 -0.0220
 7034TIP3    H142737   4.951   3.600   0.932  2.4558  2.4858 -0.2412
 7034TIP3    H242738   4.945   3.532   0.797  0.7162 -0.6705  1.2996
 7035TIP3   OH242739   2.297   3.565   6.956 -0.2523 -0.4146  0.1968
 7035TIP3    H142740   2.389   3.546   6.971 -0.3399  0.2485  1.7422
 7035TIP3    H242741   2.296   3.625   6.882  0.5071 -0.9254 -0.2363
 7036TIP3   OH242742   5.755   0.995   0.600  0.2967 -0.2152  0.1632
 7036TIP3    H142743   5.809   0.919   0.622 -0.5263 -1.0375 -0.5376
 7036TIP3    H242744   5.673   0.982   0.648 -0.8742 -1.1815 -1.9460
 7037TIP3   OH242745   4.737   2.015   1.687  0.6490 -0.2544  0.5930
 7037TIP3    H142746   4.687   1.939   1.658 -2.7967  1.9949  0.0461
 7037TIP3    H242747   4.815   2.015   1.631 -0.8082 -1.6539 -1.6108
 7038TIP3   OH242748   0.747   3.598   8.679  0.1332 -0.0885 -0.2320
 7038TIP3    H142749   0.701   3.681   8.686 -0.6132 -0.3557 -1.7093
 7038TIP3    H242750   0.837   3.622   8.655  0.4225  0.3498  1.1676
 7039TIP3   OH242751   2.015   4.155   0.042  0.0429 -0.3643  0.3065
 7039TIP3    H142752   1.963   4.235   0.033 -0.3450 -0.5286  1.0920
 7039TIP3    H242753   1.988   4.100  -0.032 -0.2224 -0.0766  0.1868
 7040TIP3   OH242754   2.750   5.876   7.068  0.1024  0.4847 -0.0062
 7040TIP3    H142755   2.846   5.870   7.073  0.0424  0.6330  2.4798
 7040TIP3    H242756   2.720   5.787   7.087 -0.2695  0.3161 -1.3254
 7041TIP3   OH242757   3.907   4.880   6.250 -0.3207  0.1329  0.3161
 7041TIP3    H142758   3.821   4.874   6.208 -0.8654  0.5289  1.3362
 7041TIP3    H242759   3.894   4.943   6.321  0.5431 -0.6035  1.1362
 7042TIP3   OH242760   0.901   6.287   6.555 -0.0935 -0.3846 -0.2658
 7042TIP3    H142761   0.931   6.378   6.558  0.1550 -0.4905  1.0250
 7042TIP3    H242762   0.981   6.235   6.549 -0.2783 -0.5099 -2.5087
 7043TIP3   OH242763   5.183   2.045   8.678 -0.3922 -0.3859 -0.4548
 7043TIP3    H142764   5.206   2.130   8.715  1.0485 -1.0474  0.2275
 7043TIP3    H242765   5.109   2.015   8.732  1.5722 -1.2668  1.9033
 7044TIP3   OH242766   2.407   5.025   0.079 -0.1441  0.2465  0.8542
 7044TIP3    H142767   2.399   5.099   0.139 -0.0767 -0.3337  1.5931
 7044TIP3    H242768   2.412   5.065  -0.008  1.7046  1.2061  1.3580
 7045TIP3   OH242769   4.719   2.516   1.141  0.0013 -0.1119  0.7985
 7045TIP3    H142770   4.657   2.580   1.175 -0.1779  0.1037  0.0793
 7045TIP3    H242771   4.784   2.568   1.093 -0.2510 -0.4713  0.0486
 7046TIP3   OH242772   2.144   6.178   5.900 -0.1676 -0.2427 -0.5819
 7046TIP3    H142773   2.191   6.237   5.959 -1.6153 -0.1302  0.5541
 7046TIP3    H242774   2.094   6.121   5.959 -3.4441  1.3138 -1.6208
 7047TIP3   OH242775   4.095   1.332   1.733  0.3309  0.4197  0.3122
 7047TIP3    H142776   4.176   1.378   1.756 -0.5325  1.5416  1.1912
 7047TIP3    H242777   4.077   1.359   1.643  0.5610  0.7205  0.3544
 7048TIP3   OH242778   6.216   5.065   0.681  0.2905  0.4597  0.0874
 7048TIP3    H142779   6.211   5.144   0.735 -1.0374  0.5626 -0.1523
 7048TIP3    H242780   6.170   5.088   0.600 -0.6332 -0.7372  0.2490
 7049TIP3   OH242781   4.783   1.464   8.059 -0.0628  0.6171 -0.4604
 7049TIP3    H142782   4.816   1.517   7.986 -1.0257  1.4730 -0.2961
 7049TIP3    H242783   4.766   1.527   8.129 -0.6224  0.0041 -0.0279
 7050TIP3   OH242784   2.350   1.439   1.095  0.4460  0.0471 -0.0147
 7050TIP3    H142785   2.368   1.349   1.068 -0.4178  0.2181 -1.2008
 7050TIP3    H242786   2.265   1.460   1.058  0.4579  1.2372  0.5638
 7051TIP3   OH242787   2.340   3.716   1.134 -0.4163  0.1294  0.4732
 7051TIP3    H142788   2.303   3.804   1.131  0.6983  0.6609  1.4425
 7051TIP3    H242789   2.403   3.719   1.207 -0.5493 -1.5392  0.6856
 7052TIP3   OH242790   3.260   6.503   1.413 -0.6824  0.2763  0.1561
 7052TIP3    H142791   3.165   6.501   1.399 -0.7740  1.0811  0.5753
 7052TIP3    H242792   3.279   6.422   1.460 -0.9443 -0.5698 -1.1583
 7053TIP3   OH242793   5.229   1.847   7.440 -0.8092  0.1692  0.4001
 7053TIP3    H142794   5.276   1.764   7.434  0.5116  0.8288  1.1205
 7053TIP3    H242795   5.269   1.892   7.515  1.1874  3.0529 -2.1442
 7054TIP3   OH242796   3.902   1.125   8.221 -0.0499 -0.4991  0.5601
 7054TIP3    H142797   3.925   1.053   8.163 -1.1081  0.6456 -1.3680
 7054TIP3    H242798   3.840   1.087   8.283  0.6920 -1.6242  0.6314
 7055TIP3   OH242799   4.644   1.173   8.663  0.1091 -0.1047  0.7325
 7055TIP3    H142800   4.612   1.228   8.592 -0.3839 -0.1358  0.9273
 7055TIP3    H242801   4.583   1.189   8.736 -0.8630 -1.9113  0.3673
 7056TIP3   OH242802   1.867   3.206   7.550 -0.0299 -0.0877  0.8436
 7056TIP3    H142803   1.829   3.145   7.487 -0.1024  0.1501  0.6548
 7056TIP3    H242804   1.902   3.277   7.497 -0.6653  0.4345  1.0991
 7057TIP3   OH242805   1.944   1.946   7.534 -0.3957  0.5146 -0.1191
 7057TIP3    H142806   1.849   1.948   7.538 -0.4311 -0.1034 -0.5402
 7057TIP3    H242807   1.968   2.026   7.488 -0.5964  1.6246  1.6056
 7058TIP3   OH242808   1.592   6.567   1.504 -0.0656 -0.2509 -0.2863
 7058TIP3    H142809   1.539   6.637   1.544 -0.3765 -0.1043 -0.9412
 7058TIP3    H242810   1.578   6.578   1.410  3.5239  1.7673 -0.7654
 7059TIP3   OH242811   5.292   4.890   8.308 -0.0552  0.2209  0.1620
 7059TIP3    H142812   5.312   4.871   8.216  2.0098  1.2077  0.3592
 7059TIP3    H242813   5.332   4.817   8.356 -1.0691 -0.2550  0.3143
 7060TIP3   OH242814   1.338   3.180   2.551  0.0020  0.5908 -0.1001
 7060TIP3    H142815   1.376   3.267   2.563 -1.4616  1.4429 -1.2524
 7060TIP3    H242816   1.244   3.193   2.566 -0.2649 -0.7550 -0.4991
 7061TIP3   OH242817   1.529   1.237   7.213 -0.5075  0.0486 -0.1870
 7061TIP3    H142818   1.621   1.216   7.196 -0.5615  0.4802 -1.0343
 7061TIP3    H242819   1.505   1.298   7.144 -1.4916 -0.2017 -0.0758
 7062TIP3   OH242820   0.284   1.966   7.211 -0.3978  0.4790 -0.0252
 7062TIP3    H142821   0.278   1.927   7.124 -0.1994 -1.3595  0.7422
 7062TIP3    H242822   0.334   2.046   7.198  0.5840 -0.3216 -1.4488
 7063TIP3   OH242823   0.838   5.406   8.801  0.0584  0.6311  0.3804
 7063TIP3    H142824   0.825   5.495   8.833  0.8331  1.3147 -1.1275
 7063TIP3    H242825   0.775   5.396   8.730  1.3499  0.7192 -0.8150
 7064TIP3   OH242826   2.321   1.654   0.643  0.0048  0.0309 -0.1230
 7064TIP3    H142827   2.229   1.659   0.669  0.0191  0.5488 -0.1538
 7064TIP3    H242828   2.360   1.593   0.705 -0.0945  0.7671  0.6863
 7065TIP3   OH242829   1.368   3.566   8.073 -0.6286 -0.3628  0.2974
 7065TIP3    H142830   1.408   3.498   8.128 -0.4975 -1.8747 -1.5534
 7065TIP3    H242831   1.402   3.648   8.108 -0.7963 -1.2110  2.6346
 7066TIP3   OH242832   0.472   3.884   6.949 -0.5318  0.8377 -0.2116
 7066TIP3    H142833   0.404   3.821   6.974  1.1335 -0.7325  0.5880
 7066TIP3    H242834   0.430   3.939   6.883 -2.8389  0.4973  0.8572
 7067TIP3   OH242835   5.156   4.929   1.130 -0.3010  0.2002 -0.7402
 7067TIP3    H142836   5.214   5.000   1.101 -0.0262  0.0486 -0.5717
 7067TIP3    H242837   5.153   4.870   1.055 -1.6229  1.0501 -1.3904
 7068TIP3   OH242838   4.992   3.810   8.071 -0.0468  0.0527  0.4742
 7068TIP3    H142839   4.970   3.717   8.076  0.7067 -0.1064  1.0614
 7068TIP3    H242840   4.936   3.852   8.136  0.1246 -0.0983  0.7214
 7069TIP3   OH242841   3.247   4.072   0.126 -0.6455  0.1980 -0.2471
 7069TIP3    H142842   3.260   4.032   0.040  0.5987 -1.3675  0.6259
 7069TIP3    H242843   3.167   4.123   0.116 -0.8933 -0.4741 -2.1511
 7070TIP3   OH242844   5.354   1.925   6.654  0.2712 -0.4484  0.0454
 7070TIP3    H142845   5.342   1.886   6.567  0.8046 -2.0874  0.6742
 7070TIP3    H242846   5.266   1.925   6.692  0.0786  0.0415 -0.3811
 7071TIP3   OH242847   5.732   6.247   1.165  0.2853  0.2162 -0.2027
 7071TIP3    H142848   5.795   6.209   1.226  0.6330  0.8232 -0.1845
 7071TIP3    H242849   5.686   6.314   1.215 -0.2874 -0.1207 -0.2569
 7072TIP3   OH242850   5.360   5.398   7.584 -0.4372 -0.5690  0.2962
 7072TIP3    H142851   5.294   5.452   7.628  2.3315  2.7291  0.8464
 7072TIP3    H242852   5.331   5.393   7.493 -1.9861 -0.1321  0.7492
 7073TIP3   OH242853   1.033   1.070   1.020  0.5420  0.3016  0.0968
 7073TIP3    H142854   0.951   1.084   1.067  1.0499  1.0355  0.7906
 7073TIP3    H242855   1.022   0.985   0.978  0.4354 -0.8769  2.3444
 7074TIP3   OH242856   6.051   3.692   7.926 -0.3163 -0.2940 -0.1784
 7074TIP3    H142857   6.044   3.652   8.012 -0.5023  1.5059  0.6983
 7074TIP3    H242858   5.961   3.711   7.900 -0.2192  3.2913  1.3894
 7075TIP3   OH242859   4.886   5.012   1.884  0.2414  0.1602  0.0822
 7075TIP3    H142860   4.931   5.094   1.862  0.3406 -0.0061 -0.3566
 7075TIP3    H242861   4.924   4.984   1.967  2.0973 -0.7868 -1.0098
 7076TIP3   OH242862   1.487   0.650   8.846  0.3126 -0.3503  0.6245
 7076TIP3    H142863   1.472   0.635   8.753  2.5942 -1.9789  0.4232
 7076TIP3    H242864   1.447   0.735   8.864 -0.7384 -0.2857 -1.6622
 7077TIP3   OH242865   3.189   1.406   1.328  0.3174  0.1735 -0.0163
 7077TIP3    H142866   3.223   1.408   1.417  1.8984  1.4177 -0.6037
 7077TIP3    H242867   3.132   1.329   1.326  0.1087  0.2151  2.0938
 7078TIP3   OH242868   0.075   3.841   7.119  0.2636  0.1141 -0.4486
 7078TIP3    H142869  -0.004   3.810   7.164 -0.8338 -0.6335 -2.7384
 7078TIP3    H242870   0.107   3.913   7.174 -0.6973 -1.0030  1.7184
 7079TIP3   OH242871   1.830   4.890   2.106  0.0427 -0.5833  0.5380
 7079TIP3    H142872   1.876   4.835   2.043  0.6094  0.5968 -0.1309
 7079TIP3    H242873   1.812   4.971   2.057 -0.6948 -0.1502  1.5031
 7080TIP3   OH242874   0.287   6.725   6.573 -0.2267 -0.5213  0.3341
 7080TIP3    H142875   0.231   6.770   6.510 -1.5945 -1.7269  0.6439
 7080TIP3    H242876   0.344   6.670   6.520  0.2374  0.2104  0.0539
 7081TIP3   OH242877   6.318   2.437   6.685  0.6281  0.0395  0.4823
 7081TIP3    H142878   6.286   2.395   6.605  2.1153  0.3234 -0.2891
 7081TIP3    H242879   6.254   2.507   6.702  0.5972  0.3431 -0.7872
 7082TIP3   OH242880   2.484   5.763   1.157 -0.5452 -0.1941 -0.0385
 7082TIP3    H142881   2.513   5.760   1.248 -1.3795 -1.3949  0.2178
 7082TIP3    H242882   2.548   5.709   1.110 -1.1314 -1.0913  0.1664
 7083TIP3   OH242883   1.550   6.519   0.709 -0.2281  0.1275  0.4546
 7083TIP3    H142884   1.511   6.519   0.621 -0.1887  1.5216  0.4129
 7083TIP3    H242885   1.475   6.519   0.768 -0.2577 -1.4757  0.4560
 7084TIP3   OH242886   2.904   3.453   6.623  0.1439  0.1295 -0.6730
 7084TIP3    H142887   2.919   3.359   6.624  0.3684  0.1689 -0.0761
 7084TIP3    H242888   2.981   3.490   6.580  0.7325  0.1509  0.3762
 7085TIP3   OH242889   3.546   6.784   0.515  0.5161  0.3314 -0.8426
 7085TIP3    H142890   3.584   6.744   0.594 -3.7221  3.0127  3.0378
 7085TIP3    H242891   3.470   6.729   0.494  0.8183  0.4187 -2.2990
 7086TIP3   OH242892   5.485   3.491   7.576  0.1082 -0.1269  0.3802
 7086TIP3    H142893   5.395   3.474   7.604  0.6677 -0.9912  1.7533
 7086TIP3    H242894   5.502   3.581   7.603 -0.8103  0.5865 -1.2630
 7087TIP3   OH242895   1.567   2.964   0.278 -0.0276  0.2108 -0.8038
 7087TIP3    H142896   1.505   3.028   0.313  1.0713  1.1279 -0.4999
 7087TIP3    H242897   1.650   2.985   0.320  0.3402 -1.5092 -0.5932
 7088TIP3   OH242898   3.633   0.250   2.600  0.2183 -0.4953 -0.2136
 7088TIP3    H142899   3.699   0.189   2.632  1.1359 -0.0814 -1.2557
 7088TIP3    H242900   3.623   0.229   2.507  0.0999  0.5316 -0.4484
 7089TIP3   OH242901   3.121   2.780   1.010  0.5857 -0.0399  0.4233
 7089TIP3    H142902   3.175   2.704   0.985 -2.5781 -2.7948  1.2548
 7089TIP3    H242903   3.086   2.758   1.096 -0.4786  2.4326  0.7115
 7090TIP3   OH242904   5.541   1.705   6.545  0.2462 -0.0089 -0.4367
 7090TIP3    H142905   5.481   1.678   6.476  0.9247 -1.9644 -0.3338
 7090TIP3    H242906   5.566   1.624   6.588  0.4858  1.0889  1.5950
 7091TIP3   OH242907   3.635   1.551   7.745  0.2976 -0.0679  0.2697
 7091TIP3    H142908   3.625   1.545   7.840 -0.6863  0.6686  0.2324
 7091TIP3    H242909   3.616   1.463   7.713  0.4149 -0.2674  0.7391
 7092TIP3   OH242910   4.740   4.551   1.364 -0.0791  0.5538 -0.0200
 7092TIP3    H142911   4.723   4.627   1.308 -1.5159  0.0493 -0.3280
 7092TIP3    H242912   4.792   4.493   1.309  0.4841  1.0451 -0.0118
 7093TIP3   OH242913   2.749   0.551   0.562 -0.0689  0.0282 -0.1749
 7093TIP3    H142914   2.811   0.522   0.495 -0.0367 -0.2540 -0.0224
 7093TIP3    H242915   2.767   0.644   0.573 -1.3303  0.5433 -1.9296
 7094TIP3   OH242916   2.599   4.413   1.605  0.1695  0.5652  0.1006
 7094TIP3    H142917   2.580   4.490   1.659  0.7881  0.8455 -0.0637
 7094TIP3    H242918   2.660   4.445   1.539 -0.6233  0.2371 -0.8119
 7095TIP3   OH242919   4.313   1.123   8.142  0.2984 -0.1883 -0.1072
 7095TIP3    H142920   4.388   1.080   8.102  0.8537  0.6978 -0.0356
 7095TIP3    H242921   4.283   1.061   8.209  0.3516 -0.9693 -0.7916
 7096TIP3   OH242922   1.460   5.038   8.684 -0.2308 -0.3828 -0.5974
 7096TIP3    H142923   1.477   5.073   8.772 -2.2099  1.5156 -0.8980
 7096TIP3    H242924   1.533   4.979   8.668  0.4238 -0.4783  2.1571
 7097TIP3   OH242925   4.109   4.212   1.622  0.1263  0.1570  0.1537
 7097TIP3    H142926   4.069   4.204   1.535  3.2055 -1.5631 -1.3039
 7097TIP3    H242927   4.085   4.132   1.668 -1.4871  1.0587  0.9496
 7098TIP3   OH242928   1.766   1.468   8.316  0.5793 -0.2798  0.0715
 7098TIP3    H142929   1.693   1.507   8.365  0.0120  0.4358 -1.2824
 7098TIP3    H242930   1.777   1.526   8.241  2.2952 -0.6131  0.0373
 7099TIP3   OH242931   0.676   1.034   8.671 -0.3129  0.3731  0.4553
 7099TIP3    H142932   0.677   1.098   8.743  0.8711 -0.3071  1.0671
 7099TIP3    H242933   0.592   1.049   8.627  0.2250  2.8306  0.1299
 7100TIP3   OH242934   4.479   0.486   7.567 -0.1986  0.3532 -0.1472
 7100TIP3    H142935   4.495   0.518   7.656 -2.6770 -1.4792  1.0878
 7100TIP3    H242936   4.519   0.398   7.566 -1.9538 -0.4866 -0.0739
 7101TIP3   OH242937   4.202   5.587   1.243 -0.2313 -0.1338  0.3175
 7101TIP3    H142938   4.203   5.571   1.338  0.8984 -1.2997  0.1460
 7101TIP3    H242939   4.110   5.601   1.221 -0.9955 -3.2231  1.0910
 7102TIP3   OH242940   1.070   2.031   2.772  0.1667  0.2974 -0.2114
 7102TIP3    H142941   1.071   2.125   2.754  0.0948  0.1776 -0.8420
 7102TIP3    H242942   1.008   1.994   2.709 -1.2354  0.0566  1.2291
 7103TIP3   OH242943   4.617   0.252   2.432  0.0117 -0.0312 -0.5245
 7103TIP3    H142944   4.561   0.296   2.368  0.8074  0.7531 -0.7006
 7103TIP3    H242945   4.673   0.195   2.378  1.2187  1.2118 -0.6368
 7104TIP3   OH242946   6.617   3.449   0.735  0.4830 -0.2256 -0.3301
 7104TIP3    H142947   6.687   3.442   0.800  1.1295  1.6093 -0.7747
 7104TIP3    H242948   6.609   3.543   0.718 -1.3036 -0.4797 -1.1586
 7105TIP3   OH242949   5.785   2.749   2.476  0.4571 -0.3812 -0.0408
 7105TIP3    H142950   5.765   2.734   2.569 -0.3106  0.6524 -0.0297
 7105TIP3    H242951   5.878   2.727   2.468  0.8382  0.6558  1.2294
 7106TIP3   OH242952   2.476   4.896   0.837  0.1874 -0.5674 -0.3636
 7106TIP3    H142953   2.403   4.857   0.885 -0.3383 -0.6524 -1.2184
 7106TIP3    H242954   2.435   4.960   0.778  0.8637 -0.1247 -0.3587
 7107TIP3   OH242955   0.438   4.985   1.277  0.3941  0.6322  0.4954
 7107TIP3    H142956   0.462   5.058   1.220 -0.1584  0.1431 -0.3772
 7107TIP3    H242957   0.365   5.019   1.330 -0.8836  0.2749 -0.9575
 7108TIP3   OH242958   0.410   4.302   7.167  0.6655 -0.0588 -0.7037
 7108TIP3    H142959   0.462   4.381   7.155 -0.3279  0.6409 -0.5201
 7108TIP3    H242960   0.471   4.237   7.202  1.1588  1.0769  0.6153
 7109TIP3   OH242961   0.716   4.358   7.199 -0.4754  0.6724  0.0647
 7109TIP3    H142962   0.799   4.400   7.220  0.1670 -0.4762 -0.1068
 7109TIP3    H242963   0.669   4.422   7.146  1.5198  0.2427 -2.3614
 7110TIP3   OH242964   5.845   2.430   7.102 -0.3951 -0.2373  0.3262
 7110TIP3    H142965   5.869   2.522   7.109 -1.6462  0.2231 -0.9442
 7110TIP3    H242966   5.785   2.415   7.175 -2.7267  0.8729 -1.2482
 7111TIP3   OH242967   5.338   5.294   1.631 -0.0550  0.0325 -0.1922
 7111TIP3    H142968   5.290   5.240   1.694  1.4742 -0.9994  0.1383
 7111TIP3    H242969   5.284   5.372   1.620  0.6340  1.3783  4.1752
 7112TIP3   OH242970   0.624   3.667   2.291  0.6846 -0.6041  0.8085
 7112TIP3    H142971   0.678   3.674   2.370  1.7244 -0.2816  0.0878
 7112TIP3    H242972   0.534   3.664   2.324  1.1332 -1.4044  2.0512
 7113TIP3   OH242973   5.176   1.396   1.589 -0.1527  0.1833  0.1548
 7113TIP3    H142974   5.150   1.333   1.521 -1.5001  0.5699  0.2866
 7113TIP3    H242975   5.232   1.459   1.543  1.7353 -1.3879  0.1359
 7114TIP3   OH242976   3.271   0.226   8.491 -0.2109 -0.6251 -0.0051
 7114TIP3    H142977   3.326   0.153   8.464  0.6231 -0.1567  0.3614
 7114TIP3    H242978   3.333   0.299   8.502 -1.2034  0.5646 -1.8877
 7115TIP3   OH242979   4.860   1.796   0.762 -0.0162  0.6949 -0.6638
 7115TIP3    H142980   4.891   1.778   0.674  2.8439  2.2612 -0.0972
 7115TIP3    H242981   4.892   1.884   0.782 -0.6986  0.4666  1.8867
 7116TIP3   OH242982   4.638   0.985   1.417  0.0845  0.2777  0.5598
 7116TIP3    H142983   4.643   0.960   1.325  0.8075  1.5683  0.2239
 7116TIP3    H242984   4.729   0.992   1.446 -0.0905  1.5591  0.8777
 7117TIP3   OH242985   1.055   1.231   7.922  0.3407 -0.1738 -0.0076
 7117TIP3    H142986   1.109   1.310   7.922  0.0033  0.0575  0.3339
 7117TIP3    H242987   1.000   1.239   8.000 -1.5148  0.5087 -1.3251
 7118TIP3   OH242988   6.029   4.870   2.200 -0.3908  0.4311  0.1354
 7118TIP3    H142989   6.040   4.775   2.205  0.0467  0.1957 -3.1562
 7118TIP3    H242990   6.037   4.900   2.291 -1.9049 -2.7646  1.4765
 7119TIP3   OH242991   4.407   0.080   6.976 -0.4781  0.6807  0.4060
 7119TIP3    H142992   4.407   0.086   6.881 -0.3575  3.0269  0.4852
 7119TIP3    H242993   4.435  -0.009   6.995 -0.7269  0.0894 -1.7422
 7120TIP3   OH242994   2.178   1.304   7.431  0.4146  0.2654 -0.8056
 7120TIP3    H142995   2.226   1.238   7.380  0.7592  0.8247 -1.2132
 7120TIP3    H242996   2.098   1.318   7.381  1.2413  1.6304 -1.8385
 7121TIP3   OH242997   6.543   4.876   0.334 -0.5850 -1.0938 -0.3031
 7121TIP3    H142998   6.639   4.876   0.334 -0.5599 -1.5822  1.1974
 7121TIP3    H242999   6.519   4.968   0.320  0.0691 -1.0852 -1.5052
 7122TIP3   OH243000   3.139   2.439   7.426 -0.2797 -0.1557  0.2886
 7122TIP3    H143001   3.190   2.409   7.351  0.8115 -0.3707  1.0926
 7122TIP3    H243002   3.108   2.526   7.400  0.5339  0.0042 -0.2057
 7123TIP3   OH243003   0.838   6.275   0.944 -0.4623 -0.3262  0.0096
 7123TIP3    H143004   0.808   6.228   0.866 -0.7273  0.4130 -0.3396
 7123TIP3    H243005   0.847   6.366   0.915 -0.3827 -0.0831  0.7911
 7124TIP3   OH243006   3.623   6.595   1.975 -0.1475  0.2047  0.0232
 7124TIP3    H143007   3.564   6.527   1.943  0.0800  0.4025 -0.8460
 7124TIP3    H243008   3.614   6.592   2.070 -0.1539 -1.0247  0.0026
 7125TIP3   OH243009   3.299   5.431   0.536  0.0523 -0.1976 -1.0220
 7125TIP3    H143010   3.299   5.335   0.532  1.4898 -0.2972  0.4985
 7125TIP3    H243011   3.281   5.451   0.628 -1.1848  1.0343 -1.5060
 7126TIP3   OH243012   3.905   3.917   7.784 -0.2387  0.1304  0.2433
 7126TIP3    H143013   3.861   3.990   7.742 -0.8834 -0.3463  0.0791
 7126TIP3    H243014   3.892   3.843   7.725  1.6880  0.2072 -0.3331
 7127TIP3   OH243015   0.514   2.097   0.010  0.0927 -0.6874 -0.1160
 7127TIP3    H143016   0.580   2.104  -0.060  1.1417  0.4160  0.9230
 7127TIP3    H243017   0.494   2.004   0.015  1.0138 -0.9526 -0.9795
 7128TIP3   OH243018   2.739   1.402   8.818  0.6665  0.1924  0.1542
 7128TIP3    H143019   2.799   1.362   8.756 -0.3712 -2.4951  0.7577
 7128TIP3    H243020   2.680   1.331   8.845 -0.1155  1.6844  2.7781
 7129TIP3   OH243021   6.750   3.204   1.463  0.4203 -0.1024  0.0821
 7129TIP3    H143022   6.679   3.267   1.470  0.9131  0.5363 -0.6049
 7129TIP3    H243023   6.828   3.256   1.445  0.4778 -1.0082 -2.8139
 7130TIP3   OH243024   3.220   3.528   2.367 -0.1075  0.6656 -0.3451
 7130TIP3    H143025   3.136   3.560   2.400 -0.2860 -0.7637  0.6781
 7130TIP3    H243026   3.200   3.497   2.279 -1.1533 -1.3700  0.5208
 7131TIP3   OH243027   4.249   1.838   2.835  0.1856 -0.2035 -0.1078
 7131TIP3    H143028   4.261   1.765   2.775 -0.1850 -1.6621  1.4983
 7131TIP3    H243029   4.154   1.847   2.844  0.1793 -1.5544  1.9414
 7132TIP3   OH243030   2.629   5.084   1.307  0.3161  0.1085  0.1990
 7132TIP3    H143031   2.721   5.085   1.333 -0.3100  1.1459  2.7507
 7132TIP3    H243032   2.627   5.033   1.226  2.9781 -0.7742  0.5911
 7133TIP3   OH243033   4.025   3.497   0.658 -0.1157 -0.4201  0.3242
 7133TIP3    H143034   4.002   3.551   0.582  2.7762 -1.1712 -1.2529
 7133TIP3    H243035   4.030   3.559   0.731  1.7109  1.2870 -1.1320
 7134TIP3   OH243036   4.744   6.405   8.823  0.2397 -0.2133 -0.1971
 7134TIP3    H143037   4.800   6.448   8.758 -2.4350  1.5323 -1.5645
 7134TIP3    H243038   4.667   6.461   8.829 -0.8121 -1.7553  2.5614
 7135TIP3   OH243039   3.610   5.822   8.177  0.9027 -0.0350  0.7244
 7135TIP3    H143040   3.550   5.770   8.230 -0.2395  0.2109 -0.2776
 7135TIP3    H243041   3.617   5.905   8.223 -1.4670  0.8290 -0.3256
 7136TIP3   OH243042   0.614   4.862   8.557  0.2790 -0.1175  1.0069
 7136TIP3    H143043   0.598   4.956   8.551 -0.5975 -0.3206 -0.4690
 7136TIP3    H243044   0.704   4.851   8.527 -0.0748  0.1402 -0.2135
 7137TIP3   OH243045   1.409   5.510   7.974  0.1659  1.0050  0.0287
 7137TIP3    H143046   1.349   5.505   7.900  0.0817 -0.2128  0.1540
 7137TIP3    H243047   1.472   5.578   7.951 -0.6711  1.6005 -0.5416
 7138TIP3   OH243048   4.787   1.516   2.141  0.3027  0.1738 -0.5667
 7138TIP3    H143049   4.846   1.449   2.105  0.1180 -0.4836  0.3159
 7138TIP3    H243050   4.830   1.545   2.222 -0.8430 -0.7612  0.4253
 7139TIP3   OH243051   4.051   2.971   0.755 -0.3286 -0.9587 -0.2370
 7139TIP3    H143052   3.961   2.939   0.753 -0.5735 -0.2962 -0.0827
 7139TIP3    H243053   4.051   3.047   0.696 -0.6452  0.9774  2.1304
 7140TIP3   OH243054   3.465   4.778   1.933 -0.1530  0.4140  0.3020
 7140TIP3    H143055   3.434   4.708   1.875 -0.2616 -0.0278  0.8840
 7140TIP3    H243056   3.388   4.804   1.983  0.1073  0.2267  0.8160
 7141TIP3   OH243057   2.189   5.391   2.216 -0.3903  0.4104  0.2109
 7141TIP3    H143058   2.225   5.463   2.268 -1.1395 -0.1138  1.5004
 7141TIP3    H243059   2.168   5.431   2.131  1.1074  1.2216  0.1931
 7142TIP3   OH243060   6.259   0.696   8.071  0.4942  0.0157  0.5116
 7142TIP3    H143061   6.324   0.747   8.022 -1.4614  2.1117 -0.0978
 7142TIP3    H243062   6.180   0.699   8.017 -0.8287 -0.3146  2.3257
 7143TIP3   OH243063   6.454   4.291   8.665  0.0190 -0.1745  0.4317
 7143TIP3    H143064   6.527   4.289   8.727 -0.1011  1.3500  0.6544
 7143TIP3    H243065   6.471   4.367   8.610 -0.0691 -1.2825 -1.2067
 7144TIP3   OH243066   5.066   3.467   1.434 -0.0189 -0.4872  0.2189
 7144TIP3    H143067   4.971   3.456   1.440  0.0463 -0.3817  1.7604
 7144TIP3    H243068   5.090   3.424   1.352 -1.3736 -0.6794 -0.0936
 7145TIP3   OH243069   1.956   6.442   8.475 -0.4598 -0.5486  0.2643
 7145TIP3    H143070   1.941   6.413   8.565  1.3870 -0.9986  0.4590
 7145TIP3    H243071   2.027   6.506   8.481  1.2584 -2.2040 -1.0562
 7146TIP3   OH243072   2.860   0.036   7.818  0.2071  0.6374  0.1611
 7146TIP3    H143073   2.950   0.005   7.834 -0.4342 -0.9289  0.9563
 7146TIP3    H243074   2.864   0.076   7.731  1.8123  1.2042  0.4532
 7147TIP3   OH243075   1.711   2.910   0.631 -0.2944  0.6498 -0.2960
 7147TIP3    H143076   1.755   2.848   0.689  0.5986  0.3293 -1.2906
 7147TIP3    H243077   1.687   2.858   0.554 -2.0449  0.9155  0.0338
 7148TIP3   OH243078   4.694   2.026   6.802 -0.0769  0.3293  0.7037
 7148TIP3    H143079   4.687   1.938   6.839 -1.2470  0.7788  1.6478
 7148TIP3    H243080   4.740   2.015   6.719  0.1067 -1.1144  0.9817
 7149TIP3   OH243081   1.347   2.491   1.930 -0.1165 -0.3046  0.6634
 7149TIP3    H143082   1.330   2.525   2.017  1.2162 -0.2237  0.9202
 7149TIP3    H243083   1.369   2.568   1.878 -0.9023 -0.3516  0.2536
 7150TIP3   OH243084   3.251   0.204   2.143  0.5209 -0.4520  0.6143
 7150TIP3    H143085   3.344   0.222   2.159  0.8440 -1.6275  0.1887
 7150TIP3    H243086   3.204   0.265   2.200  1.5596  0.0985  0.8951
 7151TIP3   OH243087   2.746   6.195   8.430 -0.5264  0.8234 -0.2555
 7151TIP3    H143088   2.784   6.217   8.345  2.2350 -2.3894 -0.0744
 7151TIP3    H243089   2.811   6.227   8.494 -0.7799  0.0244  0.4187
 7152TIP3   OH243090   0.460   6.407   0.229  0.4431  0.2269 -0.4502
 7152TIP3    H143091   0.463   6.417   0.324  0.8201 -1.6581 -0.2129
 7152TIP3    H243092   0.376   6.445   0.203 -1.1164 -1.9048  1.0844
 7153TIP3   OH243093   3.774   0.156   0.872 -0.5345  0.4257  0.1384
 7153TIP3    H143094   3.681   0.174   0.882 -0.7365 -0.1546 -0.6121
 7153TIP3    H243095   3.785   0.135   0.779  0.7501  2.8525 -0.3760
 7154TIP3   OH243096   5.622   3.165   1.040 -0.1245  0.2598  0.2693
 7154TIP3    H143097   5.553   3.139   1.101 -2.0799 -0.2630 -2.0120
 7154TIP3    H243098   5.640   3.086   0.989  0.3951  1.0483 -0.7958
 7155TIP3   OH243099   0.604   4.221   7.456  0.0322 -0.1804 -0.2577
 7155TIP3    H143100   0.675   4.169   7.492  0.9082  1.0169 -0.2096
 7155TIP3    H243101   0.630   4.237   7.365 -0.1509  0.3114 -0.2241
 7156TIP3   OH243102   5.319   3.468   0.576 -0.1173 -0.4010 -0.1460
 7156TIP3    H143103   5.345   3.385   0.616 -0.1315 -0.5217 -0.3808
 7156TIP3    H243104   5.307   3.446   0.483  1.9788  0.3017 -0.6388
 7157TIP3   OH243105   5.435   0.644   7.386  0.1061 -0.6488  0.2680
 7157TIP3    H143106   5.499   0.579   7.357  0.4480  0.0624 -0.6243
 7157TIP3    H243107   5.355   0.593   7.402  0.8482 -1.5183  1.2835
 7158TIP3   OH243108   2.572   0.361   1.978  0.1931  0.5654 -0.5169
 7158TIP3    H143109   2.490   0.407   1.958  0.1945  0.8381  0.0744
 7158TIP3    H243110   2.556   0.319   2.062  1.1813  1.9424  0.3998
 7159TIP3   OH243111   3.376   6.584   1.019 -0.2309  0.5683  0.0123
 7159TIP3    H143112   3.281   6.581   1.009 -0.2954 -3.2045  0.3955
 7159TIP3    H243113   3.404   6.655   0.962 -3.3037  2.5856  0.7813
 7160TIP3   OH243114   1.335   4.283   7.416  0.0039 -0.0450 -0.0818
 7160TIP3    H143115   1.389   4.225   7.471  0.1135 -1.1093 -1.2655
 7160TIP3    H243116   1.319   4.232   7.337  1.1229  2.0101 -1.7165
 7161TIP3   OH243117   1.382   1.762   0.519  0.2185  0.0150 -0.3533
 7161TIP3    H143118   1.340   1.678   0.539 -0.6067  0.6141  0.5088
 7161TIP3    H243119   1.310   1.825   0.518  0.7345  0.6051 -1.7333
 7162TIP3   OH243120   5.767   1.464   1.075 -0.0639  0.5981  0.7091
 7162TIP3    H143121   5.861   1.481   1.084  0.1782  1.6814 -2.3760
 7162TIP3    H243122   5.761   1.370   1.060  1.1617  0.9224 -3.0129
 7163TIP3   OH243123   6.747   3.289   7.385  0.1644  0.2828 -0.2592
 7163TIP3    H143124   6.797   3.209   7.370  1.5052  0.6631  1.8281
 7163TIP3    H243125   6.714   3.281   7.474 -1.0659  1.3642 -0.5813
 7164TIP3   OH243126   4.209   2.877   8.762 -0.2509  0.1729  0.1123
 7164TIP3    H143127   4.305   2.876   8.767 -0.2410  0.9068  0.1641
 7164TIP3    H243128   4.185   2.787   8.740  0.3028 -0.7554  2.9052
 7165TIP3   OH243129   6.484   2.491   7.001 -0.3989 -0.0505 -0.5959
 7165TIP3    H143130   6.448   2.505   7.088  0.4854 -1.0958 -0.0265
 7165TIP3    H243131   6.568   2.537   7.002  1.3130 -2.9509  0.4069
 7166TIP3   OH243132   6.188   3.785   0.207  0.5555  0.2130  0.7126
 7166TIP3    H143133   6.100   3.748   0.202  0.6914 -0.0032 -2.9977
 7166TIP3    H243134   6.241   3.714   0.244  0.0797 -2.0281 -2.4173
 7167TIP3   OH243135   6.483   4.519   0.144 -0.4233 -0.3704  0.0470
 7167TIP3    H143136   6.478   4.423   0.149  0.7884 -0.4680 -0.1525
 7167TIP3    H243137   6.523   4.544   0.227 -1.0362 -0.0044  0.2325
 7168TIP3   OH243138   4.915   4.772   1.734  0.0681 -0.2187 -0.8813
 7168TIP3    H143139   4.923   4.726   1.818 -1.5802 -1.4191 -1.3307
 7168TIP3    H243140   4.895   4.862   1.759  0.4444 -0.3687  0.0190
 7169TIP3   OH243141   5.008   6.547   8.658 -0.0282 -0.1019 -0.0432
 7169TIP3    H143142   5.056   6.575   8.735  2.4744  1.8802 -2.1242
 7169TIP3    H243143   4.935   6.608   8.652 -0.4824 -0.5275  0.9208
 7170TIP3   OH243144   1.672   4.461   1.586 -0.1607 -0.1865 -0.2332
 7170TIP3    H143145   1.621   4.430   1.661 -0.7312  0.7100 -0.2517
 7170TIP3    H243146   1.631   4.543   1.560  1.0238  0.3441 -0.5148
 7171TIP3   OH243147   0.027   2.313   8.291 -0.4002  0.2487  0.7167
 7171TIP3    H143148   0.084   2.313   8.214  0.6157  0.1136  1.4508
 7171TIP3    H243149  -0.037   2.244   8.273  0.5732 -0.6337  0.5196
 7172TIP3   OH243150   4.363   3.543   1.717 -0.8052  0.4248  0.3250
 7172TIP3    H143151   4.297   3.482   1.684 -1.7952  1.1739  0.8575
 7172TIP3    H243152   4.424   3.554   1.644 -1.4132 -0.0814 -0.2743
 7173TIP3   OH243153   5.948   5.077   0.720 -0.4966  0.2406 -0.0196
 7173TIP3    H143154   6.027   5.024   0.736 -1.4847 -1.3979 -0.3848
 7173TIP3    H243155   5.923   5.108   0.807 -0.1936 -0.3278  0.2781
 7174TIP3   OH243156   3.004   5.199   1.811  0.2465 -0.4951 -0.4031
 7174TIP3    H143157   3.041   5.270   1.760 -0.2789  0.2986  0.2957
 7174TIP3    H243158   2.914   5.190   1.779  0.9015 -2.2232 -1.8982
 7175TIP3   OH243159   5.669   3.208   0.429 -0.5822 -0.2231 -0.0526
 7175TIP3    H143160   5.711   3.169   0.506  2.0437  1.0258 -0.7659
 7175TIP3    H243161   5.680   3.303   0.441 -2.3628  0.1213 -0.7962
 7176TIP3   OH243162   4.443   4.464   2.410  0.0106  0.2316 -0.1363
 7176TIP3    H143163   4.537   4.481   2.407 -0.3448  2.2241 -1.3249
 7176TIP3    H243164   4.411   4.481   2.322 -1.5841  0.2511  0.3989
 7177TIP3   OH243165   6.633   4.464   7.138 -0.5516  0.3891 -0.1810
 7177TIP3    H143166   6.616   4.514   7.059  0.7263  0.9705 -0.1215
 7177TIP3    H243167   6.574   4.389   7.133 -0.5868  0.4858 -1.6189
 7178TIP3   OH243168   1.089   3.811   8.071 -0.4443 -0.0291 -0.7113
 7178TIP3    H143169   1.094   3.890   8.017 -1.8352  0.4272 -0.2088
 7178TIP3    H243170   1.151   3.826   8.142 -1.5868  1.1903  0.0783
 7179TIP3   OH243171   0.598   5.030   7.761 -0.2869  0.2289  0.2972
 7179TIP3    H143172   0.643   4.949   7.738 -0.0531 -0.2190  2.1730
 7179TIP3    H243173   0.509   5.018   7.729 -0.1942 -0.6970  0.3627
 7180TIP3   OH243174   5.552   2.043   1.536 -0.6332 -0.3097 -0.1414
 7180TIP3    H143175   5.624   2.087   1.581 -1.3031 -0.0221  0.6891
 7180TIP3    H243176   5.522   1.976   1.598 -0.0679 -1.5128 -1.1131
 7181TIP3   OH243177   3.724   2.705   0.426 -0.5622  0.0160 -0.6456
 7181TIP3    H143178   3.752   2.647   0.497  1.1976  1.2860 -0.2233
 7181TIP3    H243179   3.637   2.673   0.402 -1.0560 -0.7041  1.8034
 7182TIP3   OH243180   1.573   0.317   1.415 -0.1712 -0.6875 -0.7734
 7182TIP3    H143181   1.609   0.405   1.413 -1.6520 -0.0347 -3.1695
 7182TIP3    H243182   1.500   0.322   1.476 -0.0933 -0.3163 -0.7114
 7183LIG      O43183   5.108   3.925   3.675 -0.9134  0.1434 -0.0960
 7183LIG     C143184   5.082   3.929   3.818 -0.2520  0.5586 -0.7240
 7183LIG     C243185   4.942   3.874   3.830  0.3047 -1.4023 -0.5299
 7183LIG     C343186   5.191   3.830   3.874 -0.0043  0.6209  1.1152
 7183LIG     H143187   5.095   4.030   3.862 -0.5353  0.1636  0.3009
 7183LIG     H243188   4.927   3.771   3.791 -0.9355 -1.9202  1.1731
 7183LIG     H343189   4.856   3.924   3.781  0.0717 -1.8061 -0.5400
 7183LIG     H443190   4.923   3.859   3.938  3.6894  0.1243  0.4365
 7183LIG     H543191   5.181   3.723   3.845  0.9691  0.9635 -0.6332
 7183LIG     H643192   5.192   3.845   3.984  2.1074 -0.1047  1.2264
 7183LIG     H743193   5.293   3.853   3.837  0.1818 -1.5079  0.1315
 7183LIG     H843194   5.064   4.004   3.644 -1.6193  0.4261  1.5266
   6.83153   6.83153   8.85380
