Title
43194
    1CHL1    C3    1   1.582   0.756   5.752 -0.0437 -0.0747 -0.2754
    1CHL1    H3    2   1.519   0.846   5.765 -1.5212 -1.2523  1.1662
    1CHL1    O3    3   1.624   0.705   5.883  0.3038 -0.3729 -0.5013
    1CHL1   H3'    4   1.545   0.666   5.921  0.2693  0.5838  0.4531
    1CHL1    C4    5   1.502   0.657   5.679 -0.0509 -0.2642  0.0657
    1CHL1   H4A    6   1.561   0.563   5.674 -1.2453 -1.1407  1.5569
    1CHL1   H4B    7   1.411   0.631   5.738 -1.6257 -2.0433 -2.8935
    1CHL1    C5    8   1.459   0.696   5.535 -0.9284 -0.7130  0.1963
    1CHL1    C6    9   1.337   0.688   5.487  0.7874 -0.3131  0.5651
    1CHL1    H6   10   1.256   0.639   5.543 -0.1574  1.2959  0.6725
    1CHL1    C7   11   1.289   0.721   5.343  0.1280 -0.7925 -0.5706
    1CHL1   H7A   12   1.237   0.634   5.296  0.7430 -0.1252 -2.5599
    1CHL1   H7B   13   1.226   0.812   5.344  3.2174  1.4957  0.8767
    1CHL1    C8   14   1.410   0.753   5.253  0.1759  0.5582 -1.1915
    1CHL1    H8   15   1.456   0.660   5.212 -0.9744 -1.3732  1.6177
    1CHL1   C14   16   1.358   0.842   5.137 -0.3012  0.1844 -0.5441
    1CHL1   H14   17   1.321   0.935   5.184 -2.3870 -1.7002  1.7906
    1CHL1   C15   18   1.234   0.807   5.057 -0.4877  0.3242 -0.7571
    1CHL1  H15A   19   1.234   0.703   5.018 -1.5462 -0.2294  0.6350
    1CHL1  H15B   20   1.143   0.815   5.120  1.2369 -0.4061  2.0087
    1CHL1   C16   21   1.233   0.901   4.935 -0.5679  0.2214  0.0930
    1CHL1  H16A   22   1.226   0.840   4.842 -1.1476 -0.2709  0.4494
    1CHL1  H16B   23   1.157   0.978   4.958 -2.2802 -1.8573  1.8777
    1CHL1   C17   24   1.378   0.966   4.942 -0.1374  0.2911 -1.0019
    1CHL1   H17   25   1.371   1.060   5.000  2.6013 -1.2019  2.0175
    1CHL1   C13   26   1.461   0.879   5.035 -0.1375  0.1131  0.3513
    1CHL1   C18   27   1.516   0.750   4.964 -0.2806 -1.1884 -0.6000
    1CHL1  H18A   28   1.570   0.698   5.047 -1.2565 -0.4092  0.5484
    1CHL1  H18B   29   1.437   0.681   4.928 -1.9565 -0.2810  1.2004
    1CHL1  H18C   30   1.583   0.779   4.880  2.0827  0.9108  1.8346
    1CHL1   C12   31   1.568   0.964   5.117  0.1724 -0.4013 -0.9433
    1CHL1  H12A   32   1.652   0.982   5.046 -0.0445  0.6318 -0.9547
    1CHL1  H12B   33   1.536   1.068   5.140  0.5497 -0.1414 -1.5546
    1CHL1   C11   34   1.624   0.883   5.238  0.3807 -0.2245  0.1343
    1CHL1  H11A   35   1.675   0.797   5.189  3.7364  1.5256  0.2574
    1CHL1  H11B   36   1.691   0.949   5.297  1.4402 -0.6496 -0.5589
    1CHL1    C9   37   1.514   0.832   5.331 -0.1364  0.1160 -0.0037
    1CHL1    H9   38   1.456   0.916   5.375  3.3172  2.9990 -0.4681
    1CHL1   C10   39   1.576   0.762   5.460 -0.0616 -0.5868  0.1596
    1CHL1   C19   40   1.667   0.650   5.399  0.5336  0.2336 -0.5507
    1CHL1  H19A   41   1.762   0.689   5.358 -0.5265  1.4609 -1.9671
    1CHL1  H19B   42   1.710   0.583   5.476 -1.4253 -1.7989 -1.1013
    1CHL1  H19C   43   1.622   0.588   5.318  0.2466  1.2127 -1.1539
    1CHL1    C1   44   1.667   0.851   5.540  0.2513 -0.1991 -0.7395
    1CHL1   H1A   45   1.759   0.868   5.479  0.5242 -1.7568 -0.8017
    1CHL1   H1B   46   1.623   0.952   5.555  1.6694  0.5382 -1.2902
    1CHL1    C2   47   1.713   0.791   5.674  0.4646  0.5119 -0.3120
    1CHL1   H2A   48   1.778   0.866   5.724  1.9699 -0.6662 -0.4011
    1CHL1   H2B   49   1.767   0.694   5.667 -1.0923 -0.4908  0.9884
    1CHL1   C20   50   1.427   1.005   4.798 -0.5014  0.7474  0.5455
    1CHL1   H20   51   1.451   0.910   4.745  0.1440  0.9349  0.4863
    1CHL1   C21   52   1.554   1.085   4.817  0.8135 -0.6387  0.1725
    1CHL1  H21A   53   1.590   1.129   4.722 -3.2076  0.2061 -1.1758
    1CHL1  H21B   54   1.637   1.028   4.864  0.6828 -0.9641  0.0124
    1CHL1  H21C   55   1.527   1.176   4.875  2.0160 -0.0684 -0.1344
    1CHL1   C22   56   1.321   1.084   4.721 -0.3801 -1.0595  0.5701
    1CHL1  H22A   57   1.226   1.027   4.707 -2.2423  1.9765 -0.2122
    1CHL1  H22B   58   1.304   1.176   4.782 -0.4501  0.0880 -1.0939
    1CHL1   C23   59   1.374   1.138   4.583  0.7582 -0.0166 -0.2026
    1CHL1  H23A   60   1.450   1.219   4.594  0.4044  0.3360 -0.3552
    1CHL1  H23B   61   1.425   1.048   4.541  1.0298 -0.4193  0.9611
    1CHL1   C24   62   1.265   1.202   4.488 -0.0075 -0.1178 -0.0287
    1CHL1  H24A   63   1.176   1.137   4.498 -0.2177  0.2100  0.2871
    1CHL1  H24B   64   1.234   1.301   4.529 -0.5378 -0.1977 -0.2295
    1CHL1   C25   65   1.329   1.217   4.340 -0.6582  0.3349  0.2586
    1CHL1   H25   66   1.414   1.147   4.321 -1.4293 -0.9873  1.5299
    1CHL1   C26   67   1.217   1.180   4.238 -0.1997  0.3376 -0.4548
    1CHL1  H26A   68   1.134   1.253   4.248  0.4272  0.9360  0.7537
    1CHL1  H26B   69   1.247   1.182   4.131 -1.7909  0.5686 -0.9217
    1CHL1  H26C   70   1.179   1.079   4.261  2.2443 -0.1246  2.1222
    1CHL1   C27   71   1.395   1.346   4.301  0.5127 -0.4644 -0.0102
    1CHL1  H27A   72   1.430   1.350   4.196 -1.0969  1.7719 -0.5254
    1CHL1  H27B   73   1.315   1.422   4.296 -0.3130 -1.3317 -0.2591
    1CHL1  H27C   74   1.474   1.374   4.374 -0.4237  0.9983  0.4772
    2CHL1    C3   75   1.368   6.690   5.879 -0.2661 -1.0558 -0.7695
    2CHL1    H3   76   1.412   6.791   5.867  0.3335 -1.3554 -1.1707
    2CHL1    O3   77   1.335   6.669   6.017  0.0047  0.0048  0.1082
    2CHL1   H3'   78   1.297   6.580   6.018 -1.7070  0.6708 -1.0561
    2CHL1    C4   79   1.253   6.677   5.781 -0.7256  0.0335  0.0764
    2CHL1   H4A   80   1.194   6.583   5.796 -2.0719  0.5400 -1.6998
    2CHL1   H4B   81   1.187   6.764   5.801 -0.3997  0.1594  0.6426
    2CHL1    C5   82   1.307   6.690   5.637 -0.1770 -0.4166 -0.0864
    2CHL1    C6   83   1.261   6.777   5.546  0.1582 -0.5335 -0.6497
    2CHL1    H6   84   1.176   6.842   5.571 -0.7531 -0.8778 -2.6234
    2CHL1    C7   85   1.307   6.785   5.404  0.3129  0.3580  0.0735
    2CHL1   H7A   86   1.222   6.792   5.333  0.4810  4.0086  0.0558
    2CHL1   H7B   87   1.371   6.876   5.394  1.9885 -0.7827 -0.1562
    2CHL1    C8   88   1.385   6.655   5.363  1.0179  0.1581  0.7912
    2CHL1    H8   89   1.312   6.574   5.341  1.7461 -0.9381  2.1881
    2CHL1   C14   90   1.467   6.690   5.238  0.5806 -0.3643 -0.0177
    2CHL1   H14   91   1.554   6.750   5.271  2.1404 -3.1364  1.3439
    2CHL1   C15   92   1.400   6.768   5.123 -0.3593  0.4393  0.2182
    2CHL1  H15A   93   1.294   6.740   5.105  0.2075 -1.6229 -0.1687
    2CHL1  H15B   94   1.407   6.877   5.145 -0.4865  0.0862  2.1774
    2CHL1   C16   95   1.476   6.727   4.993 -0.8327  0.5187 -0.0563
    2CHL1  H16A   96   1.405   6.684   4.918  0.2546 -2.0024  0.2781
    2CHL1  H16B   97   1.528   6.817   4.952 -1.8449  0.2635 -2.0565
    2CHL1   C17   98   1.586   6.627   5.032  0.3793 -0.3206  0.0454
    2CHL1   H17   99   1.675   6.692   5.051  0.3371 -0.3894  0.4805
    2CHL1   C13  100   1.541   6.572   5.174  0.2657 -0.1502 -0.0912
    2CHL1   C18  101   1.437   6.458   5.148 -0.3116 -0.1432 -0.1565
    2CHL1  H18A  102   1.487   6.383   5.082  1.7818  0.2983  0.8202
    2CHL1  H18B  103   1.404   6.405   5.240 -1.0089 -0.6929 -0.7133
    2CHL1  H18C  104   1.350   6.492   5.088 -0.3288 -1.3716 -0.8660
    2CHL1   C12  105   1.647   6.526   5.272 -0.0010  0.1252  0.0545
    2CHL1  H12A  106   1.700   6.433   5.241 -0.0352  0.0164  0.3186
    2CHL1  H12B  107   1.717   6.612   5.272  0.5120 -0.2819 -0.6139
    2CHL1   C11  108   1.583   6.499   5.416 -0.3926  0.1523  0.5069
    2CHL1  H11A  109   1.525   6.405   5.401  0.8352 -0.4969 -0.3986
    2CHL1  H11B  110   1.667   6.486   5.487 -1.0104 -1.6410  0.9749
    2CHL1    C9  111   1.486   6.607   5.465  0.5298  1.2267  0.0846
    2CHL1    H9  112   1.546   6.700   5.479 -0.1516  1.7610 -0.4892
    2CHL1   C10  113   1.423   6.583   5.605 -0.3031 -0.0319  0.3197
    2CHL1   C19  114   1.374   6.440   5.612  0.4587  0.3523 -0.1772
    2CHL1  H19A  115   1.320   6.415   5.518  0.9139  0.8896 -0.5839
    2CHL1  H19B  116   1.461   6.373   5.631  0.8599  0.4447 -1.5620
    2CHL1  H19C  117   1.291   6.431   5.685 -1.6104  0.3169 -2.4125
    2CHL1    C1  118   1.535   6.599   5.709 -0.1193 -0.8262 -0.0082
    2CHL1   H1A  119   1.607   6.514   5.705  0.8873 -0.0076  0.4277
    2CHL1   H1B  120   1.584   6.697   5.694 -0.8109 -0.8128 -2.6299
    2CHL1    C2  121   1.479   6.592   5.852  0.0724  0.1199 -0.0793
    2CHL1   H2A  122   1.566   6.594   5.921  1.1287 -2.0922 -1.2135
    2CHL1   H2B  123   1.445   6.489   5.874 -0.4453  0.6283  1.6002
    2CHL1   C20  124   1.635   6.527   4.927  0.4325 -0.4836  0.2431
    2CHL1   H20  125   1.545   6.472   4.891 -0.3892  0.3883  0.8849
    2CHL1   C21  126   1.736   6.429   4.985 -0.0488  0.0181 -0.9242
    2CHL1  H21A  127   1.684   6.354   5.048 -1.6721  3.3453  1.9923
    2CHL1  H21B  128   1.813   6.488   5.039 -0.3933 -0.5288  0.2038
    2CHL1  H21C  129   1.785   6.366   4.908  1.7808 -0.2325  0.3811
    2CHL1   C22  130   1.697   6.594   4.799 -0.4840 -0.3307  0.5257
    2CHL1  H22A  131   1.618   6.666   4.766 -0.2952 -0.8675 -1.1822
    2CHL1  H22B  132   1.784   6.656   4.828  0.2054 -1.6636  1.3578
    2CHL1   C23  133   1.735   6.503   4.682 -0.1682 -0.8975 -0.1183
    2CHL1  H23A  134   1.805   6.422   4.709  0.6552 -0.2700 -0.3465
    2CHL1  H23B  135   1.639   6.458   4.647  0.2569 -0.4113 -2.0225
    2CHL1   C24  136   1.800   6.589   4.565  0.2423 -0.3979  0.1909
    2CHL1  H24A  137   1.724   6.666   4.540 -0.0497  0.4222  3.1407
    2CHL1  H24B  138   1.885   6.645   4.609 -0.0154  1.4336 -1.5336
    2CHL1   C25  139   1.843   6.509   4.436 -0.5678 -0.3896  0.4258
    2CHL1   H25  140   1.758   6.460   4.384 -0.9917  0.8567 -0.0875
    2CHL1   C26  141   1.905   6.614   4.345 -0.3513 -0.3155  0.2825
    2CHL1  H26A  142   1.835   6.701   4.337 -0.4553 -0.5609 -2.4375
    2CHL1  H26B  143   2.004   6.640   4.388  1.2583 -0.8975 -2.8177
    2CHL1  H26C  144   1.935   6.577   4.245  1.1543  1.7448 -0.1132
    2CHL1   C27  145   1.947   6.406   4.478  0.3927  0.5559 -0.0672
    2CHL1  H27A  146   1.986   6.351   4.389  0.9163 -0.9921  1.0837
    2CHL1  H27B  147   2.032   6.465   4.517 -0.1913  0.2757  1.6936
    2CHL1  H27C  148   1.908   6.333   4.552 -0.4297 -0.9416 -1.8877
    3CHL1    C3  149   1.342   1.678   5.656  0.2606  0.1554  0.4736
    3CHL1    H3  150   1.416   1.612   5.606 -0.2821  1.0737 -1.7046
    3CHL1    O3  151   1.329   1.643   5.795  0.9530  0.1952 -0.0694
    3CHL1   H3'  152   1.294   1.726   5.829 -2.8586 -0.3772 -2.0506
    3CHL1    C4  153   1.383   1.831   5.636 -0.1411  0.3947  0.2990
    3CHL1   H4A  154   1.319   1.902   5.693  0.7143  1.1516  0.3517
    3CHL1   H4B  155   1.481   1.835   5.689  0.5224  0.8108 -0.9176
    3CHL1    C5  156   1.393   1.870   5.489 -0.6238  0.0899 -0.4406
    3CHL1    C6  157   1.509   1.905   5.434 -0.2706  0.4203 -0.5999
    3CHL1    H6  158   1.602   1.915   5.490  1.0485 -3.3026 -1.7889
    3CHL1    C7  159   1.526   1.940   5.291  0.2067 -0.0334  0.8383
    3CHL1   H7A  160   1.583   2.035   5.287  0.2653 -0.1155 -1.1289
    3CHL1   H7B  161   1.593   1.875   5.232  0.5189  1.0624 -0.0507
    3CHL1    C8  162   1.395   1.963   5.226  0.3757 -0.2295 -0.3992
    3CHL1    H8  163   1.347   2.056   5.264  0.6189 -0.5259  0.6647
    3CHL1   C14  164   1.416   1.973   5.075  0.6793  0.2818  0.2009
    3CHL1   H14  165   1.472   1.881   5.049  0.6464 -0.3899  2.3055
    3CHL1   C15  166   1.518   2.080   5.033  0.8038  0.0964  0.2971
    3CHL1  H15A  167   1.485   2.180   5.070  1.0799  1.1771 -2.1841
    3CHL1  H15B  168   1.620   2.043   5.057  0.1512 -0.9506  1.5831
    3CHL1   C16  169   1.494   2.102   4.880 -0.0297  0.5958  0.1507
    3CHL1  H16A  170   1.492   2.208   4.849 -0.8138  0.4641 -0.2820
    3CHL1  H16B  171   1.568   2.047   4.818  0.2198  0.0614  0.8976
    3CHL1   C17  172   1.359   2.021   4.853  0.6075  0.4559  0.3127
    3CHL1   H17  173   1.388   1.921   4.815 -1.4236  0.7817 -2.3912
    3CHL1   C13  174   1.293   2.004   4.985  0.4913  0.0616  0.0824
    3CHL1   C18  175   1.235   2.142   5.030  0.6486 -0.3042 -0.3564
    3CHL1  H18A  176   1.288   2.232   4.992 -0.2579 -0.2621 -1.5979
    3CHL1  H18B  177   1.133   2.149   4.986 -0.2871 -1.7321  1.4353
    3CHL1  H18C  178   1.221   2.151   5.140 -0.1233  0.1730 -0.4836
    3CHL1   C12  179   1.198   1.880   5.013 -0.1963 -0.8736  0.2261
    3CHL1  H12A  180   1.105   1.902   4.956  0.2206 -2.0917 -0.9693
    3CHL1  H12B  181   1.230   1.784   4.969 -0.2015 -2.4218  3.3117
    3CHL1   C11  182   1.170   1.855   5.167 -0.2354  0.0319 -0.3976
    3CHL1  H11A  183   1.101   1.936   5.196  2.1938  1.6930  1.1263
    3CHL1  H11B  184   1.116   1.761   5.189  0.5988 -0.4565 -0.3710
    3CHL1    C9  185   1.296   1.850   5.258 -0.0430 -0.4352  0.8754
    3CHL1    H9  186   1.353   1.762   5.220  0.3959  0.6776 -1.1661
    3CHL1   C10  187   1.263   1.842   5.406  0.6402  0.8462 -0.2627
    3CHL1   C19  188   1.159   1.953   5.442 -0.1364  0.5467 -0.1822
    3CHL1  H19A  189   1.055   1.922   5.417 -0.3620  1.3902 -0.3333
    3CHL1  H19B  190   1.149   1.966   5.552 -1.4217 -0.4967 -0.1608
    3CHL1  H19C  191   1.187   2.057   5.412 -0.3831  0.8115  0.4755
    3CHL1    C1  192   1.212   1.699   5.435  0.2511  0.9832 -0.0362
    3CHL1   H1A  193   1.106   1.698   5.401  0.3400  1.0606 -0.3218
    3CHL1   H1B  194   1.270   1.616   5.389  2.1408  0.8291  2.4343
    3CHL1    C2  195   1.211   1.661   5.587  0.4676  0.2469  0.2121
    3CHL1   H2A  196   1.181   1.554   5.594  4.3786 -1.0118 -0.1807
    3CHL1   H2B  197   1.124   1.715   5.630 -1.9396 -2.8237 -0.4416
    3CHL1   C20  198   1.275   2.094   4.741 -0.0785 -0.1806 -0.5741
    3CHL1   H20  199   1.263   2.198   4.779 -2.3566 -0.1331 -1.2550
    3CHL1   C21  200   1.140   2.019   4.720  0.0743 -0.5088  0.4946
    3CHL1  H21A  201   1.164   1.911   4.716 -1.2455 -0.8094  0.3337
    3CHL1  H21B  202   1.104   2.046   4.619  3.3270 -2.0742 -1.2471
    3CHL1  H21C  203   1.062   2.035   4.798 -0.1356 -3.0969  0.8884
    3CHL1   C22  204   1.347   2.119   4.606  0.9445 -0.2277 -0.3727
    3CHL1  H22A  205   1.293   2.191   4.541 -0.5512  2.5341  3.4894
    3CHL1  H22B  206   1.436   2.179   4.635  0.8566  0.4171 -1.4140
    3CHL1   C23  207   1.377   1.988   4.534  0.3415 -0.0345  0.2002
    3CHL1  H23A  208   1.427   1.922   4.608  0.7330 -3.1294 -2.5844
    3CHL1  H23B  209   1.277   1.944   4.512  1.3513 -1.8464 -1.0808
    3CHL1   C24  210   1.461   1.977   4.407 -0.3152  0.2560 -0.2599
    3CHL1  H24A  211   1.411   2.044   4.335 -0.8324 -0.0631 -0.2032
    3CHL1  H24B  212   1.566   2.002   4.434 -1.1763  1.9369  1.7138
    3CHL1   C25  213   1.464   1.837   4.346  0.7133 -0.3966 -0.0199
    3CHL1   H25  214   1.360   1.803   4.327  0.4103 -2.0643  3.7860
    3CHL1   C26  215   1.541   1.832   4.215 -0.4113 -0.2048  0.8024
    3CHL1  H26A  216   1.636   1.884   4.237  1.3633 -2.8902  0.0361
    3CHL1  H26B  217   1.551   1.732   4.168  0.3997  1.2618 -2.3547
    3CHL1  H26C  218   1.497   1.896   4.136 -0.4848 -1.7053 -0.4211
    3CHL1   C27  219   1.519   1.725   4.441 -0.0972 -0.5137  0.2473
    3CHL1  H27A  220   1.455   1.711   4.530 -0.9515 -2.3544 -0.6104
    3CHL1  H27B  221   1.515   1.623   4.398 -1.1560 -0.7712  0.9319
    3CHL1  H27C  222   1.623   1.742   4.477 -0.0688 -0.2471  0.0515
    4CHL1    C3  223   1.861   0.091   5.919 -0.0019 -0.5351  0.4635
    4CHL1    H3  224   1.922  -0.001   5.913 -0.3684 -0.7659  0.2620
    4CHL1    O3  225   1.846   0.119   6.059  0.0215  0.2311  0.0998
    4CHL1   H3'  226   1.787   0.194   6.064 -1.9874 -1.1717 -1.1369
    4CHL1    C4  227   1.941   0.214   5.864 -0.3643  0.4288  0.0676
    4CHL1   H4A  228   1.909   0.315   5.895  2.0243  1.5573 -0.8459
    4CHL1   H4B  229   2.039   0.210   5.916  1.8581  2.2469 -3.5513
    4CHL1    C5  230   1.961   0.202   5.712  0.6705 -0.3418  0.0525
    4CHL1    C6  231   2.080   0.208   5.653 -0.6705  0.0804  0.1806
    4CHL1    H6  232   2.163   0.251   5.711 -0.7152  2.3222 -1.2738
    4CHL1    C7  233   2.092   0.198   5.502 -0.7394 -0.1208 -0.0196
    4CHL1   H7A  234   2.173   0.266   5.469 -1.1596 -0.0611 -0.9492
    4CHL1   H7B  235   2.143   0.102   5.479  0.6986  0.5818  0.1211
    4CHL1    C8  236   1.959   0.223   5.424 -0.9820  0.0012 -0.1770
    4CHL1    H8  237   1.944   0.333   5.428 -1.2513 -0.0599  0.7622
    4CHL1   C14  238   1.978   0.164   5.279  1.0131 -1.0882  0.3356
    4CHL1   H14  239   1.996   0.054   5.284  0.1810 -1.2817 -0.5655
    4CHL1   C15  240   2.101   0.218   5.207 -0.4810  0.6335  0.2090
    4CHL1  H15A  241   2.124   0.323   5.236  1.6005  0.3922 -0.3993
    4CHL1  H15B  242   2.187   0.150   5.225  0.4805  2.3796  2.7164
    4CHL1   C16  243   2.058   0.219   5.056 -0.6724 -0.0694  0.0068
    4CHL1  H16A  244   2.059   0.324   5.020 -1.5217  0.2202  0.7939
    4CHL1  H16B  245   2.138   0.165   5.001  0.9753  0.5175  1.7191
    4CHL1   C17  246   1.918   0.149   5.055 -0.5859 -1.0718 -0.6678
    4CHL1   H17  247   1.952   0.043   5.050  0.7492 -0.7528  0.9546
    4CHL1   C13  248   1.854   0.186   5.193  0.4974 -0.5171  0.4080
    4CHL1   C18  249   1.801   0.331   5.187 -0.6873  0.1252  0.7077
    4CHL1  H18A  250   1.793   0.365   5.292 -0.8070  1.6964  0.2087
    4CHL1  H18B  251   1.873   0.395   5.132 -1.1378  0.6492  0.7282
    4CHL1  H18C  252   1.698   0.344   5.148 -0.9470  1.4261  1.7631
    4CHL1   C12  253   1.747   0.085   5.252 -0.3948 -0.5444  0.3975
    4CHL1  H12A  254   1.655   0.094   5.190 -0.1473  1.2243  0.2487
    4CHL1  H12B  255   1.784  -0.018   5.233  1.1830 -0.1553  1.2279
    4CHL1   C11  256   1.722   0.121   5.400  0.7254  0.4938 -0.5541
    4CHL1  H11A  257   1.658   0.212   5.403  0.4191  0.2493  1.3488
    4CHL1  H11B  258   1.664   0.035   5.437 -0.4028  0.3308 -2.5625
    4CHL1    C9  259   1.845   0.137   5.490 -0.4015  0.0172 -0.3297
    4CHL1    H9  260   1.881   0.032   5.492 -2.5913 -0.7641  0.2349
    4CHL1   C10  261   1.823   0.174   5.639  0.4399 -0.4437  0.1195
    4CHL1   C19  262   1.744   0.309   5.650 -0.7959  0.1113 -0.0198
    4CHL1  H19A  263   1.642   0.273   5.623  0.0742 -1.7968 -0.8923
    4CHL1  H19B  264   1.743   0.350   5.754 -2.0346  0.3580 -0.1116
    4CHL1  H19C  265   1.791   0.377   5.576  1.8285 -0.9090  0.5933
    4CHL1    C1  266   1.748   0.056   5.707  0.3276 -0.5695 -0.6989
    4CHL1   H1A  267   1.646   0.043   5.665  0.4131 -1.5727 -0.6103
    4CHL1   H1B  268   1.806  -0.038   5.693  1.6787 -0.2543  2.0932
    4CHL1    C2  269   1.726   0.069   5.854  0.1112  0.3868  0.4025
    4CHL1   H2A  270   1.680  -0.017   5.906 -0.9119 -0.3917 -1.6882
    4CHL1   H2B  271   1.661   0.157   5.872 -1.2303 -1.0226  3.0430
    4CHL1   C20  272   1.849   0.177   4.923  0.0568 -0.1612  0.3383
    4CHL1   H20  273   1.795   0.274   4.935  0.0887  0.0251 -0.8767
    4CHL1   C21  274   1.753   0.064   4.889 -0.0161  0.1980  0.4117
    4CHL1  H21A  275   1.675   0.077   4.810 -1.7892  0.0101  2.0425
    4CHL1  H21B  276   1.689   0.038   4.976  1.1860  1.0563  1.5873
    4CHL1  H21C  277   1.818  -0.022   4.863 -2.0584 -1.3253  0.0322
    4CHL1   C22  278   1.943   0.198   4.794 -0.2276  0.2935 -0.1860
    4CHL1  H22A  279   1.996   0.294   4.807 -0.8618  0.5785  0.2950
    4CHL1  H22B  280   1.997   0.100   4.793  0.4227  0.6212  0.8619
    4CHL1   C23  281   1.875   0.196   4.656  0.0201 -0.0002 -0.1285
    4CHL1  H23A  282   1.816   0.103   4.651 -0.5067  0.3551 -0.4950
    4CHL1  H23B  283   1.805   0.281   4.645  0.4764  0.2684 -1.0734
    4CHL1   C24  284   1.960   0.205   4.530  0.1540 -0.3069 -0.4255
    4CHL1  H24A  285   2.027   0.293   4.542  0.8686 -1.1051  1.7750
    4CHL1  H24B  286   2.014   0.108   4.526  0.6924 -0.0151 -0.3645
    4CHL1   C25  287   1.880   0.226   4.397  0.4843  0.3410  0.4687
    4CHL1   H25  288   1.786   0.166   4.399  1.0128 -0.5230  0.2251
    4CHL1   C26  289   1.844   0.372   4.383 -0.8650  0.2441  0.3579
    4CHL1  H26A  290   1.932   0.424   4.338 -0.6266 -0.5199 -0.0795
    4CHL1  H26B  291   1.753   0.386   4.321 -0.6599  0.3355  0.0738
    4CHL1  H26C  292   1.830   0.416   4.484 -2.6162 -0.2527  0.3620
    4CHL1   C27  293   1.965   0.177   4.280 -0.5543  0.5145 -0.1148
    4CHL1  H27A  294   1.960   0.068   4.260  0.9773  0.5234 -0.6892
    4CHL1  H27B  295   1.930   0.227   4.187 -1.6694  0.3835  0.2197
    4CHL1  H27C  296   2.073   0.195   4.295 -0.7729 -0.0273  2.4992
    5CHL1    C3  297   2.526   3.284   5.797  0.4057 -0.1773 -0.1404
    5CHL1    H3  298   2.465   3.204   5.752 -0.2637  0.6020 -0.6399
    5CHL1    O3  299   2.504   3.301   5.937 -0.3485  0.2646 -0.0252
    5CHL1   H3'  300   2.588   3.330   5.971 -0.1177  0.6701 -0.9077
    5CHL1    C4  301   2.675   3.272   5.761  0.1148  0.3437  0.1107
    5CHL1   H4A  302   2.728   3.363   5.798  2.8147  0.6872 -3.9286
    5CHL1   H4B  303   2.714   3.182   5.812 -0.8045 -0.5683 -0.7646
    5CHL1    C5  304   2.695   3.275   5.610  0.5234  0.6140 -0.3417
    5CHL1    C6  305   2.749   3.178   5.532  0.0068 -0.4026  0.3029
    5CHL1    H6  306   2.789   3.080   5.565  2.0706 -0.6080 -2.4041
    5CHL1    C7  307   2.771   3.189   5.383 -0.3956  0.6390  0.0060
    5CHL1   H7A  308   2.870   3.145   5.360 -0.1447  1.3573 -0.3443
    5CHL1   H7B  309   2.694   3.133   5.326  0.0470  0.3266 -0.2892
    5CHL1    C8  310   2.756   3.335   5.331  0.1694  1.2018  0.8444
    5CHL1    H8  311   2.849   3.382   5.372  2.1571 -0.0833 -1.9214
    5CHL1   C14  312   2.742   3.337   5.181 -0.1717  0.3846  0.3599
    5CHL1   H14  313   2.645   3.289   5.155 -0.4817 -0.3780  2.6743
    5CHL1   C15  314   2.847   3.256   5.105 -0.3645 -0.4628 -0.0988
    5CHL1  H15A  315   2.949   3.272   5.147  0.6403 -0.9738 -2.2353
    5CHL1  H15B  316   2.820   3.148   5.106 -0.8646 -0.3395 -0.1566
    5CHL1   C16  317   2.841   3.311   4.963 -0.1280  0.3733 -1.1553
    5CHL1  H16A  318   2.946   3.302   4.928 -0.2416 -2.4470 -1.0607
    5CHL1  H16B  319   2.783   3.240   4.900 -1.3284  1.1358 -0.9401
    5CHL1   C17  320   2.757   3.442   4.969  0.2317 -0.1472 -0.1147
    5CHL1   H17  321   2.651   3.413   4.954  0.0528  1.0397 -1.2219
    5CHL1   C13  322   2.754   3.479   5.122 -0.0775  0.0302  0.3458
    5CHL1   C18  323   2.882   3.559   5.154 -0.1045  0.2657 -0.1205
    5CHL1  H18A  324   2.888   3.568   5.265 -2.0036  0.9374 -0.0392
    5CHL1  H18B  325   2.963   3.492   5.117 -1.3323 -1.4817  0.2230
    5CHL1  H18C  326   2.891   3.653   5.096  1.5146  0.4866  0.4259
    5CHL1   C12  327   2.622   3.548   5.166 -0.6474  0.1579  0.7175
    5CHL1  H12A  328   2.623   3.653   5.131  2.8866  0.1323  0.3267
    5CHL1  H12B  329   2.539   3.491   5.120 -1.7553  1.2439  1.3074
    5CHL1   C11  330   2.606   3.546   5.315 -0.5126 -0.0306 -0.8838
    5CHL1  H11A  331   2.683   3.618   5.349 -2.0402  1.3366 -0.2268
    5CHL1  H11B  332   2.502   3.577   5.338 -0.1322  0.2582  0.5446
    5CHL1    C9  333   2.628   3.404   5.391 -0.2499 -0.2215 -0.2396
    5CHL1    H9  334   2.541   3.338   5.368  0.4204 -1.7402  1.3451
    5CHL1   C10  335   2.628   3.411   5.545 -0.3759  0.0664  0.6954
    5CHL1   C19  336   2.717   3.532   5.580  0.2874  0.8641 -0.4717
    5CHL1  H19A  337   2.761   3.532   5.682 -1.3753  2.5958  0.3059
    5CHL1  H19B  338   2.809   3.538   5.517  0.7912 -0.1573  0.1420
    5CHL1  H19C  339   2.671   3.632   5.568  0.4642  0.8586 -1.2567
    5CHL1    C1  340   2.478   3.431   5.591 -0.5693 -0.2186 -0.9517
    5CHL1   H1A  341   2.437   3.528   5.554 -0.4090 -0.5398 -2.0071
    5CHL1   H1B  342   2.417   3.347   5.552 -1.7004 -0.9515  2.0866
    5CHL1    C2  343   2.472   3.417   5.742 -0.5485  0.1388  0.2368
    5CHL1   H2A  344   2.364   3.412   5.766 -0.0848 -0.5267  2.4588
    5CHL1   H2B  345   2.519   3.502   5.798 -2.5027  0.6511  1.1872
    5CHL1   C20  346   2.791   3.544   4.862  0.3609 -0.0594  0.4308
    5CHL1   H20  347   2.769   3.648   4.895  0.8840 -0.4192  1.9559
    5CHL1   C21  348   2.692   3.519   4.744 -0.4373 -0.5510 -0.2132
    5CHL1  H21A  349   2.587   3.534   4.780 -0.6631 -1.5216 -0.4402
    5CHL1  H21B  350   2.713   3.412   4.723  1.9707 -0.3631  0.9334
    5CHL1  H21C  351   2.714   3.587   4.659  1.6952  0.0407  0.7506
    5CHL1   C22  352   2.942   3.549   4.822 -0.1788  0.1172 -0.6007
    5CHL1  H22A  353   3.000   3.558   4.915  0.1033 -0.0038 -0.7651
    5CHL1  H22B  354   2.963   3.456   4.764 -2.6079 -0.8273 -0.1098
    5CHL1   C23  355   2.977   3.672   4.736 -0.0661  0.4674 -0.6246
    5CHL1  H23A  356   2.885   3.699   4.680 -0.1934  0.0341 -0.6357
    5CHL1  H23B  357   2.997   3.749   4.813  0.2921 -0.9153  0.7120
    5CHL1   C24  358   3.098   3.640   4.649 -0.1239 -0.1170  0.5281
    5CHL1  H24A  359   3.183   3.621   4.718  0.9252 -0.0022 -0.6780
    5CHL1  H24B  360   3.080   3.545   4.593 -1.3570  0.5731 -0.2924
    5CHL1   C25  361   3.137   3.755   4.549 -0.6207 -0.0618  0.3140
    5CHL1   H25  362   3.062   3.759   4.467 -0.8584 -0.4782  0.5108
    5CHL1   C26  363   3.149   3.895   4.601  0.3313  0.3893 -0.2272
    5CHL1  H26A  364   3.193   3.893   4.703  0.2405  0.7118 -0.1814
    5CHL1  H26B  365   3.221   3.963   4.550  2.0468  0.0857  1.6737
    5CHL1  H26C  366   3.050   3.942   4.618  0.2766 -0.1709  1.0991
    5CHL1   C27  367   3.276   3.724   4.487 -0.1895 -0.4027  0.0537
    5CHL1  H27A  368   3.342   3.711   4.576 -0.1074  0.9897  0.2179
    5CHL1  H27B  369   3.278   3.622   4.442  1.6941 -0.8431  0.9921
    5CHL1  H27C  370   3.311   3.789   4.405 -1.2790  1.3581  0.9300
    6CHL1    C3  371   0.201   5.161   5.738  0.1455 -0.3693  0.0661
    6CHL1    H3  372   0.096   5.125   5.728  1.4782 -4.1542 -2.2514
    6CHL1    O3  373   0.232   5.185   5.872  0.2518 -0.7145  0.2676
    6CHL1   H3'  374   0.326   5.167   5.874  0.7327  1.5591  0.5029
    6CHL1    C4  375   0.295   5.056   5.683 -0.0372  0.0289  0.4736
    6CHL1   H4A  376   0.400   5.072   5.715  0.4106 -1.2914 -0.2451
    6CHL1   H4B  377   0.270   4.963   5.740  1.1980  0.3063  1.5209
    6CHL1    C5  378   0.279   5.049   5.536 -0.3955 -0.0813  0.2245
    6CHL1    C6  379   0.261   4.928   5.479  0.2520  0.4343 -0.4637
    6CHL1    H6  380   0.248   4.845   5.550  0.2971  0.3092 -0.6028
    6CHL1    C7  381   0.250   4.896   5.336 -0.6811 -0.9915  0.0085
    6CHL1   H7A  382   0.314   4.810   5.306  1.1703  0.1397  0.5667
    6CHL1   H7B  383   0.146   4.877   5.304 -0.4046  0.6994 -2.1528
    6CHL1    C8  384   0.310   5.014   5.252  0.3840 -0.4545  0.3442
    6CHL1    H8  385   0.421   5.005   5.255  0.2618 -2.0419  1.2005
    6CHL1   C14  386   0.260   4.992   5.106  0.2744  0.4469 -0.8050
    6CHL1   H14  387   0.151   5.003   5.122  0.5371  1.6479  0.3498
    6CHL1   C15  388   0.275   4.856   5.038 -0.2141  0.0064  0.0155
    6CHL1  H15A  389   0.381   4.823   5.044 -0.1212  0.3574  0.3180
    6CHL1  H15B  390   0.217   4.775   5.088  1.2034 -1.3803 -0.5100
    6CHL1   C16  391   0.227   4.892   4.893 -0.0195 -0.6128 -0.3771
    6CHL1  H16A  392   0.315   4.850   4.840  1.4844  0.5637  1.0692
    6CHL1  H16B  393   0.130   4.846   4.865 -1.6152  2.1802  0.1127
    6CHL1   C17  394   0.226   5.051   4.879  0.4753 -0.5226 -0.1676
    6CHL1   H17  395   0.120   5.083   4.885  0.2354 -1.4187  0.6545
    6CHL1   C13  396   0.301   5.102   5.007 -0.7902 -0.3530  0.2521
    6CHL1   C18  397   0.454   5.091   4.986  0.8378  0.0688  0.0659
    6CHL1  H18A  398   0.514   5.105   5.079 -1.8472  1.3961  1.7212
    6CHL1  H18B  399   0.473   4.995   4.933  0.2476 -0.2371  0.4045
    6CHL1  H18C  400   0.492   5.175   4.923  2.6041 -0.4866  0.3238
    6CHL1   C12  401   0.247   5.237   5.059 -0.6146 -0.4713 -0.1135
    6CHL1  H12A  402   0.263   5.325   4.993  1.3447 -0.9899 -0.3813
    6CHL1  H12B  403   0.137   5.228   5.060 -0.6725 -0.4699  2.8525
    6CHL1   C11  404   0.303   5.259   5.204 -0.1665  0.2969  0.2006
    6CHL1  H11A  405   0.414   5.262   5.199 -0.1434  0.2879  0.6464
    6CHL1  H11B  406   0.272   5.356   5.248  1.0437  0.9584 -0.3443
    6CHL1    C9  407   0.264   5.145   5.302 -0.5885 -0.9841 -0.1967
    6CHL1    H9  408   0.153   5.144   5.299 -0.6350  0.5391  0.1566
    6CHL1   C10  409   0.299   5.177   5.455  0.5076 -0.1932 -0.3002
    6CHL1   C19  410   0.450   5.220   5.460  0.5420  0.3623  0.5127
    6CHL1  H19A  411   0.505   5.140   5.405 -2.0915 -1.1919 -0.0548
    6CHL1  H19B  412   0.450   5.314   5.401 -0.7323  0.3076  0.3828
    6CHL1  H19C  413   0.498   5.231   5.559  0.6881 -1.4979  0.6730
    6CHL1    C1  414   0.212   5.287   5.514  0.8927 -1.1695  0.0231
    6CHL1   H1A  415   0.228   5.387   5.469  1.8789 -0.4539  1.8460
    6CHL1   H1B  416   0.107   5.262   5.487  0.9591  0.8082 -2.4339
    6CHL1    C2  417   0.221   5.293   5.667  0.1039  1.1329 -0.8806
    6CHL1   H2A  418   0.145   5.361   5.712 -1.0602 -2.5059  3.3413
    6CHL1   H2B  419   0.321   5.328   5.700 -0.9507  2.6914  0.8316
    6CHL1   C20  420   0.277   5.094   4.739 -0.3314 -0.0266 -0.0150
    6CHL1   H20  421   0.379   5.056   4.716 -0.8960 -0.6168 -1.7528
    6CHL1   C21  422   0.281   5.251   4.726 -0.0400  0.0515 -0.2380
    6CHL1  H21A  423   0.347   5.288   4.807  0.1102 -2.0742  0.6738
    6CHL1  H21B  424   0.184   5.299   4.751 -1.1286 -1.3945 -1.4481
    6CHL1  H21C  425   0.322   5.276   4.626 -1.4839 -2.3839 -1.5274
    6CHL1   C22  426   0.184   5.033   4.631 -0.2937 -0.2517 -0.2087
    6CHL1  H22A  427   0.171   4.929   4.666  0.6423  0.5072  2.5843
    6CHL1  H22B  428   0.077   5.066   4.626 -0.5669 -0.6430  2.1340
    6CHL1   C23  429   0.246   5.043   4.490  0.2391  1.1651  0.0536
    6CHL1  H23A  430   0.229   5.139   4.437  0.6587  0.6586 -1.0383
    6CHL1  H23B  431   0.356   5.031   4.504  0.2392  0.8391 -0.2126
    6CHL1   C24  432   0.210   4.930   4.391  0.1845  0.0091  0.0533
    6CHL1  H24A  433   0.255   4.834   4.424 -0.0071 -0.3858 -0.8027
    6CHL1  H24B  434   0.100   4.916   4.383  0.2162  0.1139 -0.6453
    6CHL1   C25  435   0.259   4.955   4.243  0.3873  0.7877 -1.1873
    6CHL1   H25  436   0.368   4.978   4.247  0.4161  0.4641  0.6533
    6CHL1   C26  437   0.246   4.830   4.147 -0.8058  0.5110 -0.1241
    6CHL1  H26A  438   0.137   4.814   4.135 -0.9923  2.6380 -1.7629
    6CHL1  H26B  439   0.271   4.852   4.041 -0.1679 -1.8175 -0.5159
    6CHL1  H26C  440   0.312   4.749   4.184  1.1814  2.4246  0.7346
    6CHL1   C27  441   0.166   5.063   4.185 -0.1283 -0.8480 -0.4174
    6CHL1  H27A  442   0.172   5.070   4.074 -1.9552  0.2992 -0.4759
    6CHL1  H27B  443   0.061   5.038   4.211  0.1158 -1.3080  0.1579
    6CHL1  H27C  444   0.175   5.167   4.223 -1.6345 -1.2529  1.1407
    7CHL1    C3  445   3.340   0.711   6.007  0.2267  0.0255  0.2044
    7CHL1    H3  446   3.399   0.619   5.984 -0.7267  0.0323 -2.7042
    7CHL1    O3  447   3.329   0.736   6.146 -0.3335 -0.4457 -0.1730
    7CHL1   H3'  448   3.415   0.772   6.168 -0.6164 -0.2199  0.6136
    7CHL1    C4  449   3.403   0.830   5.940 -0.1135  0.5662  0.4722
    7CHL1   H4A  450   3.349   0.922   5.971  0.8776  2.0242 -1.8569
    7CHL1   H4B  451   3.503   0.832   5.989  0.8105  0.2705 -1.3129
    7CHL1    C5  452   3.416   0.816   5.788  0.3691  0.0160  0.2449
    7CHL1    C6  453   3.528   0.833   5.714  0.0259 -0.4816  0.1285
    7CHL1    H6  454   3.622   0.855   5.767  1.4041 -2.0265 -1.5717
    7CHL1    C7  455   3.540   0.830   5.567 -0.2186 -0.0546 -0.0749
    7CHL1   H7A  456   3.603   0.912   5.525  1.0757 -0.7254  0.5392
    7CHL1   H7B  457   3.589   0.735   5.538 -1.8568 -0.5515 -1.3824
    7CHL1    C8  458   3.400   0.835   5.494 -0.5689 -0.1493 -0.6679
    7CHL1    H8  459   3.361   0.939   5.497 -1.8301 -0.5930 -0.9951
    7CHL1   C14  460   3.409   0.795   5.345  0.9617 -0.6708 -0.5727
    7CHL1   H14  461   3.436   0.687   5.345 -2.0651 -1.5671  1.6285
    7CHL1   C15  462   3.510   0.875   5.262 -0.1852  0.6439  0.9886
    7CHL1  H15A  463   3.496   0.980   5.295 -1.3849  0.7475  0.2209
    7CHL1  H15B  464   3.614   0.843   5.281 -0.6807 -1.0133  1.0270
    7CHL1   C16  465   3.462   0.845   5.120  1.1042 -0.3796 -0.0649
    7CHL1  H16A  466   3.443   0.936   5.059 -2.9480 -0.5516  0.7091
    7CHL1  H16B  467   3.527   0.774   5.064  2.3502  0.8843 -0.2713
    7CHL1   C17  468   3.319   0.780   5.136  0.3502 -0.0715  0.2908
    7CHL1   H17  469   3.343   0.671   5.135 -1.4391 -0.4988 -0.0586
    7CHL1   C13  470   3.266   0.803   5.276  0.3742 -0.1175 -0.2778
    7CHL1   C18  471   3.216   0.947   5.283 -0.2917  0.1849  0.0931
    7CHL1  H18A  472   3.167   0.955   5.383  2.0043 -1.2830  1.4216
    7CHL1  H18B  473   3.300   1.019   5.274  1.1104 -1.1609  1.6099
    7CHL1  H18C  474   3.131   0.969   5.214 -0.3512 -0.9350 -0.2125
    7CHL1   C12  475   3.171   0.704   5.342  0.1600  0.8000  0.1670
    7CHL1  H12A  476   3.065   0.704   5.308 -0.1566 -2.1116  0.9120
    7CHL1  H12B  477   3.207   0.603   5.315 -1.1621  0.2298  0.4288
    7CHL1   C11  478   3.156   0.730   5.496 -0.0274  0.0776 -0.5023
    7CHL1  H11A  479   3.091   0.820   5.505  0.9243  1.1762 -3.3593
    7CHL1  H11B  480   3.106   0.638   5.535  0.7789  0.3412  1.2254
    7CHL1    C9  481   3.289   0.749   5.570 -0.5459 -0.4235  0.5549
    7CHL1    H9  482   3.344   0.653   5.566  0.9857  0.4140  0.6266
    7CHL1   C10  483   3.285   0.784   5.722  0.2507  0.5747  0.1696
    7CHL1   C19  484   3.199   0.913   5.725  0.2297  0.1721 -0.1424
    7CHL1  H19A  485   3.094   0.905   5.692  0.2999 -0.5517 -0.2039
    7CHL1  H19B  486   3.200   0.954   5.828  0.0126 -0.7581  0.2446
    7CHL1  H19C  487   3.237   1.007   5.680 -0.7906  1.1571  1.0232
    7CHL1    C1  488   3.202   0.668   5.796 -0.3836  0.5682  0.2461
    7CHL1   H1A  489   3.097   0.666   5.760  0.2094  0.7606 -1.5745
    7CHL1   H1B  490   3.247   0.574   5.759 -1.8191 -0.4359  0.9625
    7CHL1    C2  491   3.196   0.691   5.948  0.0835  0.4744  0.2678
    7CHL1   H2A  492   3.144   0.605   5.995  0.2180 -0.7782 -1.7483
    7CHL1   H2B  493   3.141   0.786   5.962 -3.3760 -1.5371  1.4582
    7CHL1   C20  494   3.241   0.801   5.007  0.3725  0.3772  0.5539
    7CHL1   H20  495   3.245   0.909   4.980  0.6492  0.0846 -0.6670
    7CHL1   C21  496   3.099   0.746   5.030  0.7067 -0.6101  0.2786
    7CHL1  H21A  497   3.038   0.746   4.937  0.7263 -2.2915  0.2287
    7CHL1  H21B  498   3.039   0.811   5.097  0.6667 -0.5317  0.1657
    7CHL1  H21C  499   3.099   0.638   5.057  0.8789 -1.0468 -1.3471
    7CHL1   C22  500   3.306   0.728   4.886 -0.0774 -0.1110 -0.2719
    7CHL1  H22A  501   3.403   0.780   4.866 -0.2717 -0.2474 -1.6887
    7CHL1  H22B  502   3.321   0.621   4.912  1.4965  0.0807 -0.3013
    7CHL1   C23  503   3.219   0.730   4.761  0.9971 -0.1167 -0.3849
    7CHL1  H23A  504   3.123   0.680   4.784  0.1717  1.0996 -1.1261
    7CHL1  H23B  505   3.203   0.838   4.741 -0.7183  0.1308  1.9034
    7CHL1   C24  506   3.279   0.653   4.640  0.3193  0.4868  0.1461
    7CHL1  H24A  507   3.390   0.645   4.642  0.2560 -3.2305 -2.3251
    7CHL1  H24B  508   3.241   0.549   4.640 -3.7165  1.7737 -0.6997
    7CHL1   C25  509   3.226   0.722   4.512 -0.3459  0.1907  0.0481
    7CHL1   H25  510   3.257   0.829   4.517  1.3514 -0.1520 -1.6818
    7CHL1   C26  511   3.295   0.661   4.394  0.6087  0.1667 -0.4475
    7CHL1  H26A  512   3.241   0.684   4.299  0.8311  2.9091  0.0239
    7CHL1  H26B  513   3.403   0.683   4.383  0.6447  0.2310  0.0389
    7CHL1  H26C  514   3.292   0.550   4.402 -2.1731  0.2921  2.0377
    7CHL1   C27  515   3.077   0.715   4.500  0.2751 -0.3344 -0.7749
    7CHL1  H27A  516   3.033   0.613   4.496  0.9186 -0.7444  1.2818
    7CHL1  H27B  517   3.031   0.777   4.580  1.4807 -0.9657  0.4591
    7CHL1  H27C  518   3.047   0.767   4.406  0.2233 -0.0062 -0.5778
    8CHL1    C3  519   0.164   6.282   6.025  0.2875 -0.5165 -0.4119
    8CHL1    H3  520   0.061   6.316   6.000  0.4683 -0.1704 -0.6968
    8CHL1    O3  521   0.162   6.219   6.151 -0.2780 -0.8298 -0.0611
    8CHL1   H3'  522   0.169   6.292   6.213  0.6418 -0.7445 -0.2610
    8CHL1    C4  523   0.206   6.173   5.925 -0.0789  0.4288  0.0367
    8CHL1   H4A  524   0.297   6.120   5.962 -0.9115 -0.6549  0.5870
    8CHL1   H4B  525   0.127   6.095   5.929  1.3203 -1.3299 -2.7115
    8CHL1    C5  526   0.219   6.235   5.784 -0.0581 -0.2153 -0.2547
    8CHL1    C6  527   0.155   6.188   5.680  0.1350 -0.3446  0.2936
    8CHL1    H6  528   0.100   6.093   5.691 -3.2959  1.4477  0.0331
    8CHL1    C7  529   0.158   6.240   5.540  0.1778 -0.2244 -0.3822
    8CHL1   H7A  530   0.130   6.157   5.473 -2.1365 -0.4048  0.7119
    8CHL1   H7B  531   0.078   6.316   5.527  0.4270 -0.1468 -1.5405
    8CHL1    C8  532   0.289   6.319   5.511  0.3393  0.2635 -0.2004
    8CHL1    H8  533   0.376   6.250   5.511 -1.1165 -1.7928  2.3488
    8CHL1   C14  534   0.284   6.390   5.384 -0.3245  0.0421  0.1296
    8CHL1   H14  535   0.203   6.466   5.393 -1.1077 -0.6876 -0.6203
    8CHL1   C15  536   0.243   6.307   5.266 -0.0793  0.4472 -0.3041
    8CHL1  H15A  537   0.305   6.214   5.265 -0.9684 -0.1693  0.0132
    8CHL1  H15B  538   0.137   6.273   5.270  0.1386 -0.5823 -2.2129
    8CHL1   C16  539   0.277   6.395   5.152 -0.5618 -0.4182  0.6732
    8CHL1  H16A  540   0.341   6.336   5.082 -0.0922 -0.0250  0.7644
    8CHL1  H16B  541   0.188   6.434   5.099 -1.6698 -3.8014 -0.2175
    8CHL1   C17  542   0.365   6.520   5.210  0.2614 -0.0886 -0.5538
    8CHL1   H17  543   0.305   6.609   5.238  2.3581  0.7413  1.6488
    8CHL1   C13  544   0.411   6.473   5.351  0.2980 -0.2726  0.2884
    8CHL1   C18  545   0.533   6.377   5.340  0.1289 -0.3883 -0.4472
    8CHL1  H18A  546   0.523   6.297   5.263  0.6589  0.3920 -1.3571
    8CHL1  H18B  547   0.626   6.432   5.313  1.6365 -1.6797  1.7873
    8CHL1  H18C  548   0.552   6.328   5.438  2.0810  0.1725 -0.4985
    8CHL1   C12  549   0.431   6.581   5.463 -0.0829  0.1607  0.1553
    8CHL1  H12A  550   0.524   6.640   5.449 -0.6909  1.3920  1.0143
    8CHL1  H12B  551   0.340   6.644   5.452  1.0046  1.8017  0.1813
    8CHL1   C11  552   0.434   6.513   5.597 -0.3020 -0.5280 -0.7302
    8CHL1  H11A  553   0.536   6.468   5.598 -0.1441 -0.2089  0.9963
    8CHL1  H11B  554   0.424   6.591   5.675 -0.4798 -0.2968 -0.9820
    8CHL1    C9  555   0.320   6.416   5.628  0.0972 -0.2521  1.0949
    8CHL1    H9  556   0.230   6.481   5.631 -1.4370 -2.2912  1.7804
    8CHL1   C10  557   0.313   6.353   5.774  0.1782  0.8701 -0.6480
    8CHL1   C19  558   0.450   6.286   5.790 -0.4241 -0.4019  0.7925
    8CHL1  H19A  559   0.466   6.212   5.709  0.0447 -0.4212  0.8993
    8CHL1  H19B  560   0.540   6.352   5.793 -1.4976  1.1258  0.5613
    8CHL1  H19C  561   0.460   6.223   5.881  2.2074  0.5101  1.2282
    8CHL1    C1  562   0.275   6.463   5.873  0.1919  0.7113  0.1521
    8CHL1   H1A  563   0.353   6.542   5.876  2.1718 -1.2076  1.3753
    8CHL1   H1B  564   0.179   6.509   5.839 -0.9448 -0.9930  0.9318
    8CHL1    C2  565   0.256   6.407   6.015  0.5116  0.6194  0.1228
    8CHL1   H2A  566   0.222   6.496   6.072  1.6950 -0.0804  2.0021
    8CHL1   H2B  567   0.352   6.392   6.069  0.5894  2.5376  0.5588
    8CHL1   C20  568   0.470   6.562   5.104  0.2887 -0.4209 -0.3785
    8CHL1   H20  569   0.526   6.469   5.079 -1.3942 -1.3248 -0.8817
    8CHL1   C21  570   0.566   6.668   5.163  0.8582  0.4577 -0.4322
    8CHL1  H21A  571   0.629   6.634   5.247 -0.0441  2.8879  1.3629
    8CHL1  H21B  572   0.507   6.755   5.200  1.7083  1.8909 -2.3057
    8CHL1  H21C  573   0.639   6.703   5.087 -0.8453  2.6530 -1.2035
    8CHL1   C22  574   0.403   6.621   4.970 -0.2255  0.1178 -0.6851
    8CHL1  H22A  575   0.309   6.573   4.938 -1.8789  2.2469  0.7367
    8CHL1  H22B  576   0.394   6.731   4.982 -1.3065 -0.0386  0.0542
    8CHL1   C23  577   0.503   6.598   4.853 -0.7754 -0.2458  0.5124
    8CHL1  H23A  578   0.589   6.667   4.867  1.4319 -2.5103 -1.0444
    8CHL1  H23B  579   0.552   6.498   4.856 -0.4574 -0.1525 -0.9788
    8CHL1   C24  580   0.438   6.629   4.717  0.4853  0.3093 -0.2467
    8CHL1  H24A  581   0.376   6.539   4.695  0.8685 -0.0659  0.1698
    8CHL1  H24B  582   0.356   6.702   4.729  0.4797  0.1454  0.8863
    8CHL1   C25  583   0.534   6.656   4.602 -0.4639  0.1348 -0.1445
    8CHL1   H25  584   0.595   6.744   4.629 -0.4572 -0.5577  2.2896
    8CHL1   C26  585   0.622   6.538   4.568 -0.7204  1.0519 -0.3046
    8CHL1  H26A  586   0.560   6.452   4.534  0.7287  0.2852 -1.1315
    8CHL1  H26B  587   0.690   6.559   4.483  1.1604  3.5207  1.6659
    8CHL1  H26C  588   0.684   6.506   4.655 -3.1375 -0.3291  1.0065
    8CHL1   C27  589   0.456   6.699   4.474  0.0866 -0.1276 -0.1473
    8CHL1  H27A  590   0.393   6.789   4.489 -3.1297 -2.1037 -0.7721
    8CHL1  H27B  591   0.528   6.691   4.390  2.9759 -0.1623  2.1760
    8CHL1  H27C  592   0.377   6.622   4.457 -1.3512  1.2122  0.2932
    9CHL1    C3  593   2.484   1.434   5.885  0.7606  1.2671 -0.2615
    9CHL1    H3  594   2.575   1.488   5.918  1.2331  0.2164  0.2069
    9CHL1    O3  595   2.437   1.383   6.005 -0.1159  0.3370  0.0905
    9CHL1   H3'  596   2.452   1.289   5.997 -0.3075  0.3817 -0.8697
    9CHL1    C4  597   2.371   1.515   5.811 -0.2684 -0.0671 -0.5448
    9CHL1   H4A  598   2.274   1.461   5.819  1.0882 -2.4376  1.3355
    9CHL1   H4B  599   2.363   1.602   5.880  0.5110  0.1987 -0.7713
    9CHL1    C5  600   2.395   1.554   5.663 -0.6430  0.7078 -0.0984
    9CHL1    C6  601   2.375   1.675   5.618  0.1938 -0.0727  0.9195
    9CHL1    H6  602   2.334   1.754   5.682  0.6691 -0.0378  1.1861
    9CHL1    C7  603   2.391   1.717   5.477 -0.0223 -0.3222 -0.1775
    9CHL1   H7A  604   2.305   1.784   5.457 -0.1051  0.9233  3.6181
    9CHL1   H7B  605   2.492   1.764   5.471 -0.4886  0.5092 -2.8871
    9CHL1    C8  606   2.405   1.599   5.377  0.3741 -0.2462 -0.3831
    9CHL1    H8  607   2.303   1.555   5.376  0.1706  0.2049 -1.9364
    9CHL1   C14  608   2.447   1.633   5.232 -0.0499 -0.6057  0.2572
    9CHL1   H14  609   2.547   1.678   5.251 -0.3883 -0.2047  1.0875
    9CHL1   C15  610   2.368   1.744   5.153 -0.3007 -0.5190  0.2855
    9CHL1  H15A  611   2.258   1.734   5.169 -0.1677 -0.5602  1.2463
    9CHL1  H15B  612   2.405   1.839   5.197 -0.0723 -0.3541 -0.2560
    9CHL1   C16  613   2.403   1.723   5.000 -0.4123 -0.1420  0.0702
    9CHL1  H16A  614   2.309   1.708   4.943 -0.9515 -0.2466  0.9634
    9CHL1  H16B  615   2.456   1.817   4.974 -0.1763  0.2339  1.7902
    9CHL1   C17  616   2.495   1.595   5.000 -0.8965 -0.3997 -0.3258
    9CHL1   H17  617   2.600   1.631   5.005 -0.4604 -1.1395 -2.8100
    9CHL1   C13  618   2.471   1.521   5.134  0.0149 -0.5529  0.2053
    9CHL1   C18  619   2.341   1.440   5.115 -0.6215 -0.1449  0.6217
    9CHL1  H18A  620   2.359   1.359   5.040  1.3174 -0.0974  0.9813
    9CHL1  H18B  621   2.313   1.391   5.211  0.1713  0.1843  1.0372
    9CHL1  H18C  622   2.256   1.505   5.086 -2.2486 -1.4540  2.1969
    9CHL1   C12  623   2.581   1.424   5.198 -0.6659  0.4538  0.5429
    9CHL1  H12A  624   2.595   1.331   5.139  1.7032  1.0010  0.1508
    9CHL1  H12B  625   2.670   1.491   5.199  0.7607 -1.2280 -2.0142
    9CHL1   C11  626   2.537   1.379   5.341  0.9610  0.1226 -0.3616
    9CHL1  H11A  627   2.449   1.311   5.333  1.5521 -0.4615 -2.4934
    9CHL1  H11B  628   2.621   1.324   5.387  0.2410 -0.2913  0.4983
    9CHL1    C9  629   2.497   1.488   5.441 -0.2461  0.4935  0.2077
    9CHL1    H9  630   2.591   1.544   5.461  0.8866 -1.4467  0.5496
    9CHL1   C10  631   2.452   1.443   5.581  0.3355 -0.2244 -0.0226
    9CHL1   C19  632   2.334   1.337   5.552  0.5506 -0.0140 -0.1763
    9CHL1  H19A  633   2.366   1.241   5.507 -2.5070  0.0621 -2.8697
    9CHL1  H19B  634   2.270   1.310   5.639  1.2503  1.1530  0.7353
    9CHL1  H19C  635   2.265   1.377   5.475 -0.9986 -0.2800  1.0119
    9CHL1    C1  636   2.572   1.380   5.655 -0.3494 -0.5366  0.9103
    9CHL1   H1A  637   2.613   1.294   5.598 -0.4285 -1.8841  2.7803
    9CHL1   H1B  638   2.654   1.454   5.665  0.7607 -1.3210 -1.6185
    9CHL1    C2  639   2.534   1.320   5.792  0.6381 -0.1693 -0.2161
    9CHL1   H2A  640   2.626   1.278   5.838  0.4228  0.8613  1.2429
    9CHL1   H2B  641   2.465   1.233   5.784  1.8849 -1.1349 -0.7702
    9CHL1   C20  642   2.489   1.519   4.871  1.3116 -0.0418 -0.2733
    9CHL1   H20  643   2.389   1.471   4.857  2.1362 -2.4522  1.4156
    9CHL1   C21  644   2.583   1.396   4.872 -0.0826 -0.3651  0.2013
    9CHL1  H21A  645   2.597   1.349   4.772 -0.5448 -1.5956  0.7001
    9CHL1  H21B  646   2.548   1.314   4.938  0.6176 -0.7023  0.1560
    9CHL1  H21C  647   2.678   1.433   4.915  0.2779  0.2206 -1.0454
    9CHL1   C22  648   2.515   1.615   4.745 -0.4442 -0.2368 -0.1216
    9CHL1  H22A  649   2.459   1.709   4.768  0.6424  0.3665  0.1288
    9CHL1  H22B  650   2.625   1.628   4.752 -0.1603 -2.6371  0.9200
    9CHL1   C23  651   2.468   1.564   4.607 -0.1038  0.8939  0.3406
    9CHL1  H23A  652   2.527   1.473   4.586  0.2821  0.9334  1.1952
    9CHL1  H23B  653   2.365   1.525   4.619  0.7965 -1.2194  1.6548
    9CHL1   C24  654   2.495   1.658   4.485 -0.2927  0.3403  0.3711
    9CHL1  H24A  655   2.584   1.717   4.516  0.2747  0.7529 -1.8670
    9CHL1  H24B  656   2.526   1.610   4.389  0.2503 -1.2221  1.2865
    9CHL1   C25  657   2.381   1.749   4.451 -0.2193 -0.3957 -0.7881
    9CHL1   H25  658   2.339   1.792   4.544 -0.5867  1.4227 -1.7408
    9CHL1   C26  659   2.416   1.869   4.362  0.2517  0.0371 -0.0905
    9CHL1  H26A  660   2.501   1.920   4.413 -1.4350  2.3470  0.5919
    9CHL1  H26B  661   2.450   1.836   4.262  2.2105 -1.2797  0.9340
    9CHL1  H26C  662   2.331   1.941   4.367 -0.7163 -1.1165  0.6839
    9CHL1   C27  663   2.269   1.667   4.392 -0.1521  0.3192  0.3446
    9CHL1  H27A  664   2.181   1.728   4.361 -1.0345 -1.1903 -0.2024
    9CHL1  H27B  665   2.306   1.606   4.306 -1.3681 -1.0726  0.7775
    9CHL1  H27C  666   2.228   1.597   4.467 -0.5377  0.1147 -0.0542
   10CHL1    C3  667   2.938   1.689   5.787 -0.1410  0.8771 -0.5511
   10CHL1    H3  668   2.871   1.601   5.778 -1.4972  1.5307  2.1487
   10CHL1    O3  669   2.978   1.694   5.922 -0.2045 -0.0830 -0.0539
   10CHL1   H3'  670   3.043   1.765   5.927  0.1211 -0.4679  2.2740
   10CHL1    C4  671   3.063   1.674   5.704 -0.1218 -0.2619  0.2557
   10CHL1   H4A  672   3.145   1.745   5.722  1.7986 -2.0426 -0.9484
   10CHL1   H4B  673   3.115   1.576   5.713 -1.9811 -1.2656  0.7735
   10CHL1    C5  674   3.030   1.698   5.559  0.3689  0.0711  0.0570
   10CHL1    C6  675   3.072   1.604   5.472  0.3524  0.4479 -0.3981
   10CHL1    H6  676   3.127   1.516   5.511  1.1815  1.3146  0.4424
   10CHL1    C7  677   3.054   1.605   5.318  0.1193 -0.0524 -0.0683
   10CHL1   H7A  678   3.149   1.591   5.263  0.0435  0.2389 -0.2724
   10CHL1   H7B  679   2.979   1.531   5.283 -1.6431  0.8521  1.6054
   10CHL1    C8  680   3.003   1.743   5.274 -0.1536  0.8576 -0.1211
   10CHL1    H8  681   3.100   1.797   5.272  0.9977 -1.0156  1.2575
   10CHL1   C14  682   2.942   1.739   5.137 -0.0736  0.8392 -0.7365
   10CHL1   H14  683   2.856   1.670   5.153 -0.5414  0.8167 -3.0085
   10CHL1   C15  684   3.025   1.673   5.021  0.7928 -0.0419 -0.0233
   10CHL1  H15A  685   3.127   1.717   5.025  0.5931  0.4151  0.0718
   10CHL1  H15B  686   3.056   1.567   5.027  3.1186  0.3801 -2.5031
   10CHL1   C16  687   2.954   1.729   4.899 -0.1654 -0.0165  0.0332
   10CHL1  H16A  688   3.030   1.755   4.821 -1.6925  0.9843 -1.1744
   10CHL1  H16B  689   2.911   1.644   4.842  3.1471 -1.3028 -0.8222
   10CHL1   C17  690   2.843   1.837   4.937 -1.0474 -0.2221 -0.5221
   10CHL1   H17  691   2.746   1.786   4.958 -1.0216 -0.3340 -0.6776
   10CHL1   C13  692   2.892   1.875   5.084 -0.4615 -0.5410  0.0340
   10CHL1   C18  693   3.008   1.980   5.067 -0.2335  0.6756 -0.0944
   10CHL1  H18A  694   3.062   2.002   5.161  0.2868  2.2882 -0.7416
   10CHL1  H18B  695   3.086   1.945   4.996 -2.6103 -1.6054 -1.8311
   10CHL1  H18C  696   2.966   2.074   5.026  0.0385  0.7190 -0.2722
   10CHL1   C12  697   2.786   1.930   5.176  0.2708  0.0359  0.4776
   10CHL1  H12A  698   2.751   2.028   5.136  0.2347 -0.6998 -1.4166
   10CHL1  H12B  699   2.700   1.860   5.177  0.6028 -0.5746 -2.7031
   10CHL1   C11  700   2.837   1.942   5.320 -0.4772 -0.4365  0.2718
   10CHL1  H11A  701   2.911   2.024   5.327 -0.4202 -0.5375  0.8903
   10CHL1  H11B  702   2.753   1.968   5.387  0.7150 -0.3349  1.7833
   10CHL1    C9  703   2.901   1.804   5.365 -0.5900 -0.6685 -0.1850
   10CHL1    H9  704   2.819   1.729   5.364  0.3482 -1.7121 -0.2270
   10CHL1   C10  705   2.949   1.814   5.515  0.1810  0.4796 -0.0518
   10CHL1   C19  706   3.042   1.940   5.533  0.5289  0.1873 -0.2112
   10CHL1  H19A  707   3.143   1.946   5.487  1.6420  0.4099  2.1153
   10CHL1  H19B  708   2.980   2.029   5.508 -0.2873 -1.0620 -2.9411
   10CHL1  H19C  709   3.059   1.960   5.641  1.3097 -2.0397  0.1226
   10CHL1    C1  710   2.830   1.809   5.623  0.5451 -0.3086  0.2895
   10CHL1   H1A  711   2.777   1.905   5.606  0.9789 -0.0438  0.4135
   10CHL1   H1B  712   2.755   1.728   5.606 -1.4032  1.4910 -0.1456
   10CHL1    C2  713   2.859   1.815   5.766 -0.2834  0.4839  0.2876
   10CHL1   H2A  714   2.768   1.816   5.829  0.0082 -1.4665  0.7812
   10CHL1   H2B  715   2.921   1.903   5.795 -0.0271  0.2774  0.3783
   10CHL1   C20  716   2.822   1.932   4.822 -0.0232 -0.7246  1.0613
   10CHL1   H20  717   2.894   2.016   4.816 -0.8399 -0.0148  0.8378
   10CHL1   C21  718   2.688   2.013   4.840 -0.2659 -0.5452 -0.6295
   10CHL1  H21A  719   2.672   2.095   4.767  1.0417 -0.6156 -1.0154
   10CHL1  H21B  720   2.699   2.062   4.939  1.0171  0.5205 -1.2604
   10CHL1  H21C  721   2.598   1.950   4.851  1.0708 -2.3922  0.2524
   10CHL1   C22  722   2.808   1.873   4.675 -0.6949 -0.2093  0.1644
   10CHL1  H22A  723   2.895   1.816   4.637 -1.1267 -0.3595 -0.6265
   10CHL1  H22B  724   2.722   1.803   4.681 -0.2030 -0.7494  1.1111
   10CHL1   C23  725   2.790   1.980   4.550  0.9049  0.4859 -0.1084
   10CHL1  H23A  726   2.686   2.019   4.552 -0.7233 -3.3878  0.9293
   10CHL1  H23B  727   2.867   2.052   4.584  1.2030 -0.5721  1.6064
   10CHL1   C24  728   2.824   1.930   4.411  0.0471 -0.4557  0.4899
   10CHL1  H24A  729   2.934   1.914   4.410  0.0191 -0.8201 -1.4456
   10CHL1  H24B  730   2.765   1.839   4.386 -1.3832  0.5414  0.0792
   10CHL1   C25  731   2.779   2.030   4.296 -0.3041 -0.2697 -0.0847
   10CHL1   H25  732   2.671   2.056   4.311  0.1258  1.8821 -0.4245
   10CHL1   C26  733   2.862   2.163   4.302 -0.5127 -0.0380 -0.5547
   10CHL1  H26A  734   2.851   2.212   4.401  0.2291  1.1903 -1.0610
   10CHL1  H26B  735   2.970   2.141   4.288 -0.1021 -0.8656  2.9356
   10CHL1  H26C  736   2.829   2.227   4.217  0.4138  0.8584 -0.2528
   10CHL1   C27  737   2.802   1.974   4.151  0.2839  0.5679  0.7799
   10CHL1  H27A  738   2.773   2.049   4.074  1.7933 -1.0444 -1.5218
   10CHL1  H27B  739   2.912   1.960   4.154  0.0414 -2.6554 -0.5337
   10CHL1  H27C  740   2.745   1.879   4.135  0.4289  0.5939  0.0407
   11CHL1    C3  741   0.690   5.373   5.733 -0.0663  0.0398 -0.5218
   11CHL1    H3  742   0.588   5.333   5.717  0.3604 -1.6720  0.7385
   11CHL1    O3  743   0.721   5.357   5.872  0.7323  0.1532  0.4937
   11CHL1   H3'  744   0.810   5.390   5.888  0.5655  0.6777  0.3428
   11CHL1    C4  745   0.794   5.288   5.659 -0.6221 -0.2708  0.3021
   11CHL1   H4A  746   0.893   5.318   5.698 -0.4465 -0.5415  0.0642
   11CHL1   H4B  747   0.772   5.184   5.691  4.0013 -1.1298  1.4071
   11CHL1    C5  748   0.803   5.306   5.509 -0.3068 -0.6142  0.5748
   11CHL1    C6  749   0.804   5.200   5.423 -0.1761 -0.6541 -0.4140
   11CHL1    H6  750   0.790   5.096   5.457 -1.6487 -1.0926 -2.1697
   11CHL1    C7  751   0.802   5.207   5.272  0.8341 -0.1770  0.1715
   11CHL1   H7A  752   0.886   5.150   5.225  1.1117 -0.3633  0.8811
   11CHL1   H7B  753   0.699   5.173   5.252  1.0231 -0.9657  0.5059
   11CHL1    C8  754   0.811   5.350   5.221  0.5301  0.1345 -0.2195
   11CHL1    H8  755   0.920   5.371   5.228  0.4585  0.4825 -0.1380
   11CHL1   C14  756   0.760   5.375   5.081 -0.1850  0.2276  0.8151
   11CHL1   H14  757   0.650   5.363   5.085 -0.5973  3.3037  0.3684
   11CHL1   C15  758   0.817   5.280   4.970 -0.5475  0.7391  0.6437
   11CHL1  H15A  759   0.928   5.281   4.979 -0.6097  2.3910  1.6661
   11CHL1  H15B  760   0.784   5.174   4.982 -1.7129  0.9965 -0.2176
   11CHL1   C16  761   0.764   5.338   4.846 -0.4891  0.1628  0.0100
   11CHL1  H16A  762   0.853   5.351   4.780  0.8658  1.5963  2.0129
   11CHL1  H16B  763   0.694   5.271   4.791 -0.5766 -0.0065  0.3271
   11CHL1   C17  764   0.712   5.482   4.883 -0.1362  0.1498 -0.2064
   11CHL1   H17  765   0.603   5.467   4.901 -0.5637  1.7208 -1.2930
   11CHL1   C13  766   0.772   5.513   5.017 -0.2873  0.3228  0.0974
   11CHL1   C18  767   0.919   5.561   4.991 -1.4292  0.0085  0.0075
   11CHL1  H18A  768   0.923   5.664   4.950 -0.0389 -0.0711 -0.0901
   11CHL1  H18B  769   0.982   5.565   5.083  0.1557 -2.1799 -0.8995
   11CHL1  H18C  770   0.976   5.494   4.923  0.9100  0.9784  0.9020
   11CHL1   C12  771   0.696   5.616   5.104  0.7541  0.3984 -0.3903
   11CHL1  H12A  772   0.704   5.720   5.067 -2.6309  1.0767  0.4261
   11CHL1  H12B  773   0.586   5.597   5.106  0.7487  0.4468 -0.2191
   11CHL1   C11  774   0.755   5.603   5.243 -0.5087  0.2237  0.1837
   11CHL1  H11A  775   0.862   5.632   5.252 -0.9623  1.4120  2.1768
   11CHL1  H11B  776   0.703   5.677   5.307  0.1067  0.9206 -0.1163
   11CHL1    C9  777   0.750   5.457   5.305 -0.0692  0.3556 -0.1939
   11CHL1    H9  778   0.640   5.440   5.299 -0.1136  0.6890 -0.3638
   11CHL1   C10  779   0.792   5.453   5.457  0.1744  0.5126  0.5922
   11CHL1   C19  780   0.929   5.508   5.475 -0.1346 -0.1970 -0.5652
   11CHL1  H19A  781   0.992   5.463   5.396 -1.5627 -0.3888 -1.6225
   11CHL1  H19B  782   0.940   5.613   5.440  0.9761 -0.9571 -2.6691
   11CHL1  H19C  783   0.968   5.493   5.578  1.6799 -2.6472 -1.5152
   11CHL1    C1  784   0.683   5.532   5.535  0.1270  0.4866 -0.1131
   11CHL1   H1A  785   0.680   5.642   5.527  0.7091  0.5200  0.0930
   11CHL1   H1B  786   0.583   5.494   5.505  1.6460 -2.2527 -2.1627
   11CHL1    C2  787   0.697   5.516   5.689  0.2372 -0.3080 -0.0966
   11CHL1   H2A  788   0.633   5.587   5.746  1.4156 -0.2871  1.2679
   11CHL1   H2B  789   0.798   5.558   5.710  0.5488  0.3417 -2.6085
   11CHL1   C20  790   0.717   5.585   4.773  0.0220  0.0494  0.1021
   11CHL1   H20  791   0.816   5.635   4.779  0.3919 -0.3396 -2.1372
   11CHL1   C21  792   0.617   5.704   4.792  0.6751  0.1039  0.4180
   11CHL1  H21A  793   0.609   5.760   4.696  0.2065 -2.2055 -0.9662
   11CHL1  H21B  794   0.636   5.771   4.879  0.3780 -0.0311  0.5874
   11CHL1  H21C  795   0.519   5.658   4.818 -0.0672  1.7884  0.7734
   11CHL1   C22  796   0.713   5.535   4.627  0.8728 -0.5578  0.1004
   11CHL1  H22A  797   0.712   5.627   4.564 -0.3620 -0.2511  0.5592
   11CHL1  H22B  798   0.803   5.478   4.595 -0.2138 -2.1055 -0.3280
   11CHL1   C23  799   0.579   5.461   4.598  0.0331 -0.5308 -0.4331
   11CHL1  H23A  800   0.567   5.367   4.655  1.0032  0.2312  1.1325
   11CHL1  H23B  801   0.493   5.530   4.615 -0.7294 -1.7119  0.6778
   11CHL1   C24  802   0.579   5.430   4.447 -0.0230  0.1567  0.2240
   11CHL1  H24A  803   0.592   5.527   4.393  3.3978 -0.4081 -0.1354
   11CHL1  H24B  804   0.663   5.365   4.418 -1.1701 -1.3064  0.0630
   11CHL1   C25  805   0.456   5.365   4.373 -0.1077 -0.4874  0.4497
   11CHL1   H25  806   0.450   5.264   4.419 -1.1417 -1.2278 -1.2189
   11CHL1   C26  807   0.324   5.449   4.386  0.2694 -0.8643  0.0127
   11CHL1  H26A  808   0.301   5.465   4.493 -0.9792  2.8188 -0.6577
   11CHL1  H26B  809   0.327   5.542   4.325  0.8730 -0.9047 -0.0253
   11CHL1  H26C  810   0.235   5.386   4.365 -2.9146  2.2351  3.0088
   11CHL1   C27  811   0.492   5.337   4.219  0.2027 -0.2508  0.8212
   11CHL1  H27A  812   0.501   5.427   4.154 -1.4834 -1.7687 -1.6989
   11CHL1  H27B  813   0.590   5.286   4.219  1.4487  1.9819 -0.5119
   11CHL1  H27C  814   0.412   5.276   4.171 -0.7085  0.5097  1.3218
   12CHL1    C3  815   3.198   6.609   5.652 -0.1481  0.3157 -0.1684
   12CHL1    H3  816   3.155   6.520   5.601 -0.7809  1.0226 -0.8933
   12CHL1    O3  817   3.153   6.602   5.789 -0.1463 -0.7843 -0.4009
   12CHL1   H3'  818   3.188   6.682   5.830 -1.0713 -1.4868  1.9449
   12CHL1    C4  819   3.352   6.612   5.630  0.4215  0.3404  0.4943
   12CHL1   H4A  820   3.400   6.693   5.689 -2.6019  1.0575  2.1577
   12CHL1   H4B  821   3.387   6.516   5.675 -0.1925  0.6155  1.5793
   12CHL1    C5  822   3.402   6.608   5.487 -0.0839 -0.6727  0.2689
   12CHL1    C6  823   3.488   6.521   5.430  0.7718 -0.1211  0.0175
   12CHL1    H6  824   3.536   6.448   5.497  2.1735  0.8790  0.1472
   12CHL1    C7  825   3.545   6.535   5.293 -0.1570 -0.1336  0.7087
   12CHL1   H7A  826   3.656   6.542   5.298 -0.0699 -1.3071  0.6804
   12CHL1   H7B  827   3.521   6.457   5.218 -0.3400  1.5370 -1.0587
   12CHL1    C8  828   3.497   6.666   5.219  0.1643  0.2400  0.2156
   12CHL1    H8  829   3.564   6.747   5.255 -0.0415  0.0208  1.1294
   12CHL1   C14  830   3.516   6.638   5.075  0.3665 -0.0175  0.1320
   12CHL1   H14  831   3.448   6.555   5.048 -0.2576  0.1659  1.1087
   12CHL1   C15  832   3.654   6.583   5.039 -0.2496 -0.5642  0.2682
   12CHL1  H15A  833   3.735   6.643   5.086  0.1800  0.1383 -1.2913
   12CHL1  H15B  834   3.668   6.473   5.050  1.6266 -0.5887 -1.5689
   12CHL1   C16  835   3.659   6.610   4.890 -0.1404 -0.1716  0.5127
   12CHL1  H16A  836   3.752   6.659   4.856  0.9102 -0.5265  2.6920
   12CHL1  H16B  837   3.658   6.510   4.841  1.6373  0.5135 -1.0368
   12CHL1   C17  838   3.532   6.687   4.841  0.4684  0.0987 -0.0985
   12CHL1   H17  839   3.462   6.605   4.811  1.9711 -1.5594  0.7200
   12CHL1   C13  840   3.478   6.748   4.970  1.0788 -0.6863  0.4142
   12CHL1   C18  841   3.554   6.886   5.000  0.5905  0.5662 -0.2364
   12CHL1  H18A  842   3.661   6.881   4.970  0.6082  0.6575 -0.1880
   12CHL1  H18B  843   3.511   6.966   4.936  0.9825 -1.3467 -3.1271
   12CHL1  H18C  844   3.542   6.917   5.106 -1.0746  1.2928 -0.6106
   12CHL1   C12  845   3.322   6.771   5.001 -0.9570  0.6597  0.5442
   12CHL1  H12A  846   3.270   6.851   4.944  0.8695  2.1546  0.8695
   12CHL1  H12B  847   3.270   6.674   4.990 -0.2224  0.1898  1.0906
   12CHL1   C11  848   3.290   6.800   5.151 -0.0223  0.0432 -0.4350
   12CHL1  H11A  849   3.316   6.903   5.183  1.5775 -0.3080 -0.4916
   12CHL1  H11B  850   3.180   6.799   5.162  0.0293 -2.7242  0.7924
   12CHL1    C9  851   3.348   6.690   5.248 -0.0500  0.4473  0.0934
   12CHL1    H9  852   3.283   6.601   5.236  1.0581 -0.3935  0.1295
   12CHL1   C10  853   3.327   6.713   5.401  0.2658 -0.2213  0.5139
   12CHL1   C19  854   3.390   6.853   5.434  0.2866 -0.1677 -0.5940
   12CHL1  H19A  855   3.498   6.862   5.410 -0.4433  0.5866 -4.1751
   12CHL1  H19B  856   3.347   6.945   5.388  1.7827  0.6186 -0.4878
   12CHL1  H19C  857   3.378   6.883   5.540  1.7455  1.0416 -0.7388
   12CHL1    C1  858   3.175   6.724   5.431  0.4827 -0.1932  0.2794
   12CHL1   H1A  859   3.125   6.802   5.370 -3.0320 -1.6883  0.9788
   12CHL1   H1B  860   3.129   6.631   5.391 -0.6092  0.4016  0.1103
   12CHL1    C2  861   3.128   6.726   5.583 -0.2751 -0.3908  0.0602
   12CHL1   H2A  862   3.018   6.731   5.591 -0.3059  1.0900 -0.9435
   12CHL1   H2B  863   3.156   6.826   5.622 -0.2194  0.1980 -1.4341
   12CHL1   C20  864   3.557   6.775   4.722 -0.5517  0.3902 -0.2237
   12CHL1   H20  865   3.627   6.853   4.760 -0.6050  0.2487  0.1749
   12CHL1   C21  866   3.425   6.834   4.678  0.5351 -0.0595  0.3252
   12CHL1  H21A  867   3.383   6.901   4.756 -3.2617  0.8422 -2.2134
   12CHL1  H21B  868   3.362   6.744   4.658 -2.2234  1.7035  0.5576
   12CHL1  H21C  869   3.444   6.891   4.585 -0.4329  0.3091  0.3416
   12CHL1   C22  870   3.615   6.683   4.617 -1.2285 -0.5924  0.7718
   12CHL1  H22A  871   3.712   6.639   4.647 -1.0995  0.3442  1.8122
   12CHL1  H22B  872   3.549   6.595   4.604 -0.6087 -1.0773  0.8746
   12CHL1   C23  873   3.633   6.742   4.479 -0.1234 -0.4374  0.8311
   12CHL1  H23A  874   3.537   6.763   4.425  0.8065  1.9434 -0.0642
   12CHL1  H23B  875   3.666   6.845   4.504 -0.4165  0.4103 -1.8991
   12CHL1   C24  876   3.734   6.678   4.381 -0.6490  0.2153 -0.0413
   12CHL1  H24A  877   3.827   6.677   4.442 -0.8301 -1.1023  0.2418
   12CHL1  H24B  878   3.709   6.572   4.356 -0.4583 -0.3816  2.0702
   12CHL1   C25  879   3.767   6.760   4.259 -0.2121 -0.7374  0.6365
   12CHL1   H25  880   3.680   6.821   4.230 -2.1248 -3.7381 -0.4363
   12CHL1   C26  881   3.887   6.854   4.276 -0.0440  0.1331 -0.4324
   12CHL1  H26A  882   3.915   6.907   4.183  0.2486  0.9742  0.1221
   12CHL1  H26B  883   3.883   6.922   4.364 -1.1666 -0.7837  0.2540
   12CHL1  H26C  884   3.974   6.787   4.296  0.7245  0.8181 -1.3744
   12CHL1   C27  885   3.800   6.667   4.141 -0.3526 -0.1275  0.5044
   12CHL1  H27A  886   3.812   6.722   4.046  0.7822 -0.1132  0.6497
   12CHL1  H27B  887   3.896   6.611   4.148 -0.4376 -0.3069  0.2508
   12CHL1  H27C  888   3.723   6.590   4.118  0.4418 -0.7729 -0.0399
   13CHL1    C3  889   3.265   5.976   5.679 -0.2473  0.6060  0.1354
   13CHL1    H3  890   3.312   5.882   5.643 -1.5321  0.0672 -0.1925
   13CHL1    O3  891   3.254   5.963   5.819  1.9565  0.2603 -0.3204
   13CHL1   H3'  892   3.217   6.048   5.845 -2.4263 -1.1202 -1.1506
   13CHL1    C4  893   3.360   6.092   5.645 -0.4001  0.8505 -0.0251
   13CHL1   H4A  894   3.318   6.177   5.703 -3.1020 -0.6673  0.4648
   13CHL1   H4B  895   3.460   6.065   5.684 -0.4182  1.4656  0.4576
   13CHL1    C5  896   3.366   6.115   5.497 -0.3484  0.5700 -0.3518
   13CHL1    C6  897   3.484   6.111   5.431  0.3819 -0.3779 -0.0486
   13CHL1    H6  898   3.571   6.105   5.497  0.7152  0.1843 -0.4337
   13CHL1    C7  899   3.505   6.134   5.286  0.1004 -0.4906 -0.4162
   13CHL1   H7A  900   3.593   6.200   5.270 -0.3314 -0.0067 -0.8164
   13CHL1   H7B  901   3.530   6.038   5.235  3.4592 -1.4595  2.6378
   13CHL1    C8  902   3.373   6.197   5.223  0.5435  0.4039  0.2695
   13CHL1    H8  903   3.366   6.305   5.246  1.1579  0.4775  0.1427
   13CHL1   C14  904   3.378   6.173   5.071  0.3753  0.5522  0.5159
   13CHL1   H14  905   3.382   6.063   5.056 -4.1104  0.4105 -1.0413
   13CHL1   C15  906   3.498   6.225   4.990 -0.1376  0.0776  0.1065
   13CHL1  H15A  907   3.527   6.329   5.019 -0.6088  0.2231  0.0611
   13CHL1  H15B  908   3.583   6.154   4.994 -0.5075 -0.5796 -2.4293
   13CHL1   C16  909   3.451   6.222   4.845  0.4672 -0.0520 -0.3432
   13CHL1  H16A  910   3.475   6.322   4.806  0.1418  0.5675  0.9725
   13CHL1  H16B  911   3.499   6.143   4.783 -0.7997 -1.8182  0.8052
   13CHL1   C17  912   3.296   6.195   4.846  0.8078 -0.4978 -0.4550
   13CHL1   H17  913   3.279   6.088   4.824 -0.4520 -0.2556 -0.7415
   13CHL1   C13  914   3.250   6.218   4.992  0.9926  0.0495  0.2814
   13CHL1   C18  915   3.237   6.371   4.998  1.1265  0.5378 -0.5847
   13CHL1  H18A  916   3.134   6.401   4.969  0.7275 -0.8738 -0.6994
   13CHL1  H18B  917   3.235   6.401   5.105 -1.1757  1.3877 -0.8198
   13CHL1  H18C  918   3.305   6.447   4.954 -1.0595  2.6412 -0.5344
   13CHL1   C12  919   3.127   6.145   5.050 -0.2499  0.3926 -0.3246
   13CHL1  H12A  920   3.033   6.180   5.003 -0.3001  0.3169 -0.2812
   13CHL1  H12B  921   3.146   6.036   5.032  0.6529  0.1131  1.9529
   13CHL1   C11  922   3.128   6.165   5.199 -0.5623  0.5430 -0.5434
   13CHL1  H11A  923   3.116   6.272   5.226  0.1476  0.3200  0.7448
   13CHL1  H11B  924   3.043   6.103   5.236  1.9176 -2.7351  0.1995
   13CHL1    C9  925   3.253   6.118   5.279  0.1699  0.1174  0.6774
   13CHL1    H9  926   3.260   6.016   5.236  0.0772  1.0780 -1.7688
   13CHL1   C10  927   3.231   6.128   5.431 -0.2573 -0.2822 -0.5964
   13CHL1   C19  928   3.184   6.266   5.473 -0.0610  0.3558  0.0486
   13CHL1  H19A  929   3.082   6.296   5.439 -0.2819 -1.4414 -1.0342
   13CHL1  H19B  930   3.172   6.283   5.582  0.5928 -0.6504  0.2860
   13CHL1  H19C  931   3.252   6.344   5.434 -1.3868  1.1760 -0.6918
   13CHL1    C1  932   3.132   6.015   5.476  0.2433  0.2675  0.3250
   13CHL1   H1A  933   3.028   6.020   5.438  0.8490  0.1882 -1.4565
   13CHL1   H1B  934   3.169   5.919   5.433 -2.3091  0.1139 -1.8080
   13CHL1    C2  935   3.127   5.987   5.625 -0.0879 -0.6735  0.3491
   13CHL1   H2A  936   3.065   5.902   5.662  1.0235 -0.2793  3.3387
   13CHL1   H2B  937   3.087   6.078   5.673  0.8979 -0.2974  0.4703
   13CHL1   C20  938   3.229   6.261   4.732  0.0551  0.3012  0.5202
   13CHL1   H20  939   3.234   6.372   4.743 -1.7211  0.2528  2.3273
   13CHL1   C21  940   3.077   6.228   4.719  0.6283 -0.0113 -0.7045
   13CHL1  H21A  941   3.022   6.276   4.802 -0.8337 -2.1764 -0.3532
   13CHL1  H21B  942   3.066   6.119   4.730  1.1260 -0.2091 -1.9318
   13CHL1  H21C  943   3.034   6.264   4.623  0.3848  0.7108 -0.3351
   13CHL1   C22  944   3.300   6.214   4.593  0.0020 -0.2562  0.1839
   13CHL1  H22A  945   3.411   6.209   4.595  0.0671  0.9015 -0.1960
   13CHL1  H22B  946   3.260   6.111   4.579  2.6541 -1.1913 -1.2527
   13CHL1   C23  947   3.261   6.298   4.467  0.7455 -0.6702 -0.0601
   13CHL1  H23A  948   3.163   6.264   4.426 -0.0994  2.3272 -0.7751
   13CHL1  H23B  949   3.255   6.405   4.495 -2.1965 -1.0800  1.3239
   13CHL1   C24  950   3.352   6.276   4.349 -0.7270  0.0609  0.2387
   13CHL1  H24A  951   3.454   6.289   4.392 -0.7571  2.4034 -0.2800
   13CHL1  H24B  952   3.340   6.169   4.320  1.6265 -0.1240 -0.2925
   13CHL1   C25  953   3.320   6.363   4.231  0.3792  0.2713  0.6933
   13CHL1   H25  954   3.213   6.354   4.203  0.7569  1.2534 -1.2129
   13CHL1   C26  955   3.349   6.515   4.259 -0.0147 -0.3748 -0.0212
   13CHL1  H26A  956   3.454   6.527   4.294  0.2994 -1.6933 -0.4777
   13CHL1  H26B  957   3.334   6.574   4.166 -1.1621 -0.4099  0.1264
   13CHL1  H26C  958   3.282   6.553   4.340 -1.7918 -2.9789 -0.1426
   13CHL1   C27  959   3.401   6.316   4.110  0.2072 -0.1414 -0.3325
   13CHL1  H27A  960   3.507   6.347   4.124  0.2837 -1.2761  2.0152
   13CHL1  H27B  961   3.387   6.206   4.101  1.5563 -0.3160 -0.5524
   13CHL1  H27C  962   3.369   6.355   4.010 -0.3134 -3.2415 -1.4852
   14CHL1    C3  963   6.823   2.541   5.640 -0.3676 -0.1410  0.1387
   14CHL1    H3  964   6.734   2.603   5.615  1.4092  1.3169 -3.2881
   14CHL1    O3  965   6.851   2.532   5.779  0.2285  0.0703 -0.2708
   14CHL1   H3'  966   6.930   2.477   5.777 -0.0657 -0.3761 -2.2975
   14CHL1    C4  967   6.810   2.397   5.577 -0.3598 -0.4812  0.0232
   14CHL1   H4A  968   6.902   2.337   5.595  1.1517  0.4346 -3.7925
   14CHL1   H4B  969   6.732   2.339   5.632  1.3363 -2.6504  0.2906
   14CHL1    C5  970   6.792   2.411   5.427  0.8712  0.2562  0.2262
   14CHL1    C6  971   6.676   2.366   5.371  0.3628 -0.5817 -0.6007
   14CHL1    H6  972   6.595   2.344   5.443  0.9950  1.4739  0.8533
   14CHL1    C7  973   6.648   2.352   5.220 -0.2545  0.7476 -0.3215
   14CHL1   H7A  974   6.610   2.249   5.198  0.3461  0.0286  1.8086
   14CHL1   H7B  975   6.568   2.423   5.193  0.3816  1.1665 -1.1719
   14CHL1    C8  976   6.776   2.376   5.144 -0.6592  0.1595  0.3805
   14CHL1    H8  977   6.842   2.288   5.151  1.8886  2.0579  1.6977
   14CHL1   C14  978   6.735   2.399   5.004  0.3925  1.0133  0.3078
   14CHL1   H14  979   6.667   2.486   5.002 -0.4080  0.3898 -1.7556
   14CHL1   C15  980   6.656   2.283   4.935 -0.0292  0.4873 -0.3875
   14CHL1  H15A  981   6.696   2.182   4.955 -4.5402 -1.3312  0.5154
   14CHL1  H15B  982   6.555   2.267   4.977 -0.1346 -1.2988 -1.2326
   14CHL1   C16  983   6.666   2.326   4.789  0.4536  0.3489  0.5156
   14CHL1  H16A  984   6.664   2.249   4.708 -0.3894  2.5510 -1.7087
   14CHL1  H16B  985   6.583   2.392   4.756  0.4388 -0.7142 -1.8386
   14CHL1   C17  986   6.800   2.418   4.776 -0.3746 -0.6335 -0.1725
   14CHL1   H17  987   6.752   2.518   4.765 -0.4926 -0.5525  0.9339
   14CHL1   C13  988   6.857   2.427   4.912 -0.5004  0.2128  0.1497
   14CHL1   C18  989   6.959   2.309   4.919 -0.1841  0.2672 -0.1983
   14CHL1  H18A  990   6.911   2.217   4.880 -3.2728  1.0423  1.3786
   14CHL1  H18B  991   7.056   2.330   4.870 -0.3139 -1.3376 -1.1925
   14CHL1  H18C  992   6.999   2.292   5.021 -0.3657  0.2617 -0.1274
   14CHL1   C12  993   6.915   2.561   4.956  0.0222 -0.1728  0.0977
   14CHL1  H12A  994   7.004   2.590   4.896  0.4663 -0.3851  0.6411
   14CHL1  H12B  995   6.841   2.642   4.941 -0.4280 -0.4655  0.6710
   14CHL1   C11  996   6.957   2.552   5.101 -0.0974 -0.4323 -0.1868
   14CHL1  H11A  997   7.054   2.498   5.106  0.1441 -0.5886 -3.9684
   14CHL1  H11B  998   6.973   2.655   5.140 -0.6268 -0.5390  0.3271
   14CHL1    C9  999   6.848   2.495   5.200 -0.3834  0.3891  0.7024
   14CHL1    H9 1000   6.772   2.576   5.204  0.9897  1.9703 -2.1235
   14CHL1   C10 1001   6.895   2.470   5.345 -0.2274 -0.7109 -0.8803
   14CHL1   C19 1002   7.015   2.376   5.337 -0.7434  0.7536  0.1863
   14CHL1  H19A 1003   6.984   2.277   5.300  0.3380  0.3893  0.2142
   14CHL1  H19B 1004   7.103   2.424   5.288  0.2395  0.0992  1.2593
   14CHL1  H19C 1005   7.048   2.346   5.439  0.6922 -1.3983 -0.8494
   14CHL1    C1 1006   6.928   2.610   5.413  0.0874 -0.0673  0.2939
   14CHL1   H1A 1007   7.013   2.655   5.357  0.1562  1.6944  1.7096
   14CHL1   H1B 1008   6.844   2.682   5.404 -0.5078 -0.8176 -0.3475
   14CHL1    C2 1009   6.950   2.604   5.565 -0.4844  0.5461  0.1262
   14CHL1   H2A 1010   6.978   2.701   5.612  0.3216 -0.6867  2.3486
   14CHL1   H2B 1011   7.033   2.537   5.599 -1.3568 -0.7131 -0.1680
   14CHL1   C20 1012   6.891   2.398   4.651  0.0366 -0.7171 -0.4693
   14CHL1   H20 1013   6.937   2.297   4.660 -0.8226 -1.0877 -0.1418
   14CHL1   C21 1014   6.996   2.513   4.642 -0.2304  0.7000  0.2098
   14CHL1  H21A 1015   7.072   2.509   4.723 -0.3948 -1.2698  0.3164
   14CHL1  H21B 1016   6.950   2.613   4.630 -1.7086 -0.2385 -2.8066
   14CHL1  H21C 1017   7.051   2.495   4.547  3.1012  0.1259  2.0905
   14CHL1   C22 1018   6.812   2.396   4.516 -0.2750  0.2039 -0.6643
   14CHL1  H22A 1019   6.881   2.424   4.434  0.3440  1.4718  0.2581
   14CHL1  H22B 1020   6.772   2.297   4.486  0.8088 -0.1037 -1.1203
   14CHL1   C23 1021   6.700   2.506   4.506  0.0232 -0.0927  0.8642
   14CHL1  H23A 1022   6.640   2.512   4.599  1.5486  2.1418  1.8034
   14CHL1  H23B 1023   6.746   2.607   4.506 -2.0192  0.8936  1.7421
   14CHL1   C24 1024   6.606   2.483   4.384 -0.0912  0.1610  0.4937
   14CHL1  H24A 1025   6.677   2.460   4.302  0.4851 -0.9795  1.2906
   14CHL1  H24B 1026   6.554   2.387   4.403 -1.2227  0.7587  0.5028
   14CHL1   C25 1027   6.509   2.598   4.346  0.2970  0.1533  0.5653
   14CHL1   H25 1028   6.555   2.698   4.332 -1.4784  1.2638  2.2610
   14CHL1   C26 1029   6.446   2.550   4.205  0.9390 -0.2557  0.2545
   14CHL1  H26A 1030   6.522   2.554   4.124  1.3162  1.4667  0.6429
   14CHL1  H26B 1031   6.407   2.447   4.217 -0.5116  0.3677  1.1037
   14CHL1  H26C 1032   6.358   2.614   4.183  1.6858 -0.3112 -3.8130
   14CHL1   C27 1033   6.400   2.612   4.453 -0.4147  0.2576  0.4575
   14CHL1  H27A 1034   6.444   2.662   4.542 -1.0913  0.6872  0.5540
   14CHL1  H27B 1035   6.326   2.689   4.424 -0.1660  0.6819  0.9382
   14CHL1  H27C 1036   6.343   2.525   4.490 -0.3806  0.0283 -0.0227
   15CHL1    C3 1037   6.547   0.478   5.800 -0.9421 -0.3278  0.2679
   15CHL1    H3 1038   6.654   0.487   5.774 -1.5996  0.0916 -2.7172
   15CHL1    O3 1039   6.520   0.472   5.940  0.4176  0.1893 -0.2342
   15CHL1   H3' 1040   6.507   0.561   5.973  0.0460 -0.3528  1.1940
   15CHL1    C4 1041   6.481   0.614   5.753  0.5845 -0.2838  0.0915
   15CHL1   H4A 1042   6.381   0.616   5.803  0.3302 -1.2360 -0.3542
   15CHL1   H4B 1043   6.532   0.697   5.806 -3.3596  2.0089  0.6686
   15CHL1    C5 1044   6.460   0.634   5.604 -0.1230 -0.2655  0.0831
   15CHL1    C6 1045   6.500   0.746   5.549  0.6468 -0.0834 -0.2936
   15CHL1    H6 1046   6.525   0.818   5.628  0.9788 -2.7889  2.2187
   15CHL1    C7 1047   6.489   0.783   5.405 -0.1058  0.3661  0.2974
   15CHL1   H7A 1048   6.452   0.888   5.401  0.2231  0.4809  0.2060
   15CHL1   H7B 1049   6.597   0.790   5.380 -0.4335  3.1415 -0.6411
   15CHL1    C8 1050   6.416   0.677   5.325 -0.0066  0.2719  0.6445
   15CHL1    H8 1051   6.310   0.695   5.353  0.3134  0.8106  1.5324
   15CHL1   C14 1052   6.438   0.696   5.178  0.4757  0.4128 -0.6427
   15CHL1   H14 1053   6.547   0.678   5.168  0.5715  0.7457 -0.2266
   15CHL1   C15 1054   6.412   0.828   5.109  0.1379  0.0941  0.3165
   15CHL1  H15A 1055   6.325   0.879   5.156  0.4066  0.5532  0.3206
   15CHL1  H15B 1056   6.505   0.888   5.120 -0.3144  1.0180 -0.7108
   15CHL1   C16 1057   6.387   0.791   4.961 -0.5935 -0.3083 -0.5916
   15CHL1  H16A 1058   6.284   0.827   4.943 -0.3161  0.9800  0.2561
   15CHL1  H16B 1059   6.467   0.835   4.897  0.2998  0.2333  0.8327
   15CHL1   C17 1060   6.396   0.636   4.952 -0.5345 -0.1800  0.1669
   15CHL1   H17 1061   6.497   0.602   4.922 -0.0323  1.0708  0.3786
   15CHL1   C13 1062   6.357   0.596   5.095 -0.6010  0.3747 -0.1356
   15CHL1   C18 1063   6.200   0.614   5.110  0.1482 -0.1542  0.5904
   15CHL1  H18A 1064   6.147   0.537   5.049  3.7254 -0.1091 -2.9949
   15CHL1  H18B 1065   6.182   0.600   5.219  1.2835  0.0164  0.8197
   15CHL1  H18C 1066   6.167   0.718   5.089  0.5082  0.1723  1.5522
   15CHL1   C12 1067   6.393   0.458   5.137 -0.8402  0.0719  0.7730
   15CHL1  H12A 1068   6.336   0.385   5.076  2.7558 -1.7547 -0.7223
   15CHL1  H12B 1069   6.499   0.431   5.119 -1.1648 -1.6250  1.1833
   15CHL1   C11 1070   6.366   0.431   5.284  0.5628 -0.1269 -0.3405
   15CHL1  H11A 1071   6.258   0.439   5.309  1.0032 -1.0579  2.2454
   15CHL1  H11B 1072   6.386   0.326   5.315  0.2520  0.7150  3.1924
   15CHL1    C9 1073   6.444   0.529   5.375 -0.9815  0.1187  0.8241
   15CHL1    H9 1074   6.552   0.517   5.354 -1.1090 -0.2485  0.3654
   15CHL1   C10 1075   6.413   0.507   5.524  0.3721  0.0326 -0.3130
   15CHL1   C19 1076   6.263   0.488   5.556 -0.2881 -0.3600 -0.2915
   15CHL1  H19A 1077   6.243   0.504   5.664  1.7150  1.3437 -0.1057
   15CHL1  H19B 1078   6.196   0.549   5.493  0.5210  0.1546 -0.6705
   15CHL1  H19C 1079   6.230   0.384   5.536  1.0648 -1.0214  0.6855
   15CHL1    C1 1080   6.486   0.382   5.576  0.0426  0.5596  0.3387
   15CHL1   H1A 1081   6.453   0.287   5.528  1.2068 -0.7891  2.0534
   15CHL1   H1B 1082   6.593   0.395   5.547 -0.2302  1.5425 -0.2566
   15CHL1    C2 1083   6.475   0.365   5.725 -0.4478  0.3855  0.1307
   15CHL1   H2A 1084   6.510   0.265   5.759 -0.1012  0.9144  1.4116
   15CHL1   H2B 1085   6.368   0.355   5.751 -0.5296  0.4011 -0.2064
   15CHL1   C20 1086   6.315   0.577   4.838  0.1898 -0.9002 -0.4686
   15CHL1   H20 1087   6.211   0.561   4.871 -0.2598  0.8660 -0.9132
   15CHL1   C21 1088   6.362   0.439   4.803 -0.6363  0.2807 -0.7019
   15CHL1  H21A 1089   6.463   0.444   4.759 -0.6080  0.5776 -0.6042
   15CHL1  H21B 1090   6.300   0.387   4.727  1.8084 -0.6570 -2.1655
   15CHL1  H21C 1091   6.369   0.360   4.882  0.3461 -2.3181 -3.2195
   15CHL1   C22 1092   6.315   0.661   4.710  0.0122  0.1733 -0.0310
   15CHL1  H22A 1093   6.257   0.753   4.732 -4.2306 -2.0050 -0.9535
   15CHL1  H22B 1094   6.420   0.691   4.689 -0.3833  1.7542  0.1403
   15CHL1   C23 1095   6.242   0.600   4.593  0.0692 -0.1473  0.4096
   15CHL1  H23A 1096   6.304   0.515   4.560  2.1274  0.3560  2.6931
   15CHL1  H23B 1097   6.137   0.568   4.614  0.4528 -1.3388  0.5441
   15CHL1   C24 1098   6.216   0.706   4.482 -0.4416  1.5525 -0.0861
   15CHL1  H24A 1099   6.148   0.786   4.520  0.8485  3.3562 -1.4097
   15CHL1  H24B 1100   6.309   0.759   4.452 -0.4334  2.2111  1.0678
   15CHL1   C25 1101   6.154   0.646   4.350 -0.0235  0.0628  0.5162
   15CHL1   H25 1102   6.073   0.572   4.368  0.8634 -1.1718 -0.3677
   15CHL1   C26 1103   6.101   0.757   4.252  0.3276 -0.3400 -0.0771
   15CHL1  H26A 1104   6.029   0.815   4.314  2.7747  2.1461  0.6302
   15CHL1  H26B 1105   6.189   0.818   4.222 -1.1875  2.3268  0.5291
   15CHL1  H26C 1106   6.053   0.711   4.162  1.0920  0.5770 -0.9795
   15CHL1   C27 1107   6.259   0.569   4.282  0.1635 -0.6104  0.7457
   15CHL1  H27A 1108   6.312   0.494   4.345  1.7215 -2.7859 -2.8259
   15CHL1  H27B 1109   6.226   0.520   4.187 -1.9848  2.5987 -0.3499
   15CHL1  H27C 1110   6.339   0.641   4.253  0.6541 -1.4516 -0.0384
   16CHL1    C3 1111   5.296   1.401   5.955 -0.5255 -0.2866  0.0325
   16CHL1    H3 1112   5.286   1.291   5.948 -0.2993 -0.3929  1.1528
   16CHL1    O3 1113   5.339   1.431   6.085  0.0262  0.0904 -0.0993
   16CHL1   H3' 1114   5.375   1.520   6.085 -3.5378  1.7252 -1.6289
   16CHL1    C4 1115   5.391   1.460   5.850 -0.1806 -0.4114 -0.1546
   16CHL1   H4A 1116   5.413   1.566   5.875 -1.5909 -0.3252  0.8111
   16CHL1   H4B 1117   5.493   1.417   5.861  0.6316  1.6873  1.1304
   16CHL1    C5 1118   5.339   1.458   5.713 -0.5735 -0.0199 -0.8473
   16CHL1    C6 1119   5.402   1.402   5.608  0.8613  0.5983  0.0225
   16CHL1    H6 1120   5.504   1.365   5.631  0.0543 -0.9587  1.3013
   16CHL1    C7 1121   5.365   1.413   5.463  0.2641 -0.4591  0.2078
   16CHL1   H7A 1122   5.451   1.435   5.395 -0.6684  0.2293 -0.7770
   16CHL1   H7B 1123   5.319   1.316   5.434 -0.9524  0.5261 -1.3465
   16CHL1    C8 1124   5.248   1.509   5.439 -0.3223  0.1624 -0.0254
   16CHL1    H8 1125   5.289   1.612   5.446  1.8870 -0.3040 -3.3877
   16CHL1   C14 1126   5.177   1.476   5.307 -0.1512  0.7519 -0.3369
   16CHL1   H14 1127   5.134   1.375   5.325  0.1640  0.4359 -1.2818
   16CHL1   C15 1128   5.260   1.451   5.176  0.3070 -0.4140  0.3401
   16CHL1  H15A 1129   5.340   1.527   5.180  0.6288 -0.7497  0.3729
   16CHL1  H15B 1130   5.304   1.349   5.177 -0.1732 -0.6298  2.2121
   16CHL1   C16 1131   5.153   1.473   5.063 -0.0198  0.5389  0.0200
   16CHL1  H16A 1132   5.182   1.561   5.001 -1.2866  0.7514 -0.3133
   16CHL1  H16B 1133   5.156   1.382   5.001 -0.7752  1.0579 -0.8016
   16CHL1   C17 1134   5.013   1.510   5.139 -0.3825 -0.2168 -0.3659
   16CHL1   H17 1135   4.977   1.407   5.162 -0.5848 -0.1870 -0.5411
   16CHL1   C13 1136   5.058   1.565   5.274  0.5879 -0.1181  0.1785
   16CHL1   C18 1137   5.103   1.709   5.259  0.2070  0.3159 -0.3051
   16CHL1  H18A 1138   5.125   1.754   5.359 -0.5201 -1.1492  0.5421
   16CHL1  H18B 1139   5.198   1.718   5.201 -1.2371  1.2144 -2.6463
   16CHL1  H18C 1140   5.026   1.766   5.203 -1.1429 -3.1857 -2.2936
   16CHL1   C12 1141   4.953   1.551   5.387 -0.2986 -0.3654 -0.0030
   16CHL1  H12A 1142   4.867   1.620   5.371 -0.7395 -0.8068  0.4073
   16CHL1  H12B 1143   4.915   1.446   5.384 -0.1100 -0.4102 -1.7748
   16CHL1   C11 1144   5.015   1.583   5.524 -0.2187  0.7439 -0.0712
   16CHL1  H11A 1145   5.038   1.691   5.535 -1.8211  1.0633  0.2746
   16CHL1  H11B 1146   4.950   1.550   5.607 -0.5722  2.1506  0.2310
   16CHL1    C9 1147   5.142   1.496   5.550  0.3259 -0.6728 -0.6429
   16CHL1    H9 1148   5.112   1.389   5.552  0.3605 -0.6764 -0.2034
   16CHL1   C10 1149   5.195   1.516   5.700  0.1466 -0.0240  0.0562
   16CHL1   C19 1150   5.191   1.664   5.732  0.1386  0.0638 -0.4653
   16CHL1  H19A 1151   5.086   1.700   5.740 -0.5644 -1.6079 -1.7617
   16CHL1  H19B 1152   5.236   1.692   5.829 -1.0527  0.1299  0.0892
   16CHL1  H19C 1153   5.238   1.722   5.650 -0.1877  0.4468 -0.3869
   16CHL1    C1 1154   5.108   1.439   5.804 -0.6034 -0.4311  0.7939
   16CHL1   H1A 1155   5.008   1.489   5.805  0.0320  0.8846  1.4221
   16CHL1   H1B 1156   5.103   1.336   5.765 -2.1506  0.1771 -0.7409
   16CHL1    C2 1157   5.153   1.446   5.949  0.4011  0.5155 -0.0823
   16CHL1   H2A 1158   5.075   1.395   6.010  0.3590  0.8241  0.1252
   16CHL1   H2B 1159   5.149   1.554   5.973  0.8181  0.4853  0.1270
   16CHL1   C20 1160   4.905   1.580   5.060  0.6036 -0.8133 -0.0300
   16CHL1   H20 1161   4.933   1.685   5.035 -0.0552 -0.1837  1.6809
   16CHL1   C21 1162   4.766   1.596   5.124 -0.5551  0.2463  0.6354
   16CHL1  H21A 1163   4.728   1.496   5.154 -0.6331 -1.0478 -3.1408
   16CHL1  H21B 1164   4.704   1.634   5.039  0.2183 -1.3502 -0.7064
   16CHL1  H21C 1165   4.757   1.663   5.211  1.3970 -1.1307  1.9728
   16CHL1   C22 1166   4.895   1.499   4.931  0.1060  0.1750 -0.2860
   16CHL1  H22A 1167   4.839   1.569   4.865  0.1105  0.5683  0.1200
   16CHL1  H22B 1168   4.993   1.495   4.879  0.3854 -0.2025  0.2554
   16CHL1   C23 1169   4.834   1.362   4.917 -0.4751  0.5661 -0.5134
   16CHL1  H23A 1170   4.889   1.287   4.978 -0.9293 -0.0190 -0.8031
   16CHL1  H23B 1171   4.730   1.368   4.955 -0.2606 -3.5909  1.2500
   16CHL1   C24 1172   4.822   1.301   4.777 -0.0384 -0.0263 -0.2204
   16CHL1  H24A 1173   4.794   1.373   4.697 -1.2733 -1.9553 -1.6030
   16CHL1  H24B 1174   4.924   1.269   4.746  0.3062  1.5849 -0.8611
   16CHL1   C25 1175   4.711   1.197   4.752 -0.0267  0.1517 -0.0915
   16CHL1   H25 1176   4.616   1.241   4.790 -0.1526 -0.5221  0.3792
   16CHL1   C26 1177   4.680   1.177   4.603 -0.7704  0.0972  0.4336
   16CHL1  H26A 1178   4.621   1.084   4.595 -2.5716  1.0894  1.4456
   16CHL1  H26B 1179   4.634   1.266   4.555  1.9258  1.6020  0.3895
   16CHL1  H26C 1180   4.782   1.166   4.559 -0.0555  4.2330  0.6304
   16CHL1   C27 1181   4.745   1.059   4.821 -0.5927 -0.4017  0.0536
   16CHL1  H27A 1182   4.777   1.076   4.926  0.8652  3.0451 -0.8410
   16CHL1  H27B 1183   4.647   1.007   4.830 -0.1263 -1.0783  1.6814
   16CHL1  H27C 1184   4.826   1.001   4.771 -1.2641 -1.8146  0.5534
   17CHL1    C3 1185   5.114   2.790   6.312 -0.5104  0.1386 -0.0047
   17CHL1    H3 1186   5.220   2.822   6.303 -0.0315 -1.4301 -0.2481
   17CHL1    O3 1187   5.086   2.790   6.450 -0.0389 -0.0345  0.2301
   17CHL1   H3' 1188   5.034   2.711   6.465 -0.9500  0.3560 -0.7510
   17CHL1    C4 1189   5.028   2.889   6.230 -0.7044 -1.0531  0.1719
   17CHL1   H4A 1190   4.925   2.856   6.255 -0.2301 -1.3944  1.7810
   17CHL1   H4B 1191   5.051   2.988   6.274 -1.9341  0.1565 -1.7540
   17CHL1    C5 1192   5.051   2.882   6.080  0.3896  0.4538  1.0143
   17CHL1    C6 1193   5.088   2.984   6.004  0.1628 -0.8452 -0.8976
   17CHL1    H6 1194   5.104   3.079   6.056  0.1507 -0.9146 -0.7682
   17CHL1    C7 1195   5.101   2.977   5.854  0.0369  0.4124  0.0855
   17CHL1   H7A 1196   5.051   3.060   5.799  1.0173  0.5953 -0.5450
   17CHL1   H7B 1197   5.207   2.985   5.825  0.2203  2.9273  1.2049
   17CHL1    C8 1198   5.044   2.851   5.794  0.2548 -0.6814 -0.0244
   17CHL1    H8 1199   4.934   2.865   5.789  0.3629  0.3806  0.2529
   17CHL1   C14 1200   5.096   2.829   5.649 -0.0051 -0.5864 -0.7165
   17CHL1   H14 1201   5.201   2.801   5.671 -0.6115 -2.0817  0.4837
   17CHL1   C15 1202   5.105   2.948   5.552  0.4265  0.2369 -1.1484
   17CHL1  H15A 1203   5.015   3.012   5.567 -0.7808 -1.4720 -0.9332
   17CHL1  H15B 1204   5.203   2.999   5.563  1.1959 -1.3106 -0.6162
   17CHL1   C16 1205   5.105   2.883   5.414  0.2277 -0.4454  0.2838
   17CHL1  H16A 1206   5.006   2.897   5.367  0.7283 -1.3229 -1.0817
   17CHL1  H16B 1207   5.184   2.923   5.347  0.3633  2.4527  2.0027
   17CHL1   C17 1208   5.109   2.728   5.440 -0.4939  0.1391 -0.1484
   17CHL1   H17 1209   5.216   2.704   5.453  0.0712 -0.0946 -4.1304
   17CHL1   C13 1210   5.038   2.711   5.575  0.6155  0.4327 -0.5314
   17CHL1   C18 1211   4.885   2.724   5.556  0.2301 -0.0928  0.0077
   17CHL1  H18A 1212   4.850   2.711   5.660  0.8192  0.2596  0.2521
   17CHL1  H18B 1213   4.847   2.821   5.518 -4.1294 -1.1617  1.0992
   17CHL1  H18C 1214   4.847   2.637   5.498  0.8383 -0.4559  0.1387
   17CHL1   C12 1215   5.068   2.578   5.657 -0.0617 -0.9003  0.4197
   17CHL1  H12A 1216   5.005   2.501   5.608  1.3461 -1.1894 -1.0154
   17CHL1  H12B 1217   5.174   2.546   5.644 -0.0363 -0.7319  0.2082
   17CHL1   C11 1218   5.026   2.592   5.802 -0.3731 -0.2966 -1.3271
   17CHL1  H11A 1219   4.916   2.582   5.806 -0.2247 -1.7977  0.2383
   17CHL1  H11B 1220   5.052   2.502   5.863 -0.7092 -0.5475 -1.5484
   17CHL1    C9 1221   5.076   2.723   5.877 -0.2640  0.1347  0.2136
   17CHL1    H9 1222   5.186   2.718   5.873 -0.1084  1.4645  1.9274
   17CHL1   C10 1223   5.039   2.734   6.024 -0.4150  0.0710  0.3136
   17CHL1   C19 1224   4.890   2.688   6.028 -0.4664  0.1084  0.2800
   17CHL1  H19A 1225   4.853   2.703   6.132  0.2729  4.2309  0.0787
   17CHL1  H19B 1226   4.833   2.754   5.959 -0.0794  0.1106 -0.0429
   17CHL1  H19C 1227   4.874   2.581   6.002 -0.8092  0.0692  0.6409
   17CHL1    C1 1228   5.131   2.636   6.110 -0.3964  0.1228  0.0791
   17CHL1   H1A 1229   5.135   2.532   6.073  3.2036 -0.4573  1.6226
   17CHL1   H1B 1230   5.236   2.670   6.100 -0.5570  0.8326  0.7201
   17CHL1    C2 1231   5.106   2.639   6.259  0.6635  0.0279  0.2887
   17CHL1   H2A 1232   5.171   2.562   6.306  0.7905 -0.4670 -0.6530
   17CHL1   H2B 1233   5.005   2.595   6.267  1.2667 -1.2462  1.3339
   17CHL1   C20 1234   5.059   2.650   5.315 -0.2451 -0.2721 -0.4433
   17CHL1   H20 1235   4.949   2.669   5.314 -0.2277 -0.0383  0.8899
   17CHL1   C21 1236   5.063   2.503   5.342  0.2415  0.8563  0.1959
   17CHL1  H21A 1237   5.157   2.473   5.393  0.5781  1.3934 -0.0977
   17CHL1  H21B 1238   5.061   2.444   5.248  0.3540 -0.9841  1.3008
   17CHL1  H21C 1239   4.976   2.464   5.398 -0.2902  1.7705  0.0108
   17CHL1   C22 1240   5.123   2.685   5.176 -0.6099  0.3502  0.1613
   17CHL1  H22A 1241   5.168   2.786   5.163 -0.1428  0.5132  2.6921
   17CHL1  H22B 1242   5.210   2.618   5.165  1.0561  2.6440 -1.6888
   17CHL1   C23 1243   5.022   2.653   5.062 -0.1263 -0.2417  0.5297
   17CHL1  H23A 1244   4.987   2.549   5.072  0.1986 -0.8481 -3.1153
   17CHL1  H23B 1245   4.926   2.709   5.067  0.0187  0.2552 -1.3060
   17CHL1   C24 1246   5.088   2.667   4.926  0.4853 -0.1756  0.2902
   17CHL1  H24A 1247   5.089   2.777   4.911  2.0735  0.2197  2.8374
   17CHL1  H24B 1248   5.192   2.629   4.931 -0.1892 -1.9744  1.6007
   17CHL1   C25 1249   5.016   2.595   4.802 -0.1521 -0.6037  0.6045
   17CHL1   H25 1250   5.087   2.603   4.717  0.0640 -1.4976  0.6869
   17CHL1   C26 1251   4.997   2.445   4.810 -0.2173 -0.6739 -0.2557
   17CHL1  H26A 1252   5.091   2.387   4.825 -0.2897 -0.2398  2.3674
   17CHL1  H26B 1253   4.921   2.429   4.889  0.1596 -3.7935 -0.4101
   17CHL1  H26C 1254   4.951   2.425   4.711  2.2170 -0.0392 -1.5926
   17CHL1   C27 1255   4.884   2.666   4.767 -0.0904  0.2408 -0.0301
   17CHL1  H27A 1256   4.845   2.637   4.667 -0.4547 -2.3104  0.7978
   17CHL1  H27B 1257   4.809   2.633   4.841  0.4637 -1.0770 -0.0404
   17CHL1  H27C 1258   4.897   2.776   4.755  0.8908 -0.0656 -2.5134
   18CHL1    C3 1259   2.035   6.459   5.908  0.0940 -0.2377 -0.9570
   18CHL1    H3 1260   2.020   6.350   5.893 -0.2801 -0.4102  0.4943
   18CHL1    O3 1261   2.019   6.488   6.048  0.0104  0.4679  0.4020
   18CHL1   H3' 1262   2.058   6.412   6.091 -0.9784  0.0775  0.6384
   18CHL1    C4 1263   2.176   6.494   5.862 -0.3017 -0.9990 -0.0092
   18CHL1   H4A 1264   2.194   6.596   5.903  1.3302 -1.2818  0.0195
   18CHL1   H4B 1265   2.250   6.434   5.919 -0.1190 -0.5469  0.2331
   18CHL1    C5 1266   2.195   6.491   5.716 -0.8387 -0.2678 -0.0336
   18CHL1    C6 1267   2.302   6.428   5.659 -0.0808 -0.3128 -0.1640
   18CHL1    H6 1268   2.374   6.379   5.727  0.1391  0.4793  0.1836
   18CHL1    C7 1269   2.330   6.428   5.510 -0.9407 -0.0988  0.3420
   18CHL1   H7A 1270   2.437   6.455   5.498 -1.4212  1.8746  0.0426
   18CHL1   H7B 1271   2.314   6.325   5.471  2.1711 -1.4469  2.2389
   18CHL1    C8 1272   2.245   6.525   5.425  0.0529 -0.9334  0.3807
   18CHL1    H8 1273   2.295   6.624   5.436  0.4638 -1.0925 -0.0315
   18CHL1   C14 1274   2.253   6.485   5.281 -0.1366  0.7785  0.1149
   18CHL1   H14 1275   2.190   6.394   5.268 -1.4923  1.5367  1.0890
   18CHL1   C15 1276   2.385   6.458   5.205 -0.9210  0.5381 -0.3510
   18CHL1  H15A 1277   2.460   6.538   5.220 -1.1585  0.8269 -0.6869
   18CHL1  H15B 1278   2.426   6.357   5.226 -0.8774  0.6030 -0.1141
   18CHL1   C16 1279   2.348   6.477   5.057 -0.3422 -0.1376 -1.1658
   18CHL1  H16A 1280   2.418   6.556   5.022  3.0671 -2.0562  0.8208
   18CHL1  H16B 1281   2.363   6.395   4.985  1.0431 -1.4478  0.5185
   18CHL1   C17 1282   2.199   6.529   5.048 -0.1987  0.5825  0.1228
   18CHL1   H17 1283   2.137   6.438   5.030 -0.8557  1.3372 -1.6839
   18CHL1   C13 1284   2.171   6.584   5.195  0.1527 -0.1556 -0.5176
   18CHL1   C18 1285   2.231   6.725   5.211 -0.5257  0.4408 -0.3345
   18CHL1  H18A 1286   2.218   6.769   5.312 -1.0752 -3.1544  1.3002
   18CHL1  H18B 1287   2.342   6.721   5.205 -0.4003  1.6272  0.6957
   18CHL1  H18C 1288   2.183   6.792   5.137  0.5868  1.0473 -0.5314
   18CHL1   C12 1289   2.020   6.574   5.238 -0.0067  0.2170  0.7431
   18CHL1  H12A 1290   1.959   6.649   5.184 -0.7936 -0.8567  0.0870
   18CHL1  H12B 1291   1.975   6.475   5.213  0.6777 -0.1630  0.9863
   18CHL1   C11 1292   1.997   6.592   5.382 -0.1892 -0.1912 -0.8973
   18CHL1  H11A 1293   2.004   6.702   5.396 -0.0972 -0.4122  0.9720
   18CHL1  H11B 1294   1.893   6.561   5.407 -0.3204  0.1605 -0.9907
   18CHL1    C9 1295   2.097   6.520   5.475 -0.3400 -1.4166  0.2763
   18CHL1    H9 1296   2.073   6.412   5.469 -0.2725 -1.4704  0.8576
   18CHL1   C10 1297   2.086   6.555   5.627  0.0010 -0.0906  0.1289
   18CHL1   C19 1298   2.093   6.709   5.640  0.0385 -0.7950  0.8067
   18CHL1  H19A 1299   2.164   6.757   5.570 -0.9832 -0.9183 -0.3565
   18CHL1  H19B 1300   1.991   6.747   5.619 -0.7616 -1.9409  2.4004
   18CHL1  H19C 1301   2.110   6.749   5.742 -3.4896  0.8886  0.8866
   18CHL1    C1 1302   1.944   6.512   5.679  0.7680 -0.8203 -0.5631
   18CHL1   H1A 1303   1.871   6.576   5.624  0.5390  1.1641  1.8604
   18CHL1   H1B 1304   1.938   6.403   5.657  0.3970 -1.1295  0.9027
   18CHL1    C2 1305   1.928   6.536   5.830 -0.2382 -0.2164  0.2637
   18CHL1   H2A 1306   1.828   6.501   5.864 -0.4230  0.5399  0.5296
   18CHL1   H2B 1307   1.931   6.646   5.846  1.0032  0.1855 -2.1495
   18CHL1   C20 1308   2.174   6.619   4.926  0.1933  0.2216 -0.4413
   18CHL1   H20 1309   2.244   6.705   4.933 -1.6294  1.6354  1.6296
   18CHL1   C21 1310   2.037   6.684   4.913  0.2721 -0.4581  0.0417
   18CHL1  H21A 1311   2.043   6.745   4.820  2.7786 -0.0916  0.3589
   18CHL1  H21B 1312   2.018   6.748   5.001 -1.6796 -0.2673 -0.4711
   18CHL1  H21C 1313   1.959   6.608   4.889  0.8671 -0.4564 -2.1806
   18CHL1   C22 1314   2.213   6.553   4.798 -0.0879  0.0528  0.6510
   18CHL1  H22A 1315   2.272   6.460   4.811  0.4108  0.0190 -1.4897
   18CHL1  H22B 1316   2.116   6.537   4.746 -0.4685  3.0653  0.2389
   18CHL1   C23 1317   2.296   6.646   4.712 -0.6647  0.1478  0.7430
   18CHL1  H23A 1318   2.234   6.738   4.701  0.3654  0.7470 -0.3350
   18CHL1  H23B 1319   2.397   6.674   4.749 -0.1729 -0.4959 -0.0602
   18CHL1   C24 1320   2.312   6.591   4.570 -0.3085 -0.0534  0.3414
   18CHL1  H24A 1321   2.368   6.496   4.584  1.2702  0.7976  0.1146
   18CHL1  H24B 1322   2.213   6.559   4.532 -1.2692  1.7421  1.1839
   18CHL1   C25 1323   2.399   6.690   4.487  0.4587  0.1597  0.2063
   18CHL1   H25 1324   2.487   6.713   4.550  1.1758 -2.7681  0.4234
   18CHL1   C26 1325   2.443   6.631   4.355  0.6191  0.1802 -0.3182
   18CHL1  H26A 1326   2.529   6.684   4.309  0.4896  0.4119 -0.2957
   18CHL1  H26B 1327   2.479   6.526   4.366  0.3110  0.1148  0.0861
   18CHL1  H26C 1328   2.358   6.620   4.284  0.1442  0.7254  0.1606
   18CHL1   C27 1329   2.318   6.818   4.454 -0.0742 -0.1279  0.2727
   18CHL1  H27A 1330   2.305   6.881   4.545  1.4077  0.7777 -0.1180
   18CHL1  H27B 1331   2.374   6.872   4.375  1.6257  0.4900  1.8269
   18CHL1  H27C 1332   2.215   6.788   4.427 -0.4068 -0.3944  1.7350
   19CHL1    C3 1333   6.457   3.917   5.697  0.8987  0.0147  0.8633
   19CHL1    H3 1334   6.349   3.928   5.674  0.3938 -3.3491  1.1262
   19CHL1    O3 1335   6.463   3.930   5.835 -0.0560 -0.5718  0.3812
   19CHL1   H3' 1336   6.539   3.873   5.852  1.9805  0.0004 -4.9789
   19CHL1    C4 1337   6.498   3.769   5.664 -0.9447 -0.0645  0.1095
   19CHL1   H4A 1338   6.603   3.748   5.694 -0.0034  2.2648 -1.2705
   19CHL1   H4B 1339   6.431   3.698   5.717  1.7814 -1.7892  1.4471
   19CHL1    C5 1340   6.500   3.735   5.518 -0.0266 -0.7405 -0.3439
   19CHL1    C6 1341   6.432   3.637   5.458 -0.1251  0.5241 -0.2272
   19CHL1    H6 1342   6.368   3.572   5.519 -1.3317  1.3635 -0.5615
   19CHL1    C7 1343   6.428   3.608   5.310 -0.5235 -0.0014  0.1826
   19CHL1   H7A 1344   6.435   3.500   5.285  0.8057 -0.2843  1.6130
   19CHL1   H7B 1345   6.330   3.635   5.267  1.4729  2.0457 -3.6222
   19CHL1    C8 1346   6.538   3.685   5.230  0.3728  0.6938 -0.2491
   19CHL1    H8 1347   6.639   3.641   5.242 -0.2187 -0.8205 -0.5650
   19CHL1   C14 1348   6.503   3.697   5.083  0.6373  0.0027  0.4842
   19CHL1   H14 1349   6.413   3.761   5.086  2.0426  2.2259 -1.2346
   19CHL1   C15 1350   6.471   3.566   5.004  0.1437 -0.5709  0.7908
   19CHL1  H15A 1351   6.535   3.484   5.041  0.2754  0.1265  2.1703
   19CHL1  H15B 1352   6.366   3.536   5.022  0.1533  0.1287  2.1108
   19CHL1   C16 1353   6.491   3.596   4.858  0.1133 -0.8248  0.5278
   19CHL1  H16A 1354   6.567   3.528   4.816  0.7206  1.0781 -1.6304
   19CHL1  H16B 1355   6.400   3.587   4.795  1.6526  1.3350 -2.1787
   19CHL1   C17 1356   6.546   3.742   4.853 -0.3860 -1.0519  0.3634
   19CHL1   H17 1357   6.454   3.804   4.851  0.4840  0.3376 -2.9338
   19CHL1   C13 1358   6.602   3.762   4.993 -0.4701  0.1492  0.2721
   19CHL1   C18 1359   6.742   3.694   4.993 -0.4214 -0.4649  0.1834
   19CHL1  H18A 1360   6.795   3.698   5.091  1.5442  1.4453 -0.8829
   19CHL1  H18B 1361   6.745   3.589   4.956  0.0146 -0.0230 -1.0839
   19CHL1  H18C 1362   6.808   3.733   4.913 -2.1494 -0.4425 -1.2995
   19CHL1   C12 1363   6.629   3.911   5.039 -0.7831  0.7583 -0.5091
   19CHL1  H12A 1364   6.730   3.942   5.005 -0.0338 -1.0581 -0.0337
   19CHL1  H12B 1365   6.540   3.973   5.018 -0.9612  1.3476  1.6967
   19CHL1   C11 1366   6.647   3.918   5.193  0.1475  0.1643  0.7020
   19CHL1  H11A 1367   6.752   3.884   5.206  0.7163  1.2967 -0.6954
   19CHL1  H11B 1368   6.637   4.024   5.224  1.3918  0.8750 -1.1495
   19CHL1    C9 1369   6.550   3.827   5.279 -0.8170 -0.5968 -0.6395
   19CHL1    H9 1370   6.453   3.881   5.285 -1.5256 -1.9725  1.3705
   19CHL1   C10 1371   6.588   3.837   5.434 -0.4771 -0.2730 -0.4019
   19CHL1   C19 1372   6.742   3.800   5.466 -0.3650  0.4720  0.6458
   19CHL1  H19A 1373   6.810   3.812   5.379 -0.1725 -0.9958  0.5545
   19CHL1  H19B 1374   6.773   3.851   5.559 -0.0205 -1.3154  1.5508
   19CHL1  H19C 1375   6.743   3.690   5.487 -1.0161  0.0264 -1.3948
   19CHL1    C1 1376   6.561   3.992   5.479  0.3842 -0.0803  0.2890
   19CHL1   H1A 1377   6.638   4.064   5.445 -1.4154  1.8647  0.1200
   19CHL1   H1B 1378   6.461   4.025   5.444  0.5187  0.2887  0.2500
   19CHL1    C2 1379   6.548   4.020   5.629 -0.3221  0.1346 -0.6067
   19CHL1   H2A 1380   6.514   4.122   5.655 -2.4945 -1.0471  1.6091
   19CHL1   H2B 1381   6.649   4.006   5.674 -0.3759 -0.8331 -0.7763
   19CHL1   C20 1382   6.628   3.784   4.725  0.7113 -0.2248  0.5448
   19CHL1   H20 1383   6.705   3.857   4.758  1.8051  0.0856 -2.3477
   19CHL1   C21 1384   6.524   3.843   4.625 -0.4037 -0.7944  1.3736
   19CHL1  H21A 1385   6.468   3.761   4.576  2.1693 -1.0056 -1.5842
   19CHL1  H21B 1386   6.570   3.904   4.544  0.0600 -1.8634  0.8069
   19CHL1  H21C 1387   6.455   3.908   4.682 -1.4127 -0.9402  0.3480
   19CHL1   C22 1388   6.700   3.671   4.658 -0.4323 -0.1495  0.2327
   19CHL1  H22A 1389   6.758   3.611   4.732 -3.7341 -2.7741  0.9450
   19CHL1  H22B 1390   6.622   3.603   4.619  0.8807 -2.5001  1.4988
   19CHL1   C23 1391   6.774   3.717   4.533  0.4479 -0.3475  0.0572
   19CHL1  H23A 1392   6.707   3.766   4.460  0.2675 -2.3737 -1.2277
   19CHL1  H23B 1393   6.861   3.776   4.571  1.6296 -1.3798 -0.9448
   19CHL1   C24 1394   6.842   3.602   4.456  0.1958 -0.9533 -0.3508
   19CHL1  H24A 1395   6.903   3.555   4.536 -2.6548 -1.0555  1.8896
   19CHL1  H24B 1396   6.761   3.541   4.411 -0.7657 -1.3797  1.8408
   19CHL1   C25 1397   6.930   3.638   4.340  0.0915  0.1721  0.4609
   19CHL1   H25 1398   6.990   3.721   4.384 -0.6411  0.2500  1.3555
   19CHL1   C26 1399   7.028   3.529   4.304  0.2857 -0.7629 -0.0785
   19CHL1  H26A 1400   7.116   3.532   4.372  0.6115 -0.6803 -0.5055
   19CHL1  H26B 1401   6.971   3.434   4.295 -1.0453 -0.0197  0.1816
   19CHL1  H26C 1402   7.082   3.545   4.209  2.5484 -2.2735  0.8742
   19CHL1   C27 1403   6.857   3.687   4.214 -0.2034 -0.5901 -0.0032
   19CHL1  H27A 1404   6.791   3.773   4.238  0.6525  0.0644  0.0551
   19CHL1  H27B 1405   6.932   3.720   4.139  0.9785 -3.5222 -0.2376
   19CHL1  H27C 1406   6.796   3.612   4.161 -0.3900  0.3066 -1.0955
   20CHL1    C3 1407   6.377   5.361   6.131 -0.2984  0.0564  0.4798
   20CHL1    H3 1408   6.487   5.378   6.125 -0.4524  2.9818  3.2013
   20CHL1    O3 1409   6.339   5.338   6.264  0.0067  0.0842 -0.3211
   20CHL1   H3' 1410   6.273   5.402   6.291 -0.8748 -1.6163  1.9080
   20CHL1    C4 1411   6.311   5.487   6.071 -0.0743 -0.6735  0.0572
   20CHL1   H4A 1412   6.204   5.483   6.099  0.0598 -1.3194  0.5128
   20CHL1   H4B 1413   6.360   5.571   6.124 -0.7950  0.0187 -0.3518
   20CHL1    C5 1414   6.329   5.497   5.919 -0.5658  0.4786  0.1540
   20CHL1    C6 1415   6.395   5.593   5.849  0.5169 -0.2198 -0.7623
   20CHL1    H6 1416   6.439   5.679   5.902  2.6542 -0.7939 -1.4851
   20CHL1    C7 1417   6.407   5.610   5.705 -0.3018 -0.1234  0.1158
   20CHL1   H7A 1418   6.386   5.716   5.681 -1.3915 -1.0478 -3.8596
   20CHL1   H7B 1419   6.512   5.580   5.683 -0.1192 -0.6657  1.6110
   20CHL1    C8 1420   6.312   5.514   5.632 -0.1069 -0.0851  0.1720
   20CHL1    H8 1421   6.209   5.549   5.654 -0.4601 -0.4838 -0.7718
   20CHL1   C14 1422   6.352   5.501   5.488  0.2433 -0.4640  0.3449
   20CHL1   H14 1423   6.448   5.446   5.486  0.3150 -0.3546 -1.8073
   20CHL1   C15 1424   6.373   5.633   5.418 -0.5097 -0.0724 -0.2059
   20CHL1  H15A 1425   6.297   5.704   5.458  0.3298  0.6854  0.0914
   20CHL1  H15B 1426   6.476   5.666   5.442 -0.8158  0.9488 -0.2553
   20CHL1   C16 1427   6.360   5.595   5.267 -0.4025  0.0419  0.7003
   20CHL1  H16A 1428   6.276   5.654   5.226 -0.5961 -1.3656 -1.0588
   20CHL1  H16B 1429   6.461   5.613   5.223 -0.8222 -0.1177 -0.3576
   20CHL1   C17 1430   6.329   5.438   5.271 -0.4250 -0.2952  0.5058
   20CHL1   H17 1431   6.431   5.393   5.265 -0.6584 -0.6375 -1.4286
   20CHL1   C13 1432   6.266   5.416   5.406 -0.2999 -0.3931  0.4313
   20CHL1   C18 1433   6.122   5.481   5.400  0.0720 -0.8497  0.1179
   20CHL1  H18A 1434   6.069   5.493   5.497  1.6297  1.4290  0.7801
   20CHL1  H18B 1435   6.119   5.579   5.348 -0.8524 -1.6246 -1.3686
   20CHL1  H18C 1436   6.062   5.415   5.335  3.2552 -3.2130 -0.6934
   20CHL1   C12 1437   6.271   5.271   5.464 -0.5844 -0.1810 -0.1758
   20CHL1  H12A 1438   6.228   5.199   5.391  0.9566 -0.7247 -0.5842
   20CHL1  H12B 1439   6.378   5.246   5.483 -0.8007 -1.5766 -0.6665
   20CHL1   C11 1440   6.226   5.279   5.602 -0.7821  0.0545 -0.6573
   20CHL1  H11A 1441   6.122   5.318   5.597 -0.2375  1.7201  0.2507
   20CHL1  H11B 1442   6.231   5.185   5.661  1.6172  2.0986  2.7897
   20CHL1    C9 1443   6.316   5.373   5.691 -0.0425  0.5244  0.2090
   20CHL1    H9 1444   6.419   5.334   5.675 -0.4491 -0.1530 -0.8781
   20CHL1   C10 1445   6.286   5.368   5.841  0.4578  0.1429 -0.2301
   20CHL1   C19 1446   6.130   5.364   5.860 -0.1969 -0.1802 -0.7222
   20CHL1  H19A 1447   6.098   5.383   5.965 -0.2076 -0.8312 -0.6043
   20CHL1  H19B 1448   6.081   5.442   5.797  0.6249  1.2403  0.3413
   20CHL1  H19C 1449   6.096   5.262   5.831  0.8135 -0.7474  0.0108
   20CHL1    C1 1450   6.349   5.239   5.902 -0.7580  0.2105 -0.8672
   20CHL1   H1A 1451   6.323   5.143   5.852  1.9643  0.3365 -2.7723
   20CHL1   H1B 1452   6.458   5.253   5.884 -0.3797  0.2413  1.2473
   20CHL1    C2 1453   6.340   5.225   6.058 -0.3015  0.6108  0.1676
   20CHL1   H2A 1454   6.410   5.148   6.098 -0.9232 -0.2188 -0.3021
   20CHL1   H2B 1455   6.234   5.195   6.071 -0.5680  0.4189 -2.0632
   20CHL1   C20 1456   6.254   5.386   5.148  0.4830 -0.1656  0.4365
   20CHL1   H20 1457   6.178   5.308   5.172  0.0473 -0.1165 -0.7331
   20CHL1   C21 1458   6.358   5.310   5.057  0.9153  0.0094 -0.4014
   20CHL1  H21A 1459   6.310   5.289   4.960 -0.4786  1.2184 -0.0130
   20CHL1  H21B 1460   6.382   5.211   5.101 -2.3124 -0.1414  1.3208
   20CHL1  H21C 1461   6.454   5.365   5.041  1.0688 -0.3600 -0.7515
   20CHL1   C22 1462   6.180   5.488   5.065  0.1259 -1.1695 -0.1470
   20CHL1  H22A 1463   6.115   5.549   5.132  1.4964  0.4516 -0.2344
   20CHL1  H22B 1464   6.243   5.560   5.009 -1.6975 -0.1302 -0.9735
   20CHL1   C23 1465   6.090   5.429   4.947 -0.5528  0.0224 -0.2559
   20CHL1  H23A 1466   6.146   5.384   4.862  0.4064  0.7745 -0.0345
   20CHL1  H23B 1467   6.043   5.343   4.999  1.2789 -1.2498 -0.6021
   20CHL1   C24 1468   5.986   5.531   4.899  0.2750 -0.6086  0.3367
   20CHL1  H24A 1469   5.921   5.489   4.819 -0.8429 -1.6024  1.7137
   20CHL1  H24B 1470   5.925   5.572   4.983  1.0510 -1.6524  1.4465
   20CHL1   C25 1471   6.049   5.657   4.843 -0.5997 -0.1011  1.0756
   20CHL1   H25 1472   6.133   5.696   4.904  2.0146  0.8170 -2.7664
   20CHL1   C26 1473   6.122   5.632   4.710 -0.7115  0.2789  0.0051
   20CHL1  H26A 1474   6.041   5.619   4.636  0.8146 -2.9299 -1.2767
   20CHL1  H26B 1475   6.187   5.711   4.666  0.1991 -0.4796 -0.0583
   20CHL1  H26C 1476   6.177   5.535   4.712 -0.1498  0.4801 -2.5083
   20CHL1   C27 1477   5.941   5.773   4.819  0.1040  0.3750  0.3856
   20CHL1  H27A 1478   5.888   5.782   4.916 -1.5058 -0.0839 -0.4228
   20CHL1  H27B 1479   5.999   5.863   4.789  0.3454 -0.7336 -2.8634
   20CHL1  H27C 1480   5.868   5.758   4.737 -1.1020 -1.0390  1.6539
   21CHL1    C3 1481   3.056   3.832   5.952  0.5900  0.0541 -0.9979
   21CHL1    H3 1482   3.155   3.781   5.950  0.5299 -0.1594  0.6158
   21CHL1    O3 1483   2.981   3.829   6.075 -0.2537 -0.1195  0.4358
   21CHL1   H3' 1484   2.949   3.917   6.095 -1.4489 -0.3448 -0.3477
   21CHL1    C4 1485   3.090   3.974   5.923 -0.4832  0.0114 -0.3305
   21CHL1   H4A 1486   2.990   4.024   5.919 -0.8167 -0.6829 -0.6832
   21CHL1   H4B 1487   3.153   4.013   6.006  2.0914 -1.9142 -1.2653
   21CHL1    C5 1488   3.153   4.013   5.792 -0.3670  0.0759 -0.4032
   21CHL1    C6 1489   3.265   4.091   5.790  0.4886 -0.1192 -0.9278
   21CHL1    H6 1490   3.303   4.123   5.889 -1.3143 -0.1832 -0.1652
   21CHL1    C7 1491   3.328   4.146   5.672  0.6221  0.1212 -0.2326
   21CHL1   H7A 1492   3.327   4.257   5.678 -0.9296  0.1069  0.2092
   21CHL1   H7B 1493   3.436   4.122   5.665  0.5146 -0.7835  0.9203
   21CHL1    C8 1494   3.248   4.110   5.543 -0.0027  0.0749  0.1636
   21CHL1    H8 1495   3.162   4.180   5.544  0.1959  0.3160  0.5888
   21CHL1   C14 1496   3.347   4.130   5.424  0.3301 -0.2627 -0.2819
   21CHL1   H14 1497   3.424   4.051   5.426  0.6688  0.0699  1.2115
   21CHL1   C15 1498   3.426   4.261   5.415  0.0750  0.3994  0.0803
   21CHL1  H15A 1499   3.358   4.348   5.427 -0.7280 -0.2072  0.0312
   21CHL1  H15B 1500   3.506   4.275   5.490 -0.4415  1.5803  0.4301
   21CHL1   C16 1501   3.480   4.241   5.265 -0.1000  0.4238 -0.3537
   21CHL1  H16A 1502   3.486   4.342   5.218 -1.5945  0.2943 -0.8460
   21CHL1  H16B 1503   3.571   4.178   5.274 -1.4282 -1.3274  1.7384
   21CHL1   C17 1504   3.383   4.144   5.193 -0.3461 -0.5244  0.7753
   21CHL1   H17 1505   3.431   4.043   5.185 -1.9576 -1.2844  0.3319
   21CHL1   C13 1506   3.266   4.113   5.288  0.2543  0.4562 -0.4834
   21CHL1   C18 1507   3.157   4.213   5.271  0.2683 -0.3190 -0.2400
   21CHL1  H18A 1508   3.196   4.317   5.269  0.9898 -0.5981 -1.9743
   21CHL1  H18B 1509   3.110   4.204   5.171  0.4608 -0.4482 -0.3192
   21CHL1  H18C 1510   3.077   4.202   5.349  1.5395 -0.4143  1.0934
   21CHL1   C12 1511   3.218   3.967   5.284  0.1768 -0.2030 -0.7847
   21CHL1  H12A 1512   3.143   3.949   5.203  0.6073  0.3333 -1.3148
   21CHL1  H12B 1513   3.306   3.899   5.293 -0.4895 -0.7733  3.5462
   21CHL1   C11 1514   3.127   3.940   5.410 -0.9496  0.3030 -0.2280
   21CHL1  H11A 1515   3.037   4.003   5.398 -1.0748 -0.2743 -2.7696
   21CHL1  H11B 1516   3.098   3.833   5.412  0.0488  0.0296  0.6863
   21CHL1    C9 1517   3.187   3.969   5.548 -0.2302 -0.1378  0.0853
   21CHL1    H9 1518   3.265   3.891   5.561 -2.2864 -2.7741 -1.9323
   21CHL1   C10 1519   3.086   3.951   5.668  0.0686 -0.1885 -0.0897
   21CHL1   C19 1520   2.950   4.022   5.641 -0.1775  0.4924  0.1695
   21CHL1  H19A 1521   2.885   4.013   5.731 -0.0174  0.5215  0.2876
   21CHL1  H19B 1522   2.957   4.133   5.631 -0.9006  0.4009 -1.5791
   21CHL1  H19C 1523   2.908   3.980   5.547  3.3534 -1.4471 -0.7094
   21CHL1    C1 1524   3.060   3.796   5.700 -0.2746  0.1307 -0.3345
   21CHL1   H1A 1525   3.002   3.758   5.614  1.5205 -1.1792 -1.0338
   21CHL1   H1B 1526   3.161   3.749   5.707 -1.0792 -1.7812 -0.7949
   21CHL1    C2 1527   2.982   3.769   5.829  0.5051  0.1374  0.3097
   21CHL1   H2A 1528   2.965   3.659   5.833 -0.6954  0.1542 -2.3482
   21CHL1   H2B 1529   2.887   3.825   5.816 -0.4683 -1.4781  0.1117
   21CHL1   C20 1530   3.364   4.193   5.044  0.2643  0.5313  0.1449
   21CHL1   H20 1531   3.303   4.287   5.045 -1.2607 -0.4207  0.3438
   21CHL1   C21 1532   3.282   4.087   4.971 -0.1511 -0.1829 -0.1786
   21CHL1  H21A 1533   3.277   4.108   4.862  0.4728  2.2340  0.2089
   21CHL1  H21B 1534   3.183   4.110   5.015 -0.7907  0.4723 -1.8735
   21CHL1  H21C 1535   3.321   3.984   4.988 -1.1781 -0.3408  1.4283
   21CHL1   C22 1536   3.498   4.215   4.966  0.0485  0.1832  0.0409
   21CHL1  H22A 1537   3.572   4.268   5.031  0.4905 -0.0233 -0.2911
   21CHL1  H22B 1538   3.539   4.112   4.953 -1.5395 -0.2161 -2.3151
   21CHL1   C23 1539   3.490   4.258   4.826 -0.5456  0.8480  0.5144
   21CHL1  H23A 1540   3.452   4.180   4.757 -2.4791  2.0981  0.0970
   21CHL1  H23B 1541   3.416   4.339   4.811 -0.7420  0.9093  1.7131
   21CHL1   C24 1542   3.628   4.320   4.774 -0.5918 -0.1309  0.4659
   21CHL1  H24A 1543   3.675   4.385   4.850  1.6465  0.2108 -1.1084
   21CHL1  H24B 1544   3.693   4.229   4.767  0.2783  0.3456  2.0175
   21CHL1   C25 1545   3.628   4.397   4.635  0.3443 -0.0163  0.8280
   21CHL1   H25 1546   3.547   4.472   4.625 -1.3496 -1.8124  0.3344
   21CHL1   C26 1547   3.757   4.477   4.610  0.3692  0.0165  0.6764
   21CHL1  H26A 1548   3.774   4.554   4.689 -1.0718  1.0382  0.0352
   21CHL1  H26B 1549   3.835   4.399   4.603  0.3594 -0.0590  1.3525
   21CHL1  H26C 1550   3.756   4.526   4.510  2.6643  0.5647  0.8414
   21CHL1   C27 1551   3.586   4.287   4.526  0.2438  0.0305 -0.4726
   21CHL1  H27A 1552   3.482   4.254   4.546 -0.4318  1.9038 -0.7002
   21CHL1  H27B 1553   3.603   4.337   4.428  1.0114  1.3580  0.3076
   21CHL1  H27C 1554   3.659   4.205   4.543  2.0319  1.6120 -0.1371
   22CHL1    C3 1555   5.960   6.767   6.053  0.4336  0.2707  0.0248
   22CHL1    H3 1556   6.052   6.827   6.039  0.4056  0.7273  1.5357
   22CHL1    O3 1557   5.957   6.713   6.185 -0.2808 -0.0279 -0.5798
   22CHL1   H3' 1558   5.998   6.781   6.240  0.6297 -1.5962  0.7553
   22CHL1    C4 1559   5.840   6.871   6.026  0.1353  0.4691 -0.1697
   22CHL1   H4A 1560   5.753   6.805   6.049  0.5264  0.0283  0.0685
   22CHL1   H4B 1561   5.856   6.946   6.106 -0.7794 -1.2449  1.7191
   22CHL1    C5 1562   5.854   6.920   5.884  0.3591 -0.2743 -0.6122
   22CHL1    C6 1563   5.863   7.054   5.859  0.3414  0.2442 -0.3151
   22CHL1    H6 1564   5.860   7.128   5.941  0.1835  1.6310 -1.5208
   22CHL1    C7 1565   5.891   7.112   5.727 -0.3493  0.3753 -0.5432
   22CHL1   H7A 1566   5.822   7.199   5.714  0.4362  1.6291  2.8095
   22CHL1   H7B 1567   5.996   7.144   5.714 -0.5321  1.1437 -0.2294
   22CHL1    C8 1568   5.859   7.011   5.611 -0.3630  0.6220 -0.3667
   22CHL1    H8 1569   5.749   7.024   5.611 -0.2958  1.6535  1.8277
   22CHL1   C14 1570   5.916   7.061   5.472  0.2323  0.4721 -0.8133
   22CHL1   H14 1571   6.025   7.057   5.492  0.1125  0.7778 -0.0287
   22CHL1   C15 1572   5.875   7.202   5.426  0.1978 -0.2144  0.7652
   22CHL1  H15A 1573   5.764   7.205   5.429  0.1860 -1.1104  1.7500
   22CHL1  H15B 1574   5.924   7.286   5.479 -0.6898  0.8060  0.0026
   22CHL1   C16 1575   5.917   7.205   5.275  0.6574  1.5375 -0.5102
   22CHL1  H16A 1576   5.834   7.249   5.217  0.3183 -0.9246 -2.0589
   22CHL1  H16B 1577   6.011   7.263   5.261  1.2162  0.4597 -1.4743
   22CHL1   C17 1578   5.944   7.056   5.239  0.1365 -0.4884  0.5910
   22CHL1   H17 1579   6.053   7.035   5.244  0.3246  0.4494  0.5456
   22CHL1   C13 1580   5.885   6.970   5.355  0.0633 -0.1150 -0.6861
   22CHL1   C18 1581   5.727   6.952   5.336 -0.9461  1.0390 -0.0023
   22CHL1  H18A 1582   5.714   6.883   5.250 -2.1497  0.4747  0.5991
   22CHL1  H18B 1583   5.695   6.893   5.425  2.0403  1.2861  1.3706
   22CHL1  H18C 1584   5.666   7.045   5.333  0.1748  1.8370  1.0674
   22CHL1   C12 1585   5.944   6.833   5.386  0.2326 -0.0005  0.1832
   22CHL1  H12A 1586   5.918   6.764   5.303 -1.6963  2.4241 -1.3709
   22CHL1  H12B 1587   6.055   6.842   5.396  0.2858  0.1666 -0.4593
   22CHL1   C11 1588   5.910   6.774   5.524  0.3791  0.4925  0.4503
   22CHL1  H11A 1589   5.813   6.720   5.518  0.8979 -0.4617  0.4353
   22CHL1  H11B 1590   5.983   6.694   5.546  0.3773  0.6438  1.0275
   22CHL1    C9 1591   5.918   6.871   5.646 -0.4740 -0.2024  0.9057
   22CHL1    H9 1592   6.025   6.904   5.648 -0.5026  0.1821 -1.6043
   22CHL1   C10 1593   5.869   6.810   5.776  0.2020 -0.5891  0.6993
   22CHL1   C19 1594   5.728   6.739   5.771  0.1586 -0.1451  0.0574
   22CHL1  H19A 1595   5.692   6.714   5.873  2.9525 -1.4844  0.7829
   22CHL1  H19B 1596   5.665   6.813   5.717  0.7021  0.3494  0.0931
   22CHL1  H19C 1597   5.732   6.650   5.704  0.4293  0.1804 -0.3659
   22CHL1    C1 1598   5.971   6.699   5.811  0.2611 -0.2489  0.0647
   22CHL1   H1A 1599   5.974   6.612   5.741 -1.2433  1.1488 -1.8456
   22CHL1   H1B 1600   6.068   6.754   5.819 -0.2981  0.9073 -0.8340
   22CHL1    C2 1601   5.954   6.641   5.957 -0.1850 -0.8409  0.0572
   22CHL1   H2A 1602   6.036   6.571   5.982  0.4813 -0.6237 -1.4564
   22CHL1   H2B 1603   5.854   6.595   5.967 -0.5179 -0.0134  0.6874
   22CHL1   C20 1604   5.915   7.026   5.087  0.1462 -0.1803 -0.1711
   22CHL1   H20 1605   5.807   7.046   5.068  0.1499  0.9177  0.8415
   22CHL1   C21 1606   5.943   6.877   5.062  0.9271 -0.1601  0.3757
   22CHL1  H21A 1607   6.049   6.850   5.084  0.7837 -0.6237  0.5258
   22CHL1  H21B 1608   5.932   6.856   4.954  1.4556  1.0352  0.0736
   22CHL1  H21C 1609   5.868   6.810   5.110 -0.2367  0.6888 -0.2328
   22CHL1   C22 1610   5.994   7.118   4.982  0.0091  0.4813  0.1523
   22CHL1  H22A 1611   5.970   7.220   5.018  0.8682  1.1821 -1.1776
   22CHL1  H22B 1612   6.102   7.094   4.985 -0.3390 -1.9296 -2.5832
   22CHL1   C23 1613   5.947   7.094   4.846 -0.3365  0.2006  0.5275
   22CHL1  H23A 1614   5.951   6.991   4.804  0.5568  0.8008 -0.9204
   22CHL1  H23B 1615   5.845   7.136   4.834 -0.3898  0.1195  0.6932
   22CHL1   C24 1616   6.016   7.176   4.744  0.5659 -0.0841 -0.2186
   22CHL1  H24A 1617   6.011   7.286   4.758 -2.8622 -0.2272  0.4354
   22CHL1  H24B 1618   6.126   7.172   4.763  0.4023  2.6746  2.1152
   22CHL1   C25 1619   5.983   7.133   4.599  0.2021  0.3449  0.6254
   22CHL1   H25 1620   5.981   7.022   4.604 -1.9220  0.2463 -0.9975
   22CHL1   C26 1621   5.847   7.192   4.551 -0.2495 -0.0149  0.1434
   22CHL1  H26A 1622   5.771   7.206   4.631 -2.6175 -0.2390 -1.9436
   22CHL1  H26B 1623   5.861   7.286   4.494 -0.3653 -0.2601 -0.2957
   22CHL1  H26C 1624   5.795   7.123   4.482  1.1269  0.1779 -1.1394
   22CHL1   C27 1625   6.098   7.175   4.503  1.5561 -0.0627 -0.1173
   22CHL1  H27A 1626   6.086   7.140   4.399  1.7596  1.4391 -0.6703
   22CHL1  H27B 1627   6.109   7.286   4.499 -0.0481  0.0774 -2.6928
   22CHL1  H27C 1628   6.195   7.131   4.537  1.4081  0.0406  0.4598
   23CHL1    C3 1629   5.159   0.447   5.938 -0.1389 -0.9031  0.1915
   23CHL1    H3 1630   5.235   0.376   5.899  1.3557  0.1608  1.0479
   23CHL1    O3 1631   5.172   0.462   6.080 -0.3265  0.3748 -0.3707
   23CHL1   H3' 1632   5.138   0.550   6.100  2.5738  1.6161 -0.3666
   23CHL1    C4 1633   5.188   0.587   5.877  0.4123 -0.4387 -0.0604
   23CHL1   H4A 1634   5.132   0.672   5.921  1.1102 -0.0672  0.1216
   23CHL1   H4B 1635   5.292   0.618   5.898  1.1723 -1.8287 -1.4950
   23CHL1    C5 1636   5.164   0.590   5.722  0.1437 -0.6760  0.5288
   23CHL1    C6 1637   5.259   0.636   5.636  0.7364 -0.1129  0.3378
   23CHL1    H6 1638   5.355   0.674   5.672  0.1635  2.3447 -0.5572
   23CHL1    C7 1639   5.234   0.637   5.485  0.0833  0.3112 -0.1403
   23CHL1   H7A 1640   5.276   0.729   5.439  1.4648  0.5063  1.4226
   23CHL1   H7B 1641   5.287   0.553   5.435 -0.0716  1.2763 -2.0145
   23CHL1    C8 1642   5.083   0.626   5.441 -0.6875 -0.0154  0.3245
   23CHL1    H8 1643   5.029   0.721   5.459  0.2122  0.8682 -1.4901
   23CHL1   C14 1644   5.085   0.583   5.292  0.1495  0.0029  0.0419
   23CHL1   H14 1645   5.132   0.482   5.290  0.6491  0.1373  2.3138
   23CHL1   C15 1646   5.148   0.678   5.194 -0.1752  0.0196 -0.6115
   23CHL1  H15A 1647   5.115   0.780   5.224  2.3174  0.3838  1.2181
   23CHL1  H15B 1648   5.258   0.682   5.183 -0.3045  1.3657 -1.8222
   23CHL1   C16 1649   5.094   0.635   5.055 -0.1458  0.4480  0.2570
   23CHL1  H16A 1650   5.045   0.718   5.000  1.4983  0.7035 -0.9032
   23CHL1  H16B 1651   5.180   0.605   4.991 -1.3866 -1.0277 -0.7819
   23CHL1   C17 1652   4.992   0.524   5.088  0.6182 -0.1427  0.2908
   23CHL1   H17 1653   5.044   0.426   5.088  0.7006 -0.1517 -1.7517
   23CHL1   C13 1654   4.948   0.555   5.235  0.2458  0.1665  0.7797
   23CHL1   C18 1655   4.863   0.684   5.245  0.1498 -0.3913  0.3371
   23CHL1  H18A 1656   4.904   0.775   5.196 -0.2762 -0.2958  0.1471
   23CHL1  H18B 1657   4.762   0.653   5.210  0.1694  0.4841 -0.5245
   23CHL1  H18C 1658   4.859   0.713   5.353  4.9381 -2.3811  1.2953
   23CHL1   C12 1659   4.890   0.443   5.318 -0.2203  0.4289 -0.1139
   23CHL1  H12A 1660   4.790   0.424   5.274  0.8643  0.5604 -2.8930
   23CHL1  H12B 1661   4.944   0.346   5.302 -0.2429  0.3762  0.1304
   23CHL1   C11 1662   4.881   0.472   5.467 -0.1586  0.0517 -0.3880
   23CHL1  H11A 1663   4.817   0.558   5.496 -1.3275 -1.0392  0.3583
   23CHL1  H11B 1664   4.839   0.383   5.518 -1.7160  0.0563 -1.5956
   23CHL1    C9 1665   5.021   0.509   5.524 -0.0850  0.3048 -0.5961
   23CHL1    H9 1666   5.088   0.424   5.499  0.6650  0.9529 -0.8355
   23CHL1   C10 1667   5.026   0.534   5.675  0.1035  0.0243 -0.1899
   23CHL1   C19 1668   4.925   0.648   5.727 -0.4202  0.5401  0.6148
   23CHL1  H19A 1669   4.823   0.604   5.719 -0.2376  0.4298 -1.6200
   23CHL1  H19B 1670   4.934   0.677   5.834 -0.4848 -2.0632  1.4000
   23CHL1  H19C 1671   4.923   0.729   5.651 -1.6298 -1.2643 -1.3811
   23CHL1    C1 1672   4.995   0.397   5.745 -0.1788  0.0270  0.2926
   23CHL1   H1A 1673   4.891   0.360   5.734 -0.2807  0.7186 -1.3959
   23CHL1   H1B 1674   5.064   0.322   5.702  1.8130 -0.0578  3.3376
   23CHL1    C2 1675   5.015   0.409   5.898  0.1519 -0.3089 -0.0418
   23CHL1   H2A 1676   4.987   0.313   5.946 -0.7359 -0.7734 -1.4408
   23CHL1   H2B 1677   4.948   0.483   5.947  1.3932  0.8224  0.0069
   23CHL1   C20 1678   4.881   0.513   4.979 -0.5122 -0.2437 -0.0588
   23CHL1   H20 1679   4.820   0.606   4.982 -0.6748 -0.3465 -0.2346
   23CHL1   C21 1680   4.794   0.390   5.018 -0.0446 -0.7087  0.2987
   23CHL1  H21A 1681   4.865   0.312   5.053 -2.4097 -2.4297  1.5181
   23CHL1  H21B 1682   4.754   0.350   4.922  2.0624  0.0639 -0.9750
   23CHL1  H21C 1683   4.727   0.399   5.106  1.1169  0.5616  1.0872
   23CHL1   C22 1684   4.952   0.496   4.845  0.2352  0.1640 -0.8162
   23CHL1  H22A 1685   5.029   0.574   4.827  0.0712  0.2790 -1.0224
   23CHL1  H22B 1686   5.012   0.403   4.842  0.0984  0.0754 -0.8443
   23CHL1   C23 1687   4.863   0.501   4.715 -0.3827  0.3632 -0.4967
   23CHL1  H23A 1688   4.939   0.518   4.635  3.4808 -1.6560  2.4363
   23CHL1  H23B 1689   4.806   0.407   4.702  1.4822 -0.5551 -2.8972
   23CHL1   C24 1690   4.752   0.605   4.693 -0.5374  0.7699  0.8371
   23CHL1  H24A 1691   4.686   0.593   4.781 -1.2527 -1.4136  0.0594
   23CHL1  H24B 1692   4.810   0.700   4.698  1.1246 -0.1877  0.3882
   23CHL1   C25 1693   4.673   0.609   4.559 -0.0504  0.4515 -0.2129
   23CHL1   H25 1694   4.753   0.613   4.483  1.6442  1.8981  1.5180
   23CHL1   C26 1695   4.576   0.492   4.535  0.2426  0.5732  0.3416
   23CHL1  H26A 1696   4.500   0.460   4.609 -1.6823  1.2308 -1.2742
   23CHL1  H26B 1697   4.540   0.506   4.431  1.0365  0.9536  0.1075
   23CHL1  H26C 1698   4.642   0.403   4.534 -0.3160  0.1401  1.2056
   23CHL1   C27 1699   4.587   0.740   4.558 -0.1456 -0.4072  0.4514
   23CHL1  H27A 1700   4.655   0.827   4.558 -0.0659 -0.2833 -3.5449
   23CHL1  H27B 1701   4.528   0.749   4.464  1.4882  3.7853 -0.3729
   23CHL1  H27C 1702   4.516   0.742   4.644 -1.7760 -0.8842 -0.8412
   24CHL1    C3 1703   6.007   3.181   5.597  0.3756  0.5551 -0.3711
   24CHL1    H3 1704   6.039   3.076   5.614  1.4372  1.1536  1.6822
   24CHL1    O3 1705   5.973   3.228   5.723 -0.2051  0.3710  0.5941
   24CHL1   H3' 1706   6.054   3.220   5.775  2.4598  1.2181 -3.0242
   24CHL1    C4 1707   6.115   3.274   5.544 -0.3413 -0.2064 -0.3535
   24CHL1   H4A 1708   6.090   3.382   5.557  1.2335  0.1537 -0.0912
   24CHL1   H4B 1709   6.209   3.249   5.598 -1.1686 -0.8277  0.8442
   24CHL1    C5 1710   6.143   3.265   5.395 -0.1108  0.0672  0.5115
   24CHL1    C6 1711   6.271   3.253   5.346 -0.7286 -0.5002 -0.7432
   24CHL1    H6 1712   6.353   3.253   5.420  0.5241  2.1116 -2.0288
   24CHL1    C7 1713   6.313   3.218   5.206  0.4251 -0.0101  0.0046
   24CHL1   H7A 1714   6.407   3.268   5.174  0.8525 -1.3108 -0.8464
   24CHL1   H7B 1715   6.322   3.108   5.199  1.5397  0.1427 -1.5484
   24CHL1    C8 1716   6.198   3.248   5.104 -0.6443 -0.4469 -0.7063
   24CHL1    H8 1717   6.184   3.356   5.085  0.4350 -0.3317 -0.9320
   24CHL1   C14 1718   6.236   3.176   4.973  0.7162  0.8083 -0.0858
   24CHL1   H14 1719   6.239   3.067   4.995  0.8117  1.0634  1.2738
   24CHL1   C15 1720   6.364   3.203   4.891 -1.0806 -1.1091  0.3387
   24CHL1  H15A 1721   6.387   3.312   4.898  1.4396 -1.6134  0.5969
   24CHL1  H15B 1722   6.451   3.156   4.940  0.9662  2.1740  0.1806
   24CHL1   C16 1723   6.342   3.160   4.748 -0.2134 -0.3570  0.1224
   24CHL1  H16A 1724   6.345   3.248   4.681 -2.1334 -0.8197 -0.6444
   24CHL1  H16B 1725   6.414   3.081   4.717  1.0680  0.8463 -0.0513
   24CHL1   C17 1726   6.197   3.108   4.750  0.0377  0.7473 -0.0780
   24CHL1   H17 1727   6.187   3.003   4.783  1.2739  0.8879  0.8480
   24CHL1   C13 1728   6.128   3.179   4.865 -0.3933 -0.2255 -1.2973
   24CHL1   C18 1729   6.104   3.325   4.824 -0.5994 -0.3847 -0.2350
   24CHL1  H18A 1730   6.025   3.332   4.747  0.8612  1.1113 -1.6829
   24CHL1  H18B 1731   6.080   3.392   4.909  1.4284 -1.2640  1.1121
   24CHL1  H18C 1732   6.193   3.367   4.772  0.4097 -2.0086  0.1203
   24CHL1   C12 1733   5.995   3.115   4.914 -0.7463 -0.2493 -0.4118
   24CHL1  H12A 1734   5.916   3.123   4.837 -0.8062  3.1596 -0.1619
   24CHL1  H12B 1735   6.012   3.006   4.927  0.3778 -0.4934 -3.2338
   24CHL1   C11 1736   5.954   3.190   5.050  0.2630  0.6713 -0.2004
   24CHL1  H11A 1737   5.930   3.297   5.033 -1.6990  0.0393 -1.7888
   24CHL1  H11B 1738   5.857   3.149   5.084  0.7947 -0.0559  0.4883
   24CHL1    C9 1739   6.063   3.190   5.165 -0.5046  0.5686  0.4921
   24CHL1    H9 1740   6.077   3.080   5.172 -2.8693  0.3012  2.5401
   24CHL1   C10 1741   6.022   3.239   5.304 -0.3656 -0.1972  0.6518
   24CHL1   C19 1742   5.952   3.379   5.295 -0.9478  0.6768 -0.4820
   24CHL1  H19A 1743   5.949   3.428   5.395  0.1229 -2.0273  0.9901
   24CHL1  H19B 1744   6.018   3.436   5.225 -1.6157 -1.1061 -2.6877
   24CHL1  H19C 1745   5.853   3.375   5.245 -0.3582 -3.0488 -1.6661
   24CHL1    C1 1746   5.925   3.149   5.367  0.2766  0.0400 -0.8546
   24CHL1   H1A 1747   5.839   3.143   5.296 -0.9964  0.4066  0.5980
   24CHL1   H1B 1748   5.970   3.048   5.367  2.9552  1.1192  1.9112
   24CHL1    C2 1749   5.886   3.184   5.512  0.1645  0.0582 -0.3443
   24CHL1   H2A 1750   5.806   3.115   5.546  0.4602  0.8845  2.2447
   24CHL1   H2B 1751   5.840   3.285   5.519 -1.0769 -0.4227 -1.2467
   24CHL1   C20 1752   6.118   3.092   4.611 -0.1842  0.1017  0.0906
   24CHL1   H20 1753   6.019   3.139   4.631  0.1776  1.7093 -1.5513
   24CHL1   C21 1754   6.113   2.942   4.570  0.0860  0.0447 -0.4776
   24CHL1  H21A 1755   6.217   2.906   4.552 -0.2989 -1.1350 -0.4157
   24CHL1  H21B 1756   6.050   2.922   4.481 -2.2048 -0.8994  1.2546
   24CHL1  H21C 1757   6.074   2.882   4.655 -0.4569 -0.2621 -0.9426
   24CHL1   C22 1758   6.170   3.181   4.496 -0.0457 -0.1656 -0.0696
   24CHL1  H22A 1759   6.195   3.279   4.543  0.2558  0.1230 -0.8028
   24CHL1  H22B 1760   6.261   3.132   4.454  0.6983 -1.3151  2.6933
   24CHL1   C23 1761   6.065   3.208   4.386  0.2779  0.6608  0.2073
   24CHL1  H23A 1762   5.980   3.251   4.441 -0.3264 -1.2693  0.8696
   24CHL1  H23B 1763   6.097   3.286   4.313 -0.7394  1.9902  1.1481
   24CHL1   C24 1764   6.035   3.093   4.289 -0.0216  0.4135 -0.2429
   24CHL1  H24A 1765   6.133   3.045   4.266  0.8350  0.7441  2.4155
   24CHL1  H24B 1766   5.972   3.005   4.315  1.8682 -1.2933 -1.1968
   24CHL1   C25 1767   5.950   3.132   4.163 -0.4092  0.2725  0.9269
   24CHL1   H25 1768   6.021   3.179   4.092  0.3820  1.2214  2.2971
   24CHL1   C26 1769   5.891   3.008   4.088 -0.1566  0.0763  0.0493
   24CHL1  H26A 1770   5.969   2.933   4.064 -0.9617 -0.4722 -0.9703
   24CHL1  H26B 1771   5.819   2.955   4.154 -1.0616  0.9728 -0.1876
   24CHL1  H26C 1772   5.833   3.029   3.995 -0.3285 -0.0680  0.1227
   24CHL1   C27 1773   5.841   3.241   4.189  0.2957  0.1610 -0.1107
   24CHL1  H27A 1774   5.877   3.311   4.267  2.0259  0.7651 -1.3778
   24CHL1  H27B 1775   5.828   3.297   4.094 -1.1517  1.6359  0.9021
   24CHL1  H27C 1776   5.743   3.198   4.218  1.0286 -1.9404 -0.5047
   25CHL1    C3 1777   4.468   3.696   6.544  0.2985 -0.3624  0.5254
   25CHL1    H3 1778   4.374   3.754   6.534  0.3778 -0.0145  1.6442
   25CHL1    O3 1779   4.493   3.667   6.680 -0.0128 -0.8033  0.1973
   25CHL1   H3' 1780   4.420   3.612   6.711 -0.5015  0.0981  0.6876
   25CHL1    C4 1781   4.460   3.570   6.456 -0.2116 -0.4337  0.8846
   25CHL1   H4A 1782   4.559   3.520   6.456 -0.0843 -0.1874  0.3420
   25CHL1   H4B 1783   4.386   3.501   6.502 -2.5679  1.9274  0.8167
   25CHL1    C5 1784   4.426   3.612   6.311  0.1464 -0.8575  0.2872
   25CHL1    C6 1785   4.312   3.571   6.250  0.2583 -0.3460  0.3568
   25CHL1    H6 1786   4.247   3.511   6.315 -0.7920  0.9502  0.5452
   25CHL1    C7 1787   4.279   3.594   6.108  0.5063 -1.1193 -0.6514
   25CHL1   H7A 1788   4.226   3.508   6.061 -2.6983  0.8696 -0.9350
   25CHL1   H7B 1789   4.204   3.676   6.106  1.1084 -0.4566  1.6928
   25CHL1    C8 1790   4.402   3.650   6.025 -0.1071  0.3255 -1.0123
   25CHL1    H8 1791   4.468   3.562   6.005  0.4175  0.3148  0.6523
   25CHL1   C14 1792   4.362   3.717   5.891  0.4688  0.0929  0.4418
   25CHL1   H14 1793   4.302   3.808   5.913  0.9323  0.3799  0.5483
   25CHL1   C15 1794   4.273   3.636   5.797  0.5027 -0.1834  0.2854
   25CHL1  H15A 1795   4.311   3.531   5.800  1.0355 -0.0246 -0.4406
   25CHL1  H15B 1796   4.167   3.638   5.829 -0.6712  0.1740 -3.1708
   25CHL1   C16 1797   4.297   3.705   5.663  1.3402 -0.2591 -0.6628
   25CHL1  H16A 1798   4.343   3.637   5.589  0.4893  0.4598 -1.8879
   25CHL1  H16B 1799   4.197   3.719   5.617  1.3674  0.4050 -0.5297
   25CHL1   C17 1800   4.395   3.825   5.684  0.2914 -0.3536  0.4428
   25CHL1   H17 1801   4.330   3.912   5.711 -1.6683 -1.3078 -0.9329
   25CHL1   C13 1802   4.477   3.782   5.812 -0.7064 -1.0064 -0.4116
   25CHL1   C18 1803   4.589   3.688   5.778  0.0775 -0.0060 -0.0980
   25CHL1  H18A 1804   4.658   3.667   5.862  2.2619 -0.5140 -1.9023
   25CHL1  H18B 1805   4.550   3.589   5.745 -0.7110 -0.5208  2.1883
   25CHL1  H18C 1806   4.650   3.730   5.696 -1.6066 -0.6745 -1.7818
   25CHL1   C12 1807   4.521   3.900   5.894  0.0424  0.4606  0.2153
   25CHL1  H12A 1808   4.609   3.957   5.858  0.5548  1.4327  2.7663
   25CHL1  H12B 1809   4.438   3.974   5.903 -0.5296 -0.2219  0.6840
   25CHL1   C11 1810   4.564   3.858   6.034  0.1221 -0.2185  0.0894
   25CHL1  H11A 1811   4.663   3.808   6.024  0.3726  0.2410  0.2218
   25CHL1  H11B 1812   4.584   3.947   6.098  1.5661 -0.9647  0.7042
   25CHL1    C9 1813   4.464   3.763   6.105  0.2134  0.1326 -0.0438
   25CHL1    H9 1814   4.381   3.832   6.130  0.9310  0.6683  0.9699
   25CHL1   C10 1815   4.522   3.704   6.244  0.4243  0.4994 -0.1532
   25CHL1   C19 1816   4.643   3.614   6.216  0.4989  0.0799 -0.2401
   25CHL1  H19A 1817   4.649   3.512   6.261 -0.1880  1.0092  2.0822
   25CHL1  H19B 1818   4.650   3.599   6.106 -2.5741  2.5441 -0.8850
   25CHL1  H19C 1819   4.730   3.682   6.232  1.8477 -1.1362 -1.9500
   25CHL1    C1 1820   4.560   3.819   6.341 -0.2498  1.2107  0.3821
   25CHL1   H1A 1821   4.648   3.861   6.288  0.4282 -1.2007 -0.5590
   25CHL1   H1B 1822   4.475   3.891   6.341 -2.0279 -0.7596  0.2903
   25CHL1    C2 1823   4.584   3.787   6.486  0.3824  0.6159 -0.4035
   25CHL1   H2A 1824   4.595   3.879   6.547  3.3403 -0.0059  0.1514
   25CHL1   H2B 1825   4.677   3.726   6.484  0.0405  0.0850 -0.4275
   25CHL1   C20 1826   4.455   3.868   5.551  0.2698  0.3128 -0.3655
   25CHL1   H20 1827   4.513   3.780   5.516 -1.6604 -1.5749  0.9385
   25CHL1   C21 1828   4.550   3.987   5.578 -0.0561  0.1218 -0.1845
   25CHL1  H21A 1829   4.601   4.022   5.485 -1.2422 -0.1227 -0.9520
   25CHL1  H21B 1830   4.634   3.948   5.639 -0.4403  1.1135  1.0181
   25CHL1  H21C 1831   4.503   4.069   5.636  0.9897 -1.3866  3.0106
   25CHL1   C22 1832   4.358   3.910   5.441  0.4086  0.8664  0.1118
   25CHL1  H22A 1833   4.265   3.956   5.480  1.4233  1.4915  1.9112
   25CHL1  H22B 1834   4.412   3.982   5.377  0.5584  1.2213  0.6310
   25CHL1   C23 1835   4.324   3.793   5.349  0.4275  0.6046 -0.5833
   25CHL1  H23A 1836   4.292   3.704   5.408 -0.8487  1.0728 -0.5409
   25CHL1  H23B 1837   4.236   3.821   5.288  0.3190  0.5673 -0.4425
   25CHL1   C24 1838   4.442   3.754   5.258 -0.3214 -0.2949  0.7130
   25CHL1  H24A 1839   4.473   3.844   5.200  0.3542 -0.4214  0.8649
   25CHL1  H24B 1840   4.522   3.718   5.327 -0.3921 -1.8231  0.0410
   25CHL1   C25 1841   4.403   3.652   5.151  0.1595  0.0786 -0.4851
   25CHL1   H25 1842   4.379   3.560   5.207  0.3950  0.0426 -0.4423
   25CHL1   C26 1843   4.283   3.694   5.060 -0.4057  0.3552 -0.0559
   25CHL1  H26A 1844   4.310   3.785   5.002  1.9246  0.2978  0.8389
   25CHL1  H26B 1845   4.261   3.617   4.983 -0.9748  0.3661  0.0862
   25CHL1  H26C 1846   4.190   3.716   5.118  0.3051  2.1017  0.4933
   25CHL1   C27 1847   4.519   3.607   5.066  0.3251 -0.5300 -0.1946
   25CHL1  H27A 1848   4.563   3.695   5.014  1.1202 -1.9130 -1.9930
   25CHL1  H27B 1849   4.600   3.573   5.135  0.0483 -0.5194  0.1328
   25CHL1  H27C 1850   4.497   3.526   4.992 -0.5126 -1.2579  0.8324
   26CHL1    C3 1851   6.831   5.064   6.057 -0.2135  0.2473 -0.3782
   26CHL1    H3 1852   6.937   5.085   6.032 -0.7594  2.8790 -0.8585
   26CHL1    O3 1853   6.814   5.082   6.197 -0.2338  0.0921 -0.2110
   26CHL1   H3' 1854   6.720   5.063   6.203 -0.1922  0.1019  0.5013
   26CHL1    C4 1855   6.727   5.155   5.990  1.2476 -0.0692 -0.5811
   26CHL1   H4A 1856   6.636   5.112   6.036  0.5689 -2.0275 -3.4665
   26CHL1   H4B 1857   6.748   5.260   6.019  1.9562 -0.2243 -0.4967
   26CHL1    C5 1858   6.717   5.133   5.838  0.3627 -0.9153 -0.3169
   26CHL1    C6 1859   6.731   5.240   5.753 -0.3050 -0.7892  0.5829
   26CHL1    H6 1860   6.756   5.343   5.785 -0.2305 -1.0103  1.2647
   26CHL1    C7 1861   6.743   5.221   5.606  0.4676 -0.4698  0.7733
   26CHL1   H7A 1862   6.688   5.303   5.555  2.6257  2.7971  3.3151
   26CHL1   H7B 1863   6.849   5.223   5.575  0.4314 -3.3302  0.1820
   26CHL1    C8 1864   6.688   5.085   5.548  0.2834  0.1702  0.6627
   26CHL1    H8 1865   6.577   5.080   5.556  0.1999 -0.0272 -0.4451
   26CHL1   C14 1866   6.721   5.065   5.394 -0.1366  0.5087 -0.5212
   26CHL1   H14 1867   6.832   5.053   5.400 -0.4441 -2.3622  1.5360
   26CHL1   C15 1868   6.697   5.178   5.297  0.0522  0.5023  0.1690
   26CHL1  H15A 1869   6.594   5.219   5.310 -0.2511  0.4755 -1.7989
   26CHL1  H15B 1870   6.775   5.257   5.299  1.2116 -0.4052 -2.9216
   26CHL1   C16 1871   6.688   5.107   5.156 -0.6859 -0.1639  0.0189
   26CHL1  H16A 1872   6.585   5.128   5.120 -0.2819 -1.3862 -2.0145
   26CHL1  H16B 1873   6.765   5.152   5.090  0.3986 -2.2307 -0.2337
   26CHL1   C17 1874   6.723   4.954   5.187  0.3684 -0.2476  0.3250
   26CHL1   H17 1875   6.834   4.950   5.197  0.2638 -0.2761  1.7637
   26CHL1   C13 1876   6.672   4.943   5.332 -0.5631 -0.3274 -0.5837
   26CHL1   C18 1877   6.514   4.935   5.341  0.0429 -0.1634  0.1881
   26CHL1  H18A 1878   6.479   4.957   5.444 -0.1440  0.2175  0.0452
   26CHL1  H18B 1879   6.460   5.007   5.276 -0.3935 -0.6422  0.0101
   26CHL1  H18C 1880   6.474   4.838   5.303 -0.7599  0.4118 -0.4783
   26CHL1   C12 1881   6.726   4.823   5.423 -0.4837  0.0178 -0.1582
   26CHL1  H12A 1882   6.681   4.725   5.396  1.4283 -0.1553 -3.2050
   26CHL1  H12B 1883   6.836   4.815   5.409 -0.2508  1.4425  0.6967
   26CHL1   C11 1884   6.708   4.841   5.578 -0.3890  0.3182  0.0383
   26CHL1  H11A 1885   6.602   4.814   5.596 -0.0208 -1.9962 -0.8430
   26CHL1  H11B 1886   6.768   4.757   5.619 -0.8658 -1.5053 -2.6915
   26CHL1    C9 1887   6.743   4.972   5.640 -0.1892  0.5502  0.0358
   26CHL1    H9 1888   6.853   4.980   5.633 -0.1063 -0.0636  0.5228
   26CHL1   C10 1889   6.702   4.989   5.787  0.6143  0.6695  0.6963
   26CHL1   C19 1890   6.564   4.932   5.817  0.4411 -0.2295  0.4269
   26CHL1  H19A 1891   6.564   4.821   5.804  0.9435 -0.5265  2.5448
   26CHL1  H19B 1892   6.523   4.970   5.913 -2.1889  1.7846 -1.3435
   26CHL1  H19C 1893   6.479   4.976   5.761 -0.2211  0.3592  1.8309
   26CHL1    C1 1894   6.797   4.900   5.872 -0.2471 -0.0596 -0.6782
   26CHL1   H1A 1895   6.774   4.792   5.854 -0.5638 -0.1278  0.1019
   26CHL1   H1B 1896   6.900   4.927   5.841  0.4205  1.5406  2.5725
   26CHL1    C2 1897   6.803   4.919   6.018 -0.6507 -0.2538 -0.4889
   26CHL1   H2A 1898   6.891   4.862   6.056  0.6594  1.4264 -0.8900
   26CHL1   H2B 1899   6.708   4.878   6.059 -0.0832 -2.7279 -1.4424
   26CHL1   C20 1900   6.667   4.856   5.084 -0.4471  0.8968  0.9474
   26CHL1   H20 1901   6.557   4.864   5.079 -0.5041  1.5979  2.6247
   26CHL1   C21 1902   6.697   4.709   5.111  0.1072 -0.0490  0.2574
   26CHL1  H21A 1903   6.617   4.683   5.184 -0.4625  1.3324  0.1502
   26CHL1  H21B 1904   6.798   4.695   5.156  0.7661  0.7925 -0.9158
   26CHL1  H21C 1905   6.693   4.652   5.016  3.3793 -0.6687  0.3795
   26CHL1   C22 1906   6.741   4.889   4.949  0.0658 -0.8197 -0.3421
   26CHL1  H22A 1907   6.736   4.997   4.925  2.2813 -0.0802  2.1249
   26CHL1  H22B 1908   6.850   4.870   4.961  0.3668  1.5378  1.3123
   26CHL1   C23 1909   6.681   4.812   4.826 -0.9372 -0.5748 -0.5109
   26CHL1  H23A 1910   6.726   4.710   4.826  1.3872  0.3712 -0.1349
   26CHL1  H23B 1911   6.572   4.802   4.839 -0.7223 -1.3539  0.9142
   26CHL1   C24 1912   6.710   4.861   4.682 -0.0371  0.6664 -0.4590
   26CHL1  H24A 1913   6.677   4.967   4.682 -0.0716  0.6926  1.5252
   26CHL1  H24B 1914   6.819   4.874   4.669  0.1878 -0.3197  0.2994
   26CHL1   C25 1915   6.649   4.770   4.579  0.0984 -0.0726  0.0755
   26CHL1   H25 1916   6.541   4.749   4.593  0.8311 -2.7295  2.4776
   26CHL1   C26 1917   6.665   4.850   4.445 -0.5809  0.8138 -0.3231
   26CHL1  H26A 1918   6.620   4.788   4.365 -0.9859 -0.3548  0.7791
   26CHL1  H26B 1919   6.620   4.951   4.455 -1.6867  0.3360 -0.2992
   26CHL1  H26C 1920   6.775   4.859   4.434 -0.4395  1.7771  1.4920
   26CHL1   C27 1921   6.727   4.635   4.566 -0.1328 -1.0121  0.1804
   26CHL1  H27A 1922   6.834   4.659   4.548  0.0406 -2.2751 -0.5788
   26CHL1  H27B 1923   6.737   4.583   4.664 -1.4009  1.5445  1.7556
   26CHL1  H27C 1924   6.683   4.565   4.492 -0.1406 -0.2498 -0.5501
   27CHL1    C3 1925   6.725   6.683   6.078  0.0042 -0.3286  0.1659
   27CHL1    H3 1926   6.618   6.659   6.061  0.6135 -2.9599 -0.5497
   27CHL1    O3 1927   6.743   6.670   6.217 -0.3170  0.0087  0.1307
   27CHL1   H3' 1928   6.729   6.578   6.237  1.6338 -0.1673  0.9031
   27CHL1    C4 1929   6.807   6.580   6.001  0.0424 -0.2397  0.0204
   27CHL1   H4A 1930   6.912   6.607   6.026  0.4672  0.3780 -2.1739
   27CHL1   H4B 1931   6.804   6.476   6.039  2.8196 -1.0336 -1.5780
   27CHL1    C5 1932   6.786   6.584   5.851  0.1277  0.2967 -0.2064
   27CHL1    C6 1933   6.750   6.478   5.782 -0.4063  0.7309  0.0857
   27CHL1    H6 1934   6.724   6.378   5.820  1.1594 -0.3549 -1.5252
   27CHL1    C7 1935   6.753   6.472   5.631 -0.1681  0.1405  0.1453
   27CHL1   H7A 1936   6.812   6.381   5.607  0.5030 -0.1779  2.7714
   27CHL1   H7B 1937   6.652   6.458   5.588 -0.8010  2.1966  0.8191
   27CHL1    C8 1938   6.813   6.600   5.565 -0.1268  0.5397 -0.0534
   27CHL1    H8 1939   6.923   6.582   5.567 -0.4882 -2.1262  2.5137
   27CHL1   C14 1940   6.767   6.614   5.419  0.3720  0.5024 -0.9072
   27CHL1   H14 1941   6.656   6.623   5.427  0.4059  0.8508 -0.8081
   27CHL1   C15 1942   6.795   6.491   5.328 -0.1493 -0.4941 -0.0894
   27CHL1  H15A 1943   6.899   6.457   5.347  1.0910  2.5016 -0.8999
   27CHL1  H15B 1944   6.737   6.399   5.349 -0.8316  0.1676  1.0728
   27CHL1   C16 1945   6.785   6.549   5.192 -0.4171 -0.4414  0.2684
   27CHL1  H16A 1946   6.882   6.530   5.141 -0.2323 -0.0010  0.4469
   27CHL1  H16B 1947   6.708   6.506   5.125 -1.9545 -0.9332  2.2547
   27CHL1   C17 1948   6.767   6.705   5.199 -0.3267 -0.8447  0.4993
   27CHL1   H17 1949   6.659   6.729   5.207 -0.1344  0.0919  0.3462
   27CHL1   C13 1950   6.816   6.739   5.342  0.1687  0.2363  0.1495
   27CHL1   C18 1951   6.976   6.742   5.349  0.1816  0.1278  1.2008
   27CHL1  H18A 1952   7.014   6.641   5.323  3.7760  1.1841  1.7751
   27CHL1  H18B 1953   7.021   6.820   5.284  1.3409 -0.8410  0.7992
   27CHL1  H18C 1954   7.010   6.759   5.454  1.8265  0.4008  0.6523
   27CHL1   C12 1955   6.754   6.864   5.406  0.7442 -0.0516 -0.2743
   27CHL1  H12A 1956   6.797   6.954   5.359 -0.9686 -0.3202 -2.5087
   27CHL1  H12B 1957   6.644   6.873   5.397  0.8911 -0.1659 -2.6519
   27CHL1   C11 1958   6.782   6.861   5.557  0.0198  0.1862  0.2314
   27CHL1  H11A 1959   6.887   6.897   5.565  0.5074 -1.4549  1.9865
   27CHL1  H11B 1960   6.723   6.943   5.602 -2.1156  0.6040 -2.9712
   27CHL1    C9 1961   6.769   6.722   5.639 -0.9309 -0.3226 -0.6012
   27CHL1    H9 1962   6.658   6.717   5.639 -0.9003 -1.5608  0.4563
   27CHL1   C10 1963   6.808   6.726   5.784  0.0976  0.0066 -1.0844
   27CHL1   C19 1964   6.961   6.753   5.791 -0.4365  0.2864  0.4371
   27CHL1  H19A 1965   7.017   6.765   5.886 -0.0154 -0.8562  0.3438
   27CHL1  H19B 1966   7.013   6.673   5.735  0.6439  0.0668  1.7114
   27CHL1  H19C 1967   7.006   6.829   5.724  3.8527 -2.5422 -0.2349
   27CHL1    C1 1968   6.729   6.827   5.871 -0.3046 -0.4255  0.2384
   27CHL1   H1A 1969   6.753   6.923   5.820  2.1000 -1.0980 -0.0492
   27CHL1   H1B 1970   6.620   6.819   5.850 -0.3965  1.7514 -0.3461
   27CHL1    C2 1971   6.757   6.822   6.022 -0.5627  0.1441  0.3014
   27CHL1   H2A 1972   6.704   6.896   6.085 -2.1253 -1.9862  1.6387
   27CHL1   H2B 1973   6.863   6.844   6.048 -0.2215  0.3759 -1.2037
   27CHL1   C20 1974   6.829   6.783   5.080 -0.3682  0.1555 -0.3498
   27CHL1   H20 1975   6.939   6.788   5.093 -0.6625  1.6986  2.2955
   27CHL1   C21 1976   6.783   6.937   5.078  0.1643 -1.1141 -0.4123
   27CHL1  H21A 1977   6.842   6.969   4.989 -1.0087 -1.5440 -1.3767
   27CHL1  H21B 1978   6.805   6.992   5.172 -1.9688  0.0373 -0.5386
   27CHL1  H21C 1979   6.674   6.946   5.058  0.4074  0.8869 -1.1046
   27CHL1   C22 1980   6.790   6.727   4.938  0.4717 -0.2050 -1.1803
   27CHL1  H22A 1981   6.807   6.618   4.938  0.9440 -0.1642  0.3637
   27CHL1  H22B 1982   6.682   6.754   4.933  0.2856 -0.5008  0.6108
   27CHL1   C23 1983   6.876   6.783   4.823  0.0183  0.6580 -0.0255
   27CHL1  H23A 1984   6.863   6.892   4.804 -2.3145  0.2064 -1.3497
   27CHL1  H23B 1985   6.979   6.779   4.866  0.1024  2.0761 -0.0605
   27CHL1   C24 1986   6.859   6.709   4.693  0.3216  0.1996 -0.2018
   27CHL1  H24A 1987   6.849   6.601   4.713  0.1581  0.2567  0.0252
   27CHL1  H24B 1988   6.759   6.735   4.651 -0.3315 -1.1256  0.4685
   27CHL1   C25 1989   6.967   6.748   4.586  0.0389  0.0422 -0.2327
   27CHL1   H25 1990   7.065   6.722   4.632 -1.5024 -3.2575  1.6313
   27CHL1   C26 1991   6.951   6.653   4.468  0.1121  0.0660 -0.2320
   27CHL1  H26A 1992   6.931   6.547   4.493 -2.4610  0.4890 -0.2574
   27CHL1  H26B 1993   6.862   6.681   4.407 -1.1316 -0.8499  1.0918
   27CHL1  H26C 1994   7.039   6.663   4.401 -1.0405 -0.2535 -1.8492
   27CHL1   C27 1995   6.955   6.894   4.537 -0.0152  0.9181 -0.2744
   27CHL1  H27A 1996   7.049   6.922   4.485 -0.1673  0.3473 -0.8699
   27CHL1  H27B 1997   6.872   6.905   4.464 -1.0293 -0.2524  0.6534
   27CHL1  H27C 1998   6.941   6.956   4.628  1.2298  0.6861  0.0963
   28CHL1    C3 1999   4.125   2.157   5.726 -0.1716 -0.4506 -0.6598
   28CHL1    H3 2000   4.227   2.160   5.682  0.0592  0.8837 -0.0855
   28CHL1    O3 2001   4.130   2.135   5.866 -0.8096 -0.0706  0.2376
   28CHL1   H3' 2002   4.181   2.209   5.900  0.2293 -0.8529  0.4087
   28CHL1    C4 2003   4.046   2.284   5.705 -0.8790  0.6876  0.4088
   28CHL1   H4A 2004   3.950   2.272   5.761  0.5778  0.8099  3.1312
   28CHL1   H4B 2005   4.106   2.367   5.750 -0.3621  0.7043 -0.3004
   28CHL1    C5 2006   4.020   2.323   5.559 -0.4739 -0.0879 -0.1643
   28CHL1    C6 2007   4.047   2.437   5.498  0.2294 -0.1914 -0.5839
   28CHL1    H6 2008   4.094   2.519   5.554  0.2844 -1.0956  0.7457
   28CHL1    C7 2009   4.005   2.467   5.356  0.3791  0.0876 -0.6108
   28CHL1   H7A 2010   3.947   2.561   5.368  1.9946  0.8789  1.7767
   28CHL1   H7B 2011   4.081   2.508   5.286  0.2415  2.6992  0.6106
   28CHL1    C8 2012   3.915   2.364   5.285  0.0499 -0.2245  0.2138
   28CHL1    H8 2013   3.809   2.382   5.314 -0.6338 -0.3931 -1.9458
   28CHL1   C14 2014   3.930   2.380   5.132  0.1494  0.4390  0.8667
   28CHL1   H14 2015   4.035   2.349   5.112 -0.7356 -0.7309 -2.5229
   28CHL1   C15 2016   3.919   2.525   5.068 -0.3223 -0.0438  1.0855
   28CHL1  H15A 2017   3.834   2.579   5.114  0.3839  1.5986  0.5277
   28CHL1  H15B 2018   4.006   2.593   5.081 -0.4523  0.2549  0.4266
   28CHL1   C16 2019   3.884   2.485   4.924  0.0811  0.3848  0.4162
   28CHL1  H16A 2020   3.793   2.538   4.888 -0.3832 -1.6556 -1.7134
   28CHL1  H16B 2021   3.965   2.520   4.856 -1.5359  0.9886 -1.3040
   28CHL1   C17 2022   3.875   2.325   4.906 -0.0482  0.3110 -0.0774
   28CHL1   H17 2023   3.979   2.291   4.888  0.2753  0.9498  0.5046
   28CHL1   C13 2024   3.846   2.278   5.055  0.2121 -0.5364  0.0936
   28CHL1   C18 2025   3.698   2.304   5.090  0.1931 -0.4267  0.2445
   28CHL1  H18A 2026   3.627   2.240   5.033  0.5726 -0.5964 -0.0345
   28CHL1  H18B 2027   3.662   2.277   5.192 -0.2357  1.1320  0.5326
   28CHL1  H18C 2028   3.662   2.407   5.069  2.2163  0.7277  2.0239
   28CHL1   C12 2029   3.894   2.136   5.098 -0.5764  0.0433  0.1800
   28CHL1  H12A 2030   3.827   2.066   5.044  0.0903 -1.2541  1.0012
   28CHL1  H12B 2031   3.997   2.116   5.062 -0.7055  0.8177 -0.6361
   28CHL1   C11 2032   3.880   2.108   5.250  0.4534 -0.5128 -0.0908
   28CHL1  H11A 2033   3.771   2.115   5.269  0.3916  0.1507 -0.6464
   28CHL1  H11B 2034   3.903   2.003   5.277  0.5469 -0.4876 -0.0730
   28CHL1    C9 2035   3.952   2.223   5.331 -0.3102  0.1394  0.0400
   28CHL1    H9 2036   4.058   2.216   5.300 -0.3050  1.9171 -0.4123
   28CHL1   C10 2037   3.948   2.204   5.484 -0.5067 -0.6015  0.2839
   28CHL1   C19 2038   3.803   2.186   5.521  0.0676  0.1292 -0.5760
   28CHL1  H19A 2039   3.756   2.095   5.477  0.3888 -0.7917  0.9089
   28CHL1  H19B 2040   3.788   2.181   5.631  0.3542  0.1508 -0.5365
   28CHL1  H19C 2041   3.731   2.264   5.487 -0.6376  0.4393  1.5054
   28CHL1    C1 2042   4.024   2.073   5.510  0.1947  0.3682 -0.4016
   28CHL1   H1A 2043   3.978   1.982   5.465 -1.1701  0.7921  0.0917
   28CHL1   H1B 2044   4.121   2.085   5.457  0.6353 -0.8137  0.1206
   28CHL1    C2 2045   4.054   2.035   5.660  0.5628 -0.5776  0.6333
   28CHL1   H2A 2046   4.116   1.944   5.668  0.8870 -0.4591 -0.3621
   28CHL1   H2B 2047   3.955   2.019   5.709 -0.3959 -1.2862 -1.4282
   28CHL1   C20 2048   3.791   2.277   4.790  0.1639  0.7895  0.2025
   28CHL1   H20 2049   3.693   2.328   4.788 -0.4307 -0.1718  2.0456
   28CHL1   C21 2050   3.768   2.124   4.797  0.1058  0.1105 -0.3356
   28CHL1  H21A 2051   3.717   2.083   4.707 -0.6010 -1.8217  0.8953
   28CHL1  H21B 2052   3.696   2.104   4.879 -0.4832 -0.0400 -0.8734
   28CHL1  H21C 2053   3.861   2.068   4.817  1.9301  2.9847 -0.2581
   28CHL1   C22 2054   3.859   2.314   4.659 -0.2406  0.0891  0.3713
   28CHL1  H22A 2055   3.810   2.275   4.567 -2.4007  0.1002  1.4623
   28CHL1  H22B 2056   3.871   2.424   4.647  0.3091 -0.1023 -0.9633
   28CHL1   C23 2057   3.990   2.250   4.633 -0.1907  0.5639  0.1826
   28CHL1  H23A 2058   4.065   2.306   4.692 -0.8709 -0.0506  1.6860
   28CHL1  H23B 2059   3.995   2.145   4.670  1.4846  0.9163  1.0728
   28CHL1   C24 2060   4.032   2.262   4.488  0.3995 -0.2730 -0.5480
   28CHL1  H24A 2061   3.966   2.201   4.423 -0.6769  0.6039 -0.3207
   28CHL1  H24B 2062   4.035   2.371   4.466 -1.0355  0.7643  3.4455
   28CHL1   C25 2063   4.173   2.208   4.448  0.7937 -0.1868 -0.3052
   28CHL1   H25 2064   4.194   2.108   4.490  1.5517  0.8577  1.9681
   28CHL1   C26 2065   4.196   2.203   4.296 -0.1871 -0.1897 -0.3653
   28CHL1  H26A 2066   4.294   2.163   4.263 -0.3273 -0.2444 -0.7148
   28CHL1  H26B 2067   4.127   2.134   4.243  0.4206 -1.2782  0.2276
   28CHL1  H26C 2068   4.194   2.304   4.248  2.3565  0.1219  0.0442
   28CHL1   C27 2069   4.281   2.294   4.517 -0.0313  0.3034 -0.3280
   28CHL1  H27A 2070   4.269   2.395   4.473 -1.9453  0.0852 -0.3949
   28CHL1  H27B 2071   4.259   2.304   4.625 -0.8090 -0.3771 -0.4155
   28CHL1  H27C 2072   4.380   2.248   4.495 -0.5768  0.0978 -2.6188
   29CHL1    C3 2073   1.889   6.609   2.462  0.7634 -0.3602  0.2392
   29CHL1    H3 2074   1.890   6.503   2.495 -2.0786 -0.9709 -1.2733
   29CHL1    O3 2075   1.845   6.613   2.326 -0.0505 -0.5347  0.3145
   29CHL1   H3' 2076   1.880   6.534   2.284 -1.5694 -2.4023  2.3413
   29CHL1    C4 2077   1.778   6.681   2.543 -0.2780 -0.0599  0.1523
   29CHL1   H4A 2078   1.768   6.786   2.508 -1.6079  0.4679  1.9873
   29CHL1   H4B 2079   1.677   6.641   2.522 -0.3809 -1.3057  2.6626
   29CHL1    C5 2080   1.808   6.680   2.691 -0.3024  0.1673  1.1638
   29CHL1    C6 2081   1.722   6.647   2.784 -0.2150  0.3916 -0.2390
   29CHL1    H6 2082   1.627   6.604   2.748  0.3778  0.1824 -1.5939
   29CHL1    C7 2083   1.738   6.646   2.931 -0.1146  0.5340 -0.7460
   29CHL1   H7A 2084   1.653   6.689   2.988  1.2370  0.6015  1.3261
   29CHL1   H7B 2085   1.751   6.540   2.963  2.5062  0.9775 -0.1243
   29CHL1    C8 2086   1.869   6.722   2.971 -0.0250 -0.0841  0.5132
   29CHL1    H8 2087   1.849   6.831   2.961  2.8380  0.6377  1.5973
   29CHL1   C14 2088   1.904   6.703   3.109 -0.2823  0.8492  0.2096
   29CHL1   H14 2089   1.922   6.593   3.115  0.6483  0.9945  0.2238
   29CHL1   C15 2090   1.796   6.723   3.217 -0.2489  0.3815  0.3288
   29CHL1  H15A 2091   1.744   6.815   3.182 -0.0714  0.9726  1.5595
   29CHL1  H15B 2092   1.725   6.638   3.221 -0.7898  0.6193 -2.4596
   29CHL1   C16 2093   1.878   6.750   3.343  0.6640 -0.1990 -0.5303
   29CHL1  H16A 2094   1.871   6.859   3.364 -1.4727 -0.5164  0.6648
   29CHL1  H16B 2095   1.845   6.690   3.431 -0.2076  1.7297  0.5123
   29CHL1   C17 2096   2.030   6.733   3.308 -0.2437  0.1588  0.1715
   29CHL1   H17 2097   2.058   6.625   3.310 -1.3805 -0.1515  0.4565
   29CHL1   C13 2098   2.031   6.772   3.155 -0.4904 -0.8132  0.1195
   29CHL1   C18 2099   2.018   6.922   3.142 -0.4597 -0.1893  0.4025
   29CHL1  H18A 2100   1.941   6.973   3.204 -2.4816 -0.3735 -1.8171
   29CHL1  H18B 2101   2.113   6.963   3.182 -0.0622 -2.1337  1.5626
   29CHL1  H18C 2102   1.999   6.963   3.041 -1.9150 -0.4361  0.5490
   29CHL1   C12 2103   2.149   6.712   3.078  0.0732  0.3349 -0.1060
   29CHL1  H12A 2104   2.248   6.747   3.113 -0.7406  2.6474  0.0549
   29CHL1  H12B 2105   2.148   6.604   3.105 -1.3920  0.0658 -1.0985
   29CHL1   C11 2106   2.120   6.732   2.925  0.3064 -0.3326 -0.7065
   29CHL1  H11A 2107   2.121   6.842   2.906 -1.9661 -0.4272 -1.7843
   29CHL1  H11B 2108   2.195   6.672   2.871  1.4849 -0.4934  1.0365
   29CHL1    C9 2109   1.984   6.678   2.872 -0.2837  0.1231 -0.2724
   29CHL1    H9 2110   1.993   6.569   2.886 -0.8477 -0.1967 -2.0993
   29CHL1   C10 2111   1.955   6.714   2.724  0.4616 -0.7364  0.0751
   29CHL1   C19 2112   1.968   6.866   2.704 -0.5756 -0.0242 -0.0166
   29CHL1  H19A 2113   2.071   6.908   2.702 -1.7745  3.2077 -1.0979
   29CHL1  H19B 2114   1.935   6.893   2.601  0.0701  0.1749 -0.1744
   29CHL1  H19C 2115   1.911   6.922   2.782 -0.1678 -1.5165  1.4006
   29CHL1    C1 2116   2.056   6.647   2.632  0.5692  0.1636  0.0892
   29CHL1   H1A 2117   2.157   6.681   2.661  0.0049  1.0284  1.1348
   29CHL1   H1B 2118   2.049   6.536   2.635 -0.6854  0.0036 -3.5705
   29CHL1    C2 2119   2.027   6.666   2.481 -0.0691  0.2834 -0.4316
   29CHL1   H2A 2120   2.091   6.600   2.419  2.7612  0.9102  1.6482
   29CHL1   H2B 2121   2.041   6.774   2.460  1.4078  0.3637  0.8174
   29CHL1   C20 2122   2.120   6.806   3.410  0.3777  0.5850 -0.2228
   29CHL1   H20 2123   2.076   6.908   3.409 -1.6992 -0.1724 -4.0720
   29CHL1   C21 2124   2.273   6.824   3.376 -0.5902  0.1264 -0.3431
   29CHL1  H21A 2125   2.329   6.897   3.439  1.0629 -1.8041  0.5499
   29CHL1  H21B 2126   2.291   6.878   3.281  2.7344  1.4550  0.8997
   29CHL1  H21C 2127   2.324   6.725   3.380  0.3441  0.5608 -1.1566
   29CHL1   C22 2128   2.108   6.750   3.556  0.3153  0.4563  0.4973
   29CHL1  H22A 2129   2.006   6.714   3.582  0.2456  0.3509  0.0872
   29CHL1  H22B 2130   2.173   6.660   3.558  0.0259  0.1780 -0.9759
   29CHL1   C23 2131   2.150   6.852   3.664  0.4510  1.2910  0.2710
   29CHL1  H23A 2132   2.259   6.872   3.670  0.7611  0.2428 -1.3331
   29CHL1  H23B 2133   2.093   6.947   3.652  0.9547  1.6253  0.4794
   29CHL1   C24 2134   2.121   6.801   3.800  0.5978  0.3041 -0.4004
   29CHL1  H24A 2135   2.023   6.749   3.803  2.6598 -3.9553  0.2351
   29CHL1  H24B 2136   2.191   6.717   3.818  0.5598 -0.1918 -2.2871
   29CHL1   C25 2137   2.131   6.898   3.919  0.0165  0.0459  0.3692
   29CHL1   H25 2138   2.231   6.947   3.917  1.2885 -2.4429 -0.2649
   29CHL1   C26 2139   2.026   6.998   3.920  0.6707  0.3757 -0.1295
   29CHL1  H26A 2140   1.930   6.954   3.952  1.6448 -0.6398  1.5462
   29CHL1  H26B 2141   2.051   7.082   3.989  1.4338 -0.0872  0.1699
   29CHL1  H26C 2142   2.005   7.045   3.822  0.4995  2.9172  1.0318
   29CHL1   C27 2143   2.126   6.839   4.060 -0.4060 -0.1845 -0.0859
   29CHL1  H27A 2144   2.184   6.745   4.074 -0.4633 -0.1560  0.3560
   29CHL1  H27B 2145   2.175   6.908   4.133  1.2864  0.4113 -1.7071
   29CHL1  H27C 2146   2.019   6.824   4.083  0.1579 -2.2651  1.5346
   30CHL1    C3 2147   0.369   5.573   2.617  0.1854 -0.4250 -0.6602
   30CHL1    H3 2148   0.258   5.568   2.620  0.1288  0.9531  1.5340
   30CHL1    O3 2149   0.420   5.559   2.482  0.1826  0.1892 -0.4606
   30CHL1   H3' 2150   0.513   5.549   2.504 -0.5749 -0.7995  2.9201
   30CHL1    C4 2151   0.416   5.708   2.666 -0.3475  0.1298  0.6515
   30CHL1   H4A 2152   0.526   5.699   2.661 -0.1233  2.2080  1.1844
   30CHL1   H4B 2153   0.389   5.789   2.596  1.0443 -0.6129 -0.8060
   30CHL1    C5 2154   0.363   5.728   2.805 -0.4599 -0.4722 -0.2507
   30CHL1    C6 2155   0.287   5.835   2.831 -0.2567  0.5488  1.0029
   30CHL1    H6 2156   0.270   5.912   2.755  0.3329 -0.0347  0.2560
   30CHL1    C7 2157   0.224   5.864   2.962  0.0470  0.0646 -0.1514
   30CHL1   H7A 2158   0.241   5.973   2.976 -0.6515  0.0110  1.3130
   30CHL1   H7B 2159   0.118   5.831   2.963  0.3527 -1.0615  2.2698
   30CHL1    C8 2160   0.292   5.783   3.077 -0.1387 -0.1068  1.0897
   30CHL1    H8 2161   0.391   5.831   3.092  0.0632  1.0502 -2.8206
   30CHL1   C14 2162   0.201   5.790   3.200  0.5297  0.1335  0.1062
   30CHL1   H14 2163   0.111   5.731   3.173 -0.6977  0.1461  3.6262
   30CHL1   C15 2164   0.137   5.926   3.250 -0.2158  0.2573 -0.0987
   30CHL1  H15A 2165   0.209   6.011   3.241  1.3723 -0.9101  0.9434
   30CHL1  H15B 2166   0.052   5.947   3.182 -0.8298 -3.3209 -0.5970
   30CHL1   C16 2167   0.108   5.899   3.395  0.2560 -0.2207  0.6031
   30CHL1  H16A 2168   0.181   5.957   3.455  0.0819  0.4882  0.1473
   30CHL1  H16B 2169   0.006   5.933   3.424  0.4909  1.2722 -0.2250
   30CHL1   C17 2170   0.145   5.751   3.425 -0.5427 -0.2385  0.8508
   30CHL1   H17 2171   0.073   5.676   3.386 -1.1625  1.2952 -1.1584
   30CHL1   C13 2172   0.255   5.724   3.323 -0.0454  0.6038 -0.2172
   30CHL1   C18 2173   0.391   5.782   3.371  0.4771  0.1849  0.3805
   30CHL1  H18A 2174   0.468   5.780   3.291  0.0688  1.7674 -0.1034
   30CHL1  H18B 2175   0.378   5.890   3.395  1.9379  0.7604 -1.2054
   30CHL1  H18C 2176   0.442   5.728   3.454  0.3674 -1.4679 -0.5830
   30CHL1   C12 2177   0.278   5.571   3.294 -0.2559  0.6896  0.3805
   30CHL1  H12A 2178   0.337   5.512   3.367  2.1593 -0.9877 -2.6530
   30CHL1  H12B 2179   0.181   5.518   3.284  0.1744 -0.0505  0.0700
   30CHL1   C11 2180   0.355   5.557   3.162 -0.3711  0.1896 -0.4349
   30CHL1  H11A 2181   0.455   5.599   3.184  0.1361 -0.7709 -0.8386
   30CHL1  H11B 2182   0.373   5.449   3.146  0.6599 -0.0268  1.8374
   30CHL1    C9 2183   0.306   5.637   3.042  0.3909  0.5793  1.0643
   30CHL1    H9 2184   0.206   5.593   3.022  0.8694  0.0998 -0.4942
   30CHL1   C10 2185   0.383   5.618   2.907 -0.1356 -0.5819  0.6698
   30CHL1   C19 2186   0.538   5.618   2.946 -1.0462  0.2485  0.5250
   30CHL1  H19A 2187   0.559   5.525   3.004 -1.5634  0.4293  1.0102
   30CHL1  H19B 2188   0.607   5.608   2.859 -0.2996  4.2188  0.4874
   30CHL1  H19C 2189   0.569   5.707   3.005  2.6477  0.3808 -1.3445
   30CHL1    C1 2190   0.347   5.482   2.847 -0.2683 -0.2299  0.4081
   30CHL1   H1A 2191   0.373   5.394   2.909  1.3463  0.3523  0.6055
   30CHL1   H1B 2192   0.237   5.473   2.834  0.0566 -2.4305 -1.5606
   30CHL1    C2 2193   0.420   5.455   2.706  0.3299  0.1494 -0.4869
   30CHL1   H2A 2194   0.381   5.358   2.668 -0.6860 -0.1809  1.3049
   30CHL1   H2B 2195   0.530   5.452   2.719  0.2262  0.0372  0.4165
   30CHL1   C20 2196   0.166   5.736   3.577  0.0319 -0.6856 -0.1897
   30CHL1   H20 2197   0.247   5.803   3.610  0.0936 -0.3469 -1.0263
   30CHL1   C21 2198   0.207   5.592   3.603 -0.0637  0.2313  0.3884
   30CHL1  H21A 2199   0.206   5.564   3.711 -0.9763 -0.4252  0.2255
   30CHL1  H21B 2200   0.307   5.573   3.559 -0.7786 -1.2048 -0.6671
   30CHL1  H21C 2201   0.132   5.517   3.572  0.0792  0.1066  0.3446
   30CHL1   C22 2202   0.034   5.779   3.668  0.3701  0.3572 -0.6036
   30CHL1  H22A 2203  -0.000   5.878   3.631 -1.7766  0.7553  2.1031
   30CHL1  H22B 2204  -0.044   5.700   3.653 -0.2772  0.7980  0.3282
   30CHL1   C23 2205   0.072   5.794   3.813  0.1082  0.1371  0.0299
   30CHL1  H23A 2206   0.114   5.705   3.865 -2.1122 -1.2175 -0.3941
   30CHL1  H23B 2207   0.142   5.880   3.807 -0.4962  0.5001 -2.8315
   30CHL1   C24 2208  -0.043   5.837   3.905  0.2084 -0.7794  0.1892
   30CHL1  H24A 2209  -0.109   5.905   3.848  1.6695  0.1957 -0.4198
   30CHL1  H24B 2210  -0.096   5.742   3.925  2.5071 -1.9298  1.1816
   30CHL1   C25 2211   0.005   5.894   4.041 -0.4582 -0.1083  0.4451
   30CHL1   H25 2212   0.060   5.807   4.084  1.0788  0.5491 -0.1259
   30CHL1   C26 2213   0.112   6.009   4.025 -0.5765  0.6402  0.1988
   30CHL1  H26A 2214   0.158   6.023   4.125  1.0597 -0.3816 -0.3547
   30CHL1  H26B 2215   0.195   5.982   3.956 -1.1494  0.5370 -0.4537
   30CHL1  H26C 2216   0.060   6.100   3.988  0.9916  2.4062  2.0929
   30CHL1   C27 2217  -0.106   5.934   4.136 -0.1728  0.2712 -0.0949
   30CHL1  H27A 2218  -0.158   6.024   4.097  0.0938  0.1484 -0.7355
   30CHL1  H27B 2219  -0.177   5.849   4.142 -0.4147  0.5746  3.7161
   30CHL1  H27C 2220  -0.059   5.963   4.233 -0.3895 -1.3489  0.5322
   31CHL1    C3 2221   6.538   4.178   2.741 -0.8847  0.4786  0.0170
   31CHL1    H3 2222   6.573   4.073   2.753 -1.3938  0.3370  0.3006
   31CHL1    O3 2223   6.490   4.199   2.610  0.3105  0.0969  0.0110
   31CHL1   H3' 2224   6.410   4.146   2.612 -1.1649  2.1896  2.0266
   31CHL1    C4 2225   6.434   4.222   2.846 -0.1822  0.5146 -0.0737
   31CHL1   H4A 2226   6.394   4.322   2.819  0.4172  1.2542  1.6111
   31CHL1   H4B 2227   6.350   4.151   2.834  0.3339  0.1646 -1.8953
   31CHL1    C5 2228   6.493   4.222   2.985  0.7133  0.0549  0.4837
   31CHL1    C6 2229   6.444   4.147   3.086  0.2692  0.1932 -0.2068
   31CHL1    H6 2230   6.357   4.082   3.065  0.8671 -0.5912 -0.3291
   31CHL1    C7 2231   6.508   4.140   3.218 -0.8892 -0.3177 -0.4532
   31CHL1   H7A 2232   6.430   4.127   3.296 -0.2096  1.2293  0.5365
   31CHL1   H7B 2233   6.572   4.050   3.221  1.5917  1.3535  2.8421
   31CHL1    C8 2234   6.589   4.268   3.247 -0.6355 -0.4406  0.0757
   31CHL1    H8 2235   6.528   4.359   3.263 -1.3676 -0.9192  0.0721
   31CHL1   C14 2236   6.664   4.237   3.377 -0.6294 -0.6985  0.7623
   31CHL1   H14 2237   6.728   4.147   3.372  3.2840  1.6183  3.3445
   31CHL1   C15 2238   6.590   4.212   3.510  0.1734  0.0456 -0.7001
   31CHL1  H15A 2239   6.495   4.269   3.512 -0.1423 -0.4939  0.6393
   31CHL1  H15B 2240   6.570   4.103   3.514  1.7446 -0.3475 -2.2614
   31CHL1   C16 2241   6.692   4.247   3.610  0.0441 -0.9690 -0.6130
   31CHL1  H16A 2242   6.644   4.318   3.680 -0.0040 -0.6756 -0.9383
   31CHL1  H16B 2243   6.707   4.153   3.668 -0.1982 -0.8035 -0.2825
   31CHL1   C17 2244   6.824   4.289   3.536 -0.5361 -0.2642  0.0954
   31CHL1   H17 2245   6.873   4.191   3.520 -1.3849 -0.9658  1.5452
   31CHL1   C13 2246   6.770   4.345   3.410 -0.5538 -0.8930 -0.1657
   31CHL1   C18 2247   6.700   4.490   3.436  0.4469  0.3292  0.1046
   31CHL1  H18A 2248   6.617   4.486   3.510  2.1623 -1.5759  2.0359
   31CHL1  H18B 2249   6.774   4.557   3.482  0.8744 -0.9146  1.2957
   31CHL1  H18C 2250   6.664   4.538   3.342 -2.0508  1.8945  1.7399
   31CHL1   C12 2251   6.871   4.360   3.295 -0.0253  0.8948  0.1984
   31CHL1  H12A 2252   6.941   4.444   3.314  1.1187 -0.4649  2.4172
   31CHL1  H12B 2253   6.931   4.267   3.294  1.6169  1.8980  0.7762
   31CHL1   C11 2254   6.805   4.395   3.160  0.1937  0.1109 -0.1775
   31CHL1  H11A 2255   6.768   4.499   3.166  1.6294  0.6725 -0.7092
   31CHL1  H11B 2256   6.884   4.391   3.082 -1.7253 -0.8328 -2.1701
   31CHL1    C9 2257   6.694   4.289   3.138  0.6103  0.4131 -0.0403
   31CHL1    H9 2258   6.746   4.191   3.139 -0.8399 -0.4077  1.9507
   31CHL1   C10 2259   6.624   4.308   2.997 -1.0846  0.5490 -0.0290
   31CHL1   C19 2260   6.582   4.459   2.980  0.0216 -0.2461  0.3510
   31CHL1  H19A 2261   6.526   4.501   3.066  2.6447 -0.4783  2.3039
   31CHL1  H19B 2262   6.665   4.533   2.970 -2.2352  2.3980  0.0337
   31CHL1  H19C 2263   6.531   4.471   2.882  1.3182  1.3415 -0.1814
   31CHL1    C1 2264   6.732   4.264   2.894  0.1187 -0.8284  0.6651
   31CHL1   H1A 2265   6.821   4.329   2.883 -0.6724 -0.2121 -3.4313
   31CHL1   H1B 2266   6.763   4.158   2.908 -1.0735 -1.5845 -1.8957
   31CHL1    C2 2267   6.671   4.261   2.752 -0.0720 -0.0851 -0.2382
   31CHL1   H2A 2268   6.737   4.229   2.668 -0.4082  2.6152 -1.6368
   31CHL1   H2B 2269   6.651   4.368   2.732  0.2681 -0.2491 -1.5305
   31CHL1   C20 2270   6.931   4.357   3.624 -0.0843 -0.1909 -0.1535
   31CHL1   H20 2271   6.899   4.463   3.633 -1.5598 -0.5852 -0.4188
   31CHL1   C21 2272   7.071   4.348   3.568  0.3778 -0.3298  0.6873
   31CHL1  H21A 2273   7.078   4.386   3.464  1.3488  1.1365  1.2547
   31CHL1  H21B 2274   7.105   4.243   3.559  1.8104  0.1561  0.1737
   31CHL1  H21C 2275   7.145   4.400   3.632  1.5689  0.2546 -1.0774
   31CHL1   C22 2276   6.936   4.317   3.773 -0.2573 -0.8106  0.0787
   31CHL1  H22A 2277   6.993   4.397   3.825 -2.1023  1.4228 -1.1505
   31CHL1  H22B 2278   6.833   4.331   3.813 -0.4003 -2.2739  0.2867
   31CHL1   C23 2279   6.988   4.180   3.810  0.0156 -0.2077 -0.6544
   31CHL1  H23A 2280   6.927   4.100   3.761  2.1778 -2.1408 -0.3762
   31CHL1  H23B 2281   7.089   4.172   3.766  0.8140  1.8538  0.6658
   31CHL1   C24 2282   7.002   4.150   3.952 -0.1551  0.6522 -1.2291
   31CHL1  H24A 2283   7.060   4.231   4.001  0.0072 -0.8457  1.2423
   31CHL1  H24B 2284   6.911   4.138   4.015  0.8501  1.5422  0.4797
   31CHL1   C25 2285   7.082   4.018   3.962  0.2274  0.6354 -0.2864
   31CHL1   H25 2286   7.165   4.021   3.889  2.0324  2.0699  1.6955
   31CHL1   C26 2287   7.146   4.014   4.103 -0.3272 -0.2499  0.6249
   31CHL1  H26A 2288   7.177   4.117   4.129 -1.4115  0.1171  0.5373
   31CHL1  H26B 2289   7.067   3.973   4.169  0.2104  0.2041  1.5640
   31CHL1  H26C 2290   7.237   3.951   4.096 -0.1439  0.0817 -0.0779
   31CHL1   C27 2291   6.992   3.900   3.932  0.1798 -0.2268 -0.3177
   31CHL1  H27A 2292   6.905   3.894   4.001  0.4625  0.3246  0.0933
   31CHL1  H27B 2293   6.949   3.908   3.830  1.6457  0.8114 -0.8786
   31CHL1  H27C 2294   7.052   3.808   3.948 -2.5676 -1.7970  2.0789
   32CHL1    C3 2295   1.563   0.126   2.578 -0.5168  0.6163 -0.0027
   32CHL1    H3 2296   1.549   0.021   2.611  1.0966  0.0791 -0.8986
   32CHL1    O3 2297   1.559   0.135   2.434  0.1865  0.1397 -0.1247
   32CHL1   H3' 2298   1.566   0.046   2.400  0.1576 -0.8281  2.2180
   32CHL1    C4 2299   1.450   0.213   2.640  0.8653  0.0324  0.4535
   32CHL1   H4A 2300   1.452   0.317   2.601  1.4983 -0.0925  0.1415
   32CHL1   H4B 2301   1.357   0.162   2.609  0.9398  0.1897 -0.0311
   32CHL1    C5 2302   1.460   0.213   2.792  0.1192  0.1790  0.9058
   32CHL1    C6 2303   1.368   0.161   2.874 -0.3227 -0.6103 -0.1491
   32CHL1    H6 2304   1.282   0.118   2.821  1.0677 -1.5022 -1.8089
   32CHL1    C7 2305   1.373   0.160   3.019  0.3579  0.1986 -0.6478
   32CHL1   H7A 2306   1.276   0.190   3.063 -0.4520  0.7334 -2.6703
   32CHL1   H7B 2307   1.393   0.058   3.057 -0.2763  0.8933  1.7187
   32CHL1    C8 2308   1.485   0.253   3.079 -0.2170 -0.0264  0.2062
   32CHL1    H8 2309   1.438   0.354   3.071 -1.2807 -0.6659 -2.1430
   32CHL1   C14 2310   1.510   0.217   3.221  0.5732 -1.3209 -0.2699
   32CHL1   H14 2311   1.533   0.109   3.206  0.7499 -1.2041 -0.8680
   32CHL1   C15 2312   1.397   0.226   3.324 -0.4189 -0.1139  0.2065
   32CHL1  H15A 2313   1.332   0.316   3.326 -0.5574 -0.1404 -1.4254
   32CHL1  H15B 2314   1.339   0.132   3.315 -1.1766  0.2496  1.0759
   32CHL1   C16 2315   1.470   0.218   3.465 -0.5026  0.0774  0.5693
   32CHL1  H16A 2316   1.431   0.302   3.527  0.0176  1.5299 -0.9816
   32CHL1  H16B 2317   1.446   0.121   3.513  0.2868  0.0036  0.8382
   32CHL1   C17 2318   1.619   0.237   3.429  0.3103 -0.5010 -0.8553
   32CHL1   H17 2319   1.661   0.134   3.420  0.7022 -0.2373 -2.2147
   32CHL1   C13 2320   1.627   0.295   3.287  0.2988  0.5176  0.7311
   32CHL1   C18 2321   1.605   0.446   3.294  0.4308 -0.1916  0.1722
   32CHL1  H18A 2322   1.584   0.481   3.191 -1.7078 -0.3862  0.5062
   32CHL1  H18B 2323   1.516   0.488   3.345 -1.0596 -2.5861 -0.3152
   32CHL1  H18C 2324   1.693   0.505   3.327  0.1724  1.0211 -1.1886
   32CHL1   C12 2325   1.747   0.252   3.208  0.6492 -0.2909  0.3598
   32CHL1  H12A 2326   1.840   0.297   3.251  0.3902  0.7738 -0.1672
   32CHL1  H12B 2327   1.742   0.141   3.206  3.0548 -0.4691  0.8639
   32CHL1   C11 2328   1.739   0.302   3.061  0.4134 -0.2421 -0.1115
   32CHL1  H11A 2329   1.746   0.413   3.059  0.8239 -0.2770 -1.3818
   32CHL1  H11B 2330   1.830   0.259   3.014  0.5875 -0.9964  0.8823
   32CHL1    C9 2331   1.608   0.245   2.993 -0.6765 -0.2009 -0.0692
   32CHL1    H9 2332   1.625   0.136   3.004  0.9315  0.1668  1.7120
   32CHL1   C10 2333   1.590   0.268   2.842 -1.0882  0.7413 -0.1415
   32CHL1   C19 2334   1.610   0.414   2.821 -0.1974 -0.3196  0.3363
   32CHL1  H19A 2335   1.714   0.443   2.847  0.0770 -1.6005  0.7178
   32CHL1  H19B 2336   1.592   0.458   2.721  1.6911  2.5628  1.1431
   32CHL1  H19C 2337   1.539   0.475   2.882  0.8030  0.3429  0.8608
   32CHL1    C1 2338   1.712   0.187   2.770 -0.2474  0.7268 -0.5698
   32CHL1   H1A 2339   1.808   0.235   2.798 -2.2492  3.6852  2.0380
   32CHL1   H1B 2340   1.703   0.085   2.811 -0.1377  1.5589  1.6791
   32CHL1    C2 2341   1.698   0.183   2.619  0.0691 -0.1697  0.4019
   32CHL1   H2A 2342   1.776   0.131   2.559 -0.9220  1.4892 -2.5293
   32CHL1   H2B 2343   1.710   0.289   2.586 -0.5749 -0.1909  0.0893
   32CHL1   C20 2344   1.705   0.297   3.536 -0.2641 -0.2110  0.1371
   32CHL1   H20 2345   1.784   0.351   3.479  0.9800 -0.7532  1.2846
   32CHL1   C21 2346   1.771   0.188   3.615 -0.4086 -0.1125  0.4192
   32CHL1  H21A 2347   1.843   0.130   3.552  0.2063  1.9046 -0.8275
   32CHL1  H21B 2348   1.699   0.112   3.654  1.2331 -0.7647  2.3623
   32CHL1  H21C 2349   1.826   0.228   3.703 -2.0575  2.9252  0.1879
   32CHL1   C22 2350   1.636   0.401   3.628 -0.3505 -0.5621 -0.0700
   32CHL1  H22A 2351   1.579   0.476   3.570 -1.2829 -0.6383  0.7251
   32CHL1  H22B 2352   1.567   0.336   3.686 -0.1689  0.3715  1.2427
   32CHL1   C23 2353   1.741   0.469   3.722 -0.1074  0.1126 -0.6522
   32CHL1  H23A 2354   1.817   0.398   3.760 -0.1754  1.2263  1.7247
   32CHL1  H23B 2355   1.804   0.539   3.664  2.6913 -0.9431  0.9239
   32CHL1   C24 2356   1.672   0.534   3.845  0.1011 -0.2562 -0.0692
   32CHL1  H24A 2357   1.616   0.622   3.806 -2.0524 -0.9147  1.3557
   32CHL1  H24B 2358   1.594   0.474   3.896  1.8022 -1.4125  1.2891
   32CHL1   C25 2359   1.770   0.580   3.949  0.7498 -0.4742 -0.1440
   32CHL1   H25 2360   1.846   0.635   3.889  0.0368  0.7715  0.0556
   32CHL1   C26 2361   1.707   0.684   4.047  0.3782  0.0384 -0.5332
   32CHL1  H26A 2362   1.679   0.772   3.986  1.4586  0.7491 -0.0385
   32CHL1  H26B 2363   1.612   0.659   4.099 -0.3197  1.3269 -1.1558
   32CHL1  H26C 2364   1.782   0.735   4.112 -0.0802 -1.8697  1.6207
   32CHL1   C27 2365   1.837   0.464   4.029  0.5845  0.2708 -0.6458
   32CHL1  H27A 2366   1.891   0.397   3.959 -0.6951  1.5768 -3.0028
   32CHL1  H27B 2367   1.908   0.484   4.112 -0.7781 -0.7186  0.8372
   32CHL1  H27C 2368   1.757   0.399   4.072  1.0264 -0.1273 -0.4230
   33CHL1    C3 2369   3.952   1.026   2.430  0.4733 -0.8537 -0.1643
   33CHL1    H3 2370   4.053   1.071   2.442 -0.2780  0.5285  1.2216
   33CHL1    O3 2371   3.959   0.964   2.297  0.2887 -0.0924 -0.4159
   33CHL1   H3' 2372   3.886   0.902   2.291 -0.0370  0.3186 -0.7150
   33CHL1    C4 2373   3.928   0.914   2.533  0.0497 -0.7535  0.5640
   33CHL1   H4A 2374   3.836   0.853   2.517 -0.7131  0.8206 -1.6713
   33CHL1   H4B 2375   4.018   0.849   2.527  0.3698 -0.2546 -0.1479
   33CHL1    C5 2376   3.916   0.966   2.673 -0.1695 -0.4114  0.2079
   33CHL1    C6 2377   3.995   0.917   2.768  0.0154  0.4477  0.1359
   33CHL1    H6 2378   4.062   0.834   2.741  0.6999  1.1649 -0.4127
   33CHL1    C7 2379   3.985   0.972   2.907 -0.9046  0.1761  0.6528
   33CHL1   H7A 2380   3.989   0.883   2.974 -1.5871 -0.0994  0.3434
   33CHL1   H7B 2381   4.071   1.038   2.931 -1.6259  1.4252 -0.0988
   33CHL1    C8 2382   3.857   1.062   2.935  0.4629  0.1609 -0.5275
   33CHL1    H8 2383   3.767   0.998   2.948 -0.2332  0.6009 -2.8257
   33CHL1   C14 2384   3.872   1.136   3.065 -0.0587  0.0446 -0.1139
   33CHL1   H14 2385   3.959   1.204   3.048  1.3865 -1.3603  1.2510
   33CHL1   C15 2386   3.919   1.058   3.189 -0.2498 -0.0478 -0.4613
   33CHL1  H15A 2387   3.849   0.972   3.187 -1.4753  0.9465 -1.0046
   33CHL1  H15B 2388   4.027   1.034   3.173 -0.1675  0.9269 -1.5029
   33CHL1   C16 2389   3.882   1.147   3.299  0.0290  0.2557 -0.1706
   33CHL1  H16A 2390   3.829   1.086   3.375  1.3670 -2.1763 -1.0728
   33CHL1  H16B 2391   3.979   1.187   3.337  0.0497 -1.2853  1.5434
   33CHL1   C17 2392   3.801   1.266   3.252 -0.0728  0.4202  0.1236
   33CHL1   H17 2393   3.872   1.349   3.232  0.7442 -0.4441 -0.6838
   33CHL1   C13 2394   3.752   1.218   3.111  0.3692  0.1000  0.0916
   33CHL1   C18 2395   3.618   1.136   3.133  0.6283  0.1209  0.5210
   33CHL1  H18A 2396   3.611   1.068   3.220 -1.9346  0.0459  0.3363
   33CHL1  H18B 2397   3.529   1.202   3.142 -1.6774 -2.4373 -1.4488
   33CHL1  H18C 2398   3.593   1.088   3.035 -2.9951  1.1000  0.8199
   33CHL1   C12 2399   3.725   1.323   3.000 -0.2230 -0.2349  0.8554
   33CHL1  H12A 2400   3.627   1.366   3.029  0.1274 -0.5451  2.5951
   33CHL1  H12B 2401   3.796   1.409   3.000 -0.3380 -0.1183 -0.7626
   33CHL1   C11 2402   3.716   1.265   2.858 -0.3397  0.5260 -0.1728
   33CHL1  H11A 2403   3.621   1.207   2.855  0.8395 -1.4338 -1.6369
   33CHL1  H11B 2404   3.707   1.349   2.786 -0.7336 -0.7159 -1.6218
   33CHL1    C9 2405   3.831   1.162   2.829  0.3829  0.4325 -0.7086
   33CHL1    H9 2406   3.927   1.219   2.828  0.6150  0.0881 -2.7705
   33CHL1   C10 2407   3.813   1.086   2.690  0.0553 -0.2124 -0.9833
   33CHL1   C19 2408   3.671   1.022   2.685 -0.0502  0.1945  0.0368
   33CHL1  H19A 2409   3.642   0.965   2.595  0.3270 -1.4241  0.8933
   33CHL1  H19B 2410   3.670   0.942   2.763  3.0764  0.2901  0.3108
   33CHL1  H19C 2411   3.589   1.096   2.694 -0.7765 -0.5052 -0.6250
   33CHL1    C1 2412   3.831   1.185   2.575  0.5218  0.1017 -0.6535
   33CHL1   H1A 2413   3.752   1.263   2.581  0.3698 -0.1055  0.1606
   33CHL1   H1B 2414   3.928   1.237   2.594  0.4245  0.0980 -0.1343
   33CHL1    C2 2415   3.844   1.129   2.436 -0.1258 -0.6631  0.3888
   33CHL1   H2A 2416   3.857   1.216   2.368  2.4164  0.5492  2.2307
   33CHL1   H2B 2417   3.752   1.076   2.403 -0.3671 -0.6331  1.0073
   33CHL1   C20 2418   3.692   1.319   3.356  0.0009  0.8410  0.2717
   33CHL1   H20 2419   3.618   1.238   3.375  0.8109  0.2695  1.0832
   33CHL1   C21 2420   3.614   1.437   3.303 -0.4117 -0.9526 -0.1326
   33CHL1  H21A 2421   3.567   1.480   3.394  0.8278 -2.8529  1.4898
   33CHL1  H21B 2422   3.541   1.413   3.223 -2.1172 -1.4575  1.5172
   33CHL1  H21C 2423   3.675   1.520   3.260 -1.9330 -0.2596 -1.0491
   33CHL1   C22 2424   3.754   1.346   3.495 -0.0446  0.4005 -0.1437
   33CHL1  H22A 2425   3.819   1.260   3.521  0.7100  0.9787 -0.0881
   33CHL1  H22B 2426   3.813   1.440   3.492  0.1313  0.4655  2.9315
   33CHL1   C23 2427   3.661   1.376   3.618  0.0574  0.1455 -0.0232
   33CHL1  H23A 2428   3.724   1.374   3.709  2.5371  1.0463 -1.5849
   33CHL1  H23B 2429   3.619   1.478   3.607  1.6645  1.2010  2.6662
   33CHL1   C24 2430   3.541   1.285   3.638  0.1383 -0.4955 -0.0053
   33CHL1  H24A 2431   3.505   1.262   3.536 -0.3642  2.2275 -0.5100
   33CHL1  H24B 2432   3.574   1.183   3.670 -0.6331 -1.4957 -2.2073
   33CHL1   C25 2433   3.438   1.344   3.733 -0.0860  0.5470 -0.2963
   33CHL1   H25 2434   3.418   1.445   3.692  0.3692 -0.0888 -2.1972
   33CHL1   C26 2435   3.308   1.256   3.733  0.2631 -0.3744 -0.9414
   33CHL1  H26A 2436   3.259   1.247   3.633 -0.2621 -3.2186 -0.5126
   33CHL1  H26B 2437   3.331   1.158   3.780  1.6635  0.8136  1.0016
   33CHL1  H26C 2438   3.228   1.296   3.800  0.0225 -0.2452 -1.2983
   33CHL1   C27 2439   3.488   1.351   3.882  0.1391 -0.0084  0.6510
   33CHL1  H27A 2440   3.395   1.377   3.936  0.0901  0.7283  0.2296
   33CHL1  H27B 2441   3.534   1.253   3.906  0.0280  0.0546  1.1180
   33CHL1  H27C 2442   3.560   1.434   3.896 -0.2078  0.2704  0.7890
   34CHL1    C3 2443   3.995   4.228   2.857 -0.3973  0.1646  0.7653
   34CHL1    H3 2444   4.089   4.170   2.875 -1.3197 -2.1113 -1.1478
   34CHL1    O3 2445   3.965   4.212   2.721 -0.3126 -0.6608  0.0105
   34CHL1   H3' 2446   3.990   4.122   2.698 -1.0305 -0.8308 -0.1209
   34CHL1    C4 2447   3.888   4.159   2.938  0.1436  0.3052  0.6388
   34CHL1   H4A 2448   3.796   4.214   2.910  0.3103  0.4473  0.3577
   34CHL1   H4B 2449   3.881   4.053   2.906 -0.0068  0.8497 -1.2498
   34CHL1    C5 2450   3.908   4.178   3.084 -0.4855 -0.1733  0.5597
   34CHL1    C6 2451   3.906   4.075   3.167 -0.0837  0.4262 -0.2869
   34CHL1    H6 2452   3.879   3.979   3.119 -0.3111  0.2167  0.2462
   34CHL1    C7 2453   3.924   4.083   3.315  0.6049 -0.0992  0.1419
   34CHL1   H7A 2454   3.849   4.023   3.370 -0.2412  2.6989  2.2659
   34CHL1   H7B 2455   4.021   4.035   3.342 -0.4106 -2.4015 -0.1291
   34CHL1    C8 2456   3.933   4.224   3.375 -0.7348 -0.0822 -0.1910
   34CHL1    H8 2457   3.829   4.253   3.404  0.2876  1.0884  2.6532
   34CHL1   C14 2458   4.007   4.233   3.509 -0.2516 -0.5872  0.4343
   34CHL1   H14 2459   4.109   4.195   3.484 -0.6713 -2.9252  1.9244
   34CHL1   C15 2460   3.967   4.138   3.625 -0.4110  0.5756  0.4724
   34CHL1  H15A 2461   3.857   4.154   3.622 -0.4453  0.2760 -0.5169
   34CHL1  H15B 2462   3.990   4.030   3.612 -2.3466 -0.0135  1.5687
   34CHL1   C16 2463   4.043   4.199   3.744 -0.4828  0.3398 -0.2690
   34CHL1  H16A 2464   3.965   4.216   3.821  0.2323  2.3957  0.0536
   34CHL1  H16B 2465   4.126   4.136   3.782  1.6199  1.8735 -2.0836
   34CHL1   C17 2466   4.109   4.329   3.706  0.0149 -0.9476  0.1434
   34CHL1   H17 2467   4.213   4.308   3.673  0.3036 -0.8125  0.9513
   34CHL1   C13 2468   4.027   4.371   3.576  0.6062  0.0990 -0.8215
   34CHL1   C18 2469   3.889   4.436   3.622  0.2580 -0.3939 -0.0253
   34CHL1  H18A 2470   3.841   4.379   3.704  0.2850 -1.8824 -0.9892
   34CHL1  H18B 2471   3.906   4.539   3.661  1.0447 -0.6307  0.2704
   34CHL1  H18C 2472   3.817   4.431   3.538 -0.8981 -3.3103  1.0024
   34CHL1   C12 2473   4.099   4.466   3.475 -0.5030  0.2500 -0.7040
   34CHL1  H12A 2474   4.107   4.566   3.523 -1.8030  0.9484 -1.8869
   34CHL1  H12B 2475   4.203   4.433   3.455 -0.8883 -1.5834  0.1480
   34CHL1   C11 2476   4.028   4.460   3.341  0.2408  0.5767 -0.3143
   34CHL1  H11A 2477   3.933   4.517   3.354  0.7724  1.4690 -0.2236
   34CHL1  H11B 2478   4.090   4.526   3.276  0.8091  0.2531 -0.1024
   34CHL1    C9 2479   4.005   4.321   3.279  0.0439  0.4244 -0.1815
   34CHL1    H9 2480   4.110   4.289   3.262 -0.0620  1.1451 -2.5997
   34CHL1   C10 2481   3.939   4.323   3.134 -0.5970  0.0986  0.3292
   34CHL1   C19 2482   3.813   4.405   3.138 -0.2559 -0.2920  0.1987
   34CHL1  H19A 2483   3.755   4.369   3.225  1.8323 -0.8360  1.4501
   34CHL1  H19B 2484   3.855   4.505   3.158  0.9054 -0.9136  0.9523
   34CHL1  H19C 2485   3.752   4.398   3.045 -0.3701 -0.7018  0.3000
   34CHL1    C1 2486   4.047   4.385   3.038 -0.1264 -0.8421  0.5346
   34CHL1   H1A 2487   4.063   4.494   3.051 -1.7734 -0.4928 -0.1760
   34CHL1   H1B 2488   4.146   4.342   3.065 -0.1339 -0.2268  1.6288
   34CHL1    C2 2489   4.015   4.374   2.887 -0.3052  0.6611 -0.2598
   34CHL1   H2A 2490   4.098   4.416   2.826  0.7858  0.3966  0.9966
   34CHL1   H2B 2491   3.923   4.432   2.867  0.6295  2.3431  0.2002
   34CHL1   C20 2492   4.110   4.424   3.830  0.2591  0.0963 -0.0313
   34CHL1   H20 2493   4.007   4.446   3.865  0.6367 -0.2088  1.3518
   34CHL1   C21 2494   4.174   4.551   3.774  0.4495 -0.3050 -0.4519
   34CHL1  H21A 2495   4.103   4.616   3.718  1.7515 -0.2441 -2.1002
   34CHL1  H21B 2496   4.260   4.524   3.710  0.1318 -0.1359 -0.9562
   34CHL1  H21C 2497   4.211   4.615   3.857 -2.8692 -0.7760  1.5693
   34CHL1   C22 2498   4.188   4.374   3.954 -0.2007  0.0698 -0.3096
   34CHL1  H22A 2499   4.178   4.453   4.032 -1.0914 -0.1755 -0.1713
   34CHL1  H22B 2500   4.137   4.282   3.991 -0.8020 -1.0930 -3.7137
   34CHL1   C23 2501   4.335   4.328   3.947 -0.3062 -0.3788 -0.2801
   34CHL1  H23A 2502   4.326   4.234   3.888 -3.8882  0.6997 -1.7255
   34CHL1  H23B 2503   4.392   4.403   3.887  0.5402 -1.7165 -1.2133
   34CHL1   C24 2504   4.400   4.292   4.081  0.3680 -0.9308 -0.1606
   34CHL1  H24A 2505   4.506   4.275   4.053  0.1478  1.0723 -2.5321
   34CHL1  H24B 2506   4.394   4.381   4.148 -0.0938 -1.1163  0.0428
   34CHL1   C25 2507   4.350   4.165   4.156  0.3110 -0.4922 -0.2380
   34CHL1   H25 2508   4.262   4.199   4.215 -1.0405  1.3919 -3.1161
   34CHL1   C26 2509   4.294   4.044   4.075 -0.3579 -0.0325 -1.1182
   34CHL1  H26A 2510   4.249   3.965   4.138  2.0066 -0.9593 -0.4895
   34CHL1  H26B 2511   4.216   4.074   4.001 -1.9577 -2.1310 -0.3755
   34CHL1  H26C 2512   4.371   4.001   4.008 -0.3271 -0.4570 -0.8058
   34CHL1   C27 2513   4.459   4.104   4.254 -0.2896  0.5863 -1.0594
   34CHL1  H27A 2514   4.522   4.174   4.313  2.5735  0.5990 -3.8225
   34CHL1  H27B 2515   4.405   4.034   4.322 -0.5864  0.5915 -1.2858
   34CHL1  H27C 2516   4.534   4.041   4.202 -0.8863 -0.5657 -0.5569
   35CHL1    C3 2517   5.599   3.663   2.469 -0.2401  0.6849  0.0127
   35CHL1    H3 2518   5.580   3.556   2.494 -0.7584  0.8855  0.4791
   35CHL1    O3 2519   5.649   3.660   2.332  0.0942  0.3872 -0.0999
   35CHL1   H3' 2520   5.681   3.749   2.313 -1.1621  0.6672 -1.0699
   35CHL1    C4 2521   5.472   3.749   2.485  0.2716  0.8231 -0.5081
   35CHL1   H4A 2522   5.501   3.850   2.449 -0.0443  0.8191 -0.7817
   35CHL1   H4B 2523   5.395   3.696   2.425  0.6548  0.0925 -0.3761
   35CHL1    C5 2524   5.423   3.753   2.635 -0.8914 -0.4058  0.1801
   35CHL1    C6 2525   5.298   3.722   2.673 -0.2352  0.5487 -0.3031
   35CHL1    H6 2526   5.226   3.710   2.591 -1.3224 -0.1290  0.7060
   35CHL1    C7 2527   5.248   3.718   2.810  0.2009  0.4222  0.0390
   35CHL1   H7A 2528   5.154   3.777   2.817 -0.7953 -0.9635 -1.1878
   35CHL1   H7B 2529   5.220   3.617   2.845  0.0109  0.2546 -0.5930
   35CHL1    C8 2530   5.342   3.783   2.913 -0.0506  0.5751 -0.1813
   35CHL1    H8 2531   5.325   3.891   2.898 -0.6793  0.4044 -0.7375
   35CHL1   C14 2532   5.301   3.729   3.047 -0.0199 -0.6242 -0.3649
   35CHL1   H14 2533   5.327   3.621   3.047  0.6050 -0.4823  0.2978
   35CHL1   C15 2534   5.155   3.725   3.098 -0.1790 -0.0851 -0.6303
   35CHL1  H15A 2535   5.109   3.826   3.086  1.0465  1.2244  3.7588
   35CHL1  H15B 2536   5.095   3.652   3.039 -0.0366  0.0128 -0.9026
   35CHL1   C16 2537   5.169   3.708   3.250  0.1250  1.1540 -0.2315
   35CHL1  H16A 2538   5.100   3.776   3.303  0.0706 -0.5099  2.0150
   35CHL1  H16B 2539   5.141   3.603   3.275 -2.3472  1.8927  0.3514
   35CHL1   C17 2540   5.323   3.712   3.285 -0.3540 -0.8757  0.9672
   35CHL1   H17 2541   5.369   3.610   3.284  1.5754 -0.1351  3.4623
   35CHL1   C13 2542   5.385   3.788   3.164 -1.1572  0.4030 -0.3609
   35CHL1   C18 2543   5.351   3.936   3.183 -0.5757 -0.1279  0.0945
   35CHL1  H18A 2544   5.385   3.988   3.090  0.0855 -1.7315 -0.5910
   35CHL1  H18B 2545   5.244   3.949   3.208 -0.0304 -1.1847  3.4735
   35CHL1  H18C 2546   5.411   3.981   3.264 -1.7525  2.6022 -0.4307
   35CHL1   C12 2547   5.532   3.752   3.138  0.5185 -0.1412 -0.0249
   35CHL1  H12A 2548   5.594   3.813   3.208 -1.2336  0.9349  0.6526
   35CHL1  H12B 2549   5.547   3.642   3.146 -2.1833 -0.5331  0.4597
   35CHL1   C11 2550   5.580   3.809   2.993 -0.3446  0.1594 -0.3089
   35CHL1  H11A 2551   5.566   3.919   2.998  0.0055  0.2209 -0.6590
   35CHL1  H11B 2552   5.688   3.788   2.981 -0.3890  0.1662 -0.7267
   35CHL1    C9 2553   5.491   3.753   2.884  0.3248  0.4717 -0.3760
   35CHL1    H9 2554   5.501   3.642   2.887 -0.0822  0.4529  0.8666
   35CHL1   C10 2555   5.531   3.780   2.740  0.1642 -0.6331  0.6177
   35CHL1   C19 2556   5.576   3.929   2.728 -0.5302  0.6762 -0.4382
   35CHL1  H19A 2557   5.501   4.001   2.769  1.7585  3.2225 -0.4568
   35CHL1  H19B 2558   5.667   3.945   2.790 -0.3300 -0.6297 -0.3646
   35CHL1  H19C 2559   5.603   3.959   2.625  0.8752  1.2234  0.0736
   35CHL1    C1 2560   5.654   3.682   2.707 -0.5067  0.2444  0.5445
   35CHL1   H1A 2561   5.737   3.725   2.767  0.1627  0.4039 -0.4716
   35CHL1   H1B 2562   5.637   3.573   2.716 -1.0240  0.1907 -0.8700
   35CHL1    C2 2563   5.709   3.707   2.566 -0.3692 -0.1455  0.5323
   35CHL1   H2A 2564   5.802   3.650   2.541  0.4399  1.4146 -0.1604
   35CHL1   H2B 2565   5.730   3.815   2.550  0.3272 -0.4403 -0.7257
   35CHL1   C20 2566   5.360   3.757   3.432  0.4220 -0.0746  0.4114
   35CHL1   H20 2567   5.327   3.862   3.446  1.1205  0.2112 -0.0361
   35CHL1   C21 2568   5.513   3.745   3.459 -0.4450 -1.1824  0.0591
   35CHL1  H21A 2569   5.544   3.780   3.560  1.5308 -0.1188 -0.8489
   35CHL1  H21B 2570   5.570   3.818   3.397 -2.8801 -0.2160 -1.1708
   35CHL1  H21C 2571   5.548   3.641   3.445  1.7556 -0.4211 -0.5531
   35CHL1   C22 2572   5.291   3.671   3.535 -0.0017 -0.3758  0.4301
   35CHL1  H22A 2573   5.181   3.676   3.525  0.1619  2.0102 -0.5994
   35CHL1  H22B 2574   5.326   3.566   3.523  0.9428  0.0663 -0.9632
   35CHL1   C23 2575   5.309   3.712   3.681  0.4947  0.1020  0.9093
   35CHL1  H23A 2576   5.419   3.710   3.701  1.0753  1.1220 -1.7258
   35CHL1  H23B 2577   5.280   3.818   3.697 -5.3950 -1.0657 -0.0055
   35CHL1   C24 2578   5.238   3.623   3.786  0.1770 -0.0782 -0.6077
   35CHL1  H24A 2579   5.127   3.627   3.776  0.1892 -1.6614 -1.7704
   35CHL1  H24B 2580   5.278   3.521   3.764 -0.2915 -0.5572  0.6548
   35CHL1   C25 2581   5.266   3.666   3.929  0.9438  0.3759  0.0187
   35CHL1   H25 2582   5.368   3.711   3.931  0.6439  1.0839 -0.2353
   35CHL1   C26 2583   5.172   3.773   3.970  0.7226 -0.1095  0.5402
   35CHL1  H26A 2584   5.193   3.863   3.909 -0.6888 -0.4356 -0.4532
   35CHL1  H26B 2585   5.066   3.743   3.960  0.6909  0.6420 -1.9245
   35CHL1  H26C 2586   5.206   3.796   4.074  1.3465 -0.6585  0.4698
   35CHL1   C27 2587   5.243   3.545   4.017 -1.0525 -0.3279 -0.3540
   35CHL1  H27A 2588   5.327   3.472   4.022 -0.9964 -0.2331  0.2648
   35CHL1  H27B 2589   5.239   3.586   4.120  0.8176  1.4341 -0.9107
   35CHL1  H27C 2590   5.146   3.494   3.998 -1.7556  0.6949  0.3878
   36CHL1    C3 2591   1.869   6.163   2.508  0.8402 -0.1477  0.1346
   36CHL1    H3 2592   1.888   6.271   2.490  0.5356 -0.0571  0.3481
   36CHL1    O3 2593   1.841   6.115   2.378 -0.3198 -0.4500 -0.3627
   36CHL1   H3' 2594   1.749   6.143   2.378  0.1517  1.7586  2.9628
   36CHL1    C4 2595   1.977   6.088   2.582  0.3557 -0.5122  0.5188
   36CHL1   H4A 2596   1.963   5.978   2.589  0.2835 -0.4661  1.0724
   36CHL1   H4B 2597   2.071   6.092   2.522  0.5365 -1.3392  0.7394
   36CHL1    C5 2598   1.989   6.144   2.718 -0.4565 -0.2992  0.5482
   36CHL1    C6 2599   2.109   6.204   2.746  0.0590 -0.6145  0.1710
   36CHL1    H6 2600   2.194   6.212   2.677  0.3606  2.8204  0.7742
   36CHL1    C7 2601   2.128   6.266   2.885 -0.5998  0.5820  0.9166
   36CHL1   H7A 2602   2.231   6.249   2.922 -0.3751 -2.2447 -0.7463
   36CHL1   H7B 2603   2.103   6.374   2.880 -1.5704  0.3095 -1.5921
   36CHL1    C8 2604   2.038   6.207   2.997 -0.3463 -0.2676 -0.9269
   36CHL1    H8 2605   2.049   6.097   3.014  1.2116  0.0695  0.5315
   36CHL1   C14 2606   2.059   6.278   3.133  0.2506 -0.6723  0.2228
   36CHL1   H14 2607   2.059   6.387   3.107  0.2475 -0.3907  1.3633
   36CHL1   C15 2608   2.191   6.270   3.203  0.4713 -0.6814  0.4112
   36CHL1  H15A 2609   2.218   6.165   3.232 -0.9848 -1.0954  0.3150
   36CHL1  H15B 2610   2.280   6.302   3.145 -0.6192  0.9043 -0.4540
   36CHL1   C16 2611   2.164   6.340   3.336 -0.0658  0.1827  0.0561
   36CHL1  H16A 2612   2.218   6.287   3.417 -1.2624 -0.7555  0.2679
   36CHL1  H16B 2613   2.198   6.446   3.326 -0.1024 -0.0004 -2.6137
   36CHL1   C17 2614   2.011   6.339   3.353 -0.1253 -0.4680 -0.0131
   36CHL1   H17 2615   1.973   6.440   3.330  1.6385  0.2053 -0.1004
   36CHL1   C13 2616   1.957   6.249   3.241 -0.3320 -0.3394  0.8773
   36CHL1   C18 2617   1.954   6.109   3.289  0.2458 -0.2125 -0.1465
   36CHL1  H18A 2618   2.047   6.088   3.347 -0.3439 -3.7362 -0.2354
   36CHL1  H18B 2619   1.865   6.082   3.349  0.1023 -0.9386 -0.6647
   36CHL1  H18C 2620   1.945   6.036   3.206 -1.0069 -0.1457 -0.0875
   36CHL1   C12 2621   1.819   6.290   3.177  0.2187 -0.1737 -0.4258
   36CHL1  H12A 2622   1.733   6.260   3.242 -1.5078  0.9723 -2.0605
   36CHL1  H12B 2623   1.802   6.393   3.138 -0.7697 -0.3567 -0.5258
   36CHL1   C11 2624   1.789   6.201   3.058 -0.6232  0.2852  1.0435
   36CHL1  H11A 2625   1.790   6.091   3.072  1.8564 -0.0995 -1.4145
   36CHL1  H11B 2626   1.696   6.229   3.005  1.2349  2.7104 -1.2072
   36CHL1    C9 2627   1.895   6.231   2.945  0.0757  0.0810  0.0341
   36CHL1    H9 2628   1.886   6.338   2.917  0.0451 -0.4842 -2.4037
   36CHL1   C10 2629   1.874   6.143   2.811  0.2353 -0.3976 -0.5613
   36CHL1   C19 2630   1.846   5.989   2.840 -0.3296 -0.3775  0.7876
   36CHL1  H19A 2631   1.769   5.972   2.918  0.7050  0.9054  2.1625
   36CHL1  H19B 2632   1.818   5.934   2.748 -0.3795  0.1048  0.5076
   36CHL1  H19C 2633   1.938   5.943   2.881  1.0720  0.2811 -1.4199
   36CHL1    C1 2634   1.752   6.206   2.732 -0.2820  0.1164 -0.2209
   36CHL1   H1A 2635   1.659   6.191   2.791 -0.1267 -1.3948 -0.3148
   36CHL1   H1B 2636   1.771   6.316   2.734 -0.9597  0.2339  0.6039
   36CHL1    C2 2637   1.735   6.161   2.592 -0.1973  0.3609  0.3531
   36CHL1   H2A 2638   1.652   6.214   2.542 -1.7449 -1.3942  0.9474
   36CHL1   H2B 2639   1.701   6.055   2.588 -2.9790  1.1356  1.6046
   36CHL1   C20 2640   1.962   6.309   3.499  0.4531 -0.6923 -0.1784
   36CHL1   H20 2641   1.990   6.206   3.530 -1.7899 -0.9596  1.2332
   36CHL1   C21 2642   1.809   6.312   3.510  0.7608  0.3912  0.7321
   36CHL1  H21A 2643   1.770   6.237   3.438  2.0376 -0.0974  0.5319
   36CHL1  H21B 2644   1.775   6.414   3.481  1.2857 -0.1223 -1.9701
   36CHL1  H21C 2645   1.770   6.300   3.613 -0.3251  0.2626  0.3262
   36CHL1   C22 2646   2.020   6.404   3.606  0.4136 -0.5015 -0.1421
   36CHL1  H22A 2647   2.128   6.398   3.581 -0.1495 -1.7424 -2.6635
   36CHL1  H22B 2648   1.973   6.501   3.580 -0.7490 -1.9361 -4.1800
   36CHL1   C23 2649   2.003   6.356   3.756 -0.3328 -0.0462 -0.4821
   36CHL1  H23A 2650   1.893   6.343   3.766 -0.6126 -1.3205 -3.8379
   36CHL1  H23B 2651   2.047   6.254   3.753 -0.2638 -0.0287 -0.0152
   36CHL1   C24 2652   2.072   6.440   3.865 -0.2145  0.0408  0.7224
   36CHL1  H24A 2653   2.177   6.456   3.832  0.0647 -2.9540 -0.1778
   36CHL1  H24B 2654   2.021   6.537   3.881  0.6648  0.8481 -1.1359
   36CHL1   C25 2655   2.082   6.366   4.001  0.3799 -0.0660 -0.4534
   36CHL1   H25 2656   2.131   6.267   3.986  0.5003 -0.3263  1.4470
   36CHL1   C26 2657   2.166   6.448   4.107  0.0260 -0.3612 -0.4949
   36CHL1  H26A 2658   2.272   6.456   4.077  1.0603 -0.8114  2.7061
   36CHL1  H26B 2659   2.121   6.547   4.130  0.0662 -0.5811  0.5824
   36CHL1  H26C 2660   2.146   6.392   4.200  0.7771 -0.6545 -0.5054
   36CHL1   C27 2661   1.936   6.342   4.051 -0.2074 -0.1371 -0.2631
   36CHL1  H27A 2662   1.943   6.311   4.158 -0.0248  1.0143  0.0663
   36CHL1  H27B 2663   1.870   6.429   4.029 -0.8912 -0.9806 -1.7040
   36CHL1  H27C 2664   1.889   6.255   4.001  0.8054  0.4284 -2.2761
   37CHL1    C3 2665   2.583   3.050   2.491 -0.1745  0.3126  0.2932
   37CHL1    H3 2666   2.693   3.037   2.479 -0.2268 -0.7847  0.8936
   37CHL1    O3 2667   2.537   3.066   2.356  0.0783 -0.3718  0.2826
   37CHL1   H3' 2668   2.444   3.090   2.360  0.3264  0.5456  0.8474
   37CHL1    C4 2669   2.514   2.928   2.556 -0.5265  0.1355  0.9449
   37CHL1   H4A 2670   2.405   2.948   2.545 -0.4236 -0.5664 -2.4352
   37CHL1   H4B 2671   2.526   2.839   2.490 -3.3678  0.3564 -0.0112
   37CHL1    C5 2672   2.556   2.904   2.701  0.4768 -0.3890  0.0550
   37CHL1    C6 2673   2.619   2.791   2.739  0.3572 -0.3720 -0.1431
   37CHL1    H6 2674   2.636   2.716   2.661  1.3846  1.0925 -1.3813
   37CHL1    C7 2675   2.669   2.764   2.876  0.2500 -0.7129  0.6798
   37CHL1   H7A 2676   2.653   2.656   2.895  0.7875 -1.0671 -0.7353
   37CHL1   H7B 2677   2.778   2.786   2.875 -0.1069  1.2158  1.2511
   37CHL1    C8 2678   2.589   2.854   2.978 -0.3453 -0.5764  0.2116
   37CHL1    H8 2679   2.480   2.832   2.983 -0.5767  0.1175 -1.2938
   37CHL1   C14 2680   2.648   2.839   3.118  0.2086 -0.0121 -0.5384
   37CHL1   H14 2681   2.755   2.868   3.116  0.5739 -1.2661 -0.4806
   37CHL1   C15 2682   2.659   2.693   3.172  0.4172  0.4039 -0.5387
   37CHL1  H15A 2683   2.557   2.650   3.174  0.5189  0.1920  0.8298
   37CHL1  H15B 2684   2.723   2.639   3.099  1.2257  1.8299 -0.9456
   37CHL1   C16 2685   2.707   2.717   3.316  1.1810 -0.6118 -0.2721
   37CHL1  H16A 2686   2.662   2.640   3.383  0.2663  0.9771  1.0275
   37CHL1  H16B 2687   2.818   2.705   3.308  1.3563 -0.1518  1.1561
   37CHL1   C17 2688   2.672   2.869   3.356 -0.5211 -0.4191 -0.1092
   37CHL1   H17 2689   2.773   2.916   3.350 -0.9891  0.4939 -1.2957
   37CHL1   C13 2690   2.594   2.926   3.230  0.1034 -0.5412  0.5001
   37CHL1   C18 2691   2.440   2.902   3.249  0.2728 -0.0641 -0.2585
   37CHL1  H18A 2692   2.400   2.968   3.329 -1.0296 -1.6620  0.4685
   37CHL1  H18B 2693   2.390   2.936   3.156 -0.1054  1.2284  0.3933
   37CHL1  H18C 2694   2.408   2.797   3.267 -0.9858 -0.1717 -2.7369
   37CHL1   C12 2695   2.620   3.072   3.183 -0.1418  0.3451 -0.3803
   37CHL1  H12A 2696   2.567   3.148   3.244 -0.2627  0.8890 -1.1478
   37CHL1  H12B 2697   2.722   3.112   3.200 -0.3873  0.4901  0.8577
   37CHL1   C11 2698   2.577   3.105   3.040  0.3331 -0.0727 -0.1735
   37CHL1  H11A 2699   2.467   3.119   3.043  0.2535 -0.6778 -0.2758
   37CHL1  H11B 2700   2.622   3.205   3.020  1.2535  0.1722  2.6231
   37CHL1    C9 2701   2.604   3.002   2.929 -0.0950  0.1900 -0.2915
   37CHL1    H9 2702   2.710   3.024   2.906  0.4674  0.7765  2.4806
   37CHL1   C10 2703   2.536   3.023   2.798 -0.0312  0.6933 -0.2460
   37CHL1   C19 2704   2.385   3.042   2.810 -0.1670  0.0400  1.2310
   37CHL1  H19A 2705   2.336   2.956   2.859  1.7603 -1.5445  0.5031
   37CHL1  H19B 2706   2.372   3.131   2.875  0.8865  0.2662  1.1484
   37CHL1  H19C 2707   2.343   3.065   2.710  1.8505  0.6929  0.4713
   37CHL1    C1 2708   2.598   3.143   2.730  0.4129  0.0798  0.7030
   37CHL1   H1A 2709   2.580   3.237   2.787  1.2024  0.5478  0.2052
   37CHL1   H1B 2710   2.709   3.131   2.729  0.1645 -2.9827  0.5738
   37CHL1    C2 2711   2.557   3.174   2.581  0.1937  0.0333  0.4271
   37CHL1   H2A 2712   2.595   3.263   2.527 -0.6488 -0.4371 -0.9833
   37CHL1   H2B 2713   2.448   3.195   2.582 -0.0184 -0.8765 -1.2039
   37CHL1   C20 2714   2.614   2.893   3.502 -0.4811  0.5414  0.9607
   37CHL1   H20 2715   2.572   2.995   3.509 -2.6213  0.0073 -1.9516
   37CHL1   C21 2716   2.739   2.872   3.592 -0.2992 -0.1374  0.1787
   37CHL1  H21A 2717   2.817   2.949   3.574 -1.9544  1.8234  0.8415
   37CHL1  H21B 2718   2.788   2.776   3.566 -0.2818  0.4428 -2.2163
   37CHL1  H21C 2719   2.718   2.870   3.701 -1.4125 -4.2522  0.0356
   37CHL1   C22 2720   2.504   2.803   3.553 -0.1530  1.0459  0.0670
   37CHL1  H22A 2721   2.433   2.753   3.484 -0.7731 -1.3338  2.2728
   37CHL1  H22B 2722   2.555   2.710   3.587 -3.2333 -0.7465  0.1086
   37CHL1   C23 2723   2.427   2.847   3.672 -0.4394 -1.1166  0.1119
   37CHL1  H23A 2724   2.368   2.766   3.720  1.1178 -0.7223  2.8422
   37CHL1  H23B 2725   2.497   2.885   3.749  1.2594 -0.6509 -1.6017
   37CHL1   C24 2726   2.333   2.972   3.640  0.0933  0.5449  0.6584
   37CHL1  H24A 2727   2.409   3.049   3.613 -0.2940  0.1117 -1.9139
   37CHL1  H24B 2728   2.270   2.939   3.555  0.3385  0.5905  0.4572
   37CHL1   C25 2729   2.238   3.011   3.760  0.2048  0.4915 -0.3648
   37CHL1   H25 2730   2.302   3.013   3.851 -0.9219 -0.5959  0.4789
   37CHL1   C26 2731   2.178   3.150   3.737 -0.7428 -0.4328  0.2858
   37CHL1  H26A 2732   2.254   3.231   3.742 -2.2537  0.9629  1.9478
   37CHL1  H26B 2733   2.134   3.146   3.636  0.6155  2.7507 -0.5455
   37CHL1  H26C 2734   2.105   3.156   3.820 -3.8450 -2.2193 -2.1191
   37CHL1   C27 2735   2.131   2.905   3.779 -0.1117  0.5025 -0.1836
   37CHL1  H27A 2736   2.036   2.930   3.727  0.0786 -1.0773 -1.3443
   37CHL1  H27B 2737   2.145   2.802   3.740 -1.0284  0.1926  0.2827
   37CHL1  H27C 2738   2.109   2.903   3.888 -0.3933  0.0554 -0.2459
   38CHL1    C3 2739   0.739   2.702   2.753  0.2601  0.3379 -0.3896
   38CHL1    H3 2740   0.637   2.743   2.732 -0.9163 -2.7184 -1.1650
   38CHL1    O3 2741   0.793   2.684   2.628  0.5213  0.1452  0.1838
   38CHL1   H3' 2742   0.881   2.648   2.633  0.7781  0.3484 -1.9644
   38CHL1    C4 2743   0.827   2.801   2.838  0.1495  0.2752 -0.2954
   38CHL1   H4A 2744   0.934   2.772   2.838 -0.0438 -0.4834  0.3466
   38CHL1   H4B 2745   0.827   2.893   2.776 -0.4101  0.5214  0.0665
   38CHL1    C5 2746   0.803   2.821   2.987 -0.5789 -0.1478  0.3713
   38CHL1    C6 2747   0.794   2.946   3.043  0.1750  0.9651  0.8926
   38CHL1    H6 2748   0.813   3.027   2.971 -0.7430 -1.7970 -2.7369
   38CHL1    C7 2749   0.765   2.971   3.188 -1.3430 -0.4693 -0.3126
   38CHL1   H7A 2750   0.832   3.056   3.212 -1.4009 -0.7918  1.0361
   38CHL1   H7B 2751   0.660   3.010   3.188 -0.9367  0.6729  0.4554
   38CHL1    C8 2752   0.784   2.849   3.273  0.2488  0.5361  0.2362
   38CHL1    H8 2753   0.893   2.848   3.291  0.0008  1.6292  1.9791
   38CHL1   C14 2754   0.707   2.864   3.400 -0.2911  0.3203  0.0871
   38CHL1   H14 2755   0.600   2.889   3.384  0.1861  2.9728  0.4999
   38CHL1   C15 2756   0.755   2.991   3.478  0.6838  0.1259  0.6724
   38CHL1  H15A 2757   0.866   2.985   3.467  0.6797  0.6822  0.2565
   38CHL1  H15B 2758   0.713   3.088   3.443  0.9659 -0.2461 -0.7557
   38CHL1   C16 2759   0.702   2.962   3.624  0.4237 -0.5495  0.0141
   38CHL1  H16A 2760   0.783   2.986   3.696 -0.9298 -0.7837  1.6662
   38CHL1  H16B 2761   0.610   3.021   3.641  1.3865  1.5827 -1.5757
   38CHL1   C17 2762   0.660   2.810   3.628 -0.6796 -0.5997  0.5726
   38CHL1   H17 2763   0.551   2.820   3.607 -0.6104  0.3288  0.6294
   38CHL1   C13 2764   0.722   2.747   3.499 -0.6751  0.1977  0.3883
   38CHL1   C18 2765   0.875   2.719   3.525 -0.1973  0.4012 -0.2054
   38CHL1  H18A 2766   0.924   2.695   3.428  0.4020 -1.4316  0.5104
   38CHL1  H18B 2767   0.932   2.805   3.568 -0.3822  0.3659  0.1135
   38CHL1  H18C 2768   0.883   2.633   3.595  0.9197  0.8339  0.2287
   38CHL1   C12 2769   0.645   2.629   3.427  0.0610 -0.0005 -0.3350
   38CHL1  H12A 2770   0.640   2.540   3.493  0.9853  0.5297  0.4632
   38CHL1  H12B 2771   0.542   2.670   3.418 -0.6195 -1.4248  0.5769
   38CHL1   C11 2772   0.702   2.601   3.291  0.2000  0.9381  0.0243
   38CHL1  H11A 2773   0.799   2.550   3.306  0.8997  2.2957  0.3154
   38CHL1  H11B 2774   0.638   2.528   3.239  2.5998 -0.7598 -0.7150
   38CHL1    C9 2775   0.723   2.726   3.206  0.1492  0.0198 -0.5928
   38CHL1    H9 2776   0.619   2.760   3.189  0.0294 -0.2104 -0.3354
   38CHL1   C10 2777   0.783   2.691   3.069 -0.3487 -0.1917  0.1662
   38CHL1   C19 2778   0.913   2.614   3.087 -0.5478  0.5325  0.0797
   38CHL1  H19A 2779   0.968   2.666   3.168 -1.6205 -3.6767  3.9057
   38CHL1  H19B 2780   0.885   2.519   3.138 -0.1472  0.4102  0.0681
   38CHL1  H19C 2781   0.970   2.581   2.998 -1.7964 -0.0081 -0.5474
   38CHL1    C1 2782   0.685   2.602   2.987  0.1767  0.1833 -0.1867
   38CHL1   H1A 2783   0.676   2.501   3.033 -1.0801 -0.0130 -0.8116
   38CHL1   H1B 2784   0.584   2.648   2.986  0.7989  1.6422  0.6673
   38CHL1    C2 2785   0.724   2.569   2.841 -0.6212 -0.7202 -0.0569
   38CHL1   H2A 2786   0.651   2.499   2.795 -2.9175  1.1447  0.4965
   38CHL1   H2B 2787   0.823   2.521   2.854 -1.1888 -2.0396 -0.4391
   38CHL1   C20 2788   0.691   2.741   3.763  0.0040 -0.0071  0.1087
   38CHL1   H20 2789   0.801   2.727   3.766 -0.0839 -1.0050 -0.7702
   38CHL1   C21 2790   0.632   2.599   3.771 -0.1601  0.4755 -0.0169
   38CHL1  H21A 2791   0.686   2.513   3.726  1.4154  0.9317  0.9303
   38CHL1  H21B 2792   0.527   2.586   3.738  0.1646 -1.2445 -0.4705
   38CHL1  H21C 2793   0.630   2.561   3.876  0.1376  0.9584  0.1666
   38CHL1   C22 2794   0.652   2.825   3.888  0.2237  0.0602  0.0242
   38CHL1  H22A 2795   0.610   2.926   3.865 -1.6399 -0.3761  1.2682
   38CHL1  H22B 2796   0.566   2.777   3.940  0.4072  0.8819  1.1133
   38CHL1   C23 2797   0.770   2.846   3.982 -0.0488  0.2289  0.0774
   38CHL1  H23A 2798   0.826   2.751   3.979  0.6141  0.6242 -0.4294
   38CHL1  H23B 2799   0.832   2.930   3.944  0.2816  1.0308  2.2388
   38CHL1   C24 2800   0.736   2.882   4.126  0.0624  0.3117 -0.7443
   38CHL1  H24A 2801   0.677   2.975   4.141 -0.2253 -0.2570  2.4430
   38CHL1  H24B 2802   0.670   2.797   4.152 -0.3306  1.0369  0.7334
   38CHL1   C25 2803   0.852   2.884   4.229 -1.1655  0.6757 -0.3984
   38CHL1   H25 2804   0.916   2.965   4.188 -0.5277  0.6428  0.4911
   38CHL1   C26 2805   0.801   2.935   4.368  0.5242 -0.7293 -0.3779
   38CHL1  H26A 2806   0.733   2.865   4.419  0.0512  1.1105  1.6481
   38CHL1  H26B 2807   0.891   2.947   4.433 -0.3486  1.7116  0.5140
   38CHL1  H26C 2808   0.750   3.034   4.360 -0.7303 -1.3782 -0.5337
   38CHL1   C27 2809   0.930   2.752   4.246 -0.1477 -0.1102  0.0815
   38CHL1  H27A 2810   0.862   2.674   4.284  0.9997 -1.1884 -0.0183
   38CHL1  H27B 2811   0.966   2.710   4.149  1.6836  1.5143 -0.0252
   38CHL1  H27C 2812   1.025   2.761   4.302  1.0863 -0.4294 -1.8454
   39CHL1    C3 2813   6.449   3.083   2.964 -0.3435  0.0746 -0.2443
   39CHL1    H3 2814   6.344   3.121   2.970 -1.0447 -1.8361  0.2475
   39CHL1    O3 2815   6.475   3.077   2.823 -0.3782 -0.1987  0.2791
   39CHL1   H3' 2816   6.561   3.034   2.817  0.5615  1.6560 -0.2110
   39CHL1    C4 2817   6.547   3.182   3.038 -0.1429  0.6130  0.7202
   39CHL1   H4A 2818   6.646   3.141   3.012 -0.9426 -0.9869  0.1091
   39CHL1   H4B 2819   6.533   3.279   2.985  1.3284 -0.5642 -2.0004
   39CHL1    C5 2820   6.536   3.191   3.186 -0.0872  0.2596 -0.6481
   39CHL1    C6 2821   6.525   3.310   3.262  0.1912 -0.2138  0.2911
   39CHL1    H6 2822   6.528   3.406   3.209  0.1434 -0.1033  0.4869
   39CHL1    C7 2823   6.521   3.320   3.411  0.7843 -0.3677  0.3306
   39CHL1   H7A 2824   6.578   3.409   3.446  1.1310 -0.3168 -0.3406
   39CHL1   H7B 2825   6.420   3.346   3.449  0.0653 -1.0513 -1.0248
   39CHL1    C8 2826   6.576   3.186   3.476 -0.0159 -0.8380 -0.5695
   39CHL1    H8 2827   6.685   3.173   3.457  0.1281  0.5098 -0.7584
   39CHL1   C14 2828   6.542   3.189   3.623  0.3925  0.3675  0.2000
   39CHL1   H14 2829   6.432   3.203   3.621  0.3636  0.2988  0.8276
   39CHL1   C15 2830   6.604   3.303   3.702 -0.0781 -0.5580 -0.0707
   39CHL1  H15A 2831   6.708   3.321   3.670 -0.5737  0.5466 -1.1682
   39CHL1  H15B 2832   6.541   3.395   3.692  1.0757  0.3010  0.3491
   39CHL1   C16 2833   6.595   3.257   3.847 -1.2930 -0.3941 -0.0035
   39CHL1  H16A 2834   6.697   3.249   3.891 -1.7808 -2.6607  0.8679
   39CHL1  H16B 2835   6.538   3.328   3.910 -1.6147 -1.0825  0.4880
   39CHL1   C17 2836   6.538   3.115   3.845 -0.1353 -0.4067  0.3739
   39CHL1   H17 2837   6.428   3.129   3.840 -0.3691 -1.7952  0.9058
   39CHL1   C13 2838   6.579   3.066   3.703 -0.7752  0.2816  1.1932
   39CHL1   C18 2839   6.736   3.038   3.694 -0.0322  0.1274 -0.6339
   39CHL1  H18A 2840   6.767   3.008   3.592  0.6179 -1.1146 -0.0837
   39CHL1  H18B 2841   6.792   3.128   3.727  0.7132 -0.7888  0.6964
   39CHL1  H18C 2842   6.765   2.952   3.758  0.7631  1.8863  1.4937
   39CHL1   C12 2843   6.500   2.948   3.639  0.4567 -0.3032  0.7498
   39CHL1  H12A 2844   6.523   2.854   3.695  0.8119  0.4480  1.9109
   39CHL1  H12B 2845   6.396   2.983   3.654  0.4732 -0.6609  1.8398
   39CHL1   C11 2846   6.525   2.932   3.493  0.0249 -0.6643 -0.8957
   39CHL1  H11A 2847   6.629   2.900   3.472  0.9400  0.6695  1.2241
   39CHL1  H11B 2848   6.461   2.851   3.453  1.8435 -2.0463 -1.0904
   39CHL1    C9 2849   6.508   3.061   3.414  0.7777  0.1681  0.3357
   39CHL1    H9 2850   6.400   3.086   3.415  1.0294  1.4586  2.2883
   39CHL1   C10 2851   6.540   3.051   3.259  0.6664 -0.2661 -0.3173
   39CHL1   C19 2852   6.688   3.008   3.241 -0.0815  0.5760 -0.0415
   39CHL1  H19A 2853   6.704   2.971   3.138  0.2373  0.9252 -0.1190
   39CHL1  H19B 2854   6.756   3.092   3.267  0.2007  0.7793 -1.3688
   39CHL1  H19C 2855   6.717   2.922   3.304 -1.6669  0.1861  0.2020
   39CHL1    C1 2856   6.438   2.957   3.189 -0.3841  0.6168  0.2679
   39CHL1   H1A 2857   6.459   2.854   3.225 -0.2016  1.2965  2.2265
   39CHL1   H1B 2858   6.335   2.993   3.211 -0.2770 -0.6446  3.3261
   39CHL1    C2 2859   6.453   2.943   3.033 -0.4349  0.1307 -0.4127
   39CHL1   H2A 2860   6.377   2.871   2.996 -0.4626 -1.3953  2.3442
   39CHL1   H2B 2861   6.554   2.900   3.015  0.1614  1.0874  0.5347
   39CHL1   C20 2862   6.575   3.026   3.963 -0.3251  0.3714  0.2353
   39CHL1   H20 2863   6.684   3.006   3.954 -0.2956 -0.1605  1.5839
   39CHL1   C21 2864   6.482   2.900   3.959 -0.1497 -0.0138  0.1665
   39CHL1  H21A 2865   6.514   2.828   3.881 -0.5904 -1.2080  1.0533
   39CHL1  H21B 2866   6.374   2.922   3.944 -0.3442 -0.3528  0.9999
   39CHL1  H21C 2867   6.487   2.838   4.052 -1.3133 -0.9465 -0.3553
   39CHL1   C22 2868   6.567   3.088   4.103  0.6344 -0.7664 -0.5009
   39CHL1  H22A 2869   6.601   3.014   4.179 -1.1212 -0.6631  0.4453
   39CHL1  H22B 2870   6.645   3.167   4.105  1.6679 -1.7013  2.7569
   39CHL1   C23 2871   6.429   3.149   4.140 -0.3741  0.4776 -0.0817
   39CHL1  H23A 2872   6.404   3.223   4.061  1.7804 -0.8337 -2.1206
   39CHL1  H23B 2873   6.345   3.076   4.140 -0.0253 -0.0077  2.5109
   39CHL1   C24 2874   6.420   3.220   4.272 -0.9496  0.2311 -0.2451
   39CHL1  H24A 2875   6.323   3.273   4.284 -0.1972  1.2011  2.4971
   39CHL1  H24B 2876   6.429   3.148   4.356  3.5545  1.0086  0.1961
   39CHL1   C25 2877   6.527   3.339   4.300 -0.0445  0.7395  0.1450
   39CHL1   H25 2878   6.623   3.310   4.253 -1.2623  0.4681 -2.3821
   39CHL1   C26 2879   6.483   3.474   4.232 -0.0647  0.0505 -0.2813
   39CHL1  H26A 2880   6.550   3.556   4.265  1.6676 -1.1345 -0.7269
   39CHL1  H26B 2881   6.460   3.466   4.124 -0.7336  0.9881 -0.2219
   39CHL1  H26C 2882   6.387   3.499   4.283  1.1584  2.0565  1.1814
   39CHL1   C27 2883   6.537   3.358   4.452 -0.2040  0.6335  0.1167
   39CHL1  H27A 2884   6.493   3.276   4.513  2.2154  1.0101  2.5469
   39CHL1  H27B 2885   6.645   3.357   4.478 -0.1613  0.4703 -0.0583
   39CHL1  H27C 2886   6.497   3.458   4.480 -0.6411  1.1155 -1.9972
   40CHL1    C3 2887   6.711   1.234   2.721  0.0538  0.0378 -0.5869
   40CHL1    H3 2888   6.770   1.145   2.691  0.0595 -0.2221  0.1692
   40CHL1    O3 2889   6.680   1.316   2.606  0.7193 -0.0083 -0.4058
   40CHL1   H3' 2890   6.619   1.385   2.633  0.0511 -0.3098 -1.1062
   40CHL1    C4 2891   6.586   1.210   2.797  0.7184  0.7784 -0.0852
   40CHL1   H4A 2892   6.518   1.298   2.799 -0.5049 -0.0792 -1.4508
   40CHL1   H4B 2893   6.527   1.142   2.732 -0.2905  1.7587 -0.2361
   40CHL1    C5 2894   6.593   1.157   2.942 -0.2264  0.3973 -0.0536
   40CHL1    C6 2895   6.532   1.039   2.978  0.2850  0.5956 -0.0541
   40CHL1    H6 2896   6.465   0.985   2.910  0.6144 -0.3464  0.3445
   40CHL1    C7 2897   6.542   0.974   3.113 -0.3779  0.0405  0.5560
   40CHL1   H7A 2898   6.453   0.913   3.139 -1.1660  1.7633  2.0631
   40CHL1   H7B 2899   6.628   0.905   3.100 -1.3634 -1.0171 -0.7113
   40CHL1    C8 2900   6.602   1.078   3.217  0.0038 -0.5328 -0.3138
   40CHL1    H8 2901   6.520   1.150   3.241  2.9921  3.1858 -0.3477
   40CHL1   C14 2902   6.652   1.010   3.345  0.0677  0.0632 -0.8603
   40CHL1   H14 2903   6.734   0.939   3.320 -1.3391 -1.6339 -0.8754
   40CHL1   C15 2904   6.553   0.915   3.416  0.1708 -0.4997  0.1996
   40CHL1  H15A 2905   6.447   0.948   3.418  1.1257  3.4146 -2.3171
   40CHL1  H15B 2906   6.556   0.815   3.370  0.3920  0.1477 -1.2484
   40CHL1   C16 2907   6.617   0.901   3.561  0.7895  0.1567 -0.2496
   40CHL1  H16A 2908   6.539   0.929   3.635 -1.9567  1.3394 -3.3228
   40CHL1  H16B 2909   6.645   0.794   3.571 -2.3063 -0.6641  0.9759
   40CHL1   C17 2910   6.734   0.999   3.570 -0.1486 -0.8949 -0.1834
   40CHL1   H17 2911   6.830   0.949   3.544  0.4392  0.5413 -0.8541
   40CHL1   C13 2912   6.711   1.100   3.453  0.6361 -0.0776 -0.0291
   40CHL1   C18 2913   6.604   1.201   3.502 -0.3942 -0.0599  0.3911
   40CHL1  H18A 2914   6.640   1.281   3.569 -1.3313  0.0966  0.7336
   40CHL1  H18B 2915   6.553   1.255   3.419  1.2429  3.1136  1.2847
   40CHL1  H18C 2916   6.526   1.150   3.564  0.5171  0.5118  2.0787
   40CHL1   C12 2917   6.835   1.168   3.389 -0.9981 -0.0711 -0.6647
   40CHL1  H12A 2918   6.892   1.234   3.458  1.5873 -0.4349 -2.3356
   40CHL1  H12B 2919   6.909   1.090   3.360  1.2074  1.5013  0.4461
   40CHL1   C11 2920   6.799   1.249   3.264 -0.9843  0.0889 -0.0871
   40CHL1  H11A 2921   6.740   1.338   3.296  0.4223  0.2971  2.1644
   40CHL1  H11B 2922   6.896   1.278   3.219 -1.0698 -0.8228 -0.8857
   40CHL1    C9 2923   6.725   1.161   3.159 -0.3545 -0.5466  0.0804
   40CHL1    H9 2924   6.801   1.084   3.132 -0.0282 -0.8086  1.6348
   40CHL1   C10 2925   6.693   1.231   3.022 -0.4395 -0.4819 -0.4464
   40CHL1   C19 2926   6.632   1.369   3.060 -0.0419 -0.3821  0.3016
   40CHL1  H19A 2927   6.605   1.444   2.983 -0.3344  2.0787  2.6407
   40CHL1  H19B 2928   6.544   1.354   3.126  0.4632 -2.0669  0.6321
   40CHL1  H19C 2929   6.706   1.425   3.122 -1.1078  0.3671  0.9239
   40CHL1    C1 2930   6.830   1.253   2.943  0.8065 -0.2974 -0.1368
   40CHL1   H1A 2931   6.889   1.317   3.013  0.1566  0.3577 -0.1681
   40CHL1   H1B 2932   6.891   1.162   2.924  1.4640  0.3916 -1.4735
   40CHL1    C2 2933   6.808   1.320   2.809  0.4631 -0.6948  0.6136
   40CHL1   H2A 2934   6.907   1.316   2.759  0.2629 -1.5836  0.2490
   40CHL1   H2B 2935   6.760   1.420   2.815 -0.2891 -0.7535 -2.4046
   40CHL1   C20 2936   6.770   1.056   3.707  0.5985  0.7744 -0.3922
   40CHL1   H20 2937   6.690   1.131   3.723 -0.2873 -0.3126  0.4408
   40CHL1   C21 2938   6.904   1.126   3.698 -0.0662 -0.1924  0.1016
   40CHL1  H21A 2939   6.957   1.136   3.795  1.7497  0.8353 -0.9472
   40CHL1  H21B 2940   6.885   1.226   3.653  0.9597 -0.2219 -0.4310
   40CHL1  H21C 2941   6.974   1.083   3.623  0.6266  2.5394 -0.9635
   40CHL1   C22 2942   6.774   0.941   3.811 -0.6205 -0.8248 -0.1985
   40CHL1  H22A 2943   6.669   0.903   3.810 -0.7699 -0.4716  0.9825
   40CHL1  H22B 2944   6.849   0.864   3.782 -0.6361 -0.5576 -0.9752
   40CHL1   C23 2945   6.824   0.975   3.955 -0.8460 -0.4209  0.0789
   40CHL1  H23A 2946   6.921   1.030   3.953 -0.8259 -0.4729 -0.6587
   40CHL1  H23B 2947   6.744   1.041   3.992 -2.4996 -2.5210  0.4353
   40CHL1   C24 2948   6.841   0.851   4.045  0.4853  0.0642 -0.5088
   40CHL1  H24A 2949   6.742   0.815   4.083  0.9500  1.2527  2.0315
   40CHL1  H24B 2950   6.902   0.787   3.978  2.7020  1.8039 -0.2358
   40CHL1   C25 2951   6.928   0.871   4.170  0.3446 -0.4049 -0.5021
   40CHL1   H25 2952   6.887   0.960   4.221 -0.8912 -0.7660 -0.8173
   40CHL1   C26 2953   6.926   0.748   4.264 -0.1951 -1.0544  0.3418
   40CHL1  H26A 2954   6.985   0.783   4.351 -0.1426 -1.2111  0.3684
   40CHL1  H26B 2955   6.820   0.720   4.280 -0.1105 -1.5940 -0.0196
   40CHL1  H26C 2956   6.972   0.661   4.212 -0.4984  0.8639 -3.4704
   40CHL1   C27 2957   7.080   0.907   4.146  0.0358  0.5256  0.1196
   40CHL1  H27A 2958   7.083   1.005   4.094 -0.1584  0.1811 -0.5547
   40CHL1  H27B 2959   7.137   0.911   4.241 -1.2998 -1.3192  1.0546
   40CHL1  H27C 2960   7.124   0.828   4.081 -1.2553  0.2116 -0.3931
   41CHL1    C3 2961   1.228   1.197   2.341 -0.1453  0.3802 -0.2489
   41CHL1    H3 2962   1.255   1.304   2.346  0.7066  0.1421  0.4172
   41CHL1    O3 2963   1.225   1.137   2.206 -0.5627  0.3287 -0.2161
   41CHL1   H3' 2964   1.312   1.113   2.172 -1.6170 -1.1701 -2.0937
   41CHL1    C4 2965   1.342   1.124   2.418  0.4469 -0.4253 -0.3272
   41CHL1   H4A 2966   1.322   1.015   2.415 -1.0573 -0.2129  0.9776
   41CHL1   H4B 2967   1.438   1.153   2.369  0.5946  1.3040  0.8901
   41CHL1    C5 2968   1.354   1.163   2.563 -0.6905 -0.4608  0.1288
   41CHL1    C6 2969   1.465   1.218   2.614  0.0745  0.0775 -0.3749
   41CHL1    H6 2970   1.562   1.219   2.562 -0.0647 -0.0444 -0.6372
   41CHL1    C7 2971   1.480   1.276   2.760  0.1533 -0.5392  0.3002
   41CHL1   H7A 2972   1.576   1.244   2.808 -0.3199  0.8092  2.2608
   41CHL1   H7B 2973   1.486   1.387   2.757 -2.4496 -0.3508 -0.1665
   41CHL1    C8 2974   1.359   1.226   2.841 -0.3844 -0.2753 -0.5460
   41CHL1    H8 2975   1.367   1.120   2.872  0.3313 -0.1150 -0.1777
   41CHL1   C14 2976   1.357   1.303   2.980  0.2033  0.5042 -0.0993
   41CHL1   H14 2977   1.349   1.410   2.952  0.6710  0.8676  1.0849
   41CHL1   C15 2978   1.485   1.287   3.063 -0.0556  0.3937  0.3747
   41CHL1  H15A 2979   1.505   1.180   3.088 -1.7823  0.3537  1.8164
   41CHL1  H15B 2980   1.572   1.331   3.011 -1.6205 -1.0883 -3.9508
   41CHL1   C16 2981   1.449   1.346   3.196  0.0232 -0.8903 -0.2121
   41CHL1  H16A 2982   1.475   1.270   3.274 -1.2020 -1.5469 -0.4283
   41CHL1  H16B 2983   1.493   1.447   3.213 -0.1161 -0.8184 -0.2783
   41CHL1   C17 2984   1.294   1.367   3.184 -0.6251  0.2668  0.0848
   41CHL1   H17 2985   1.283   1.473   3.152 -1.9749  0.6965  1.8412
   41CHL1   C13 2986   1.245   1.280   3.071  0.1734 -0.1003 -0.0259
   41CHL1   C18 2987   1.252   1.135   3.126 -0.2536  0.3979  0.2371
   41CHL1  H18A 2988   1.264   1.065   3.040 -0.3331  2.0762 -1.2024
   41CHL1  H18B 2989   1.336   1.114   3.197 -0.1756 -0.7673 -0.1646
   41CHL1  H18C 2990   1.152   1.111   3.168 -1.0859  0.2049 -1.7237
   41CHL1   C12 2991   1.113   1.320   2.990  0.6479  0.1749  0.1531
   41CHL1  H12A 2992   1.024   1.304   3.054  1.2089  1.6906  1.3712
   41CHL1  H12B 2993   1.114   1.426   2.957 -0.2541  0.5608  1.3062
   41CHL1   C11 2994   1.105   1.232   2.859  0.4340 -0.2701 -0.0156
   41CHL1  H11A 2995   1.104   1.129   2.901  0.3414 -0.2783 -0.0373
   41CHL1  H11B 2996   1.013   1.259   2.803  0.7219 -0.8018 -0.7515
   41CHL1    C9 2997   1.228   1.238   2.772 -0.3517 -0.3991  0.9374
   41CHL1    H9 2998   1.228   1.344   2.737 -1.7002 -0.7351 -0.2165
   41CHL1   C10 2999   1.222   1.153   2.641 -0.3641  0.4410  0.5303
   41CHL1   C19 3000   1.196   1.004   2.679  0.5279 -0.0794 -0.2945
   41CHL1  H19A 3001   1.288   0.953   2.717 -0.7205 -3.0935 -1.0147
   41CHL1  H19B 3002   1.113   0.989   2.752  0.5643 -0.2913 -0.2961
   41CHL1  H19C 3003   1.164   0.946   2.590 -0.4424  1.2791 -0.8693
   41CHL1    C1 3004   1.107   1.210   2.556  0.2124  0.6254  0.3549
   41CHL1   H1A 3005   1.013   1.177   2.607  0.6833 -1.4223 -0.0443
   41CHL1   H1B 3006   1.113   1.321   2.547  0.4250  0.6269  0.5212
   41CHL1    C2 3007   1.100   1.163   2.414 -0.1482 -0.4472  0.0790
   41CHL1   H2A 3008   1.018   1.220   2.365  0.3050  0.6240  0.5395
   41CHL1   H2B 3009   1.083   1.054   2.398 -1.8590  0.1581 -3.0656
   41CHL1   C20 3010   1.217   1.368   3.319 -0.1514 -0.7011 -0.3377
   41CHL1   H20 3011   1.243   1.279   3.380  1.4529  0.6399  1.0634
   41CHL1   C21 3012   1.058   1.364   3.304 -0.6976 -0.0362  0.1557
   41CHL1  H21A 3013   1.033   1.447   3.234  1.0111  1.0851  0.8012
   41CHL1  H21B 3014   1.025   1.385   3.409  1.8639 -1.5630  1.3717
   41CHL1  H21C 3015   1.016   1.268   3.267 -1.2455  0.8374 -1.5962
   41CHL1   C22 3016   1.255   1.495   3.407  0.2001  1.0357  0.0942
   41CHL1  H22A 3017   1.232   1.470   3.513  0.5635  1.7690  0.3434
   41CHL1  H22B 3018   1.365   1.493   3.399  0.0592 -0.5135 -3.0505
   41CHL1   C23 3019   1.190   1.630   3.359  0.4168  0.4357  0.5976
   41CHL1  H23A 3020   1.189   1.631   3.248  1.0382 -1.1967  0.5518
   41CHL1  H23B 3021   1.087   1.626   3.400  0.5169 -0.6402  0.7746
   41CHL1   C24 3022   1.269   1.749   3.404  0.5274 -0.3876 -0.0587
   41CHL1  H24A 3023   1.286   1.736   3.513 -1.6852  1.2701  0.5746
   41CHL1  H24B 3024   1.364   1.742   3.347  0.5814 -2.0913  0.1949
   41CHL1   C25 3025   1.202   1.882   3.369  0.5626 -1.4007  0.0612
   41CHL1   H25 3026   1.095   1.870   3.397  0.2147  1.0299  0.0342
   41CHL1   C26 3027   1.282   1.986   3.438 -0.0375  0.2958 -0.0319
   41CHL1  H26A 3028   1.237   2.088   3.434 -0.5275  0.0545 -0.7671
   41CHL1  H26B 3029   1.298   1.974   3.547  0.7267 -1.2968 -0.3077
   41CHL1  H26C 3030   1.384   1.998   3.397 -0.6304  0.8606 -1.3952
   41CHL1   C27 3031   1.200   1.914   3.218  0.5699 -0.4154  0.3327
   41CHL1  H27A 3032   1.161   2.017   3.203  2.2130 -0.1314 -2.6583
   41CHL1  H27B 3033   1.303   1.920   3.177 -0.1292  2.5693 -1.2833
   41CHL1  H27C 3034   1.140   1.846   3.154  1.9698 -1.3187 -0.0515
   42CHL1    C3 3035   4.865   4.380   2.952  0.0604 -0.1678  0.1666
   42CHL1    H3 3036   4.822   4.473   2.995  2.1604  1.0372 -0.1577
   42CHL1    O3 3037   4.873   4.357   2.812  0.1074 -0.0415  0.2291
   42CHL1   H3' 3038   4.876   4.261   2.810 -0.8505 -0.0715 -0.3545
   42CHL1    C4 3039   5.009   4.364   3.009 -0.3466 -0.7894  0.3668
   42CHL1   H4A 3040   5.060   4.278   2.961 -1.1211 -0.2223 -1.5897
   42CHL1   H4B 3041   5.051   4.460   2.972 -0.7345 -0.1572  1.5134
   42CHL1    C5 3042   5.011   4.359   3.160 -0.1557  0.3489 -0.5113
   42CHL1    C6 3043   5.075   4.449   3.230 -0.1506  0.0010  0.2736
   42CHL1    H6 3044   5.123   4.533   3.177  0.3518 -0.0628  0.6224
   42CHL1    C7 3045   5.079   4.443   3.377 -0.6155  0.2616 -0.5259
   42CHL1   H7A 3046   5.180   4.464   3.419  0.1625 -3.6241 -0.0296
   42CHL1   H7B 3047   5.004   4.517   3.411 -2.3361 -0.8785 -1.7009
   42CHL1    C8 3048   5.044   4.302   3.436  0.2176  0.5740  0.0700
   42CHL1    H8 3049   5.125   4.230   3.413  0.3002  1.1853 -1.7085
   42CHL1   C14 3050   5.020   4.309   3.588 -0.1476  0.3829  0.2905
   42CHL1   H14 3051   4.936   4.382   3.594 -0.9850 -0.4626 -0.6833
   42CHL1   C15 3052   5.129   4.375   3.676 -0.2458  0.1179 -0.5452
   42CHL1  H15A 3053   5.222   4.320   3.651  0.7169  1.5738 -0.3241
   42CHL1  H15B 3054   5.145   4.483   3.653 -1.2028  0.5522  0.6903
   42CHL1   C16 3055   5.077   4.339   3.819  0.3524  0.1725  0.6172
   42CHL1  H16A 3056   5.152   4.282   3.879 -0.2546 -2.4404 -0.9144
   42CHL1  H16B 3057   5.058   4.433   3.874  0.2448  2.2878 -2.7211
   42CHL1   C17 3058   4.951   4.244   3.808 -0.1250  0.0452 -0.0861
   42CHL1   H17 3059   4.862   4.310   3.802 -1.9060 -2.3258 -2.0219
   42CHL1   C13 3060   4.966   4.183   3.662 -0.3420  0.5229 -0.5019
   42CHL1   C18 3061   5.078   4.072   3.666  0.7486 -0.1653  0.6651
   42CHL1  H18A 3062   5.122   4.064   3.564  0.8714  0.0551  0.7000
   42CHL1  H18B 3063   5.163   4.086   3.736  1.0800 -1.3938  0.5395
   42CHL1  H18C 3064   5.029   3.978   3.699  0.8004  0.1133  1.5561
   42CHL1   C12 3065   4.841   4.140   3.591 -0.3824 -0.2562 -0.9190
   42CHL1  H12A 3066   4.812   4.043   3.638  1.1797 -0.0170  0.6370
   42CHL1  H12B 3067   4.762   4.214   3.610 -0.2875 -0.8866  2.4494
   42CHL1   C11 3068   4.864   4.126   3.440 -0.4580 -0.1596 -0.7232
   42CHL1  H11A 3069   4.931   4.038   3.435 -0.0696  0.0717  0.1184
   42CHL1  H11B 3070   4.772   4.084   3.395 -1.2305  0.6985  0.0177
   42CHL1    C9 3071   4.915   4.251   3.374  0.0784  0.0859 -0.9443
   42CHL1    H9 3072   4.844   4.331   3.402  0.3569 -0.2842  0.9673
   42CHL1   C10 3073   4.928   4.243   3.218 -0.1714  0.2575  0.0924
   42CHL1   C19 3074   4.988   4.101   3.181  0.2761 -0.2851 -0.1422
   42CHL1  H19A 3075   4.918   4.032   3.233 -0.3759  2.9425  3.7255
   42CHL1  H19B 3076   4.991   4.076   3.073  1.1300 -0.4157 -0.0948
   42CHL1  H19C 3077   5.092   4.097   3.219  0.1968 -0.4361  0.0584
   42CHL1    C1 3078   4.784   4.252   3.161 -0.2980 -0.3461  0.2485
   42CHL1   H1A 3079   4.729   4.164   3.202 -1.4341  0.4700  0.5107
   42CHL1   H1B 3080   4.748   4.342   3.214  0.9968  0.0807  0.4371
   42CHL1    C2 3081   4.777   4.262   3.009  0.1192  0.3370  0.2097
   42CHL1   H2A 3082   4.674   4.273   2.970 -0.8019 -0.4536  2.3096
   42CHL1   H2B 3083   4.825   4.170   2.967  0.7536 -0.1054  1.8148
   42CHL1   C20 3084   4.935   4.153   3.930 -0.5604  0.0340  0.1613
   42CHL1   H20 3085   5.022   4.084   3.929  0.1743  0.9419 -0.3293
   42CHL1   C21 3086   4.793   4.092   3.932  0.0491  0.1055  0.2913
   42CHL1  H21A 3087   4.722   4.177   3.940  0.0651  0.1934 -0.4180
   42CHL1  H21B 3088   4.777   4.010   4.005  1.0320  1.0550  1.6075
   42CHL1  H21C 3089   4.778   4.055   3.828 -0.2296 -0.8697  0.6600
   42CHL1   C22 3090   4.963   4.231   4.057  0.5946  0.8299  0.2596
   42CHL1  H22A 3091   5.066   4.272   4.059  0.5477  1.0637 -1.1508
   42CHL1  H22B 3092   4.891   4.314   4.070 -0.3752  0.2756 -1.2010
   42CHL1   C23 3093   4.964   4.137   4.183  0.3200 -0.8309  0.3216
   42CHL1  H23A 3094   4.866   4.086   4.188  0.3766 -1.1144 -0.9339
   42CHL1  H23B 3095   5.044   4.061   4.172  1.1224  0.0532 -0.1879
   42CHL1   C24 3096   4.990   4.225   4.311 -0.5126  0.7404  0.0960
   42CHL1  H24A 3097   5.068   4.300   4.283  0.0619  0.6507  1.3943
   42CHL1  H24B 3098   4.894   4.267   4.346 -0.2468  1.1763  0.3129
   42CHL1   C25 3099   5.043   4.143   4.434 -0.2221  0.0677  0.7957
   42CHL1   H25 3100   5.136   4.083   4.422  0.2012  0.7223  0.7910
   42CHL1   C26 3101   5.072   4.242   4.549  0.0979 -0.1201  0.3209
   42CHL1  H26A 3102   4.975   4.279   4.589 -0.3244 -1.5158  0.6325
   42CHL1  H26B 3103   5.123   4.191   4.633 -1.0952 -2.5544 -0.3474
   42CHL1  H26C 3104   5.133   4.328   4.512 -1.2159 -0.4097 -2.8637
   42CHL1   C27 3105   4.949   4.036   4.479  0.6905  0.4800 -0.6684
   42CHL1  H27A 3106   4.931   3.946   4.417 -0.8135  0.4040 -0.1779
   42CHL1  H27B 3107   4.996   3.989   4.568 -0.0491  4.0644  1.8458
   42CHL1  H27C 3108   4.851   4.066   4.522 -0.0704 -2.7751  0.1671
   43CHL1    C3 3109   5.284   2.228   3.077  0.0390  0.0035 -0.9310
   43CHL1    H3 3110   5.320   2.133   3.031 -1.9455 -0.5581 -1.4357
   43CHL1    O3 3111   5.190   2.269   2.975  0.3590  0.1197  0.1645
   43CHL1   H3' 3112   5.177   2.362   2.994 -2.4081 -0.4813  1.7252
   43CHL1    C4 3113   5.212   2.211   3.215  0.3097  0.0352 -0.4278
   43CHL1   H4A 3114   5.142   2.296   3.235 -1.0648 -1.3824  1.0832
   43CHL1   H4B 3115   5.144   2.124   3.207  1.3875 -0.8918  0.2560
   43CHL1    C5 3116   5.304   2.200   3.335  0.4484  0.8268 -0.7837
   43CHL1    C6 3117   5.281   2.103   3.426  0.1874 -0.3728  0.0025
   43CHL1    H6 3118   5.200   2.028   3.420 -0.3424 -0.0980  2.4122
   43CHL1    C7 3119   5.358   2.096   3.551 -0.7060 -0.0479 -0.5520
   43CHL1   H7A 3120   5.289   2.108   3.637  0.5007  1.1650  0.2929
   43CHL1   H7B 3121   5.412   1.999   3.555 -0.4325  0.0982 -0.6277
   43CHL1    C8 3122   5.463   2.207   3.567 -0.2009  0.5203  0.2523
   43CHL1    H8 3123   5.420   2.293   3.622 -2.1292 -0.7779  0.9107
   43CHL1   C14 3124   5.572   2.159   3.662  0.0308  0.4215 -0.0858
   43CHL1   H14 3125   5.613   2.068   3.613 -1.5435 -0.5540  0.3165
   43CHL1   C15 3126   5.539   2.106   3.803 -0.1671 -0.7590 -0.7850
   43CHL1  H15A 3127   5.454   2.172   3.832 -0.4569 -1.6512  0.4772
   43CHL1  H15B 3128   5.509   1.999   3.798 -0.9188 -0.9690  3.8759
   43CHL1   C16 3129   5.667   2.118   3.891 -0.5939  0.0454 -0.0064
   43CHL1  H16A 3130   5.645   2.193   3.969 -3.2098 -0.3970 -0.2263
   43CHL1  H16B 3131   5.686   2.024   3.946  0.7280 -0.2510 -0.9287
   43CHL1   C17 3132   5.783   2.171   3.790  0.7957 -0.6478  0.4639
   43CHL1   H17 3133   5.824   2.083   3.735 -0.6425 -0.2251 -1.3985
   43CHL1   C13 3134   5.701   2.247   3.681 -0.0073 -0.6191 -0.8416
   43CHL1   C18 3135   5.660   2.388   3.735  0.3374 -0.5097 -0.6127
   43CHL1  H18A 3136   5.608   2.372   3.832 -0.7698 -0.4647 -1.1826
   43CHL1  H18B 3137   5.744   2.461   3.732  0.3004 -0.4627 -0.5256
   43CHL1  H18C 3138   5.584   2.432   3.667 -2.7715 -1.9185  1.7284
   43CHL1   C12 3139   5.772   2.266   3.544  0.1767  0.2013  0.0970
   43CHL1  H12A 3140   5.866   2.325   3.537  0.5913 -0.0800  2.5226
   43CHL1  H12B 3141   5.802   2.165   3.507 -1.3944  0.4666 -2.1402
   43CHL1   C11 3142   5.666   2.325   3.453 -0.3302 -0.1754  0.0398
   43CHL1  H11A 3143   5.655   2.429   3.488  1.3561 -0.4072  1.3780
   43CHL1  H11B 3144   5.720   2.335   3.356 -1.5436  1.3852 -0.5014
   43CHL1    C9 3145   5.538   2.239   3.438  0.3109 -0.4509 -0.5428
   43CHL1    H9 3146   5.576   2.144   3.395 -1.3035 -1.4829  0.2135
   43CHL1   C10 3147   5.431   2.291   3.334 -0.3874 -0.5301 -0.5235
   43CHL1   C19 3148   5.388   2.435   3.381 -0.0073  0.4487  0.6797
   43CHL1  H19A 3149   5.336   2.422   3.478  1.2731  0.3878  1.3754
   43CHL1  H19B 3150   5.477   2.501   3.378 -1.3277  2.2614 -0.6437
   43CHL1  H19C 3151   5.320   2.477   3.304  0.8489  0.0851 -0.2884
   43CHL1    C1 3152   5.497   2.304   3.194 -0.1216  0.1154 -0.0911
   43CHL1   H1A 3153   5.555   2.399   3.194  1.0447 -0.5493 -1.7815
   43CHL1   H1B 3154   5.561   2.215   3.176 -0.2443 -0.0713  0.3783
   43CHL1    C2 3155   5.401   2.327   3.074 -0.2734 -0.2711 -0.7727
   43CHL1   H2A 3156   5.444   2.335   2.972 -0.6182 -0.0551 -0.9047
   43CHL1   H2B 3157   5.349   2.424   3.092 -1.2578 -0.8752 -0.3229
   43CHL1   C20 3158   5.904   2.227   3.863  0.0633 -0.2561 -0.0626
   43CHL1   H20 3159   5.870   2.317   3.918 -0.9478  1.1159 -2.7381
   43CHL1   C21 3160   6.001   2.262   3.752  0.1569 -0.2749 -0.0172
   43CHL1  H21A 3161   6.098   2.293   3.798  0.2173  0.0464 -0.3607
   43CHL1  H21B 3162   5.974   2.357   3.701  0.2271  1.3193  2.6627
   43CHL1  H21C 3163   6.005   2.176   3.683 -1.9241 -1.3831  1.1404
   43CHL1   C22 3164   5.957   2.132   3.967 -0.7540 -0.4356 -0.6324
   43CHL1  H22A 3165   5.887   2.093   4.044  0.7462 -0.7585  0.6111
   43CHL1  H22B 3166   5.994   2.043   3.911  1.6558 -0.6447  1.1510
   43CHL1   C23 3167   6.068   2.191   4.060 -0.1729 -0.0711 -0.0745
   43CHL1  H23A 3168   6.167   2.191   4.011 -0.0200  2.1707  0.1498
   43CHL1  H23B 3169   6.035   2.291   4.096  0.8677 -0.0436  0.8694
   43CHL1   C24 3170   6.071   2.103   4.183  0.8505  0.0011  0.1930
   43CHL1  H24A 3171   5.975   2.102   4.239  0.7088  3.9268  0.2559
   43CHL1  H24B 3172   6.098   2.000   4.152  1.0827  0.0528  0.2238
   43CHL1   C25 3173   6.173   2.158   4.290  0.2473  0.6016  0.2573
   43CHL1   H25 3174   6.145   2.260   4.326  1.2432  0.6341  0.9958
   43CHL1   C26 3175   6.163   2.058   4.409 -0.9434  0.1935 -0.2498
   43CHL1  H26A 3176   6.058   2.062   4.444  0.1237  0.2049  3.3441
   43CHL1  H26B 3177   6.195   1.956   4.377 -0.9682 -0.0446  0.4692
   43CHL1  H26C 3178   6.229   2.078   4.496 -0.5968  1.5581 -0.8050
   43CHL1   C27 3179   6.316   2.165   4.236  0.0433  0.3530  0.1154
   43CHL1  H27A 3180   6.347   2.076   4.178 -1.6370 -0.4317  0.3505
   43CHL1  H27B 3181   6.312   2.257   4.174  0.2545 -0.3829 -1.0075
   43CHL1  H27C 3182   6.385   2.177   4.323 -0.5402 -0.9910  0.7949
   44CHL1    C3 3183   5.525   4.387   3.282  0.2124 -0.1451  0.0398
   44CHL1    H3 3184   5.482   4.485   3.309 -0.9309 -0.2592 -1.2749
   44CHL1    O3 3185   5.553   4.385   3.143  0.0115 -0.2534 -0.4639
   44CHL1   H3' 3186   5.473   4.406   3.095  0.3665  0.2368 -0.8619
   44CHL1    C4 3187   5.658   4.367   3.349 -0.8289 -0.6304  0.3693
   44CHL1   H4A 3188   5.714   4.290   3.291 -2.8130 -0.4063 -2.0210
   44CHL1   H4B 3189   5.704   4.465   3.326  1.3076 -1.8687 -1.0014
   44CHL1    C5 3190   5.661   4.344   3.499 -0.1341 -0.8382  0.4310
   44CHL1    C6 3191   5.737   4.417   3.584  0.4130  0.3464 -0.1588
   44CHL1    H6 3192   5.810   4.496   3.560 -0.0177  1.1819  1.2158
   44CHL1    C7 3193   5.731   4.400   3.734  0.2319  0.9541  0.1511
   44CHL1   H7A 3194   5.836   4.409   3.768  0.3938 -0.6716  0.1531
   44CHL1   H7B 3195   5.692   4.489   3.788 -2.0244  1.3279 -1.8831
   44CHL1    C8 3196   5.665   4.270   3.791  0.1961 -0.1088  0.9100
   44CHL1    H8 3197   5.742   4.191   3.775  1.0833  1.1983 -1.8330
   44CHL1   C14 3198   5.631   4.274   3.940 -0.9519  0.5612 -1.2190
   44CHL1   H14 3199   5.557   4.356   3.941 -1.3226  0.2883  1.6021
   44CHL1   C15 3200   5.741   4.316   4.039  0.3279 -0.3443  0.7004
   44CHL1  H15A 3201   5.833   4.254   4.033 -0.2638 -1.1638 -0.1654
   44CHL1  H15B 3202   5.772   4.423   4.037 -1.0029  0.0709  1.2631
   44CHL1   C16 3203   5.678   4.294   4.180  0.2843 -0.6514  0.3045
   44CHL1  H16A 3204   5.751   4.230   4.234  1.2175 -0.0673 -0.2453
   44CHL1  H16B 3205   5.670   4.395   4.226  2.9619 -0.0564 -0.3579
   44CHL1   C17 3206   5.550   4.207   4.149 -0.0124  1.1040  0.4236
   44CHL1   H17 3207   5.469   4.283   4.138 -2.4997 -1.7173 -4.3322
   44CHL1   C13 3208   5.563   4.154   4.000  0.0290 -0.0959 -0.0940
   44CHL1   C18 3209   5.659   4.034   4.007  0.8099  0.1294 -0.0259
   44CHL1  H18A 3210   5.638   3.957   4.084  3.6762  0.9256  1.7286
   44CHL1  H18B 3211   5.686   3.985   3.911  0.3026  1.0110 -0.6339
   44CHL1  H18C 3212   5.751   4.069   4.058  0.3822  1.1415  0.0760
   44CHL1   C12 3213   5.429   4.147   3.922  0.2806 -0.8070 -0.0138
   44CHL1  H12A 3214   5.360   4.062   3.942 -1.7432  0.3932 -1.4274
   44CHL1  H12B 3215   5.368   4.238   3.942 -2.4639 -1.9328 -2.5799
   44CHL1   C11 3216   5.454   4.129   3.773 -0.1036  0.0610 -0.4442
   44CHL1  H11A 3217   5.502   4.029   3.759 -0.8951 -0.4273  0.2096
   44CHL1  H11B 3218   5.359   4.136   3.717  0.0306  0.7293 -0.5902
   44CHL1    C9 3219   5.537   4.253   3.709 -0.2718 -0.0473  0.7366
   44CHL1    H9 3220   5.475   4.345   3.721 -0.8085 -0.3364  0.2391
   44CHL1   C10 3221   5.555   4.248   3.555 -0.4652  0.6092  0.5467
   44CHL1   C19 3222   5.606   4.110   3.519 -0.4427 -0.1259  0.1095
   44CHL1  H19A 3223   5.646   4.104   3.415 -0.7741 -1.3511  0.0369
   44CHL1  H19B 3224   5.686   4.091   3.594 -1.6298  2.9312  2.3345
   44CHL1  H19C 3225   5.528   4.032   3.503 -0.9535  0.4197 -0.0619
   44CHL1    C1 3226   5.423   4.280   3.484  0.0584 -0.1481  0.6473
   44CHL1   H1A 3227   5.342   4.208   3.509 -0.3666 -0.7329 -2.0829
   44CHL1   H1B 3228   5.384   4.380   3.511 -0.3958 -0.4367  1.0746
   44CHL1    C2 3229   5.429   4.280   3.329  0.0077  0.7191  0.5842
   44CHL1   H2A 3230   5.330   4.306   3.287 -0.6658 -1.8870  0.3923
   44CHL1   H2B 3231   5.467   4.184   3.286 -0.7899  0.4289  0.5156
   44CHL1   C20 3232   5.501   4.124   4.264  0.0528 -0.1391 -0.3116
   44CHL1   H20 3233   5.578   4.046   4.286  0.2925  0.2678  0.2983
   44CHL1   C21 3234   5.374   4.040   4.220  0.5819  0.3874 -0.0910
   44CHL1  H21A 3235   5.412   3.953   4.161  1.1029  0.9583 -0.6051
   44CHL1  H21B 3236   5.307   4.094   4.150  2.0826  1.4987 -0.7154
   44CHL1  H21C 3237   5.322   3.989   4.305  1.7475  1.2801  1.2092
   44CHL1   C22 3238   5.488   4.197   4.403  0.2164 -0.2858 -0.1017
   44CHL1  H22A 3239   5.578   4.260   4.420 -1.5529  3.1730 -2.3430
   44CHL1  H22B 3240   5.397   4.257   4.380 -0.6266 -1.0300  1.0942
   44CHL1   C23 3241   5.462   4.092   4.517 -0.5907  0.2154 -0.0853
   44CHL1  H23A 3242   5.355   4.064   4.518 -1.0374  1.8245  0.7132
   44CHL1  H23B 3243   5.520   4.000   4.493  0.7238  0.2823  2.4674
   44CHL1   C24 3244   5.498   4.144   4.653 -0.1562 -0.4322  0.1021
   44CHL1  H24A 3245   5.609   4.149   4.662 -0.2279 -1.4179  2.5935
   44CHL1  H24B 3246   5.453   4.243   4.674 -0.3846 -0.7333  1.1252
   44CHL1   C25 3247   5.472   4.042   4.772  0.7156 -0.2108  0.8751
   44CHL1   H25 3248   5.529   3.955   4.731 -0.4027 -0.9881  0.9142
   44CHL1   C26 3249   5.515   4.094   4.906  0.6130 -0.0349 -0.4113
   44CHL1  H26A 3250   5.626   4.097   4.903  0.6320  1.9536  0.5378
   44CHL1  H26B 3251   5.469   4.189   4.938 -0.8683 -0.5067 -1.0712
   44CHL1  H26C 3252   5.495   4.016   4.983 -0.0646  0.4649 -0.0767
   44CHL1   C27 3253   5.314   4.016   4.785  0.7773  0.6405  0.9272
   44CHL1  H27A 3254   5.284   3.950   4.700 -0.7244  1.6156  0.6618
   44CHL1  H27B 3255   5.295   3.960   4.879  1.3794  1.8966  1.8247
   44CHL1  H27C 3256   5.250   4.106   4.791  0.6785  0.8385 -1.8517
   45CHL1    C3 3257   5.453   5.864   2.890  0.4257 -0.2750  0.5388
   45CHL1    H3 3258   5.343   5.855   2.886  0.4414 -1.0118  1.5113
   45CHL1    O3 3259   5.491   5.891   2.754  0.0492  0.0447  0.3060
   45CHL1   H3' 3260   5.584   5.916   2.759 -0.1189  0.8649 -0.4413
   45CHL1    C4 3261   5.521   5.966   2.990  0.4725 -0.6708 -0.4386
   45CHL1   H4A 3262   5.628   5.964   2.960  0.3536  2.5387 -1.5156
   45CHL1   H4B 3263   5.482   6.066   2.960  0.3986 -0.8415 -0.9140
   45CHL1    C5 3264   5.504   5.933   3.138  0.0513  0.7970  0.6808
   45CHL1    C6 3265   5.452   6.015   3.230 -0.2530 -0.0070  0.2982
   45CHL1    H6 3266   5.434   6.117   3.192 -1.3556 -0.6090 -0.8670
   45CHL1    C7 3267   5.441   5.994   3.380  0.2364  0.1718  0.8442
   45CHL1   H7A 3268   5.490   6.078   3.433 -0.1755  1.1050 -0.1993
   45CHL1   H7B 3269   5.333   5.977   3.401 -1.0800  1.0826 -3.8556
   45CHL1    C8 3270   5.516   5.865   3.427  0.2275  0.0999  0.2975
   45CHL1    H8 3271   5.623   5.893   3.443  0.1245 -0.3626  1.9834
   45CHL1   C14 3272   5.455   5.824   3.558 -0.1231  0.6462  0.0924
   45CHL1   H14 3273   5.353   5.790   3.532 -0.4463  0.3070  1.6882
   45CHL1   C15 3274   5.461   5.929   3.676 -0.2311  0.5133  0.2484
   45CHL1  H15A 3275   5.562   5.976   3.670  0.3429 -0.6649  0.3599
   45CHL1  H15B 3276   5.384   6.009   3.674 -0.6439  0.1173 -0.8042
   45CHL1   C16 3277   5.437   5.841   3.798 -0.5043  0.2228 -0.4657
   45CHL1  H16A 3278   5.503   5.874   3.881 -0.8656  3.4198 -1.3190
   45CHL1  H16B 3279   5.333   5.853   3.835  0.7835  0.6143  3.5093
   45CHL1   C17 3280   5.457   5.692   3.755 -0.2919 -0.4774 -0.4769
   45CHL1   H17 3281   5.351   5.659   3.746 -0.6217  0.4330 -0.1025
   45CHL1   C13 3282   5.520   5.701   3.615 -1.1986  0.1399  0.8384
   45CHL1   C18 3283   5.675   5.711   3.640  0.2552 -0.1300  0.2154
   45CHL1  H18A 3284   5.732   5.617   3.655  0.7455  0.3240  1.2943
   45CHL1  H18B 3285   5.722   5.745   3.545  0.3773 -2.1341 -0.4862
   45CHL1  H18C 3286   5.708   5.782   3.719 -0.1929 -1.3066  1.4833
   45CHL1   C12 3287   5.487   5.587   3.521  0.5173  0.7335 -0.1972
   45CHL1  H12A 3288   5.523   5.493   3.569  1.5711  1.1886 -0.0821
   45CHL1  H12B 3289   5.379   5.575   3.499  0.4613 -0.4576  0.6065
   45CHL1   C11 3290   5.548   5.619   3.384  0.2979  0.0446  0.3624
   45CHL1  H11A 3291   5.659   5.622   3.378  0.2638 -0.3300 -0.7224
   45CHL1  H11B 3292   5.512   5.540   3.315  0.3127 -0.8428  1.3357
   45CHL1    C9 3293   5.496   5.752   3.327 -0.1254  0.0994 -0.3565
   45CHL1    H9 3294   5.386   5.743   3.313 -0.4004  0.4725  1.2720
   45CHL1   C10 3295   5.541   5.783   3.178  0.3910 -0.3792 -0.5246
   45CHL1   C19 3296   5.697   5.784   3.167 -0.7508  0.6229  0.4715
   45CHL1  H19A 3297   5.729   5.679   3.185  2.2573  1.4718  0.6339
   45CHL1  H19B 3298   5.745   5.809   3.070  0.5427  1.9481  1.4107
   45CHL1  H19C 3299   5.751   5.844   3.244 -0.4299  0.3880  0.4302
   45CHL1    C1 3300   5.479   5.688   3.074 -0.0704 -0.4232  0.1149
   45CHL1   H1A 3301   5.523   5.587   3.084  1.9291  0.2923 -0.7190
   45CHL1   H1B 3302   5.371   5.670   3.091 -0.1976  1.5223  1.7479
   45CHL1    C2 3303   5.511   5.729   2.927  0.3978  0.4287 -0.4066
   45CHL1   H2A 3304   5.453   5.656   2.867 -1.7954  0.9210  1.0182
   45CHL1   H2B 3305   5.618   5.727   2.897  1.2162 -1.9355  2.2527
   45CHL1   C20 3306   5.514   5.602   3.866 -0.2041  0.3874 -0.6252
   45CHL1   H20 3307   5.614   5.646   3.884 -0.4448  0.3379  1.0337
   45CHL1   C21 3308   5.541   5.453   3.832 -0.3216  0.7148 -0.0820
   45CHL1  H21A 3309   5.615   5.440   3.750 -1.1286  2.0845 -1.0792
   45CHL1  H21B 3310   5.448   5.410   3.790  0.8686 -1.2673 -0.8426
   45CHL1  H21C 3311   5.570   5.393   3.920  0.0007 -0.3849 -0.9186
   45CHL1   C22 3312   5.431   5.611   3.994  0.0700 -0.5612 -0.5594
   45CHL1  H22A 3313   5.414   5.715   4.029 -0.3215 -1.0672  0.8520
   45CHL1  H22B 3314   5.333   5.562   3.975  0.0304 -0.5328 -0.4262
   45CHL1   C23 3315   5.493   5.545   4.128 -0.0240 -0.2945 -0.0434
   45CHL1  H23A 3316   5.425   5.558   4.215 -0.1968 -1.7886  0.0685
   45CHL1  H23B 3317   5.516   5.438   4.113 -0.9385 -0.3724 -0.9376
   45CHL1   C24 3318   5.615   5.626   4.178 -0.9078  0.2100  0.8624
   45CHL1  H24A 3319   5.694   5.613   4.102 -0.6815 -0.8536  1.2644
   45CHL1  H24B 3320   5.594   5.735   4.176 -0.6470  0.2615  0.8733
   45CHL1   C25 3321   5.674   5.590   4.314 -0.2647  0.1472  0.0243
   45CHL1   H25 3322   5.776   5.635   4.314 -0.4476  0.5919 -1.5199
   45CHL1   C26 3323   5.585   5.653   4.416  0.3729 -0.1458  0.1109
   45CHL1  H26A 3324   5.481   5.614   4.416  0.2900 -0.1917  3.2357
   45CHL1  H26B 3325   5.629   5.638   4.517  0.9472  0.2110 -0.0807
   45CHL1  H26C 3326   5.574   5.763   4.405  0.9030  0.0550  1.4302
   45CHL1   C27 3327   5.694   5.439   4.333  0.9335 -0.0220  0.9422
   45CHL1  H27A 3328   5.600   5.384   4.310  1.6814 -1.5592  1.4000
   45CHL1  H27B 3329   5.776   5.404   4.266  0.3528  1.1521 -0.4243
   45CHL1  H27C 3330   5.724   5.417   4.438  2.5357 -0.3898  0.4363
   46CHL1    C3 3331   1.549   4.633   2.631  0.3471 -0.2634  0.5080
   46CHL1    H3 3332   1.660   4.626   2.627  0.2876 -1.3998  0.3662
   46CHL1    O3 3333   1.494   4.646   2.503 -0.3966  0.4009 -0.1359
   46CHL1   H3' 3334   1.563   4.596   2.459  1.0784  2.4955 -0.3460
   46CHL1    C4 3335   1.484   4.507   2.696  0.0550 -0.5142  0.1827
   46CHL1   H4A 3336   1.377   4.488   2.674 -0.2653  0.4915  0.8249
   46CHL1   H4B 3337   1.543   4.426   2.648 -0.3010 -0.8841  0.3739
   46CHL1    C5 3338   1.518   4.498   2.843 -0.1192  0.0983  1.0510
   46CHL1    C6 3339   1.580   4.394   2.903 -0.0675  0.0332 -0.6332
   46CHL1    H6 3340   1.625   4.310   2.847 -0.2696 -0.8313  0.4706
   46CHL1    C7 3341   1.599   4.376   3.053 -0.6161  0.3116 -0.1130
   46CHL1   H7A 3342   1.580   4.275   3.094 -0.0642  1.2093  2.5329
   46CHL1   H7B 3343   1.702   4.409   3.077 -0.7806 -1.1128  2.9602
   46CHL1    C8 3344   1.511   4.479   3.134 -0.4377 -0.2245  0.4782
   46CHL1    H8 3345   1.406   4.445   3.129 -0.7967  0.9014 -0.3149
   46CHL1   C14 3346   1.562   4.489   3.280  0.1410  0.0723  0.6859
   46CHL1   H14 3347   1.657   4.545   3.272  0.4696 -0.4299  1.0675
   46CHL1   C15 3348   1.580   4.354   3.348 -0.2316 -0.2183  0.4523
   46CHL1  H15A 3349   1.492   4.289   3.331  0.5441 -1.0585 -0.5545
   46CHL1  H15B 3350   1.670   4.300   3.310  0.7408  1.4078  0.3314
   46CHL1   C16 3351   1.587   4.399   3.496 -0.2218  0.7547  0.1407
   46CHL1  H16A 3352   1.502   4.353   3.551 -0.3438  1.2765  0.3961
   46CHL1  H16B 3353   1.684   4.373   3.543  0.2279 -2.2455 -2.1406
   46CHL1   C17 3354   1.570   4.557   3.495  0.8984 -0.3414  0.2469
   46CHL1   H17 3355   1.671   4.603   3.484  1.7010 -2.3098 -1.0653
   46CHL1   C13 3356   1.484   4.590   3.367 -0.3597  0.6218  0.0269
   46CHL1   C18 3357   1.344   4.547   3.399 -0.2012  0.5137  0.0413
   46CHL1  H18A 3358   1.293   4.547   3.300  2.2499  2.1981 -1.3406
   46CHL1  H18B 3359   1.339   4.444   3.442  1.5668  0.2778 -0.2255
   46CHL1  H18C 3360   1.288   4.619   3.461  1.2674  0.3777  1.5995
   46CHL1   C12 3361   1.491   4.723   3.302 -0.0949 -0.2378 -0.0986
   46CHL1  H12A 3362   1.430   4.792   3.365  1.4828  1.0087  0.1298
   46CHL1  H12B 3363   1.596   4.759   3.303 -0.8365  2.1876  1.8212
   46CHL1   C11 3364   1.438   4.724   3.156  0.4845  0.2993  0.1494
   46CHL1  H11A 3365   1.332   4.693   3.165  0.9719 -1.0869  1.3976
   46CHL1  H11B 3366   1.447   4.831   3.127 -0.8215  0.6126  0.8555
   46CHL1    C9 3367   1.515   4.622   3.066  0.2022  0.3639  0.2613
   46CHL1    H9 3368   1.624   4.644   3.072 -0.1744  2.3898  0.4207
   46CHL1   C10 3369   1.471   4.618   2.919  0.3313 -0.1379 -0.3423
   46CHL1   C19 3370   1.316   4.609   2.913 -0.4905 -0.1288 -0.2752
   46CHL1  H19A 3371   1.266   4.687   2.973 -0.0530 -0.1941  0.1787
   46CHL1  H19B 3372   1.268   4.617   2.813 -3.5939 -1.4500  0.9781
   46CHL1  H19C 3373   1.276   4.517   2.960  0.4119 -1.1178 -1.3701
   46CHL1    C1 3374   1.518   4.750   2.856  0.2995  0.5331 -0.2151
   46CHL1   H1A 3375   1.463   4.839   2.893  1.2614  0.2965  1.9130
   46CHL1   H1B 3376   1.626   4.760   2.878  0.0219 -0.8523  1.9658
   46CHL1    C2 3377   1.496   4.755   2.705  0.5017 -0.4897  0.0484
   46CHL1   H2A 3378   1.536   4.844   2.652 -1.9293  0.1511 -0.8630
   46CHL1   H2B 3379   1.386   4.762   2.689  0.6630 -2.6658 -2.9690
   46CHL1   C20 3380   1.516   4.616   3.628 -0.0400  0.2262  0.9066
   46CHL1   H20 3381   1.408   4.593   3.638 -0.3137 -0.5498 -2.3807
   46CHL1   C21 3382   1.537   4.766   3.633  0.5509 -0.3804 -0.0090
   46CHL1  H21A 3383   1.508   4.797   3.736  1.7010 -0.7368  0.4364
   46CHL1  H21B 3384   1.471   4.831   3.571  2.5373  0.1653 -1.6692
   46CHL1  H21C 3385   1.640   4.798   3.608  0.8891 -2.0955 -0.8948
   46CHL1   C22 3386   1.571   4.548   3.751  0.1533  0.5632 -0.2787
   46CHL1  H22A 3387   1.590   4.440   3.738 -1.4840 -0.0207  1.6894
   46CHL1  H22B 3388   1.668   4.596   3.778  2.6212 -1.9105 -3.7109
   46CHL1   C23 3389   1.498   4.552   3.881 -0.4611  0.5767  0.5879
   46CHL1  H23A 3390   1.469   4.656   3.911  0.7586  0.8161  0.9893
   46CHL1  H23B 3391   1.403   4.494   3.875  0.4681 -1.1438  1.6289
   46CHL1   C24 3392   1.576   4.486   4.000  0.0117 -0.1601  0.0425
   46CHL1  H24A 3393   1.653   4.419   3.956  1.4707  3.2102 -3.0602
   46CHL1  H24B 3394   1.636   4.568   4.045  0.7442  0.1867 -1.4992
   46CHL1   C25 3395   1.496   4.425   4.111  0.7074  0.0332  0.6797
   46CHL1   H25 3396   1.427   4.350   4.066  0.2647 -0.1591  1.6584
   46CHL1   C26 3397   1.596   4.353   4.200 -0.2420 -0.1691  0.5721
   46CHL1  H26A 3398   1.534   4.302   4.277 -1.6874  2.3086  1.1519
   46CHL1  H26B 3399   1.653   4.275   4.145 -0.3855 -0.5026  0.8924
   46CHL1  H26C 3400   1.665   4.418   4.259  2.4535 -4.1636  2.2703
   46CHL1   C27 3401   1.417   4.525   4.196 -0.0627  0.2739 -0.4359
   46CHL1  H27A 3402   1.342   4.576   4.132 -1.6218 -0.3902  0.8009
   46CHL1  H27B 3403   1.366   4.465   4.275 -0.0324  0.8640  0.0320
   46CHL1  H27C 3404   1.487   4.601   4.236 -1.3884  2.2506 -1.7249
   47CHL1    C3 3405   1.148   6.048   2.606  0.5326 -0.0450  0.4541
   47CHL1    H3 3406   1.048   6.010   2.637  0.1630  1.3352  0.9901
   47CHL1    O3 3407   1.149   6.062   2.462 -0.3234 -0.7809  0.4950
   47CHL1   H3' 3408   1.065   6.094   2.429 -1.4708 -2.6114  1.4448
   47CHL1    C4 3409   1.165   6.185   2.680  0.3311  0.2549 -0.3236
   47CHL1   H4A 3410   1.260   6.226   2.640  1.2349  0.4856  1.9126
   47CHL1   H4B 3411   1.075   6.246   2.654  0.0639  0.6452  1.3875
   47CHL1    C5 3412   1.177   6.174   2.831  0.2117 -0.3329  0.3865
   47CHL1    C6 3413   1.105   6.248   2.920  0.3479  0.7705  0.3609
   47CHL1    H6 3414   1.023   6.313   2.887 -1.6768 -0.5829  2.4360
   47CHL1    C7 3415   1.110   6.239   3.065 -0.5494 -0.2282  0.2850
   47CHL1   H7A 3416   1.110   6.343   3.103 -0.8579 -0.0220 -0.2683
   47CHL1   H7B 3417   1.025   6.185   3.112 -0.3811 -2.6945 -2.0012
   47CHL1    C8 3418   1.236   6.163   3.117  0.1586  0.2338 -0.5755
   47CHL1    H8 3419   1.326   6.228   3.115  0.0058  0.6585  2.2453
   47CHL1   C14 3420   1.218   6.110   3.264  0.0161 -1.6562 -0.4093
   47CHL1   H14 3421   1.141   6.030   3.263 -1.5767 -0.2777  2.0948
   47CHL1   C15 3422   1.155   6.208   3.365 -0.4587  0.7844  0.1641
   47CHL1  H15A 3423   1.196   6.310   3.355  1.7928 -0.2294 -1.9970
   47CHL1  H15B 3424   1.045   6.218   3.353 -0.2399  0.9488 -2.4293
   47CHL1   C16 3425   1.207   6.146   3.494 -0.2818 -0.3446 -0.4000
   47CHL1  H16A 3426   1.277   6.220   3.539  0.6232 -0.0078 -2.2439
   47CHL1  H16B 3427   1.121   6.123   3.560 -1.0927 -1.5567 -1.8293
   47CHL1   C17 3428   1.278   6.011   3.469 -0.4333 -0.7099  0.1474
   47CHL1   H17 3429   1.198   5.937   3.443 -0.8298 -0.1474 -0.2566
   47CHL1   C13 3430   1.337   6.045   3.333 -0.0021 -0.5244 -0.3496
   47CHL1   C18 3431   1.455   6.144   3.352  0.3740 -0.0090 -0.3334
   47CHL1  H18A 3432   1.435   6.236   3.411 -1.3932 -0.2904 -0.4439
   47CHL1  H18B 3433   1.550   6.106   3.396  1.5007  1.1511 -1.6712
   47CHL1  H18C 3434   1.487   6.181   3.252 -0.9370 -2.9387 -1.9597
   47CHL1   C12 3435   1.382   5.931   3.245 -0.2212  0.5058 -0.4711
   47CHL1  H12A 3436   1.485   5.901   3.276 -0.8981 -0.8806  0.5130
   47CHL1  H12B 3437   1.301   5.855   3.252 -1.6819  2.1238  1.2423
   47CHL1   C11 3438   1.393   5.955   3.089 -0.0980  0.0182 -0.9235
   47CHL1  H11A 3439   1.487   6.008   3.065  0.0117  0.9158  1.1971
   47CHL1  H11B 3440   1.397   5.859   3.033 -0.0423 -0.9366  0.6398
   47CHL1    C9 3441   1.269   6.035   3.032  0.4805  0.1875 -0.6682
   47CHL1    H9 3442   1.177   5.973   3.038 -1.2077  2.6907  1.5458
   47CHL1   C10 3443   1.280   6.068   2.878  0.1449  0.4517 -0.1340
   47CHL1   C19 3444   1.414   6.145   2.850 -0.2442 -0.1442 -0.0787
   47CHL1  H19A 3445   1.497   6.074   2.872  0.0697  0.2426 -0.0033
   47CHL1  H19B 3446   1.442   6.164   2.745  0.7722 -1.5954 -0.0899
   47CHL1  H19C 3447   1.419   6.241   2.907 -0.5815 -0.3800  0.3553
   47CHL1    C1 3448   1.263   5.936   2.798  0.3283  0.1773 -0.6883
   47CHL1   H1A 3449   1.348   5.867   2.819 -0.8585 -0.5405  2.1782
   47CHL1   H1B 3450   1.172   5.886   2.839 -1.4703  2.5239 -1.6180
   47CHL1    C2 3451   1.258   5.950   2.642  0.2362 -0.1307  0.2297
   47CHL1   H2A 3452   1.240   5.852   2.593  0.7303 -0.5615  0.8909
   47CHL1   H2B 3453   1.352   5.990   2.600 -0.1496 -0.5458 -1.0645
   47CHL1   C20 3454   1.371   5.964   3.588 -0.4635  0.8173 -0.0314
   47CHL1   H20 3455   1.471   6.011   3.577 -0.4360  0.7307 -0.1478
   47CHL1   C21 3456   1.392   5.813   3.560  0.1206 -0.1934  0.3049
   47CHL1  H21A 3457   1.460   5.797   3.473 -1.4174  2.0631 -1.4422
   47CHL1  H21B 3458   1.294   5.763   3.544  0.5437 -1.8964  2.5343
   47CHL1  H21C 3459   1.424   5.760   3.652 -1.9016  1.4684  2.0524
   47CHL1   C22 3460   1.329   6.001   3.727 -0.2353 -0.0654  0.7252
   47CHL1  H22A 3461   1.419   5.978   3.788  0.8384  0.8864 -0.4368
   47CHL1  H22B 3462   1.313   6.110   3.738 -0.3685 -0.2108  2.2851
   47CHL1   C23 3463   1.204   5.922   3.769  0.1025 -0.0865 -0.4003
   47CHL1  H23A 3464   1.116   5.949   3.707 -1.5193 -1.6273  1.1149
   47CHL1  H23B 3465   1.219   5.814   3.749 -2.6492 -0.6444  0.1565
   47CHL1   C24 3466   1.174   5.949   3.925 -0.0328  0.5465  0.0123
   47CHL1  H24A 3467   1.255   5.897   3.981 -0.5161  0.5257  0.7039
   47CHL1  H24B 3468   1.170   6.057   3.949 -2.1971  0.2554  1.1753
   47CHL1   C25 3469   1.049   5.879   3.972  0.4098 -0.6362 -0.0228
   47CHL1   H25 3470   1.054   5.771   3.946 -0.7020 -0.2990 -1.8202
   47CHL1   C26 3471   1.027   5.899   4.123  0.0899 -0.2359  0.3649
   47CHL1  H26A 3472   1.028   6.010   4.127  2.3796 -0.1908 -0.1332
   47CHL1  H26B 3473   0.925   5.876   4.159 -0.8450  1.6604 -0.9387
   47CHL1  H26C 3474   1.106   5.855   4.188 -0.5084 -0.2873  1.0798
   47CHL1   C27 3475   0.920   5.937   3.904  0.0934  0.3610 -0.1240
   47CHL1  H27A 3476   0.911   5.929   3.793  1.1852 -0.2671 -0.1702
   47CHL1  H27B 3477   0.831   5.885   3.946  0.6471 -2.5607 -2.3072
   47CHL1  H27C 3478   0.923   6.045   3.932  0.8390  0.1152  0.7719
   48CHL1    C3 3479   4.404   3.107   2.973 -0.1037 -0.7267  0.3413
   48CHL1    H3 3480   4.322   3.161   3.024  1.6014  1.7075  0.7177
   48CHL1    O3 3481   4.406   3.138   2.834  0.1988 -0.6751  0.0746
   48CHL1   H3' 3482   4.487   3.103   2.795  0.5322 -0.0560  0.1992
   48CHL1    C4 3483   4.547   3.145   3.031  0.2739 -0.6786 -0.6094
   48CHL1   H4A 3484   4.627   3.079   2.991  1.0741 -1.3359  1.8934
   48CHL1   H4B 3485   4.567   3.245   2.987  1.5113 -0.4287  0.4515
   48CHL1    C5 3486   4.549   3.135   3.181  0.0744 -0.0825 -0.2699
   48CHL1    C6 3487   4.565   3.249   3.249 -0.2059 -0.1895 -0.1332
   48CHL1    H6 3488   4.587   3.342   3.195  1.0472  0.7125  1.8103
   48CHL1    C7 3489   4.582   3.246   3.399 -0.4428  0.1234 -0.3505
   48CHL1   H7A 3490   4.677   3.292   3.434 -0.3728  0.6381 -1.1779
   48CHL1   H7B 3491   4.499   3.299   3.448  0.3769  1.2490 -0.1400
   48CHL1    C8 3492   4.569   3.101   3.458 -0.0646 -0.7284  0.1348
   48CHL1    H8 3493   4.669   3.054   3.444  1.0404  1.5487 -0.0840
   48CHL1   C14 3494   4.533   3.113   3.608 -0.0973 -0.0715 -0.2207
   48CHL1   H14 3495   4.436   3.166   3.612 -0.2227  0.1113 -3.2382
   48CHL1   C15 3496   4.621   3.201   3.704  0.4123  0.3578 -0.0932
   48CHL1  H15A 3497   4.723   3.167   3.678  0.7288  0.1850  1.2877
   48CHL1  H15B 3498   4.600   3.310   3.697 -2.1379 -0.0472  0.4300
   48CHL1   C16 3499   4.572   3.150   3.842 -0.1400  0.3126  0.5415
   48CHL1  H16A 3500   4.660   3.126   3.905 -0.3653  2.2530  1.6871
   48CHL1  H16B 3501   4.516   3.225   3.902  0.0272  1.2263 -0.4233
   48CHL1   C17 3502   4.489   3.013   3.825 -0.0384  0.1209  0.1809
   48CHL1   H17 3503   4.386   3.052   3.838  0.1736  0.1033  2.0825
   48CHL1   C13 3504   4.524   2.979   3.680 -0.8635  0.2812  0.3513
   48CHL1   C18 3505   4.661   2.904   3.675  0.0698  0.4466  0.2343
   48CHL1  H18A 3506   4.701   2.899   3.571 -1.5230  0.3798 -0.3990
   48CHL1  H18B 3507   4.747   2.947   3.732 -0.4044 -1.0068  2.1507
   48CHL1  H18C 3508   4.636   2.804   3.718  0.0775  1.0374  1.6533
   48CHL1   C12 3509   4.410   2.899   3.608 -0.5692 -0.2560 -0.0201
   48CHL1  H12A 3510   4.399   2.810   3.673  1.7266  1.4257  2.9365
   48CHL1  H12B 3511   4.321   2.966   3.606 -0.2421  0.1880  0.1992
   48CHL1   C11 3512   4.443   2.878   3.456 -0.0386  0.2225 -0.2918
   48CHL1  H11A 3513   4.536   2.819   3.440  0.8417  1.6383 -0.5597
   48CHL1  H11B 3514   4.361   2.822   3.406 -0.6505  0.9714 -0.1494
   48CHL1    C9 3515   4.468   3.013   3.380  0.3207 -0.3266 -0.1475
   48CHL1    H9 3516   4.373   3.071   3.384 -0.2789 -1.1850 -1.4147
   48CHL1   C10 3517   4.506   3.001   3.233  0.1979  1.2807 -0.2689
   48CHL1   C19 3518   4.628   2.898   3.219 -0.0010  0.4701  0.0949
   48CHL1  H19A 3519   4.657   2.884   3.112 -0.2028  1.2243 -0.0676
   48CHL1  H19B 3520   4.720   2.925   3.276  0.1142  0.2401  0.0188
   48CHL1  H19C 3521   4.586   2.799   3.246 -1.5640  0.7043 -1.3185
   48CHL1    C1 3522   4.384   2.936   3.159 -0.5640  0.4242  0.7344
   48CHL1   H1A 3523   4.382   2.826   3.170 -1.4086  0.2996 -0.4778
   48CHL1   H1B 3524   4.291   2.972   3.207 -1.9917 -0.5052 -1.1855
   48CHL1    C2 3525   4.376   2.960   3.006  0.2699 -0.6273 -0.6356
   48CHL1   H2A 3526   4.272   2.939   2.973  0.2370 -1.8630  0.1880
   48CHL1   H2B 3527   4.449   2.899   2.948  1.3933  1.3290 -1.3844
   48CHL1   C20 3528   4.506   2.913   3.951  0.4035  0.1437 -0.1276
   48CHL1   H20 3529   4.604   2.861   3.948  1.2541  1.6717  0.2374
   48CHL1   C21 3530   4.403   2.797   3.944  0.1125  0.4739 -0.2196
   48CHL1  H21A 3531   4.418   2.721   3.865 -0.9501 -0.3701  0.3635
   48CHL1  H21B 3532   4.305   2.840   3.912 -0.2060 -1.6453 -2.3678
   48CHL1  H21C 3533   4.404   2.737   4.038 -0.8234 -0.2467 -0.6494
   48CHL1   C22 3534   4.495   2.985   4.083 -0.3434 -0.1096 -0.5432
   48CHL1  H22A 3535   4.525   3.091   4.088  0.2454 -0.1263 -2.5895
   48CHL1  H22B 3536   4.385   2.978   4.102 -0.2045 -1.4914 -0.1207
   48CHL1   C23 3537   4.586   2.904   4.189  0.1431 -0.2626 -0.4458
   48CHL1  H23A 3538   4.576   2.795   4.171  1.1093 -0.3516 -0.5386
   48CHL1  H23B 3539   4.694   2.930   4.181  0.3998 -0.8122  1.0112
   48CHL1   C24 3540   4.530   2.928   4.338 -0.0291  0.0882  0.6383
   48CHL1  H24A 3541   4.529   3.035   4.365 -2.8387  0.1706  0.4606
   48CHL1  H24B 3542   4.424   2.897   4.336 -0.1686  0.5295 -2.0322
   48CHL1   C25 3543   4.606   2.849   4.450  0.5413  0.3441  0.7424
   48CHL1   H25 3544   4.586   2.743   4.424  0.7242  0.0586  1.7394
   48CHL1   C26 3545   4.756   2.875   4.434  0.1251  0.3030 -0.0225
   48CHL1  H26A 3546   4.796   2.815   4.350  2.3454 -2.0600  2.5650
   48CHL1  H26B 3547   4.767   2.981   4.402 -2.9045  1.2642  1.6829
   48CHL1  H26C 3548   4.803   2.856   4.532 -0.0244 -2.9404 -0.4705
   48CHL1   C27 3549   4.550   2.883   4.587 -0.0743 -0.5549  0.1183
   48CHL1  H27A 3550   4.597   2.810   4.657 -1.3897 -0.7046  0.8862
   48CHL1  H27B 3551   4.570   2.987   4.620  1.2507 -0.5928 -0.4894
   48CHL1  H27C 3552   4.439   2.872   4.586 -0.3252  1.2484  1.5835
   49CHL1    C3 3553   6.308   6.791   2.621  0.5429  0.5100  0.1491
   49CHL1    H3 3554   6.336   6.896   2.648  0.0678  0.5024  0.7016
   49CHL1    O3 3555   6.291   6.781   2.485  0.1950  0.2586 -0.4027
   49CHL1   H3' 3556   6.301   6.686   2.470  1.1885 -0.0239  1.6404
   49CHL1    C4 3557   6.410   6.700   2.689  0.8406  0.2897  0.1999
   49CHL1   H4A 3558   6.393   6.595   2.657  0.5130 -0.1112  1.5916
   49CHL1   H4B 3559   6.511   6.726   2.652 -0.4621  2.6665 -2.0120
   49CHL1    C5 3560   6.409   6.706   2.842 -0.5937  0.5198  1.1317
   49CHL1    C6 3561   6.525   6.725   2.916 -0.8626 -0.0944  0.2780
   49CHL1    H6 3562   6.623   6.743   2.870 -0.5102 -1.2394  0.5487
   49CHL1    C7 3563   6.533   6.722   3.066 -0.5149 -0.5948  0.1368
   49CHL1   H7A 3564   6.628   6.674   3.098  1.2397  0.7180 -2.6403
   49CHL1   H7B 3565   6.530   6.824   3.109  1.4961 -0.9208  1.1888
   49CHL1    C8 3566   6.415   6.650   3.127 -0.6584  0.3500 -0.0177
   49CHL1    H8 3567   6.426   6.541   3.109 -0.4136  0.2186  0.8597
   49CHL1   C14 3568   6.408   6.678   3.281  0.5245 -0.3878  0.2090
   49CHL1   H14 3569   6.409   6.789   3.282 -0.0654 -0.3818  0.2121
   49CHL1   C15 3570   6.529   6.652   3.372 -0.2416 -0.0373 -0.6968
   49CHL1  H15A 3571   6.577   6.553   3.359  0.2543  0.3079 -1.6024
   49CHL1  H15B 3572   6.598   6.739   3.364  1.3385 -1.1302  0.4512
   49CHL1   C16 3573   6.461   6.651   3.514  0.1839 -0.0475  0.4379
   49CHL1  H16A 3574   6.461   6.545   3.547  2.4502 -0.7724 -1.5475
   49CHL1  H16B 3575   6.508   6.722   3.585  0.3558 -0.1550  0.4337
   49CHL1   C17 3576   6.311   6.687   3.482 -0.5983 -0.5316  0.2288
   49CHL1   H17 3577   6.306   6.798   3.476  3.5261 -0.2585 -1.9278
   49CHL1   C13 3578   6.278   6.632   3.348 -0.1651 -0.4102 -0.1076
   49CHL1   C18 3579   6.271   6.481   3.350 -0.3729 -0.3944  0.5226
   49CHL1  H18A 3580   6.372   6.437   3.365 -0.2243 -0.8638 -1.5345
   49CHL1  H18B 3581   6.213   6.442   3.436 -1.8392 -0.4619 -0.4735
   49CHL1  H18C 3582   6.228   6.442   3.256 -3.9304  0.7866  1.5029
   49CHL1   C12 3583   6.154   6.690   3.280 -0.6798 -0.2523 -0.3530
   49CHL1  H12A 3584   6.052   6.658   3.312 -1.2251  1.1746 -0.5556
   49CHL1  H12B 3585   6.145   6.800   3.297 -3.4017 -0.6858  1.8520
   49CHL1   C11 3586   6.157   6.651   3.134  0.2670 -0.3873  0.6620
   49CHL1  H11A 3587   6.143   6.544   3.110 -0.4373 -0.1583  0.0310
   49CHL1  H11B 3588   6.068   6.694   3.084  0.8094 -0.7356 -0.6410
   49CHL1    C9 3589   6.281   6.699   3.067 -0.5792 -0.2148  0.4058
   49CHL1    H9 3590   6.288   6.809   3.084  1.7164 -0.2601  0.0233
   49CHL1   C10 3591   6.282   6.677   2.915  0.4180 -0.6826 -0.2304
   49CHL1   C19 3592   6.243   6.525   2.886  0.3518 -0.0219  0.0644
   49CHL1  H19A 3593   6.144   6.495   2.927  0.6693 -0.8885  0.2251
   49CHL1  H19B 3594   6.236   6.500   2.778  1.2973 -0.9416  0.1935
   49CHL1  H19C 3595   6.315   6.454   2.934  0.6250  0.3909  0.2752
   49CHL1    C1 3596   6.182   6.774   2.843  0.1509 -0.0577  0.0490
   49CHL1   H1A 3597   6.084   6.741   2.884 -0.0831  0.9976  0.3601
   49CHL1   H1B 3598   6.212   6.877   2.873 -0.5515  0.1338  0.1159
   49CHL1    C2 3599   6.173   6.768   2.689  0.1947 -0.1215  0.4311
   49CHL1   H2A 3600   6.106   6.847   2.649  0.6603  0.1352  0.1421
   49CHL1   H2B 3601   6.143   6.668   2.652  2.2559 -0.5531 -0.2423
   49CHL1   C20 3602   6.228   6.650   3.605  0.1038 -0.1524 -0.8287
   49CHL1   H20 3603   6.237   6.543   3.632 -2.2623 -0.4048 -0.8582
   49CHL1   C21 3604   6.074   6.671   3.588 -0.5112  0.7051 -0.2830
   49CHL1  H21A 3605   6.061   6.770   3.539 -0.7865  0.5039 -0.6257
   49CHL1  H21B 3606   6.023   6.659   3.685 -1.4764 -1.8504 -1.0347
   49CHL1  H21C 3607   6.045   6.597   3.511  1.2951  1.9646 -2.3223
   49CHL1   C22 3608   6.274   6.730   3.732 -0.0396  0.3731  0.0275
   49CHL1  H22A 3609   6.378   6.769   3.736  1.3604 -2.8530 -1.5685
   49CHL1  H22B 3610   6.210   6.821   3.739  0.1590  0.4499  0.8836
   49CHL1   C23 3611   6.252   6.640   3.860 -0.1836 -0.4041 -0.5385
   49CHL1  H23A 3612   6.155   6.588   3.871 -0.8455  0.9739  0.3445
   49CHL1  H23B 3613   6.333   6.564   3.851 -1.6289 -1.8009 -2.6550
   49CHL1   C24 3614   6.276   6.729   3.984  0.0006  1.1788 -0.6976
   49CHL1  H24A 3615   6.329   6.677   4.066 -1.0922  3.2452  1.4417
   49CHL1  H24B 3616   6.347   6.813   3.966  0.2425  1.2021  0.3099
   49CHL1   C25 3617   6.146   6.784   4.048  0.5902 -0.1224  0.2494
   49CHL1   H25 3618   6.087   6.692   4.069 -0.4860  0.6330  0.6647
   49CHL1   C26 3619   6.167   6.849   4.184 -0.3788  0.0623 -0.3470
   49CHL1  H26A 3620   6.068   6.888   4.217 -1.1615 -1.2981 -0.9892
   49CHL1  H26B 3621   6.201   6.775   4.259  0.2470 -0.0610 -0.7398
   49CHL1  H26C 3622   6.237   6.934   4.171  0.5161 -0.3083  1.7276
   49CHL1   C27 3623   6.072   6.877   3.960 -0.1086 -0.5521  0.8054
   49CHL1  H27A 3624   6.017   6.824   3.879 -2.1811  1.8082  0.5626
   49CHL1  H27B 3625   6.000   6.937   4.020  0.0512  0.4896 -0.0060
   49CHL1  H27C 3626   6.144   6.944   3.909 -2.3185 -0.3591 -2.3887
   50CHL1    C3 3627   2.660   4.523   2.542  0.0477 -0.2779 -0.8249
   50CHL1    H3 3628   2.552   4.502   2.537 -0.0842  0.2940 -0.5284
   50CHL1    O3 3629   2.702   4.519   2.409  0.1692  0.1395 -0.4067
   50CHL1   H3' 3630   2.787   4.476   2.421 -0.3862 -1.5046 -2.0054
   50CHL1    C4 3631   2.691   4.667   2.609 -0.2409  0.0720  0.9088
   50CHL1   H4A 3632   2.796   4.697   2.589  0.2664 -0.7986  2.1032
   50CHL1   H4B 3633   2.633   4.741   2.550 -0.4841 -0.0079  1.0482
   50CHL1    C5 3634   2.642   4.665   2.755 -0.5715  0.5815  0.0181
   50CHL1    C6 3635   2.550   4.745   2.793 -0.4345  0.0836 -0.1313
   50CHL1    H6 3636   2.497   4.805   2.717  0.5120 -1.9299 -2.5389
   50CHL1    C7 3637   2.502   4.753   2.935 -0.0405 -0.2368 -0.4635
   50CHL1   H7A 3638   2.483   4.861   2.953  2.6006  0.5957 -2.1180
   50CHL1   H7B 3639   2.402   4.706   2.942  0.5508 -1.4642  0.0970
   50CHL1    C8 3640   2.605   4.693   3.042  0.5254  0.1140  0.4317
   50CHL1    H8 3641   2.679   4.776   3.049 -1.6121  2.2955 -1.0212
   50CHL1   C14 3642   2.543   4.662   3.177 -0.8496  0.4208 -0.0393
   50CHL1   H14 3643   2.468   4.583   3.152  0.6550 -0.6488 -1.3303
   50CHL1   C15 3644   2.452   4.774   3.243  0.1857 -0.6606 -0.8636
   50CHL1  H15A 3645   2.525   4.857   3.247 -1.3238  0.7134 -0.5005
   50CHL1  H15B 3646   2.361   4.801   3.184 -0.3118 -0.1872  0.1031
   50CHL1   C16 3647   2.434   4.727   3.387  0.2650 -0.3063 -0.0380
   50CHL1  H16A 3648   2.480   4.811   3.443  0.0858  0.4619 -1.0109
   50CHL1  H16B 3649   2.327   4.715   3.414  0.2248  0.4881  0.1545
   50CHL1   C17 3650   2.520   4.592   3.399  0.6418  0.3528 -1.2536
   50CHL1   H17 3651   2.448   4.511   3.374  0.7988 -0.2061  0.0044
   50CHL1   C13 3652   2.627   4.597   3.292  0.6609 -0.6825  0.8687
   50CHL1   C18 3653   2.734   4.702   3.322 -0.3629  0.3323 -0.2681
   50CHL1  H18A 3654   2.797   4.659   3.402 -0.2404  1.4006  0.2271
   50CHL1  H18B 3655   2.801   4.710   3.234  0.7400  1.0098  0.5996
   50CHL1  H18C 3656   2.690   4.799   3.352  0.7792  0.3175  1.5891
   50CHL1   C12 3657   2.680   4.463   3.228 -0.1387  0.3724 -0.3781
   50CHL1  H12A 3658   2.754   4.408   3.290  0.9387  0.5082 -1.4908
   50CHL1  H12B 3659   2.594   4.394   3.214 -0.5908  1.1414 -1.5740
   50CHL1   C11 3660   2.751   4.479   3.094 -0.3948 -0.0642 -0.0004
   50CHL1  H11A 3661   2.840   4.543   3.111 -0.9475  0.5176  0.8137
   50CHL1  H11B 3662   2.781   4.375   3.070  0.7094 -1.0290  4.5940
   50CHL1    C9 3663   2.662   4.557   2.985 -0.6064  0.5691 -0.0119
   50CHL1    H9 3664   2.573   4.490   2.982  0.7579 -1.3117  0.1213
   50CHL1   C10 3665   2.721   4.569   2.845 -0.7472  0.0473  0.1841
   50CHL1   C19 3666   2.873   4.617   2.854 -0.5860 -0.2053  0.0399
   50CHL1  H19A 3667   2.877   4.689   2.938 -2.2798  0.5005 -0.4275
   50CHL1  H19B 3668   2.931   4.527   2.882  0.8713  0.0505 -1.9377
   50CHL1  H19C 3669   2.909   4.656   2.756 -2.1222  0.2875 -0.3667
   50CHL1    C1 3670   2.712   4.427   2.777  0.0206 -0.0407 -0.4889
   50CHL1   H1A 3671   2.771   4.355   2.839 -1.9440 -2.0181 -0.8092
   50CHL1   H1B 3672   2.605   4.397   2.780 -0.2595  0.8952 -0.7873
   50CHL1    C2 3673   2.742   4.420   2.624 -0.3175  0.0728  0.3096
   50CHL1   H2A 3674   2.728   4.316   2.586 -1.3025  0.2550  0.1552
   50CHL1   H2B 3675   2.849   4.448   2.612 -0.3277  0.4497  1.0168
   50CHL1   C20 3676   2.560   4.565   3.544 -0.3093 -0.0914  0.0254
   50CHL1   H20 3677   2.615   4.652   3.586 -1.7493  0.7895  0.1515
   50CHL1   C21 3678   2.650   4.437   3.561 -0.3643 -0.2060  0.0473
   50CHL1  H21A 3679   2.687   4.431   3.666 -0.5434 -0.3833  0.1023
   50CHL1  H21B 3680   2.743   4.437   3.502 -0.4098  0.8308 -0.0376
   50CHL1  H21C 3681   2.583   4.351   3.540  0.7233 -1.3114  0.9687
   50CHL1   C22 3682   2.438   4.559   3.642 -0.1960 -1.0810  0.4570
   50CHL1  H22A 3683   2.370   4.645   3.624 -1.0412 -2.0820 -1.5271
   50CHL1  H22B 3684   2.386   4.470   3.600 -0.8503 -0.9497  0.9687
   50CHL1   C23 3685   2.483   4.547   3.781  0.9417  0.7801 -0.5956
   50CHL1  H23A 3686   2.513   4.445   3.813 -0.7246  0.7312  0.9802
   50CHL1  H23B 3687   2.572   4.608   3.805  1.5964 -0.2851 -0.2465
   50CHL1   C24 3688   2.367   4.575   3.888 -0.0275 -0.0906 -0.6082
   50CHL1  H24A 3689   2.345   4.683   3.872  1.1711  0.0062 -1.6828
   50CHL1  H24B 3690   2.279   4.510   3.868 -1.1280  0.5908  1.6851
   50CHL1   C25 3691   2.403   4.562   4.038  0.4925  0.8564 -0.2690
   50CHL1   H25 3692   2.415   4.453   4.057  1.8832  0.7011 -1.8138
   50CHL1   C26 3693   2.528   4.649   4.073  0.5086 -0.1527 -0.0363
   50CHL1  H26A 3694   2.549   4.635   4.181 -1.0540 -1.1106  0.1823
   50CHL1  H26B 3695   2.622   4.619   4.023  0.7335  0.3447  0.0901
   50CHL1  H26C 3696   2.511   4.756   4.050  1.7287  0.1276  0.3100
   50CHL1   C27 3697   2.285   4.610   4.121  0.0026 -0.2620 -0.5866
   50CHL1  H27A 3698   2.276   4.721   4.127 -1.2847 -0.2351 -2.2359
   50CHL1  H27B 3699   2.187   4.583   4.075 -0.9148  1.1302  0.4707
   50CHL1  H27C 3700   2.309   4.578   4.224 -0.4810  0.4404 -0.2517
   51CHL1    C3 3701   4.353   5.150   2.811 -0.1334 -0.1733  0.6433
   51CHL1    H3 3702   4.245   5.173   2.822 -0.2029  0.4943 -1.0494
   51CHL1    O3 3703   4.364   5.084   2.683 -0.6552 -0.1367 -0.5293
   51CHL1   H3' 3704   4.329   4.995   2.683  0.4019 -0.5756  0.3394
   51CHL1    C4 3705   4.428   5.283   2.806 -0.1594  0.2472  0.4807
   51CHL1   H4A 3706   4.522   5.266   2.749 -1.3574 -0.8843 -1.2616
   51CHL1   H4B 3707   4.371   5.349   2.737  1.7010 -1.3833 -2.8676
   51CHL1    C5 3708   4.447   5.347   2.944 -0.4386 -0.3090 -0.3520
   51CHL1    C6 3709   4.420   5.477   2.963  0.2497 -0.7961  0.5680
   51CHL1    H6 3710   4.384   5.543   2.883 -2.4385 -1.3168  1.2384
   51CHL1    C7 3711   4.435   5.545   3.096  0.1046  0.0508  0.8379
   51CHL1   H7A 3712   4.466   5.651   3.085 -0.6786  0.0227 -2.8271
   51CHL1   H7B 3713   4.334   5.558   3.142  0.3283  0.3223  1.2634
   51CHL1    C8 3714   4.523   5.472   3.196  0.2486 -0.0506  0.0101
   51CHL1    H8 3715   4.629   5.491   3.171 -0.1104 -0.2720 -1.7565
   51CHL1   C14 3716   4.515   5.538   3.340 -0.5370 -0.0357  0.0417
   51CHL1   H14 3717   4.406   5.533   3.362 -0.7030  0.8261 -0.5577
   51CHL1   C15 3718   4.561   5.680   3.356 -0.3348  0.6131  0.8195
   51CHL1  H15A 3719   4.660   5.699   3.309  0.3143 -1.2519  1.3480
   51CHL1  H15B 3720   4.480   5.742   3.311  0.4300 -0.5231 -2.4308
   51CHL1   C16 3721   4.572   5.700   3.503 -0.1841 -0.1554 -0.2975
   51CHL1  H16A 3722   4.668   5.744   3.535  0.1067 -1.0582  0.1030
   51CHL1  H16B 3723   4.491   5.767   3.542 -1.1204 -0.5436 -1.5124
   51CHL1   C17 3724   4.566   5.555   3.566 -0.2112 -0.2968 -0.6942
   51CHL1   H17 3725   4.461   5.536   3.596  0.4523 -0.6628  1.5803
   51CHL1   C13 3726   4.594   5.463   3.448 -0.1258  0.2633 -0.1088
   51CHL1   C18 3727   4.746   5.468   3.430 -0.7103 -0.0419  0.4296
   51CHL1  H18A 3728   4.790   5.569   3.436  0.0031 -0.3386  0.3715
   51CHL1  H18B 3729   4.803   5.418   3.512 -0.0312 -0.4782 -0.2929
   51CHL1  H18C 3730   4.775   5.428   3.330  0.1084  0.1203  0.5923
   51CHL1   C12 3731   4.535   5.319   3.455  0.2831  0.2717 -0.8487
   51CHL1  H12A 3732   4.569   5.256   3.540 -3.2921  0.1979  0.7289
   51CHL1  H12B 3733   4.426   5.323   3.480  0.6365 -1.7075  1.4142
   51CHL1   C11 3734   4.542   5.250   3.318 -0.1584 -0.1911  0.5706
   51CHL1  H11A 3735   4.650   5.243   3.296 -0.0663 -2.2573  1.4832
   51CHL1  H11B 3736   4.511   5.144   3.323 -0.4950 -0.1358 -0.1772
   51CHL1    C9 3737   4.479   5.330   3.195 -0.0885 -0.5205  0.2468
   51CHL1    H9 3738   4.369   5.328   3.206 -0.2264  0.4464 -0.7163
   51CHL1   C10 3739   4.499   5.255   3.057  0.6093 -0.7139  0.5775
   51CHL1   C19 3740   4.649   5.217   3.037  0.7048 -0.1022 -0.8381
   51CHL1  H19A 3741   4.706   5.312   3.049  1.5768 -0.7268  0.1492
   51CHL1  H19B 3742   4.685   5.149   3.118 -0.5620  0.9654  0.6929
   51CHL1  H19C 3743   4.665   5.170   2.938  2.1958 -4.4003  1.1934
   51CHL1    C1 3744   4.411   5.119   3.055  0.2860 -0.5777 -0.1202
   51CHL1   H1A 3745   4.455   5.043   3.124  1.3012 -1.1149 -1.3067
   51CHL1   H1B 3746   4.317   5.155   3.101  0.3249  2.1636 -1.9627
   51CHL1    C2 3747   4.393   5.059   2.919 -0.8434  0.6431  0.3424
   51CHL1   H2A 3748   4.327   4.970   2.932  0.8132 -0.3196  2.8458
   51CHL1   H2B 3749   4.490   5.014   2.888 -1.6349 -1.0332  0.1697
   51CHL1   C20 3750   4.660   5.549   3.695  0.4709 -0.0027  0.2448
   51CHL1   H20 3751   4.764   5.572   3.666  0.8762 -0.9020  0.9426
   51CHL1   C21 3752   4.654   5.402   3.752 -0.1128  0.3384 -0.2860
   51CHL1  H21A 3753   4.714   5.409   3.846  0.0223 -1.8594 -0.1338
   51CHL1  H21B 3754   4.706   5.323   3.693  0.1720 -1.0472  1.6921
   51CHL1  H21C 3755   4.548   5.379   3.777 -0.1894  2.0422  1.1573
   51CHL1   C22 3756   4.626   5.657   3.798 -0.1812 -0.1398  0.1434
   51CHL1  H22A 3757   4.700   5.641   3.880 -2.0034  0.3639  1.9480
   51CHL1  H22B 3758   4.650   5.753   3.748  0.0161 -0.5839 -0.6396
   51CHL1   C23 3759   4.484   5.654   3.868 -0.0263  0.7246  0.2117
   51CHL1  H23A 3760   4.397   5.675   3.804 -1.4124 -1.1720  1.3518
   51CHL1  H23B 3761   4.460   5.546   3.884  3.2201 -0.1783 -0.1155
   51CHL1   C24 3762   4.464   5.724   4.002 -0.5178  0.3052 -0.0654
   51CHL1  H24A 3763   4.520   5.662   4.076 -0.8342  0.6417  0.4616
   51CHL1  H24B 3764   4.521   5.819   4.005 -1.6213  0.9735  3.0555
   51CHL1   C25 3765   4.317   5.756   4.052 -0.0606 -0.2144  0.2906
   51CHL1   H25 3766   4.266   5.833   3.990  0.2761  0.4507  0.8225
   51CHL1   C26 3767   4.217   5.637   4.044 -0.4310 -0.4913 -0.4946
   51CHL1  H26A 3768   4.251   5.545   4.096 -0.5655 -0.5877 -0.5746
   51CHL1  H26B 3769   4.116   5.668   4.079 -0.8284 -1.5584 -0.6468
   51CHL1  H26C 3770   4.219   5.613   3.935 -0.0398 -0.1278 -0.5707
   51CHL1   C27 3771   4.324   5.820   4.189  1.0254 -0.3035  0.7623
   51CHL1  H27A 3772   4.397   5.904   4.200 -0.8581  1.6518 -0.8345
   51CHL1  H27B 3773   4.223   5.851   4.220  0.4675 -0.4405 -0.8133
   51CHL1  H27C 3774   4.349   5.732   4.252  0.4284 -1.1305 -0.1306
   52CHL1    C3 3775   5.148   6.866   2.601  0.3818 -0.4964  0.3136
   52CHL1    H3 3776   5.043   6.836   2.624  0.9459 -1.0196  2.4404
   52CHL1    O3 3777   5.161   6.882   2.461  0.5256  0.6560 -0.3883
   52CHL1   H3' 3778   5.244   6.930   2.453  0.6417  0.4838 -0.2086
   52CHL1    C4 3779   5.156   7.010   2.669  0.5753  0.4367 -0.5320
   52CHL1   H4A 3780   5.253   7.059   2.644  0.4171  1.7002  1.1538
   52CHL1   H4B 3781   5.084   7.076   2.616  1.0773  1.4975  0.0710
   52CHL1    C5 3782   5.143   7.010   2.817  0.1280  0.4459  0.2794
   52CHL1    C6 3783   5.040   7.078   2.885 -0.1991  0.6889  0.2223
   52CHL1    H6 3784   4.967   7.133   2.824 -0.9358 -2.1107 -1.6014
   52CHL1    C7 3785   5.014   7.072   3.035 -0.4400  0.3658 -0.3815
   52CHL1   H7A 3786   4.992   7.174   3.074 -1.6566  0.2037 -0.6206
   52CHL1   H7B 3787   4.921   7.016   3.059 -0.0604 -1.6315 -3.1163
   52CHL1    C8 3788   5.142   7.015   3.105 -0.1785  0.2541  0.2511
   52CHL1    H8 3789   5.213   7.100   3.100 -1.4778  1.3214 -1.2224
   52CHL1   C14 3790   5.109   6.984   3.256 -0.4334  0.8190  0.7164
   52CHL1   H14 3791   5.032   6.904   3.258  0.5056 -0.0987  1.9517
   52CHL1   C15 3792   5.059   7.090   3.354  0.3664  0.3656 -0.2204
   52CHL1  H15A 3793   5.131   7.174   3.350  2.6798 -1.5716 -1.3922
   52CHL1  H15B 3794   4.957   7.132   3.334 -0.4371 -1.6571 -0.5912
   52CHL1   C16 3795   5.080   7.032   3.501  0.8061 -0.1512 -0.0406
   52CHL1  H16A 3796   5.128   7.112   3.562  0.3851  0.1853 -0.1495
   52CHL1  H16B 3797   4.983   7.004   3.548 -0.0035  1.2564 -0.8015
   52CHL1   C17 3798   5.171   6.906   3.479  0.0841 -0.3721  0.4337
   52CHL1   H17 3799   5.102   6.819   3.479 -0.1337 -0.2030 -0.0335
   52CHL1   C13 3800   5.220   6.911   3.327  0.3603 -0.5411  0.0228
   52CHL1   C18 3801   5.342   7.001   3.335 -0.4358 -0.2128 -0.6296
   52CHL1  H18A 3802   5.339   7.101   3.384 -3.8201  1.0410 -3.0276
   52CHL1  H18B 3803   5.418   6.941   3.387 -0.7464 -0.0500  0.0171
   52CHL1  H18C 3804   5.394   7.023   3.239 -0.3175  1.5290 -0.2096
   52CHL1   C12 3805   5.255   6.775   3.263 -0.3769  0.3910 -0.6849
   52CHL1  H12A 3806   5.348   6.730   3.304  0.0221  1.3470 -0.5148
   52CHL1  H12B 3807   5.174   6.700   3.258  1.6743 -1.8916 -2.2947
   52CHL1   C11 3808   5.294   6.798   3.119  0.1458  0.7523 -0.1576
   52CHL1  H11A 3809   5.395   6.846   3.119  0.7608 -0.5004  0.3839
   52CHL1  H11B 3810   5.291   6.695   3.078 -0.7538  0.7665 -0.1290
   52CHL1    C9 3811   5.197   6.889   3.039  0.3021 -0.5532  0.0104
   52CHL1    H9 3812   5.103   6.830   3.034  1.3914 -2.3071 -1.6980
   52CHL1   C10 3813   5.238   6.911   2.889  0.6522  0.0977  0.2877
   52CHL1   C19 3814   5.380   6.971   2.896 -0.9067 -0.1444 -0.0251
   52CHL1  H19A 3815   5.455   6.909   2.951  1.0199  3.7208  2.1238
   52CHL1  H19B 3816   5.429   6.983   2.797 -0.2749 -0.7453  0.2043
   52CHL1  H19C 3817   5.375   7.069   2.947 -0.3583 -0.5506  0.8405
   52CHL1    C1 3818   5.246   6.766   2.817  0.2727 -0.0631  0.2654
   52CHL1   H1A 3819   5.331   6.716   2.867  2.7501  3.2781 -0.2022
   52CHL1   H1B 3820   5.149   6.715   2.837 -0.6163  1.5774  0.3488
   52CHL1    C2 3821   5.250   6.776   2.661 -0.0904 -0.5348 -0.6197
   52CHL1   H2A 3822   5.225   6.674   2.624 -1.0280 -1.9684  3.4726
   52CHL1   H2B 3823   5.354   6.808   2.639  0.4140  0.5220  2.7506
   52CHL1   C20 3824   5.265   6.871   3.596  0.0998 -0.0243 -0.3485
   52CHL1   H20 3825   5.356   6.934   3.598  2.1825 -2.8280  0.3551
   52CHL1   C21 3826   5.320   6.731   3.597  0.8880  0.2442  0.0604
   52CHL1  H21A 3827   5.233   6.663   3.585  1.0490 -0.1058  0.8124
   52CHL1  H21B 3828   5.369   6.703   3.693 -0.7096  0.4727  0.9742
   52CHL1  H21C 3829   5.382   6.714   3.507 -2.1414 -0.8184 -1.9857
   52CHL1   C22 3830   5.189   6.886   3.730  0.2520  0.3677  0.2084
   52CHL1  H22A 3831   5.116   6.970   3.729  1.5697  1.5634 -0.8712
   52CHL1  H22B 3832   5.131   6.792   3.745  2.3989 -0.8957  0.9773
   52CHL1   C23 3833   5.273   6.911   3.854 -0.3677 -1.2993 -0.0710
   52CHL1  H23A 3834   5.358   6.840   3.856  1.1111  0.4122  1.9920
   52CHL1  H23B 3835   5.319   7.009   3.828 -0.6490 -0.9610  0.6747
   52CHL1   C24 3836   5.197   6.920   3.984  0.1548 -0.2813  0.6434
   52CHL1  H24A 3837   5.269   6.936   4.067 -0.5167 -1.2920  1.4370
   52CHL1  H24B 3838   5.123   7.003   3.984  0.3500 -0.0963 -0.0825
   52CHL1   C25 3839   5.121   6.786   4.014  0.6701  1.1257 -0.3098
   52CHL1   H25 3840   5.038   6.764   3.944  1.0734  1.6553 -0.9768
   52CHL1   C26 3841   5.206   6.664   4.016 -0.9275 -0.0123 -0.1088
   52CHL1  H26A 3842   5.270   6.660   4.107  0.9772 -3.9385 -1.3939
   52CHL1  H26B 3843   5.135   6.579   4.013 -0.7836 -0.1106 -1.9601
   52CHL1  H26C 3844   5.270   6.651   3.926 -0.6128 -0.8096  0.2196
   52CHL1   C27 3845   5.058   6.800   4.162  0.3192 -0.2387  0.4777
   52CHL1  H27A 3846   4.996   6.713   4.194 -1.8991  0.4966 -1.5485
   52CHL1  H27B 3847   5.134   6.818   4.241 -0.0692 -0.5941  0.9317
   52CHL1  H27C 3848   4.984   6.882   4.161  0.3533 -0.2019  0.8485
   53CHL1    C3 3849   6.804   5.872   2.725  0.5035 -0.3943 -0.4796
   53CHL1    H3 3850   6.909   5.877   2.764 -0.1433  2.7100  1.2744
   53CHL1    O3 3851   6.799   5.913   2.588  0.3470 -0.1827  0.0560
   53CHL1   H3' 3852   6.833   5.842   2.533 -0.4351  0.1634 -0.9136
   53CHL1    C4 3853   6.751   5.728   2.731 -0.2903 -0.1984  0.4184
   53CHL1   H4A 3854   6.651   5.721   2.684 -0.3426 -3.8038  0.7833
   53CHL1   H4B 3855   6.817   5.658   2.676  1.5092  1.3187  0.5782
   53CHL1    C5 3856   6.745   5.682   2.873  0.0928 -0.1585 -1.0099
   53CHL1    C6 3857   6.813   5.572   2.909  0.4602  0.4333 -0.8106
   53CHL1    H6 3858   6.875   5.518   2.836  1.2805  0.1489  0.0668
   53CHL1    C7 3859   6.790   5.505   3.041  0.2226 -0.1864  0.9230
   53CHL1   H7A 3860   6.771   5.396   3.035  0.3373 -0.1295 -2.2107
   53CHL1   H7B 3861   6.886   5.505   3.096  1.0064 -0.2016 -0.4148
   53CHL1    C8 3862   6.685   5.571   3.137 -0.3409  0.1720  0.7592
   53CHL1    H8 3863   6.587   5.540   3.095  0.1059 -0.6174  0.2732
   53CHL1   C14 3864   6.704   5.538   3.281 -0.1272 -0.4665  0.5870
   53CHL1   H14 3865   6.805   5.575   3.310  0.4739 -2.4684  1.1772
   53CHL1   C15 3866   6.721   5.391   3.300 -0.3198  0.3150  0.1191
   53CHL1  H15A 3867   6.652   5.321   3.247 -2.0462 -0.7188  3.3905
   53CHL1  H15B 3868   6.826   5.357   3.286 -0.3373 -0.1626  1.0479
   53CHL1   C16 3869   6.693   5.372   3.455 -0.1682 -1.2645 -0.2595
   53CHL1  H16A 3870   6.608   5.302   3.469  0.9193 -2.8807 -1.3656
   53CHL1  H16B 3871   6.784   5.346   3.513 -2.0641 -2.8014  2.1987
   53CHL1   C17 3872   6.650   5.516   3.500  0.8870  0.8156 -0.0417
   53CHL1   H17 3873   6.745   5.567   3.527  0.6759  0.6810  1.0111
   53CHL1   C13 3874   6.602   5.590   3.373 -0.6238  0.2244  0.2618
   53CHL1   C18 3875   6.462   5.545   3.324 -0.1175 -0.1204  0.3927
   53CHL1  H18A 3876   6.444   5.606   3.233  1.1544  0.3935  0.4761
   53CHL1  H18B 3877   6.453   5.444   3.280  0.4993  1.0454 -2.6434
   53CHL1  H18C 3878   6.390   5.568   3.406 -0.8163 -2.0013  0.3426
   53CHL1   C12 3879   6.620   5.739   3.374  0.2654 -0.2192 -0.4429
   53CHL1  H12A 3880   6.539   5.787   3.432  2.1665  3.1484 -0.2996
   53CHL1  H12B 3881   6.720   5.775   3.408 -0.8959  0.3781  2.6340
   53CHL1   C11 3882   6.604   5.794   3.227  0.3285 -0.1013 -0.6002
   53CHL1  H11A 3883   6.494   5.792   3.212 -0.0994  2.3814  1.4200
   53CHL1  H11B 3884   6.634   5.900   3.245 -0.8663  0.2948 -0.8274
   53CHL1    C9 3885   6.691   5.722   3.122  0.4022 -0.3920  0.0532
   53CHL1    H9 3886   6.795   5.752   3.146 -0.2605  1.5129  0.7674
   53CHL1   C10 3887   6.669   5.771   2.977  0.0659 -0.0468 -0.2878
   53CHL1   C19 3888   6.519   5.761   2.942 -0.2467 -0.1972  0.3163
   53CHL1  H19A 3889   6.457   5.827   3.006 -0.2393 -1.2513  1.4520
   53CHL1  H19B 3890   6.496   5.771   2.834  0.5771 -1.5076 -0.0122
   53CHL1  H19C 3891   6.477   5.662   2.972  0.5589 -0.5116  0.4227
   53CHL1    C1 3892   6.726   5.925   2.952 -0.0191  0.3160 -0.0728
   53CHL1   H1A 3893   6.660   5.982   3.021  0.4433  1.6028 -0.6721
   53CHL1   H1B 3894   6.827   5.942   2.993 -0.8837  0.0088  2.3432
   53CHL1    C2 3895   6.714   5.965   2.803  0.4757 -0.3857  0.6100
   53CHL1   H2A 3896   6.731   6.075   2.801 -1.2063 -0.0738  1.9209
   53CHL1   H2B 3897   6.607   5.949   2.782  0.3961 -0.0724  0.7814
   53CHL1   C20 3898   6.567   5.513   3.626  0.3870  0.0790 -0.4683
   53CHL1   H20 3899   6.468   5.470   3.598  1.1514 -1.6771 -0.5342
   53CHL1   C21 3900   6.539   5.651   3.688  0.4677  0.7363  0.0160
   53CHL1  H21A 3901   6.634   5.705   3.705  0.7628 -0.0788  1.0831
   53CHL1  H21B 3902   6.490   5.632   3.786  2.9293  2.7233  1.7692
   53CHL1  H21C 3903   6.475   5.715   3.624  0.0117  2.3259  1.9748
   53CHL1   C22 3904   6.621   5.412   3.734 -0.2768  0.4236 -0.5017
   53CHL1  H22A 3905   6.551   5.415   3.821  0.7950 -1.9726  0.5570
   53CHL1  H22B 3906   6.611   5.304   3.708  0.0458  0.4217 -0.6332
   53CHL1   C23 3907   6.763   5.444   3.786 -0.0138  0.1242 -0.3079
   53CHL1  H23A 3908   6.838   5.392   3.723 -0.1775 -0.5317  0.0300
   53CHL1  H23B 3909   6.784   5.550   3.809 -0.3176 -0.2962  2.3197
   53CHL1   C24 3910   6.789   5.369   3.922 -0.6622  0.6067 -0.2967
   53CHL1  H24A 3911   6.705   5.386   3.994 -0.6511  0.9416 -0.3601
   53CHL1  H24B 3912   6.799   5.259   3.910  1.9579  0.9515 -2.1649
   53CHL1   C25 3913   6.929   5.412   3.996 -0.2570  0.3141  0.0738
   53CHL1   H25 3914   6.937   5.523   3.996 -1.2181  0.3970 -0.4192
   53CHL1   C26 3915   6.917   5.369   4.142  0.4159 -0.8018  0.5284
   53CHL1  H26A 3916   6.868   5.269   4.148  0.0459 -0.5946  0.9444
   53CHL1  H26B 3917   7.022   5.358   4.177  1.6090  0.7001 -2.2613
   53CHL1  H26C 3918   6.865   5.446   4.202  1.2311 -0.5249  0.8987
   53CHL1   C27 3919   7.047   5.360   3.912 -0.5212 -0.1625 -0.2605
   53CHL1  H27A 3920   7.143   5.378   3.966 -0.5770 -2.3411  0.7011
   53CHL1  H27B 3921   7.037   5.250   3.895 -1.5250 -0.2670  0.9505
   53CHL1  H27C 3922   7.051   5.417   3.817  0.2694 -1.1630 -0.8530
   54CHL1    C3 3923   5.797   6.231   2.888 -0.2566  0.6937 -0.3241
   54CHL1    H3 3924   5.711   6.161   2.893  0.7180 -0.5504 -0.3368
   54CHL1    O3 3925   5.818   6.264   2.752 -0.4933  0.3025  0.1978
   54CHL1   H3' 3926   5.889   6.328   2.752 -0.3289  0.1233  0.1218
   54CHL1    C4 3927   5.769   6.350   2.980  0.3926 -0.6308 -0.7182
   54CHL1   H4A 3928   5.852   6.420   2.959  0.5549 -0.5394  0.1814
   54CHL1   H4B 3929   5.686   6.418   2.949  0.3447  0.2240  1.1649
   54CHL1    C5 3930   5.766   6.313   3.129  0.6588  0.2936  0.9529
   54CHL1    C6 3931   5.663   6.345   3.206 -0.5202 -0.1862 -0.3394
   54CHL1    H6 3932   5.581   6.406   3.165 -1.2327 -0.5469  0.5103
   54CHL1    C7 3933   5.641   6.334   3.355 -0.3398  0.4877 -0.5612
   54CHL1   H7A 3934   5.624   6.435   3.399  1.9036  0.6218  0.1188
   54CHL1   H7B 3935   5.561   6.263   3.385  0.2613 -0.1970 -0.5675
   54CHL1    C8 3936   5.777   6.275   3.416 -0.2225 -0.4427  0.0739
   54CHL1    H8 3937   5.852   6.356   3.426  1.6254 -2.2980  2.4669
   54CHL1   C14 3938   5.744   6.220   3.551  0.4245  0.5004  0.5471
   54CHL1   H14 3939   5.682   6.129   3.537  1.0356 -0.6726  4.3865
   54CHL1   C15 3940   5.658   6.302   3.655 -0.5974  0.0563  0.0841
   54CHL1  H15A 3941   5.693   6.407   3.645  0.2094 -0.1503  0.6026
   54CHL1  H15B 3942   5.553   6.287   3.623 -0.1804 -1.5843 -0.6350
   54CHL1   C16 3943   5.701   6.238   3.787  0.4179  0.2185  0.0649
   54CHL1  H16A 3944   5.730   6.318   3.859 -0.6754  0.7095 -0.0205
   54CHL1  H16B 3945   5.610   6.185   3.822 -0.0013  0.4273 -0.6723
   54CHL1   C17 3946   5.819   6.142   3.764 -0.3519  0.1093 -0.3610
   54CHL1   H17 3947   5.777   6.044   3.731 -0.1624 -0.1133  0.0410
   54CHL1   C13 3948   5.873   6.179   3.630 -0.5346 -0.1604  0.0939
   54CHL1   C18 3949   5.971   6.295   3.658  0.3893 -0.2860 -0.0682
   54CHL1  H18A 3950   6.047   6.262   3.732  1.3690 -1.7187 -1.6393
   54CHL1  H18B 3951   6.019   6.326   3.563 -1.6427  1.2722 -0.6615
   54CHL1  H18C 3952   5.925   6.389   3.696  2.4489  1.2065 -1.0734
   54CHL1   C12 3953   5.932   6.060   3.550 -0.3105  0.1731 -0.0779
   54CHL1  H12A 3954   6.027   6.038   3.604  0.9451  2.5711 -1.1348
   54CHL1  H12B 3955   5.881   5.962   3.546  0.5636 -0.3663  1.2080
   54CHL1   C11 3956   5.956   6.099   3.402  0.4265  0.5953 -0.1429
   54CHL1  H11A 3957   6.049   6.159   3.399 -0.5626  2.1480 -1.4370
   54CHL1  H11B 3958   5.984   6.014   3.337  0.0372  1.6622 -1.7484
   54CHL1    C9 3959   5.840   6.171   3.323 -0.0108 -0.0519  0.2642
   54CHL1    H9 3960   5.766   6.094   3.294 -0.2940  0.7839 -1.3289
   54CHL1   C10 3961   5.882   6.231   3.182 -0.3894 -0.0799 -0.4349
   54CHL1   C19 3962   5.996   6.328   3.196  0.0784 -0.0781  0.4420
   54CHL1  H19A 3963   5.986   6.418   3.260  0.6618  0.7770 -0.6251
   54CHL1  H19B 3964   6.090   6.278   3.228  2.1373  2.2597 -1.5361
   54CHL1  H19C 3965   6.024   6.352   3.091  2.9978 -2.9816  0.4122
   54CHL1    C1 3966   5.914   6.114   3.088  0.1957  0.9349 -0.0461
   54CHL1   H1A 3967   6.007   6.061   3.117 -1.2255 -0.5752  2.0007
   54CHL1   H1B 3968   5.833   6.038   3.090  1.2565 -0.2906 -1.2138
   54CHL1    C2 3969   5.923   6.152   2.941  0.7822 -0.0694  0.0286
   54CHL1   H2A 3970   5.927   6.058   2.881 -0.8894  1.0315 -1.9622
   54CHL1   H2B 3971   6.020   6.198   2.915  1.4595 -0.6753  1.3516
   54CHL1   C20 3972   5.911   6.123   3.888 -0.4613  0.2157  0.0868
   54CHL1   H20 3973   6.006   6.080   3.850 -1.6865 -1.2670 -1.4815
   54CHL1   C21 3974   5.844   6.013   3.973  0.1257 -0.0350  0.0469
   54CHL1  H21A 3975   5.741   6.050   3.996  0.4953  0.9380  0.1593
   54CHL1  H21B 3976   5.897   5.986   4.067 -1.2005 -2.7260  0.1281
   54CHL1  H21C 3977   5.845   5.925   3.906  1.0737  0.6039 -0.7938
   54CHL1   C22 3978   5.934   6.241   3.980  0.8270 -0.0726 -0.1202
   54CHL1  H22A 3979   5.961   6.326   3.913 -2.5038  2.3794  1.3830
   54CHL1  H22B 3980   5.839   6.279   4.023 -0.8190 -1.9790 -1.8499
   54CHL1   C23 3981   6.042   6.216   4.092  0.4705 -0.5382  0.0597
   54CHL1  H23A 3982   6.012   6.145   4.172  0.0086  1.0317  1.3266
   54CHL1  H23B 3983   6.119   6.155   4.040  0.4666 -0.8935  0.4657
   54CHL1   C24 3984   6.092   6.346   4.152 -0.2884  0.6814  0.0500
   54CHL1  H24A 3985   6.118   6.400   4.059 -0.7867  0.1593 -0.4046
   54CHL1  H24B 3986   6.003   6.385   4.205 -1.2523  0.7626 -1.5616
   54CHL1   C25 3987   6.216   6.340   4.234  0.1849  0.9141  0.9283
   54CHL1   H25 3988   6.211   6.259   4.310 -0.4305  0.0724  0.0189
   54CHL1   C26 3989   6.336   6.311   4.142  0.7987  0.2666 -0.0506
   54CHL1  H26A 3990   6.430   6.295   4.200  0.8940 -0.8248 -0.4862
   54CHL1  H26B 3991   6.316   6.218   4.084 -1.0810  0.9098 -0.4992
   54CHL1  H26C 3992   6.349   6.394   4.070 -1.3033  1.6392  1.0466
   54CHL1   C27 3993   6.254   6.462   4.307 -0.0166 -0.6609  0.1061
   54CHL1  H27A 3994   6.351   6.442   4.358 -0.2408  2.7387  2.1992
   54CHL1  H27B 3995   6.279   6.546   4.239 -0.4603 -0.3450  0.3259
   54CHL1  H27C 3996   6.176   6.485   4.383 -1.7847  0.3747 -1.9132
   55CHL1    C3 3997   1.966   0.499   2.600 -0.6070  0.2471 -0.8227
   55CHL1    H3 3998   1.876   0.465   2.654 -0.4133 -0.5097 -0.9669
   55CHL1    O3 3999   1.952   0.517   2.460 -0.2885  0.0872 -0.2608
   55CHL1   H3' 4000   1.928   0.428   2.434 -2.5106 -0.1278  2.1483
   55CHL1    C4 4001   2.005   0.637   2.666 -0.0359 -0.6234  0.6784
   55CHL1   H4A 4002   2.085   0.682   2.604 -0.5456 -1.0984 -0.3428
   55CHL1   H4B 4003   1.914   0.698   2.646  0.3907 -0.7331 -1.8559
   55CHL1    C5 4004   2.039   0.631   2.816 -0.8879 -0.3194 -0.2993
   55CHL1    C6 4005   1.992   0.720   2.905 -0.5593  0.0401 -1.3820
   55CHL1    H6 4006   1.923   0.802   2.878 -3.4211 -1.9278 -0.5329
   55CHL1    C7 4007   2.019   0.714   3.050  0.1653 -1.2541  0.5004
   55CHL1   H7A 4008   2.043   0.817   3.085 -3.2195 -0.5918  1.2326
   55CHL1   H7B 4009   1.921   0.679   3.090 -0.3975 -1.2035 -0.7681
   55CHL1    C8 4010   2.129   0.619   3.094 -0.4951 -0.1177  0.2146
   55CHL1    H8 4011   2.226   0.671   3.083 -0.4217  0.5303  3.1417
   55CHL1   C14 4012   2.102   0.575   3.244  0.2490 -0.0131  0.4547
   55CHL1   H14 4013   1.996   0.542   3.253 -0.5349  2.7210  2.8466
   55CHL1   C15 4014   2.112   0.687   3.345 -0.6959  0.2701  1.2790
   55CHL1  H15A 4015   2.206   0.747   3.343  1.4844 -2.8739  2.2998
   55CHL1  H15B 4016   2.020   0.745   3.320  0.0001  0.5870 -0.6678
   55CHL1   C16 4017   2.108   0.612   3.477 -0.0407 -0.6956 -0.3015
   55CHL1  H16A 4018   2.167   0.674   3.548  0.5089  1.2843 -2.3658
   55CHL1  H16B 4019   2.001   0.604   3.506 -0.5140 -1.2337 -2.0764
   55CHL1   C17 4020   2.143   0.463   3.445 -1.3417 -0.9585 -0.4693
   55CHL1   H17 4021   2.045   0.411   3.440 -1.0037 -1.4838 -3.4270
   55CHL1   C13 4022   2.195   0.471   3.301 -0.4164 -0.4540  0.7649
   55CHL1   C18 4023   2.349   0.513   3.303  0.4863  0.1294 -0.3718
   55CHL1  H18A 4024   2.365   0.594   3.377 -0.0662  0.9459 -1.1214
   55CHL1  H18B 4025   2.410   0.432   3.348  1.3336  0.7609 -0.3712
   55CHL1  H18C 4026   2.388   0.548   3.205 -0.3645 -0.5376 -0.9654
   55CHL1   C12 4027   2.174   0.347   3.212 -0.0216  0.5725  0.0722
   55CHL1  H12A 4028   2.239   0.263   3.244  2.4339  1.7735 -1.4313
   55CHL1  H12B 4029   2.067   0.318   3.215 -0.5278  2.2266  3.6436
   55CHL1   C11 4030   2.202   0.379   3.061  1.3403 -0.7567 -0.2386
   55CHL1  H11A 4031   2.310   0.395   3.044  1.5947 -0.1246  1.7360
   55CHL1  H11B 4032   2.176   0.285   3.009 -1.9000 -0.7961  1.2041
   55CHL1    C9 4033   2.117   0.491   3.009  0.2970 -0.6191  1.4498
   55CHL1    H9 4034   2.013   0.456   3.029 -1.4915  0.8550 -3.5964
   55CHL1   C10 4035   2.122   0.512   2.857 -0.2806 -0.5230  0.0471
   55CHL1   C19 4036   2.273   0.551   2.827  0.1815 -0.0009  0.4689
   55CHL1  H19A 4037   2.295   0.578   2.721  0.4027  0.1915  0.5632
   55CHL1  H19B 4038   2.316   0.630   2.892 -0.5066  1.3350 -0.6522
   55CHL1  H19C 4039   2.342   0.468   2.851  2.0251  1.2967 -0.1564
   55CHL1    C1 4040   2.095   0.380   2.780  0.5229  0.0323 -0.0197
   55CHL1   H1A 4041   2.177   0.306   2.795  0.9060  0.2862 -0.7925
   55CHL1   H1B 4042   1.997   0.346   2.820 -0.5432  1.9229 -0.8840
   55CHL1    C2 4043   2.083   0.400   2.628  0.2159 -0.4461 -0.1828
   55CHL1   H2A 4044   2.060   0.311   2.566  2.2501  0.7351 -2.8364
   55CHL1   H2B 4045   2.179   0.445   2.595 -0.0669 -0.5335 -1.1540
   55CHL1   C20 4046   2.218   0.396   3.556 -0.5790 -0.2278  0.0948
   55CHL1   H20 4047   2.320   0.440   3.554 -0.2899 -0.9028 -0.5086
   55CHL1   C21 4048   2.219   0.244   3.533  0.6252 -0.5384  0.8989
   55CHL1  H21A 4049   2.268   0.193   3.618  0.0208  0.0651  1.6203
   55CHL1  H21B 4050   2.280   0.243   3.440 -1.6509 -1.7553 -0.6660
   55CHL1  H21C 4051   2.120   0.196   3.517  0.6782 -1.1934  2.3819
   55CHL1   C22 4052   2.163   0.425   3.699  0.7214  0.6435 -0.9601
   55CHL1  H22A 4053   2.159   0.533   3.723 -0.6133  1.7333 -5.2076
   55CHL1  H22B 4054   2.056   0.403   3.722  1.7693 -1.9160  2.2389
   55CHL1   C23 4055   2.246   0.362   3.818  0.3736 -0.1712  0.5604
   55CHL1  H23A 4056   2.226   0.253   3.828 -1.2356  0.2028  1.6641
   55CHL1  H23B 4057   2.356   0.365   3.801  0.3708 -0.0468  0.5649
   55CHL1   C24 4058   2.229   0.442   3.947  0.4044 -0.3221 -0.0494
   55CHL1  H24A 4059   2.272   0.544   3.935 -1.0334  0.4534  1.1031
   55CHL1  H24B 4060   2.121   0.437   3.971  0.1990 -0.6163 -0.9934
   55CHL1   C25 4061   2.311   0.381   4.058  0.3905  0.6580  0.5489
   55CHL1   H25 4062   2.298   0.271   4.047  0.1490  0.8886 -1.9058
   55CHL1   C26 4063   2.458   0.418   4.043 -0.1980 -0.5032 -0.7723
   55CHL1  H26A 4064   2.484   0.517   4.086 -2.4642 -0.7366  1.4016
   55CHL1  H26B 4065   2.522   0.351   4.103  0.0341  1.0956  0.8579
   55CHL1  H26C 4066   2.496   0.422   3.938  0.3084  1.4745 -0.5485
   55CHL1   C27 4067   2.258   0.420   4.196 -0.0097 -0.2293  0.4826
   55CHL1  H27A 4068   2.151   0.392   4.202 -0.6921  2.2051  0.6012
   55CHL1  H27B 4069   2.309   0.367   4.280 -1.4011 -0.8759  0.9531
   55CHL1  H27C 4070   2.272   0.530   4.202  1.5814 -0.3949  0.2267
   56CHL1    C3 4071   3.195   0.199   2.692 -0.7747 -0.2105  0.2031
   56CHL1    H3 4072   3.163   0.097   2.724  1.4602 -1.4995 -1.3608
   56CHL1    O3 4073   3.193   0.209   2.557 -0.4550  0.1979 -0.0753
   56CHL1   H3' 4074   3.268   0.159   2.525 -1.8707 -0.0360 -3.4215
   56CHL1    C4 4075   3.110   0.309   2.743 -0.1813 -0.4979 -0.1860
   56CHL1   H4A 4076   3.148   0.405   2.702  1.0184 -0.8615  0.0488
   56CHL1   H4B 4077   3.007   0.298   2.702 -0.2014  0.2907 -0.3762
   56CHL1    C5 4078   3.110   0.310   2.897 -0.0967 -0.7415 -0.2089
   56CHL1    C6 4079   2.985   0.290   2.952 -0.7794  0.1455  0.0854
   56CHL1    H6 4080   2.898   0.279   2.886 -0.6373  1.5619 -0.3733
   56CHL1    C7 4081   2.975   0.275   3.103  0.0959  0.1249  0.0322
   56CHL1   H7A 4082   2.895   0.341   3.143  2.8653  4.4334 -0.8150
   56CHL1   H7B 4083   2.945   0.170   3.123 -0.0892  0.1167 -0.2840
   56CHL1    C8 4084   3.103   0.321   3.184 -0.1755  1.1232  0.6056
   56CHL1    H8 4085   3.111   0.432   3.177  1.4551  1.1987  2.7010
   56CHL1   C14 4086   3.109   0.273   3.330  0.1911  0.6018 -0.0795
   56CHL1   H14 4087   3.104   0.162   3.323  0.3113  0.6042 -0.2125
   56CHL1   C15 4088   2.996   0.318   3.414 -0.7927 -0.4806 -0.1797
   56CHL1  H15A 4089   2.983   0.428   3.400  1.8808 -0.0271  0.3737
   56CHL1  H15B 4090   2.897   0.282   3.379 -1.5524  0.5783  0.8085
   56CHL1   C16 4091   3.029   0.282   3.559  0.2254  0.2028  0.0793
   56CHL1  H16A 4092   3.008   0.359   3.636 -0.8101 -2.5661  2.8198
   56CHL1  H16B 4093   2.975   0.190   3.592 -1.0674 -0.1055 -2.6039
   56CHL1   C17 4094   3.183   0.259   3.554  0.4475  0.0627 -0.6443
   56CHL1   H17 4095   3.196   0.150   3.539 -0.3331  0.0564 -1.3099
   56CHL1   C13 4096   3.227   0.316   3.420  0.1121 -0.3964 -0.2362
   56CHL1   C18 4097   3.236   0.468   3.438  0.0688 -0.0660 -0.2733
   56CHL1  H18A 4098   3.155   0.508   3.503 -1.3628 -0.4419 -1.7394
   56CHL1  H18B 4099   3.334   0.483   3.486  0.3931  0.1911 -0.9936
   56CHL1  H18C 4100   3.221   0.512   3.337  3.5278 -2.1396 -1.8656
   56CHL1   C12 4101   3.349   0.249   3.348 -0.2537  0.1430  0.4419
   56CHL1  H12A 4102   3.448   0.279   3.388 -0.6572  0.2629  1.3889
   56CHL1  H12B 4103   3.337   0.139   3.343  1.3440 -0.0225 -0.5745
   56CHL1   C11 4104   3.357   0.291   3.199  0.3928 -1.4306  0.0281
   56CHL1  H11A 4105   3.374   0.400   3.206 -0.0131 -1.4211  1.1970
   56CHL1  H11B 4106   3.449   0.253   3.151  1.0602  0.0735  0.0587
   56CHL1    C9 4107   3.229   0.260   3.115  0.2216  0.3637  0.1421
   56CHL1    H9 4108   3.223   0.149   3.112  0.1951  0.3526  0.5166
   56CHL1   C10 4109   3.248   0.301   2.964  0.5854 -0.1884 -0.4141
   56CHL1   C19 4110   3.314   0.440   2.960  0.1000 -0.0717 -0.1835
   56CHL1  H19A 4111   3.416   0.439   3.006  1.0408  1.9756 -2.0505
   56CHL1  H19B 4112   3.315   0.473   2.854  1.6941 -1.6586 -0.7260
   56CHL1  H19C 4113   3.259   0.514   3.022 -1.0398  0.4073 -1.7319
   56CHL1    C1 4114   3.337   0.196   2.891  0.4985 -0.3537 -0.1795
   56CHL1   H1A 4115   3.439   0.207   2.934  0.1203  1.5220  0.3266
   56CHL1   H1B 4116   3.313   0.095   2.929  0.5788 -0.8632 -1.4558
   56CHL1    C2 4117   3.344   0.217   2.745  0.2648  0.3590 -0.4638
   56CHL1   H2A 4118   3.408   0.141   2.695 -0.4376  0.6090 -1.8056
   56CHL1   H2B 4119   3.377   0.313   2.701  2.3666 -0.4960 -0.8706
   56CHL1   C20 4120   3.264   0.301   3.686 -0.5257 -0.0225 -0.2588
   56CHL1   H20 4121   3.239   0.407   3.707 -0.5071 -0.3110  1.3179
   56CHL1   C21 4122   3.401   0.256   3.671 -0.6188 -0.1912  0.2815
   56CHL1  H21A 4123   3.407   0.151   3.635 -2.4154 -0.3878  0.4742
   56CHL1  H21B 4124   3.460   0.256   3.766  0.6040 -1.8923 -0.4243
   56CHL1  H21C 4125   3.456   0.324   3.603  1.4234 -0.1130  1.9138
   56CHL1   C22 4126   3.209   0.244   3.815  0.3997  0.4700  0.3187
   56CHL1  H22A 4127   3.158   0.149   3.789 -0.9554  1.9417 -2.9018
   56CHL1  H22B 4128   3.290   0.221   3.889  0.7790  2.0743  0.4409
   56CHL1   C23 4129   3.115   0.338   3.885 -0.4629 -0.2421 -0.2124
   56CHL1  H23A 4130   3.175   0.426   3.920 -1.5073 -0.2136  1.6486
   56CHL1  H23B 4131   3.030   0.376   3.825 -0.7671  0.1785  0.4785
   56CHL1   C24 4132   3.048   0.271   4.003  0.8183 -0.5298  0.2047
   56CHL1  H24A 4133   2.987   0.185   3.968 -0.1075  0.4760 -0.7522
   56CHL1  H24B 4134   3.116   0.227   4.079 -0.3125 -1.6016  0.6217
   56CHL1   C25 4135   2.957   0.361   4.087 -0.9376 -1.2145  0.2120
   56CHL1   H25 4136   2.944   0.300   4.178  1.1956  2.0999  2.9977
   56CHL1   C26 4137   3.022   0.497   4.147  0.1621  1.2828  0.7463
   56CHL1  H26A 4138   3.045   0.559   4.057 -0.3257 -0.4759 -0.6576
   56CHL1  H26B 4139   2.958   0.543   4.224 -2.1461 -2.8983  1.6640
   56CHL1  H26C 4140   3.124   0.480   4.189 -0.0811 -0.6240  0.6799
   56CHL1   C27 4141   2.823   0.385   4.008  0.2677 -0.2506 -0.0688
   56CHL1  H27A 4142   2.759   0.443   4.077 -0.7475  0.2749 -1.4166
   56CHL1  H27B 4143   2.831   0.434   3.909  0.5832 -0.3016 -0.0693
   56CHL1  H27C 4144   2.766   0.290   4.000 -1.0298  0.5448 -0.5730
   57SAPC     N 4145   3.246   5.471   6.495 -0.1477  0.4255  0.0290
   57SAPC   C12 4146   3.235   5.392   6.367 -0.8338 -0.4317  0.5072
   57SAPC  H12A 4147   3.131   5.389   6.338 -0.2398  1.0884 -2.1359
   57SAPC  H12B 4148   3.262   5.291   6.394  0.2880  0.2087  1.8655
   57SAPC   C13 4149   3.203   5.606   6.469  0.5509  0.2395  0.2299
   57SAPC  H13A 4150   3.101   5.602   6.435  0.2951  1.7506  0.7202
   57SAPC  H13B 4151   3.201   5.662   6.562 -1.5615 -0.2207  0.5161
   57SAPC  H13C 4152   3.273   5.660   6.406  0.3775  1.8798  1.3671
   57SAPC   C14 4153   3.170   5.420   6.604  0.3762 -0.1072 -0.0375
   57SAPC  H14A 4154   3.192   5.318   6.629  0.0171  0.1175  1.2686
   57SAPC  H14B 4155   3.194   5.472   6.696  3.5848 -0.6644 -0.4801
   57SAPC  H14C 4156   3.064   5.435   6.587  0.5020  0.6247 -0.2224
   57SAPC   C15 4157   3.382   5.476   6.546  0.2697  0.4806  0.3663
   57SAPC  H15A 4158   3.421   5.378   6.566 -1.3737 -0.4411 -0.7538
   57SAPC  H15B 4159   3.450   5.524   6.477 -1.5085  2.1804 -0.3225
   57SAPC  H15C 4160   3.385   5.543   6.632  1.4070 -1.2926  1.7692
   57SAPC   C11 4161   3.306   5.439   6.239 -0.6509 -0.4791  0.4635
   57SAPC  H11A 4162   3.250   5.529   6.208 -1.7172 -1.8081 -1.6419
   57SAPC  H11B 4163   3.283   5.360   6.165  1.8442 -2.3829  1.5580
   57SAPC     P 4164   3.531   5.574   6.184 -0.1505 -0.1417  0.0221
   57SAPC   O13 4165   3.450   5.697   6.186 -0.4960  0.0024  0.9397
   57SAPC   O14 4166   3.664   5.573   6.250  0.4139  0.7134 -0.1258
   57SAPC   O12 4167   3.448   5.453   6.249  0.3069 -0.0693  0.1132
   57SAPC   O11 4168   3.552   5.539   6.029 -1.3292  0.4033  0.2408
   57SAPC    C1 4169   3.571   5.395   6.004  0.1832 -0.4012  0.3066
   57SAPC    HA 4170   3.663   5.359   6.055  1.2512  0.6291 -0.8427
   57SAPC    HB 4171   3.473   5.351   6.033 -1.4415  1.6084 -1.7856
   57SAPC    C2 4172   3.571   5.356   5.852 -0.0695  0.1302 -0.8903
   57SAPC    HS 4173   3.545   5.248   5.839  0.8505 -0.0503 -1.3723
   57SAPC   O21 4174   3.704   5.376   5.804  0.4417  0.3285  0.7443
   57SAPC   C21 4175   3.783   5.274   5.819 -0.8262  0.9663 -0.1003
   57SAPC   O22 4176   3.753   5.178   5.889  0.1471 -0.2271 -0.2347
   57SAPC   C22 4177   3.931   5.306   5.775 -0.3732 -0.3377 -0.4421
   57SAPC   H2R 4178   3.924   5.386   5.699 -0.2978 -0.4060 -0.5206
   57SAPC   H2S 4179   3.977   5.340   5.870  1.3968  0.7783 -1.6494
   57SAPC    C3 4180   3.470   5.442   5.772 -0.2457  0.0045 -0.1471
   57SAPC    HX 4181   3.501   5.548   5.776 -1.3680  0.4497 -1.9274
   57SAPC    HY 4182   3.364   5.449   5.804  0.0944  1.2976  0.7499
   57SAPC   O31 4183   3.483   5.408   5.629 -0.0211 -0.0705 -0.0428
   57SAPC   C31 4184   3.416   5.300   5.600  0.5714 -0.3374  0.8705
   57SAPC   O32 4185   3.348   5.236   5.684  0.1673 -0.1773  0.1500
   57SAPC   C32 4186   3.449   5.261   5.454 -0.3358  0.9731 -0.2759
   57SAPC   H2X 4187   3.558   5.239   5.459  0.4675  4.2441 -1.0154
   57SAPC   H2Y 4188   3.423   5.350   5.392 -0.9378  0.9278 -0.0965
   57SAPC   C23 4189   3.999   5.181   5.708 -0.2094  0.8930 -0.5158
   57SAPC   H3R 4190   3.939   5.145   5.622  0.9670 -0.9183 -0.6389
   57SAPC   H3S 4191   4.015   5.098   5.780  1.5255  1.4106 -0.2522
   57SAPC   C24 4192   4.131   5.234   5.646 -0.6471  0.5435 -0.4037
   57SAPC   H4R 4193   4.111   5.291   5.553  0.2556 -0.8553 -1.5010
   57SAPC   H4S 4194   4.185   5.149   5.600 -0.7982  0.4525 -0.4135
   57SAPC   C25 4195   4.231   5.291   5.744  0.1765  0.2255 -0.0136
   57SAPC   H5R 4196   4.284   5.212   5.799 -2.0939 -1.7603 -0.5698
   57SAPC   C26 4197   4.255   5.419   5.765 -0.2702  0.9543 -0.3203
   57SAPC   H6R 4198   4.316   5.454   5.850  0.0743  3.4667 -1.4953
   57SAPC   C27 4199   4.199   5.534   5.688 -0.1030 -0.3002  0.7695
   57SAPC   H7R 4200   4.092   5.535   5.717  0.4695  0.6866  2.9955
   57SAPC   H7S 4201   4.208   5.514   5.579 -1.2748 -1.0260  0.7893
   57SAPC   C28 4202   4.248   5.672   5.720  0.8936 -0.3265 -0.2201
   57SAPC   H8R 4203   4.255   5.687   5.828 -0.4659  0.9306 -0.2804
   57SAPC   C29 4204   4.306   5.757   5.633 -0.6331  0.6207  0.1934
   57SAPC   H9R 4205   4.348   5.852   5.669 -0.0724  0.6098 -0.4099
   57SAPC  C210 4206   4.320   5.746   5.483 -0.5031  0.4745  0.4833
   57SAPC  H10R 4207   4.224   5.763   5.429 -1.7090  0.7724  2.6078
   57SAPC  H10S 4208   4.357   5.645   5.455  0.0754 -0.0516  2.9369
   57SAPC  C211 4209   4.406   5.857   5.432 -0.3401  0.1174 -0.9097
   57SAPC  H11R 4210   4.374   5.958   5.462 -0.0580 -0.4887  1.6177
   57SAPC  C212 4211   4.485   5.843   5.323 -0.4086  0.1552  0.4271
   57SAPC  H12R 4212   4.528   5.939   5.289 -0.4610  1.3955  3.4844
   57SAPC  C213 4213   4.529   5.720   5.253 -0.1833  0.7176  0.8380
   57SAPC  H13R 4214   4.504   5.630   5.314  1.0202  0.9807  1.7413
   57SAPC  H13S 4215   4.637   5.701   5.237 -1.0842 -2.2670 -3.5279
   57SAPC  C214 4216   4.462   5.698   5.119  0.8524 -0.3352 -0.7008
   57SAPC  H14R 4217   4.352   5.700   5.115  0.8469  0.7669 -0.3042
   57SAPC  C215 4218   4.525   5.662   5.006  0.8979  0.0211  0.0651
   57SAPC  H15R 4219   4.469   5.624   4.919  1.8913  0.4934 -0.8143
   57SAPC  C216 4220   4.671   5.658   4.981 -0.1682 -0.2439 -0.1328
   57SAPC  H16R 4221   4.734   5.686   5.069  0.5327  0.9828 -1.0020
   57SAPC  H16S 4222   4.695   5.728   4.899  1.5446 -0.3944  0.2163
   57SAPC  C217 4223   4.713   5.523   4.917 -0.3290  0.1605 -1.0683
   57SAPC  H17R 4224   4.668   5.440   4.976 -1.6397  2.8368  2.0619
   57SAPC  H17S 4225   4.822   5.512   4.933 -0.3956  1.4130  0.4337
   57SAPC  C218 4226   4.675   5.509   4.763  0.1057  0.5987 -0.2826
   57SAPC  H18R 4227   4.727   5.588   4.704  1.5215  0.7408  1.0945
   57SAPC  H18S 4228   4.564   5.505   4.758  0.1047 -1.0387  0.3693
   57SAPC  C219 4229   4.710   5.367   4.704  0.2797  0.0425 -0.3076
   57SAPC  H19R 4230   4.663   5.291   4.769 -1.0418  1.8269  0.9437
   57SAPC  H19S 4231   4.819   5.351   4.716  0.4583  1.2593 -0.1491
   57SAPC  C220 4232   4.659   5.336   4.564 -0.2302  0.0558  0.1185
   57SAPC  H20R 4233   4.549   5.321   4.566 -0.0702 -1.1719  0.6234
   57SAPC  H20S 4234   4.710   5.249   4.518  1.3953  1.6027 -1.1960
   57SAPC  H20T 4235   4.687   5.431   4.513  2.6890 -0.3117  0.8216
   57SAPC   C33 4236   3.367   5.137   5.413  0.8457  0.2040  0.1141
   57SAPC   H3X 4237   3.258   5.138   5.433  0.7052 -1.1911 -0.4418
   57SAPC   H3Y 4238   3.412   5.050   5.466  2.1954 -0.2497 -1.6806
   57SAPC   C34 4239   3.381   5.118   5.260 -0.2639 -0.6896 -1.0237
   57SAPC   H4X 4240   3.335   5.020   5.234 -0.3153 -1.3127  1.2274
   57SAPC   H4Y 4241   3.487   5.133   5.231 -0.3326  2.6815 -0.0035
   57SAPC   C35 4242   3.313   5.228   5.185 -0.8442 -0.3767  0.6837
   57SAPC   H5X 4243   3.379   5.317   5.179 -0.6964 -0.5091  0.2290
   57SAPC   H5Y 4244   3.219   5.267   5.229  0.4592  1.3204  2.0990
   57SAPC   C36 4245   3.265   5.171   5.045  0.2963  0.4470 -0.2901
   57SAPC   H6X 4246   3.199   5.083   5.054 -1.2283  1.2176 -2.8613
   57SAPC   H6Y 4247   3.358   5.148   4.989  0.7718 -2.3936  1.4808
   57SAPC   C37 4248   3.193   5.281   4.970 -0.3543  0.6229  0.1462
   57SAPC   H7X 4249   3.238   5.382   4.974  1.2258  0.0218 -1.3366
   57SAPC   H7Y 4250   3.089   5.295   5.008 -1.0520 -0.3116 -1.3202
   57SAPC   C38 4251   3.167   5.254   4.818  0.6437  0.3373 -0.9182
   57SAPC   H8X 4252   3.084   5.321   4.788  1.7669  1.7540 -0.9601
   57SAPC   H8Y 4253   3.133   5.149   4.805  2.8854 -0.6557  0.6317
   57SAPC   C39 4254   3.292   5.279   4.734 -0.3958 -0.9716 -0.1529
   57SAPC   H9X 4255   3.361   5.201   4.772  2.3030  0.5137 -1.6751
   57SAPC   H9Y 4256   3.333   5.379   4.762 -0.2817 -1.4794  1.5898
   57SAPC  C310 4257   3.277   5.273   4.583  0.5978  0.5221 -0.1977
   57SAPC  H10X 4258   3.212   5.358   4.551  1.4573  0.9182 -0.9293
   57SAPC  H10Y 4259   3.249   5.168   4.561  1.2160  0.0681  1.1010
   57SAPC  C311 4260   3.415   5.292   4.509  0.0652 -0.2247  0.3226
   57SAPC  H11X 4261   3.475   5.199   4.512 -0.3635 -0.5225 -0.2077
   57SAPC  H11Y 4262   3.468   5.383   4.545  1.7716 -0.4927 -1.3767
   57SAPC  C312 4263   3.378   5.312   4.358 -0.8729  0.0425  0.1373
   57SAPC  H12X 4264   3.473   5.332   4.304 -1.5873 -0.2586 -1.2771
   57SAPC  H12Y 4265   3.322   5.407   4.340  1.1148  1.4527  1.0228
   57SAPC  C313 4266   3.301   5.197   4.298 -0.0251 -0.5884 -0.6067
   57SAPC  H13X 4267   3.201   5.205   4.347  0.3094  1.5673 -0.1664
   57SAPC  H13Y 4268   3.343   5.101   4.336 -1.9581 -1.0932  0.3871
   57SAPC  C314 4269   3.276   5.207   4.147  0.0920 -0.6551 -0.2731
   57SAPC  H14X 4270   3.364   5.167   4.092  0.1697  0.0267 -0.6619
   57SAPC  H14Y 4271   3.252   5.312   4.121 -0.6966 -0.0082  2.7062
   57SAPC  C315 4272   3.159   5.128   4.093 -0.4152 -0.6348 -0.7139
   57SAPC  H15X 4273   3.163   5.025   4.134  0.9034 -0.0075  0.8253
   57SAPC  H15Y 4274   3.163   5.119   3.982  0.3826 -0.2370 -0.7270
   57SAPC  C316 4275   3.017   5.185   4.125 -0.2194 -0.1370 -0.3808
   57SAPC  H16X 4276   3.033   5.295   4.115  1.4453 -0.4464 -1.5985
   57SAPC  H16Y 4277   3.005   5.161   4.233  1.0661  0.7766 -0.0021
   57SAPC  C317 4278   2.908   5.128   4.036 -0.1790  0.6768 -0.0423
   57SAPC  H17X 4279   2.891   5.019   4.047  2.0983  0.4748  2.3299
   57SAPC  H17Y 4280   2.951   5.130   3.933 -2.1123 -0.4929 -0.9290
   57SAPC  C318 4281   2.771   5.193   4.048 -0.1620  0.3681 -0.2149
   57SAPC  H18X 4282   2.764   5.298   4.012 -2.9145 -0.9441 -4.2460
   57SAPC  H18Y 4283   2.732   5.183   4.152 -0.7312  0.8956 -0.3744
   57SAPC  H18Z 4284   2.694   5.130   3.998  1.3043 -1.7536  0.1005
   58SAPC     N 4285   0.967   6.458   6.692  0.0540 -0.2248  0.1536
   58SAPC   C12 4286   1.089   6.514   6.625 -0.2670  0.7535  0.3382
   58SAPC  H12A 4287   1.180   6.500   6.681  0.5915  2.1047 -0.6551
   58SAPC  H12B 4288   1.081   6.621   6.610  1.3303  0.8388 -0.0752
   58SAPC   C13 4289   0.843   6.481   6.613  0.2989  0.0461 -0.4008
   58SAPC  H13A 4290   0.795   6.573   6.642 -0.3059  0.1034 -1.5454
   58SAPC  H13B 4291   0.859   6.473   6.507  2.4223 -0.3346 -0.1101
   58SAPC  H13C 4292   0.769   6.411   6.648  1.1355 -1.0474 -0.7288
   58SAPC   C14 4293   0.990   6.310   6.721  1.0300 -0.6577  0.0343
   58SAPC  H14A 4294   0.898   6.275   6.766  0.9416 -1.2654 -0.6013
   58SAPC  H14B 4295   1.009   6.257   6.628 -0.0696 -3.7094  1.4146
   58SAPC  H14C 4296   1.064   6.296   6.798  0.3166  0.3487  0.9256
   58SAPC   C15 4297   0.952   6.532   6.823 -0.6300 -0.0445 -0.0345
   58SAPC  H15A 4298   1.040   6.518   6.883  0.2712 -0.2665 -1.3510
   58SAPC  H15B 4299   0.907   6.630   6.813 -0.7439 -0.1870 -1.0412
   58SAPC  H15C 4300   0.881   6.491   6.893  1.5388 -0.5889  1.9605
   58SAPC   C11 4301   1.127   6.472   6.482  0.2264  0.7947 -0.3003
   58SAPC  H11A 4302   1.214   6.534   6.450  1.5012  0.8395  2.8787
   58SAPC  H11B 4303   1.043   6.498   6.414 -0.4955 -1.6659 -0.4665
   58SAPC     P 4304   1.297   6.263   6.493 -0.2351  0.7366 -0.2323
   58SAPC   O13 4305   1.385   6.363   6.552 -0.3975  0.5160 -0.3642
   58SAPC   O14 4306   1.282   6.137   6.570  0.4134  0.0565 -0.3746
   58SAPC   O12 4307   1.142   6.326   6.475  0.0295  0.1866  0.1481
   58SAPC   O11 4308   1.340   6.236   6.350 -0.1292  0.0256  0.5395
   58SAPC    C1 4309   1.411   6.325   6.267 -0.2015  0.4995  0.7040
   58SAPC    HA 4310   1.368   6.428   6.258 -2.6211 -0.6105 -2.3158
   58SAPC    HB 4311   1.515   6.335   6.305  0.4371 -1.6907 -0.3213
   58SAPC    C2 4312   1.428   6.265   6.122  0.4934 -0.4408 -0.4200
   58SAPC    HS 4313   1.467   6.338   6.048 -0.4604  0.2818 -0.2340
   58SAPC   O21 4314   1.303   6.212   6.063 -0.3990 -0.3972  0.2718
   58SAPC   C21 4315   1.225   6.305   6.006 -0.1088  0.3537 -0.2883
   58SAPC   O22 4316   1.237   6.423   6.019 -0.4835 -0.0386 -0.1904
   58SAPC   C22 4317   1.118   6.235   5.911 -0.3531 -0.2086  0.4181
   58SAPC   H2R 4318   1.180   6.166   5.851  0.7916  1.7323 -0.7536
   58SAPC   H2S 4319   1.057   6.162   5.968  1.8512 -3.0048 -0.5941
   58SAPC    C3 4320   1.547   6.163   6.122 -0.4374 -0.2639  0.5174
   58SAPC    HX 4321   1.525   6.088   6.201 -0.7316 -0.1284  0.5654
   58SAPC    HY 4322   1.638   6.221   6.151  0.3575 -1.5758  0.7344
   58SAPC   O31 4323   1.569   6.091   6.002 -0.4076 -0.0695  0.1925
   58SAPC   C31 4324   1.615   6.160   5.905  0.2604  0.0666  0.8152
   58SAPC   O32 4325   1.635   6.281   5.905 -0.5986  0.0433 -0.3837
   58SAPC   C32 4326   1.669   6.075   5.792  0.4657  0.0465 -0.3810
   58SAPC   H2X 4327   1.592   6.001   5.763  0.2752  0.8140 -1.9129
   58SAPC   H2Y 4328   1.758   6.017   5.827 -0.7345 -0.5946  1.8153
   58SAPC   C23 4329   1.037   6.342   5.826  0.2650 -0.3466 -0.5063
   58SAPC   H3R 4330   1.106   6.394   5.756  2.6336  1.0010  2.5937
   58SAPC   H3S 4331   1.000   6.428   5.886 -0.2868  0.8842 -2.5271
   58SAPC   C24 4332   0.923   6.288   5.747  0.1119  0.0416 -0.3275
   58SAPC   H4R 4333   0.858   6.247   5.827 -0.0461  0.8726 -0.0224
   58SAPC   H4S 4334   0.947   6.193   5.694 -0.4754  0.3317 -1.1307
   58SAPC   C25 4335   0.841   6.388   5.670  0.1088  1.1463 -1.3488
   58SAPC   H5R 4336   0.760   6.428   5.732 -0.3534 -1.3143 -0.2368
   58SAPC   C26 4337   0.859   6.427   5.542  0.0006  0.2656 -0.3431
   58SAPC   H6R 4338   0.796   6.511   5.508 -0.8079 -0.2591 -0.1823
   58SAPC   C27 4339   0.966   6.380   5.455 -0.2681  0.1152 -0.1324
   58SAPC   H7R 4340   0.924   6.310   5.380  1.0582 -0.4926 -0.3371
   58SAPC   H7S 4341   1.036   6.314   5.510 -0.6975 -0.3920 -0.1884
   58SAPC   C28 4342   1.037   6.500   5.394  0.1226  0.3784 -0.0566
   58SAPC   H8R 4343   1.092   6.570   5.459 -1.3437 -0.6120  2.3733
   58SAPC   C29 4344   1.049   6.528   5.264  0.4146 -0.0463  0.9906
   58SAPC   H9R 4345   1.094   6.623   5.234 -2.3501  2.3476  3.7587
   58SAPC  C210 4346   1.005   6.438   5.151 -0.1265  0.0100  0.4908
   58SAPC  H10R 4347   1.020   6.328   5.155 -1.9872 -0.2468  2.0287
   58SAPC  H10S 4348   1.068   6.461   5.062 -2.6333  2.7394 -0.7573
   58SAPC  C211 4349   0.861   6.456   5.105 -0.0841  0.1833 -0.2916
   58SAPC  H11R 4350   0.796   6.503   5.179 -2.0862  0.9260 -2.4087
   58SAPC  C212 4351   0.820   6.417   4.982 -0.6795  0.0899  0.0045
   58SAPC  H12R 4352   0.712   6.422   4.962 -0.3919  1.4811 -1.4272
   58SAPC  C213 4353   0.912   6.358   4.881 -0.1399 -0.2888 -0.4297
   58SAPC  H13R 4354   0.836   6.320   4.809  0.4705 -2.1380 -0.1661
   58SAPC  H13S 4355   0.956   6.264   4.923 -1.2777 -0.2985  0.8056
   58SAPC  C214 4356   0.998   6.453   4.806 -0.0285  0.2852 -0.7566
   58SAPC  H14R 4357   0.951   6.543   4.764  0.8984  0.8828 -0.5391
   58SAPC  C215 4358   1.132   6.443   4.783 -0.9083  0.5411 -0.5399
   58SAPC  H15R 4359   1.183   6.526   4.732 -0.6596  0.3895 -0.5402
   58SAPC  C216 4360   1.215   6.326   4.830 -0.3804 -0.0308  0.1314
   58SAPC  H16R 4361   1.154   6.233   4.821 -0.6927 -0.0096  1.7705
   58SAPC  H16S 4362   1.245   6.331   4.936 -1.2503 -1.0721  0.4506
   58SAPC  C217 4363   1.333   6.295   4.742  0.2281  0.1213 -0.3476
   58SAPC  H17R 4364   1.408   6.377   4.737  1.3653 -0.9449 -2.1239
   58SAPC  H17S 4365   1.289   6.297   4.640  0.4526  0.1470 -0.4437
   58SAPC  C218 4366   1.395   6.157   4.779  0.2507  0.0410  0.3328
   58SAPC  H18R 4367   1.376   6.090   4.692  0.9228 -0.9062  0.8906
   58SAPC  H18S 4368   1.344   6.116   4.869  1.6077 -2.1185  0.1996
   58SAPC  C219 4369   1.545   6.157   4.804  0.2207  0.0524  0.1429
   58SAPC  H19R 4370   1.554   6.195   4.908 -0.0268  1.2164 -0.2416
   58SAPC  H19S 4371   1.596   6.228   4.735 -1.3940 -0.2977 -1.4807
   58SAPC  C220 4372   1.612   6.020   4.805 -0.2572  0.3906 -0.0338
   58SAPC  H20R 4373   1.661   6.000   4.707  1.1183 -0.2231  0.7544
   58SAPC  H20S 4374   1.539   5.944   4.840 -0.9280  0.5489 -1.0277
   58SAPC  H20T 4375   1.706   6.013   4.863  0.4223 -0.4113 -1.1987
   58SAPC   C33 4376   1.720   6.166   5.672  1.0850  0.1010 -0.0113
   58SAPC   H3X 4377   1.790   6.244   5.708  1.5650 -0.9776  1.5224
   58SAPC   H3Y 4378   1.634   6.227   5.637  0.5112 -0.2577  0.7368
   58SAPC   C34 4379   1.763   6.086   5.546  0.9059  0.0676  0.0327
   58SAPC   H4X 4380   1.693   6.000   5.532 -1.2100  1.6708  0.1909
   58SAPC   H4Y 4381   1.865   6.057   5.578  0.8675  0.2284  0.2975
   58SAPC   C35 4382   1.777   6.161   5.408  0.0819  0.1673  0.3381
   58SAPC   H5X 4383   1.835   6.256   5.415 -0.7591  0.6530  0.9607
   58SAPC   H5Y 4384   1.678   6.194   5.367  0.9179 -0.6789 -2.6409
   58SAPC   C36 4385   1.849   6.068   5.311  0.8045 -0.3312  0.3766
   58SAPC   H6X 4386   1.784   5.983   5.283 -0.0618 -0.0491  1.4904
   58SAPC   H6Y 4387   1.949   6.039   5.349  1.3141 -0.0986 -0.7351
   58SAPC   C37 4388   1.896   6.130   5.174 -0.1886 -0.4428  0.2607
   58SAPC   H7X 4389   1.970   6.206   5.209 -1.3594  0.2276  1.3835
   58SAPC   H7Y 4390   1.801   6.179   5.143  0.0742 -0.9916 -1.4937
   58SAPC   C38 4391   1.960   6.031   5.082 -0.1364 -0.8524  0.1535
   58SAPC   H8X 4392   1.900   5.938   5.073  0.3230 -1.1844  0.4812
   58SAPC   H8Y 4393   2.059   5.995   5.117  0.5982  0.5943 -0.3493
   58SAPC   C39 4394   1.974   6.110   4.954  0.7240  0.2917  0.2347
   58SAPC   H9X 4395   2.017   6.212   4.966  2.9491 -0.0923 -3.0464
   58SAPC   H9Y 4396   1.870   6.123   4.917  0.7476  3.0525  0.8626
   58SAPC  C310 4397   2.065   6.035   4.854  0.7660  0.0699  0.7843
   58SAPC  H10X 4398   2.008   5.955   4.802 -0.9691  1.5129  0.3739
   58SAPC  H10Y 4399   2.154   5.991   4.904  1.5611 -0.2587 -0.8246
   58SAPC  C311 4400   2.122   6.135   4.758 -0.2063 -0.1390  1.0792
   58SAPC  H11X 4401   2.194   6.208   4.800  0.1246  0.7003 -0.8143
   58SAPC  H11Y 4402   2.045   6.193   4.705 -0.3452 -2.8151 -1.9752
   58SAPC  C312 4403   2.190   6.054   4.648  0.2352  0.8412  0.0721
   58SAPC  H12X 4404   2.112   5.993   4.597 -0.0633  0.1770  1.2753
   58SAPC  H12Y 4405   2.258   5.978   4.692 -0.7862  0.5320  1.1795
   58SAPC  C313 4406   2.259   6.146   4.542  0.0909  0.1850  0.1853
   58SAPC  H13X 4407   2.328   6.205   4.607 -0.3251 -0.8727  1.6624
   58SAPC  H13Y 4408   2.192   6.220   4.493 -0.1213 -0.4934 -0.5506
   58SAPC  C314 4409   2.342   6.073   4.436 -0.2066 -0.7552 -0.3649
   58SAPC  H14X 4410   2.289   5.983   4.399  0.5627 -1.7116  0.7608
   58SAPC  H14Y 4411   2.427   6.025   4.489  1.1264  0.9912 -0.8226
   58SAPC  C315 4412   2.391   6.171   4.331  0.0456  0.4152  0.0039
   58SAPC  H15X 4413   2.445   6.249   4.388 -1.2287  1.6791 -0.4759
   58SAPC  H15Y 4414   2.296   6.216   4.296  0.2342  0.4176 -0.5012
   58SAPC  C316 4415   2.478   6.118   4.224  0.5107  1.3673  0.6926
   58SAPC  H16X 4416   2.429   6.026   4.188 -0.9164  1.1378  2.9867
   58SAPC  H16Y 4417   2.583   6.093   4.251  0.3946 -1.5652 -1.1721
   58SAPC  C317 4418   2.470   6.207   4.095 -0.5500 -0.5130  0.4795
   58SAPC  H17X 4419   2.549   6.284   4.100 -0.1324 -0.8300 -0.7897
   58SAPC  H17Y 4420   2.374   6.261   4.084  0.2975  1.0844  0.6516
   58SAPC  C318 4421   2.480   6.127   3.963  0.1339 -0.2304 -0.3949
   58SAPC  H18X 4422   2.402   6.047   3.965 -1.2158  1.0462  1.2250
   58SAPC  H18Y 4423   2.582   6.085   3.952  0.9211  1.5227 -0.1498
   58SAPC  H18Z 4424   2.470   6.200   3.881 -0.0928  2.0886  1.5807
   59SAPC     N 4425   0.432   2.962   6.225 -0.1703  0.2864 -0.5380
   59SAPC   C12 4426   0.533   3.053   6.157  0.6768 -0.2427 -1.3575
   59SAPC  H12A 4427   0.631   3.026   6.195  0.2129  0.5742  0.5176
   59SAPC  H12B 4428   0.525   3.154   6.192 -0.1838 -1.1169  1.1907
   59SAPC   C13 4429   0.433   2.967   6.374 -0.6296 -0.0145  0.1086
   59SAPC  H13A 4430   0.421   3.069   6.408  0.2156  0.1388 -0.0432
   59SAPC  H13B 4431   0.362   2.899   6.419 -2.0937  1.2078 -0.2696
   59SAPC  H13C 4432   0.526   2.933   6.416  0.4590  1.8823 -0.6569
   59SAPC   C14 4433   0.293   3.007   6.185  0.3401  0.3944 -0.8269
   59SAPC  H14A 4434   0.284   3.110   6.215  2.7291  1.3702 -3.0795
   59SAPC  H14B 4435   0.263   2.993   6.082  0.7090 -0.7671 -0.7946
   59SAPC  H14C 4436   0.226   2.949   6.247  3.1477 -1.1889  0.9861
   59SAPC   C15 4437   0.451   2.823   6.182  0.3470 -0.1735  0.5854
   59SAPC  H15A 4438   0.550   2.790   6.212  0.9212 -1.3443 -2.2671
   59SAPC  H15B 4439   0.380   2.750   6.219  2.5436 -0.7868  4.0906
   59SAPC  H15C 4440   0.446   2.822   6.074 -1.1282  1.7619  0.5822
   59SAPC   C11 4441   0.533   3.052   5.999 -1.2520 -0.0829  0.0324
   59SAPC  H11A 4442   0.440   3.086   5.949 -2.2454  1.6509  2.8408
   59SAPC  H11B 4443   0.553   2.947   5.969 -1.4602 -0.4106  0.9963
   59SAPC     P 4444   0.769   3.095   5.891 -0.0062  0.4547  0.0403
   59SAPC   O13 4445   0.828   3.212   5.827 -0.4175 -0.6943  0.0695
   59SAPC   O14 4446   0.849   3.011   5.985  0.2210 -0.0520 -0.1344
   59SAPC   O12 4447   0.640   3.145   5.960 -0.0934 -0.1509 -0.5713
   59SAPC   O11 4448   0.710   2.990   5.783  0.2390  0.0412 -0.0881
   59SAPC    C1 4449   0.623   3.040   5.680 -1.0373 -0.6712 -0.3785
   59SAPC    HA 4450   0.522   3.003   5.704 -1.8298 -0.2592 -2.8413
   59SAPC    HB 4451   0.626   3.150   5.667  2.4286 -0.2919  2.0487
   59SAPC    C2 4452   0.674   2.996   5.542 -0.0318  0.0545 -0.1193
   59SAPC    HS 4453   0.598   3.026   5.466 -1.1997 -0.8550  0.6528
   59SAPC   O21 4454   0.688   2.856   5.529  0.0451 -0.4917 -0.5218
   59SAPC   C21 4455   0.581   2.785   5.547  1.3505  0.3728 -0.4579
   59SAPC   O22 4456   0.462   2.830   5.550  0.4752  0.5746  0.3507
   59SAPC   C22 4457   0.611   2.637   5.538 -0.2846 -1.2428  0.1670
   59SAPC   H2R 4458   0.713   2.617   5.497 -0.6247 -2.4906 -0.1315
   59SAPC   H2S 4459   0.619   2.611   5.645 -1.7167  1.8832  1.1517
   59SAPC    C3 4460   0.807   3.062   5.505 -0.0181  0.4785  0.0133
   59SAPC    HX 4461   0.884   3.009   5.564 -1.1877 -2.1983 -0.7009
   59SAPC    HY 4462   0.811   3.164   5.548  2.2367  0.9143 -1.0679
   59SAPC   O31 4463   0.835   3.057   5.365 -0.4892  0.2184  0.0925
   59SAPC   C31 4464   0.776   3.148   5.296 -0.3761 -0.3582 -0.3951
   59SAPC   O32 4465   0.726   3.247   5.342  0.0012  0.5226 -0.1319
   59SAPC   C32 4466   0.799   3.124   5.148 -0.3524 -0.1734  0.0926
   59SAPC   H2X 4467   0.908   3.136   5.133 -0.4286  0.8169  0.2351
   59SAPC   H2Y 4468   0.741   3.198   5.088  1.2756  2.1602  1.2242
   59SAPC   C23 4469   0.500   2.550   5.470  0.1145  0.5085 -0.2400
   59SAPC   H3R 4470   0.407   2.564   5.529  1.0783 -0.9916  1.7080
   59SAPC   H3S 4471   0.528   2.443   5.473 -2.6799 -0.2720  0.8713
   59SAPC   C24 4472   0.466   2.591   5.323  0.7000  0.0110  0.5720
   59SAPC   H4R 4473   0.395   2.676   5.312  0.4166 -0.0078  2.0476
   59SAPC   H4S 4474   0.402   2.502   5.305  1.8829 -0.7089 -0.2235
   59SAPC   C25 4475   0.576   2.593   5.224 -0.1048 -0.1910 -0.0694
   59SAPC   H5R 4476   0.676   2.615   5.264 -0.3671 -1.3690  1.3307
   59SAPC   C26 4477   0.565   2.560   5.093 -0.2558  0.1441  0.2793
   59SAPC   H6R 4478   0.655   2.556   5.031  0.7800 -1.1167  1.7805
   59SAPC   C27 4479   0.442   2.511   5.030  0.7305 -0.6470  0.3550
   59SAPC   H7R 4480   0.445   2.575   4.939  0.7089  1.3079  1.6564
   59SAPC   H7S 4481   0.352   2.522   5.094  0.8427 -1.1704  0.6078
   59SAPC   C28 4482   0.453   2.363   4.998 -0.4458 -0.8180  0.7886
   59SAPC   H8R 4483   0.431   2.292   5.079  0.8254 -0.7736  1.1957
   59SAPC   C29 4484   0.493   2.323   4.878  0.4130  0.0963  0.6423
   59SAPC   H9R 4485   0.496   2.214   4.864 -0.9602 -0.0999  1.6668
   59SAPC  C210 4486   0.517   2.410   4.756  0.3396  0.2094 -0.0469
   59SAPC  H10R 4487   0.585   2.490   4.792 -1.4085  0.9730  1.7906
   59SAPC  H10S 4488   0.424   2.470   4.741  0.7482  0.1197 -3.8074
   59SAPC  C211 4489   0.574   2.351   4.633  0.5535  0.1594 -0.6465
   59SAPC  H11R 4490   0.683   2.360   4.622  0.6886  0.8626  1.0286
   59SAPC  C212 4491   0.501   2.296   4.536  0.5004 -0.2980  0.5851
   59SAPC  H12R 4492   0.571   2.263   4.457  1.2151 -0.7797  1.4021
   59SAPC  C213 4493   0.352   2.283   4.523 -0.5632 -0.2620  0.1512
   59SAPC  H13R 4494   0.317   2.347   4.439 -1.0758  1.1899  1.4308
   59SAPC  H13S 4495   0.298   2.323   4.611 -0.4924  1.8132 -0.6839
   59SAPC  C214 4496   0.312   2.143   4.483  0.0173  0.3388 -0.6337
   59SAPC  H14R 4497   0.313   2.074   4.569  1.4227  0.0859 -0.8251
   59SAPC  C215 4498   0.254   2.096   4.369 -0.1839 -0.0128 -0.1121
   59SAPC  H15R 4499   0.236   1.988   4.358 -0.4419  0.0258 -0.0743
   59SAPC  C216 4500   0.221   2.178   4.242 -0.3256 -0.2651 -0.0555
   59SAPC  H16R 4501   0.301   2.173   4.166 -0.2833  0.1854 -0.0450
   59SAPC  H16S 4502   0.216   2.286   4.271  0.8403 -0.3983  0.7026
   59SAPC  C217 4503   0.090   2.144   4.175  0.4585 -0.2576 -0.3790
   59SAPC  H17R 4504   0.065   2.231   4.111  2.4980 -0.3050 -1.3333
   59SAPC  H17S 4505   0.005   2.135   4.247  0.2288 -0.6606 -0.6974
   59SAPC  C218 4506   0.081   2.018   4.087  0.6149 -0.5256 -0.1664
   59SAPC  H18R 4507   0.064   1.929   4.151 -0.2993 -2.2848 -2.6783
   59SAPC  H18S 4508   0.165   2.016   4.015 -0.2251 -2.2834 -1.1436
   59SAPC  C219 4509  -0.058   2.022   4.010 -0.0144 -0.5697 -0.2569
   59SAPC  H19R 4510  -0.059   2.118   3.954  1.6601 -0.1168  0.4384
   59SAPC  H19S 4511  -0.140   2.034   4.084  1.2860  0.2419  1.1118
   59SAPC  C220 4512  -0.071   1.894   3.924 -0.1736 -0.6339 -0.3044
   59SAPC  H20R 4513  -0.177   1.889   3.889 -1.7765 -1.7252  3.9486
   59SAPC  H20S 4514  -0.072   1.795   3.976  0.0156 -0.3784  0.1900
   59SAPC  H20T 4515   0.000   1.902   3.840  0.5772  1.8559  0.4902
   59SAPC   C33 4516   0.766   2.978   5.101  0.0449 -0.0928 -0.5536
   59SAPC   H3X 4517   0.659   2.947   5.105  0.3245 -1.5113 -2.3991
   59SAPC   H3Y 4518   0.827   2.912   5.166  1.7087  1.9736  0.0878
   59SAPC   C34 4519   0.824   2.950   4.966  0.1988  0.2779 -0.0213
   59SAPC   H4X 4520   0.931   2.979   4.967  0.1300  0.5341  0.4866
   59SAPC   H4Y 4521   0.774   3.017   4.893 -0.7153  1.1939  1.3863
   59SAPC   C35 4522   0.824   2.807   4.919  0.4999 -0.5670 -0.1182
   59SAPC   H5X 4523   0.722   2.764   4.910  0.6665 -0.8682 -0.5900
   59SAPC   H5Y 4524   0.868   2.739   4.996 -1.7610 -0.9861  0.8944
   59SAPC   C36 4525   0.904   2.778   4.793  0.4687  0.0188 -0.0339
   59SAPC   H6X 4526   1.008   2.814   4.806  0.2286  0.0241  2.4074
   59SAPC   H6Y 4527   0.859   2.845   4.716  1.6770  1.5780  0.5711
   59SAPC   C37 4528   0.904   2.627   4.745 -0.3460 -0.6722 -0.0908
   59SAPC   H7X 4529   0.803   2.582   4.743 -2.1345  3.0180 -0.5557
   59SAPC   H7Y 4530   0.970   2.573   4.816 -0.8507  0.5658  1.3746
   59SAPC   C38 4531   0.972   2.622   4.606 -0.0002 -0.7926 -0.4164
   59SAPC   H8X 4532   1.069   2.676   4.607 -1.8630  2.8665 -1.7777
   59SAPC   H8Y 4533   0.910   2.669   4.527  0.0119  1.1807  0.7006
   59SAPC   C39 4534   0.991   2.473   4.565  0.3238  0.0699  0.0432
   59SAPC   H9X 4535   0.890   2.429   4.554  0.1180  0.4095  0.5382
   59SAPC   H9Y 4536   1.054   2.415   4.635  0.7821  0.6746  0.1456
   59SAPC  C310 4537   1.048   2.457   4.422  0.3203  0.7578 -0.7148
   59SAPC  H10X 4538   1.147   2.508   4.418  1.2746 -0.6056  2.3527
   59SAPC  H10Y 4539   0.987   2.505   4.343 -0.1268  1.7446  0.1979
   59SAPC  C311 4540   1.065   2.309   4.395 -0.4304  0.2843  0.3404
   59SAPC  H11X 4541   0.973   2.251   4.418  0.6599 -1.6703 -0.0078
   59SAPC  H11Y 4542   1.127   2.257   4.471 -0.7137 -1.9392 -0.8857
   59SAPC  C312 4543   1.116   2.281   4.255  0.0062 -0.8072 -0.6519
   59SAPC  H12X 4544   1.213   2.336   4.255  0.1678 -1.0308  0.8206
   59SAPC  H12Y 4545   1.048   2.317   4.175  1.7389  0.3778 -1.6798
   59SAPC  C313 4546   1.156   2.130   4.239 -0.8288 -0.7175  0.1293
   59SAPC  H13X 4547   1.200   2.088   4.332 -0.6195 -1.9852 -0.5270
   59SAPC  H13Y 4548   1.231   2.129   4.157 -1.6976  2.2696 -0.8299
   59SAPC  C314 4549   1.031   2.040   4.199 -1.0272 -0.0948 -0.0523
   59SAPC  H14X 4550   0.968   2.083   4.119  0.7634  0.8323 -1.0218
   59SAPC  H14Y 4551   0.972   2.020   4.291  0.6112 -3.2101  0.4783
   59SAPC  C315 4552   1.081   1.905   4.143 -0.5855  0.0036 -0.4528
   59SAPC  H15X 4553   1.172   1.930   4.084 -1.5947 -0.1747 -2.1415
   59SAPC  H15Y 4554   1.000   1.870   4.076  0.0453  3.4462 -3.3203
   59SAPC  C316 4555   1.098   1.796   4.249  0.6669 -0.3466  0.7630
   59SAPC  H16X 4556   1.007   1.752   4.295 -0.6801 -0.8280 -2.1438
   59SAPC  H16Y 4557   1.167   1.839   4.325  0.6690  2.1304 -0.5103
   59SAPC  C317 4558   1.173   1.672   4.186 -0.1759  0.2470 -0.7627
   59SAPC  H17X 4559   1.198   1.597   4.264  1.2002  0.1895 -1.2231
   59SAPC  H17Y 4560   1.264   1.704   4.132 -0.2278  0.9013 -0.4702
   59SAPC  C318 4561   1.093   1.592   4.080 -0.7974  0.7342  0.2093
   59SAPC  H18X 4562   1.142   1.497   4.050 -0.5460  0.4774  1.3933
   59SAPC  H18Y 4563   1.080   1.649   3.986 -0.1990 -1.9545 -1.6404
   59SAPC  H18Z 4564   0.992   1.568   4.120 -1.8495  2.2603 -1.3873
   60SAPC     N 4565   6.551   2.458   6.495  0.0322  1.1743  0.0637
   60SAPC   C12 4566   6.652   2.498   6.394 -0.2656  0.2141  0.3964
   60SAPC  H12A 4567   6.740   2.531   6.447 -0.6369  1.1579  0.4313
   60SAPC  H12B 4568   6.612   2.582   6.339 -0.8184  0.1304  0.6671
   60SAPC   C13 4569   6.604   2.359   6.593 -0.2347  0.3173 -0.6570
   60SAPC  H13A 4570   6.521   2.331   6.655 -0.7172 -1.2968 -1.9656
   60SAPC  H13B 4571   6.632   2.266   6.547 -0.8666 -1.1460  1.7695
   60SAPC  H13C 4572   6.689   2.402   6.645  0.2006  0.1894 -1.2405
   60SAPC   C14 4573   6.498   2.576   6.568  0.3381  0.3650 -0.1653
   60SAPC  H14A 4574   6.491   2.659   6.499  0.1224  0.9670  0.5685
   60SAPC  H14B 4575   6.402   2.554   6.612 -0.4485  2.0043 -0.9816
   60SAPC  H14C 4576   6.556   2.612   6.651 -3.6920  0.6410  2.8375
   60SAPC   C15 4577   6.434   2.395   6.422 -0.2612 -0.7224 -0.2792
   60SAPC  H15A 4578   6.471   2.299   6.391  1.8024 -1.0024  2.6602
   60SAPC  H15B 4579   6.345   2.385   6.482  0.4322  2.7785  1.6106
   60SAPC  H15C 4580   6.399   2.463   6.345 -1.7518 -0.3779  0.6402
   60SAPC   C11 4581   6.689   2.391   6.282 -0.0160 -0.0436 -0.3305
   60SAPC  H11A 4582   6.750   2.444   6.206  0.4149  0.4194  0.3294
   60SAPC  H11B 4583   6.598   2.344   6.239 -0.1430 -1.1092  1.0359
   60SAPC     P 4584   6.916   2.285   6.344  0.1030  0.2020 -0.0360
   60SAPC   O13 4585   6.961   2.406   6.413 -0.1359 -0.0370  0.1732
   60SAPC   O14 4586   6.959   2.160   6.412  0.4259 -0.0299 -0.0379
   60SAPC   O12 4587   6.763   2.285   6.342  0.1282  0.5339 -0.4888
   60SAPC   O11 4588   6.960   2.298   6.201 -0.0625  0.0140  0.3300
   60SAPC    C1 4589   6.970   2.190   6.111 -0.2821  0.6288  0.5184
   60SAPC    HA 4590   6.908   2.100   6.130  0.6567 -0.3950 -0.9884
   60SAPC    HB 4591   6.944   2.224   6.008  0.8038 -0.1814 -0.0469
   60SAPC    C2 4592   7.119   2.141   6.095  0.4609  0.1430  0.3032
   60SAPC    HS 4593   7.147   2.099   6.194  0.1054 -1.4160 -0.2323
   60SAPC   O21 4594   7.195   2.248   6.046 -0.9786  0.0421 -0.0387
   60SAPC   C21 4595   7.321   2.259   6.098  0.1470  0.0676  1.1254
   60SAPC   O22 4596   7.360   2.196   6.191 -0.2491 -0.1170 -0.3134
   60SAPC   C22 4597   7.399   2.370   6.021 -0.3135 -0.4785 -0.5115
   60SAPC   H2R 4598   7.356   2.380   5.919 -2.8965  1.3061  0.6409
   60SAPC   H2S 4599   7.388   2.468   6.073  2.5624 -0.7715  0.8624
   60SAPC    C3 4600   7.141   2.018   6.001  0.1482 -0.3047 -0.5813
   60SAPC    HX 4601   7.068   1.942   6.035  0.4535  0.2918  1.5305
   60SAPC    HY 4602   7.242   1.973   6.012  1.3000  1.6326 -2.4712
   60SAPC   O31 4603   7.109   2.041   5.867  0.3248 -0.2563  0.1833
   60SAPC   C31 4604   7.202   2.092   5.784 -0.2272 -0.1397 -0.1375
   60SAPC   O32 4605   7.317   2.128   5.821  0.1811 -0.2825  0.5276
   60SAPC   C32 4606   7.148   2.085   5.651  0.0530 -0.5734 -0.3202
   60SAPC   H2X 4607   7.067   2.161   5.656  1.4114  0.8700  0.3125
   60SAPC   H2Y 4608   7.091   1.993   5.628 -2.2863  0.0712  2.3725
   60SAPC   C23 4609   7.552   2.333   6.007  0.1661  0.2897  0.4035
   60SAPC   H3R 4610   7.571   2.229   5.972  1.3503  0.9049 -0.8866
   60SAPC   H3S 4611   7.609   2.346   6.101  1.8752 -1.5054 -0.3078
   60SAPC   C24 4612   7.629   2.419   5.901  0.5771 -0.2415 -0.1909
   60SAPC   H4R 4613   7.600   2.525   5.916  0.9069 -0.3719  1.7067
   60SAPC   H4S 4614   7.574   2.400   5.807 -2.6289 -0.8221  1.6448
   60SAPC   C25 4615   7.777   2.401   5.897 -0.3538  0.3550 -0.0364
   60SAPC   H5R 4616   7.829   2.412   5.994  0.4954  2.0715 -0.6395
   60SAPC   C26 4617   7.846   2.363   5.790 -0.6593  0.4733  0.8524
   60SAPC   H6R 4618   7.955   2.358   5.803 -0.1459 -0.5833 -2.6851
   60SAPC   C27 4619   7.804   2.335   5.647 -0.2023 -0.5162 -0.1785
   60SAPC   H7R 4620   7.712   2.391   5.620  0.9590  0.6127 -2.0688
   60SAPC   H7S 4621   7.774   2.228   5.641  1.1191 -0.8379 -2.3994
   60SAPC   C28 4622   7.917   2.371   5.544  0.4576 -0.2768 -0.0478
   60SAPC   H8R 4623   8.008   2.417   5.584 -0.5807  0.3494  1.7052
   60SAPC   C29 4624   7.913   2.341   5.415 -0.6808 -0.6456 -0.3020
   60SAPC   H9R 4625   8.003   2.361   5.354 -0.6857  1.0878  0.2102
   60SAPC  C210 4626   7.801   2.277   5.344  0.1223 -0.4803  0.5083
   60SAPC  H10R 4627   7.765   2.363   5.285  2.2508  0.1488  0.0328
   60SAPC  H10S 4628   7.732   2.240   5.423  0.0909 -0.8774  0.3010
   60SAPC  C211 4629   7.833   2.161   5.254 -0.1515 -0.9820 -0.1364
   60SAPC  H11R 4630   7.907   2.090   5.294 -0.1664 -0.1452  1.4701
   60SAPC  C212 4631   7.784   2.140   5.129  0.4642  0.2742 -0.0794
   60SAPC  H12R 4632   7.844   2.063   5.079  1.6318  0.9307  0.2679
   60SAPC  C213 4633   7.685   2.216   5.043  0.4806 -0.0467 -0.1829
   60SAPC  H13R 4634   7.692   2.324   5.071 -0.1367  0.6771 -2.5745
   60SAPC  H13S 4635   7.582   2.179   5.063  0.2651 -0.4457 -1.8772
   60SAPC  C214 4636   7.716   2.201   4.898 -0.2551  0.2351  0.0180
   60SAPC  H14R 4637   7.772   2.288   4.861 -1.6166  2.0423  1.9478
   60SAPC  C215 4638   7.694   2.095   4.818 -0.8674  0.6170  0.3825
   60SAPC  H15R 4639   7.746   2.095   4.721 -0.4280 -1.8167  0.5680
   60SAPC  C216 4640   7.628   1.969   4.855  0.0682 -0.2900 -0.1458
   60SAPC  H16R 4641   7.571   1.985   4.949 -1.0673  0.1325 -0.8826
   60SAPC  H16S 4642   7.704   1.893   4.882 -0.0816 -0.3791  0.0253
   60SAPC  C217 4643   7.528   1.918   4.746 -0.4430 -0.0311 -0.1077
   60SAPC  H17R 4644   7.475   2.001   4.696 -2.0678 -0.3159  1.0510
   60SAPC  H17S 4645   7.442   1.872   4.799 -1.6659  0.8366 -1.2858
   60SAPC  C218 4646   7.590   1.815   4.652 -0.5791 -0.0487 -0.0822
   60SAPC  H18R 4647   7.616   1.726   4.713  0.1590  0.6739  0.6809
   60SAPC  H18S 4648   7.678   1.864   4.606 -2.0055  0.9503 -1.8592
   60SAPC  C219 4649   7.506   1.763   4.536 -0.2193  0.4544 -0.5452
   60SAPC  H19R 4650   7.403   1.732   4.565 -0.9194  1.1361 -2.2120
   60SAPC  H19S 4651   7.560   1.673   4.498 -0.3083  0.4737 -0.7165
   60SAPC  C220 4652   7.489   1.869   4.426  0.0707  0.5600 -0.6325
   60SAPC  H20R 4653   7.409   1.829   4.360 -0.9270 -0.0422  0.8707
   60SAPC  H20S 4654   7.580   1.879   4.364  1.3100  0.3150  1.0779
   60SAPC  H20T 4655   7.463   1.969   4.467  0.8286  0.5887 -0.2220
   60SAPC   C33 4656   7.246   2.114   5.537  0.2297 -0.7678  0.2316
   60SAPC   H3X 4657   7.308   2.200   5.568 -0.2501  0.1744 -1.2845
   60SAPC   H3Y 4658   7.189   2.152   5.449  1.3684  0.9700  0.2021
   60SAPC   C34 4659   7.325   1.989   5.488  0.1700 -0.3105 -0.4673
   60SAPC   H4X 4660   7.329   1.918   5.573  0.2258  2.3137  1.8693
   60SAPC   H4Y 4661   7.425   2.027   5.457 -0.2510 -0.3689 -1.9928
   60SAPC   C35 4662   7.258   1.910   5.369 -0.2558  0.7425 -0.1308
   60SAPC   H5X 4663   7.166   1.870   5.419 -1.0690 -1.3999 -3.0583
   60SAPC   H5Y 4664   7.326   1.827   5.339 -0.4826  0.2531  0.6782
   60SAPC   C36 4665   7.229   1.991   5.245  0.3813  0.1658  0.2697
   60SAPC   H6X 4666   7.307   2.065   5.217 -1.3261  3.4525  3.3698
   60SAPC   H6Y 4667   7.133   2.046   5.256  0.7274  1.3498 -2.0182
   60SAPC   C37 4668   7.203   1.903   5.119 -0.1443  0.1053  0.1597
   60SAPC   H7X 4669   7.113   1.842   5.142 -0.1627 -0.4453 -1.2915
   60SAPC   H7Y 4670   7.289   1.840   5.090  0.3735 -0.7125  3.1174
   60SAPC   C38 4671   7.176   1.988   4.993  0.3964 -0.2825  0.5324
   60SAPC   H8X 4672   7.266   2.048   4.969 -0.4095  1.0037  0.5860
   60SAPC   H8Y 4673   7.103   2.065   5.028  0.9853  0.9799 -0.9163
   60SAPC   C39 4674   7.136   1.904   4.869  0.0781 -0.4462 -0.0563
   60SAPC   H9X 4675   7.109   1.806   4.914  2.9157 -0.5228  1.7055
   60SAPC   H9Y 4676   7.227   1.894   4.807  0.3812  0.3491  0.2478
   60SAPC  C310 4677   7.012   1.958   4.795  0.2367  0.3113 -1.3810
   60SAPC  H10X 4678   7.032   2.065   4.776 -1.3267  1.1701  1.2915
   60SAPC  H10Y 4679   6.925   1.956   4.865  0.4917 -2.0881 -1.0378
   60SAPC  C311 4680   6.979   1.897   4.660  0.1913  0.5478  0.0652
   60SAPC  H11X 4681   6.959   1.788   4.666 -0.8842  0.6730 -0.8472
   60SAPC  H11Y 4682   7.061   1.918   4.588 -0.2856 -0.5129 -0.7994
   60SAPC  C312 4683   6.857   1.942   4.579 -0.0128 -0.0034  0.0937
   60SAPC  H12X 4684   6.868   2.050   4.556  0.0514 -0.0048  0.1187
   60SAPC  H12Y 4685   6.765   1.921   4.638  0.7468 -1.0488  0.9398
   60SAPC  C313 4686   6.853   1.864   4.447  0.3064  0.1747 -0.0541
   60SAPC  H13X 4687   6.866   1.756   4.466 -1.3424 -0.1678 -0.6903
   60SAPC  H13Y 4688   6.935   1.903   4.383 -0.3242  0.9256 -0.4310
   60SAPC  C314 4689   6.732   1.892   4.354  0.4276 -0.4366 -0.5095
   60SAPC  H14X 4690   6.740   1.814   4.276 -0.3711 -1.4171  0.3655
   60SAPC  H14Y 4691   6.729   1.994   4.311 -0.0663  0.2261  1.0067
   60SAPC  C315 4692   6.598   1.857   4.427  0.2453  0.7330  0.4236
   60SAPC  H15X 4693   6.568   1.947   4.485 -0.5756  1.0397 -0.4388
   60SAPC  H15Y 4694   6.592   1.764   4.487  0.4034  1.5381  1.7153
   60SAPC  C316 4695   6.478   1.848   4.332  0.1030 -0.2374  0.5994
   60SAPC  H16X 4696   6.489   1.933   4.262 -0.4715  0.6015  1.4857
   60SAPC  H16Y 4697   6.388   1.857   4.397  1.6161  0.3488  2.7263
   60SAPC  C317 4698   6.467   1.723   4.252 -0.0416  0.5974 -0.4565
   60SAPC  H17X 4699   6.454   1.638   4.322  0.1819  1.3532  0.5307
   60SAPC  H17Y 4700   6.559   1.698   4.196 -1.4089 -3.3796 -1.2082
   60SAPC  C318 4701   6.361   1.731   4.149  0.4693 -1.0006  0.7395
   60SAPC  H18X 4702   6.265   1.739   4.204 -0.8644  0.3712 -1.6369
   60SAPC  H18Y 4703   6.361   1.644   4.081 -1.6190  1.2251 -2.3599
   60SAPC  H18Z 4704   6.373   1.830   4.099 -3.0150 -0.5499  0.5877
   61SAPC     N 4705   6.084   0.809   6.723 -0.3476 -0.1541 -0.6957
   61SAPC   C12 4706   6.076   0.770   6.583 -0.2464 -0.3307  0.4472
   61SAPC  H12A 4707   5.974   0.743   6.559 -0.0436 -1.6256  0.9270
   61SAPC  H12B 4708   6.124   0.677   6.555 -0.4941  0.0910 -1.5152
   61SAPC   C13 4709   6.014   0.716   6.817  0.4846 -0.1980 -0.1229
   61SAPC  H13A 4710   5.907   0.711   6.809  0.2963  0.6682  1.4317
   61SAPC  H13B 4711   6.047   0.614   6.814 -2.6855 -1.3068 -2.2220
   61SAPC  H13C 4712   6.037   0.737   6.921  0.0354 -2.0178  0.3735
   61SAPC   C14 4713   6.230   0.795   6.767 -0.4157 -0.5540 -0.4009
   61SAPC  H14A 4714   6.248   0.689   6.774 -1.9022 -0.8140 -0.3026
   61SAPC  H14B 4715   6.297   0.840   6.695 -0.6138 -2.2475 -1.7183
   61SAPC  H14C 4716   6.234   0.833   6.868  1.7014 -2.1275  0.1612
   61SAPC   C15 4717   6.027   0.951   6.752 -0.3291  0.0602 -0.1166
   61SAPC  H15A 4718   6.053   0.998   6.846  0.3482 -1.0489  0.2597
   61SAPC  H15B 4719   6.063   1.023   6.680 -0.3227  1.0145  0.8115
   61SAPC  H15C 4720   5.920   0.950   6.739 -0.3970 -3.0326  0.0852
   61SAPC   C11 4721   6.135   0.861   6.476  0.0092 -0.1632 -0.4249
   61SAPC  H11A 4722   6.126   0.804   6.381  0.3232  1.4154 -1.4357
   61SAPC  H11B 4723   6.244   0.883   6.480  0.2994 -1.1512 -1.9459
   61SAPC     P 4724   5.917   0.986   6.412 -0.3839 -0.3822 -0.5555
   61SAPC   O13 4725   5.865   0.847   6.401 -0.3129  0.0099  0.1544
   61SAPC   O14 4726   5.836   1.089   6.487 -0.9838  0.4708 -0.0172
   61SAPC   O12 4727   6.065   0.985   6.469 -0.0489 -0.0734  0.1516
   61SAPC   O11 4728   5.945   1.052   6.267  0.2858  0.0913 -0.5685
   61SAPC    C1 4729   5.982   0.968   6.159 -1.1832  0.1646 -0.3987
   61SAPC    HA 4730   6.072   0.912   6.192 -0.5802  1.4914  0.2708
   61SAPC    HB 4731   5.907   0.895   6.123  0.3376 -1.6216 -0.0806
   61SAPC    C2 4732   6.030   1.037   6.028  0.1336 -0.7544  0.2485
   61SAPC    HS 4733   6.059   0.965   5.949  0.5375 -1.5935  1.1379
   61SAPC   O21 4734   6.139   1.132   6.052 -0.6489 -0.1169  0.3137
   61SAPC   C21 4735   6.268   1.072   6.056  0.1734 -0.1427  0.1889
   61SAPC   O22 4736   6.284   0.953   6.033  0.0042  0.0310 -0.4077
   61SAPC   C22 4737   6.373   1.170   6.106 -0.1260  0.7828  0.3225
   61SAPC   H2R 4738   6.411   1.211   6.011 -0.2013 -2.8601 -1.4710
   61SAPC   H2S 4739   6.321   1.239   6.176 -0.6555  0.5922  0.1257
   61SAPC    C3 4740   5.909   1.120   5.963 -0.1262 -0.3494  0.1578
   61SAPC    HX 4741   5.896   1.209   6.029  0.3982  2.2834 -3.0426
   61SAPC    HY 4742   5.819   1.055   5.976  0.3615 -1.1615 -0.4088
   61SAPC   O31 4743   5.939   1.153   5.828 -0.2319 -0.0600 -0.0510
   61SAPC   C31 4744   5.865   1.253   5.789  0.2149 -0.3330  0.7009
   61SAPC   O32 4745   5.770   1.298   5.852  0.5554 -0.3081 -0.3665
   61SAPC   C32 4746   5.914   1.300   5.648  0.2581  0.1649 -0.5163
   61SAPC   H2X 4747   5.897   1.216   5.578 -1.5493 -0.4635  0.6086
   61SAPC   H2Y 4748   6.022   1.325   5.657  0.4598 -0.8209 -0.1103
   61SAPC   C23 4749   6.502   1.095   6.160  0.2884 -0.1156  0.1548
   61SAPC   H3R 4750   6.467   1.009   6.221  0.2441 -0.1871  0.0298
   61SAPC   H3S 4751   6.564   1.157   6.227  0.5753 -0.7715  0.5033
   61SAPC   C24 4752   6.590   1.052   6.045  0.0785  1.1567  0.1331
   61SAPC   H4R 4753   6.535   0.983   5.977 -0.6391  1.4894  0.3644
   61SAPC   H4S 4754   6.668   0.983   6.085  0.0022  0.9305 -0.1057
   61SAPC   C25 4755   6.673   1.161   5.976  0.2698 -0.1919 -0.2176
   61SAPC   H5R 4756   6.770   1.185   6.022  0.9233 -1.1539 -1.0189
   61SAPC   C26 4757   6.650   1.214   5.855  0.9188  0.0052  0.2444
   61SAPC   H6R 4758   6.715   1.299   5.832  0.5042 -0.0183 -1.1590
   61SAPC   C27 4759   6.524   1.191   5.764 -0.0782 -0.5252  0.6676
   61SAPC   H7R 4760   6.461   1.281   5.782 -0.6041 -0.6388 -0.4764
   61SAPC   H7S 4761   6.459   1.103   5.785 -1.7730 -0.4768 -3.3381
   61SAPC   C28 4762   6.553   1.179   5.617 -0.0422  0.3737 -0.3373
   61SAPC   H8R 4763   6.658   1.193   5.586  0.0489  1.1480  0.2881
   61SAPC   C29 4764   6.460   1.167   5.516 -1.0920 -0.2502  0.6103
   61SAPC   H9R 4765   6.493   1.176   5.411  2.8132  0.0907  1.7398
   61SAPC  C210 4766   6.310   1.157   5.533 -0.0933  0.9196 -0.4749
   61SAPC  H10R 4767   6.254   1.252   5.530  0.5314  1.3179  0.0767
   61SAPC  H10S 4768   6.289   1.126   5.638  0.5463  2.1258  0.0278
   61SAPC  C211 4769   6.248   1.047   5.451 -0.0430 -0.1131 -0.4487
   61SAPC  H11R 4770   6.284   0.944   5.464  1.6495  0.7592  3.0702
   61SAPC  C212 4771   6.146   1.059   5.365  0.3176  0.4025  0.7256
   61SAPC  H12R 4772   6.116   0.972   5.305  0.7064  1.4041 -1.0074
   61SAPC  C213 4773   6.062   1.178   5.334  0.2194 -0.2984 -0.5337
   61SAPC  H13R 4774   6.054   1.233   5.430  2.0920  0.6588 -0.8785
   61SAPC  H13S 4775   5.957   1.149   5.311 -0.2230  1.9365 -1.5786
   61SAPC  C214 4776   6.119   1.261   5.223 -0.2736  1.2005  0.0481
   61SAPC  H14R 4777   6.177   1.345   5.264  0.1733 -0.0138  2.0456
   61SAPC  C215 4778   6.128   1.221   5.091 -0.5275 -0.8012 -0.3358
   61SAPC  H15R 4779   6.173   1.293   5.021 -2.2860  1.0704  0.3631
   61SAPC  C216 4780   6.070   1.093   5.042  0.6760  0.0737  0.3843
   61SAPC  H16R 4781   6.017   1.030   5.116 -0.7467 -0.1085 -0.7352
   61SAPC  H16S 4782   6.159   1.036   5.008  0.4721  0.1944 -0.3891
   61SAPC  C217 4783   5.977   1.125   4.929  0.5066  0.2182 -0.4146
   61SAPC  H17R 4784   6.016   1.186   4.845  0.8314  0.1073 -0.3426
   61SAPC  H17S 4785   5.885   1.172   4.972  1.2313 -1.0980  2.8386
   61SAPC  C218 4786   5.914   0.996   4.867  0.3395 -0.6065 -0.2280
   61SAPC  H18R 4787   5.871   1.027   4.769  0.0346  0.5754  0.2583
   61SAPC  H18S 4788   5.841   0.967   4.946 -1.8311  2.5487 -0.8898
   61SAPC  C219 4789   6.014   0.886   4.840  0.7047  0.4688 -0.0985
   61SAPC  H19R 4790   6.052   0.845   4.936  1.8484  1.3783 -0.1415
   61SAPC  H19S 4791   6.105   0.915   4.783  0.6652 -0.9139 -0.9260
   61SAPC  C220 4792   5.953   0.772   4.762 -0.0478  0.6484  0.0403
   61SAPC  H20R 4793   5.926   0.806   4.660  0.6367  4.7361  1.0291
   61SAPC  H20S 4794   5.856   0.741   4.807  1.1562  0.4851  2.6791
   61SAPC  H20T 4795   6.021   0.685   4.750  1.7747  1.9648  0.4239
   61SAPC   C33 4796   5.824   1.423   5.610  0.6720  0.8374  0.2662
   61SAPC   H3X 4797   5.837   1.501   5.688 -0.6204  0.8238  0.5099
   61SAPC   H3Y 4798   5.718   1.389   5.613  1.4457 -1.7287  2.4433
   61SAPC   C34 4799   5.845   1.488   5.468  0.0010  0.7658  0.0118
   61SAPC   H4X 4800   5.860   1.397   5.405  1.2130  1.2539 -0.4462
   61SAPC   H4Y 4801   5.940   1.545   5.471 -0.1700  1.0437  0.1641
   61SAPC   C35 4802   5.723   1.569   5.418  0.1370 -0.3599  0.3853
   61SAPC   H5X 4803   5.715   1.657   5.485  0.2596  1.0544 -1.3635
   61SAPC   H5Y 4804   5.632   1.506   5.429  0.1298 -0.1474  1.5853
   61SAPC   C36 4805   5.732   1.615   5.275  1.1090  0.1060 -0.1016
   61SAPC   H6X 4806   5.797   1.704   5.260  0.2508  0.7351 -0.1603
   61SAPC   H6Y 4807   5.627   1.643   5.251  0.7832 -2.3079 -1.8456
   61SAPC   C37 4808   5.765   1.502   5.173  0.4428  0.3805 -0.8673
   61SAPC   H7X 4809   5.691   1.420   5.183 -0.7721  1.4106 -1.1664
   61SAPC   H7Y 4810   5.867   1.464   5.195 -0.5597 -1.2449  1.3552
   61SAPC   C38 4811   5.758   1.554   5.028  0.5580 -0.4131 -0.1782
   61SAPC   H8X 4812   5.774   1.467   4.961  1.4820 -0.3413 -0.0596
   61SAPC   H8Y 4813   5.833   1.633   5.004 -2.2642  1.9619 -1.8740
   61SAPC   C39 4814   5.612   1.602   4.988 -0.1062  0.2593 -0.4349
   61SAPC   H9X 4815   5.590   1.700   5.035 -1.4573 -0.6037  0.8266
   61SAPC   H9Y 4816   5.533   1.529   5.016  0.1506  0.2939  0.4139
   61SAPC  C310 4817   5.598   1.619   4.835 -0.0915  0.1859  0.4116
   61SAPC  H10X 4818   5.606   1.523   4.780  0.8709  0.9023 -0.7578
   61SAPC  H10Y 4819   5.680   1.687   4.803 -0.2131  0.0989 -0.0941
   61SAPC  C311 4820   5.461   1.680   4.789  0.3597 -0.1558  0.3530
   61SAPC  H11X 4821   5.474   1.789   4.807  0.1211 -0.0881  0.1196
   61SAPC  H11Y 4822   5.384   1.647   4.863 -0.9901  2.1373  0.0950
   61SAPC  C312 4823   5.422   1.650   4.647 -0.7178 -0.2213  0.0529
   61SAPC  H12X 4824   5.461   1.547   4.631 -1.4604 -0.6578  0.9556
   61SAPC  H12Y 4825   5.475   1.721   4.579  0.1130  0.8658  1.7836
   61SAPC  C313 4826   5.274   1.661   4.620  0.1636  0.3747 -0.7484
   61SAPC  H13X 4827   5.224   1.579   4.674  2.3058 -0.1943  0.5179
   61SAPC  H13Y 4828   5.269   1.663   4.509  0.8443 -1.5759 -0.8486
   61SAPC  C314 4829   5.207   1.791   4.667 -0.3891  0.4742  0.3436
   61SAPC  H14X 4830   5.265   1.877   4.629  1.6157 -1.4860 -1.3123
   61SAPC  H14Y 4831   5.195   1.785   4.777 -2.5338 -0.3411  0.1259
   61SAPC  C315 4832   5.051   1.800   4.623 -0.0386  0.2044 -0.5550
   61SAPC  H15X 4833   5.000   1.876   4.686 -2.6971  0.9500 -3.3603
   61SAPC  H15Y 4834   5.005   1.700   4.615  1.7119 -0.6666 -0.2258
   61SAPC  C316 4835   5.051   1.854   4.480  0.1211  0.4250  0.1005
   61SAPC  H16X 4836   5.101   1.782   4.412  0.3502  0.9570 -0.3071
   61SAPC  H16Y 4837   5.111   1.948   4.485  0.0195  0.4921  0.0559
   61SAPC  C317 4838   4.917   1.881   4.415 -0.1923 -0.0827  0.3807
   61SAPC  H17X 4839   4.946   1.930   4.319 -1.3140 -1.0250 -0.4720
   61SAPC  H17Y 4840   4.874   1.963   4.476 -1.7017 -2.5768  2.9365
   61SAPC  C318 4841   4.817   1.764   4.409  0.0036 -0.0319  0.2806
   61SAPC  H18X 4842   4.814   1.709   4.506  0.0849  1.1440  0.9706
   61SAPC  H18Y 4843   4.833   1.708   4.314  0.0573  2.4265 -1.2301
   61SAPC  H18Z 4844   4.715   1.803   4.390  0.6955  1.6587 -0.1037
   62SAPC     N 4845   5.739   4.734   6.591  0.1010 -0.8030 -0.1993
   62SAPC   C12 4846   5.702   4.842   6.489 -0.3915 -0.1480  0.4660
   62SAPC  H12A 4847   5.635   4.791   6.421 -0.2423  0.0148  0.1923
   62SAPC  H12B 4848   5.791   4.871   6.435  0.8872 -0.9950  2.0330
   62SAPC   C13 4849   5.869   4.767   6.670  0.4213  0.8418 -0.8061
   62SAPC  H13A 4850   5.889   4.684   6.736 -0.6332  1.2997  0.1186
   62SAPC  H13B 4851   5.954   4.767   6.603 -1.3487  0.8779 -3.1492
   62SAPC  H13C 4852   5.863   4.860   6.725 -3.1214  1.1498 -1.4778
   62SAPC   C14 4853   5.622   4.715   6.684  0.7374 -0.0995 -1.0135
   62SAPC  H14A 4854   5.529   4.728   6.630  1.0750  0.3786 -1.4945
   62SAPC  H14B 4855   5.620   4.621   6.737 -2.4321 -0.3268 -1.3474
   62SAPC  H14C 4856   5.618   4.795   6.757 -0.0281 -0.4144 -0.7088
   62SAPC   C15 4857   5.769   4.610   6.509 -0.1463 -0.7517 -0.5650
   62SAPC  H15A 4858   5.833   4.646   6.430 -1.5971  2.9335 -0.2479
   62SAPC  H15B 4859   5.824   4.549   6.578 -0.2086  0.1876  0.3392
   62SAPC  H15C 4860   5.678   4.573   6.463 -2.0087  0.8166  1.5978
   62SAPC   C11 4861   5.638   4.976   6.531 -0.0050  0.1312  0.6171
   62SAPC  H11A 4862   5.542   4.955   6.584  1.2008 -0.6305  2.6139
   62SAPC  H11B 4863   5.617   5.034   6.438 -1.5942  1.3814  1.7104
   62SAPC     P 4864   5.818   5.146   6.589  0.3433  0.0341  0.3281
   62SAPC   O13 4865   5.764   5.285   6.607  0.3545 -0.0951 -0.1729
   62SAPC   O14 4866   5.937   5.106   6.670  0.1946 -0.0964 -0.4960
   62SAPC   O12 4867   5.714   5.042   6.626 -0.0142  0.3413 -0.6743
   62SAPC   O11 4868   5.849   5.126   6.431  0.8657  0.5886  0.4491
   62SAPC    C1 4869   5.925   5.229   6.357 -0.0587 -0.1977  0.1505
   62SAPC    HA 4870   5.890   5.331   6.384  1.0006 -0.5440  3.3108
   62SAPC    HB 4871   6.031   5.230   6.393  0.2363  2.7071 -0.5462
   62SAPC    C2 4872   5.941   5.205   6.200  0.7186 -0.3812 -0.2173
   62SAPC    HS 4873   6.036   5.251   6.165  3.1049 -1.2431  4.3131
   62SAPC   O21 4874   5.828   5.263   6.123 -0.6862  0.0627 -0.4117
   62SAPC   C21 4875   5.833   5.398   6.113 -0.0536  0.3976  0.1080
   62SAPC   O22 4876   5.909   5.469   6.173  0.2115 -0.0025 -0.0036
   62SAPC   C22 4877   5.719   5.448   6.019  0.2678  0.2506  0.4009
   62SAPC   H2R 4878   5.678   5.360   5.965 -2.1176  0.7512  1.2543
   62SAPC   H2S 4879   5.627   5.471   6.077 -1.0870 -0.0176 -1.5160
   62SAPC    C3 4880   5.964   5.050   6.167  0.0605 -0.3477  0.2490
   62SAPC    HX 4881   5.908   4.990   6.241 -2.3935  0.5232 -0.7956
   62SAPC    HY 4882   6.068   5.022   6.192  0.4813 -1.2267 -2.2009
   62SAPC   O31 4883   5.940   5.021   6.025 -0.2820  0.2693 -0.2724
   62SAPC   C31 4884   5.816   5.006   5.998  0.1401 -0.0203  0.6642
   62SAPC   O32 4885   5.725   5.000   6.084  0.1140  0.0798 -0.3031
   62SAPC   C32 4886   5.795   4.972   5.847 -0.1944  0.1171  0.0983
   62SAPC   H2X 4887   5.706   4.905   5.843 -1.2539  1.1864  3.2058
   62SAPC   H2Y 4888   5.886   4.922   5.807  0.2283 -1.3779  2.6816
   62SAPC   C23 4889   5.754   5.547   5.906  0.7351  0.0190  0.1730
   62SAPC   H3R 4890   5.664   5.555   5.841  0.0140  0.1537  1.1480
   62SAPC   H3S 4891   5.826   5.515   5.828 -0.8941 -3.2686 -0.1534
   62SAPC   C24 4892   5.772   5.683   5.962 -0.8377 -0.6417  0.6253
   62SAPC   H4R 4893   5.799   5.744   5.873  0.6438  0.2470  1.6585
   62SAPC   H4S 4894   5.869   5.671   6.015 -0.3865  0.8605  0.1687
   62SAPC   C25 4895   5.658   5.740   6.043 -0.1403 -0.4257  0.4697
   62SAPC   H5R 4896   5.647   5.707   6.148 -3.2005  2.4797  1.2263
   62SAPC   C26 4897   5.563   5.814   5.994 -0.2302 -0.0511  0.2190
   62SAPC   H6R 4898   5.488   5.845   6.070  2.7541 -1.4729  4.0736
   62SAPC   C27 4899   5.549   5.861   5.856  0.2527  0.1363 -1.5785
   62SAPC   H7R 4900   5.648   5.892   5.814  0.2929  2.1362 -0.1711
   62SAPC   H7S 4901   5.508   5.964   5.866 -1.2642 -0.6643  2.1018
   62SAPC   C28 4902   5.463   5.771   5.769 -0.4714 -0.4225  0.1081
   62SAPC   H8R 4903   5.422   5.677   5.808  1.5818 -0.9500  1.1411
   62SAPC   C29 4904   5.407   5.812   5.655  0.4240  0.3075 -0.7311
   62SAPC   H9R 4905   5.355   5.736   5.595  1.0994  1.6159 -3.1109
   62SAPC  C210 4906   5.441   5.940   5.582  0.2818 -0.2421  0.2767
   62SAPC  H10R 4907   5.483   5.914   5.483 -2.6947 -2.3515 -0.5790
   62SAPC  H10S 4908   5.524   5.994   5.632  1.0118  0.2203 -1.3640
   62SAPC  C211 4909   5.327   6.039   5.580 -0.4701  0.2698 -0.2189
   62SAPC  H11R 4910   5.271   6.055   5.674 -0.9746 -3.0316  0.1634
   62SAPC  C212 4911   5.278   6.093   5.467  0.2404 -1.0171  0.9334
   62SAPC  H12R 4912   5.198   6.167   5.482  1.4678  0.6908 -0.5220
   62SAPC  C213 4913   5.329   6.079   5.328 -0.5620  0.1025  0.5500
   62SAPC  H13R 4914   5.280   5.987   5.290 -2.2779  1.7241 -1.3376
   62SAPC  H13S 4915   5.439   6.064   5.329 -0.6086 -0.2570  0.8102
   62SAPC  C214 4916   5.284   6.198   5.244 -0.1690  0.1422 -0.4309
   62SAPC  H14R 4917   5.188   6.247   5.267  1.6811  3.8067  0.1904
   62SAPC  C215 4918   5.353   6.266   5.154  0.6714 -0.1413  0.1581
   62SAPC  H15R 4919   5.314   6.352   5.098  0.4355 -2.2759 -3.2707
   62SAPC  C216 4920   5.485   6.223   5.101 -0.7529  0.0632 -0.1441
   62SAPC  H16R 4921   5.537   6.146   5.162  2.2956  2.5252  0.6347
   62SAPC  H16S 4922   5.562   6.301   5.118 -0.1795 -0.7101  0.9686
   62SAPC  C217 4923   5.472   6.166   4.962 -0.0775 -0.3103 -0.4194
   62SAPC  H17R 4924   5.444   6.058   4.970 -0.4355 -0.2251 -0.5095
   62SAPC  H17S 4925   5.571   6.168   4.914  0.0773 -0.2474 -0.1005
   62SAPC  C218 4926   5.372   6.216   4.865  0.0051  0.0046 -0.0859
   62SAPC  H18R 4927   5.382   6.325   4.849 -1.1984  0.0819 -0.4312
   62SAPC  H18S 4928   5.266   6.202   4.894 -0.8339  0.8994 -2.4885
   62SAPC  C219 4929   5.390   6.162   4.720 -0.3429  0.3900  0.6867
   62SAPC  H19R 4930   5.491   6.184   4.679  0.5248 -3.4044  0.3607
   62SAPC  H19S 4931   5.317   6.212   4.652 -0.2760  0.3384  0.5760
   62SAPC  C220 4932   5.378   6.006   4.706  0.2608 -0.3930  0.2991
   62SAPC  H20R 4933   5.273   5.980   4.732  0.1377  0.1197  0.3267
   62SAPC  H20S 4934   5.437   5.957   4.786 -1.4233 -1.1600  1.1318
   62SAPC  H20T 4935   5.394   5.980   4.599  1.3686 -0.0442  0.3669
   62SAPC   C33 4936   5.762   5.093   5.760 -0.1610 -0.8151  0.3398
   62SAPC   H3X 4937   5.771   5.069   5.651 -3.5432  0.8117 -0.4341
   62SAPC   H3Y 4938   5.830   5.179   5.772 -1.5962  0.4107 -0.0628
   62SAPC   C34 4939   5.617   5.133   5.765 -0.0113 -0.4209  0.0931
   62SAPC   H4X 4940   5.613   5.207   5.848  2.4206 -0.4118  0.2568
   62SAPC   H4Y 4941   5.558   5.041   5.788 -1.2031 -0.0864 -1.4424
   62SAPC   C35 4942   5.570   5.214   5.646  0.1688  0.2693 -0.1525
   62SAPC   H5X 4943   5.573   5.171   5.543 -1.0395  0.4581 -0.2826
   62SAPC   H5Y 4944   5.637   5.300   5.627 -0.2954  0.6291 -0.1642
   62SAPC   C36 4945   5.428   5.273   5.668  0.0094  0.1185 -0.5684
   62SAPC   H6X 4946   5.439   5.348   5.749  3.0064 -0.2674 -0.5018
   62SAPC   H6Y 4947   5.357   5.192   5.694  1.9369 -2.5201 -2.9778
   62SAPC   C37 4948   5.364   5.345   5.545 -0.1305  0.1428 -0.5493
   62SAPC   H7X 4949   5.376   5.280   5.455 -2.0926  0.9366 -1.4437
   62SAPC   H7Y 4950   5.426   5.435   5.528  1.3469 -0.8084 -0.4295
   62SAPC   C38 4951   5.218   5.363   5.571 -0.6037  0.1331  0.0082
   62SAPC   H8X 4952   5.198   5.401   5.673 -3.8188 -4.7808  1.5853
   62SAPC   H8Y 4953   5.159   5.269   5.564 -0.4598  0.0149  0.3855
   62SAPC   C39 4954   5.151   5.455   5.462 -0.0430  0.2290  0.4141
   62SAPC   H9X 4955   5.222   5.538   5.443  2.4808 -2.1909 -1.4707
   62SAPC   H9Y 4956   5.057   5.500   5.502 -0.4638 -1.4254  1.3784
   62SAPC  C310 4957   5.124   5.394   5.318  0.8447  0.2589 -0.0433
   62SAPC  H10X 4958   5.062   5.302   5.324  0.6115  0.4422  0.4536
   62SAPC  H10Y 4959   5.219   5.357   5.275  0.4035 -0.1136 -0.7160
   62SAPC  C311 4960   5.041   5.476   5.219  0.1932  0.1066  1.1343
   62SAPC  H11X 4961   4.953   5.515   5.274 -1.3982 -0.5062 -0.8590
   62SAPC  H11Y 4962   5.007   5.404   5.142  1.1160 -0.2618  1.0581
   62SAPC  C312 4963   5.112   5.590   5.146 -0.3250  0.5308 -0.7534
   62SAPC  H12X 4964   5.147   5.674   5.211 -3.9518  0.3615  1.7419
   62SAPC  H12Y 4965   5.039   5.628   5.072 -0.0232  0.1293 -1.2566
   62SAPC  C313 4966   5.245   5.544   5.084  0.3372  0.3533  0.1601
   62SAPC  H13X 4967   5.216   5.442   5.049  1.1150 -0.2718  1.2583
   62SAPC  H13Y 4968   5.326   5.539   5.160  0.7868  0.6274 -0.2948
   62SAPC  C314 4969   5.308   5.635   4.972 -0.0187  0.4413  0.5876
   62SAPC  H14X 4970   5.314   5.741   5.004 -2.8304  1.1843 -1.0050
   62SAPC  H14Y 4971   5.231   5.653   4.894  1.4015 -0.1012 -1.0021
   62SAPC  C315 4972   5.435   5.577   4.905  0.2191  0.5680  0.1151
   62SAPC  H15X 4973   5.510   5.560   4.985 -0.1722 -1.8029  0.0366
   62SAPC  H15Y 4974   5.477   5.658   4.840  1.8719 -1.2182 -1.1555
   62SAPC  C316 4975   5.411   5.468   4.806 -0.1859 -0.5041 -1.2794
   62SAPC  H16X 4976   5.342   5.512   4.730  1.0709 -1.7546 -3.2283
   62SAPC  H16Y 4977   5.362   5.387   4.863  0.5451  0.5362  0.9437
   62SAPC  C317 4978   5.549   5.408   4.747  0.3822 -0.1878  0.1778
   62SAPC  H17X 4979   5.599   5.488   4.690 -0.4700  0.1374 -0.1243
   62SAPC  H17Y 4980   5.524   5.328   4.674 -0.1125 -1.7495  1.9500
   62SAPC  C318 4981   5.656   5.363   4.845 -0.5386 -0.1596 -0.0967
   62SAPC  H18X 4982   5.681   5.456   4.900 -3.1495  0.3055  0.4300
   62SAPC  H18Y 4983   5.749   5.339   4.789  0.2079  1.2125  0.5018
   62SAPC  H18Z 4984   5.634   5.283   4.918 -1.1994  0.0088 -0.1081
   63SAPC     N 4985   5.955   3.078   6.658 -0.1392 -0.5386  0.2533
   63SAPC   C12 4986   5.833   3.009   6.595 -0.0458  0.1927  0.3134
   63SAPC  H12A 4987   5.878   2.938   6.527 -0.4101  0.4741 -0.2330
   63SAPC  H12B 4988   5.777   3.078   6.533  0.0156 -0.3142 -0.3299
   63SAPC   C13 4989   6.052   3.123   6.550  0.3326 -0.4753  0.5158
   63SAPC  H13A 4990   6.107   3.045   6.500  1.0040  0.4641 -0.2675
   63SAPC  H13B 4991   5.995   3.174   6.473  0.3328 -0.1673  0.7183
   63SAPC  H13C 4992   6.116   3.203   6.583  2.8046  0.1099 -4.6674
   63SAPC   C14 4993   5.895   3.202   6.728  0.3238  1.2449  0.2663
   63SAPC  H14A 4994   5.980   3.253   6.771  0.7683 -1.0284  2.2922
   63SAPC  H14B 4995   5.841   3.263   6.656  0.4640 -0.4672 -1.3450
   63SAPC  H14C 4996   5.821   3.177   6.803 -0.5532 -2.9060 -1.7098
   63SAPC   C15 4997   6.031   3.000   6.760  0.1978  0.1822  1.0065
   63SAPC  H15A 4998   5.975   2.978   6.850 -0.5196  1.9007  1.0052
   63SAPC  H15B 4999   6.072   2.909   6.719 -0.4771  0.2019  0.2602
   63SAPC  H15C 5000   6.119   3.058   6.782  0.6196  0.9926 -2.3775
   63SAPC   C11 5001   5.736   2.945   6.691 -0.1790  0.5779  0.7106
   63SAPC  H11A 5002   5.635   2.945   6.647 -0.5122  2.0361  1.4361
   63SAPC  H11B 5003   5.741   3.011   6.780  3.8635  1.5585 -0.0285
   63SAPC     P 5004   5.684   2.703   6.758 -0.5967  0.1966  0.2118
   63SAPC   O13 5005   5.763   2.591   6.820 -0.3522  0.5905  1.0911
   63SAPC   O14 5006   5.570   2.758   6.834 -0.3389  0.2233  0.2799
   63SAPC   O12 5007   5.788   2.820   6.731  0.0556  0.1240  0.7052
   63SAPC   O11 5008   5.633   2.669   6.605 -0.1917 -0.2780 -0.2448
   63SAPC    C1 5009   5.734   2.660   6.503 -0.2228 -0.3121 -0.3049
   63SAPC    HA 5010   5.804   2.746   6.515 -1.4772  0.4447  2.5374
   63SAPC    HB 5011   5.783   2.562   6.488 -0.4498 -0.0732 -3.1696
   63SAPC    C2 5012   5.664   2.695   6.371 -0.7527 -0.5580  0.1308
   63SAPC    HS 5013   5.586   2.620   6.347 -1.6640  1.0326 -2.1903
   63SAPC   O21 5014   5.754   2.699   6.261  0.4030  0.0145 -0.4412
   63SAPC   C21 5015   5.787   2.585   6.204 -0.1332  0.1497 -0.3507
   63SAPC   O22 5016   5.756   2.477   6.253 -0.1002 -0.0190  0.1910
   63SAPC   C22 5017   5.872   2.614   6.086  0.0663 -0.1475  0.1259
   63SAPC   H2R 5018   5.807   2.673   6.017 -0.7501 -1.1873 -0.0220
   63SAPC   H2S 5019   5.962   2.673   6.114 -0.9606  2.0247 -0.8693
   63SAPC    C3 5020   5.582   2.829   6.384  0.9062 -0.2693  0.0950
   63SAPC    HX 5021   5.656   2.905   6.418  0.1431  0.6602 -0.2791
   63SAPC    HY 5022   5.514   2.811   6.470 -0.4092  1.2837 -0.5633
   63SAPC   O31 5023   5.511   2.861   6.257  0.3453  0.1106 -0.3941
   63SAPC   C31 5024   5.573   2.959   6.186 -0.3443  0.2222 -0.3183
   63SAPC   O32 5025   5.686   2.996   6.212 -0.3363  0.0607 -0.7523
   63SAPC   C32 5026   5.486   3.010   6.073 -0.0106 -0.3119 -0.3484
   63SAPC   H2X 5027   5.463   3.117   6.090  3.2757  0.8259 -2.2284
   63SAPC   H2Y 5028   5.392   2.950   6.068 -0.8649  1.0409 -1.2492
   63SAPC   C23 5029   5.906   2.486   6.004 -0.2422 -0.4939  0.2520
   63SAPC   H3R 5030   5.808   2.438   5.984 -0.9803  1.3653 -0.8380
   63SAPC   H3S 5031   5.952   2.401   6.060 -0.0522 -1.6444 -1.5675
   63SAPC   C24 5032   5.993   2.515   5.877  0.6851 -0.5496  1.2793
   63SAPC   H4R 5033   6.093   2.548   5.911  0.3565  0.7039  1.0590
   63SAPC   H4S 5034   5.946   2.601   5.824 -1.7923 -1.0167  2.5312
   63SAPC   C25 5035   6.008   2.392   5.790 -0.2112 -0.3909 -0.5813
   63SAPC   H5R 5036   6.048   2.309   5.849  2.7624  0.9951 -0.4751
   63SAPC   C26 5037   5.980   2.385   5.657 -0.2685  0.1789 -0.0400
   63SAPC   H6R 5038   6.015   2.293   5.609  0.4570  0.7676 -0.6736
   63SAPC   C27 5039   5.920   2.497   5.572 -0.8041  0.4231  0.0696
   63SAPC   H7R 5040   5.973   2.590   5.601  2.1665 -1.5142  1.4530
   63SAPC   H7S 5041   5.818   2.514   5.610 -0.6381 -1.0168  1.2731
   63SAPC   C28 5042   5.916   2.443   5.432  0.3382 -0.0423  0.6883
   63SAPC   H8R 5043   5.901   2.334   5.429  0.0875  0.0040  0.0723
   63SAPC   C29 5044   5.918   2.520   5.320  0.3541 -0.2682  0.7021
   63SAPC   H9R 5045   5.932   2.478   5.219  0.7556 -0.1947  0.7239
   63SAPC  C210 5046   5.906   2.668   5.338  0.1965 -0.1949  0.1561
   63SAPC  H10R 5047   5.968   2.714   5.419 -0.9240  0.1135  0.8666
   63SAPC  H10S 5048   5.802   2.701   5.357 -1.0773 -0.3083 -5.1316
   63SAPC  C211 5049   5.945   2.757   5.218 -0.3448 -0.1472 -0.1457
   63SAPC  H11R 5050   5.859   2.778   5.153 -0.9257 -3.1503 -0.4878
   63SAPC  C212 5051   6.069   2.805   5.189 -0.0856 -0.0228 -0.5357
   63SAPC  H12R 5052   6.104   2.857   5.099  1.8090  0.8578  0.6464
   63SAPC  C213 5053   6.192   2.768   5.269  1.0351 -0.3173 -0.0589
   63SAPC  H13R 5054   6.264   2.710   5.209  0.3115 -0.2832 -0.9732
   63SAPC  H13S 5055   6.167   2.696   5.350 -2.5481  0.7527 -0.0628
   63SAPC  C214 5056   6.250   2.887   5.338 -0.3973  0.9493  0.5005
   63SAPC  H14R 5057   6.174   2.956   5.379 -1.3196  0.0370  0.3845
   63SAPC  C215 5058   6.382   2.924   5.358  0.0321  0.4771  0.6149
   63SAPC  H15R 5059   6.409   3.006   5.426  0.1397  0.6463  0.3710
   63SAPC  C216 5060   6.498   2.835   5.320 -0.1298 -0.3293  0.2294
   63SAPC  H16R 5061   6.466   2.759   5.245 -2.7777 -1.1615  2.0486
   63SAPC  H16S 5062   6.527   2.778   5.411  2.2712  1.6177  0.7794
   63SAPC  C217 5063   6.621   2.919   5.275 -0.0967 -0.3342 -0.1879
   63SAPC  H17R 5064   6.715   2.861   5.283  0.1526  0.1978  0.9342
   63SAPC  H17S 5065   6.618   3.006   5.344  1.1140 -0.0653 -0.4571
   63SAPC  C218 5066   6.604   2.972   5.128  0.1468 -0.2091  0.4053
   63SAPC  H18R 5067   6.663   3.066   5.127  0.4605 -0.3365  2.3720
   63SAPC  H18S 5068   6.496   2.999   5.121  0.0934 -0.0066  1.7852
   63SAPC  C219 5069   6.669   2.881   5.027  0.6696 -1.1918 -0.1985
   63SAPC  H19R 5070   6.600   2.795   5.033 -0.8091  0.0274  1.1689
   63SAPC  H19S 5071   6.765   2.844   5.070  0.0982 -1.2281  1.0965
   63SAPC  C220 5072   6.686   2.948   4.894 -0.6226 -0.0259  0.6928
   63SAPC  H20R 5073   6.739   3.045   4.887 -2.2346  1.0402  2.5844
   63SAPC  H20S 5074   6.600   2.971   4.827  0.2688  0.1773 -0.4213
   63SAPC  H20T 5075   6.747   2.879   4.831 -2.3281 -1.9460  1.0271
   63SAPC   C33 5076   5.562   2.996   5.942  1.0442 -0.6299 -0.0303
   63SAPC   H3X 5077   5.671   3.020   5.949  0.7284  1.4394 -1.3522
   63SAPC   H3Y 5078   5.538   3.078   5.871  0.9194 -0.6039  0.0425
   63SAPC   C34 5079   5.548   2.861   5.878 -0.1899 -0.5363  0.5472
   63SAPC   H4X 5080   5.444   2.822   5.881  0.5285 -2.6573 -0.2004
   63SAPC   H4Y 5081   5.592   2.788   5.949  0.9251 -0.1197  0.3102
   63SAPC   C35 5082   5.602   2.847   5.735  0.2610 -0.4966 -0.2807
   63SAPC   H5X 5083   5.583   2.744   5.696  3.6507 -0.4511 -2.4773
   63SAPC   H5Y 5084   5.713   2.854   5.731  0.4583 -3.1064 -1.5852
   63SAPC   C36 5085   5.538   2.931   5.623 -0.4575  0.4364  0.2132
   63SAPC   H6X 5086   5.553   3.039   5.642  0.8616  0.8293 -2.5050
   63SAPC   H6Y 5087   5.428   2.924   5.615 -0.8076  3.8179  0.4669
   63SAPC   C37 5088   5.594   2.908   5.490 -0.2539  0.3921  0.3122
   63SAPC   H7X 5089   5.591   2.799   5.473  0.3868  0.6432 -1.6845
   63SAPC   H7Y 5090   5.704   2.928   5.485 -0.4469  1.1902 -2.8317
   63SAPC   C38 5091   5.525   2.980   5.380  0.3664 -0.8499  0.0886
   63SAPC   H8X 5092   5.536   3.090   5.392 -1.4138 -0.5573 -0.6187
   63SAPC   H8Y 5093   5.414   2.969   5.379  0.3733 -0.8798 -0.2204
   63SAPC   C39 5094   5.588   2.942   5.250  0.3575 -0.2634 -0.5620
   63SAPC   H9X 5095   5.588   2.833   5.231  2.7513 -0.1424 -1.4803
   63SAPC   H9Y 5096   5.696   2.963   5.259  0.2263  0.7400 -1.1882
   63SAPC  C310 5097   5.524   3.014   5.134  0.5229  0.4275  0.3864
   63SAPC  H10X 5098   5.414   3.004   5.138  0.4460  0.6860 -0.6939
   63SAPC  H10Y 5099   5.552   2.964   5.039  1.4570 -0.1009  0.9241
   63SAPC  C311 5100   5.563   3.163   5.122 -0.0640  0.9982 -0.3922
   63SAPC  H11X 5101   5.664   3.185   5.082  1.1263  1.3571  2.5986
   63SAPC  H11Y 5102   5.558   3.214   5.220 -0.2243  0.9109 -0.3533
   63SAPC  C312 5103   5.460   3.220   5.023  0.4657  0.1925  0.4205
   63SAPC  H12X 5104   5.450   3.324   5.058 -1.6628  0.2293 -0.1355
   63SAPC  H12Y 5105   5.361   3.168   5.028  1.1541 -1.4166 -1.3378
   63SAPC  C313 5106   5.514   3.232   4.878  0.2699  0.1053  0.6414
   63SAPC  H13X 5107   5.557   3.138   4.837  0.2317  0.1112  0.5882
   63SAPC  H13Y 5108   5.599   3.304   4.881 -0.0709  0.5082  0.7003
   63SAPC  C314 5109   5.417   3.271   4.772  0.4349 -0.0360 -0.2500
   63SAPC  H14X 5110   5.342   3.189   4.770 -0.6236  0.9023 -1.0402
   63SAPC  H14Y 5111   5.474   3.276   4.677 -0.3010  1.1069 -0.6641
   63SAPC  C315 5112   5.346   3.404   4.804 -0.4271 -0.3950 -0.0072
   63SAPC  H15X 5113   5.420   3.480   4.837 -1.3252  0.7181 -0.4952
   63SAPC  H15Y 5114   5.273   3.399   4.886  0.1323  0.1855  0.5372
   63SAPC  C316 5115   5.291   3.471   4.677  0.0760  0.3627  0.0894
   63SAPC  H16X 5116   5.190   3.428   4.664 -0.5304  2.1063 -1.3506
   63SAPC  H16Y 5117   5.354   3.441   4.590 -3.1124 -0.8134 -1.9706
   63SAPC  C317 5118   5.315   3.626   4.655 -0.2145  0.1226  0.4783
   63SAPC  H17X 5119   5.424   3.649   4.660  0.2760 -1.4105 -1.5239
   63SAPC  H17Y 5120   5.260   3.673   4.739 -1.0039  0.3226 -0.1430
   63SAPC  C318 5121   5.263   3.676   4.528  0.1457  0.6858  0.2176
   63SAPC  H18X 5122   5.295   3.610   4.444 -2.3029 -1.1943  0.6392
   63SAPC  H18Y 5123   5.279   3.785   4.516 -1.4066  1.0192  0.9254
   63SAPC  H18Z 5124   5.153   3.660   4.529  0.3281 -0.6634  1.4861
   64SAPC     N 5125   0.434   3.772   6.139 -0.7012  0.5462  0.0595
   64SAPC   C12 5126   0.465   3.905   6.072  0.3622 -0.5911  0.3796
   64SAPC  H12A 5127   0.570   3.928   6.081 -0.1809  2.5550  0.0696
   64SAPC  H12B 5128   0.403   3.980   6.120  0.0893  0.3948 -1.3938
   64SAPC   C13 5129   0.507   3.757   6.270  0.8513 -0.0866 -0.6789
   64SAPC  H13A 5130   0.602   3.807   6.262 -0.1021  2.3559  1.8216
   64SAPC  H13B 5131   0.451   3.798   6.353  1.5777  0.0585 -0.2590
   64SAPC  H13C 5132   0.528   3.653   6.291 -1.4878 -0.6356 -0.7659
   64SAPC   C14 5133   0.286   3.748   6.156 -0.1691  0.2626  0.4245
   64SAPC  H14A 5134   0.273   3.646   6.189  1.0578  0.3619  1.2915
   64SAPC  H14B 5135   0.257   3.821   6.231  3.2201  1.2346  0.9907
   64SAPC  H14C 5136   0.233   3.768   6.064 -1.2202 -0.9882  0.7367
   64SAPC   C15 5137   0.488   3.673   6.044 -0.0886  0.0256  0.3702
   64SAPC  H15A 5138   0.414   3.666   5.966 -0.0624  2.9669 -0.0272
   64SAPC  H15B 5139   0.587   3.696   6.007 -0.6695  2.6351  0.2580
   64SAPC  H15C 5140   0.500   3.581   6.101  2.0079 -0.0673 -0.1456
   64SAPC   C11 5141   0.426   3.921   5.923 -0.9649  0.6214 -0.4014
   64SAPC  H11A 5142   0.489   3.846   5.870 -0.8556 -1.0123  1.8638
   64SAPC  H11B 5143   0.451   4.027   5.902  1.9619  0.9823  3.7007
   64SAPC     P 5144   0.181   4.016   5.949 -0.2346  0.1382  0.0927
   64SAPC   O13 5145   0.061   3.945   5.999 -0.0488 -0.2092  0.4961
   64SAPC   O14 5146   0.240   4.123   6.040 -0.0712  0.2001 -0.1264
   64SAPC   O12 5147   0.285   3.903   5.905 -0.6565  0.2892 -0.1636
   64SAPC   O11 5148   0.144   4.079   5.805  0.3724 -0.4871 -0.4213
   64SAPC    C1 5149   0.145   4.000   5.686  0.4810  0.0862 -0.6559
   64SAPC    HA 5150   0.220   3.917   5.694  1.3556  0.9975  1.4274
   64SAPC    HB 5151   0.043   3.959   5.677  1.2076 -2.1130  0.2774
   64SAPC    C2 5152   0.191   4.091   5.569  0.7602 -0.2415  0.0725
   64SAPC    HS 5153   0.118   4.174   5.560  0.6814 -0.4746 -1.7236
   64SAPC   O21 5154   0.193   4.003   5.452  0.9629 -0.2397  0.4278
   64SAPC   C21 5155   0.180   4.078   5.345  0.2574  0.1482 -0.7851
   64SAPC   O22 5156   0.168   4.198   5.333 -0.1224  0.2671  0.0890
   64SAPC   C22 5157   0.179   3.984   5.221  0.1591  0.0044 -0.1163
   64SAPC   H2R 5158   0.287   3.959   5.215  0.7811  2.1738  1.0867
   64SAPC   H2S 5159   0.114   3.900   5.253 -0.4549  1.1809  1.8878
   64SAPC    C3 5160   0.334   4.159   5.609  0.3022  0.2322  0.0537
   64SAPC    HX 5161   0.395   4.080   5.656 -1.1056 -1.1049 -0.2640
   64SAPC    HY 5162   0.315   4.246   5.676  1.2338  3.2748 -3.3050
   64SAPC   O31 5163   0.400   4.205   5.490  0.1803  0.4289  0.1982
   64SAPC   C31 5164   0.433   4.337   5.494 -0.5826 -0.0225  0.3227
   64SAPC   O32 5165   0.434   4.409   5.594 -0.2262  0.2247  0.4287
   64SAPC   C32 5166   0.455   4.379   5.352  0.8324 -0.1692 -0.5316
   64SAPC   H2X 5167   0.397   4.471   5.333  1.5510  0.3540 -0.2251
   64SAPC   H2Y 5168   0.406   4.303   5.287 -0.3614  0.4369 -0.3660
   64SAPC   C23 5169   0.148   4.042   5.080 -0.7341 -0.0986 -0.2492
   64SAPC   H3R 5170   0.242   4.091   5.048 -0.1570 -1.3463 -0.5121
   64SAPC   H3S 5171   0.067   4.119   5.083  0.7506  1.5477 -0.9677
   64SAPC   C24 5172   0.130   3.939   4.967 -0.4025 -0.6449 -0.1380
   64SAPC   H4R 5173   0.105   3.991   4.872 -1.0757  3.0381  1.8834
   64SAPC   H4S 5174   0.041   3.878   4.995 -0.4218 -0.5448  0.0184
   64SAPC   C25 5175   0.250   3.849   4.954 -0.2572 -0.7719  0.1994
   64SAPC   H5R 5176   0.284   3.788   5.038  2.3590 -1.1126 -1.0043
   64SAPC   C26 5177   0.321   3.833   4.840 -0.0536 -0.2164  0.2415
   64SAPC   H6R 5178   0.406   3.763   4.841 -0.6038 -1.0846 -2.8242
   64SAPC   C27 5179   0.301   3.891   4.696  0.5710 -0.7929  0.0850
   64SAPC   H7R 5180   0.192   3.902   4.674  1.1713 -0.0019 -2.8337
   64SAPC   H7S 5181   0.331   3.822   4.614 -0.5319 -1.0792 -0.1011
   64SAPC   C28 5182   0.367   4.033   4.691  0.3470 -0.3057 -0.5151
   64SAPC   H8R 5183   0.366   4.092   4.783  2.6283 -0.7284 -0.1438
   64SAPC   C29 5184   0.435   4.091   4.586 -0.1565 -0.1783  0.1865
   64SAPC   H9R 5185   0.474   4.194   4.596  0.2783 -0.3009 -0.2419
   64SAPC  C210 5186   0.438   4.038   4.445  0.3728 -0.3213  0.2270
   64SAPC  H10R 5187   0.361   4.083   4.379  0.8803 -1.0764 -0.9103
   64SAPC  H10S 5188   0.402   3.934   4.430 -0.2825 -0.1905  0.8458
   64SAPC  C211 5189   0.573   4.058   4.382  0.7218 -0.4118  0.0605
   64SAPC  H11R 5190   0.642   3.972   4.385 -0.1561 -1.1649 -0.4347
   64SAPC  C212 5191   0.622   4.165   4.320  0.0196  0.0066  0.1210
   64SAPC  H12R 5192   0.720   4.158   4.270  1.3845  1.9081  2.3117
   64SAPC  C213 5193   0.547   4.290   4.295  0.2592 -0.1312  0.0429
   64SAPC  H13R 5194   0.437   4.274   4.295  0.2983 -0.4869  1.5472
   64SAPC  H13S 5195   0.576   4.329   4.195  0.3075  0.0376  0.1209
   64SAPC  C214 5196   0.577   4.393   4.403  0.4390 -0.3002  0.3734
   64SAPC  H14R 5197   0.682   4.393   4.436  0.1210 -1.6951  1.4300
   64SAPC  C215 5198   0.494   4.476   4.467 -0.1758  0.1370 -0.6728
   64SAPC  H15R 5199   0.528   4.539   4.550  1.9584 -2.1007  0.2937
   64SAPC  C216 5200   0.347   4.499   4.442 -0.0930 -0.6389 -0.2130
   64SAPC  H16R 5201   0.305   4.406   4.398 -0.5260 -1.1422  1.1975
   64SAPC  H16S 5202   0.334   4.583   4.370 -1.8536 -1.2465 -0.6615
   64SAPC  C217 5203   0.261   4.534   4.564 -0.2786 -0.4938  0.0016
   64SAPC  H17R 5204   0.151   4.540   4.551 -0.3556 -0.9950  0.4202
   64SAPC  H17S 5205   0.303   4.637   4.568  1.1991 -0.9323 -2.2159
   64SAPC  C218 5206   0.289   4.462   4.690 -0.8760  0.3050 -0.3671
   64SAPC  H18R 5207   0.387   4.504   4.724 -1.4495  1.8312 -0.5296
   64SAPC  H18S 5208   0.288   4.353   4.672 -0.1712  0.1615  0.3825
   64SAPC  C219 5209   0.179   4.501   4.786  0.1368 -0.2531  0.3569
   64SAPC  H19R 5210   0.084   4.466   4.743  0.3031 -1.3537  0.8417
   64SAPC  H19S 5211   0.163   4.611   4.782 -1.0445 -0.4475 -0.7269
   64SAPC  C220 5212   0.200   4.444   4.928  0.2691 -0.1219  0.2215
   64SAPC  H20R 5213   0.274   4.501   4.989  0.8893 -0.3293 -0.3297
   64SAPC  H20S 5214   0.233   4.339   4.912 -0.4469 -0.2169 -0.6443
   64SAPC  H20T 5215   0.105   4.439   4.985 -0.9544  0.4003 -1.6855
   64SAPC   C33 5216   0.602   4.395   5.299  0.0225  0.1329 -0.4423
   64SAPC   H3X 5217   0.665   4.318   5.349 -1.4883  0.5744  2.3495
   64SAPC   H3Y 5218   0.648   4.491   5.331  0.1588 -0.1662  0.2739
   64SAPC   C34 5219   0.591   4.377   5.151  0.0562  0.1948  0.0275
   64SAPC   H4X 5220   0.523   4.461   5.123 -0.0576  0.2903  0.5811
   64SAPC   H4Y 5221   0.544   4.281   5.120 -0.9482  0.9590 -0.9097
   64SAPC   C35 5222   0.722   4.398   5.075  0.5743 -0.6519 -0.5563
   64SAPC   H5X 5223   0.791   4.328   5.127  0.1223  0.2132  1.2667
   64SAPC   H5Y 5224   0.769   4.498   5.085  0.8440 -0.7248 -1.0712
   64SAPC   C36 5225   0.709   4.348   4.935 -0.3121 -0.6460  0.6343
   64SAPC   H6X 5226   0.630   4.395   4.874  0.0107 -1.5976 -0.5520
   64SAPC   H6Y 5227   0.686   4.240   4.939  0.3654 -1.0253 -2.9235
   64SAPC   C37 5228   0.838   4.358   4.849  0.4407 -0.2735  0.6380
   64SAPC   H7X 5229   0.922   4.304   4.898  0.7900  0.1893  0.5594
   64SAPC   H7Y 5230   0.861   4.466   4.855 -0.7247  0.0226  0.1059
   64SAPC   C38 5231   0.826   4.327   4.695 -0.2580  0.3250  0.0899
   64SAPC   H8X 5232   0.753   4.391   4.641 -1.2010 -1.1719 -0.4969
   64SAPC   H8Y 5233   0.786   4.224   4.681  1.5618 -0.3164 -0.7649
   64SAPC   C39 5234   0.961   4.350   4.633 -0.3769  0.1128  0.5113
   64SAPC   H9X 5235   1.045   4.311   4.695 -0.1027  0.4562  0.3574
   64SAPC   H9Y 5236   0.979   4.459   4.633 -4.0239  0.8459  0.0288
   64SAPC  C310 5237   0.975   4.284   4.490 -0.2010 -0.3468  0.0761
   64SAPC  H10X 5238   0.906   4.331   4.417 -1.6998 -0.5057  1.3376
   64SAPC  H10Y 5239   0.943   4.180   4.509 -2.3550  0.3072  0.2667
   64SAPC  C311 5240   1.125   4.279   4.451 -0.0979 -0.4193  0.4549
   64SAPC  H11X 5241   1.185   4.316   4.538  0.4951 -2.2810  0.8695
   64SAPC  H11Y 5242   1.138   4.337   4.357 -3.0804  0.6491  0.5694
   64SAPC  C312 5243   1.184   4.138   4.449 -0.2347 -0.3013 -0.0284
   64SAPC  H12X 5244   1.154   4.088   4.354  1.9958  0.2258 -1.0978
   64SAPC  H12Y 5245   1.154   4.077   4.537  1.4527 -0.8958  0.1757
   64SAPC  C313 5246   1.343   4.132   4.447  0.7341  0.6023  0.4417
   64SAPC  H13X 5247   1.369   4.209   4.523  1.3648  1.8424 -0.9638
   64SAPC  H13Y 5248   1.382   4.176   4.352 -1.7527  0.2503 -0.8578
   64SAPC  C314 5249   1.402   3.993   4.472  0.1969 -0.3699 -0.5848
   64SAPC  H14X 5250   1.363   3.923   4.395 -0.3739 -0.7680  0.0537
   64SAPC  H14Y 5251   1.379   3.950   4.572 -0.6198  2.0904  0.3819
   64SAPC  C315 5252   1.559   3.992   4.451  0.0523  0.5626 -0.1786
   64SAPC  H15X 5253   1.599   4.079   4.508  0.0275  0.1444  0.4946
   64SAPC  H15Y 5254   1.606   4.010   4.352  0.8844 -1.5984 -0.2526
   64SAPC  C316 5255   1.618   3.858   4.497 -0.3706 -0.6611 -0.3679
   64SAPC  H16X 5256   1.563   3.781   4.440 -2.7200 -0.5087  1.4832
   64SAPC  H16Y 5257   1.592   3.840   4.604 -1.0796  1.0680 -0.2035
   64SAPC  C317 5258   1.771   3.863   4.470 -0.0589  1.0232 -0.4895
   64SAPC  H17X 5259   1.796   3.907   4.371 -0.4168  0.6607 -0.7422
   64SAPC  H17Y 5260   1.813   3.761   4.469  0.3113  1.1552  0.4623
   64SAPC  C318 5261   1.846   3.949   4.576  0.5274  0.1576 -0.2452
   64SAPC  H18X 5262   1.947   3.974   4.539  0.2314 -0.9576 -1.9219
   64SAPC  H18Y 5263   1.858   3.869   4.652  1.7980 -1.3010 -1.8792
   64SAPC  H18Z 5264   1.794   4.042   4.607 -0.4511 -0.7004  0.7791
   65SAPC     N 5265   0.545   0.293   1.567 -0.1488  0.0250 -0.2743
   65SAPC   C12 5266   0.552   0.252   1.708 -0.0958  0.5141 -0.0940
   65SAPC  H12A 5267   0.461   0.295   1.747 -0.6367 -0.8254  0.1521
   65SAPC  H12B 5268   0.644   0.296   1.745  0.5442 -0.9089  0.0563
   65SAPC   C13 5269   0.609   0.200   1.469 -0.1992 -1.0169 -1.0144
   65SAPC  H13A 5270   0.577   0.228   1.370 -0.0780 -2.5778 -1.5060
   65SAPC  H13B 5271   0.717   0.194   1.474 -0.1585  0.3296  0.8332
   65SAPC  H13C 5272   0.564   0.104   1.485 -0.9458 -0.4976  0.1877
   65SAPC   C14 5273   0.401   0.295   1.536 -0.5650 -0.6462 -0.5830
   65SAPC  H14A 5274   0.355   0.202   1.566 -1.3885 -0.0145  0.1636
   65SAPC  H14B 5275   0.335   0.372   1.574  1.2123  1.5036 -1.6149
   65SAPC  H14C 5276   0.377   0.295   1.431 -1.7369  1.0580 -0.3709
   65SAPC   C15 5277   0.598   0.427   1.554 -0.1152 -0.1822  0.2934
   65SAPC  H15A 5278   0.706   0.421   1.564  0.0569  0.9030 -0.7020
   65SAPC  H15B 5279   0.565   0.457   1.456 -2.7265 -3.1123  0.1075
   65SAPC  H15C 5280   0.570   0.497   1.632  1.1155 -1.6975  2.1996
   65SAPC   C11 5281   0.549   0.100   1.740 -0.4970  0.3868 -0.4466
   65SAPC  H11A 5282   0.575   0.073   1.844  1.0437 -0.0822 -0.9255
   65SAPC  H11B 5283   0.631   0.052   1.682 -0.0546  0.4280  0.1372
   65SAPC     P 5284   0.289   0.037   1.772  0.0776 -0.4860 -0.1207
   65SAPC   O13 5285   0.235   0.173   1.769  0.3794 -0.5928  0.0916
   65SAPC   O14 5286   0.203  -0.072   1.719  0.0653  0.4597  0.6150
   65SAPC   O12 5287   0.428   0.037   1.695  0.1412  0.1454 -0.3434
   65SAPC   O11 5288   0.331  -0.003   1.922 -0.3831 -0.1858  0.1183
   65SAPC    C1 5289   0.247  -0.096   1.996  0.0141  0.1636  0.5439
   65SAPC    HA 5290   0.216  -0.185   1.938 -1.5371  0.8329  0.3020
   65SAPC    HB 5291   0.310  -0.141   2.075  1.2653 -1.8549 -1.4837
   65SAPC    C2 5292   0.130  -0.018   2.061 -0.1233 -0.4302  0.0687
   65SAPC    HS 5293   0.061   0.025   1.985  0.0735 -0.2741 -0.0250
   65SAPC   O21 5294   0.179   0.074   2.155 -0.0292 -0.1556 -0.7252
   65SAPC   C21 5295   0.109   0.183   2.176  0.2440 -0.1544  0.7087
   65SAPC   O22 5296   0.004   0.218   2.120 -0.0345  0.1857 -0.1957
   65SAPC   C22 5297   0.206   0.275   2.258  0.4547 -0.8528  0.0364
   65SAPC   H2R 5298   0.305   0.291   2.208  0.8898  1.4671  1.4979
   65SAPC   H2S 5299   0.157   0.374   2.270 -0.6371 -1.3733 -0.0938
   65SAPC    C3 5300   0.043  -0.117   2.135  0.0497 -0.1413  0.1205
   65SAPC    HX 5301   0.009  -0.189   2.058 -0.0885  1.4576 -1.3958
   65SAPC    HY 5302  -0.047  -0.061   2.168  0.4644  1.8945 -1.9196
   65SAPC   O31 5303   0.120  -0.183   2.235 -0.4611 -0.8647  0.1097
   65SAPC   C31 5304   0.061  -0.202   2.349 -0.3402  0.3075 -0.7604
   65SAPC   O32 5305  -0.040  -0.151   2.388  0.3940  0.4691 -0.0854
   65SAPC   C32 5306   0.154  -0.289   2.438 -0.3631  0.3984  0.9346
   65SAPC   H2X 5307   0.255  -0.243   2.436 -0.0459 -0.3145  0.3054
   65SAPC   H2Y 5308   0.146  -0.395   2.407 -0.9836  0.6636  0.1579
   65SAPC   C23 5309   0.243   0.221   2.399  0.0859 -0.2777  0.4880
   65SAPC   H3R 5310   0.326   0.280   2.443  1.6674 -0.0801 -2.5327
   65SAPC   H3S 5311   0.278   0.115   2.403 -0.4993 -0.5295 -0.7287
   65SAPC   C24 5312   0.128   0.221   2.506  0.0487  0.0719 -0.5654
   65SAPC   H4R 5313   0.147   0.137   2.576 -0.7944 -2.4190 -3.1780
   65SAPC   H4S 5314   0.037   0.186   2.453  0.1519 -0.3164 -0.4871
   65SAPC   C25 5315   0.095   0.351   2.582 -0.2970  0.1668  0.1422
   65SAPC   H5R 5316   0.055   0.430   2.517 -0.0175  1.7539  1.8192
   65SAPC   C26 5317   0.127   0.384   2.712 -1.0086 -0.3285  0.5516
   65SAPC   H6R 5318   0.114   0.488   2.746 -1.0189  0.2299 -1.0485
   65SAPC   C27 5319   0.190   0.286   2.807 -0.0029 -0.0384  0.2103
   65SAPC   H7R 5320   0.279   0.335   2.852  1.3929 -0.6910 -1.6938
   65SAPC   H7S 5321   0.238   0.198   2.760 -0.5588 -0.2759  0.0807
   65SAPC   C28 5322   0.085   0.245   2.905  0.1070 -0.2402 -0.6945
   65SAPC   H8R 5323  -0.018   0.257   2.868 -0.8437 -3.1151  0.6826
   65SAPC   C29 5324   0.098   0.230   3.036  0.4026  0.1172 -0.4209
   65SAPC   H9R 5325   0.008   0.207   3.095  1.6764 -0.2825  1.4778
   65SAPC  C210 5326   0.217   0.235   3.125 -0.0308 -0.5638 -0.6383
   65SAPC  H10R 5327   0.303   0.190   3.072 -0.3126  0.1620 -1.7551
   65SAPC  H10S 5328   0.198   0.169   3.212  0.9490  0.7137  0.5984
   65SAPC  C211 5329   0.262   0.378   3.164  0.3790  0.5887  0.8143
   65SAPC  H11R 5330   0.291   0.442   3.079  2.3197  1.3977  2.0262
   65SAPC  C212 5331   0.299   0.416   3.288  0.2883 -0.3280 -0.4558
   65SAPC  H12R 5332   0.337   0.519   3.291  1.4677 -0.5912 -3.0789
   65SAPC  C213 5333   0.277   0.344   3.411  0.4455 -0.3262 -0.2626
   65SAPC  H13R 5334   0.325   0.402   3.493 -0.5264  1.1386 -0.6915
   65SAPC  H13S 5335   0.316   0.240   3.416 -1.6299 -1.1163  2.4251
   65SAPC  C214 5336   0.130   0.321   3.451 -0.6512  0.0333 -0.6910
   65SAPC  H14R 5337   0.064   0.289   3.369  0.0130 -2.6014 -0.2859
   65SAPC  C215 5338   0.070   0.323   3.574  0.1911  0.8593 -0.7421
   65SAPC  H15R 5339  -0.031   0.282   3.588  1.1505 -1.1481  0.8626
   65SAPC  C216 5340   0.140   0.358   3.704  0.2062  0.3610  0.8716
   65SAPC  H16R 5341   0.122   0.456   3.751 -0.3788 -0.1869  1.8161
   65SAPC  H16S 5342   0.250   0.345   3.695  0.0416 -2.6914  1.8680
   65SAPC  C217 5343   0.094   0.255   3.811  0.5203  0.2536  0.1961
   65SAPC  H17R 5344   0.121   0.150   3.788  0.2684  0.4519 -1.1036
   65SAPC  H17S 5345  -0.015   0.259   3.832  0.0787 -3.0557 -0.8131
   65SAPC  C218 5346   0.165   0.285   3.941 -0.4271 -0.2782  0.1418
   65SAPC  H18R 5347   0.137   0.389   3.965  1.3558  0.4437 -0.7285
   65SAPC  H18S 5348   0.274   0.298   3.922 -0.8459  1.2328 -1.4024
   65SAPC  C219 5349   0.132   0.194   4.055 -0.6877  0.4858  0.5267
   65SAPC  H19R 5350   0.157   0.092   4.021  2.3577  0.6631  1.9193
   65SAPC  H19S 5351   0.024   0.196   4.079 -1.2660  4.9405 -1.4083
   65SAPC  C220 5352   0.205   0.210   4.183  0.1654 -0.1458 -0.4454
   65SAPC  H20R 5353   0.204   0.116   4.241  1.0530  0.8909  1.3277
   65SAPC  H20S 5354   0.155   0.291   4.241 -0.7938 -0.9707 -0.0775
   65SAPC  H20T 5355   0.313   0.226   4.164  0.0206  0.1391 -1.0584
   65SAPC   C33 5356   0.104  -0.285   2.585  0.2438 -0.1665  0.4914
   65SAPC   H3X 5357   0.152  -0.367   2.642  0.2528  1.0064  2.2528
   65SAPC   H3Y 5358  -0.005  -0.301   2.596  0.0476  0.2908 -0.6199
   65SAPC   C34 5359   0.128  -0.150   2.659 -0.7922  0.4334  0.1066
   65SAPC   H4X 5360   0.090  -0.069   2.592  1.1909  1.0878 -0.2925
   65SAPC   H4Y 5361   0.232  -0.116   2.676 -0.9356  1.5785 -1.0974
   65SAPC   C35 5362   0.070  -0.139   2.802 -0.2017  0.6064 -0.2441
   65SAPC   H5X 5363  -0.040  -0.131   2.788 -0.1682 -0.0258 -0.9406
   65SAPC   H5Y 5364   0.101  -0.044   2.850  0.2897  0.1807  0.2940
   65SAPC   C36 5365   0.120  -0.244   2.902 -0.0105 -0.5167 -0.6329
   65SAPC   H6X 5366   0.231  -0.252   2.909  0.0418  0.9300  1.2764
   65SAPC   H6Y 5367   0.078  -0.346   2.888  1.7382 -1.5161  0.9467
   65SAPC   C37 5368   0.077  -0.206   3.047 -0.1011  0.6723 -0.7335
   65SAPC   H7X 5369  -0.032  -0.219   3.064 -0.3312  0.3987 -2.2544
   65SAPC   H7Y 5370   0.104  -0.099   3.060  0.9025  0.1783  1.5941
   65SAPC   C38 5371   0.158  -0.295   3.145  0.1514 -0.2495  0.8155
   65SAPC   H8X 5372   0.266  -0.269   3.153  0.4914 -0.0736 -2.6836
   65SAPC   H8Y 5373   0.146  -0.402   3.116  0.2859  0.3252 -1.6357
   65SAPC   C39 5374   0.101  -0.306   3.288 -0.2302 -0.7665 -0.2709
   65SAPC   H9X 5375   0.130  -0.408   3.323  3.9570  0.2976 -0.0609
   65SAPC   H9Y 5376  -0.009  -0.300   3.282 -0.2007 -0.1185 -0.2471
   65SAPC  C310 5377   0.151  -0.204   3.394 -0.3573 -0.5090 -0.1369
   65SAPC  H10X 5378   0.244  -0.151   3.364 -1.2572  0.2667 -1.6825
   65SAPC  H10Y 5379   0.184  -0.257   3.486  1.1972  0.1511 -0.2732
   65SAPC  C311 5380   0.049  -0.089   3.431 -0.0473  0.1129 -0.6478
   65SAPC  H11X 5381   0.006  -0.049   3.336  0.0399  1.5706 -0.0880
   65SAPC  H11Y 5382   0.110  -0.010   3.480  0.4730 -1.3451  1.1499
   65SAPC  C312 5383  -0.062  -0.140   3.532 -0.6371 -0.0832  0.4129
   65SAPC  H12X 5384  -0.004  -0.174   3.620  0.0764  2.4347  1.0030
   65SAPC  H12Y 5385  -0.137  -0.210   3.492 -0.8531  1.3918 -1.9666
   65SAPC  C313 5386  -0.147  -0.019   3.579 -0.1298 -0.6570 -0.4511
   65SAPC  H13X 5387  -0.231   0.012   3.513  0.8271  0.8697 -1.0137
   65SAPC  H13Y 5388  -0.088   0.075   3.590 -2.8470  0.9402  1.6546
   65SAPC  C314 5389  -0.220  -0.057   3.704 -0.2981 -0.4012  0.3560
   65SAPC  H14X 5390  -0.233  -0.167   3.700  0.3867 -0.4564 -0.8062
   65SAPC  H14Y 5391  -0.323  -0.016   3.706 -0.1894 -0.0954 -0.1088
   65SAPC  C315 5392  -0.153  -0.031   3.835  1.1028 -0.8180 -0.2248
   65SAPC  H15X 5393  -0.131   0.078   3.838  0.3165 -0.6581 -0.0676
   65SAPC  H15Y 5394  -0.054  -0.081   3.837  0.8709 -1.2618  1.2420
   65SAPC  C316 5395  -0.240  -0.061   3.949 -0.5046 -0.9334 -0.2494
   65SAPC  H16X 5396  -0.277  -0.165   3.962  1.8367 -1.7617  0.5141
   65SAPC  H16Y 5397  -0.323   0.012   3.941  0.2138  0.0598  0.9848
   65SAPC  C317 5398  -0.172  -0.052   4.088  0.4894 -0.5738 -0.5092
   65SAPC  H17X 5399  -0.128   0.049   4.107  0.6326 -0.8873  0.9136
   65SAPC  H17Y 5400  -0.080  -0.114   4.088  0.8281 -0.1510  1.6664
   65SAPC  C318 5401  -0.268  -0.094   4.199  0.1494 -0.6442 -0.1656
   65SAPC  H18X 5402  -0.366  -0.043   4.189  0.9681  1.5146  1.8658
   65SAPC  H18Y 5403  -0.224  -0.065   4.297  2.7286  0.8192 -1.6412
   65SAPC  H18Z 5404  -0.290  -0.203   4.197  0.5814 -0.7439 -3.2522
   66SAPC     N 5405   3.060   0.727   1.327 -0.1410  0.7775 -0.1531
   66SAPC   C12 5406   3.056   0.700   1.481 -0.3264 -0.2184 -0.1446
   66SAPC  H12A 5407   3.061   0.595   1.507  0.0548  0.0668  0.9810
   66SAPC  H12B 5408   2.958   0.722   1.521 -0.5222  0.5167 -1.0023
   66SAPC   C13 5409   2.945   0.666   1.253 -0.7747 -0.6167 -0.0998
   66SAPC  H13A 5410   2.857   0.663   1.315 -1.3134  0.1855 -0.8086
   66SAPC  H13B 5411   2.922   0.734   1.172  1.1699 -0.5020 -0.6054
   66SAPC  H13C 5412   2.964   0.567   1.215  0.7483 -0.4705  0.2043
   66SAPC   C14 5413   3.053   0.879   1.297  0.2866  0.0525 -1.0363
   66SAPC  H14A 5414   2.963   0.911   1.348  1.3766 -0.9050  1.6823
   66SAPC  H14B 5415   3.136   0.925   1.348 -0.4972  0.0298  0.3024
   66SAPC  H14C 5416   3.047   0.895   1.190  0.0036 -0.5395 -1.1125
   66SAPC   C15 5417   3.188   0.684   1.253 -0.3431 -0.2278 -0.0682
   66SAPC  H15A 5418   3.203   0.578   1.270 -2.0778 -0.8291 -1.8657
   66SAPC  H15B 5419   3.180   0.683   1.145  0.1501 -1.0237 -0.1042
   66SAPC  H15C 5420   3.278   0.736   1.281 -1.1766  2.0454 -1.3498
   66SAPC   C11 5421   3.156   0.775   1.575 -0.0710 -0.0245 -0.2928
   66SAPC  H11A 5422   3.255   0.743   1.537 -0.2462 -1.6013  0.5058
   66SAPC  H11B 5423   3.149   0.735   1.679  1.2441  1.7764  0.5464
   66SAPC     P 5424   3.008   0.968   1.666  0.3884 -0.1787 -0.2106
   66SAPC   O13 5425   2.979   1.105   1.626 -0.4413 -0.1644 -0.0222
   66SAPC   O14 5426   2.897   0.874   1.649  1.0264  0.0680 -0.3026
   66SAPC   O12 5427   3.135   0.915   1.578 -0.3912  0.0354  0.1259
   66SAPC   O11 5428   3.037   0.964   1.822 -0.2350 -0.1439 -0.1203
   66SAPC    C1 5429   3.166   1.021   1.866 -0.7047  0.0022 -0.4908
   66SAPC    HA 5430   3.242   0.941   1.880  1.3165  1.9622  0.2545
   66SAPC    HB 5431   3.205   1.103   1.802  0.5103  0.8262  1.2067
   66SAPC    C2 5432   3.154   1.090   2.009 -0.4681  0.1509 -0.0235
   66SAPC    HS 5433   3.249   1.143   2.031 -0.3217 -0.8651  2.1891
   66SAPC   O21 5434   3.128   0.991   2.112  0.6332 -1.0015  0.4069
   66SAPC   C21 5435   3.233   0.935   2.164 -0.2098  0.6404 -0.9510
   66SAPC   O22 5436   3.345   0.969   2.152 -0.9171  0.0020  0.4330
   66SAPC   C22 5437   3.184   0.832   2.275 -0.5311  1.0348  0.7803
   66SAPC   H2R 5438   3.097   0.868   2.333 -1.9716 -2.9967  1.4483
   66SAPC   H2S 5439   3.139   0.744   2.225 -0.7881  0.2341  2.3446
   66SAPC    C3 5440   3.045   1.199   2.020 -0.2948  0.3036  0.2271
   66SAPC    HX 5441   2.943   1.155   2.015 -1.2015  2.3849 -0.8237
   66SAPC    HY 5442   3.047   1.254   1.923  0.4547 -0.5636 -0.2615
   66SAPC   O31 5443   3.061   1.289   2.125  0.5083  0.3679 -0.3252
   66SAPC   C31 5444   2.985   1.275   2.229 -0.1898  0.0396 -0.0924
   66SAPC   O32 5445   2.913   1.180   2.258  0.2708  0.2645  0.2334
   66SAPC   C32 5446   3.016   1.389   2.322 -0.3220  0.2237  0.8311
   66SAPC   H2X 5447   2.971   1.482   2.283 -0.5026 -0.7593 -1.4470
   66SAPC   H2Y 5448   3.127   1.397   2.321 -0.3177  0.1874 -0.0265
   66SAPC   C23 5449   3.297   0.773   2.374 -0.5010  0.0247 -0.8119
   66SAPC   H3R 5450   3.376   0.718   2.319 -0.3554 -1.5470  0.8463
   66SAPC   H3S 5451   3.239   0.693   2.426  0.5138 -0.2839 -0.1269
   66SAPC   C24 5452   3.338   0.879   2.475 -0.3919  0.0808 -0.3830
   66SAPC   H4R 5453   3.243   0.926   2.509  0.2081  1.5198 -0.6296
   66SAPC   H4S 5454   3.394   0.960   2.423 -0.5762  0.7043  0.3588
   66SAPC   C25 5455   3.401   0.822   2.598  0.0886  0.1593  0.4334
   66SAPC   H5R 5456   3.504   0.788   2.579  0.5036  0.6317  1.7544
   66SAPC   C26 5457   3.349   0.800   2.717  0.6164 -0.0664 -0.8429
   66SAPC   H6R 5458   3.400   0.741   2.794 -1.7886  1.2909  2.0103
   66SAPC   C27 5459   3.209   0.829   2.763  0.9876 -0.3094  0.3998
   66SAPC   H7R 5460   3.145   0.833   2.672  0.8434  2.0665  0.5390
   66SAPC   H7S 5461   3.210   0.935   2.797  2.1787 -0.0247 -0.4309
   66SAPC   C28 5462   3.162   0.747   2.881  0.6243  0.2462 -0.3631
   66SAPC   H8R 5463   3.084   0.675   2.854 -1.0045  1.0283  1.8626
   66SAPC   C29 5464   3.171   0.773   3.017  0.5378 -0.2613  0.2144
   66SAPC   H9R 5465   3.123   0.703   3.087 -1.8317  1.1676  0.1472
   66SAPC  C210 5466   3.262   0.872   3.086  0.0085 -0.4017  0.0023
   66SAPC  H10R 5467   3.344   0.902   3.017  1.1359 -0.8101  1.1310
   66SAPC  H10S 5468   3.304   0.822   3.176 -0.8107  0.7534  1.0730
   66SAPC  C211 5469   3.186   0.995   3.125  0.2028 -0.2217  0.3349
   66SAPC  H11R 5470   3.143   1.060   3.047  0.3884 -1.6994 -1.0362
   66SAPC  C212 5471   3.160   1.034   3.249  0.0093 -0.0448 -0.0639
   66SAPC  H12R 5472   3.112   1.131   3.264 -0.1776 -0.0461 -0.6266
   66SAPC  C213 5473   3.192   0.950   3.368  0.1386 -0.4722  0.2764
   66SAPC  H13R 5474   3.301   0.957   3.386  0.0460  0.9225  0.3869
   66SAPC  H13S 5475   3.151   0.848   3.351 -0.9988 -0.0956  0.6564
   66SAPC  C214 5476   3.123   1.008   3.489  0.0323  0.4043  0.1774
   66SAPC  H14R 5477   3.114   1.118   3.485 -1.2996  0.3819  1.5660
   66SAPC  C215 5478   3.076   0.947   3.596  0.0956 -0.0872  0.6482
   66SAPC  H15R 5479   3.037   1.012   3.675  1.3230  2.0144 -0.3802
   66SAPC  C216 5480   3.085   0.804   3.622 -0.3664  0.5265 -0.1325
   66SAPC  H16R 5481   3.045   0.741   3.539  0.6272 -1.0941  0.5716
   66SAPC  H16S 5482   3.010   0.780   3.701 -0.4338 -1.8875 -0.8500
   66SAPC  C217 5483   3.223   0.753   3.664  0.3320 -0.0016 -0.6788
   66SAPC  H17R 5484   3.304   0.768   3.590  0.3063 -0.2926 -0.7648
   66SAPC  H17S 5485   3.210   0.643   3.675  0.2686  0.1939  1.7134
   66SAPC  C218 5486   3.282   0.803   3.799 -0.1280 -0.3337 -0.2995
   66SAPC  H18R 5487   3.299   0.913   3.793 -0.3225  0.0174  3.2535
   66SAPC  H18S 5488   3.375   0.746   3.818  0.0675 -0.7590 -2.3480
   66SAPC  C219 5489   3.186   0.784   3.917  0.0919 -0.1472 -0.1617
   66SAPC  H19R 5490   3.179   0.674   3.923  1.2012 -0.3400 -1.8421
   66SAPC  H19S 5491   3.083   0.820   3.896  0.5605  2.2295  1.1336
   66SAPC  C220 5492   3.238   0.849   4.049 -0.2121  0.3793  0.1572
   66SAPC  H20R 5493   3.242   0.959   4.036 -2.3220  0.5977  0.9654
   66SAPC  H20S 5494   3.338   0.815   4.083 -1.1607 -2.0369  0.7452
   66SAPC  H20T 5495   3.161   0.829   4.127 -0.3393  0.9128  0.1720
   66SAPC   C33 5496   2.947   1.364   2.454  0.1982  0.3548 -0.1648
   66SAPC   H3X 5497   3.007   1.287   2.507  0.1890  1.8248  2.1084
   66SAPC   H3Y 5498   2.842   1.326   2.459  1.0432 -2.3066 -1.1615
   66SAPC   C34 5499   2.953   1.480   2.552 -0.2201  0.3513  0.2492
   66SAPC   H4X 5500   2.889   1.559   2.507  0.0209  0.6457  0.4201
   66SAPC   H4Y 5501   3.056   1.520   2.559  0.3233 -0.5833 -1.6751
   66SAPC   C35 5502   2.922   1.449   2.701 -0.2253  0.2042  0.0059
   66SAPC   H5X 5503   3.012   1.406   2.749 -0.9272 -1.7741 -0.3731
   66SAPC   H5Y 5504   2.837   1.380   2.721 -0.1909  0.1432 -0.0579
   66SAPC   C36 5505   2.865   1.575   2.761  0.0746  0.3315  0.5229
   66SAPC   H6X 5506   2.754   1.572   2.749  0.1463 -0.4957 -0.0144
   66SAPC   H6Y 5507   2.895   1.663   2.700  1.2931  0.3229  1.0941
   66SAPC   C37 5508   2.908   1.591   2.903  0.1856 -0.0448 -0.3595
   66SAPC   H7X 5509   3.007   1.640   2.904  0.2904 -0.2612  0.6443
   66SAPC   H7Y 5510   2.924   1.488   2.941  3.0342  0.7672  0.8344
   66SAPC   C38 5511   2.820   1.674   2.992  0.5537 -0.1889 -0.1550
   66SAPC   H8X 5512   2.722   1.630   3.020  1.8724 -1.2792  3.2925
   66SAPC   H8Y 5513   2.790   1.764   2.933  1.1458 -1.6176 -2.7522
   66SAPC   C39 5514   2.895   1.719   3.117 -0.3746  0.2799 -0.0607
   66SAPC   H9X 5515   2.979   1.788   3.096  0.0998 -0.1458  0.4019
   66SAPC   H9Y 5516   2.925   1.631   3.178 -1.6866  0.3385  0.7188
   66SAPC  C310 5517   2.801   1.794   3.215  0.2541  0.4430 -0.5906
   66SAPC  H10X 5518   2.761   1.880   3.157  2.4715  0.3460 -2.4061
   66SAPC  H10Y 5519   2.858   1.835   3.301  0.2610  1.9101 -1.2656
   66SAPC  C311 5520   2.684   1.703   3.267 -0.2166  0.0882  0.3690
   66SAPC  H11X 5521   2.717   1.604   3.305  1.3532 -0.3051 -1.8271
   66SAPC  H11Y 5522   2.616   1.689   3.180  1.6937  1.1091 -1.4022
   66SAPC  C312 5523   2.611   1.771   3.381 -0.2244 -0.3819  0.3045
   66SAPC  H12X 5524   2.516   1.716   3.395 -0.7170  0.0727 -1.0605
   66SAPC  H12Y 5525   2.588   1.880   3.371 -0.5078 -0.4088  0.6630
   66SAPC  C313 5526   2.686   1.765   3.517 -0.0668 -0.6466 -0.2524
   66SAPC  H13X 5527   2.780   1.823   3.513  0.6830 -1.7863  0.4411
   66SAPC  H13Y 5528   2.708   1.659   3.541  1.6830 -0.0589  0.9334
   66SAPC  C314 5529   2.598   1.818   3.628 -0.3478  0.1339  0.4093
   66SAPC  H14X 5530   2.493   1.792   3.605 -0.3626 -1.2851  1.9144
   66SAPC  H14Y 5531   2.599   1.928   3.616 -1.7695  0.1114 -0.1137
   66SAPC  C315 5532   2.648   1.777   3.765 -0.1443  0.5028  0.0610
   66SAPC  H15X 5533   2.752   1.817   3.762 -0.3168  0.8948 -1.8669
   66SAPC  H15Y 5534   2.645   1.667   3.781 -0.7301  0.5051 -0.0034
   66SAPC  C316 5535   2.574   1.855   3.883 -0.1928  0.0518 -0.6235
   66SAPC  H16X 5536   2.622   1.825   3.978 -1.2528 -0.5856 -0.2663
   66SAPC  H16Y 5537   2.468   1.820   3.885 -0.6894  1.3710 -1.9987
   66SAPC  C317 5538   2.560   2.005   3.870 -0.5668  0.4660 -0.2788
   66SAPC  H17X 5539   2.507   2.022   3.774 -0.9838 -0.5672 -0.2355
   66SAPC  H17Y 5540   2.665   2.042   3.863 -0.7036  0.7809 -0.7005
   66SAPC  C318 5541   2.485   2.054   3.989  1.0211 -0.1882  0.2660
   66SAPC  H18X 5542   2.481   2.165   3.999 -1.5556 -0.3365  1.6467
   66SAPC  H18Y 5543   2.547   2.024   4.076  3.4639  2.7237 -0.2845
   66SAPC  H18Z 5544   2.383   2.012   4.003  1.8651 -2.1456  0.8402
   67SAPC     N 5545   5.309   0.670   2.231 -0.0397 -0.0743  0.0375
   67SAPC   C12 5546   5.357   0.811   2.188  0.3333  0.8311  0.1102
   67SAPC  H12A 5547   5.458   0.834   2.218  0.0617  2.5176 -0.1753
   67SAPC  H12B 5548   5.295   0.884   2.237 -2.8211  0.0805 -2.4233
   67SAPC   C13 5549   5.168   0.654   2.196 -0.1664 -0.1673 -0.0767
   67SAPC  H13A 5550   5.112   0.737   2.237  1.5485  1.0994 -0.1922
   67SAPC  H13B 5551   5.152   0.648   2.089  0.1853  2.3357 -0.3336
   67SAPC  H13C 5552   5.135   0.561   2.239 -0.2673 -0.0382  0.1291
   67SAPC   C14 5553   5.384   0.561   2.163 -0.4833  0.0128  1.0971
   67SAPC  H14A 5554   5.491   0.569   2.171 -0.0911 -0.1594 -2.2500
   67SAPC  H14B 5555   5.363   0.458   2.187 -0.7121 -0.0642  0.5837
   67SAPC  H14C 5556   5.363   0.565   2.057 -1.4776 -2.9454  1.1000
   67SAPC   C15 5557   5.324   0.655   2.378 -0.0396 -0.3659  0.2438
   67SAPC  H15A 5558   5.426   0.629   2.401 -0.6522 -0.9661  2.5114
   67SAPC  H15B 5559   5.304   0.743   2.437 -2.7901 -0.6974 -0.0606
   67SAPC  H15C 5560   5.262   0.576   2.417 -3.2362  0.6237 -2.4009
   67SAPC   C11 5561   5.336   0.858   2.040  1.0138  0.7323 -0.9189
   67SAPC  H11A 5562   5.231   0.844   2.008  0.4937 -1.7659  1.4622
   67SAPC  H11B 5563   5.399   0.791   1.978  1.9471  1.3363 -0.6512
   67SAPC     P 5564   5.512   1.049   2.033  0.0860 -0.0335 -0.1231
   67SAPC   O13 5565   5.579   0.986   1.918 -0.6584 -0.5105  0.1373
   67SAPC   O14 5566   5.507   1.192   2.018  0.0061 -0.7746  0.0127
   67SAPC   O12 5567   5.364   0.993   2.041 -0.4275 -0.5198 -0.1534
   67SAPC   O11 5568   5.576   1.002   2.169 -0.1372 -0.2408  0.0682
   67SAPC    C1 5569   5.687   1.077   2.221  0.0927 -0.0415  0.2283
   67SAPC    HA 5570   5.774   1.066   2.153  1.0380  0.0720  1.3735
   67SAPC    HB 5571   5.667   1.186   2.222  1.5490  0.2518  0.0094
   67SAPC    C2 5572   5.726   1.028   2.358  0.2571 -0.5199 -0.5529
   67SAPC    HS 5573   5.736   0.917   2.351  1.0239 -0.4877 -0.0520
   67SAPC   O21 5574   5.622   1.070   2.447  0.2623 -0.3424 -0.6913
   67SAPC   C21 5575   5.553   0.978   2.515  0.3320  0.4248 -0.4369
   67SAPC   O22 5576   5.574   0.861   2.508 -0.8059  0.0209 -0.1269
   67SAPC   C22 5577   5.455   1.037   2.609 -0.3523  0.0701 -0.2909
   67SAPC   H2R 5578   5.516   1.106   2.672 -0.5839 -0.8337  0.9693
   67SAPC   H2S 5579   5.380   1.095   2.552  1.2183 -0.5962 -3.2411
   67SAPC    C3 5580   5.871   1.077   2.395 -1.0565  0.3009 -0.1329
   67SAPC    HX 5581   5.851   1.186   2.401  2.4868  1.0022  3.2383
   67SAPC    HY 5582   5.949   1.051   2.321 -1.1788 -0.5345  0.0180
   67SAPC   O31 5583   5.912   1.042   2.530  0.0723  0.5287  1.2263
   67SAPC   C31 5584   5.940   0.915   2.547  0.6547  0.0512 -0.5847
   67SAPC   O32 5585   5.947   0.831   2.462 -0.2005  0.6540  0.0008
   67SAPC   C32 5586   5.958   0.882   2.693  0.3749  0.6409 -0.6306
   67SAPC   H2X 5587   5.858   0.846   2.725  1.1047 -0.4318  0.5683
   67SAPC   H2Y 5588   6.007   0.960   2.756 -0.5122 -0.8016  2.0048
   67SAPC   C23 5589   5.402   0.926   2.701  0.7454 -0.3816 -0.1491
   67SAPC   H3R 5590   5.485   0.863   2.740 -1.3947 -3.6638 -0.4971
   67SAPC   H3S 5591   5.330   0.859   2.649 -0.2907  0.5817  0.0149
   67SAPC   C24 5592   5.325   0.998   2.825  0.5169 -0.1653  0.2065
   67SAPC   H4R 5593   5.238   1.058   2.789  2.2809  0.8036 -2.8597
   67SAPC   H4S 5594   5.386   1.074   2.878 -3.3751  2.4341  1.3945
   67SAPC   C25 5595   5.293   0.894   2.925  0.6061 -0.5297  0.2086
   67SAPC   H5R 5596   5.265   0.797   2.882 -0.2502  0.1871 -0.9040
   67SAPC   C26 5597   5.276   0.914   3.058 -1.1973 -0.0720 -0.1903
   67SAPC   H6R 5598   5.253   0.829   3.124 -2.2607 -0.4928 -1.0912
   67SAPC   C27 5599   5.296   1.051   3.132 -0.0029 -0.6597 -0.2880
   67SAPC   H7R 5600   5.312   1.128   3.053 -1.2459 -0.4932 -0.3901
   67SAPC   H7S 5601   5.389   1.048   3.193  0.4806 -3.3369 -0.9903
   67SAPC   C28 5602   5.179   1.095   3.211  0.7983 -0.3465  0.0124
   67SAPC   H8R 5603   5.099   1.132   3.146  1.8246  1.0686 -0.5040
   67SAPC   C29 5604   5.164   1.093   3.346 -0.4418  0.3509  0.0921
   67SAPC   H9R 5605   5.073   1.131   3.395  0.8397  0.9142  2.1769
   67SAPC  C210 5606   5.258   1.045   3.458  0.2754 -0.4515  0.2966
   67SAPC  H10R 5607   5.358   1.013   3.421 -0.1252 -1.3550 -0.0109
   67SAPC  H10S 5608   5.206   0.955   3.496  0.5881 -0.2893  1.1436
   67SAPC  C211 5609   5.261   1.153   3.566  1.1569 -0.2264 -0.3886
   67SAPC  H11R 5610   5.207   1.246   3.543  0.3434 -0.7820 -0.7815
   67SAPC  C212 5611   5.300   1.138   3.689  0.5355  0.7255 -0.3120
   67SAPC  H12R 5612   5.273   1.208   3.770 -3.7546  0.7855 -1.5484
   67SAPC  C213 5613   5.353   1.000   3.729  0.3263  0.8659 -0.2198
   67SAPC  H13R 5614   5.404   0.946   3.646 -1.5149 -0.2509 -0.6910
   67SAPC  H13S 5615   5.263   0.938   3.748 -0.1302  0.8189 -2.2306
   67SAPC  C214 5616   5.459   1.007   3.834  0.1195 -0.0850 -0.0915
   67SAPC  H14R 5617   5.551   1.066   3.822  0.2421  0.1194  1.5875
   67SAPC  C215 5618   5.450   0.953   3.962  0.4669 -0.1234  0.2193
   67SAPC  H15R 5619   5.522   0.987   4.039 -0.7846  1.1887  0.8540
   67SAPC  C216 5620   5.322   0.892   4.017  0.2256  0.5941 -0.4395
   67SAPC  H16R 5621   5.226   0.924   3.971 -0.4197 -0.9303 -0.2152
   67SAPC  H16S 5622   5.318   0.926   4.122  2.1881 -1.5049  0.3926
   67SAPC  C217 5623   5.316   0.737   4.016  0.2850  0.8812 -0.2880
   67SAPC  H17R 5624   5.234   0.699   4.081  1.6393 -0.4496  0.7190
   67SAPC  H17S 5625   5.414   0.700   4.055 -0.4432 -0.1969  0.6125
   67SAPC  C218 5626   5.294   0.667   3.877  0.3051  0.3443 -0.4227
   67SAPC  H18R 5627   5.364   0.705   3.801  1.4047 -0.3535  0.2141
   67SAPC  H18S 5628   5.192   0.690   3.838  0.3333 -2.3530 -2.4075
   67SAPC  C219 5629   5.305   0.511   3.897 -0.4783 -0.6412  0.9531
   67SAPC  H19R 5630   5.238   0.494   3.984 -2.5166 -0.1602 -0.4496
   67SAPC  H19S 5631   5.412   0.482   3.908 -0.1857 -0.4937 -1.0116
   67SAPC  C220 5632   5.242   0.439   3.777  0.0725 -0.5626 -0.0736
   67SAPC  H20R 5633   5.148   0.488   3.743  0.7823  1.6805  1.0057
   67SAPC  H20S 5634   5.228   0.335   3.812  2.7274 -1.1232 -0.5033
   67SAPC  H20T 5635   5.317   0.440   3.696  1.2575  2.5676  0.9102
   67SAPC   C33 5636   6.044   0.755   2.717 -0.5457  0.0834  0.1417
   67SAPC   H3X 5637   6.147   0.776   2.682 -0.4921  0.9565  0.7683
   67SAPC   H3Y 5638   5.990   0.687   2.647 -0.2020  2.0001 -2.1085
   67SAPC   C34 5639   6.047   0.705   2.862 -0.7950  0.4136 -0.4900
   67SAPC   H4X 5640   6.085   0.601   2.863 -2.2130 -0.1380 -1.6061
   67SAPC   H4Y 5641   5.945   0.704   2.906 -0.6081  2.4741  0.1184
   67SAPC   C35 5642   6.133   0.797   2.955  0.4117  0.3568  0.4266
   67SAPC   H5X 5643   6.080   0.893   2.970 -0.3411 -0.3651  2.9789
   67SAPC   H5Y 5644   6.225   0.826   2.901  1.1160 -1.0973  0.7921
   67SAPC   C36 5645   6.171   0.760   3.101 -0.7226  0.0467  0.3647
   67SAPC   H6X 5646   6.253   0.829   3.130  0.0654  0.3522 -2.3267
   67SAPC   H6Y 5647   6.225   0.664   3.092 -0.3741 -0.0053  2.5611
   67SAPC   C37 5648   6.052   0.761   3.195 -0.5091 -0.1341  0.3572
   67SAPC   H7X 5649   5.966   0.723   3.136  1.4221 -3.6026 -0.5101
   67SAPC   H7Y 5650   6.039   0.854   3.254 -1.4252 -0.7266  1.1395
   67SAPC   C38 5651   6.078   0.645   3.296 -0.2789 -0.1312  1.2329
   67SAPC   H8X 5652   6.077   0.546   3.246 -2.8765  0.1609  0.5679
   67SAPC   H8Y 5653   5.984   0.630   3.353 -3.1971  2.7011 -2.3314
   67SAPC   C39 5654   6.198   0.659   3.393  0.5569  0.9242 -0.6845
   67SAPC   H9X 5655   6.291   0.667   3.332 -1.2529 -1.3991 -4.0780
   67SAPC   H9Y 5656   6.198   0.567   3.455 -2.5863  0.4554 -1.2079
   67SAPC  C310 5657   6.170   0.772   3.492  0.6020 -0.0029  0.0196
   67SAPC  H10X 5658   6.063   0.769   3.521  0.5406 -0.1915 -0.2260
   67SAPC  H10Y 5659   6.210   0.866   3.447 -0.0516  0.7906  1.0316
   67SAPC  C311 5660   6.260   0.760   3.618 -0.0634 -0.1611 -0.0387
   67SAPC  H11X 5661   6.364   0.753   3.579  1.4382 -0.0490  3.5471
   67SAPC  H11Y 5662   6.234   0.663   3.666 -0.7999  0.8819  1.7340
   67SAPC  C312 5663   6.265   0.888   3.708 -0.1844 -0.1141 -0.2369
   67SAPC  H12X 5664   6.164   0.915   3.744  0.0212 -1.0661  1.1247
   67SAPC  H12Y 5665   6.314   0.966   3.646  0.8743 -0.9123 -0.4507
   67SAPC  C313 5666   6.358   0.873   3.830  0.0081 -0.4805 -0.2574
   67SAPC  H13X 5667   6.451   0.815   3.810 -1.1672 -2.8557  0.7879
   67SAPC  H13Y 5668   6.293   0.807   3.892  1.2414 -0.8411  0.6860
   67SAPC  C314 5669   6.389   1.006   3.898 -0.1613 -0.7690 -0.2469
   67SAPC  H14X 5670   6.291   1.058   3.909 -0.1071 -0.9322  1.2478
   67SAPC  H14Y 5671   6.462   1.074   3.849  0.4949 -1.5266 -0.3298
   67SAPC  C315 5672   6.437   0.992   4.046 -0.0980 -0.2070  0.4009
   67SAPC  H15X 5673   6.535   0.941   4.045  0.0852  0.1483  0.3705
   67SAPC  H15Y 5674   6.361   0.933   4.102  0.0324 -2.3673 -1.5463
   67SAPC  C316 5675   6.452   1.126   4.117 -0.5362 -0.9379  0.0054
   67SAPC  H16X 5676   6.489   1.211   4.056 -1.0470 -0.2906  0.5731
   67SAPC  H16Y 5677   6.521   1.103   4.201  1.4050 -0.2698 -1.3688
   67SAPC  C317 5678   6.322   1.182   4.171  0.0968 -0.4809 -0.3852
   67SAPC  H17X 5679   6.278   1.102   4.234  0.7949 -1.3359 -0.9465
   67SAPC  H17Y 5680   6.262   1.207   4.081 -0.7370 -0.1033  0.2599
   67SAPC  C318 5681   6.341   1.308   4.259  0.6786 -0.7855  0.0762
   67SAPC  H18X 5682   6.376   1.393   4.198 -1.3500 -0.6394 -0.9924
   67SAPC  H18Y 5683   6.414   1.281   4.338  0.4593 -2.5111 -0.2578
   67SAPC  H18Z 5684   6.236   1.332   4.285  0.4795  0.2268 -1.5356
   68SAPC     N 5685   3.298   1.689   1.460  0.4818  0.2121  0.7238
   68SAPC   C12 5686   3.353   1.730   1.601  0.3094 -0.3664 -0.4076
   68SAPC  H12A 5687   3.321   1.830   1.626 -0.8615 -0.9570  0.5989
   68SAPC  H12B 5688   3.460   1.743   1.601  0.3198 -0.4030  0.3303
   68SAPC   C13 5689   3.158   1.734   1.438  0.7108  0.4781 -0.6151
   68SAPC  H13A 5690   3.091   1.684   1.506  2.0760 -2.2915 -1.1359
   68SAPC  H13B 5691   3.151   1.839   1.460  1.3362  0.4736 -0.3672
   68SAPC  H13C 5692   3.136   1.721   1.333  0.5103 -1.0334 -0.4032
   68SAPC   C14 5693   3.374   1.773   1.360  0.2885  0.1169 -0.2107
   68SAPC  H14A 5694   3.481   1.758   1.359  0.1472 -0.9021 -0.8638
   68SAPC  H14B 5695   3.346   1.751   1.259 -1.5320  0.3460  0.2036
   68SAPC  H14C 5696   3.349   1.878   1.366 -0.1679 -0.0513  1.9114
   68SAPC   C15 5697   3.323   1.546   1.430  0.3664 -0.1426 -0.3598
   68SAPC  H15A 5698   3.426   1.515   1.441  0.2440  0.0762  1.7184
   68SAPC  H15B 5699   3.273   1.479   1.498 -0.3587 -1.0993 -1.7636
   68SAPC  H15C 5700   3.296   1.518   1.329 -1.0376 -4.4310  0.9557
   68SAPC   C11 5701   3.302   1.651   1.723  0.3825  0.3681  0.6196
   68SAPC  H11A 5702   3.338   1.712   1.809 -1.1214  0.6977  1.0434
   68SAPC  H11B 5703   3.350   1.551   1.720 -2.4679 -1.0745 -1.0330
   68SAPC     P 5704   3.073   1.733   1.813  0.3273 -0.0268  0.0232
   68SAPC   O13 5705   3.070   1.862   1.738  0.1099 -0.2134  0.1481
   68SAPC   O14 5706   2.945   1.665   1.847 -0.4150 -1.0440 -0.4090
   68SAPC   O12 5707   3.161   1.633   1.725  0.4414  0.0082  0.0049
   68SAPC   O11 5708   3.164   1.740   1.941  0.0564 -0.0520  0.9748
   68SAPC    C1 5709   3.176   1.629   2.029  1.1204  0.5183  0.6196
   68SAPC    HA 5710   3.076   1.585   2.049 -1.0489  2.5290 -4.1863
   68SAPC    HB 5711   3.243   1.548   1.992 -0.0962 -0.8322  1.2454
   68SAPC    C2 5712   3.213   1.680   2.170  1.0852 -0.6581  0.1661
   68SAPC    HS 5713   3.219   1.594   2.239 -1.0604 -1.4079 -0.4996
   68SAPC   O21 5714   3.112   1.771   2.220 -0.0454 -0.2780  0.0646
   68SAPC   C21 5715   3.103   1.774   2.356  1.3672  0.2585 -0.1771
   68SAPC   O22 5716   3.158   1.707   2.440 -0.1405 -0.3430  0.5430
   68SAPC   C22 5717   3.017   1.898   2.386  0.0848  0.0159  0.0957
   68SAPC   H2R 5718   3.088   1.983   2.385  0.0596  0.0683 -2.1403
   68SAPC   H2S 5719   2.947   1.913   2.301 -1.2708 -0.0430  1.1663
   68SAPC    C3 5720   3.353   1.765   2.161 -0.6402 -0.2153 -0.5909
   68SAPC    HX 5721   3.321   1.852   2.101 -0.6511 -1.4593 -2.4579
   68SAPC    HY 5722   3.431   1.713   2.101  1.6074 -0.1402  2.0001
   68SAPC   O31 5723   3.405   1.815   2.287 -0.2780  0.1010  0.8075
   68SAPC   C31 5724   3.486   1.732   2.348  0.1633 -0.2552  0.2841
   68SAPC   O32 5725   3.511   1.619   2.310  0.3438 -0.7536  0.2584
   68SAPC   C32 5726   3.554   1.801   2.462 -0.0470 -0.5497  0.2979
   68SAPC   H2X 5727   3.508   1.901   2.479  1.7553 -0.0443  2.8990
   68SAPC   H2Y 5728   3.659   1.820   2.429 -0.8231  0.3649 -1.7673
   68SAPC   C23 5729   2.954   1.879   2.521 -0.2004 -0.1239 -0.3219
   68SAPC   H3R 5730   3.031   1.861   2.599  0.3124  3.0299  0.0308
   68SAPC   H3S 5731   2.887   1.791   2.522 -1.1850  0.6072  0.9529
   68SAPC   C24 5732   2.892   2.012   2.571  0.6323  0.2622 -0.4871
   68SAPC   H4R 5733   2.812   2.069   2.518  0.6014  0.8594  0.1929
   68SAPC   H4S 5734   2.973   2.087   2.583 -0.2781  1.2140 -0.1307
   68SAPC   C25 5735   2.824   1.988   2.696 -0.3680 -0.4095 -0.1941
   68SAPC   H5R 5736   2.736   1.925   2.674 -0.3506 -0.4961 -0.0160
   68SAPC   C26 5737   2.854   2.023   2.823  0.4250  0.2999 -0.3672
   68SAPC   H6R 5738   2.788   1.984   2.901  0.1611  0.8088 -0.3318
   68SAPC   C27 5739   2.961   2.120   2.865 -0.8866 -0.6093  0.0500
   68SAPC   H7R 5740   2.938   2.185   2.953  2.2463 -0.4995  0.9195
   68SAPC   H7S 5741   2.984   2.197   2.789  0.4518 -0.8038  0.2233
   68SAPC   C28 5742   3.097   2.060   2.875 -0.3404  1.4135 -0.1153
   68SAPC   H8R 5743   3.141   2.019   2.783 -0.9977  2.3868 -0.8891
   68SAPC   C29 5744   3.182   2.061   2.981  0.0882  0.4597  0.1543
   68SAPC   H9R 5745   3.270   1.998   2.963  0.4571  1.0348 -0.0947
   68SAPC  C210 5746   3.162   2.113   3.126  0.1543  0.5784  0.3155
   68SAPC  H10R 5747   3.147   2.029   3.196  0.5990  0.3519  0.1427
   68SAPC  H10S 5748   3.064   2.165   3.129 -0.6033 -0.8614  1.7755
   68SAPC  C211 5749   3.271   2.210   3.155  0.0957 -0.5366 -0.0936
   68SAPC  H11R 5750   3.353   2.208   3.081 -0.2628 -0.0274 -0.5149
   68SAPC  C212 5751   3.297   2.257   3.276 -0.1228  0.1676  0.9855
   68SAPC  H12R 5752   3.398   2.299   3.288  1.2187 -3.1402  2.3743
   68SAPC  C213 5753   3.212   2.232   3.400 -0.3382 -0.4966  0.2797
   68SAPC  H13R 5754   3.107   2.213   3.366  0.1120 -1.9394 -0.3870
   68SAPC  H13S 5755   3.200   2.328   3.454  0.6419  0.7891 -1.6421
   68SAPC  C214 5756   3.245   2.110   3.489 -0.5171  0.0818 -0.6816
   68SAPC  H14R 5757   3.298   2.026   3.441 -0.3541  0.9133 -2.0176
   68SAPC  C215 5758   3.223   2.108   3.627 -0.1220  0.1833  0.1990
   68SAPC  H15R 5759   3.234   2.014   3.683  0.7614 -0.8190 -1.5758
   68SAPC  C216 5760   3.171   2.222   3.705  0.1368  0.3098 -0.3124
   68SAPC  H16R 5761   3.074   2.186   3.746 -0.7728 -1.1911 -3.4804
   68SAPC  H16S 5762   3.154   2.316   3.649  3.1246  0.2323 -1.5557
   68SAPC  C217 5763   3.261   2.259   3.830 -0.2795 -0.2371 -0.3872
   68SAPC  H17R 5764   3.368   2.275   3.806 -0.4104  0.2476 -0.6629
   68SAPC  H17S 5765   3.244   2.176   3.901 -2.8871  0.1985 -0.4008
   68SAPC  C218 5766   3.200   2.385   3.903 -0.6138  0.0644  0.4086
   68SAPC  H18R 5767   3.157   2.458   3.831  0.4700  0.9820  0.6746
   68SAPC  H18S 5768   3.278   2.439   3.960  0.8812 -0.9116 -0.6543
   68SAPC  C219 5769   3.096   2.342   4.003  1.0019 -0.1602  0.0841
   68SAPC  H19R 5770   3.144   2.262   4.065 -0.2452 -0.7012  0.3811
   68SAPC  H19S 5771   3.006   2.299   3.955  0.9787 -1.8653  1.5119
   68SAPC  C220 5772   3.051   2.449   4.110  0.2470 -0.3599  0.5807
   68SAPC  H20R 5773   3.041   2.547   4.058 -2.3834 -0.5961  0.4842
   68SAPC  H20S 5774   3.124   2.453   4.193  1.9376 -1.1615 -0.8146
   68SAPC  H20T 5775   2.945   2.432   4.141  0.1903  0.8882  1.1541
   68SAPC   C33 5776   3.537   1.724   2.589 -0.9574  0.2349 -0.0159
   68SAPC   H3X 5777   3.606   1.637   2.589 -0.6318  0.4727 -1.2860
   68SAPC   H3Y 5778   3.433   1.691   2.611 -0.6169  1.2609  3.6756
   68SAPC   C34 5779   3.584   1.804   2.710  0.8573  0.1627  0.0752
   68SAPC   H4X 5780   3.563   1.911   2.688  2.2008  0.2135 -1.1095
   68SAPC   H4Y 5781   3.695   1.801   2.720  0.7150 -1.4710  1.7511
   68SAPC   C35 5782   3.506   1.752   2.834 -0.0467  0.0738  0.7875
   68SAPC   H5X 5783   3.518   1.642   2.840 -0.5094 -0.1541 -1.5455
   68SAPC   H5Y 5784   3.398   1.771   2.813 -0.7566 -3.8654  0.1154
   68SAPC   C36 5785   3.554   1.821   2.964  0.7346 -0.0954 -0.4607
   68SAPC   H6X 5786   3.535   1.929   2.947 -1.0757 -0.3537 -0.2898
   68SAPC   H6Y 5787   3.662   1.813   2.986  1.1227  0.6902 -1.9384
   68SAPC   C37 5788   3.471   1.779   3.087 -0.7823 -0.3876  0.1705
   68SAPC   H7X 5789   3.459   1.668   3.089  0.3396 -0.6116 -2.1917
   68SAPC   H7Y 5790   3.367   1.817   3.077  0.0077  1.7359 -0.3951
   68SAPC   C38 5791   3.539   1.829   3.212  0.2701 -0.2298 -0.3505
   68SAPC   H8X 5792   3.532   1.939   3.197  2.5704  0.1132  0.6912
   68SAPC   H8Y 5793   3.647   1.809   3.222  0.6999  1.8318 -0.4327
   68SAPC   C39 5794   3.468   1.793   3.343 -0.8478 -0.1505 -0.1719
   68SAPC   H9X 5795   3.463   1.682   3.339  1.5053 -0.3680  1.1278
   68SAPC   H9Y 5796   3.366   1.837   3.349 -2.8476 -3.7831 -3.2297
   68SAPC  C310 5797   3.546   1.831   3.477 -0.1087 -0.5208 -0.4097
   68SAPC  H10X 5798   3.573   1.939   3.480  0.3979 -0.6317 -0.7582
   68SAPC  H10Y 5799   3.641   1.773   3.475 -0.9959 -2.0368 -2.0071
   68SAPC  C311 5800   3.471   1.808   3.617 -0.2404  0.5292 -0.9505
   68SAPC  H11X 5801   3.484   1.699   3.631  0.2408  0.6880 -0.1040
   68SAPC  H11Y 5802   3.365   1.843   3.612 -0.5111 -0.2136 -0.6266
   68SAPC  C312 5803   3.538   1.846   3.750 -0.0538 -0.6696 -0.4482
   68SAPC  H12X 5804   3.493   1.945   3.770  1.4524  0.0879 -0.6987
   68SAPC  H12Y 5805   3.642   1.875   3.725  0.0251 -0.0255  0.5852
   68SAPC  C313 5806   3.529   1.751   3.872  0.1228 -0.1732 -0.6469
   68SAPC  H13X 5807   3.566   1.648   3.851  0.0264 -0.1145 -1.1119
   68SAPC  H13Y 5808   3.425   1.754   3.910  1.3667  3.2960  3.1686
   68SAPC  C314 5809   3.623   1.796   3.980  0.0207  0.2412 -0.8381
   68SAPC  H14X 5810   3.581   1.890   4.020 -1.4377  0.0689 -1.9007
   68SAPC  H14Y 5811   3.722   1.834   3.947  0.8845  0.1545  1.4348
   68SAPC  C315 5812   3.633   1.697   4.102 -0.2101 -0.5901 -0.5116
   68SAPC  H15X 5813   3.670   1.595   4.076 -2.0103 -1.3630 -0.1684
   68SAPC  H15Y 5814   3.527   1.684   4.132 -0.1359  1.3207  0.7764
   68SAPC  C316 5815   3.713   1.756   4.219  0.8637  0.0936 -0.0751
   68SAPC  H16X 5816   3.815   1.713   4.204  1.5319  1.4288  0.5156
   68SAPC  H16Y 5817   3.663   1.707   4.305 -0.2336  3.4745  1.3717
   68SAPC  C317 5818   3.710   1.898   4.274 -0.3059  0.4632 -0.0922
   68SAPC  H17X 5819   3.602   1.920   4.284 -0.4176 -0.7740  2.1345
   68SAPC  H17Y 5820   3.763   1.959   4.198  0.3350 -2.0047 -1.7547
   68SAPC  C318 5821   3.764   1.900   4.412 -0.9006 -0.3114 -0.5540
   68SAPC  H18X 5822   3.872   1.874   4.413 -0.9428 -0.5750 -1.6128
   68SAPC  H18Y 5823   3.719   1.827   4.483  4.3087 -2.6446  0.7880
   68SAPC  H18Z 5824   3.763   2.006   4.445  1.6080  0.6129 -3.1151
   69SAPC     N 5825   0.447   5.027   1.664  0.5080  0.7783  0.0793
   69SAPC   C12 5826   0.408   5.033   1.815  0.4544  0.2572  0.3356
   69SAPC  H12A 5827   0.304   5.001   1.820  1.2253 -2.3458  1.1442
   69SAPC  H12B 5828   0.403   5.136   1.845  0.4912  0.6025 -0.8001
   69SAPC   C13 5829   0.375   5.122   1.584  0.2121 -0.3374  0.3911
   69SAPC  H13A 5830   0.378   5.220   1.630 -0.7051 -0.1946  0.1634
   69SAPC  H13B 5831   0.422   5.142   1.488  2.9071 -1.0266  1.4841
   69SAPC  H13C 5832   0.272   5.096   1.564  0.1164 -0.1838  0.6860
   69SAPC   C14 5833   0.591   5.043   1.659 -0.0072 -0.1433 -0.1108
   69SAPC  H14A 5834   0.629   5.037   1.559  2.8953  2.4642  0.7060
   69SAPC  H14B 5835   0.626   5.137   1.698  2.3301 -1.0592  0.1616
   69SAPC  H14C 5836   0.638   4.966   1.719 -1.1189 -1.2170 -0.5534
   69SAPC   C15 5837   0.409   4.890   1.611 -0.7262 -0.4668  0.5000
   69SAPC  H15A 5838   0.467   4.814   1.661 -1.1850 -0.8144  0.5120
   69SAPC  H15B 5839   0.304   4.872   1.627 -0.7211  1.5798  3.7204
   69SAPC  H15C 5840   0.431   4.876   1.506  0.8391 -2.4625  1.0318
   69SAPC   C11 5841   0.479   4.944   1.928 -0.7360  0.2018 -0.7655
   69SAPC  H11A 5842   0.424   4.963   2.023  1.8602  1.0168  0.6586
   69SAPC  H11B 5843   0.583   4.982   1.938 -0.9391  0.3979  1.0509
   69SAPC     P 5844   0.602   4.709   1.879 -0.3380  0.0060  0.1238
   69SAPC   O13 5845   0.577   4.588   1.798  0.0468  0.6581 -0.4196
   69SAPC   O14 5846   0.719   4.790   1.839 -0.1344 -0.2572 -0.2568
   69SAPC   O12 5847   0.480   4.806   1.883  0.6545 -0.1530  0.1819
   69SAPC   O11 5848   0.621   4.664   2.029  0.7218 -0.3527 -0.3143
   69SAPC    C1 5849   0.511   4.593   2.088  0.4581 -0.1060  0.2801
   69SAPC    HA 5850   0.423   4.656   2.114 -0.4917 -0.7349 -1.2270
   69SAPC    HB 5851   0.477   4.506   2.027 -0.2125  0.6821 -0.4946
   69SAPC    C2 5852   0.555   4.534   2.222  0.1568 -0.0526  0.4265
   69SAPC    HS 5853   0.482   4.459   2.258 -1.6820  1.9190  0.9988
   69SAPC   O21 5854   0.555   4.644   2.315  0.2742  0.5087 -0.4253
   69SAPC   C21 5855   0.438   4.686   2.370 -0.1545  0.4463 -0.1136
   69SAPC   O22 5856   0.329   4.628   2.355 -0.7212  0.4137  0.0308
   69SAPC   C22 5857   0.464   4.812   2.440 -0.0803  0.8686 -0.1889
   69SAPC   H2R 5858   0.456   4.792   2.549 -1.5628 -0.0564 -0.4354
   69SAPC   H2S 5859   0.572   4.836   2.437 -0.6789  3.9635 -1.8528
   69SAPC    C3 5860   0.695   4.463   2.225  0.3525  0.2076  0.0491
   69SAPC    HX 5861   0.767   4.533   2.178 -1.6146  2.2422 -0.0983
   69SAPC    HY 5862   0.682   4.373   2.162  0.4848  0.0356  0.2640
   69SAPC   O31 5863   0.725   4.424   2.357  0.6174  0.3427  0.0554
   69SAPC   C31 5864   0.824   4.487   2.426  0.1534 -0.4796 -0.2479
   69SAPC   O32 5865   0.897   4.571   2.380 -0.0221  0.4060 -0.5414
   69SAPC   C32 5866   0.829   4.433   2.568 -0.2303 -0.9508  0.1960
   69SAPC   H2X 5867   0.911   4.359   2.567  1.0508  0.3894 -2.0572
   69SAPC   H2Y 5868   0.728   4.397   2.598 -1.4802  0.5439 -1.9189
   69SAPC   C23 5869   0.375   4.936   2.401 -0.0012 -0.3175  0.5570
   69SAPC   H3R 5870   0.268   4.911   2.416  0.1615  0.0196  2.5571
   69SAPC   H3S 5871   0.398   4.962   2.296  0.3949  2.0491  1.1747
   69SAPC   C24 5872   0.411   5.067   2.492 -0.3019  0.7596  1.0107
   69SAPC   H4R 5873   0.347   5.142   2.440 -1.4187 -0.8915 -0.1484
   69SAPC   H4S 5874   0.517   5.095   2.474 -0.1839  0.0780  0.5997
   69SAPC   C25 5875   0.370   5.039   2.638 -0.7493  0.4278 -0.2204
   69SAPC   H5R 5876   0.260   5.041   2.641 -0.7335  1.7052  0.1205
   69SAPC   C26 5877   0.446   5.030   2.746 -0.1942 -0.0562  0.2592
   69SAPC   H6R 5878   0.401   5.013   2.845  0.7905 -0.6966  0.6213
   69SAPC   C27 5879   0.592   5.055   2.740 -0.0885 -0.2449  0.7852
   69SAPC   H7R 5880   0.613   5.164   2.728 -1.0697 -0.1507 -0.2062
   69SAPC   H7S 5881   0.641   5.012   2.650  0.0712 -1.4110  1.4147
   69SAPC   C28 5882   0.674   4.995   2.848 -0.4682 -0.2595  0.1428
   69SAPC   H8R 5883   0.677   4.885   2.844 -1.5046 -0.2566 -1.9952
   69SAPC   C29 5884   0.761   5.051   2.936  0.1736  0.1133  0.2207
   69SAPC   H9R 5885   0.814   4.985   3.006  0.1822 -0.3732 -0.2349
   69SAPC  C210 5886   0.791   5.198   2.965  0.9537  0.3230 -0.1807
   69SAPC  H10R 5887   0.810   5.243   2.866 -0.9149  0.9599 -0.2851
   69SAPC  H10S 5888   0.883   5.212   3.026  0.1652  0.1028  1.0928
   69SAPC  C211 5889   0.671   5.272   3.023 -0.3844  0.0358  0.2127
   69SAPC  H11R 5890   0.581   5.285   2.962 -0.4668 -2.0840 -0.1852
   69SAPC  C212 5891   0.665   5.333   3.141  0.5253  0.5248 -0.7659
   69SAPC  H12R 5892   0.570   5.381   3.168  1.6284  1.7722  1.0849
   69SAPC  C213 5893   0.769   5.342   3.245 -0.6151  0.1434 -0.7709
   69SAPC  H13R 5894   0.792   5.448   3.267 -0.3845  0.0083 -0.3498
   69SAPC  H13S 5895   0.867   5.314   3.202 -1.1728  0.7734 -2.5648
   69SAPC  C214 5896   0.739   5.266   3.368 -1.2606  0.9835  0.3658
   69SAPC  H14R 5897   0.767   5.159   3.365 -0.5695  1.1617 -2.6977
   69SAPC  C215 5898   0.668   5.307   3.477  0.0709 -0.2172  0.1316
   69SAPC  H15R 5899   0.624   5.229   3.541 -0.2644 -0.1717 -0.0418
   69SAPC  C216 5900   0.616   5.446   3.500 -0.0388 -0.9071  0.0349
   69SAPC  H16R 5901   0.516   5.445   3.547  0.8472 -0.2968  2.0116
   69SAPC  H16S 5902   0.598   5.501   3.405 -1.3263 -0.2217  0.6483
   69SAPC  C217 5903   0.705   5.537   3.589  0.3837  0.3144 -0.1376
   69SAPC  H17R 5904   0.671   5.640   3.565 -1.8254  0.2504  2.2660
   69SAPC  H17S 5905   0.814   5.545   3.571  0.4677  0.7476  0.5265
   69SAPC  C218 5906   0.685   5.530   3.737  0.3767  0.0306 -0.3733
   69SAPC  H18R 5907   0.717   5.429   3.771 -1.8734 -0.3862  0.7026
   69SAPC  H18S 5908   0.576   5.542   3.754 -0.1314 -2.4446 -1.4419
   69SAPC  C219 5909   0.768   5.629   3.816  0.0576 -0.1238 -0.4991
   69SAPC  H19R 5910   0.739   5.736   3.806  1.1809  0.2649  0.1691
   69SAPC  H19S 5911   0.878   5.621   3.803  0.7203  2.9029  1.9128
   69SAPC  C220 5912   0.744   5.593   3.966 -0.4076 -0.2901  0.0461
   69SAPC  H20R 5913   0.644   5.628   3.999 -0.2120 -2.3698  3.3110
   69SAPC  H20S 5914   0.821   5.642   4.029 -0.1677  1.5264 -1.5587
   69SAPC  H20T 5915   0.755   5.483   3.978  1.4342 -0.3466 -1.7279
   69SAPC   C33 5916   0.862   4.543   2.672 -0.4907 -0.3215  0.3683
   69SAPC   H3X 5917   0.782   4.621   2.666  0.5039  0.6083 -1.7847
   69SAPC   H3Y 5918   0.961   4.590   2.656  0.4630 -2.2060  0.4578
   69SAPC   C34 5919   0.872   4.492   2.818 -0.4199 -0.2639 -0.1322
   69SAPC   H4X 5920   0.959   4.425   2.831 -1.1140 -0.7723  2.4778
   69SAPC   H4Y 5921   0.782   4.435   2.849 -0.6668  1.1645  2.0158
   69SAPC   C35 5922   0.894   4.614   2.913 -0.0099 -1.1142  0.9281
   69SAPC   H5X 5923   0.826   4.696   2.880  1.9430 -0.1168 -0.8930
   69SAPC   H5Y 5924   0.997   4.650   2.893  0.2599 -0.1457  3.6610
   69SAPC   C36 5925   0.891   4.582   3.058  0.4794  0.7813 -0.0786
   69SAPC   H6X 5926   0.976   4.524   3.101  1.5581  1.9518 -0.5738
   69SAPC   H6Y 5927   0.796   4.527   3.080  1.6377 -0.7983  1.2512
   69SAPC   C37 5928   0.893   4.709   3.144  0.3949  0.2197  0.1280
   69SAPC   H7X 5929   0.965   4.782   3.101 -1.7219  1.7156 -1.0414
   69SAPC   H7Y 5930   0.927   4.678   3.245  2.3255 -0.0973 -0.5784
   69SAPC   C38 5931   0.742   4.747   3.153  0.0389  0.8335  0.2338
   69SAPC   H8X 5932   0.677   4.662   3.186 -1.1074  1.4037 -0.4742
   69SAPC   H8Y 5933   0.712   4.786   3.053 -1.2027  1.0271  0.6558
   69SAPC   C39 5934   0.713   4.862   3.249  0.3553  1.0400  0.3404
   69SAPC   H9X 5935   0.790   4.937   3.224 -0.8821  3.1328  2.3866
   69SAPC   H9Y 5936   0.733   4.835   3.355  0.4351 -0.8742 -0.1184
   69SAPC  C310 5937   0.571   4.925   3.234  0.0100 -0.8391  0.4880
   69SAPC  H10X 5938   0.560   4.962   3.130  0.2611 -2.1867 -0.0290
   69SAPC  H10Y 5939   0.551   5.003   3.311  2.2847 -0.6026  0.9107
   69SAPC  C311 5940   0.454   4.833   3.264 -0.0401 -0.5434  0.7331
   69SAPC  H11X 5941   0.445   4.759   3.182 -2.4632  0.8328 -0.3435
   69SAPC  H11Y 5942   0.358   4.887   3.251  0.5636  0.4034  0.0643
   69SAPC  C312 5943   0.462   4.782   3.410 -0.2068  0.0163 -0.4974
   69SAPC  H12X 5944   0.458   4.877   3.468 -4.1787 -1.2115  1.5823
   69SAPC  H12Y 5945   0.558   4.731   3.432 -0.1593  0.0795 -0.5546
   69SAPC  C313 5946   0.345   4.690   3.455  0.2362 -0.2295 -0.0267
   69SAPC  H13X 5947   0.366   4.585   3.427 -0.7237 -0.1543 -1.0774
   69SAPC  H13Y 5948   0.245   4.725   3.419 -0.1682 -1.4753 -0.1604
   69SAPC  C314 5949   0.326   4.684   3.607 -0.3384 -0.8270 -0.1056
   69SAPC  H14X 5950   0.240   4.616   3.626 -0.9308  0.0979  0.5793
   69SAPC  H14Y 5951   0.302   4.783   3.651  0.0142  0.3245 -2.3318
   69SAPC  C315 5952   0.442   4.631   3.686  0.1716  0.6608  0.1703
   69SAPC  H15X 5953   0.527   4.702   3.685  1.2152 -0.5435  0.7119
   69SAPC  H15Y 5954   0.474   4.528   3.656  0.5584  1.3265 -1.9032
   69SAPC  C316 5955   0.392   4.616   3.842 -0.0986  0.7684 -0.3844
   69SAPC  H16X 5956   0.295   4.563   3.855  0.7566 -0.4893  1.2818
   69SAPC  H16Y 5957   0.391   4.718   3.885  1.4751  0.3670  0.7137
   69SAPC  C317 5958   0.482   4.529   3.931 -0.3381  0.0953  0.1781
   69SAPC  H17X 5959   0.445   4.541   4.035  2.6017  1.2361  1.2080
   69SAPC  H17Y 5960   0.583   4.574   3.924 -0.7792  1.7837  3.0211
   69SAPC  C318 5961   0.466   4.385   3.890  0.2700  0.0515 -0.1210
   69SAPC  H18X 5962   0.515   4.362   3.793 -1.1597  0.3104 -0.9357
   69SAPC  H18Y 5963   0.364   4.343   3.890  1.3858 -2.9220  0.6651
   69SAPC  H18Z 5964   0.511   4.332   3.976  1.2677  3.0356  1.3462
   70SAPC     N 5965   2.154   3.686   1.478  0.3103 -0.1668  0.0833
   70SAPC   C12 5966   2.115   3.766   1.603  0.0253 -0.4134 -0.2969
   70SAPC  H12A 5967   2.012   3.798   1.602  0.2110  0.2148  0.1811
   70SAPC  H12B 5968   2.182   3.849   1.620 -1.5138  0.3877  2.4284
   70SAPC   C13 5969   2.288   3.617   1.494 -0.0718 -0.2100 -0.5532
   70SAPC  H13A 5970   2.322   3.572   1.402 -0.5749 -1.4641 -0.1474
   70SAPC  H13B 5971   2.360   3.683   1.541 -0.8210  0.7502 -0.7235
   70SAPC  H13C 5972   2.281   3.533   1.561 -0.1785  0.0066 -0.2934
   70SAPC   C14 5973   2.049   3.585   1.448  0.2263  0.2958  0.5050
   70SAPC  H14A 5974   1.951   3.632   1.452  0.0648  0.1888 -1.5163
   70SAPC  H14B 5975   2.056   3.552   1.346 -1.0392 -0.9475  0.7923
   70SAPC  H14C 5976   2.065   3.505   1.519  0.9699  0.8059  0.9353
   70SAPC   C15 5977   2.149   3.786   1.367 -0.4425 -0.4667 -0.3306
   70SAPC  H15A 5978   2.232   3.854   1.376  1.2563 -2.4214 -0.2483
   70SAPC  H15B 5979   2.172   3.735   1.275 -0.4163 -1.4510  0.2027
   70SAPC  H15C 5980   2.056   3.839   1.367 -1.0396 -1.4772 -0.5104
   70SAPC   C11 5981   2.121   3.694   1.744 -0.2432 -0.3878 -0.5712
   70SAPC  H11A 5982   2.084   3.764   1.823  1.1954  2.6129 -2.3646
   70SAPC  H11B 5983   2.230   3.695   1.767 -0.4354 -0.7777  0.4039
   70SAPC     P 5984   1.916   3.545   1.807 -0.5938 -0.3346  0.0710
   70SAPC   O13 5985   1.825   3.633   1.730 -0.1642 -0.8804  0.5409
   70SAPC   O14 5986   1.882   3.405   1.811  0.3669  0.0894 -0.1366
   70SAPC   O12 5987   2.065   3.566   1.742 -0.2881  0.0005 -0.1562
   70SAPC   O11 5988   1.946   3.597   1.950 -0.9602 -0.6724 -0.0779
   70SAPC    C1 5989   1.890   3.535   2.066  0.2534 -0.2659  0.5669
   70SAPC    HA 5990   1.779   3.545   2.073  0.3453  0.5568  0.9469
   70SAPC    HB 5991   1.908   3.425   2.064  0.3847 -0.2370  0.0867
   70SAPC    C2 5992   1.958   3.589   2.192  0.2544  0.2002 -0.2032
   70SAPC    HS 5993   2.069   3.583   2.177  0.5333 -0.9816  2.0459
   70SAPC   O21 5994   1.927   3.515   2.313 -0.7488  0.0129  0.2077
   70SAPC   C21 5995   1.997   3.408   2.341 -0.4058 -0.1322  0.8567
   70SAPC   O22 5996   2.102   3.374   2.284  0.4948 -0.3382 -0.9900
   70SAPC   C22 5997   1.934   3.332   2.458  0.3858 -0.4526 -0.4906
   70SAPC   H2R 5998   1.834   3.376   2.477  1.3046  2.1760 -1.2679
   70SAPC   H2S 5999   1.912   3.227   2.428 -0.5708 -1.2767  2.7305
   70SAPC    C3 6000   1.930   3.736   2.213  0.5454 -0.8962  0.2284
   70SAPC    HX 6001   1.821   3.755   2.208 -0.2599 -4.8633 -0.2979
   70SAPC    HY 6002   1.962   3.795   2.124 -0.7326 -2.1314 -1.1047
   70SAPC   O31 6003   1.984   3.790   2.329  0.1994 -0.6221  0.1796
   70SAPC   C31 6004   1.932   3.781   2.454  0.3871 -0.0449  0.1804
   70SAPC   O32 6005   1.817   3.747   2.481 -0.4329  0.1002  0.5246
   70SAPC   C32 6006   2.041   3.828   2.557 -0.2005  0.6509  0.1372
   70SAPC   H2X 6007   2.037   3.938   2.546 -0.0209  0.6599  0.1447
   70SAPC   H2Y 6008   2.142   3.801   2.518  0.0275  0.8275  0.5847
   70SAPC   C23 6009   2.016   3.348   2.588  0.3419 -0.1163  0.0265
   70SAPC   H3R 6010   2.039   3.455   2.612 -3.0104  0.1574  2.7884
   70SAPC   H3S 6011   2.114   3.296   2.582  0.7546  0.8164 -2.7873
   70SAPC   C24 6012   1.935   3.300   2.701 -0.1157 -0.0244 -0.0593
   70SAPC   H4R 6013   1.912   3.194   2.679  0.7739  0.0696 -1.5605
   70SAPC   H4S 6014   1.839   3.356   2.712  1.1523  1.9205  1.8447
   70SAPC   C25 6015   2.024   3.306   2.824  0.0338  0.6694 -0.2015
   70SAPC   H5R 6016   2.129   3.284   2.801 -0.7786  0.1225 -4.1061
   70SAPC   C26 6017   1.973   3.318   2.948  0.1014  0.5032 -0.2419
   70SAPC   H6R 6018   2.048   3.309   3.027  1.8186  0.7882 -1.7797
   70SAPC   C27 6019   1.832   3.333   2.984  0.2854 -0.3505 -0.8577
   70SAPC   H7R 6020   1.818   3.284   3.082 -0.3933 -0.3264 -0.9412
   70SAPC   H7S 6021   1.766   3.282   2.911  0.5664 -1.2210 -0.5110
   70SAPC   C28 6022   1.782   3.476   2.974 -0.3248 -0.5236 -0.5856
   70SAPC   H8R 6023   1.839   3.540   2.904  1.3012 -0.5165  0.6820
   70SAPC   C29 6024   1.690   3.528   3.054 -0.9212  0.0509 -0.8847
   70SAPC   H9R 6025   1.651   3.629   3.037 -0.4253  0.6094  1.0377
   70SAPC  C210 6026   1.603   3.441   3.146  0.9303  0.0602  0.2982
   70SAPC  H10R 6027   1.658   3.390   3.228 -1.1400 -4.6202 -0.9306
   70SAPC  H10S 6028   1.558   3.355   3.092  0.3589 -1.1099  2.5267
   70SAPC  C211 6029   1.485   3.520   3.206  0.4839 -0.4527  0.0773
   70SAPC  H11R 6030   1.519   3.577   3.294 -1.2715  0.3062  0.2899
   70SAPC  C212 6031   1.371   3.540   3.143  0.0009 -0.3950 -0.6011
   70SAPC  H12R 6032   1.301   3.601   3.201  1.5142 -0.7662  1.7583
   70SAPC  C213 6033   1.324   3.488   3.015 -0.0893 -0.0930 -0.4976
   70SAPC  H13R 6034   1.270   3.393   3.037 -0.5675  0.3181  0.1402
   70SAPC  H13S 6035   1.414   3.453   2.959  0.1005 -2.1880  1.0180
   70SAPC  C214 6036   1.239   3.575   2.928 -0.8202  0.3184  0.2181
   70SAPC  H14R 6037   1.283   3.584   2.828 -0.9773  2.4870  0.2903
   70SAPC  C215 6038   1.118   3.617   2.959 -0.0222  0.6782  0.1728
   70SAPC  H15R 6039   1.060   3.665   2.879  1.4927  0.4770 -1.0950
   70SAPC  C216 6040   1.037   3.598   3.082  0.0088  0.6783 -0.3122
   70SAPC  H16R 6041   0.980   3.690   3.106 -3.2210 -0.9363 -1.2733
   70SAPC  H16S 6042   1.100   3.586   3.173  1.9308 -1.1102 -1.7738
   70SAPC  C217 6043   0.951   3.475   3.091 -0.3347  0.1263 -0.0464
   70SAPC  H17R 6044   1.013   3.385   3.109  0.0393  0.6525  1.5171
   70SAPC  H17S 6045   0.909   3.445   2.993 -1.7914 -0.5985  0.7609
   70SAPC  C218 6046   0.834   3.478   3.191 -0.6000 -1.0461 -0.2406
   70SAPC  H18R 6047   0.748   3.411   3.171 -0.2632 -1.3013 -0.8843
   70SAPC  H18S 6048   0.796   3.582   3.181 -1.1496 -1.2304 -0.0808
   70SAPC  C219 6049   0.868   3.455   3.335  0.6025  0.2854 -0.0943
   70SAPC  H19R 6050   0.780   3.492   3.393  0.2272  1.9390 -1.6281
   70SAPC  H19S 6051   0.948   3.528   3.358 -1.9233  4.0176 -2.0650
   70SAPC  C220 6052   0.894   3.313   3.365  0.7547  0.6084 -0.1480
   70SAPC  H20R 6053   0.978   3.270   3.306  0.9125 -2.0794  1.8890
   70SAPC  H20S 6054   0.804   3.253   3.342  0.7193 -0.3219  2.1807
   70SAPC  H20T 6055   0.921   3.312   3.473  0.6138  0.6345 -0.1129
   70SAPC   C33 6056   2.012   3.775   2.693  0.0901  0.6966 -0.3405
   70SAPC   H3X 6057   2.042   3.668   2.690  1.4111  1.0665 -2.1540
   70SAPC   H3Y 6058   1.904   3.763   2.717  0.7170 -0.4770  2.3300
   70SAPC   C34 6059   2.079   3.846   2.810 -0.4532  0.3911  0.3398
   70SAPC   H4X 6060   2.043   3.951   2.814  0.4918  0.8143 -1.1905
   70SAPC   H4Y 6061   2.190   3.837   2.808 -0.2749  2.2237  0.3602
   70SAPC   C35 6062   2.041   3.769   2.934 -0.0974 -0.2643  0.0202
   70SAPC   H5X 6063   2.060   3.659   2.930 -1.1843 -0.7097  3.6003
   70SAPC   H5Y 6064   1.933   3.782   2.959  0.0549  0.8680  0.1367
   70SAPC   C36 6065   2.121   3.823   3.054 -0.1796  0.4289  0.5441
   70SAPC   H6X 6066   2.084   3.923   3.084  2.4852  1.2370  1.5174
   70SAPC   H6Y 6067   2.227   3.824   3.021 -0.4115 -0.1894 -0.2354
   70SAPC   C37 6068   2.102   3.728   3.171 -0.3764  0.0418  0.6185
   70SAPC   H7X 6069   1.994   3.723   3.194 -0.6717 -1.0848 -0.8854
   70SAPC   H7Y 6070   2.124   3.623   3.143  1.7502  0.2534  1.3044
   70SAPC   C38 6071   2.193   3.749   3.295  0.6942  0.7350 -0.5837
   70SAPC   H8X 6072   2.220   3.857   3.304  1.0582  0.6341 -0.4325
   70SAPC   H8Y 6073   2.289   3.697   3.271  0.4469  0.6345 -1.4065
   70SAPC   C39 6074   2.144   3.671   3.421 -0.2152  0.2946 -0.5769
   70SAPC   H9X 6075   2.126   3.563   3.401  2.6664 -0.0790 -1.5673
   70SAPC   H9Y 6076   2.044   3.715   3.440  0.5861  1.9245  0.0979
   70SAPC  C310 6077   2.247   3.683   3.535  0.1537 -0.0441 -0.2204
   70SAPC  H10X 6078   2.267   3.791   3.554 -1.8754 -0.0650  2.7550
   70SAPC  H10Y 6079   2.344   3.633   3.511 -0.0657 -1.4945  1.6552
   70SAPC  C311 6080   2.186   3.620   3.664  0.6834 -0.3320  0.3687
   70SAPC  H11X 6081   2.184   3.509   3.661 -0.9990 -0.4989  3.4852
   70SAPC  H11Y 6082   2.082   3.659   3.667  0.4064 -0.7972 -1.6210
   70SAPC  C312 6083   2.274   3.657   3.788 -0.1539 -0.3057 -0.2619
   70SAPC  H12X 6084   2.265   3.768   3.797  1.5958 -0.2741  2.6122
   70SAPC  H12Y 6085   2.385   3.649   3.786  0.1050  2.2808  0.0396
   70SAPC  C313 6086   2.229   3.604   3.929  0.0305 -0.0829  0.6944
   70SAPC  H13X 6087   2.201   3.497   3.915 -0.5045  0.3798 -2.5880
   70SAPC  H13Y 6088   2.138   3.659   3.961 -1.1265 -0.5938 -1.5251
   70SAPC  C314 6089   2.324   3.607   4.046 -0.0107  0.7549 -0.1940
   70SAPC  H14X 6090   2.355   3.714   4.043 -1.6125  1.2436 -2.6447
   70SAPC  H14Y 6091   2.418   3.554   4.019 -0.4641 -0.0718 -0.1509
   70SAPC  C315 6092   2.269   3.565   4.180  0.2767  0.3526 -0.2831
   70SAPC  H15X 6093   2.348   3.526   4.247 -0.0196  0.7787  0.3248
   70SAPC  H15Y 6094   2.197   3.482   4.165  1.4674 -0.6565 -0.5569
   70SAPC  C316 6095   2.190   3.677   4.249  0.3296  0.0323  0.2653
   70SAPC  H16X 6096   2.110   3.704   4.177 -0.5045  0.7708  1.4324
   70SAPC  H16Y 6097   2.244   3.774   4.252 -1.9955  1.6270 -2.9837
   70SAPC  C317 6098   2.121   3.657   4.385  0.2274  0.2358  0.2765
   70SAPC  H17X 6099   2.060   3.748   4.403 -1.1051 -0.2880 -1.3120
   70SAPC  H17Y 6100   2.197   3.653   4.465  0.2981 -0.8893  0.1754
   70SAPC  C318 6101   2.023   3.534   4.392  0.0151  0.0132  0.4146
   70SAPC  H18X 6102   1.950   3.535   4.475  1.0561  1.3716  1.3706
   70SAPC  H18Y 6103   2.082   3.441   4.409  3.2856  2.2106  2.3934
   70SAPC  H18Z 6104   1.964   3.517   4.300  0.0632  0.7424  0.2406
   71SAPC     N 6105   3.270   6.800   1.525 -0.0788  0.2945 -0.3825
   71SAPC   C12 6106   3.259   6.734   1.663 -0.1876 -0.1303  0.0403
   71SAPC  H12A 6107   3.342   6.665   1.663  0.6849  0.8932 -0.3951
   71SAPC  H12B 6108   3.170   6.673   1.661  1.0754 -2.0758  0.2683
   71SAPC   C13 6109   3.406   6.831   1.478 -0.3037 -0.1886  0.2000
   71SAPC  H13A 6110   3.449   6.900   1.549  0.8145  0.1430 -0.7739
   71SAPC  H13B 6111   3.474   6.748   1.489  0.7284  0.6068 -0.0058
   71SAPC  H13C 6112   3.404   6.854   1.373 -0.1711 -0.9698  0.0233
   71SAPC   C14 6113   3.215   6.700   1.422 -0.3110 -0.5503 -0.4704
   71SAPC  H14A 6114   3.285   6.627   1.384  0.1038 -1.0761  1.2093
   71SAPC  H14B 6115   3.128   6.649   1.462 -0.7240  0.0521 -0.5885
   71SAPC  H14C 6116   3.175   6.753   1.337 -2.2485 -0.3118  0.5397
   71SAPC   C15 6117   3.174   6.918   1.514 -0.6472  0.3172  0.0958
   71SAPC  H15A 6118   3.199   6.999   1.582  0.4180 -0.4990  0.7047
   71SAPC  H15B 6119   3.182   6.963   1.416  1.1995  2.9867  1.3190
   71SAPC  H15C 6120   3.072   6.891   1.533 -0.8267 -2.8023 -3.9159
   71SAPC   C11 6121   3.267   6.826   1.787  0.5838  0.3004 -0.3104
   71SAPC  H11A 6122   3.260   6.762   1.877  3.9341 -2.0886 -1.5439
   71SAPC  H11B 6123   3.178   6.892   1.796  0.8803  0.5894  0.6412
   71SAPC     P 6124   3.524   6.842   1.816  0.0357 -0.0050 -0.2694
   71SAPC   O13 6125   3.528   6.704   1.774  0.0142  0.7015  0.1044
   71SAPC   O14 6126   3.620   6.936   1.761 -0.0380  0.6046  0.0066
   71SAPC   O12 6127   3.386   6.910   1.798 -0.1356  0.2693  0.5166
   71SAPC   O11 6128   3.553   6.852   1.964 -0.3151  0.0760 -0.0818
   71SAPC    C1 6129   3.467   6.801   2.062  0.0929 -0.5757 -0.1351
   71SAPC    HA 6130   3.395   6.727   2.021 -0.9601  0.7745 -0.7939
   71SAPC    HB 6131   3.530   6.756   2.142 -1.5928  0.7617  2.0595
   71SAPC    C2 6132   3.390   6.916   2.134  0.1778  0.4772  0.1031
   71SAPC    HS 6133   3.326   6.967   2.059 -0.5944  1.5940  1.4640
   71SAPC   O21 6134   3.494   6.996   2.193 -0.0526  0.7478  0.1645
   71SAPC   C21 6135   3.468   7.119   2.212 -0.1647 -0.1205  0.3668
   71SAPC   O22 6136   3.364   7.179   2.181  0.0182 -0.0017 -0.6225
   71SAPC   C22 6137   3.578   7.173   2.302  0.5994  0.0071 -0.0078
   71SAPC   H2R 6138   3.609   7.098   2.378 -0.2204 -1.3768 -0.9997
   71SAPC   H2S 6139   3.660   7.208   2.237 -0.8575  1.0412 -1.3801
   71SAPC    C3 6140   3.291   6.857   2.242 -0.4697  0.9333 -0.9590
   71SAPC    HX 6141   3.224   6.802   2.172 -3.0257  3.3316 -0.5952
   71SAPC    HY 6142   3.236   6.944   2.285  1.5136  1.2957  1.0624
   71SAPC   O31 6143   3.354   6.762   2.332 -0.0643 -0.1333 -0.8275
   71SAPC   C31 6144   3.411   6.819   2.435  0.2850  0.2701 -0.1422
   71SAPC   O32 6145   3.379   6.930   2.470 -0.1030 -0.0446  0.3303
   71SAPC   C32 6146   3.516   6.719   2.492 -0.7948  0.0794 -0.8011
   71SAPC   H2X 6147   3.614   6.748   2.447 -0.0513  1.2788  1.4271
   71SAPC   H2Y 6148   3.500   6.614   2.461  0.8244 -0.5124  0.2038
   71SAPC   C23 6149   3.538   7.299   2.384  0.5599  0.1891 -0.2530
   71SAPC   H3R 6150   3.445   7.272   2.439  1.2692  2.0901  2.0633
   71SAPC   H3S 6151   3.518   7.386   2.317  1.5880  1.3470  0.8645
   71SAPC   C24 6152   3.643   7.363   2.472  0.4020  0.1417 -0.0595
   71SAPC   H4R 6153   3.596   7.456   2.511  1.3239  0.5537  0.0942
   71SAPC   H4S 6154   3.719   7.392   2.395  0.3978 -1.1066 -0.5540
   71SAPC   C25 6155   3.711   7.277   2.576 -0.1776  0.7304 -0.2678
   71SAPC   H5R 6156   3.777   7.198   2.535 -0.6045 -0.6714  1.6246
   71SAPC   C26 6157   3.713   7.299   2.709  0.0420 -0.0855  0.8603
   71SAPC   H6R 6158   3.786   7.236   2.762  0.2317 -1.3779 -0.8578
   71SAPC   C27 6159   3.633   7.407   2.776  0.5071 -0.0054  0.3902
   71SAPC   H7R 6160   3.578   7.368   2.865 -0.8838 -0.0135 -0.4509
   71SAPC   H7S 6161   3.542   7.433   2.719  0.3388  0.8515  1.0380
   71SAPC   C28 6162   3.724   7.521   2.805 -0.1606 -0.4249 -0.7559
   71SAPC   H8R 6163   3.771   7.566   2.716  1.1366  0.9914  0.5941
   71SAPC   C29 6164   3.755   7.575   2.926  0.5867  0.0849 -0.0894
   71SAPC   H9R 6165   3.832   7.653   2.935 -2.3707  3.1894  0.4071
   71SAPC  C210 6166   3.695   7.539   3.062 -0.1227  0.1321 -0.7861
   71SAPC  H10R 6167   3.772   7.502   3.134 -0.5653  0.4697 -0.1372
   71SAPC  H10S 6168   3.633   7.447   3.054 -1.2492  0.5815  1.8079
   71SAPC  C211 6169   3.603   7.648   3.116 -0.7751 -0.1018 -0.1984
   71SAPC  H11R 6170   3.542   7.707   3.047 -0.4889 -1.5954 -1.7805
   71SAPC  C212 6171   3.602   7.685   3.241  0.5986 -0.0249 -1.3461
   71SAPC  H12R 6172   3.531   7.768   3.257  0.5145  0.3574 -3.4124
   71SAPC  C213 6173   3.680   7.634   3.360 -0.6309  0.1562  0.0781
   71SAPC  H13R 6174   3.720   7.721   3.417  0.6652  0.1581 -0.7712
   71SAPC  H13S 6175   3.774   7.581   3.334  0.6234  0.6781  3.0870
   71SAPC  C214 6176   3.598   7.535   3.441  0.2403 -0.4533 -0.1969
   71SAPC  H14R 6177   3.549   7.462   3.376 -1.2465  0.7102 -0.4300
   71SAPC  C215 6178   3.573   7.541   3.574  0.0337  0.3048 -0.3927
   71SAPC  H15R 6179   3.510   7.462   3.619  0.2396  0.2080 -0.2714
   71SAPC  C216 6180   3.623   7.650   3.668  0.2131 -0.6163 -0.9271
   71SAPC  H16R 6181   3.561   7.653   3.760  2.2677 -0.0917  0.5121
   71SAPC  H16S 6182   3.631   7.753   3.628  0.7150  0.2089  1.1347
   71SAPC  C217 6183   3.770   7.606   3.701 -0.1348  0.2132 -1.4072
   71SAPC  H17R 6184   3.829   7.607   3.608  1.0397  0.6685 -0.6785
   71SAPC  H17S 6185   3.768   7.503   3.743  1.0542  1.6160  2.5066
   71SAPC  C218 6186   3.836   7.689   3.812 -1.0718 -0.2193 -0.0106
   71SAPC  H18R 6187   3.935   7.640   3.829 -0.9048  0.5845  1.4415
   71SAPC  H18S 6188   3.774   7.685   3.904 -0.2580  0.4526  0.5865
   71SAPC  C219 6189   3.861   7.839   3.774  0.4973 -0.6967  0.9691
   71SAPC  H19R 6190   3.900   7.886   3.866 -1.1656  0.0526  1.3250
   71SAPC  H19S 6191   3.761   7.887   3.762  0.9433  0.2225  0.8427
   71SAPC  C220 6192   3.945   7.866   3.649 -0.1047 -0.5371 -0.1474
   71SAPC  H20R 6193   3.888   7.831   3.560 -0.8947  1.9515 -0.7046
   71SAPC  H20S 6194   4.030   7.795   3.649 -0.1450 -0.6539 -2.0838
   71SAPC  H20T 6195   3.986   7.967   3.625  1.0479 -0.2276  2.8037
   71SAPC   C33 6196   3.508   6.717   2.648 -0.1582 -0.7202  0.1591
   71SAPC   H3X 6197   3.538   6.815   2.693  1.4201 -0.6979 -0.9001
   71SAPC   H3Y 6198   3.587   6.645   2.677  1.5162  0.6995 -0.6708
   71SAPC   C34 6199   3.370   6.679   2.708  0.2260 -0.2124  0.4330
   71SAPC   H4X 6200   3.296   6.757   2.684  1.1185 -0.2762 -2.9953
   71SAPC   H4Y 6201   3.388   6.673   2.818  0.2114 -2.6152  0.3628
   71SAPC   C35 6202   3.334   6.539   2.659 -0.5043  0.3254  0.4174
   71SAPC   H5X 6203   3.421   6.470   2.665 -0.2547  0.6392  0.4501
   71SAPC   H5Y 6204   3.307   6.550   2.552  0.4514 -0.2290  0.1015
   71SAPC   C36 6205   3.218   6.463   2.733  0.5235  0.5941 -0.1791
   71SAPC   H6X 6206   3.203   6.364   2.686 -0.6669  1.0593 -0.8171
   71SAPC   H6Y 6207   3.124   6.521   2.736  0.4953  0.5335  0.2065
   71SAPC   C37 6208   3.246   6.440   2.883  0.0829 -0.4919  0.3795
   71SAPC   H7X 6209   3.224   6.536   2.936  1.6632  0.8808 -1.2920
   71SAPC   H7Y 6210   3.355   6.422   2.891  0.1422 -0.3135 -0.0176
   71SAPC   C38 6211   3.166   6.336   2.956  0.0179  0.4057  0.8790
   71SAPC   H8X 6212   3.173   6.236   2.908 -1.9348  0.2813  0.8007
   71SAPC   H8Y 6213   3.056   6.348   2.949  0.1358  1.8272  1.1418
   71SAPC   C39 6214   3.202   6.308   3.102  0.2075  0.7636  0.2322
   71SAPC   H9X 6215   3.111   6.285   3.162  1.2029  0.3353  1.6102
   71SAPC   H9Y 6216   3.245   6.401   3.146  0.9100  0.6652 -0.2424
   71SAPC  C310 6217   3.324   6.210   3.116  0.1620 -0.7457 -0.2031
   71SAPC  H10X 6218   3.401   6.242   3.043  0.5946  0.0103  0.5697
   71SAPC  H10Y 6219   3.286   6.107   3.097  0.1384 -0.9444  0.8398
   71SAPC  C311 6220   3.382   6.206   3.260  0.0444  0.5413 -0.4214
   71SAPC  H11X 6221   3.319   6.151   3.332  1.0009  2.7376  2.2871
   71SAPC  H11Y 6222   3.409   6.306   3.301  1.3927  0.7009 -1.6033
   71SAPC  C312 6223   3.517   6.131   3.249  0.0701  0.2072  0.7283
   71SAPC  H12X 6224   3.568   6.175   3.161 -2.0056  2.2628  0.4595
   71SAPC  H12Y 6225   3.499   6.023   3.233  1.7619 -0.0399  0.2924
   71SAPC  C313 6226   3.604   6.166   3.365 -0.5454  0.4680 -0.1650
   71SAPC  H13X 6227   3.625   6.275   3.358 -5.0689  1.5041 -0.9152
   71SAPC  H13Y 6228   3.705   6.120   3.354 -1.0435 -0.5289 -0.7765
   71SAPC  C314 6229   3.552   6.157   3.505 -0.2389  0.4711 -0.6641
   71SAPC  H14X 6230   3.539   6.049   3.527  1.9079  0.7413  2.6943
   71SAPC  H14Y 6231   3.450   6.199   3.513 -2.0970 -3.7436  0.3640
   71SAPC  C315 6232   3.646   6.231   3.610  0.3451  0.1428 -0.1040
   71SAPC  H15X 6233   3.633   6.342   3.604  1.7402  0.5512  2.6041
   71SAPC  H15Y 6234   3.754   6.204   3.608 -0.1151 -1.7961 -0.6370
   71SAPC  C316 6235   3.592   6.206   3.752 -0.0764 -0.2376  0.6209
   71SAPC  H16X 6236   3.483   6.186   3.754  0.0412 -0.8436  1.1297
   71SAPC  H16Y 6237   3.618   6.294   3.814 -0.9236  0.7972 -0.4396
   71SAPC  C317 6238   3.667   6.087   3.816  0.1499  0.2918  0.0606
   71SAPC  H17X 6239   3.771   6.119   3.838  0.0247  0.7698 -0.0262
   71SAPC  H17Y 6240   3.665   6.003   3.743  1.3252 -0.6957  1.1279
   71SAPC  C318 6241   3.587   6.034   3.936  0.0740 -0.1891  0.5066
   71SAPC  H18X 6242   3.489   5.993   3.903  0.0961  0.1739 -0.0363
   71SAPC  H18Y 6243   3.561   6.113   4.009 -0.7415 -2.2294  2.5188
   71SAPC  H18Z 6244   3.651   5.957   3.982  1.0665  0.6984  0.6515
   72SAPC     N 6245   1.082   5.364   2.051 -0.6296  0.3258  0.4389
   72SAPC   C12 6246   1.134   5.462   2.156 -0.5616  0.3306 -0.8615
   72SAPC  H12A 6247   1.054   5.517   2.203 -0.3017  1.3788 -1.5941
   72SAPC  H12B 6248   1.192   5.539   2.107  2.1339 -1.1607 -0.2008
   72SAPC   C13 6249   1.018   5.437   1.929 -0.1463 -0.3148 -0.1876
   72SAPC  H13A 6250   0.940   5.502   1.967 -0.4718 -1.8372  1.9044
   72SAPC  H13B 6251   1.093   5.493   1.876 -2.1204  0.3211 -2.5242
   72SAPC  H13C 6252   0.973   5.367   1.860  2.2788 -0.6658 -1.4884
   72SAPC   C14 6253   1.178   5.266   1.995 -0.5309 -0.4027 -0.0477
   72SAPC  H14A 6254   1.122   5.203   1.927 -2.5432 -0.3976  1.5145
   72SAPC  H14B 6255   1.257   5.318   1.943 -1.1083 -0.6465 -1.2089
   72SAPC  H14C 6256   1.223   5.213   2.077  0.3277  1.4616  0.7230
   72SAPC   C15 6257   0.973   5.283   2.118 -0.2544  0.1391 -0.4052
   72SAPC  H15A 6258   0.889   5.339   2.157 -0.6658  0.7929 -2.1570
   72SAPC  H15B 6259   0.931   5.208   2.053 -2.1940  0.8410 -0.0494
   72SAPC  H15C 6260   1.015   5.236   2.206 -1.7872 -2.8264 -1.1322
   72SAPC   C11 6261   1.234   5.407   2.260  0.6474  0.6013  0.0167
   72SAPC  H11A 6262   1.187   5.320   2.310 -1.9320  0.9672 -1.5910
   72SAPC  H11B 6263   1.251   5.481   2.341 -0.8795  1.6805 -0.6151
   72SAPC     P 6264   1.471   5.464   2.146 -0.1774  0.1892  0.2505
   72SAPC   O13 6265   1.579   5.382   2.082  0.8817  0.1478  0.0860
   72SAPC   O14 6266   1.413   5.572   2.064  0.2349  0.1897 -0.3496
   72SAPC   O12 6267   1.355   5.368   2.196  0.0689 -0.0468  0.3751
   72SAPC   O11 6268   1.520   5.525   2.282 -0.3683 -0.2032  0.1327
   72SAPC    C1 6269   1.566   5.437   2.384 -0.3070  0.6014  0.0061
   72SAPC    HA 6270   1.567   5.329   2.357 -3.7898  0.4426  0.0475
   72SAPC    HB 6271   1.669   5.464   2.417  0.4778 -1.3495 -0.6598
   72SAPC    C2 6272   1.487   5.465   2.516 -0.1223 -0.3724  0.6430
   72SAPC    HS 6273   1.389   5.512   2.490  0.5670  0.5143 -0.4352
   72SAPC   O21 6274   1.563   5.565   2.584 -0.0332 -0.4332 -0.1485
   72SAPC   C21 6275   1.494   5.638   2.660  0.2000 -0.0687  0.1117
   72SAPC   O22 6276   1.369   5.644   2.670  0.6509 -0.6238  0.8773
   72SAPC   C22 6277   1.596   5.720   2.741  0.6100 -0.1408  0.1357
   72SAPC   H2R 6278   1.697   5.728   2.695  1.8052 -0.8276  2.4836
   72SAPC   H2S 6279   1.547   5.820   2.746 -1.6975 -1.2163 -0.1848
   72SAPC    C3 6280   1.455   5.348   2.606 -0.0234 -0.0732 -0.3262
   72SAPC    HX 6281   1.400   5.277   2.541  1.1027  1.4143 -3.1124
   72SAPC    HY 6282   1.393   5.374   2.695 -0.0123 -0.2704 -0.2606
   72SAPC   O31 6283   1.574   5.285   2.662  0.3902  0.4514 -0.0978
   72SAPC   C31 6284   1.594   5.154   2.658 -0.4760  0.7360  0.0105
   72SAPC   O32 6285   1.522   5.070   2.604 -0.5724 -0.4690  0.2532
   72SAPC   C32 6286   1.714   5.110   2.739  0.2682  0.0056  0.3534
   72SAPC   H2X 6287   1.795   5.186   2.735  1.4105 -1.0323  2.1505
   72SAPC   H2Y 6288   1.742   5.019   2.681 -3.3143  0.5611 -2.5929
   72SAPC   C23 6289   1.606   5.682   2.887  0.8891  0.3302  0.6023
   72SAPC   H3R 6290   1.510   5.666   2.941  2.4549 -1.0766  3.1453
   72SAPC   H3S 6291   1.654   5.771   2.934 -0.3094  0.2983  1.9414
   72SAPC   C24 6292   1.696   5.560   2.904 -0.1564 -0.2572 -0.2555
   72SAPC   H4R 6293   1.665   5.484   2.829  1.6247 -0.2187 -1.0779
   72SAPC   H4S 6294   1.684   5.520   3.007  0.5695  0.2648  0.0389
   72SAPC   C25 6295   1.840   5.599   2.868 -0.4188 -0.4641 -0.2403
   72SAPC   H5R 6296   1.861   5.630   2.765  0.2034  0.3467  0.1158
   72SAPC   C26 6297   1.940   5.617   2.951  0.1569  0.1437 -0.1678
   72SAPC   H6R 6298   2.034   5.637   2.897  1.9408 -2.5938  1.6736
   72SAPC   C27 6299   1.940   5.606   3.103  0.1414 -0.4588  0.1466
   72SAPC   H7R 6300   1.975   5.503   3.124 -1.5875 -1.5346 -1.8158
   72SAPC   H7S 6301   1.834   5.600   3.136  0.6099 -0.6282  1.7095
   72SAPC   C28 6302   2.011   5.718   3.174  0.3457  0.4996 -0.3890
   72SAPC   H8R 6303   2.019   5.806   3.108  1.2753  0.3785 -0.4467
   72SAPC   C29 6304   2.064   5.712   3.302  0.9668  0.6186  0.4009
   72SAPC   H9R 6305   2.110   5.801   3.346  1.0993  1.3976 -1.2273
   72SAPC  C210 6306   2.044   5.589   3.390 -0.0163  0.2577  0.1591
   72SAPC  H10R 6307   2.088   5.500   3.341 -0.0976 -0.2855  1.0624
   72SAPC  H10S 6308   1.935   5.577   3.406  0.4286 -1.9612  1.8726
   72SAPC  C211 6309   2.111   5.605   3.526  0.1982  0.4579 -0.8372
   72SAPC  H11R 6310   2.095   5.704   3.573 -0.3799 -0.0218  0.0057
   72SAPC  C212 6311   2.200   5.533   3.591 -0.0056  0.2944 -0.1902
   72SAPC  H12R 6312   2.239   5.552   3.692 -1.5255 -1.5205  0.7990
   72SAPC  C213 6313   2.250   5.395   3.552  0.7773  0.3887  0.0506
   72SAPC  H13R 6314   2.171   5.342   3.495  0.8087  1.0515 -0.6224
   72SAPC  H13S 6315   2.249   5.326   3.639 -1.0224 -0.1289 -0.3264
   72SAPC  C214 6316   2.379   5.384   3.477 -0.3013  0.1166 -0.2751
   72SAPC  H14R 6317   2.447   5.469   3.492  1.1111 -1.0487  0.1464
   72SAPC  C215 6318   2.414   5.304   3.377  0.4551 -0.0490 -0.6331
   72SAPC  H15R 6319   2.513   5.307   3.331  0.2626  0.7645 -1.0037
   72SAPC  C216 6320   2.336   5.193   3.309 -0.1182  0.2430 -0.6669
   72SAPC  H16R 6321   2.252   5.161   3.375  0.3145 -1.8202 -1.0560
   72SAPC  H16S 6322   2.402   5.106   3.290  2.5080  1.5551  1.7330
   72SAPC  C217 6323   2.284   5.227   3.167 -0.6300 -0.5535  0.0133
   72SAPC  H17R 6324   2.368   5.255   3.099 -0.4595 -1.1653 -0.0409
   72SAPC  H17S 6325   2.217   5.315   3.172 -0.1135 -0.2098  1.0594
   72SAPC  C218 6326   2.216   5.106   3.099 -0.6541  0.1717  0.3803
   72SAPC  H18R 6327   2.132   5.080   3.168  0.6422  1.4102  2.5247
   72SAPC  H18S 6328   2.298   5.031   3.096  0.6703  1.6109 -0.9969
   72SAPC  C219 6329   2.167   5.141   2.953 -0.1810 -0.0860 -0.3666
   72SAPC  H19R 6330   2.093   5.063   2.925 -3.2503  2.2535  0.6137
   72SAPC  H19S 6331   2.254   5.132   2.884  1.6901 -0.0223  1.8695
   72SAPC  C220 6332   2.090   5.272   2.934  0.3920  0.5056 -0.1803
   72SAPC  H20R 6333   2.147   5.362   2.965  1.7114 -0.8872  1.7000
   72SAPC  H20S 6334   1.997   5.274   2.995  0.2781  0.0413 -0.3362
   72SAPC  H20T 6335   2.037   5.279   2.837 -1.1096  1.1004  0.6516
   72SAPC   C33 6336   1.680   5.077   2.888  0.2254 -0.7301  0.3988
   72SAPC   H3X 6337   1.772   5.035   2.933  0.4236 -0.1504  0.5418
   72SAPC   H3Y 6338   1.596   5.004   2.888 -1.6844  1.3147 -1.1812
   72SAPC   C34 6339   1.625   5.198   2.971  0.0540  1.0616 -0.5475
   72SAPC   H4X 6340   1.524   5.220   2.931  1.4214  3.0803 -3.2460
   72SAPC   H4Y 6341   1.696   5.281   2.950 -0.9105  1.8243 -0.8496
   72SAPC   C35 6342   1.614   5.160   3.121  0.4670 -0.2946  0.3194
   72SAPC   H5X 6343   1.720   5.140   3.147  0.3323  0.4929  1.5774
   72SAPC   H5Y 6344   1.553   5.068   3.135  0.8699 -0.4746  0.9340
   72SAPC   C36 6345   1.550   5.270   3.217 -0.0884  0.2628  0.8418
   72SAPC   H6X 6346   1.440   5.254   3.220 -0.1182 -0.1658 -0.9600
   72SAPC   H6Y 6347   1.573   5.366   3.166 -0.5118  0.2397  0.5959
   72SAPC   C37 6348   1.609   5.259   3.357 -0.3899  0.4488 -0.5014
   72SAPC   H7X 6349   1.715   5.290   3.345  0.5919 -2.2043  0.4215
   72SAPC   H7Y 6350   1.614   5.153   3.390 -0.0442  0.5205 -0.3175
   72SAPC   C38 6351   1.544   5.338   3.469  0.2095 -0.1936 -0.2062
   72SAPC   H8X 6352   1.434   5.320   3.471  0.3592 -1.5237 -1.6281
   72SAPC   H8Y 6353   1.560   5.446   3.448  0.6801  0.1548  1.7038
   72SAPC   C39 6354   1.591   5.296   3.618 -0.2488  0.3608 -0.1937
   72SAPC   H9X 6355   1.569   5.187   3.616 -0.1491  0.3489 -1.6095
   72SAPC   H9Y 6356   1.527   5.350   3.691 -2.0070  1.4228 -2.3857
   72SAPC  C310 6357   1.736   5.331   3.652  0.3536 -0.6336  0.0098
   72SAPC  H10X 6358   1.757   5.439   3.635 -1.5797 -0.3444 -0.7386
   72SAPC  H10Y 6359   1.797   5.281   3.573  0.0509 -0.3959 -0.3774
   72SAPC  C311 6360   1.781   5.285   3.793 -0.1904 -0.5619  0.4588
   72SAPC  H11X 6361   1.748   5.180   3.802  1.7004 -1.4358 -1.7730
   72SAPC  H11Y 6362   1.733   5.346   3.873 -1.1983  0.2557 -0.7275
   72SAPC  C312 6363   1.933   5.288   3.814 -0.6102 -0.2975 -0.1136
   72SAPC  H12X 6364   1.958   5.396   3.821  0.1331 -0.5647  2.8230
   72SAPC  H12Y 6365   1.979   5.250   3.719  1.7282  1.2320  0.3145
   72SAPC  C313 6366   1.999   5.208   3.922  0.1726 -0.1613 -0.5811
   72SAPC  H13X 6367   2.108   5.228   3.933  0.1205 -0.4260  0.6043
   72SAPC  H13Y 6368   1.995   5.098   3.902  3.3615 -0.2935 -0.9632
   72SAPC  C314 6369   1.937   5.220   4.059  0.0755  0.3407  0.2017
   72SAPC  H14X 6370   1.978   5.146   4.131 -2.4241  0.6850  2.1256
   72SAPC  H14Y 6371   1.829   5.200   4.046  0.1653 -0.4523  0.5681
   72SAPC  C315 6372   1.975   5.352   4.135  0.1175 -0.3091 -0.1846
   72SAPC  H15X 6373   1.949   5.441   4.074 -2.4205 -0.3280  0.7306
   72SAPC  H15Y 6374   2.082   5.349   4.163  0.1084 -3.7590 -0.1210
   72SAPC  C316 6375   1.914   5.356   4.276  0.0972  0.0578 -0.0949
   72SAPC  H16X 6376   1.804   5.345   4.267  0.1357 -1.4887  1.0153
   72SAPC  H16Y 6377   1.940   5.453   4.323  0.4058 -0.0505 -0.0413
   72SAPC  C317 6378   1.963   5.247   4.378 -0.7438  0.3108  0.2435
   72SAPC  H17X 6379   2.074   5.239   4.379 -0.7144  0.6514 -0.0328
   72SAPC  H17Y 6380   1.938   5.142   4.350 -2.0713  0.5322  0.5447
   72SAPC  C318 6381   1.903   5.270   4.515  0.0563  0.1032  0.0140
   72SAPC  H18X 6382   1.794   5.249   4.509  0.0667 -0.2160  0.9088
   72SAPC  H18Y 6383   1.911   5.373   4.556 -0.4676  0.1478  0.0075
   72SAPC  H18Z 6384   1.948   5.193   4.581 -1.9170 -0.8485  0.3326
   73SLPC     N 6385   0.763   1.330   6.941  0.9672 -0.0729  0.2651
   73SLPC   C13 6386   0.878   1.421   6.911  0.0914 -0.1419 -0.4065
   73SLPC  H13A 6387   0.880   1.467   6.813 -0.6619 -1.1212 -0.9010
   73SLPC  H13B 6388   0.890   1.500   6.984 -0.4739  0.2602 -0.7409
   73SLPC  H13C 6389   0.963   1.355   6.921 -1.9466 -2.5611  4.2436
   73SLPC   C14 6390   0.649   1.415   6.998 -0.4506  0.0089 -0.4505
   73SLPC  H14A 6391   0.681   1.465   7.088 -1.3334  0.5408 -0.4220
   73SLPC  H14B 6392   0.619   1.490   6.927 -0.8253 -0.4853 -0.8226
   73SLPC  H14C 6393   0.558   1.357   7.002 -0.4566 -0.0720 -1.4249
   73SLPC   C15 6394   0.817   1.236   7.047 -0.4550  0.1082 -0.2789
   73SLPC  H15A 6395   0.891   1.167   7.007 -2.1047 -0.9296 -1.6744
   73SLPC  H15B 6396   0.861   1.286   7.132  0.6886 -2.2414  0.6098
   73SLPC  H15C 6397   0.733   1.183   7.089 -0.0354 -0.7255 -0.4692
   73SLPC   C12 6398   0.717   1.248   6.819  0.3940  0.1809 -0.0139
   73SLPC  H12A 6399   0.652   1.165   6.844 -0.4828 -0.4612 -3.7339
   73SLPC  H12B 6400   0.802   1.190   6.788  0.5859  0.5064 -0.0961
   73SLPC   C11 6401   0.668   1.318   6.690  1.1763  0.0891 -0.6643
   73SLPC  H11A 6402   0.580   1.379   6.721  3.4147  1.7189  3.2046
   73SLPC  H11B 6403   0.629   1.244   6.616  0.1870 -1.3101  1.1918
   73SLPC     P 6404   0.888   1.334   6.551  0.1723 -0.2762 -0.3723
   73SLPC   O13 6405   1.000   1.428   6.589 -0.0239  0.9311 -0.5865
   73SLPC   O14 6406   0.902   1.184   6.583 -0.5070  0.0330  0.5119
   73SLPC   O12 6407   0.764   1.395   6.635  0.1971 -0.3633 -0.3077
   73SLPC   O11 6408   0.859   1.353   6.395 -0.3936 -0.0178  0.0723
   73SLPC    C1 6409   0.745   1.414   6.337  0.1594 -0.1237  0.4376
   73SLPC    HA 6410   0.702   1.477   6.418  0.5509 -0.0267  0.5742
   73SLPC    HB 6411   0.771   1.484   6.255 -0.4247  1.9733  1.9619
   73SLPC    C2 6412   0.640   1.312   6.278  0.4570 -0.1294 -0.2247
   73SLPC    HS 6413   0.622   1.243   6.363  1.7635 -1.1161 -0.7190
   73SLPC   O21 6414   0.699   1.226   6.177  0.4060  0.1168 -0.2041
   73SLPC   C21 6415   0.626   1.130   6.124 -0.2034 -0.2109  0.0553
   73SLPC   O22 6416   0.514   1.096   6.164  0.1665  0.6512 -0.1405
   73SLPC   C22 6417   0.694   1.069   6.007  0.1138 -0.2917 -0.0277
   73SLPC   H2R 6418   0.803   1.062   6.031  0.3265  0.7376 -0.6391
   73SLPC   H2S 6419   0.648   0.968   6.001  2.6219 -1.5819  0.8845
   73SLPC    C3 6420   0.510   1.388   6.242 -0.2827  0.1047 -0.2052
   73SLPC    HX 6421   0.470   1.425   6.339 -0.0489  0.9081 -0.4009
   73SLPC    HY 6422   0.439   1.316   6.197  0.8420 -0.4167 -1.2299
   73SLPC   O31 6423   0.547   1.503   6.161 -0.0950  0.3543  0.3327
   73SLPC   C31 6424   0.510   1.501   6.040  0.0999  0.1893  0.9224
   73SLPC   O32 6425   0.440   1.410   5.989  0.4439  1.3592 -0.0954
   73SLPC   C32 6426   0.560   1.632   5.972  0.5731  0.5701  0.0281
   73SLPC   H2X 6427   0.618   1.610   5.880 -1.5320 -2.0197 -0.7882
   73SLPC   H2Y 6428   0.628   1.692   6.037  4.8059 -0.8578 -2.6310
   73SLPC   C23 6429   0.662   1.132   5.872  0.1650  0.2227 -0.4569
   73SLPC   H3R 6430   0.721   1.066   5.805  0.5149  1.8988 -1.8772
   73SLPC   H3S 6431   0.685   1.240   5.865 -2.3513  0.8664  0.0515
   73SLPC   C24 6432   0.514   1.125   5.832 -0.1369 -0.3729 -0.6969
   73SLPC   H4R 6433   0.512   1.173   5.732 -1.4047  1.8396  0.3247
   73SLPC   H4S 6434   0.445   1.178   5.901  2.8470  2.0127  0.6991
   73SLPC   C25 6435   0.450   0.984   5.807  0.5954 -0.0484 -0.5907
   73SLPC   H5R 6436   0.341   0.992   5.789  0.5391 -3.2555 -2.5234
   73SLPC   H5S 6437   0.467   0.926   5.900  1.6124 -0.3014 -0.9224
   73SLPC   C26 6438   0.490   0.913   5.678 -0.2440  0.0490 -0.2009
   73SLPC   H6R 6439   0.601   0.921   5.682 -0.3746  2.2413  0.6681
   73SLPC   H6S 6440   0.461   0.968   5.586  2.2925 -2.0618 -2.4250
   73SLPC   C27 6441   0.435   0.773   5.665 -0.1665  0.0578 -0.5971
   73SLPC   H7R 6442   0.326   0.777   5.642 -0.2765  2.1975  0.0302
   73SLPC   H7S 6443   0.443   0.713   5.758 -1.8572  1.2622  0.3951
   73SLPC   C28 6444   0.505   0.692   5.557 -0.3821  0.0638  0.3922
   73SLPC   H8R 6445   0.607   0.669   5.593 -0.9889  1.9129  3.6470
   73SLPC   H8S 6446   0.518   0.752   5.464 -1.6338 -0.4359 -0.1415
   73SLPC   C29 6447   0.436   0.558   5.537  0.1484 -0.7891  0.5589
   73SLPC   H9R 6448   0.402   0.505   5.627 -1.3116 -2.5878 -0.9365
   73SLPC  C210 6449   0.420   0.497   5.419 -0.0314  0.6144  0.6819
   73SLPC  H10R 6450   0.374   0.398   5.425  2.9164 -0.9457 -0.5145
   73SLPC  C211 6451   0.458   0.550   5.283  0.0115  0.4069 -0.1966
   73SLPC  H11R 6452   0.509   0.471   5.225  1.4051  2.2396 -1.5783
   73SLPC  H11S 6453   0.532   0.632   5.294  0.4509  0.1069 -0.8776
   73SLPC  C212 6454   0.351   0.591   5.187 -0.1549 -0.1218  0.0617
   73SLPC  H12R 6455   0.255   0.604   5.238 -0.3093 -0.3976 -0.1576
   73SLPC  C213 6456   0.358   0.613   5.052 -0.2849  0.1135  0.3859
   73SLPC  H13R 6457   0.271   0.663   5.007  0.3460 -0.3754 -1.4594
   73SLPC  C214 6458   0.478   0.597   4.965 -0.5502  0.3663  0.7164
   73SLPC  H14R 6459   0.564   0.552   5.019  0.1829  1.0590  0.1656
   73SLPC  H14S 6460   0.521   0.692   4.926  0.4599 -0.8569 -1.3425
   73SLPC  C215 6461   0.445   0.511   4.840 -0.3357 -0.3865 -0.0173
   73SLPC  H15R 6462   0.370   0.435   4.871  1.8498 -2.5119  0.3693
   73SLPC  H15S 6463   0.528   0.447   4.803 -0.2902 -1.5477  1.9277
   73SLPC  C216 6464   0.392   0.592   4.728 -0.3889  0.1571  0.5603
   73SLPC  H16R 6465   0.473   0.664   4.701  1.1549 -1.0073  1.8812
   73SLPC  H16S 6466   0.306   0.645   4.773 -0.7384 -1.2859  1.6501
   73SLPC  C217 6467   0.347   0.532   4.598 -0.3008 -0.3683 -0.1432
   73SLPC  H17R 6468   0.268   0.457   4.617 -0.5995  0.1216  0.5756
   73SLPC  H17S 6469   0.422   0.477   4.537 -0.1443  2.9503 -3.2871
   73SLPC  C218 6470   0.300   0.639   4.505 -0.2240  0.2553  0.2094
   73SLPC  H18R 6471   0.380   0.708   4.470 -1.5459  1.6569 -0.1793
   73SLPC  H18S 6472   0.228   0.698   4.565  0.1793  2.4190 -1.3063
   73SLPC  H18T 6473   0.243   0.606   4.416  1.1972 -0.6488 -0.4080
   73SLPC   C33 6474   0.451   1.737   5.942  0.2434  0.4793 -0.3092
   73SLPC   H3X 6475   0.506   1.821   5.895  1.8077  0.0181  0.6177
   73SLPC   H3Y 6476   0.417   1.771   6.042  1.1124  1.6169 -0.3787
   73SLPC   C34 6477   0.342   1.677   5.845  0.2134  0.2801 -0.1077
   73SLPC   H4X 6478   0.269   1.758   5.826 -0.6665 -0.5641 -0.3611
   73SLPC   H4Y 6479   0.281   1.599   5.894 -0.2368  0.1948 -0.7992
   73SLPC   C35 6480   0.399   1.624   5.716  0.7570 -0.5712 -0.0689
   73SLPC   H5X 6481   0.462   1.535   5.737  0.2469 -0.7607  0.6811
   73SLPC   H5Y 6482   0.460   1.706   5.673 -0.3100  0.2269 -0.0953
   73SLPC   C36 6483   0.281   1.588   5.618  0.6669 -0.3787  0.7255
   73SLPC   H6X 6484   0.214   1.674   5.601 -0.8457 -1.6813 -0.2300
   73SLPC   H6Y 6485   0.227   1.499   5.658  0.5448 -1.9369 -2.5561
   73SLPC   C37 6486   0.332   1.530   5.490  0.4813 -0.1731 -0.4975
   73SLPC   H7X 6487   0.362   1.426   5.515  0.3717  0.5294  3.1003
   73SLPC   H7Y 6488   0.428   1.578   5.462  0.5217  1.1846  1.7814
   73SLPC   C38 6489   0.229   1.525   5.372 -0.6744  0.0601  0.1545
   73SLPC   H8X 6490   0.189   1.627   5.357  0.4275  0.5624  0.4954
   73SLPC   H8Y 6491   0.154   1.445   5.390 -0.7539  0.2516  0.6793
   73SLPC   C39 6492   0.291   1.485   5.234 -0.6465 -0.5846  0.0262
   73SLPC   H9X 6493   0.331   1.382   5.239  1.1495 -0.0280 -1.4850
   73SLPC   H9Y 6494   0.367   1.562   5.207 -3.0351  1.9895  0.2382
   73SLPC  C310 6495   0.187   1.491   5.115 -0.0009  0.0771  0.4043
   73SLPC  H10X 6496   0.140   1.591   5.107  3.0520  1.6031  0.0790
   73SLPC  H10Y 6497   0.110   1.414   5.136  0.4953 -0.6504 -0.3613
   73SLPC  C311 6498   0.251   1.457   4.986  0.1857 -0.0575  0.8084
   73SLPC  H11X 6499   0.281   1.351   4.975 -0.5369 -0.3567  1.6093
   73SLPC  H11Y 6500   0.345   1.517   4.978  0.0216  0.2218  0.9499
   73SLPC  C312 6501   0.174   1.495   4.860  0.3599  0.3343  0.1361
   73SLPC  H12X 6502   0.160   1.605   4.856  1.3902  0.4340 -2.5910
   73SLPC  H12Y 6503   0.076   1.444   4.871 -0.2223  0.5621 -3.1139
   73SLPC  C313 6504   0.259   1.454   4.738 -0.1486  0.2668 -0.7812
   73SLPC  H13X 6505   0.273   1.345   4.731  1.7849  0.3959  0.3478
   73SLPC  H13Y 6506   0.351   1.515   4.754 -2.1109  2.8354  1.8630
   73SLPC  C314 6507   0.183   1.494   4.609 -0.3151  0.5838 -0.3385
   73SLPC  H14X 6508   0.151   1.601   4.613  1.8160  1.3170 -1.3454
   73SLPC  H14Y 6509   0.094   1.428   4.603  0.0177  0.0846  0.1409
   73SLPC  C315 6510   0.272   1.485   4.485 -0.4092 -0.6024  0.3293
   73SLPC  H15X 6511   0.277   1.377   4.458 -0.1265  0.2270 -3.4069
   73SLPC  H15Y 6512   0.371   1.530   4.510 -1.5127  2.7300 -0.8326
   73SLPC  C316 6513   0.207   1.564   4.369 -0.6344 -0.2529  0.2854
   73SLPC  H16X 6514   0.168   1.665   4.392  1.4161  0.2315  1.9875
   73SLPC  H16Y 6515   0.113   1.516   4.333 -1.9801  0.4965  2.5976
   73SLPC  C317 6516   0.315   1.579   4.263 -0.5026 -0.3334 -0.1989
   73SLPC  H17X 6517   0.348   1.479   4.227 -3.0655 -1.0613 -0.7150
   73SLPC  H17Y 6518   0.394   1.632   4.321  0.3219 -0.8706 -0.8012
   73SLPC  C318 6519   0.277   1.671   4.137  0.3873  0.5492  0.4967
   73SLPC  H18X 6520   0.190   1.736   4.158 -1.2254 -1.0377 -0.9475
   73SLPC  H18Y 6521   0.247   1.608   4.050 -1.6257  0.1852  1.4073
   73SLPC  H18Z 6522   0.365   1.732   4.107  0.5829 -0.3526 -0.8713
   74SLPC     N 6523   6.123   5.309   6.978 -1.0699  0.1087  1.3451
   74SLPC   C13 6524   6.175   5.428   7.052 -0.5888  0.0728 -0.1878
   74SLPC  H13A 6525   6.173   5.423   7.160 -0.3336  0.7466 -0.1512
   74SLPC  H13B 6526   6.271   5.454   7.011 -1.5563  1.1126 -1.9029
   74SLPC  H13C 6527   6.107   5.511   7.037  0.0342  0.3972 -1.2903
   74SLPC   C14 6528   5.990   5.275   7.042 -0.4553  0.0060  0.0650
   74SLPC  H14A 6529   5.945   5.198   6.982 -1.6218 -0.1726  1.1359
   74SLPC  H14B 6530   6.010   5.238   7.141  1.0476  0.1447 -0.1562
   74SLPC  H14C 6531   5.922   5.358   7.054  1.6401  1.5793  1.9261
   74SLPC   C15 6532   6.218   5.195   6.997 -0.3379  0.4244 -0.0585
   74SLPC  H15A 6533   6.182   5.102   6.955  3.2131 -0.2108 -2.1465
   74SLPC  H15B 6534   6.313   5.209   6.946  0.2769 -1.5830  0.4273
   74SLPC  H15C 6535   6.243   5.177   7.101 -2.9513 -1.9689  0.2509
   74SLPC   C12 6536   6.104   5.342   6.827  0.1258  0.3251  0.1041
   74SLPC  H12A 6537   6.019   5.408   6.819  0.3310  0.5623 -0.1535
   74SLPC  H12B 6538   6.084   5.248   6.777  0.0227  0.4535 -0.0983
   74SLPC   C11 6539   6.221   5.396   6.751  0.2086 -0.6011  1.0925
   74SLPC  H11A 6540   6.210   5.404   6.640  2.8990  2.2868  0.8959
   74SLPC  H11B 6541   6.311   5.333   6.768  0.3663 -0.3069  1.3639
   74SLPC     P 6542   6.146   5.648   6.788  0.1008  0.5522 -0.3531
   74SLPC   O13 6543   6.010   5.601   6.767 -0.1348 -0.2119  0.3637
   74SLPC   O14 6544   6.151   5.722   6.914 -0.1210 -0.5073  0.5993
   74SLPC   O12 6545   6.252   5.532   6.790 -0.1765  0.2775 -0.1974
   74SLPC   O11 6546   6.186   5.735   6.666 -0.7774  0.5389 -0.5621
   74SLPC    C1 6547   6.310   5.813   6.656 -0.1096  0.6242 -0.1709
   74SLPC    HA 6548   6.274   5.916   6.635  0.9599  1.2167  0.7850
   74SLPC    HB 6549   6.368   5.813   6.751  0.6822  2.3058 -0.6175
   74SLPC    C2 6550   6.408   5.768   6.543 -0.2395 -0.4496 -0.2457
   74SLPC    HS 6551   6.482   5.850   6.531 -2.3810  1.2652 -3.0240
   74SLPC   O21 6552   6.334   5.755   6.419 -0.1838 -0.5027  0.0364
   74SLPC   C21 6553   6.310   5.873   6.363 -0.0425  0.8475  0.0454
   74SLPC   O22 6554   6.337   5.985   6.416  0.1513  0.3312  0.7262
   74SLPC   C22 6555   6.249   5.853   6.221 -0.8425  0.4147 -0.9151
   74SLPC   H2R 6556   6.327   5.790   6.172 -2.9597 -1.7489 -1.7262
   74SLPC   H2S 6557   6.148   5.806   6.212 -1.9506  2.7117 -1.0396
   74SLPC    C3 6558   6.468   5.633   6.573 -0.1760  1.0513  0.4499
   74SLPC    HX 6559   6.391   5.556   6.597  2.7212 -3.0135 -1.9748
   74SLPC    HY 6560   6.540   5.645   6.657  1.6251  1.1080 -1.0314
   74SLPC   O31 6561   6.526   5.561   6.459  0.3205  0.0772  0.1312
   74SLPC   C31 6562   6.648   5.602   6.433 -0.2785  0.0207  0.2673
   74SLPC   O32 6563   6.711   5.700   6.484 -0.1702  0.0218 -0.1634
   74SLPC   C32 6564   6.720   5.500   6.342 -0.0260 -0.0130  0.0233
   74SLPC   H2X 6565   6.653   5.430   6.288  0.2651  1.1720 -2.0142
   74SLPC   H2Y 6566   6.779   5.445   6.418 -0.3853 -0.2168  0.1521
   74SLPC   C23 6567   6.251   5.985   6.140 -0.7332 -0.6464 -0.3696
   74SLPC   H3R 6568   6.359   6.011   6.136 -1.0816  0.9918  0.2600
   74SLPC   H3S 6569   6.187   6.059   6.191  1.6056  1.1932  0.0370
   74SLPC   C24 6570   6.217   5.967   5.988  0.2718  0.6295 -0.9225
   74SLPC   H4R 6571   6.279   5.890   5.937 -1.3782 -0.8612 -0.7749
   74SLPC   H4S 6572   6.233   6.058   5.926 -0.3051  0.5544 -1.1776
   74SLPC   C25 6573   6.067   5.946   5.964  0.3902  0.2889  0.4278
   74SLPC   H5R 6574   6.005   6.017   6.023  0.4425  0.7575 -0.0739
   74SLPC   H5S 6575   6.037   5.847   6.006 -0.5393  0.4761  0.2335
   74SLPC   C26 6576   6.027   5.952   5.820  0.4957  0.3434 -0.3206
   74SLPC   H6R 6577   6.048   6.059   5.797  0.2803  0.1681 -1.3910
   74SLPC   H6S 6578   5.918   5.931   5.822  0.6559 -0.7327  3.2579
   74SLPC   C27 6579   6.091   5.854   5.722 -0.0217 -0.1358  0.4108
   74SLPC   H7R 6580   6.065   5.753   5.760 -0.1109 -0.2196  0.1284
   74SLPC   H7S 6581   6.202   5.859   5.726  0.1034 -2.2584  0.7384
   74SLPC   C28 6582   6.036   5.870   5.584  0.5650  0.4216  0.1835
   74SLPC   H8R 6583   5.927   5.882   5.600  0.6749 -0.7969  2.3576
   74SLPC   H8S 6584   6.066   5.776   5.533  3.1804  1.0221  0.4769
   74SLPC   C29 6585   6.100   5.988   5.520 -0.2270  0.3110 -0.3010
   74SLPC   H9R 6586   6.141   6.065   5.587  0.4429 -2.1331  2.2654
   74SLPC  C210 6587   6.113   6.010   5.391 -0.9004  0.2236  0.0266
   74SLPC  H10R 6588   6.146   6.110   5.357  0.9387 -0.1940  0.4773
   74SLPC  C211 6589   6.064   5.908   5.289 -0.0888 -0.0828 -0.1755
   74SLPC  H11R 6590   5.977   5.855   5.333  0.5066  1.4140  3.1042
   74SLPC  H11S 6591   6.142   5.832   5.269 -1.6627 -1.3558 -1.9318
   74SLPC  C212 6592   6.040   5.966   5.150 -0.5262 -0.8866  0.2611
   74SLPC  H12R 6593   5.946   6.021   5.131  0.0132 -0.0418 -0.0402
   74SLPC  C213 6594   6.130   5.977   5.045  0.5136 -0.7697 -0.7856
   74SLPC  H13R 6595   6.098   6.017   4.948 -0.4051  0.4169 -0.0229
   74SLPC  C214 6596   6.268   5.913   5.055 -0.1085 -0.2927  0.3044
   74SLPC  H14R 6597   6.261   5.802   5.051 -1.3065 -0.2069 -2.6500
   74SLPC  H14S 6598   6.324   5.931   5.149  0.6644 -2.3121  0.2746
   74SLPC  C215 6599   6.340   5.950   4.922 -0.1822 -0.1402  0.2378
   74SLPC  H15R 6600   6.365   6.057   4.909  0.1953 -0.3976 -1.2760
   74SLPC  H15S 6601   6.270   5.927   4.839 -0.0083 -0.4359  0.1702
   74SLPC  C216 6602   6.472   5.861   4.905  0.0942 -0.9655  0.2500
   74SLPC  H16R 6603   6.436   5.756   4.897 -1.3981 -0.4922  0.5208
   74SLPC  H16S 6604   6.538   5.876   4.994  0.4525  0.4722 -0.2425
   74SLPC  C217 6605   6.553   5.903   4.783 -0.0707 -0.0057 -0.4216
   74SLPC  H17R 6606   6.644   5.841   4.788 -0.0557 -0.5349 -4.3951
   74SLPC  H17S 6607   6.592   6.005   4.806  0.5110 -0.4704  0.7460
   74SLPC  C218 6608   6.486   5.877   4.650  0.4074 -0.2695 -0.1580
   74SLPC  H18R 6609   6.422   5.964   4.624  0.6440 -0.0982 -0.1726
   74SLPC  H18S 6610   6.421   5.787   4.652 -0.7300  0.5255 -0.3815
   74SLPC  H18T 6611   6.564   5.861   4.572  1.4548  2.3076  0.2694
   74SLPC   C33 6612   6.813   5.576   6.252  0.8386 -0.2118 -0.5322
   74SLPC   H3X 6613   6.901   5.514   6.227  0.3238 -1.0666 -0.2809
   74SLPC   H3Y 6614   6.854   5.668   6.300  2.9809  0.6345 -3.6807
   74SLPC   C34 6615   6.752   5.617   6.119  0.1497  0.4270 -0.8602
   74SLPC   H4X 6616   6.651   5.658   6.136  1.0427  1.3653  3.2887
   74SLPC   H4Y 6617   6.747   5.528   6.052  2.0855 -0.3357 -0.0615
   74SLPC   C35 6618   6.839   5.727   6.042 -0.3749  0.6572 -0.4685
   74SLPC   H5X 6619   6.939   5.679   6.033 -0.1801 -0.5511  4.7017
   74SLPC   H5Y 6620   6.853   5.817   6.106  4.2088  0.9799 -1.5821
   74SLPC   C36 6621   6.783   5.769   5.911 -0.0644  0.4124 -0.4790
   74SLPC   H6X 6622   6.838   5.859   5.876 -2.1426  0.4692 -4.0861
   74SLPC   H6Y 6623   6.675   5.794   5.927 -0.2219 -0.7770  0.4354
   74SLPC   C37 6624   6.796   5.668   5.794  0.4394 -0.4366 -0.8927
   74SLPC   H7X 6625   6.747   5.573   5.826 -2.0276  1.4504  1.4756
   74SLPC   H7Y 6626   6.902   5.637   5.786  1.6189  2.5778  0.9606
   74SLPC   C38 6627   6.752   5.716   5.663  0.0052 -0.7491 -0.5527
   74SLPC   H8X 6628   6.825   5.795   5.632 -1.9076  0.8749 -1.1226
   74SLPC   H8Y 6629   6.649   5.753   5.682 -0.2865 -1.0630 -1.5203
   74SLPC   C39 6630   6.760   5.609   5.557  0.5424 -0.4291  0.5969
   74SLPC   H9X 6631   6.675   5.538   5.569 -1.2639  1.6392  0.7111
   74SLPC   H9Y 6632   6.851   5.547   5.569  0.1300 -1.5063 -1.4360
   74SLPC  C310 6633   6.756   5.661   5.415 -0.7741  0.3153  0.5755
   74SLPC  H10X 6634   6.837   5.735   5.398 -0.6981  0.0355 -0.2921
   74SLPC  H10Y 6635   6.666   5.725   5.397 -0.4276  1.5438  2.7891
   74SLPC  C311 6636   6.761   5.544   5.310  0.4674 -0.5368 -0.2950
   74SLPC  H11X 6637   6.677   5.472   5.321  0.4410 -0.5260 -0.4181
   74SLPC  H11Y 6638   6.854   5.484   5.317 -0.9695 -2.7674  0.5452
   74SLPC  C312 6639   6.769   5.616   5.177 -0.4509 -0.8747  0.1817
   74SLPC  H12X 6640   6.847   5.695   5.174 -2.7314  1.5400 -2.4613
   74SLPC  H12Y 6641   6.672   5.663   5.151  0.8061  1.4717 -0.5458
   74SLPC  C313 6642   6.785   5.507   5.070  0.1716  0.7176  0.7722
   74SLPC  H13X 6643   6.742   5.411   5.103  1.9683 -0.1401  0.7333
   74SLPC  H13Y 6644   6.895   5.493   5.058  0.1308  0.2732  0.9272
   74SLPC  C314 6645   6.716   5.545   4.935 -0.7179 -0.1276 -0.0899
   74SLPC  H14X 6646   6.752   5.645   4.905  1.8378 -1.1447 -0.6747
   74SLPC  H14Y 6647   6.606   5.558   4.937 -0.8636 -1.2063 -0.5133
   74SLPC  C315 6648   6.751   5.454   4.822 -0.1493 -0.0659  0.0764
   74SLPC  H15X 6649   6.858   5.433   4.805  0.1702  0.6069  1.1539
   74SLPC  H15Y 6650   6.733   5.517   4.732  1.2551 -0.6052 -0.6056
   74SLPC  C316 6651   6.664   5.326   4.829  0.2250 -0.3163 -0.0199
   74SLPC  H16X 6652   6.558   5.357   4.817  0.0408 -1.4161 -1.4009
   74SLPC  H16Y 6653   6.686   5.273   4.924  0.7973 -0.7774 -0.4040
   74SLPC  C317 6654   6.696   5.222   4.721 -0.2121  0.0312 -0.3398
   74SLPC  H17X 6655   6.606   5.157   4.716  1.5086 -2.3840 -2.3368
   74SLPC  H17Y 6656   6.769   5.156   4.773  1.0307 -0.4684 -2.6256
   74SLPC  C318 6657   6.745   5.255   4.582 -0.7693 -0.1664  0.2762
   74SLPC  H18X 6658   6.768   5.167   4.518 -1.2526 -0.1095  0.0206
   74SLPC  H18Y 6659   6.834   5.320   4.580 -0.5042 -0.3920  2.5588
   74SLPC  H18Z 6660   6.654   5.292   4.529  0.4246  2.0375 -0.3606
   75SLPC     N 6661   3.854   1.705   7.055  0.3855 -0.6848 -0.0437
   75SLPC   C13 6662   4.007   1.689   7.069  0.6446 -0.3915 -0.7235
   75SLPC  H13A 6663   4.041   1.657   7.167  0.1022  1.7481  0.2036
   75SLPC  H13B 6664   4.032   1.606   7.004  1.0446 -1.2422  0.4596
   75SLPC  H13C 6665   4.053   1.783   7.042 -1.3022  0.4326 -1.3083
   75SLPC   C14 6666   3.806   1.798   7.158 -0.4990  0.7014 -0.5979
   75SLPC  H14A 6667   3.698   1.801   7.155 -0.5024  1.0947 -0.2490
   75SLPC  H14B 6668   3.832   1.754   7.253 -1.5575 -0.3937 -0.7832
   75SLPC  H14C 6669   3.834   1.901   7.140 -1.0319  0.7328 -1.2935
   75SLPC   C15 6670   3.789   1.570   7.080  0.2826 -0.6083 -0.3040
   75SLPC  H15A 6671   3.819   1.522   7.171  1.0507  0.2564 -0.0884
   75SLPC  H15B 6672   3.683   1.589   7.091  0.5100  0.5233  0.0146
   75SLPC  H15C 6673   3.819   1.503   7.000  0.4595 -0.0355 -0.7231
   75SLPC   C12 6674   3.809   1.752   6.920 -0.0361  0.0570 -0.7586
   75SLPC  H12A 6675   3.843   1.854   6.921 -0.6102  0.3089  2.1139
   75SLPC  H12B 6676   3.701   1.755   6.930  0.0226 -1.3076  0.7407
   75SLPC   C11 6677   3.856   1.683   6.798 -0.3445  0.3972 -0.1378
   75SLPC  H11A 6678   3.966   1.702   6.798 -0.5080  1.3853 -0.1698
   75SLPC  H11B 6679   3.802   1.738   6.717 -0.3478 -1.2824 -1.3366
   75SLPC     P 6680   3.702   1.475   6.741  0.0446  0.1902  0.1261
   75SLPC   O13 6681   3.713   1.332   6.753 -0.0177  0.2104 -0.1357
   75SLPC   O14 6682   3.584   1.546   6.803 -0.2552  0.2543  0.2385
   75SLPC   O12 6683   3.831   1.541   6.805  0.4369 -0.0947 -0.1607
   75SLPC   O11 6684   3.724   1.515   6.589  0.3887 -0.1033 -0.3273
   75SLPC    C1 6685   3.835   1.477   6.508 -0.0327  0.0770 -0.5017
   75SLPC    HA 6686   3.822   1.544   6.420 -1.8202 -1.3911 -1.4220
   75SLPC    HB 6687   3.928   1.512   6.559 -0.4436  1.1838 -0.4844
   75SLPC    C2 6688   3.846   1.328   6.459 -0.2927 -0.3675 -0.4314
   75SLPC    HS 6689   3.883   1.268   6.546  0.2071 -1.2809 -1.2552
   75SLPC   O21 6690   3.950   1.325   6.364 -0.1184  0.1712 -0.2723
   75SLPC   C21 6691   4.000   1.207   6.336 -0.1678  0.0824  0.7831
   75SLPC   O22 6692   3.958   1.098   6.375 -0.1747 -0.0731  0.0404
   75SLPC   C22 6693   4.093   1.236   6.214  0.3265  0.2398  0.3447
   75SLPC   H2R 6694   4.088   1.341   6.179 -0.6375  0.1921  0.2927
   75SLPC   H2S 6695   4.197   1.220   6.248  1.0149 -0.0973 -1.7833
   75SLPC    C3 6696   3.716   1.264   6.408  1.1112 -0.1949  1.1430
   75SLPC    HX 6697   3.627   1.262   6.475  0.1933 -1.5424 -0.0610
   75SLPC    HY 6698   3.736   1.157   6.389  1.9005 -0.1745  1.8144
   75SLPC   O31 6699   3.668   1.323   6.285 -0.2596  0.3516  0.1327
   75SLPC   C31 6700   3.602   1.242   6.200  0.2738  0.2829 -0.1734
   75SLPC   O32 6701   3.573   1.122   6.215  0.6426 -0.2551  0.0029
   75SLPC   C32 6702   3.563   1.321   6.084 -0.4243 -0.1061  0.5159
   75SLPC   H2X 6703   3.642   1.390   6.049 -0.6224 -0.2269 -0.1810
   75SLPC   H2Y 6704   3.476   1.382   6.117 -1.9790 -1.8597 -0.1720
   75SLPC   C23 6705   4.065   1.136   6.101 -0.2313  1.1770  0.4729
   75SLPC   H3R 6706   3.959   1.131   6.070 -0.0106 -2.1256 -0.1069
   75SLPC   H3S 6707   4.077   1.036   6.147  0.2130  0.9054 -0.2216
   75SLPC   C24 6708   4.169   1.139   5.988 -0.9135 -0.6215 -0.1671
   75SLPC   H4R 6709   4.267   1.160   6.037 -0.7803  0.6765 -0.9446
   75SLPC   H4S 6710   4.154   1.233   5.931 -1.2073  0.0334  0.9381
   75SLPC   C25 6711   4.171   1.029   5.883  0.8299  0.1261 -0.3455
   75SLPC   H5R 6712   4.201   0.931   5.928 -1.0737  0.0795  0.9975
   75SLPC   H5S 6713   4.246   1.064   5.810  2.0938 -0.1826  0.7626
   75SLPC   C26 6714   4.038   1.003   5.809  0.3456 -0.4836  0.1680
   75SLPC   H6R 6715   3.958   0.957   5.870  1.7646 -2.8457  0.3834
   75SLPC   H6S 6716   4.068   0.930   5.730 -1.5679  1.1424 -2.2252
   75SLPC   C27 6717   3.983   1.119   5.731 -0.6833 -0.5014 -0.3408
   75SLPC   H7R 6718   4.054   1.151   5.651  0.6301 -0.8099  0.6770
   75SLPC   H7S 6719   3.979   1.210   5.795 -3.1511 -0.0676 -1.0178
   75SLPC   C28 6720   3.850   1.089   5.667 -0.1035 -0.0661 -0.1758
   75SLPC   H8R 6721   3.798   1.179   5.627  1.6062  0.8220 -0.5157
   75SLPC   H8S 6722   3.785   1.044   5.744 -0.2219 -1.0439 -0.8348
   75SLPC   C29 6723   3.864   0.986   5.556 -0.3437 -0.5302 -0.0428
   75SLPC   H9R 6724   3.859   0.882   5.590 -0.1058  0.3963  3.1488
   75SLPC  C210 6725   3.871   1.017   5.426 -0.0747  0.5694 -1.3441
   75SLPC  H10R 6726   3.870   0.935   5.352  0.8550 -0.8054  0.1152
   75SLPC  C211 6727   3.884   1.157   5.368 -0.1082  0.0266 -0.2170
   75SLPC  H11R 6728   3.982   1.160   5.316  0.8973 -0.9861  1.5303
   75SLPC  H11S 6729   3.892   1.230   5.451 -1.5514 -0.6529  0.5384
   75SLPC  C212 6730   3.757   1.201   5.296 -0.5232  0.5623  0.1823
   75SLPC  H12R 6731   3.668   1.193   5.360  0.9012  0.0890  2.1865
   75SLPC  C213 6732   3.745   1.201   5.165  0.4604  0.5552  0.3324
   75SLPC  H13R 6733   3.650   1.230   5.118 -0.1103 -0.3661  0.8934
   75SLPC  C214 6734   3.851   1.165   5.064  0.0098 -0.0117  0.5932
   75SLPC  H14R 6735   3.835   1.066   5.016 -2.8055  0.6101  0.0711
   75SLPC  H14S 6736   3.950   1.160   5.115  1.2596  0.5408 -1.6787
   75SLPC  C215 6737   3.848   1.283   4.960 -0.0879  0.7951 -0.4567
   75SLPC  H15R 6738   3.869   1.384   5.001  0.0403  1.3563 -1.8296
   75SLPC  H15S 6739   3.745   1.302   4.923 -0.3519  3.0123  1.2771
   75SLPC  C216 6740   3.935   1.264   4.833  0.7593  0.4144  0.3524
   75SLPC  H16R 6741   4.039   1.287   4.865  0.4090  0.6801  1.3372
   75SLPC  H16S 6742   3.915   1.334   4.748  0.0428  1.3645  1.2665
   75SLPC  C217 6743   3.931   1.125   4.778  0.2464  0.5112  0.3325
   75SLPC  H17R 6744   3.823   1.102   4.767  0.0092  2.1546 -1.0968
   75SLPC  H17S 6745   3.980   1.048   4.842 -1.5946 -2.1772 -1.3111
   75SLPC  C218 6746   3.998   1.122   4.642 -0.1696 -0.3995  0.8752
   75SLPC  H18R 6747   3.969   1.215   4.589 -0.2343 -0.7561  0.2783
   75SLPC  H18S 6748   3.968   1.033   4.583  1.5627  0.0504 -0.7710
   75SLPC  H18T 6749   4.109   1.123   4.651 -0.1041 -0.0715  0.0916
   75SLPC   C33 6750   3.523   1.239   5.962 -0.1865  0.0308  0.1864
   75SLPC   H3X 6751   3.440   1.169   5.983 -1.5042  1.7810  1.1255
   75SLPC   H3Y 6752   3.612   1.181   5.931  0.6312  0.8912  0.8711
   75SLPC   C34 6753   3.481   1.336   5.842 -0.5912 -0.4389 -0.1538
   75SLPC   H4X 6754   3.570   1.400   5.822 -0.2384 -0.8329  0.1547
   75SLPC   H4Y 6755   3.406   1.407   5.882  1.0008  1.4726 -0.3891
   75SLPC   C35 6756   3.437   1.273   5.717 -0.0442 -0.4682  0.5840
   75SLPC   H5X 6757   3.333   1.235   5.728 -0.1296 -0.7376 -0.9095
   75SLPC   H5Y 6758   3.500   1.185   5.694  1.5619  0.7026  0.3151
   75SLPC   C36 6759   3.452   1.380   5.609  0.1417 -0.0128  0.5693
   75SLPC   H6X 6760   3.562   1.385   5.592  0.4189 -2.5488  1.3221
   75SLPC   H6Y 6761   3.407   1.474   5.649  0.2167  0.5989 -0.7177
   75SLPC   C37 6762   3.395   1.322   5.485  0.0359  0.4901  0.5856
   75SLPC   H7X 6763   3.285   1.321   5.498  0.3256  0.6844  3.5661
   75SLPC   H7Y 6764   3.435   1.218   5.477  1.6086  1.1977 -1.8336
   75SLPC   C38 6765   3.414   1.402   5.355 -0.1668  0.1348 -0.5665
   75SLPC   H8X 6766   3.517   1.386   5.318 -0.2108 -3.6161  0.5120
   75SLPC   H8Y 6767   3.408   1.512   5.375  0.5578  0.0938 -0.0861
   75SLPC   C39 6768   3.307   1.363   5.254  0.1045 -0.5203  0.5661
   75SLPC   H9X 6769   3.204   1.378   5.291 -0.0591 -0.7463  0.2058
   75SLPC   H9Y 6770   3.320   1.254   5.233  1.3955 -0.7585  2.3913
   75SLPC  C310 6771   3.317   1.427   5.113 -0.0949 -0.1402 -0.3147
   75SLPC  H10X 6772   3.309   1.536   5.136 -2.3056 -0.2810 -0.2135
   75SLPC  H10Y 6773   3.232   1.398   5.048  2.1299  0.9301 -4.0608
   75SLPC  C311 6774   3.445   1.387   5.035 -0.3088 -0.8091  0.1367
   75SLPC  H11X 6775   3.527   1.384   5.110 -0.9592 -0.2691  0.8873
   75SLPC  H11Y 6776   3.454   1.455   4.948  0.2680 -0.4578  0.4726
   75SLPC  C312 6777   3.431   1.252   4.964  0.1635 -0.1725  0.4480
   75SLPC  H12X 6778   3.388   1.182   5.039 -3.1461  0.3728 -0.7834
   75SLPC  H12Y 6779   3.525   1.197   4.940 -1.0197 -1.7283 -0.8497
   75SLPC  C313 6780   3.347   1.263   4.837 -0.4870 -0.0304 -0.2968
   75SLPC  H13X 6781   3.394   1.331   4.763  0.4842 -3.2809 -2.8783
   75SLPC  H13Y 6782   3.251   1.313   4.860  0.5081  2.1479 -0.5764
   75SLPC  C314 6783   3.324   1.128   4.763  0.9715  0.3877  0.6487
   75SLPC  H14X 6784   3.252   1.064   4.819  1.9202 -0.3281  1.0686
   75SLPC  H14Y 6785   3.423   1.078   4.759  1.1922  0.8553  0.0373
   75SLPC  C315 6786   3.277   1.138   4.609 -0.0798 -0.3480  0.0063
   75SLPC  H15X 6787   3.194   1.212   4.603 -0.7111 -1.0126  0.3582
   75SLPC  H15Y 6788   3.242   1.039   4.575  0.0480  0.4918 -2.8173
   75SLPC  C316 6789   3.388   1.185   4.514  0.1575 -0.1703  0.2079
   75SLPC  H16X 6790   3.474   1.115   4.522 -0.2757 -0.6000  1.2544
   75SLPC  H16Y 6791   3.432   1.271   4.569 -0.6760 -0.1459  0.8595
   75SLPC  C317 6792   3.343   1.206   4.371  0.4410 -0.1716  0.3886
   75SLPC  H17X 6793   3.392   1.302   4.343 -0.5142  1.1545  2.9453
   75SLPC  H17Y 6794   3.237   1.238   4.370  1.0366  1.9949  0.0907
   75SLPC  C318 6795   3.388   1.095   4.273  0.5493  0.4168  0.4858
   75SLPC  H18X 6796   3.367   1.119   4.167  2.1577 -2.3519 -0.5837
   75SLPC  H18Y 6797   3.315   1.015   4.299  0.7547  0.5553  1.5179
   75SLPC  H18Z 6798   3.491   1.057   4.288  0.3284 -1.8033 -2.5582
   76SLPC     N 6799   5.687   0.137   6.534 -0.4240  0.1110  0.2699
   76SLPC   C13 6800   5.561   0.206   6.555  0.9975 -0.7665  0.2119
   76SLPC  H13A 6801   5.516   0.245   6.464  0.0909 -2.5978 -0.1936
   76SLPC  H13B 6802   5.483   0.137   6.585  1.0701 -1.3712 -0.9176
   76SLPC  H13C 6803   5.570   0.288   6.624 -1.3265 -0.8792  0.7310
   76SLPC   C14 6804   5.659  -0.007   6.504 -0.4589 -0.3127 -0.2644
   76SLPC  H14A 6805   5.749  -0.062   6.482 -0.7395 -0.2527 -1.6859
   76SLPC  H14B 6806   5.602  -0.045   6.587  1.9690 -1.9581  0.7778
   76SLPC  H14C 6807   5.607   0.006   6.410 -1.3487 -1.0966  0.1040
   76SLPC   C15 6808   5.770   0.149   6.653 -0.8858  0.4704 -0.2004
   76SLPC  H15A 6809   5.753   0.065   6.719  0.8227 -1.2176 -1.7851
   76SLPC  H15B 6810   5.877   0.139   6.637 -0.7219 -1.6276  1.7232
   76SLPC  H15C 6811   5.751   0.241   6.707  1.7178  0.5222  0.7955
   76SLPC   C12 6812   5.770   0.205   6.421  0.3776  0.1570 -0.2731
   76SLPC  H12A 6813   5.870   0.165   6.426  0.6517  0.9773  3.5327
   76SLPC  H12B 6814   5.787   0.309   6.446  1.2386 -0.1629  0.5151
   76SLPC   C11 6815   5.710   0.195   6.278  0.3325 -0.7157  0.2457
   76SLPC  H11A 6816   5.687   0.090   6.248 -0.3425 -0.4674 -0.1097
   76SLPC  H11B 6817   5.786   0.230   6.205  0.4359 -0.4862  0.4612
   76SLPC     P 6818   5.632   0.435   6.270 -0.1144  0.1263 -0.0788
   76SLPC   O13 6819   5.580   0.494   6.389 -0.0779 -0.1501 -0.0454
   76SLPC   O14 6820   5.773   0.457   6.241  0.2093 -0.0544  0.0845
   76SLPC   O12 6821   5.596   0.282   6.261  0.2241 -0.2910 -0.7989
   76SLPC   O11 6822   5.545   0.498   6.161  0.7365 -0.5576 -0.4240
   76SLPC    C1 6823   5.555   0.458   6.021 -0.3286 -0.8555 -0.3765
   76SLPC    HA 6824   5.612   0.366   5.997  0.5709  0.0170 -1.7607
   76SLPC    HB 6825   5.454   0.446   5.975  0.0479  0.6339 -1.6660
   76SLPC    C2 6826   5.624   0.576   5.944  0.6381 -0.8297 -0.0709
   76SLPC    HS 6827   5.720   0.596   5.997  0.6345 -0.5356 -0.1737
   76SLPC   O21 6828   5.541   0.691   5.945  0.2113  0.1467  0.4445
   76SLPC   C21 6829   5.597   0.809   5.938  0.1613 -0.5787  0.3647
   76SLPC   O22 6830   5.716   0.834   5.949 -0.1165 -0.2884 -1.0621
   76SLPC   C22 6831   5.495   0.921   5.902  0.1735 -0.3009 -0.6154
   76SLPC   H2R 6832   5.405   0.865   5.870  0.4002 -0.6145 -0.7120
   76SLPC   H2S 6833   5.475   0.981   5.994 -3.8766  0.2026 -1.6128
   76SLPC    C3 6834   5.647   0.527   5.795  0.3592 -0.2939  0.8482
   76SLPC    HX 6835   5.548   0.504   5.751  0.0594  0.9003  0.8544
   76SLPC    HY 6836   5.687   0.423   5.794 -0.3374 -0.5617  0.2640
   76SLPC   O31 6837   5.720   0.619   5.707  0.1371  0.4101  0.1124
   76SLPC   C31 6838   5.833   0.650   5.750  0.1203  0.8141  0.1496
   76SLPC   O32 6839   5.903   0.585   5.831 -0.3341 -0.4554 -0.3640
   76SLPC   C32 6840   5.868   0.797   5.702 -0.0129 -0.2177 -0.9472
   76SLPC   H2X 6841   5.881   0.865   5.789 -1.2749 -0.5067 -0.5150
   76SLPC   H2Y 6842   5.778   0.834   5.648  0.9594  2.9084 -0.6419
   76SLPC   C23 6843   5.554   1.005   5.786 -1.4427  0.1556  0.0759
   76SLPC   H3R 6844   5.665   1.005   5.790 -1.4189  0.0188 -0.4707
   76SLPC   H3S 6845   5.514   1.108   5.798  2.1865  1.9571 -1.7044
   76SLPC   C24 6846   5.515   0.966   5.640 -0.2868  0.2870  0.0333
   76SLPC   H4R 6847   5.405   0.967   5.623 -0.1349 -0.8002 -1.1454
   76SLPC   H4S 6848   5.554   0.863   5.622  1.4862  0.8551  0.4375
   76SLPC   C25 6849   5.584   1.055   5.536  0.3053 -0.1282 -0.1006
   76SLPC   H5R 6850   5.693   1.040   5.547  0.3076 -1.1304 -1.2878
   76SLPC   H5S 6851   5.583   1.164   5.559  1.5760 -0.0783 -0.2133
   76SLPC   C26 6852   5.544   1.023   5.385 -1.0500  0.2898 -0.0249
   76SLPC   H6R 6853   5.440   1.058   5.365 -0.6946  1.6713  0.4661
   76SLPC   H6S 6854   5.553   0.915   5.361 -0.0300  0.3021  0.2961
   76SLPC   C27 6855   5.622   1.104   5.283 -0.0321 -0.0076  0.6937
   76SLPC   H7R 6856   5.728   1.070   5.291 -0.3590 -1.1540  0.2960
   76SLPC   H7S 6857   5.630   1.209   5.318  2.1787 -0.6399  2.3340
   76SLPC   C28 6858   5.582   1.087   5.132 -0.6620  0.6294  0.0195
   76SLPC   H8R 6859   5.524   0.995   5.110  2.1131 -1.6946  1.6522
   76SLPC   H8S 6860   5.679   1.068   5.081 -2.4111 -0.3058 -3.2355
   76SLPC   C29 6861   5.522   1.214   5.075 -0.2658  0.6631 -0.2255
   76SLPC   H9R 6862   5.499   1.290   5.151  0.6094 -0.7581  1.5235
   76SLPC  C210 6863   5.495   1.239   4.946  0.2065 -0.1730  0.3289
   76SLPC  H10R 6864   5.429   1.324   4.921  1.1045  0.6255  0.5986
   76SLPC  C211 6865   5.521   1.141   4.845  0.9855  0.0536 -0.1302
   76SLPC  H11R 6866   5.462   1.048   4.858 -0.6705  0.6286 -2.7979
   76SLPC  H11S 6867   5.627   1.106   4.847  0.5184 -1.7347 -2.3473
   76SLPC  C212 6868   5.490   1.188   4.701 -0.5216  0.4630 -0.1309
   76SLPC  H12R 6869   5.444   1.288   4.698  1.0541  1.2214 -0.2880
   76SLPC  C213 6870   5.527   1.134   4.585 -0.2226  0.2608 -0.2443
   76SLPC  H13R 6871   5.487   1.179   4.493 -0.1466 -0.1463 -0.4779
   76SLPC  C214 6872   5.592   0.994   4.587 -0.2754 -0.4224  0.0600
   76SLPC  H14R 6873   5.563   0.933   4.675 -2.8149  0.6197  0.0233
   76SLPC  H14S 6874   5.703   0.995   4.588 -0.2624 -1.1752 -0.1371
   76SLPC  C215 6875   5.552   0.893   4.474 -0.1253 -0.3492 -0.2624
   76SLPC  H15R 6876   5.587   0.939   4.379 -0.5040  0.9558  0.2151
   76SLPC  H15S 6877   5.441   0.904   4.473  0.0258  2.4262  1.4879
   76SLPC  C216 6878   5.606   0.747   4.489  0.5149  0.3664 -0.3549
   76SLPC  H16R 6879   5.542   0.683   4.554 -1.3866  1.2732 -1.2566
   76SLPC  H16S 6880   5.708   0.755   4.532  0.8706 -1.9272 -0.6557
   76SLPC  C217 6881   5.611   0.683   4.350  0.2733 -0.0506  0.2060
   76SLPC  H17R 6882   5.653   0.749   4.271  1.5676 -1.9823 -0.7699
   76SLPC  H17S 6883   5.505   0.663   4.325 -0.1414  1.6656  0.4365
   76SLPC  C218 6884   5.697   0.553   4.349 -0.8343 -0.4215 -0.0224
   76SLPC  H18R 6885   5.627   0.472   4.379 -1.6796  0.5726  0.7914
   76SLPC  H18S 6886   5.780   0.566   4.421  1.7494 -0.0727 -2.8428
   76SLPC  H18T 6887   5.731   0.519   4.249  0.8148 -0.3677  0.4979
   76SLPC   C33 6888   6.003   0.797   5.622  0.6947 -0.0733  0.2478
   76SLPC   H3X 6889   6.082   0.759   5.690 -0.3615 -0.7933  1.1041
   76SLPC   H3Y 6890   6.017   0.903   5.593 -1.2982  0.0348 -0.4944
   76SLPC   C34 6891   5.995   0.714   5.484 -0.1306  0.5757  0.2211
   76SLPC   H4X 6892   5.963   0.609   5.499  2.2655 -0.5192 -1.6983
   76SLPC   H4Y 6893   6.090   0.700   5.428  0.3067 -1.2698  1.3296
   76SLPC   C35 6894   5.886   0.761   5.388  0.4974 -0.2337 -0.1753
   76SLPC   H5X 6895   5.909   0.866   5.358  0.2840 -0.7909 -2.4930
   76SLPC   H5Y 6896   5.788   0.765   5.440  2.4198 -1.4705  3.9714
   76SLPC   C36 6897   5.852   0.686   5.255 -1.0613 -0.2430  0.4304
   76SLPC   H6X 6898   5.846   0.578   5.282 -0.0149 -0.2144  0.8165
   76SLPC   H6Y 6899   5.937   0.691   5.184 -1.0722 -1.9065  0.2735
   76SLPC   C37 6900   5.725   0.734   5.193  0.5019  0.0377 -0.0219
   76SLPC   H7X 6901   5.734   0.841   5.165  0.9830 -0.5515 -2.2762
   76SLPC   H7Y 6902   5.648   0.732   5.273 -0.7647 -0.3197 -1.2267
   76SLPC   C38 6903   5.681   0.657   5.065 -0.4607 -0.3383  0.6904
   76SLPC   H8X 6904   5.697   0.547   5.071  1.1891 -0.1220  0.8292
   76SLPC   H8Y 6905   5.750   0.677   4.980 -0.3967 -1.1040  0.5609
   76SLPC   C39 6906   5.536   0.684   5.024 -0.3170  0.1816  0.2747
   76SLPC   H9X 6907   5.520   0.776   4.962 -3.3658 -0.2514  0.2291
   76SLPC   H9Y 6908   5.465   0.696   5.109 -1.7626  1.8083 -1.0570
   76SLPC  C310 6909   5.483   0.566   4.937  0.0159 -0.3338 -0.7913
   76SLPC  H10X 6910   5.372   0.575   4.934 -0.0813  0.3547  2.0254
   76SLPC  H10Y 6911   5.505   0.470   4.987  1.9105  0.4310 -0.0853
   76SLPC  C311 6912   5.534   0.573   4.796 -0.5056 -0.1656 -0.0349
   76SLPC  H11X 6913   5.639   0.608   4.804 -1.4212  3.1723 -1.0630
   76SLPC  H11Y 6914   5.483   0.647   4.731  1.2258  0.1015 -1.1471
   76SLPC  C312 6915   5.506   0.442   4.744 -0.3866 -0.7624  0.5475
   76SLPC  H12X 6916   5.523   0.356   4.812 -0.6728 -0.6688  0.7385
   76SLPC  H12Y 6917   5.556   0.414   4.649  0.1359  0.4724  0.4435
   76SLPC  C313 6918   5.361   0.414   4.707  0.3765  0.8782 -0.2921
   76SLPC  H13X 6919   5.327   0.488   4.631  0.3137  0.6542 -0.4800
   76SLPC  H13Y 6920   5.306   0.422   4.803  1.1088 -3.3532  0.6368
   76SLPC  C314 6921   5.338   0.274   4.654  0.1513 -0.5421  0.4836
   76SLPC  H14X 6922   5.399   0.208   4.720 -0.5238  0.0223  1.7107
   76SLPC  H14Y 6923   5.394   0.256   4.560  0.9646 -0.6852  0.9848
   76SLPC  C315 6924   5.189   0.234   4.653  0.4172  0.7245  0.1381
   76SLPC  H15X 6925   5.158   0.261   4.757  0.3221  1.0626  0.0248
   76SLPC  H15Y 6926   5.181   0.124   4.647  2.0232  0.5266  1.0048
   76SLPC  C316 6927   5.105   0.316   4.550  0.6217 -0.2772  0.3484
   76SLPC  H16X 6928   5.118   0.426   4.558 -0.5965  0.0402 -1.3823
   76SLPC  H16Y 6929   4.998   0.299   4.574 -0.3865  1.6729 -2.2329
   76SLPC  C317 6930   5.151   0.281   4.407  0.1701 -0.3556  0.1691
   76SLPC  H17X 6931   5.147   0.175   4.373 -0.5776 -1.2635  2.7887
   76SLPC  H17Y 6932   5.257   0.312   4.396  0.7444 -2.7010 -1.8117
   76SLPC  C318 6933   5.052   0.350   4.309  0.1308  0.1017 -0.8577
   76SLPC  H18X 6934   4.953   0.301   4.298  0.5616 -1.3846  1.2715
   76SLPC  H18Y 6935   5.089   0.363   4.205 -0.9534 -0.9989 -1.4087
   76SLPC  H18Z 6936   5.055   0.456   4.343  1.0956 -0.7967  2.1740
   77SLPC     N 6937   4.488   2.151   6.828 -0.5257 -0.0326  0.0630
   77SLPC   C13 6938   4.629   2.206   6.850  0.3370  0.1245  0.3007
   77SLPC  H13A 6939   4.659   2.299   6.804  0.0179  0.4032  0.6528
   77SLPC  H13B 6940   4.635   2.228   6.955  2.4025  0.7712  0.0955
   77SLPC  H13C 6941   4.710   2.141   6.822  1.5210  1.8505 -0.4632
   77SLPC   C14 6942   4.389   2.245   6.877  0.0053  0.6526 -0.4743
   77SLPC  H14A 6943   4.395   2.254   6.985 -0.1530  0.2498 -0.4297
   77SLPC  H14B 6944   4.412   2.334   6.821 -1.6992  0.2992 -1.8209
   77SLPC  H14C 6945   4.289   2.217   6.847  0.0935 -0.4848  0.2260
   77SLPC   C15 6946   4.484   2.019   6.896  0.0042 -0.2721 -0.1657
   77SLPC  H15A 6947   4.479   2.049   7.000  2.1070  2.1582 -0.6500
   77SLPC  H15B 6948   4.397   1.964   6.865 -1.0241 -0.2022  2.3571
   77SLPC  H15C 6949   4.568   1.953   6.882  0.5573  0.8184 -2.3994
   77SLPC   C12 6950   4.471   2.129   6.677 -0.2812 -0.2975  0.4312
   77SLPC  H12A 6951   4.550   2.070   6.632  0.2461 -0.2612  1.2863
   77SLPC  H12B 6952   4.465   2.227   6.631  1.7049  0.0343  0.7683
   77SLPC   C11 6953   4.344   2.055   6.639  0.3625  0.2925 -0.1941
   77SLPC  H11A 6954   4.358   1.953   6.681 -0.9540  0.0437 -0.3160
   77SLPC  H11B 6955   4.343   2.036   6.529 -0.8557  1.3905 -0.3910
   77SLPC     P 6956   4.117   2.179   6.607  0.1292 -0.0751  0.2773
   77SLPC   O13 6957   4.003   2.214   6.697 -0.0442  0.4547  0.2436
   77SLPC   O14 6958   4.171   2.289   6.529 -0.5467 -0.6317  0.4563
   77SLPC   O12 6959   4.230   2.115   6.696  0.0341  0.3220  0.1714
   77SLPC   O11 6960   4.082   2.063   6.512 -0.2739 -0.0365  0.3777
   77SLPC    C1 6961   4.031   1.939   6.566  1.0335 -0.2857 -0.1338
   77SLPC    HA 6962   4.097   1.901   6.647  2.5883  0.8054 -0.8301
   77SLPC    HB 6963   3.928   1.947   6.606  0.4966  2.7393 -1.8052
   77SLPC    C2 6964   4.013   1.830   6.452  0.8156  0.1627 -0.6201
   77SLPC    HS 6965   3.994   1.735   6.507 -2.5750 -0.5095 -2.6811
   77SLPC   O21 6966   4.128   1.821   6.367  0.0403 -0.2085 -0.2164
   77SLPC   C21 6967   4.224   1.751   6.419 -0.0098  0.7738  0.0646
   77SLPC   O22 6968   4.224   1.700   6.531 -0.4309  0.0162  0.2991
   77SLPC   C22 6969   4.326   1.735   6.308  0.1169 -0.2096  1.1293
   77SLPC   H2R 6970   4.339   1.830   6.252  0.7971  0.4961  2.4254
   77SLPC   H2S 6971   4.421   1.712   6.360  1.4145  1.4199 -0.4288
   77SLPC    C3 6972   3.880   1.857   6.367  0.3105 -0.5767  0.3766
   77SLPC    HX 6973   3.905   1.939   6.296  2.5739 -2.1095 -0.7462
   77SLPC    HY 6974   3.807   1.893   6.442 -0.8828  0.7148 -1.3286
   77SLPC   O31 6975   3.841   1.741   6.298 -0.1219  0.2953 -0.2690
   77SLPC   C31 6976   3.883   1.726   6.168  0.1403  0.3293 -0.5928
   77SLPC   O32 6977   3.923   1.815   6.095  0.3628  0.0769 -0.0710
   77SLPC   C32 6978   3.834   1.584   6.117  0.0016 -0.1979 -0.5811
   77SLPC   H2X 6979   3.728   1.581   6.150  0.1800  1.5013  0.2585
   77SLPC   H2Y 6980   3.883   1.502   6.174  1.0996  1.7628  1.4942
   77SLPC   C23 6981   4.289   1.612   6.226  0.4343 -0.0143 -0.7374
   77SLPC   H3R 6982   4.191   1.617   6.174  0.8892 -1.3555 -1.7795
   77SLPC   H3S 6983   4.283   1.529   6.300 -0.9017  1.8412  1.3595
   77SLPC   C24 6984   4.385   1.554   6.126  0.8074  0.2405  0.7703
   77SLPC   H4R 6985   4.481   1.545   6.180  0.8037 -1.6151  0.5301
   77SLPC   H4S 6986   4.407   1.621   6.041 -1.1010  0.3293  0.2986
   77SLPC   C25 6987   4.356   1.406   6.088 -0.0518 -0.1788  0.4917
   77SLPC   H5R 6988   4.254   1.403   6.043  0.0150 -1.7393  0.3980
   77SLPC   H5S 6989   4.348   1.353   6.185 -4.0817 -2.0903 -0.6551
   77SLPC   C26 6990   4.461   1.342   5.993  0.0007 -0.4575 -0.1662
   77SLPC   H6R 6991   4.445   1.232   5.988 -2.4906 -0.3159  2.4332
   77SLPC   H6S 6992   4.567   1.359   6.023  0.2000 -0.9674 -0.5613
   77SLPC   C27 6993   4.422   1.396   5.846 -0.1586  0.2799 -0.7323
   77SLPC   H7R 6994   4.460   1.500   5.853 -0.0977  0.1361  4.3537
   77SLPC   H7S 6995   4.311   1.400   5.839 -0.1535  1.6647 -0.2523
   77SLPC   C28 6996   4.485   1.313   5.734  0.2018  0.1250 -0.4750
   77SLPC   H8R 6997   4.429   1.328   5.639  1.0925 -0.2767 -1.0714
   77SLPC   H8S 6998   4.478   1.207   5.769  2.8052  0.2837  0.7092
   77SLPC   C29 6999   4.628   1.332   5.709 -0.3966 -0.1544 -0.1429
   77SLPC   H9R 7000   4.691   1.327   5.799  1.3942 -1.3901 -1.4084
   77SLPC  C210 7001   4.689   1.347   5.587  0.3154  0.1958  0.2167
   77SLPC  H10R 7002   4.795   1.376   5.588  0.0813  1.0756  0.5451
   77SLPC  C211 7003   4.627   1.363   5.447 -0.0349  0.6933 -0.1487
   77SLPC  H11R 7004   4.654   1.464   5.409 -0.3568 -0.3027 -3.3455
   77SLPC  H11S 7005   4.516   1.364   5.449 -0.0498  0.1520  1.9231
   77SLPC  C212 7006   4.691   1.271   5.340  0.2127 -0.2501 -0.4208
   77SLPC  H12R 7007   4.799   1.255   5.341  0.5255  1.5187 -1.6007
   77SLPC  C213 7008   4.623   1.233   5.226 -0.0216  0.2767  0.5900
   77SLPC  H13R 7009   4.686   1.179   5.153  0.5258  0.8901  0.6015
   77SLPC  C214 7010   4.488   1.272   5.182 -0.3029  0.1132  0.3251
   77SLPC  H14R 7011   4.437   1.327   5.264  0.4754 -1.3644  1.8908
   77SLPC  H14S 7012   4.440   1.172   5.182 -0.4819  0.1992  0.2466
   77SLPC  C215 7013   4.488   1.354   5.054 -0.0195 -0.0628  0.3928
   77SLPC  H15R 7014   4.552   1.307   4.976 -0.6578 -0.3251  0.0190
   77SLPC  H15S 7015   4.524   1.458   5.069  0.8623 -0.2558 -0.3034
   77SLPC  C216 7016   4.348   1.355   4.986  0.4563 -0.6392  0.7494
   77SLPC  H16R 7017   4.281   1.397   5.064  0.5912 -3.6074  2.5914
   77SLPC  H16S 7018   4.311   1.251   4.973 -1.8573  0.0594  1.2035
   77SLPC  C217 7019   4.337   1.429   4.851  0.1422  1.2754 -0.3664
   77SLPC  H17R 7020   4.248   1.402   4.790  2.1030 -1.8255 -2.1337
   77SLPC  H17S 7021   4.416   1.396   4.780 -0.8749 -2.5417  0.0315
   77SLPC  C218 7022   4.340   1.579   4.856  0.0982 -0.3723 -0.3336
   77SLPC  H18R 7023   4.442   1.601   4.895  1.6542 -2.6982 -2.6788
   77SLPC  H18S 7024   4.252   1.624   4.906  1.3852  0.9997  0.8146
   77SLPC  H18T 7025   4.336   1.607   4.748 -3.1176 -1.1233 -0.5081
   77SLPC   C33 7026   3.845   1.570   5.962 -0.6606  0.2484  0.2075
   77SLPC   H3X 7027   3.835   1.665   5.904  0.7096 -0.3610 -1.0994
   77SLPC   H3Y 7028   3.758   1.515   5.922 -1.2816  0.6932  0.9146
   77SLPC   C34 7029   3.980   1.513   5.915 -0.1556 -0.3042 -0.1188
   77SLPC   H4X 7030   3.979   1.402   5.925 -0.0277 -0.5051 -2.0570
   77SLPC   H4Y 7031   4.063   1.547   5.982  0.5019 -0.7309 -0.6970
   77SLPC   C35 7032   4.017   1.546   5.775  0.0274  0.4943  0.0080
   77SLPC   H5X 7033   4.097   1.472   5.756 -1.1778 -0.7036 -0.6633
   77SLPC   H5Y 7034   4.061   1.648   5.780  0.5611  0.2335  0.7188
   77SLPC   C36 7035   3.906   1.542   5.674  0.1693 -0.2410  0.5518
   77SLPC   H6X 7036   3.851   1.639   5.679  1.3654  0.5361 -0.5805
   77SLPC   H6Y 7037   3.851   1.453   5.711  0.1776 -0.3082  0.4045
   77SLPC   C37 7038   3.955   1.513   5.530  0.2580  0.1701 -0.5988
   77SLPC   H7X 7039   3.868   1.513   5.462  1.4666  0.7342 -2.2069
   77SLPC   H7Y 7040   3.994   1.410   5.535 -1.3555 -0.4115  0.9382
   77SLPC   C38 7041   4.074   1.597   5.479 -0.6362  0.0991 -0.0862
   77SLPC   H8X 7042   4.170   1.582   5.532  0.6569  1.6797 -1.8543
   77SLPC   H8Y 7043   4.053   1.706   5.485  0.4309  0.3297 -0.3263
   77SLPC   C39 7044   4.100   1.563   5.330  0.4364  0.0089 -0.0390
   77SLPC   H9X 7045   4.119   1.453   5.330  0.2802 -0.0801  2.3124
   77SLPC   H9Y 7046   4.189   1.614   5.286 -0.4602  2.4820  0.8310
   77SLPC  C310 7047   3.981   1.612   5.236 -0.5378  0.3698 -0.8152
   77SLPC  H10X 7048   3.933   1.704   5.277  0.5202  0.9298 -0.7917
   77SLPC  H10Y 7049   3.910   1.527   5.233  0.1310 -0.1773 -1.3673
   77SLPC  C311 7050   4.018   1.624   5.087  0.1150  0.2597 -0.3975
   77SLPC  H11X 7051   4.042   1.520   5.057  0.0290  0.0530  0.2319
   77SLPC  H11Y 7052   4.113   1.679   5.072  0.3829 -0.2374 -0.5423
   77SLPC  C312 7053   3.889   1.680   5.026 -0.1555 -0.1330 -0.1685
   77SLPC  H12X 7054   3.852   1.760   5.094 -1.4791 -0.2909 -0.6811
   77SLPC  H12Y 7055   3.811   1.601   5.021 -0.6624  0.4414 -1.7241
   77SLPC  C313 7056   3.918   1.739   4.890  0.1099  0.3364 -0.4423
   77SLPC  H13X 7057   4.026   1.760   4.882  0.7272 -2.6442 -1.1277
   77SLPC  H13Y 7058   3.866   1.838   4.890 -2.1894 -0.7351  1.8181
   77SLPC  C314 7059   3.864   1.648   4.781  0.2467  0.6668  0.3227
   77SLPC  H14X 7060   3.926   1.556   4.769  0.4395  0.8473 -0.1034
   77SLPC  H14Y 7061   3.864   1.715   4.692 -1.9226 -0.1876 -0.3845
   77SLPC  C315 7062   3.717   1.618   4.793  0.3293 -0.2845 -0.8471
   77SLPC  H15X 7063   3.681   1.721   4.814 -1.2611 -1.2306  1.4772
   77SLPC  H15Y 7064   3.686   1.542   4.869 -1.9410 -1.3146 -2.6728
   77SLPC  C316 7065   3.658   1.565   4.664  0.3597  0.7286 -0.6784
   77SLPC  H16X 7066   3.673   1.455   4.675  1.7414  1.0627  1.1690
   77SLPC  H16Y 7067   3.710   1.602   4.573 -0.1000 -0.1430 -1.3223
   77SLPC  C317 7068   3.507   1.596   4.652 -0.1121 -0.0997 -0.1938
   77SLPC  H17X 7069   3.480   1.704   4.657  1.7453  0.3273  1.6231
   77SLPC  H17Y 7070   3.450   1.547   4.734 -3.2095  1.2310 -1.3733
   77SLPC  C318 7071   3.442   1.539   4.527 -0.3526  0.2344 -0.0673
   77SLPC  H18X 7072   3.338   1.513   4.556 -0.8873  1.7491 -0.4830
   77SLPC  H18Y 7073   3.505   1.460   4.483  2.4870  2.4056 -0.1517
   77SLPC  H18Z 7074   3.431   1.622   4.454 -2.4456 -0.0621 -0.1525
   78SLPC     N 7075   6.328   4.636   6.793  0.0361  0.1382 -0.3295
   78SLPC   C13 7076   6.239   4.647   6.911  0.0827  0.2279 -0.0347
   78SLPC  H13A 7077   6.302   4.645   6.999  0.4445  0.0024 -0.2923
   78SLPC  H13B 7078   6.178   4.736   6.914  0.2786  0.5249 -2.6665
   78SLPC  H13C 7079   6.170   4.565   6.923  3.1188 -2.4287  0.8703
   78SLPC   C14 7080   6.379   4.494   6.792  1.1074  0.5948 -0.7057
   78SLPC  H14A 7081   6.459   4.501   6.721  1.6311  1.0553 -0.0840
   78SLPC  H14B 7082   6.431   4.474   6.885  1.5047  0.8121 -0.8811
   78SLPC  H14C 7083   6.298   4.423   6.782  1.4609  0.1234 -0.2962
   78SLPC   C15 7084   6.435   4.743   6.809 -0.3772 -0.0809  0.0619
   78SLPC  H15A 7085   6.396   4.835   6.850 -1.8864  1.3491 -4.0016
   78SLPC  H15B 7086   6.506   4.712   6.884 -2.6766  1.1736  2.9638
   78SLPC  H15C 7087   6.471   4.761   6.708 -0.3898  1.1427  0.2608
   78SLPC   C12 7088   6.244   4.665   6.666  0.3289 -0.2264 -0.2165
   78SLPC  H12A 7089   6.202   4.764   6.678  1.0614  0.1946 -0.9646
   78SLPC  H12B 7090   6.165   4.593   6.659 -0.4893  0.5710  0.6048
   78SLPC   C11 7091   6.318   4.661   6.533 -0.3128 -0.0131  0.5090
   78SLPC  H11A 7092   6.406   4.728   6.542  0.9088 -1.7272  2.2154
   78SLPC  H11B 7093   6.263   4.706   6.448  1.9226  0.1711 -0.9213
   78SLPC     P 7094   6.262   4.420   6.449 -0.0474 -0.0957 -0.0725
   78SLPC   O13 7095   6.289   4.287   6.502  0.2828 -0.0642 -0.2575
   78SLPC   O14 7096   6.125   4.478   6.469 -0.4420  0.1170  0.3176
   78SLPC   O12 7097   6.365   4.531   6.492 -0.6817  0.1587 -0.0943
   78SLPC   O11 7098   6.283   4.411   6.294 -0.1622 -0.1950 -0.7211
   78SLPC    C1 7099   6.405   4.418   6.215  0.5318  0.0426 -0.1287
   78SLPC    HA 7100   6.485   4.382   6.282 -1.3407 -1.8935  1.2175
   78SLPC    HB 7101   6.402   4.338   6.137 -0.0903  0.9601 -1.0817
   78SLPC    C2 7102   6.419   4.563   6.169  0.3142 -0.2998  0.5613
   78SLPC    HS 7103   6.422   4.622   6.263 -2.0579 -0.9629  1.1179
   78SLPC   O21 7104   6.305   4.606   6.099 -0.0356 -0.5605  0.4382
   78SLPC   C21 7105   6.289   4.738   6.085  0.1214  0.1020  0.4951
   78SLPC   O22 7106   6.352   4.821   6.144 -0.4725 -0.0346 -0.3930
   78SLPC   C22 7107   6.183   4.753   5.975 -0.4956 -0.1508 -0.5717
   78SLPC   H2R 7108   6.092   4.711   6.023  0.1370 -0.7042  0.1428
   78SLPC   H2S 7109   6.166   4.862   5.959  0.9656  0.1415 -0.2492
   78SLPC    C3 7110   6.548   4.578   6.090 -0.2953 -0.8964  0.0536
   78SLPC    HX 7111   6.619   4.519   6.151 -1.3782 -2.8025 -0.4451
   78SLPC    HY 7112   6.575   4.685   6.074  1.4714 -1.5624 -1.8175
   78SLPC   O31 7113   6.529   4.513   5.967 -0.6307 -0.0877  0.5725
   78SLPC   C31 7114   6.631   4.520   5.887  0.0915  0.2817 -0.4904
   78SLPC   O32 7115   6.737   4.576   5.909  0.2713  0.3353 -0.2774
   78SLPC   C32 7116   6.593   4.459   5.751  0.2085  0.2633  0.1626
   78SLPC   H2X 7117   6.509   4.520   5.711 -0.8544 -1.2690 -0.0232
   78SLPC   H2Y 7118   6.560   4.353   5.759  0.8880  0.0172 -0.2203
   78SLPC   C23 7119   6.227   4.680   5.851 -0.3033  0.1490  0.4161
   78SLPC   H3R 7120   6.234   4.569   5.861  1.5224 -0.0049 -1.7644
   78SLPC   H3S 7121   6.334   4.706   5.840  0.1855 -1.6789  0.4855
   78SLPC   C24 7122   6.162   4.714   5.718 -0.2709  0.0495  0.3416
   78SLPC   H4R 7123   6.052   4.708   5.728 -0.1108 -1.3269  1.7671
   78SLPC   H4S 7124   6.194   4.648   5.635  0.0738  0.5311  0.0847
   78SLPC   C25 7125   6.207   4.847   5.670  0.0911 -0.9659  0.0687
   78SLPC   H5R 7126   6.315   4.865   5.685 -0.1645  0.7342  0.1301
   78SLPC   H5S 7127   6.162   4.934   5.723  0.8813  1.2053 -2.5713
   78SLPC   C26 7128   6.203   4.869   5.518  0.9277 -0.3548 -0.1907
   78SLPC   H6R 7129   6.265   4.789   5.473  0.4999  0.8565 -3.1994
   78SLPC   H6S 7130   6.249   4.964   5.482  1.0289 -0.3385 -0.0171
   78SLPC   C27 7131   6.054   4.868   5.477 -0.3754 -0.8763  0.0226
   78SLPC   H7R 7132   5.997   4.955   5.515  0.6522  0.3896 -1.2085
   78SLPC   H7S 7133   6.001   4.793   5.539 -2.6568  0.4218 -0.2450
   78SLPC   C28 7134   6.024   4.848   5.325 -0.4098  0.0340  0.5092
   78SLPC   H8R 7135   5.914   4.833   5.319 -0.1676 -2.0386  0.5343
   78SLPC   H8S 7136   6.068   4.755   5.281  0.0524 -0.4604  1.9629
   78SLPC   C29 7137   6.074   4.972   5.261  0.2617  0.7408 -0.1909
   78SLPC   H9R 7138   6.182   4.990   5.259  0.4674 -0.4466 -1.8545
   78SLPC  C210 7139   5.990   5.070   5.215  0.1318  0.4431 -0.0971
   78SLPC  H10R 7140   6.037   5.155   5.163  0.6646  0.2077 -0.0080
   78SLPC  C211 7141   5.839   5.076   5.225  1.2794 -0.0629  0.9724
   78SLPC  H11R 7142   5.793   4.976   5.237 -2.0490  1.4235  1.9271
   78SLPC  H11S 7143   5.812   5.131   5.132 -0.5958 -0.9126  0.9737
   78SLPC  C212 7144   5.808   5.156   5.347 -0.9235 -0.6181  0.4577
   78SLPC  H12R 7145   5.800   5.099   5.440  0.7863 -1.3948  0.1717
   78SLPC  C213 7146   5.786   5.285   5.364  0.5630 -0.2088  0.1246
   78SLPC  H13R 7147   5.747   5.312   5.463 -2.6255  0.6836 -1.2338
   78SLPC  C214 7148   5.783   5.386   5.248 -0.2218  0.0999 -1.1170
   78SLPC  H14R 7149   5.807   5.344   5.148  0.9598  0.8628 -1.1762
   78SLPC  H14S 7150   5.861   5.465   5.262  2.2032 -2.4589  0.9658
   78SLPC  C215 7151   5.642   5.449   5.225  0.5953  0.8145  0.1427
   78SLPC  H15R 7152   5.566   5.372   5.200  1.5132 -0.4625  1.1369
   78SLPC  H15S 7153   5.656   5.508   5.132  1.2332 -0.8778 -0.8895
   78SLPC  C216 7154   5.595   5.548   5.328 -0.5442 -0.4116 -0.3653
   78SLPC  H16R 7155   5.605   5.501   5.428 -0.6209 -1.9010 -1.0392
   78SLPC  H16S 7156   5.488   5.576   5.312 -0.3395  0.7827  0.2109
   78SLPC  C217 7157   5.699   5.672   5.339  0.1086 -0.4443  0.0018
   78SLPC  H17R 7158   5.804   5.636   5.347  0.8525  1.7196  0.6313
   78SLPC  H17S 7159   5.679   5.736   5.427  0.2551  0.3993 -0.5630
   78SLPC  C218 7160   5.674   5.771   5.221  0.3537  0.4110 -0.2073
   78SLPC  H18R 7161   5.704   5.721   5.127 -0.1603  0.0931 -0.2019
   78SLPC  H18S 7162   5.737   5.862   5.229 -1.7642  1.8188  1.5574
   78SLPC  H18T 7163   5.566   5.799   5.217  0.5109  1.3688  1.3601
   78SLPC   C33 7164   6.710   4.460   5.649 -0.0260  0.8171 -0.3974
   78SLPC   H3X 7165   6.784   4.389   5.693 -0.8651 -0.1820 -0.5547
   78SLPC   H3Y 7166   6.749   4.563   5.637 -0.8039  1.4850  2.0965
   78SLPC   C34 7167   6.675   4.398   5.510 -0.6698 -0.2425 -0.6036
   78SLPC   H4X 7168   6.584   4.442   5.463 -0.2142  1.0045 -0.3671
   78SLPC   H4Y 7169   6.647   4.292   5.525 -1.1504 -0.1159 -0.5809
   78SLPC   C35 7170   6.785   4.411   5.404 -0.6074 -1.5221 -0.7722
   78SLPC   H5X 7171   6.882   4.390   5.456 -0.4225 -0.5985 -0.7240
   78SLPC   H5Y 7172   6.814   4.516   5.385  2.3841 -2.0621  0.1847
   78SLPC   C36 7173   6.776   4.327   5.280 -0.3073  0.3833  0.9220
   78SLPC   H6X 7174   6.775   4.219   5.307 -1.3239 -0.6266 -2.7001
   78SLPC   H6Y 7175   6.864   4.341   5.213 -0.7071  2.1295  0.6959
   78SLPC   C37 7176   6.646   4.358   5.200  0.1875 -0.1736  0.3862
   78SLPC   H7X 7177   6.634   4.468   5.191  1.9125  0.1230  1.2142
   78SLPC   H7Y 7178   6.566   4.309   5.258 -0.7433 -0.5826 -1.2067
   78SLPC   C38 7179   6.651   4.289   5.066  0.0726 -0.5287  0.1151
   78SLPC   H8X 7180   6.546   4.295   5.030 -0.0256  2.7955  0.6886
   78SLPC   H8Y 7181   6.678   4.181   5.073 -0.9953 -0.7986  0.3536
   78SLPC   C39 7182   6.743   4.362   4.963  0.6953  0.0147 -0.6378
   78SLPC   H9X 7183   6.850   4.340   4.987  0.2335 -1.7501  0.0049
   78SLPC   H9Y 7184   6.724   4.471   4.970 -1.5376 -0.2481 -1.7884
   78SLPC  C310 7185   6.710   4.326   4.816 -0.3008 -0.2761  0.3318
   78SLPC  H10X 7186   6.779   4.377   4.745 -0.6361 -0.7337 -0.3300
   78SLPC  H10Y 7187   6.610   4.359   4.783  0.1167 -0.6691 -1.4636
   78SLPC  C311 7188   6.716   4.172   4.805 -0.8049  0.0716  0.3654
   78SLPC  H11X 7189   6.619   4.136   4.844 -0.6062 -0.4101  0.4166
   78SLPC  H11Y 7190   6.795   4.137   4.875 -0.3954 -2.9491 -1.4509
   78SLPC  C312 7191   6.758   4.122   4.661  0.4962 -0.4274  0.4457
   78SLPC  H12X 7192   6.708   4.190   4.588 -0.6375  1.6147  2.9707
   78SLPC  H12Y 7193   6.725   4.019   4.637  0.6804  0.1123 -2.4766
   78SLPC  C313 7194   6.904   4.129   4.625  0.6517 -0.4193 -0.1402
   78SLPC  H13X 7195   6.968   4.103   4.712  1.9126  0.7700 -0.6851
   78SLPC  H13Y 7196   6.936   4.235   4.614  0.3183 -0.4490 -1.5577
   78SLPC  C314 7197   6.929   4.052   4.493 -0.3458 -0.5070 -0.5300
   78SLPC  H14X 7198   6.887   3.950   4.506 -0.7978 -0.2290  0.2853
   78SLPC  H14Y 7199   7.040   4.051   4.487 -0.3752 -0.6457 -1.2310
   78SLPC  C315 7200   6.867   4.116   4.374 -0.4032  0.5151  0.4255
   78SLPC  H15X 7201   6.756   4.114   4.384 -0.9658  0.9665 -4.0031
   78SLPC  H15Y 7202   6.893   4.049   4.289 -1.9740  1.0390 -0.5118
   78SLPC  C316 7203   6.929   4.249   4.341  0.1175 -0.0438 -0.3662
   78SLPC  H16X 7204   7.035   4.235   4.312 -0.2413  0.1289 -1.8377
   78SLPC  H16Y 7205   6.924   4.309   4.434  0.6317 -0.6046  0.0298
   78SLPC  C317 7206   6.848   4.332   4.242  0.1358 -0.1722 -0.0246
   78SLPC  H17X 7207   6.745   4.357   4.275  0.2512  1.5228 -0.8307
   78SLPC  H17Y 7208   6.852   4.285   4.141  5.6718  0.7162 -0.5377
   78SLPC  C318 7209   6.905   4.475   4.235  0.1955  0.7618 -0.1453
   78SLPC  H18X 7210   6.852   4.522   4.149 -1.3546 -0.0020  0.3458
   78SLPC  H18Y 7211   7.016   4.480   4.236  0.2270  0.3201 -0.5742
   78SLPC  H18Z 7212   6.863   4.534   4.320  0.3947 -0.4436  0.8168
   79SLPC     N 7213   5.030   5.611   6.942 -0.2870 -0.2632 -0.1583
   79SLPC   C13 7214   5.168   5.579   6.983  0.5011  0.1778 -0.1580
   79SLPC  H13A 7215   5.206   5.502   6.918 -0.8321 -0.7268  0.0865
   79SLPC  H13B 7216   5.229   5.667   6.970 -0.3298  0.5482 -1.7997
   79SLPC  H13C 7217   5.171   5.535   7.082  1.6528 -0.3817 -0.4267
   79SLPC   C14 7218   4.957   5.667   7.049  0.2859 -0.2674  0.3218
   79SLPC  H14A 7219   4.852   5.653   7.028  0.3753 -3.4000  1.3353
   79SLPC  H14B 7220   4.985   5.614   7.139  1.2239 -0.5946 -0.1413
   79SLPC  H14C 7221   4.963   5.774   7.051 -3.4295  0.0826 -0.3176
   79SLPC   C15 7222   4.961   5.482   6.921 -0.1748 -0.4429 -0.2009
   79SLPC  H15A 7223   5.000   5.421   6.840  2.0828 -1.4426  1.5305
   79SLPC  H15B 7224   4.940   5.423   7.009 -0.0658 -0.6309 -0.2985
   79SLPC  H15C 7225   4.863   5.509   6.886  0.0471  1.2885  0.4389
   79SLPC   C12 7226   5.032   5.687   6.811  0.6318 -1.2270  0.7277
   79SLPC  H12A 7227   5.074   5.785   6.825 -0.4783 -0.8037  1.1843
   79SLPC  H12B 7228   4.936   5.713   6.769  1.9053 -0.5234 -1.9600
   79SLPC   C11 7229   5.104   5.621   6.691  0.1513  0.0699 -0.1643
   79SLPC  H11A 7230   5.200   5.587   6.735 -0.2367 -1.5223 -0.4858
   79SLPC  H11B 7231   5.128   5.693   6.610 -2.9816  2.7833  1.0390
   79SLPC     P 7232   4.916   5.543   6.529  0.6412 -0.0463  0.3847
   79SLPC   O13 7233   4.987   5.547   6.396 -0.0673 -0.2506  0.4160
   79SLPC   O14 7234   4.805   5.444   6.543 -0.8036  0.0778  0.3248
   79SLPC   O12 7235   5.024   5.514   6.643  0.4994  0.2367  0.3431
   79SLPC   O11 7236   4.855   5.685   6.562 -0.2340 -0.0271 -0.7959
   79SLPC    C1 7237   4.750   5.752   6.497  0.5142  0.0363  0.2434
   79SLPC    HA 7238   4.686   5.684   6.438  1.4079 -1.6808  1.1700
   79SLPC    HB 7239   4.691   5.794   6.581  3.9638  0.5841  2.6457
   79SLPC    C2 7240   4.809   5.868   6.413 -0.3169 -0.5248 -0.4904
   79SLPC    HS 7241   4.725   5.936   6.388  0.0728  0.5648  0.9999
   79SLPC   O21 7242   4.873   5.819   6.292  0.0592  1.2296  0.4302
   79SLPC   C21 7243   4.804   5.791   6.179 -0.0018 -0.4833  0.6468
   79SLPC   O22 7244   4.684   5.783   6.164  0.0624  0.4301 -0.2126
   79SLPC   C22 7245   4.911   5.770   6.074  0.3088  0.2160  0.3333
   79SLPC   H2R 7246   4.965   5.866   6.068 -0.6183  0.7131 -0.3996
   79SLPC   H2S 7247   4.987   5.700   6.114  0.4346  1.4515  2.3831
   79SLPC    C3 7248   4.912   5.950   6.499 -0.4743 -0.1301  0.3759
   79SLPC    HX 7249   4.988   5.875   6.531  1.8989  1.0003 -2.1369
   79SLPC    HY 7250   4.860   5.977   6.594 -1.7443 -1.2349  0.0063
   79SLPC   O31 7251   4.970   6.062   6.428 -0.6274  0.2054 -0.0696
   79SLPC   C31 7252   5.087   6.043   6.379  0.3431 -0.2818 -0.3268
   79SLPC   O32 7253   5.151   5.940   6.383  0.5828 -0.1607  0.5936
   79SLPC   C32 7254   5.142   6.168   6.310  0.1501  0.0401  0.1372
   79SLPC   H2X 7255   5.227   6.206   6.372 -0.5229  3.1051 -0.6418
   79SLPC   H2Y 7256   5.062   6.244   6.326  1.4332  1.3506  0.6008
   79SLPC   C23 7257   4.864   5.720   5.939 -0.3650  0.0821  0.5249
   79SLPC   H3R 7258   4.773   5.774   5.906  0.3490  1.2628  0.4166
   79SLPC   H3S 7259   4.825   5.616   5.932  2.1246 -0.8749 -0.1180
   79SLPC   C24 7260   4.958   5.735   5.823  0.0614  0.6383 -0.3456
   79SLPC   H4R 7261   5.048   5.670   5.830 -0.1147  0.5185  1.0342
   79SLPC   H4S 7262   4.993   5.841   5.816 -1.2005  1.1197  0.4310
   79SLPC   C25 7263   4.891   5.709   5.696  0.1169  1.0795  0.2396
   79SLPC   H5R 7264   4.781   5.725   5.699  0.0627  0.6286  0.7105
   79SLPC   H5S 7265   4.903   5.604   5.664 -0.8414  1.8848 -3.1784
   79SLPC   C26 7266   4.953   5.796   5.585  0.0016  0.1393 -0.2556
   79SLPC   H6R 7267   5.059   5.764   5.581 -0.2080 -0.5582 -0.5218
   79SLPC   H6S 7268   4.947   5.906   5.598  2.2904  0.2859 -0.1376
   79SLPC   C27 7269   4.884   5.776   5.454 -0.6309  0.1229 -0.8609
   79SLPC   H7R 7270   4.774   5.788   5.458 -0.7315 -0.7322 -0.7736
   79SLPC   H7S 7271   4.902   5.673   5.415 -0.7446  0.6629 -2.3789
   79SLPC   C28 7272   4.943   5.856   5.334  0.4340 -0.1807  0.2875
   79SLPC   H8R 7273   4.904   5.802   5.245  0.6353  2.3915 -1.4749
   79SLPC   H8S 7274   5.054   5.859   5.333  0.4216  1.0099 -0.9633
   79SLPC   C29 7275   4.891   5.998   5.345  0.7759  0.0515  0.4382
   79SLPC   H9R 7276   4.890   6.037   5.448  2.3079  1.6427 -0.0930
   79SLPC  C210 7277   4.837   6.061   5.237 -0.2508  0.5413 -0.0791
   79SLPC  H10R 7278   4.802   6.163   5.260  2.2490  1.4309  0.0771
   79SLPC  C211 7279   4.845   6.020   5.091 -0.0306  0.5030  0.5073
   79SLPC  H11R 7280   4.767   6.079   5.038  1.6780  3.2642  0.8316
   79SLPC  H11S 7281   4.815   5.914   5.079  2.1399  0.0563 -1.9054
   79SLPC  C212 7282   4.979   6.045   5.039 -0.0973  0.5886 -0.1861
   79SLPC  H12R 7283   5.047   6.101   5.106  1.0544 -0.6946 -0.2422
   79SLPC  C213 7284   5.036   5.994   4.926 -0.3939 -0.1442 -0.2321
   79SLPC  H13R 7285   5.145   5.996   4.914  0.0118 -2.7625  2.0070
   79SLPC  C214 7286   4.955   5.913   4.823 -0.0604 -0.1524 -0.5592
   79SLPC  H14R 7287   4.857   5.882   4.866  0.6559 -2.0537 -0.2309
   79SLPC  H14S 7288   5.015   5.829   4.782 -0.9731 -0.9579 -0.2731
   79SLPC  C215 7289   4.921   5.997   4.701 -0.1585  1.0535 -0.8221
   79SLPC  H15R 7290   5.004   6.070   4.689  0.9988 -0.0477  0.2168
   79SLPC  H15S 7291   4.828   6.052   4.725 -0.6615 -1.4024  4.0804
   79SLPC  C216 7292   4.880   5.906   4.580 -0.0318 -0.0846  0.1175
   79SLPC  H16R 7293   4.795   5.842   4.613  0.8812 -0.5422  1.7036
   79SLPC  H16S 7294   4.962   5.835   4.554 -0.0327 -0.2540  0.5512
   79SLPC  C217 7295   4.829   5.992   4.463  0.5498 -0.4797 -0.0411
   79SLPC  H17R 7296   4.910   6.062   4.434  0.0077  0.2523  0.1866
   79SLPC  H17S 7297   4.736   6.050   4.484 -0.5824 -2.1434 -0.2410
   79SLPC  C218 7298   4.804   5.906   4.341 -0.5089 -0.8683 -0.8450
   79SLPC  H18R 7299   4.786   5.974   4.255 -2.2465 -0.8044 -0.4814
   79SLPC  H18S 7300   4.714   5.842   4.353 -2.3129  1.7584  0.6706
   79SLPC  H18T 7301   4.887   5.843   4.303 -0.9130 -2.3928  0.6493
   79SLPC   C33 7302   5.180   6.154   6.158 -0.3289 -0.5968  0.1325
   79SLPC   H3X 7303   5.086   6.125   6.105  0.4644  1.0239 -2.3093
   79SLPC   H3Y 7304   5.254   6.073   6.140 -0.0848 -0.2840 -0.2804
   79SLPC   C34 7305   5.238   6.293   6.101  0.4158 -0.5797  0.4486
   79SLPC   H4X 7306   5.330   6.331   6.150  1.2693  0.1620 -1.6212
   79SLPC   H4Y 7307   5.153   6.360   6.128 -0.0567 -1.9861  2.8033
   79SLPC   C35 7308   5.272   6.284   5.945  0.2819 -0.7371 -1.0669
   79SLPC   H5X 7309   5.176   6.252   5.900  0.4716 -3.0982  0.0454
   79SLPC   H5Y 7310   5.348   6.204   5.928  1.8057  0.4611 -0.2261
   79SLPC   C36 7311   5.321   6.416   5.891  0.1771  0.4579 -1.2196
   79SLPC   H6X 7312   5.413   6.441   5.948 -0.7694  1.7188 -0.1748
   79SLPC   H6Y 7313   5.247   6.494   5.919 -0.2389 -0.4611  0.3642
   79SLPC   C37 7314   5.346   6.414   5.740 -0.3599 -0.6209 -0.5860
   79SLPC   H7X 7315   5.251   6.403   5.683  0.4604  1.7994 -2.6313
   79SLPC   H7Y 7316   5.397   6.320   5.712 -1.4821 -1.0074 -1.3979
   79SLPC   C38 7317   5.421   6.533   5.677  0.0403 -0.5575  0.2058
   79SLPC   H8X 7318   5.524   6.540   5.720  0.1559  1.0854 -0.2442
   79SLPC   H8Y 7319   5.361   6.620   5.713  0.4173 -0.5696  0.8872
   79SLPC   C39 7320   5.420   6.522   5.520 -0.2772 -0.1646  1.1456
   79SLPC   H9X 7321   5.323   6.519   5.467 -0.3170 -2.5656  1.2569
   79SLPC   H9Y 7322   5.463   6.421   5.505 -3.2091 -1.6087  1.6928
   79SLPC  C310 7323   5.495   6.644   5.459 -0.1445 -0.0344  0.7472
   79SLPC  H10X 7324   5.597   6.656   5.501 -0.1499  1.2663  0.4313
   79SLPC  H10Y 7325   5.444   6.740   5.480 -0.9640 -0.1215 -0.6726
   79SLPC  C311 7326   5.520   6.637   5.310  0.2317 -0.4234  0.1260
   79SLPC  H11X 7327   5.567   6.543   5.275 -2.2148 -1.1401 -1.5282
   79SLPC  H11Y 7328   5.590   6.722   5.293  1.3488 -0.4711  3.7085
   79SLPC  C312 7329   5.391   6.657   5.223  0.4081  0.3301  0.3373
   79SLPC  H12X 7330   5.337   6.753   5.237 -1.2095 -0.6547  1.2521
   79SLPC  H12Y 7331   5.318   6.574   5.237 -0.5851  1.1256 -0.0085
   79SLPC  C313 7332   5.424   6.646   5.067 -0.0890  0.1931 -0.3365
   79SLPC  H13X 7333   5.323   6.668   5.027 -0.3517  1.8426  1.1292
   79SLPC  H13Y 7334   5.433   6.537   5.049  0.4702  0.4607 -1.7544
   79SLPC  C314 7335   5.543   6.732   5.020 -0.5721  0.4384  0.7316
   79SLPC  H14X 7336   5.632   6.708   5.081  0.2983 -1.1080 -1.0188
   79SLPC  H14Y 7337   5.526   6.839   5.041  1.1967  0.7314  0.8016
   79SLPC  C315 7338   5.557   6.709   4.867  0.5828  0.2944 -0.1649
   79SLPC  H15X 7339   5.575   6.600   4.862 -3.8318 -0.6812  0.4882
   79SLPC  H15Y 7340   5.651   6.753   4.829  0.6566  0.5961  0.3531
   79SLPC  C316 7341   5.437   6.757   4.789  0.4474  0.5681  0.0479
   79SLPC  H16X 7342   5.455   6.860   4.752 -0.7596 -0.1635 -2.8319
   79SLPC  H16Y 7343   5.343   6.756   4.848  0.1957  0.3558 -0.3587
   79SLPC  C317 7344   5.408   6.677   4.666 -0.3021 -0.0765 -0.1049
   79SLPC  H17X 7345   5.403   6.567   4.680 -2.4571 -0.1539 -1.1113
   79SLPC  H17Y 7346   5.488   6.679   4.588  0.1723 -0.2235  0.3671
   79SLPC  C318 7347   5.278   6.717   4.605 -0.0879 -0.1580  0.1749
   79SLPC  H18X 7348   5.247   6.670   4.509  0.0725  0.0496  0.0199
   79SLPC  H18Y 7349   5.259   6.825   4.590  0.7881  0.2064  1.5770
   79SLPC  H18Z 7350   5.197   6.679   4.671 -0.9347 -1.1319 -1.3469
   80SLPC     N 7351   5.285   2.483   6.723  0.2183 -0.3231 -0.2610
   80SLPC   C13 7352   5.393   2.481   6.627 -0.0769  0.0903  0.2469
   80SLPC  H13A 7353   5.484   2.445   6.674  0.4767  0.6891 -0.3513
   80SLPC  H13B 7354   5.367   2.415   6.546 -4.1205  0.5465  0.9994
   80SLPC  H13C 7355   5.413   2.581   6.592  1.0799 -0.3735 -0.4762
   80SLPC   C14 7356   5.200   2.602   6.684 -0.4552 -0.5226 -0.0948
   80SLPC  H14A 7357   5.163   2.583   6.584  3.3577 -0.0935 -1.7664
   80SLPC  H14B 7358   5.117   2.629   6.748 -0.2667 -2.9916  1.3127
   80SLPC  H14C 7359   5.256   2.693   6.671  1.3482 -1.3006  1.6539
   80SLPC   C15 7360   5.333   2.506   6.860 -0.2646  0.0757 -0.0230
   80SLPC  H15A 7361   5.387   2.420   6.899 -0.8402 -0.6818 -0.8520
   80SLPC  H15B 7362   5.385   2.600   6.868 -0.3253  0.2967 -1.8780
   80SLPC  H15C 7363   5.248   2.509   6.927  1.5259 -2.2389  2.6086
   80SLPC   C12 7364   5.214   2.350   6.723 -0.2129  0.1061  0.7457
   80SLPC  H12A 7365   5.119   2.357   6.773 -0.7943 -0.4575 -0.2406
   80SLPC  H12B 7366   5.270   2.284   6.788 -0.3350  0.3379  1.0880
   80SLPC   C11 7367   5.184   2.289   6.584  1.1751  0.0829  0.1938
   80SLPC  H11A 7368   5.139   2.188   6.593  0.2987  0.4758  0.3307
   80SLPC  H11B 7369   5.279   2.269   6.531  0.9829  1.1379 -0.5957
   80SLPC     P 7370   4.965   2.400   6.505  0.0253 -0.0305 -0.1002
   80SLPC   O13 7371   4.900   2.331   6.619  0.3958 -0.0689  0.0139
   80SLPC   O14 7372   4.937   2.546   6.508  0.0797 -0.6293  0.0867
   80SLPC   O12 7373   5.120   2.377   6.499  0.2145 -0.0987  0.2164
   80SLPC   O11 7374   4.902   2.336   6.372  0.3401 -0.1471  0.0355
   80SLPC    C1 7375   4.969   2.234   6.294 -0.0136 -0.8353  0.5127
   80SLPC    HA 7376   5.079   2.245   6.286 -0.3738  3.2463 -3.3809
   80SLPC    HB 7377   4.940   2.139   6.344  0.2455 -0.7839  0.7650
   80SLPC    C2 7378   4.904   2.230   6.153 -0.1678 -0.6831  0.6073
   80SLPC    HS 7379   4.864   2.127   6.136 -0.3305 -0.3493 -1.2421
   80SLPC   O21 7380   5.004   2.273   6.045 -0.2406  0.0270 -0.1770
   80SLPC   C21 7381   5.088   2.173   6.017 -0.4470  0.7115 -0.3645
   80SLPC   O22 7382   5.085   2.066   6.078  0.8450 -0.2672  0.3818
   80SLPC   C22 7383   5.169   2.195   5.887 -1.2160  0.0655 -0.3220
   80SLPC   H2R 7384   5.196   2.302   5.871  0.2490 -0.7220 -4.4320
   80SLPC   H2S 7385   5.268   2.152   5.913 -2.3313 -1.8365  0.9684
   80SLPC    C3 7386   4.777   2.313   6.142  0.3467 -0.4861  0.3377
   80SLPC    HX 7387   4.787   2.423   6.134  0.7961 -0.3325  2.2953
   80SLPC    HY 7388   4.722   2.306   6.239 -1.0124 -0.2226 -0.3847
   80SLPC   O31 7389   4.686   2.270   6.043 -0.2401 -0.1997  0.3566
   80SLPC   C31 7390   4.723   2.289   5.920  0.3458 -0.4336 -0.0302
   80SLPC   O32 7391   4.817   2.350   5.876 -0.6885 -0.7001 -0.0364
   80SLPC   C32 7392   4.614   2.232   5.827 -0.1972 -0.2619  0.3514
   80SLPC   H2X 7393   4.519   2.286   5.843 -0.7097 -0.8319 -0.6812
   80SLPC   H2Y 7394   4.603   2.123   5.842 -2.4950 -0.2429 -0.7649
   80SLPC   C23 7395   5.096   2.132   5.768 -0.0187  0.9669 -0.8381
   80SLPC   H3R 7396   4.995   2.176   5.751  0.4872  1.5772 -2.4167
   80SLPC   H3S 7397   5.073   2.025   5.787  0.5029  1.1295  0.8851
   80SLPC   C24 7398   5.161   2.148   5.626 -0.5733 -0.1837 -0.6730
   80SLPC   H4R 7399   5.211   2.247   5.623 -0.0191 -0.4741 -1.0908
   80SLPC   H4S 7400   5.086   2.161   5.545  1.9142  0.4641 -2.9966
   80SLPC   C25 7401   5.258   2.032   5.586  0.5227  0.1994 -0.5616
   80SLPC   H5R 7402   5.214   1.935   5.614 -0.6147  1.0579  0.7402
   80SLPC   H5S 7403   5.357   2.048   5.635 -0.3723  3.3393  0.5014
   80SLPC   C26 7404   5.272   2.034   5.431  0.7422  0.5016  0.0086
   80SLPC   H6R 7405   5.243   2.136   5.398  0.1818 -0.6723 -3.5047
   80SLPC   H6S 7406   5.201   1.969   5.377  2.7436 -1.0505 -0.9033
   80SLPC   C27 7407   5.413   1.997   5.380 -0.3037 -0.3418  0.0873
   80SLPC   H7R 7408   5.439   1.892   5.406  0.3315 -0.2217 -0.0449
   80SLPC   H7S 7409   5.483   2.065   5.433 -0.1957  0.8928 -1.5667
   80SLPC   C28 7410   5.439   2.017   5.228 -0.0203  0.4903  0.6448
   80SLPC   H8R 7411   5.549   2.023   5.213  0.0853  1.2889  1.6806
   80SLPC   H8S 7412   5.400   2.119   5.208 -0.7687  0.3361  1.2469
   80SLPC   C29 7413   5.373   1.916   5.135  0.0474  0.0329  0.5904
   80SLPC   H9R 7414   5.419   1.818   5.152 -0.3551  0.1228  2.3433
   80SLPC  C210 7415   5.281   1.923   5.038 -0.2013 -0.2642 -0.2116
   80SLPC  H10R 7416   5.253   1.826   4.996  0.2613 -1.0399  1.1999
   80SLPC  C211 7417   5.203   2.046   4.992  0.3352 -0.2853 -0.5787
   80SLPC  H11R 7418   5.158   2.036   4.891  0.9584 -1.3423 -0.7674
   80SLPC  H11S 7419   5.280   2.125   4.981  0.0892  0.0695  0.1447
   80SLPC  C212 7420   5.126   2.110   5.107  0.2156 -0.2228  0.0813
   80SLPC  H12R 7421   5.174   2.182   5.175 -0.4140 -0.7747  1.1294
   80SLPC  C213 7422   5.003   2.069   5.138  0.1910 -0.8204  0.1142
   80SLPC  H13R 7423   4.956   2.121   5.223  1.0633  1.7277 -0.8650
   80SLPC  C214 7424   4.927   1.959   5.061  0.2762 -1.1836  0.2227
   80SLPC  H14R 7425   4.839   1.917   5.114 -0.7738  0.7822  0.1245
   80SLPC  H14S 7426   4.997   1.876   5.039  2.1157  0.3291  0.1410
   80SLPC  C215 7427   4.877   1.999   4.922  0.1863 -0.0694 -0.2015
   80SLPC  H15R 7428   4.822   1.912   4.880  1.1126 -0.7917  0.0573
   80SLPC  H15S 7429   4.970   2.011   4.863  1.2119 -0.4117  1.2750
   80SLPC  C216 7430   4.798   2.135   4.924  0.2131 -0.4176 -0.2343
   80SLPC  H16R 7431   4.845   2.212   4.988  1.0669 -0.3351 -0.9400
   80SLPC  H16S 7432   4.702   2.115   4.976  0.6665 -0.7737  0.4834
   80SLPC  C217 7433   4.742   2.177   4.788  0.1545  0.1886 -0.3261
   80SLPC  H17R 7434   4.831   2.200   4.725  1.9075  4.0012  3.1106
   80SLPC  H17S 7435   4.682   2.270   4.800 -1.5151 -1.0358  1.1140
   80SLPC  C218 7436   4.663   2.074   4.719 -0.2131  0.1300 -0.2958
   80SLPC  H18R 7437   4.606   2.021   4.798  2.6624 -1.4252  0.8621
   80SLPC  H18S 7438   4.718   1.994   4.664 -0.3735 -0.5451  0.5059
   80SLPC  H18T 7439   4.599   2.115   4.637  0.3843  2.1074  0.1924
   80SLPC   C33 7440   4.657   2.254   5.677  0.0283 -0.2763  0.5166
   80SLPC   H3X 7441   4.752   2.199   5.659 -0.0589 -0.1741 -0.2864
   80SLPC   H3Y 7442   4.694   2.357   5.660 -0.1665 -0.0310  1.4812
   80SLPC   C34 7443   4.552   2.215   5.574  0.4981  0.7067  0.1529
   80SLPC   H4X 7444   4.462   2.281   5.571 -0.6665 -0.8417 -2.5904
   80SLPC   H4Y 7445   4.515   2.114   5.603 -2.0564  1.0186 -1.6586
   80SLPC   C35 7446   4.607   2.199   5.428  0.6454  0.5003 -0.1873
   80SLPC   H5X 7447   4.550   2.112   5.388 -1.7909  0.7733  2.3530
   80SLPC   H5Y 7448   4.709   2.155   5.429  0.9448  1.1947  0.7830
   80SLPC   C36 7449   4.569   2.316   5.348  0.1208  0.2140 -0.8498
   80SLPC   H6X 7450   4.625   2.397   5.398  0.7154  0.1197 -1.3503
   80SLPC   H6Y 7451   4.460   2.335   5.358  0.5015  2.5309 -0.6505
   80SLPC   C37 7452   4.611   2.316   5.206 -0.3536  0.0004  0.3972
   80SLPC   H7X 7453   4.570   2.224   5.158 -2.3552  1.9169 -1.8089
   80SLPC   H7Y 7454   4.721   2.324   5.195 -0.3432  0.0005  0.4984
   80SLPC   C38 7455   4.538   2.428   5.133  0.2805 -0.6546 -0.9156
   80SLPC   H8X 7456   4.538   2.523   5.191  4.2159  1.4460 -3.8581
   80SLPC   H8Y 7457   4.436   2.394   5.105 -1.1683  2.4897  0.0872
   80SLPC   C39 7458   4.611   2.463   5.004  0.3883 -0.1177 -0.1756
   80SLPC   H9X 7459   4.626   2.360   4.965 -1.8339 -1.2924  1.7843
   80SLPC   H9Y 7460   4.709   2.507   5.033 -0.1378 -0.1405  1.7478
   80SLPC  C310 7461   4.532   2.563   4.917 -0.3726  0.0986 -0.3941
   80SLPC  H10X 7462   4.592   2.592   4.827 -0.9854 -2.5620 -1.7680
   80SLPC  H10Y 7463   4.524   2.654   4.980  0.5069 -1.4622  2.1332
   80SLPC  C311 7464   4.386   2.529   4.878  0.1799 -0.6810  0.4231
   80SLPC  H11X 7465   4.327   2.543   4.971 -0.3951 -0.6896  0.0609
   80SLPC  H11Y 7466   4.378   2.422   4.849 -1.7256 -1.1744  2.5028
   80SLPC  C312 7467   4.348   2.618   4.760 -0.1168  0.1947  0.1372
   80SLPC  H12X 7468   4.435   2.613   4.692 -0.1557  0.0689  0.0959
   80SLPC  H12Y 7469   4.348   2.726   4.788  0.0479  1.0799 -2.9533
   80SLPC  C313 7470   4.220   2.594   4.690  0.2019  0.3817  0.1712
   80SLPC  H13X 7471   4.145   2.655   4.744  0.9432  0.7010  0.8557
   80SLPC  H13Y 7472   4.184   2.489   4.680  3.2359 -0.9632  1.9691
   80SLPC  C314 7473   4.227   2.659   4.548  0.6236  0.6962  0.2796
   80SLPC  H14X 7474   4.294   2.600   4.482 -0.4845  0.3878 -0.5932
   80SLPC  H14Y 7475   4.261   2.764   4.564  1.4930  0.3338  0.8835
   80SLPC  C315 7476   4.083   2.654   4.493  0.0520 -0.3606  0.0191
   80SLPC  H15X 7477   4.018   2.727   4.547 -0.3898 -0.4055 -0.4466
   80SLPC  H15Y 7478   4.030   2.558   4.511  1.8800 -1.7720 -1.7633
   80SLPC  C316 7479   4.059   2.689   4.347 -0.0781  0.2091  0.2823
   80SLPC  H16X 7480   4.081   2.797   4.333  2.9374  0.1766  3.4410
   80SLPC  H16Y 7481   3.950   2.673   4.328 -0.3098  0.6218  1.2208
   80SLPC  C317 7482   4.138   2.612   4.243 -0.1063  0.6418  0.0291
   80SLPC  H17X 7483   4.134   2.504   4.268  2.4223  0.4273 -0.3057
   80SLPC  H17Y 7484   4.243   2.644   4.257  0.1980 -1.4577  3.6987
   80SLPC  C318 7485   4.095   2.634   4.104  0.1970 -0.5405 -0.6374
   80SLPC  H18X 7486   3.989   2.603   4.092  0.2387 -0.8957 -0.1401
   80SLPC  H18Y 7487   4.152   2.588   4.020  0.0736  0.8234 -1.5097
   80SLPC  H18Z 7488   4.093   2.743   4.082 -1.1681 -0.2985  0.5345
   81SLPC     N 7489   1.959   2.688   1.771 -0.2254 -0.0915  0.0296
   81SLPC   C13 7490   1.908   2.787   1.670  0.3843  0.5883  0.3959
   81SLPC  H13A 7491   1.969   2.876   1.665  2.4858 -0.8475 -1.6061
   81SLPC  H13B 7492   1.899   2.749   1.569  1.0672 -1.1506  0.9533
   81SLPC  H13C 7493   1.810   2.830   1.689  0.6382  0.6946  1.5192
   81SLPC   C14 7494   2.101   2.637   1.741 -0.1952 -0.2430  0.5406
   81SLPC  H14A 7495   2.171   2.719   1.739  0.8658 -1.0365  2.7856
   81SLPC  H14B 7496   2.134   2.561   1.810  0.6564 -0.7447 -0.3860
   81SLPC  H14C 7497   2.092   2.599   1.640  3.6528 -0.8786  0.2720
   81SLPC   C15 7498   1.870   2.570   1.776  0.0008 -0.4627  0.5612
   81SLPC  H15A 7499   1.904   2.478   1.823  0.4253 -0.4865  0.2228
   81SLPC  H15B 7500   1.773   2.589   1.819  0.5826  1.0302  1.2784
   81SLPC  H15C 7501   1.848   2.543   1.674 -0.9038 -0.3882  0.7310
   81SLPC   C12 7502   1.964   2.754   1.912 -0.0550 -0.0783  0.2670
   81SLPC  H12A 7503   1.863   2.787   1.930 -0.0789 -0.3233  0.5748
   81SLPC  H12B 7504   2.017   2.848   1.908 -1.4099  0.7196  0.3551
   81SLPC   C11 7505   2.018   2.662   2.036  0.7604 -0.2381  0.8353
   81SLPC  H11A 7506   1.985   2.558   2.013  1.6155 -0.6596  1.4631
   81SLPC  H11B 7507   1.965   2.699   2.127 -1.6335  1.0848 -0.9895
   81SLPC     P 7508   2.223   2.794   2.111 -0.2596 -0.0214 -0.5016
   81SLPC   O13 7509   2.349   2.823   2.041 -0.4771 -0.0573  0.6532
   81SLPC   O14 7510   2.127   2.903   2.130  0.2142  0.2510 -0.4071
   81SLPC   O12 7511   2.157   2.668   2.067  0.0498 -0.2417 -0.7383
   81SLPC   O11 7512   2.272   2.754   2.256  0.2116 -0.4732 -0.3411
   81SLPC    C1 7513   2.290   2.624   2.316  0.0217  0.8039  0.4379
   81SLPC    HA 7514   2.313   2.550   2.238  2.3297  1.0657  0.7988
   81SLPC    HB 7515   2.378   2.626   2.383  0.5342  2.9556 -0.2156
   81SLPC    C2 7516   2.173   2.593   2.414 -0.4933 -0.0775 -0.0745
   81SLPC    HS 7517   2.080   2.600   2.354  0.8310  0.4276 -2.1537
   81SLPC   O21 7518   2.172   2.697   2.520  0.1235 -0.4041  0.2183
   81SLPC   C21 7519   2.053   2.735   2.556  0.0965 -0.2526 -1.0298
   81SLPC   O22 7520   1.946   2.704   2.510  0.7466  0.3395 -0.0116
   81SLPC   C22 7521   2.066   2.843   2.658 -0.0739  0.2571 -0.7494
   81SLPC   H2R 7522   2.166   2.889   2.641  0.7192 -1.0830  0.1743
   81SLPC   H2S 7523   1.983   2.917   2.653 -0.7665 -0.5372 -1.2828
   81SLPC    C3 7524   2.192   2.454   2.489  0.3976  0.3436  0.3078
   81SLPC    HX 7525   2.187   2.370   2.416 -2.7662 -0.0884  0.8708
   81SLPC    HY 7526   2.101   2.432   2.549 -0.7683 -0.7404 -1.7147
   81SLPC   O31 7527   2.302   2.445   2.590 -0.5744 -0.1800 -0.3339
   81SLPC   C31 7528   2.421   2.390   2.551  0.4533  0.4767 -0.6266
   81SLPC   O32 7529   2.436   2.353   2.435 -0.0700  0.8340 -0.0972
   81SLPC   C32 7530   2.507   2.354   2.665  0.1944  0.2462 -0.0867
   81SLPC   H2X 7531   2.571   2.442   2.687  1.3320 -0.8757  1.2378
   81SLPC   H2Y 7532   2.564   2.262   2.640  1.0025  0.8601 -0.5129
   81SLPC   C23 7533   2.058   2.782   2.794  0.0522  0.4155  0.1289
   81SLPC   H3R 7534   2.157   2.742   2.826  1.3173  2.6073 -0.8111
   81SLPC   H3S 7535   1.978   2.704   2.797  0.3433 -0.1056 -2.6705
   81SLPC   C24 7536   2.026   2.893   2.899  0.8287 -0.8358  0.0252
   81SLPC   H4R 7537   1.922   2.933   2.890  0.7561 -1.4246 -3.0011
   81SLPC   H4S 7538   2.103   2.972   2.882 -0.8987  0.8847 -0.1723
   81SLPC   C25 7539   2.035   2.845   3.042 -0.0826 -0.0962 -0.0243
   81SLPC   H5R 7540   2.141   2.819   3.064  0.0666 -0.5276 -1.2001
   81SLPC   H5S 7541   1.979   2.752   3.068  1.0070 -0.9259 -0.5532
   81SLPC   C26 7542   1.998   2.958   3.137 -0.2669 -0.0200  0.0685
   81SLPC   H6R 7543   1.893   2.992   3.132 -0.5121 -0.6902  0.4614
   81SLPC   H6S 7544   2.065   3.042   3.110 -0.2852 -0.0387 -0.0348
   81SLPC   C27 7545   2.037   2.918   3.282 -0.6816  0.1876  0.1903
   81SLPC   H7R 7546   2.145   2.894   3.270 -0.8445 -0.6923  0.4480
   81SLPC   H7S 7547   1.990   2.824   3.317  0.0781  0.1023  1.0150
   81SLPC   C28 7548   2.033   3.036   3.389  0.0515 -0.0905  0.2981
   81SLPC   H8R 7549   2.094   3.121   3.352 -0.0010 -0.3340 -0.3717
   81SLPC   H8S 7550   2.078   2.990   3.480  0.9519 -1.6977 -0.8986
   81SLPC   C29 7551   1.890   3.081   3.414 -0.3433 -0.4222 -0.8697
   81SLPC   H9R 7552   1.815   3.003   3.394 -1.3133  0.1800  0.3107
   81SLPC  C210 7553   1.847   3.200   3.459  0.2112  0.5371 -0.4685
   81SLPC  H10R 7554   1.739   3.198   3.480  0.5977 -1.8742  1.7242
   81SLPC  C211 7555   1.919   3.330   3.482  0.0281 -0.9172 -1.1924
   81SLPC  H11R 7556   1.866   3.410   3.426 -1.7757 -0.0805  1.4812
   81SLPC  H11S 7557   2.026   3.322   3.452 -0.3632 -0.0283 -2.9774
   81SLPC  C212 7558   1.917   3.368   3.626 -0.1205 -0.4471 -0.4448
   81SLPC  H12R 7559   1.998   3.312   3.677  0.4765  0.2778 -0.5717
   81SLPC  C213 7560   1.841   3.452   3.694 -0.1327 -0.2268 -0.4120
   81SLPC  H13R 7561   1.846   3.467   3.803 -3.2361  1.4649 -0.4140
   81SLPC  C214 7562   1.732   3.536   3.639  0.7100  0.8575 -0.7510
   81SLPC  H14R 7563   1.754   3.568   3.535  1.0076  0.3442 -0.8497
   81SLPC  H14S 7564   1.720   3.635   3.688 -0.2291  0.8899 -1.0260
   81SLPC  C215 7565   1.589   3.471   3.644  0.2169 -0.1039  0.6351
   81SLPC  H15R 7566   1.549   3.438   3.742  0.9654  0.4393  1.1294
   81SLPC  H15S 7567   1.594   3.377   3.584  1.2195  1.4555 -1.9200
   81SLPC  C216 7568   1.480   3.573   3.579 -0.2279 -0.0010  0.2644
   81SLPC  H16R 7569   1.521   3.625   3.490  2.0787 -2.0564  0.0249
   81SLPC  H16S 7570   1.448   3.651   3.652  0.0976 -0.4626  0.9073
   81SLPC  C217 7571   1.346   3.502   3.548 -0.2857  0.0976 -0.2340
   81SLPC  H17R 7572   1.360   3.437   3.458 -3.5453  0.1075 -0.8636
   81SLPC  H17S 7573   1.268   3.574   3.516 -1.4231  0.2508  2.5790
   81SLPC  C218 7574   1.295   3.408   3.661 -0.1643 -0.1442 -0.1452
   81SLPC  H18R 7575   1.291   3.478   3.747  2.3440  0.4324 -0.4295
   81SLPC  H18S 7576   1.355   3.317   3.684 -0.2526 -0.7498 -2.1356
   81SLPC  H18T 7577   1.191   3.376   3.637 -0.6669  1.4071 -0.1719
   81SLPC   C33 7578   2.427   2.328   2.799 -0.0439  0.2828  0.2446
   81SLPC   H3X 7579   2.335   2.266   2.782 -0.5815  0.9344  0.7359
   81SLPC   H3Y 7580   2.382   2.416   2.849 -1.8151 -1.1459  1.2849
   81SLPC   C34 7581   2.526   2.255   2.899 -0.7565 -0.0437 -0.8582
   81SLPC   H4X 7582   2.575   2.169   2.847  2.2559  1.7750 -1.2552
   81SLPC   H4Y 7583   2.464   2.214   2.981  2.4663  0.3142  1.9788
   81SLPC   C35 7584   2.639   2.338   2.956  0.9916 -0.5572  0.3972
   81SLPC   H5X 7585   2.611   2.444   2.976  1.0315 -0.3898 -0.4011
   81SLPC   H5Y 7586   2.719   2.331   2.880  0.5231 -1.2485 -0.0343
   81SLPC   C36 7587   2.705   2.264   3.076  0.1613 -0.0982  0.3876
   81SLPC   H6X 7588   2.808   2.306   3.084  0.6439 -1.2475  0.4446
   81SLPC   H6Y 7589   2.709   2.156   3.050  2.1604  0.3830 -1.5171
   81SLPC   C37 7590   2.628   2.289   3.208  0.0958 -0.1139  0.6074
   81SLPC   H7X 7591   2.526   2.246   3.214  0.2330 -0.5190  0.1409
   81SLPC   H7Y 7592   2.608   2.394   3.235  0.9091  0.5111 -1.0937
   81SLPC   C38 7593   2.700   2.233   3.332 -0.1771 -0.1345 -0.4713
   81SLPC   H8X 7594   2.725   2.127   3.310 -0.9899  0.0138 -2.2912
   81SLPC   H8Y 7595   2.627   2.240   3.416  0.7022 -0.0302  0.3019
   81SLPC   C39 7596   2.824   2.322   3.377  0.1906  0.0583  0.3396
   81SLPC   H9X 7597   2.798   2.429   3.368  1.5849  0.4784  1.0256
   81SLPC   H9Y 7598   2.913   2.283   3.324  0.0657 -1.2965  1.0799
   81SLPC  C310 7599   2.866   2.299   3.529 -0.3853 -0.7970  0.8227
   81SLPC  H10X 7600   2.965   2.347   3.536 -0.4510 -0.5384  0.0847
   81SLPC  H10Y 7601   2.889   2.192   3.550  2.0420 -0.5198 -0.1043
   81SLPC  C311 7602   2.766   2.373   3.617 -0.4949  0.1578  0.1228
   81SLPC  H11X 7603   2.664   2.331   3.607 -0.4175  0.2785 -1.5961
   81SLPC  H11Y 7604   2.761   2.482   3.599  1.5480  0.3056  0.1978
   81SLPC  C312 7605   2.802   2.348   3.765 -0.3431  0.5876  0.3784
   81SLPC  H12X 7606   2.902   2.394   3.782 -0.9453  1.6893  1.0392
   81SLPC  H12Y 7607   2.817   2.238   3.771  0.1016  0.6648  0.7587
   81SLPC  C313 7608   2.696   2.390   3.871 -0.3654 -0.0386 -0.1931
   81SLPC  H13X 7609   2.720   2.324   3.957  0.2904 -0.8556 -0.9789
   81SLPC  H13Y 7610   2.597   2.353   3.836 -0.4971 -1.5733  1.6129
   81SLPC  C314 7611   2.721   2.540   3.906  0.7649 -0.2300  0.6725
   81SLPC  H14X 7612   2.669   2.603   3.831  0.9875 -1.6990 -0.7857
   81SLPC  H14Y 7613   2.829   2.567   3.899  0.7013  0.8905  2.9930
   81SLPC  C315 7614   2.665   2.571   4.048  0.2628 -0.1268  0.5288
   81SLPC  H15X 7615   2.727   2.523   4.126 -0.6754 -0.2212  1.2345
   81SLPC  H15Y 7616   2.561   2.535   4.065  0.8735 -1.8213  0.8510
   81SLPC  C316 7617   2.667   2.721   4.089 -1.1516  0.1457  0.1884
   81SLPC  H16X 7618   2.616   2.737   4.186 -0.2403  1.7581  0.4331
   81SLPC  H16Y 7619   2.609   2.784   4.017  0.7431  2.0958  0.2616
   81SLPC  C317 7620   2.805   2.789   4.089 -0.5601 -0.1654  0.5575
   81SLPC  H17X 7621   2.860   2.782   3.993  0.1900  1.5251  0.8296
   81SLPC  H17Y 7622   2.861   2.723   4.159  1.3731  0.7996 -0.0029
   81SLPC  C318 7623   2.788   2.936   4.144 -0.1631 -0.0488  0.3236
   81SLPC  H18X 7624   2.733   2.994   4.066  1.2111  1.5345  0.4820
   81SLPC  H18Y 7625   2.884   2.991   4.148  0.0632 -0.0898 -2.4783
   81SLPC  H18Z 7626   2.733   2.930   4.240 -1.0485  0.9202 -0.1091
   82SLPC     N 7627   3.912   1.109   1.884  0.2982  1.0236  0.1562
   82SLPC   C13 7628   3.850   1.081   1.751  0.0225  0.5254 -0.0614
   82SLPC  H13A 7629   3.809   0.981   1.748 -1.8584  1.2696 -2.2866
   82SLPC  H13B 7630   3.766   1.148   1.735  0.2407  1.2879  1.7597
   82SLPC  H13C 7631   3.923   1.100   1.674  1.2002  0.4906  1.0167
   82SLPC   C14 7632   4.030   1.016   1.907 -0.0199  0.2961 -0.4811
   82SLPC  H14A 7633   4.007   0.912   1.892 -0.4493  0.6280 -2.3198
   82SLPC  H14B 7634   4.104   1.045   1.834  0.4309 -0.6366 -0.4046
   82SLPC  H14C 7635   4.072   1.025   2.006 -2.1455  1.2719  0.3807
   82SLPC   C15 7636   3.816   1.077   1.997  0.3534  0.6569  0.1769
   82SLPC  H15A 7637   3.860   1.108   2.090  0.6787 -1.2385  0.6763
   82SLPC  H15B 7638   3.720   1.126   1.988  0.6686  1.1268 -0.8291
   82SLPC  H15C 7639   3.791   0.972   1.992  3.9788 -0.3966  0.8989
   82SLPC   C12 7640   3.948   1.253   1.917 -0.5283  0.1360  0.2338
   82SLPC  H12A 7641   3.999   1.248   2.013  0.1238 -1.8819 -0.1548
   82SLPC  H12B 7642   3.858   1.313   1.917 -0.2728  0.5315  1.0260
   82SLPC   C11 7643   4.050   1.327   1.817  0.2163  0.1398  0.1161
   82SLPC  H11A 7644   4.145   1.269   1.819 -0.9112 -1.7768  0.5942
   82SLPC  H11B 7645   4.083   1.430   1.845  1.2645 -0.6708  2.1115
   82SLPC     P 7646   3.889   1.456   1.657  0.4959 -0.2180 -0.1945
   82SLPC   O13 7647   3.963   1.585   1.682  0.5615 -0.1667 -0.2529
   82SLPC   O14 7648   3.831   1.440   1.521 -0.5085  0.3966  0.4142
   82SLPC   O12 7649   3.988   1.335   1.684 -0.5241 -0.0447 -0.4036
   82SLPC   O11 7650   3.778   1.442   1.773  0.7661  0.5906 -0.2382
   82SLPC    C1 7651   3.709   1.555   1.820  0.0651 -0.0373 -0.6807
   82SLPC    HA 7652   3.777   1.641   1.840  0.0317 -0.8306  4.0509
   82SLPC    HB 7653   3.627   1.583   1.752  1.1071  0.0145 -1.9499
   82SLPC    C2 7654   3.648   1.518   1.960  0.3211  1.1095 -0.4441
   82SLPC    HS 7655   3.581   1.597   1.999 -2.2761 -0.6515 -1.0782
   82SLPC   O21 7656   3.750   1.484   2.064 -0.0951 -0.1486  0.3167
   82SLPC   C21 7657   3.774   1.581   2.153  0.6806 -0.1530  0.7330
   82SLPC   O22 7658   3.738   1.699   2.143 -0.1454  0.0539 -0.4405
   82SLPC   C22 7659   3.860   1.532   2.273  0.2504  0.0455  0.2723
   82SLPC   H2R 7660   3.812   1.435   2.299 -0.0910 -0.1355 -0.9741
   82SLPC   H2S 7661   3.967   1.532   2.243 -0.2836 -0.2281 -1.7582
   82SLPC    C3 7662   3.557   1.396   1.941  0.2751 -0.2827  0.1215
   82SLPC    HX 7663   3.609   1.305   1.905 -0.8328  0.3428 -3.4834
   82SLPC    HY 7664   3.486   1.409   1.856 -1.2255 -2.0784  1.0368
   82SLPC   O31 7665   3.477   1.388   2.058 -0.1983 -0.0001 -0.1522
   82SLPC   C31 7666   3.507   1.299   2.147  0.9195 -1.0303 -0.2459
   82SLPC   O32 7667   3.599   1.223   2.150  0.3419  0.6292 -0.6418
   82SLPC   C32 7668   3.399   1.312   2.263 -0.6861 -0.3715  0.2911
   82SLPC   H2X 7669   3.331   1.227   2.241  0.5935 -1.3965  0.1945
   82SLPC   H2Y 7670   3.356   1.414   2.255 -1.3706 -0.5006  1.9976
   82SLPC   C23 7671   3.844   1.612   2.403 -0.5155 -0.2841 -0.5298
   82SLPC   H3R 7672   3.739   1.598   2.436 -0.6131 -1.3362 -1.2361
   82SLPC   H3S 7673   3.867   1.721   2.391 -0.9806 -0.1031  0.1615
   82SLPC   C24 7674   3.936   1.558   2.515  0.6891 -0.9194  0.1254
   82SLPC   H4R 7675   4.044   1.576   2.495  0.6392 -1.1640 -0.3523
   82SLPC   H4S 7676   3.906   1.451   2.515 -1.7324 -0.3069  0.5145
   82SLPC   C25 7677   3.906   1.629   2.655  0.0311 -0.1988 -0.0965
   82SLPC   H5R 7678   3.817   1.579   2.700 -0.7811  1.7076  0.5497
   82SLPC   H5S 7679   3.878   1.736   2.641  1.0013 -0.1845 -2.2273
   82SLPC   C26 7680   4.028   1.629   2.751  0.0006 -0.6650  0.1183
   82SLPC   H6R 7681   4.124   1.648   2.699 -0.2386 -1.8415 -0.7970
   82SLPC   H6S 7682   4.030   1.534   2.807  0.4342 -0.2126  0.8800
   82SLPC   C27 7683   4.004   1.729   2.860  0.2474 -0.5990 -0.1747
   82SLPC   H7R 7684   3.903   1.712   2.902 -0.0185  0.8048 -0.1886
   82SLPC   H7S 7685   4.001   1.829   2.812 -0.7008  0.0973  1.2737
   82SLPC   C28 7686   4.107   1.731   2.971  0.6086  0.2962  0.3442
   82SLPC   H8R 7687   4.102   1.823   3.034  0.8972 -0.1784  1.0679
   82SLPC   H8S 7688   4.204   1.731   2.916 -0.6143  1.9950 -1.9850
   82SLPC   C29 7689   4.106   1.602   3.060  1.0774  0.2838  0.4813
   82SLPC   H9R 7690   4.149   1.515   3.007  2.0093  1.0746 -0.0956
   82SLPC  C210 7691   4.054   1.583   3.184 -0.1974  0.4469  0.9021
   82SLPC  H10R 7692   4.048   1.482   3.228  0.6878 -0.0278  0.0061
   82SLPC  C211 7693   4.003   1.684   3.276  1.2125 -0.0468  0.4839
   82SLPC  H11R 7694   3.935   1.634   3.349  1.6697  2.9094  3.1660
   82SLPC  H11S 7695   3.939   1.754   3.218  2.5764 -0.4099 -1.5651
   82SLPC  C212 7696   4.129   1.737   3.339  0.7664 -1.4176  0.3699
   82SLPC  H12R 7697   4.198   1.772   3.261 -1.7054 -0.5457 -1.5783
   82SLPC  C213 7698   4.156   1.740   3.473 -0.3656 -0.5909 -0.0706
   82SLPC  H13R 7699   4.255   1.777   3.505 -0.1302 -0.3059 -1.0908
   82SLPC  C214 7700   4.065   1.696   3.586  0.1368 -0.0191  0.0643
   82SLPC  H14R 7701   4.072   1.585   3.587 -2.1858 -0.2197 -0.3718
   82SLPC  H14S 7702   3.959   1.713   3.558 -0.4231 -2.3186  0.5344
   82SLPC  C215 7703   4.103   1.752   3.722  0.3916  0.5330 -0.3692
   82SLPC  H15R 7704   4.104   1.862   3.710 -0.2582  0.7248  1.0470
   82SLPC  H15S 7705   4.207   1.723   3.751 -0.0296 -0.3247  0.3415
   82SLPC  C216 7706   4.009   1.711   3.842  0.1517  0.5931 -0.5552
   82SLPC  H16R 7707   3.952   1.617   3.830 -1.4383  0.5093  4.9379
   82SLPC  H16S 7708   3.926   1.784   3.844  0.8493  1.4025  1.4420
   82SLPC  C217 7709   4.071   1.702   3.982 -0.5918 -0.2548  0.1822
   82SLPC  H17R 7710   4.168   1.649   3.974  0.7792  1.7046  2.4317
   82SLPC  H17S 7711   4.005   1.656   4.059 -1.3753 -0.1080 -0.3916
   82SLPC  C218 7712   4.106   1.843   4.039  0.6907  0.0500  0.0497
   82SLPC  H18R 7713   4.130   1.831   4.147  0.5994 -0.2265  0.0397
   82SLPC  H18S 7714   4.014   1.905   4.034  1.3097  1.0377  0.5605
   82SLPC  H18T 7715   4.191   1.881   3.979  1.3093 -3.5816 -1.6967
   82SLPC   C33 7716   3.452   1.297   2.408 -0.2975  0.4113  0.2991
   82SLPC   H3X 7717   3.540   1.364   2.418  0.0185 -0.1227  1.1408
   82SLPC   H3Y 7718   3.480   1.190   2.423 -0.2793  0.3601 -0.0807
   82SLPC   C34 7719   3.347   1.333   2.515  0.0377  0.1897 -0.4311
   82SLPC   H4X 7720   3.256   1.274   2.494  1.8353 -2.9539 -0.0978
   82SLPC   H4Y 7721   3.342   1.441   2.491  0.0694  0.0800 -0.9464
   82SLPC   C35 7722   3.388   1.308   2.662 -0.6784 -0.0461  1.4443
   82SLPC   H5X 7723   3.477   1.367   2.691  2.1012 -3.3193  0.2874
   82SLPC   H5Y 7724   3.415   1.200   2.668  0.6147  0.3156  2.2914
   82SLPC   C36 7725   3.276   1.331   2.756  0.4303  0.2969 -0.7108
   82SLPC   H6X 7726   3.192   1.259   2.742 -3.4329  4.5979 -2.3374
   82SLPC   H6Y 7727   3.234   1.433   2.741 -2.0958 -0.4302  0.8428
   82SLPC   C37 7728   3.320   1.318   2.904  0.2264 -0.3659 -0.1533
   82SLPC   H7X 7729   3.400   1.394   2.921 -2.1638  1.8552  2.0513
   82SLPC   H7Y 7730   3.363   1.217   2.919  2.8663  0.3525 -2.0648
   82SLPC   C38 7731   3.211   1.359   2.995  0.2955 -0.0541  0.1946
   82SLPC   H8X 7732   3.141   1.273   3.005  1.2793 -0.8455  0.4403
   82SLPC   H8Y 7733   3.161   1.448   2.953 -0.8891 -0.8219 -0.0637
   82SLPC   C39 7734   3.258   1.392   3.134 -0.1033  0.3777  0.2950
   82SLPC   H9X 7735   3.338   1.469   3.129  1.1646 -0.9871 -1.6442
   82SLPC   H9Y 7736   3.310   1.304   3.179 -0.3030  0.4092  0.5941
   82SLPC  C310 7737   3.144   1.438   3.228  0.1017 -0.3740 -0.3263
   82SLPC  H10X 7738   3.060   1.367   3.243 -0.9341  0.8263 -0.3528
   82SLPC  H10Y 7739   3.096   1.524   3.177  0.3358 -0.6174 -0.9764
   82SLPC  C311 7740   3.198   1.492   3.365 -0.1431 -0.0291 -0.0524
   82SLPC  H11X 7741   3.284   1.561   3.348 -1.1614  0.8575 -1.8675
   82SLPC  H11Y 7742   3.237   1.408   3.425 -2.7022 -1.8715 -0.7973
   82SLPC  C312 7743   3.096   1.555   3.453  0.0208  0.2756  0.4782
   82SLPC  H12X 7744   3.011   1.484   3.452 -0.2076  0.5158 -1.3306
   82SLPC  H12Y 7745   3.065   1.647   3.400 -0.8864  0.9622  2.1524
   82SLPC  C313 7746   3.144   1.587   3.593  0.3872 -0.3329 -0.2747
   82SLPC  H13X 7747   3.245   1.632   3.589  1.2909 -1.8246  2.8549
   82SLPC  H13Y 7748   3.150   1.498   3.659  0.0793 -1.1729 -1.3586
   82SLPC  C314 7749   3.057   1.702   3.654 -0.0041  0.2831 -0.6009
   82SLPC  H14X 7750   2.951   1.674   3.672 -0.6556  3.1276  0.5567
   82SLPC  H14Y 7751   3.059   1.790   3.586  0.8013  0.4621 -0.3555
   82SLPC  C315 7752   3.114   1.730   3.798 -0.0613 -0.1965 -0.0294
   82SLPC  H15X 7753   3.224   1.743   3.788  0.4402 -2.8088  1.1831
   82SLPC  H15Y 7754   3.094   1.645   3.866  0.1919 -1.4356 -1.4293
   82SLPC  C316 7755   3.061   1.858   3.868  0.4647  0.1052  0.0577
   82SLPC  H16X 7756   2.973   1.828   3.930  2.3712  0.7245  3.2936
   82SLPC  H16Y 7757   3.022   1.927   3.791 -0.5454 -1.2993 -0.7366
   82SLPC  C317 7758   3.158   1.925   3.958  0.3214  1.0646 -0.0500
   82SLPC  H17X 7759   3.127   2.025   3.996  1.2274  1.6392 -0.7747
   82SLPC  H17Y 7760   3.239   1.960   3.891  2.4911 -0.2306  1.7545
   82SLPC  C318 7761   3.219   1.842   4.067 -0.5359 -0.1848 -0.1907
   82SLPC  H18X 7762   3.297   1.910   4.107 -1.0692  0.0377  0.4768
   82SLPC  H18Y 7763   3.272   1.753   4.025  0.0293 -0.0107  0.1437
   82SLPC  H18Z 7764   3.143   1.800   4.136  1.2777 -3.0923  0.1941
   83SLPC     N 7765   1.216   1.028   1.773 -0.5149 -0.4004 -0.4691
   83SLPC   C13 7766   1.067   1.040   1.750  0.7204 -0.2199  0.0589
   83SLPC  H13A 7767   1.021   0.944   1.734 -0.2578 -0.0179  1.4436
   83SLPC  H13B 7768   1.021   1.088   1.835 -1.6741 -1.4894 -0.4528
   83SLPC  H13C 7769   1.043   1.107   1.670 -1.5404  1.4072  1.9798
   83SLPC   C14 7770   1.282   1.158   1.765 -0.0782 -0.0511 -0.5051
   83SLPC  H14A 7771   1.235   1.219   1.841  2.8952  0.6197  0.9452
   83SLPC  H14B 7772   1.385   1.152   1.798 -0.4731  0.3528  0.8844
   83SLPC  H14C 7773   1.285   1.204   1.667 -1.6665  0.4326 -0.3542
   83SLPC   C15 7774   1.270   0.942   1.658 -0.2594 -0.7323  0.1022
   83SLPC  H15A 7775   1.275   1.005   1.570 -2.9761 -0.0032  0.3679
   83SLPC  H15B 7776   1.367   0.899   1.675 -0.3163 -1.2324 -0.7728
   83SLPC  H15C 7777   1.205   0.859   1.633 -0.1408 -0.5402 -0.8775
   83SLPC   C12 7778   1.250   0.958   1.905  0.0341  0.0853  0.2531
   83SLPC  H12A 7779   1.202   1.018   1.981  2.8324  0.7495  1.5999
   83SLPC  H12B 7780   1.356   0.965   1.923  0.2312 -0.2493 -0.7228
   83SLPC   C11 7781   1.209   0.808   1.922 -0.7039 -0.3253 -0.4170
   83SLPC  H11A 7782   1.098   0.804   1.914 -0.9744 -1.8648  2.6573
   83SLPC  H11B 7783   1.238   0.778   2.025  3.2267  1.3191 -0.8634
   83SLPC     P 7784   1.344   0.578   1.866  0.2018 -0.0084 -0.5264
   83SLPC   O13 7785   1.316   0.469   1.771 -0.1181 -0.0314  0.5843
   83SLPC   O14 7786   1.484   0.614   1.885 -0.4037 -0.1050  0.0364
   83SLPC   O12 7787   1.263   0.711   1.823  0.5680  0.1523 -0.4698
   83SLPC   O11 7788   1.288   0.543   2.009  0.3222  0.4473  0.3989
   83SLPC    C1 7789   1.159   0.486   2.020 -0.2173 -0.1822  0.5779
   83SLPC    HA 7790   1.080   0.524   1.953  1.9281  4.2380  0.1819
   83SLPC    HB 7791   1.158   0.376   2.007  0.3226 -0.3563  1.8030
   83SLPC    C2 7792   1.096   0.512   2.165 -0.5815 -0.4341 -0.1599
   83SLPC    HS 7793   1.064   0.619   2.163  0.2945 -0.1324 -3.2201
   83SLPC   O21 7794   1.200   0.472   2.264  0.3133  0.3558  0.4878
   83SLPC   C21 7795   1.244   0.583   2.329 -0.7479  0.2371 -0.8453
   83SLPC   O22 7796   1.245   0.696   2.284  0.2622 -0.4026  0.4966
   83SLPC   C22 7797   1.298   0.550   2.472  0.0912  0.0607  1.2170
   83SLPC   H2R 7798   1.300   0.439   2.477  0.5461 -0.0096 -0.1645
   83SLPC   H2S 7799   1.399   0.595   2.484  0.5720 -0.9702  1.1781
   83SLPC    C3 7800   0.974   0.423   2.185 -0.1395 -0.1185  0.0608
   83SLPC    HX 7801   1.013   0.319   2.192  2.0909  0.4530 -2.3558
   83SLPC    HY 7802   0.906   0.443   2.099 -0.4366  1.6365  0.6615
   83SLPC   O31 7803   0.908   0.456   2.310  0.0616 -0.2312 -0.2444
   83SLPC   C31 7804   0.785   0.409   2.329  0.0269 -0.5175 -0.1106
   83SLPC   O32 7805   0.723   0.349   2.244 -0.0499  0.6402  0.4821
   83SLPC   C32 7806   0.727   0.454   2.462  0.4501 -0.4409  0.3953
   83SLPC   H2X 7807   0.756   0.561   2.476  0.6502 -0.1162 -2.0965
   83SLPC   H2Y 7808   0.777   0.394   2.541  2.5847  0.4453 -0.1996
   83SLPC   C23 7809   1.213   0.601   2.583  0.4123 -0.2715 -0.9094
   83SLPC   H3R 7810   1.106   0.579   2.562  0.5346  0.6637 -2.6736
   83SLPC   H3S 7811   1.214   0.711   2.596 -1.1439 -0.2422 -0.7600
   83SLPC   C24 7812   1.257   0.551   2.719  0.1918 -0.3878 -0.2698
   83SLPC   H4R 7813   1.362   0.582   2.739  0.0629  2.0197 -2.6803
   83SLPC   H4S 7814   1.242   0.441   2.723 -0.2497 -0.2997  0.7824
   83SLPC   C25 7815   1.182   0.622   2.835  0.4468 -0.3349  0.0224
   83SLPC   H5R 7816   1.075   0.594   2.826 -0.5985  3.2520 -0.1729
   83SLPC   H5S 7817   1.185   0.733   2.836  0.9462 -0.3347 -0.6305
   83SLPC   C26 7818   1.233   0.580   2.973 -0.2942 -0.1593  0.2634
   83SLPC   H6R 7819   1.343   0.590   2.976  0.1675 -3.8274  0.0859
   83SLPC   H6S 7820   1.220   0.470   2.985 -0.9037 -0.0905  0.2741
   83SLPC   C27 7821   1.157   0.657   3.081  0.3740  0.2637 -0.2948
   83SLPC   H7R 7822   1.049   0.663   3.056  0.7776  0.6076 -2.0435
   83SLPC   H7S 7823   1.193   0.760   3.099  1.5108 -0.5840  3.0457
   83SLPC   C28 7824   1.183   0.604   3.222 -0.5262  0.3474 -0.0871
   83SLPC   H8R 7825   1.287   0.632   3.250 -0.6851 -1.5437  2.8961
   83SLPC   H8S 7826   1.177   0.495   3.238 -0.3400  0.5054  1.2399
   83SLPC   C29 7827   1.074   0.655   3.323 -0.0228 -0.4960  0.4884
   83SLPC   H9R 7828   0.974   0.662   3.278  0.6706  1.4425 -0.8985
   83SLPC  C210 7829   1.096   0.710   3.442  0.1834 -0.3056  0.0159
   83SLPC  H10R 7830   1.012   0.758   3.494  1.2040 -1.2711  2.7651
   83SLPC  C211 7831   1.230   0.720   3.510 -0.2665 -0.7137 -0.0371
   83SLPC  H11R 7832   1.228   0.796   3.591  2.5896  1.9820 -2.2122
   83SLPC  H11S 7833   1.301   0.768   3.439 -0.7207  1.3884  0.8571
   83SLPC  C212 7834   1.281   0.585   3.560  0.4412 -0.1397 -0.7836
   83SLPC  H12R 7835   1.314   0.518   3.479  2.2024  0.3421 -0.5065
   83SLPC  C213 7836   1.293   0.543   3.691 -0.4411  0.5637 -0.0452
   83SLPC  H13R 7837   1.345   0.451   3.719 -1.7830 -0.3191 -0.3121
   83SLPC  C214 7838   1.252   0.625   3.810 -1.0081  0.3109  0.0822
   83SLPC  H14R 7839   1.172   0.699   3.790 -1.0774  1.1387  2.9622
   83SLPC  H14S 7840   1.332   0.683   3.863 -1.8882  0.8876  0.8160
   83SLPC  C215 7841   1.190   0.548   3.927 -0.3027  0.2522 -0.1336
   83SLPC  H15R 7842   1.195   0.616   4.015  0.3434 -0.9892  0.8174
   83SLPC  H15S 7843   1.250   0.458   3.953 -0.3287 -0.2870 -1.8499
   83SLPC  C216 7844   1.050   0.504   3.888  0.4920  0.2638  0.5208
   83SLPC  H16R 7845   1.059   0.415   3.823 -2.3641 -0.1074  0.4996
   83SLPC  H16S 7846   0.995   0.576   3.824 -0.2013 -0.3273  0.4425
   83SLPC  C217 7847   0.958   0.487   4.012  0.8723 -0.0291  0.2081
   83SLPC  H17R 7848   0.867   0.440   3.968  1.1591 -0.4033  0.0031
   83SLPC  H17S 7849   0.938   0.580   4.068  1.4998 -0.1232  0.5884
   83SLPC  C218 7850   1.007   0.388   4.113 -0.1069  0.5641 -0.2402
   83SLPC  H18R 7851   1.112   0.409   4.142  0.1675  0.5178 -1.1788
   83SLPC  H18S 7852   1.006   0.283   4.076  1.6999  0.9608 -1.5561
   83SLPC  H18T 7853   0.946   0.386   4.206  1.3168  0.2775  0.7023
   83SLPC   C33 7854   0.576   0.454   2.475  0.1117  0.0660  0.2721
   83SLPC   H3X 7855   0.530   0.353   2.481 -0.4828  0.3630  0.9132
   83SLPC   H3Y 7856   0.530   0.506   2.388  0.1517  0.5791  0.5535
   83SLPC   C34 7857   0.524   0.517   2.610 -0.9102 -0.2124 -0.5765
   83SLPC   H4X 7858   0.417   0.489   2.619 -0.7202 -0.2731  2.4268
   83SLPC   H4Y 7859   0.537   0.627   2.610 -0.6601 -0.2414  0.2328
   83SLPC   C35 7860   0.592   0.456   2.738 -0.7068 -0.3176  0.4150
   83SLPC   H5X 7861   0.700   0.479   2.723 -1.1180 -0.3282 -3.8789
   83SLPC   H5Y 7862   0.576   0.346   2.738  0.2103 -0.4740 -0.6689
   83SLPC   C36 7863   0.548   0.518   2.872 -0.2927 -0.2322 -0.4774
   83SLPC   H6X 7864   0.448   0.476   2.896 -0.0698 -0.4296  0.1085
   83SLPC   H6Y 7865   0.540   0.629   2.864  1.3678 -0.0252  0.2904
   83SLPC   C37 7866   0.648   0.468   2.979  0.2013  0.1413 -0.7041
   83SLPC   H7X 7867   0.750   0.504   2.956 -0.2086  0.6199 -1.8858
   83SLPC   H7Y 7868   0.663   0.358   2.976  2.3070  0.3861 -0.7568
   83SLPC   C38 7869   0.605   0.513   3.117  0.3549 -0.5599  0.0905
   83SLPC   H8X 7870   0.510   0.470   3.155  1.1997 -0.6033  2.2631
   83SLPC   H8Y 7871   0.590   0.623   3.110 -1.4637 -0.7663  0.0698
   83SLPC   C39 7872   0.715   0.472   3.214  0.5355  0.2745 -0.0684
   83SLPC   H9X 7873   0.813   0.485   3.164 -0.5872  2.1862 -1.9615
   83SLPC   H9Y 7874   0.689   0.368   3.242  1.4161 -0.4769 -1.8665
   83SLPC  C310 7875   0.703   0.551   3.346 -0.1654 -0.1371  0.2589
   83SLPC  H10X 7876   0.603   0.584   3.381  0.8114  1.9111  1.3064
   83SLPC  H10Y 7877   0.757   0.648   3.339 -2.3361  1.3515  2.3762
   83SLPC  C311 7878   0.765   0.476   3.468 -0.1268 -0.2306  0.1661
   83SLPC  H11X 7879   0.774   0.563   3.536  0.3225 -0.6625  0.6749
   83SLPC  H11Y 7880   0.867   0.439   3.445  0.1508 -1.0854  2.5426
   83SLPC  C312 7881   0.679   0.361   3.534  0.7971 -0.9362  0.2946
   83SLPC  H12X 7882   0.685   0.264   3.480 -2.8926 -0.1956 -1.7607
   83SLPC  H12Y 7883   0.571   0.381   3.519  1.1149 -1.2476 -3.1879
   83SLPC  C313 7884   0.700   0.343   3.687  0.5884  0.3669  0.3379
   83SLPC  H13X 7885   0.739   0.440   3.725 -2.1125  1.5823  0.1834
   83SLPC  H13Y 7886   0.780   0.266   3.698  2.3409  1.8487 -1.3821
   83SLPC  C314 7887   0.569   0.309   3.760  0.0216 -0.1798  0.4624
   83SLPC  H14X 7888   0.525   0.221   3.708  0.7790 -0.0350 -0.4496
   83SLPC  H14Y 7889   0.494   0.390   3.748  1.0299  0.5199 -1.6520
   83SLPC  C315 7890   0.579   0.282   3.912  0.1523 -0.5507  1.3818
   83SLPC  H15X 7891   0.478   0.251   3.946 -0.0094 -2.4627 -0.6250
   83SLPC  H15Y 7892   0.610   0.379   3.956 -1.7070  1.2375 -0.9964
   83SLPC  C316 7893   0.676   0.164   3.930  0.2676 -0.2507  0.2376
   83SLPC  H16X 7894   0.770   0.219   3.906  1.2240 -0.9343  2.1991
   83SLPC  H16Y 7895   0.656   0.088   3.852  0.0138 -0.0306  0.0856
   83SLPC  C317 7896   0.679   0.102   4.068 -0.1828 -0.2785 -0.8494
   83SLPC  H17X 7897   0.709   0.189   4.130  0.2391 -1.1723  0.2534
   83SLPC  H17Y 7898   0.755   0.020   4.070  1.0965  0.8800  0.3649
   83SLPC  C318 7899   0.552   0.042   4.117  0.4596 -0.1250 -0.0126
   83SLPC  H18X 7900   0.477   0.120   4.140 -0.1436 -1.4939  3.1930
   83SLPC  H18Y 7901   0.567  -0.018   4.209 -0.6208 -1.8995 -0.9254
   83SLPC  H18Z 7902   0.529  -0.031   4.036  2.8740  0.4079 -1.2798
   84SLPC     N 7903   1.267   6.358   1.990  0.1211  0.0091  0.3058
   84SLPC   C13 7904   1.381   6.422   2.053  0.1271  0.3793  0.1219
   84SLPC  H13A 7905   1.380   6.412   2.161  0.7311  1.8572  0.2866
   84SLPC  H13B 7906   1.475   6.390   2.012  0.5814 -2.2502  2.8309
   84SLPC  H13C 7907   1.367   6.529   2.042 -3.4139  0.3831  2.6218
   84SLPC   C14 7908   1.270   6.214   2.030  0.4204  0.4397 -0.3173
   84SLPC  H14A 7909   1.340   6.162   1.965 -1.6572 -0.8188 -1.6801
   84SLPC  H14B 7910   1.292   6.204   2.135 -1.7083 -0.7093  0.0560
   84SLPC  H14C 7911   1.179   6.158   2.014  0.5544 -0.3006  1.3722
   84SLPC   C15 7912   1.282   6.372   1.842  0.2546 -0.2367 -0.0131
   84SLPC  H15A 7913   1.233   6.300   1.778 -2.1572  1.4429 -0.2401
   84SLPC  H15B 7914   1.254   6.465   1.794  2.3714 -0.0189 -0.9210
   84SLPC  H15C 7915   1.386   6.390   1.820 -0.0409  0.2731 -1.0573
   84SLPC   C12 7916   1.140   6.432   2.031 -0.2708 -0.1358  0.5542
   84SLPC  H12A 7917   1.056   6.391   1.977  0.5419  2.5833 -3.1660
   84SLPC  H12B 7918   1.159   6.533   1.999  0.0252  0.1973  1.7475
   84SLPC   C11 7919   1.114   6.442   2.175  0.2010 -0.2961 -0.1902
   84SLPC  H11A 7920   1.041   6.524   2.193  1.6299  1.0992 -0.5571
   84SLPC  H11B 7921   1.197   6.483   2.236 -0.8828  0.0521  1.1096
   84SLPC     P 7922   0.940   6.273   2.242 -0.0627 -0.1992 -0.2784
   84SLPC   O13 7923   0.885   6.251   2.107  0.0692 -0.1078  0.1336
   84SLPC   O14 7924   0.926   6.160   2.338 -0.5837  0.1056 -0.3156
   84SLPC   O12 7925   1.087   6.318   2.231  0.0354  0.8981  0.1160
   84SLPC   O11 7926   0.878   6.399   2.312  0.0071 -1.5599 -0.7085
   84SLPC    C1 7927   0.737   6.392   2.337  0.4088 -0.0678  0.3962
   84SLPC    HA 7928   0.691   6.438   2.247  2.5459  0.8434 -0.2883
   84SLPC    HB 7929   0.697   6.289   2.346 -0.4507  0.0619 -1.4306
   84SLPC    C2 7930   0.688   6.462   2.468 -0.1963  0.0816 -0.0908
   84SLPC    HS 7931   0.585   6.426   2.489 -0.6351  0.2054 -1.8947
   84SLPC   O21 7932   0.672   6.602   2.443 -0.1234 -0.1779  0.7326
   84SLPC   C21 7933   0.583   6.644   2.351 -0.2006  0.5727 -0.3489
   84SLPC   O22 7934   0.485   6.576   2.313  0.1414 -0.2678  0.5907
   84SLPC   C22 7935   0.600   6.795   2.351 -0.2746  0.5035  0.5995
   84SLPC   H2R 7936   0.708   6.819   2.352  0.1212 -1.1322  0.7574
   84SLPC   H2S 7937   0.563   6.833   2.253 -0.0090 -2.6432 -0.8523
   84SLPC    C3 7938   0.793   6.443   2.584  0.2892  0.2249  0.3147
   84SLPC    HX 7939   0.886   6.503   2.574  1.7650 -1.7352  1.5364
   84SLPC    HY 7940   0.835   6.340   2.578  0.7934  0.3274  1.7050
   84SLPC   O31 7941   0.724   6.466   2.714  0.0050  0.2430 -0.6652
   84SLPC   C31 7942   0.753   6.580   2.778  0.5230 -0.1462 -0.5528
   84SLPC   O32 7943   0.826   6.670   2.739 -0.3122  0.8502 -0.5263
   84SLPC   C32 7944   0.686   6.573   2.913 -1.5755 -0.0365 -0.1707
   84SLPC   H2X 7945   0.651   6.472   2.942 -1.2427 -0.3197 -0.7250
   84SLPC   H2Y 7946   0.601   6.643   2.898 -1.1216  0.6904  0.5382
   84SLPC   C23 7947   0.519   6.876   2.456 -0.0460  0.6450 -0.3564
   84SLPC   H3R 7948   0.435   6.811   2.490  0.8925  0.5773  2.0503
   84SLPC   H3S 7949   0.482   6.966   2.403  1.0645  1.4727  0.2219
   84SLPC   C24 7950   0.606   6.911   2.573  0.5813  0.1245 -0.2978
   84SLPC   H4R 7951   0.688   6.980   2.545  0.4076 -0.0268 -1.2206
   84SLPC   H4S 7952   0.646   6.816   2.613 -0.6361  0.2781  1.3753
   84SLPC   C25 7953   0.511   6.961   2.685 -0.2168  0.2822  0.8569
   84SLPC   H5R 7954   0.430   6.888   2.704 -0.4789  0.6815  1.3150
   84SLPC   H5S 7955   0.470   7.055   2.642  0.0257 -0.3479 -0.8425
   84SLPC   C26 7956   0.597   6.983   2.806  0.2233  0.2365  0.0955
   84SLPC   H6R 7957   0.672   7.064   2.796  1.3832 -0.6031  1.6134
   84SLPC   H6S 7958   0.642   6.886   2.832  0.0593 -0.0719 -0.7377
   84SLPC   C27 7959   0.509   7.004   2.938 -0.2400 -0.3514  0.0361
   84SLPC   H7R 7960   0.419   6.938   2.932  0.6755 -1.6461  0.2425
   84SLPC   H7S 7961   0.476   7.109   2.956  3.1816  1.2658 -2.2274
   84SLPC   C28 7962   0.587   6.954   3.071  0.0583  0.5224  0.0579
   84SLPC   H8R 7963   0.696   6.937   3.059  0.9216  1.1146  4.8559
   84SLPC   H8S 7964   0.556   6.850   3.092 -0.8188  0.2711 -2.1996
   84SLPC   C29 7965   0.562   7.037   3.193  0.6556 -0.0168 -0.3625
   84SLPC   H9R 7966   0.535   7.142   3.179 -2.3449 -0.5922  0.4444
   84SLPC  C210 7967   0.562   7.000   3.325  0.3173 -0.0012  0.5726
   84SLPC  H10R 7968   0.528   7.075   3.399 -1.3639 -0.4046  0.2430
   84SLPC  C211 7969   0.580   6.861   3.379  0.0980 -0.1304 -0.1343
   84SLPC  H11R 7970   0.631   6.792   3.308  1.0191 -0.0377  0.4234
   84SLPC  H11S 7971   0.488   6.801   3.393 -0.6700  1.5351  2.8136
   84SLPC  C212 7972   0.654   6.868   3.511 -0.9275  0.2253  0.6751
   84SLPC  H12R 7973   0.738   6.939   3.505  0.6209 -1.6180 -0.4377
   84SLPC  C213 7974   0.637   6.792   3.622 -0.4740 -0.2430  0.3304
   84SLPC  H13R 7975   0.709   6.813   3.702 -1.5572  1.8240  0.8230
   84SLPC  C214 7976   0.530   6.687   3.647 -0.4036 -0.2892 -0.5520
   84SLPC  H14R 7977   0.582   6.606   3.702  0.6130  0.5021 -0.3074
   84SLPC  H14S 7978   0.495   6.633   3.556  1.9505 -0.7072 -1.2865
   84SLPC  C215 7979   0.419   6.731   3.739 -0.2976 -0.2615 -0.2923
   84SLPC  H15R 7980   0.359   6.817   3.702 -2.5207  0.2437  3.9275
   84SLPC  H15S 7981   0.469   6.767   3.832 -0.0631 -1.5281  0.0894
   84SLPC  C216 7982   0.319   6.627   3.779 -0.4096  0.1354 -0.1993
   84SLPC  H16R 7983   0.384   6.544   3.814  0.5294  0.7373 -0.4793
   84SLPC  H16S 7984   0.270   6.579   3.692 -2.4871 -0.7700  1.3611
   84SLPC  C217 7985   0.223   6.685   3.886  0.0962 -0.0537 -0.2848
   84SLPC  H17R 7986   0.190   6.777   3.832 -0.4189 -0.8412 -1.3656
   84SLPC  H17S 7987   0.282   6.707   3.977  0.3612  2.1952 -0.9251
   84SLPC  C218 7988   0.099   6.600   3.915  0.5300  0.0299  0.7051
   84SLPC  H18R 7989   0.031   6.595   3.827 -0.4354  0.4801  1.4070
   84SLPC  H18S 7990   0.038   6.640   3.999 -0.3036  0.8796 -0.2740
   84SLPC  H18T 7991   0.123   6.494   3.939 -1.1436 -1.0715 -1.9303
   84SLPC   C33 7992   0.773   6.641   3.035 -0.1071  0.3591  0.1466
   84SLPC   H3X 7993   0.696   6.660   3.114 -3.0382 -0.5593 -2.2907
   84SLPC   H3Y 7994   0.825   6.732   2.999 -2.1079  1.7007  0.4457
   84SLPC   C34 7995   0.866   6.536   3.092 -0.3447 -0.2481  0.5987
   84SLPC   H4X 7996   0.967   6.540   3.045 -0.0826  0.8960  1.2051
   84SLPC   H4Y 7997   0.826   6.434   3.073 -1.1115  0.5552 -2.6144
   84SLPC   C35 7998   0.876   6.552   3.250 -0.2898  0.7539  0.2136
   84SLPC   H5X 7999   0.938   6.473   3.296 -0.3466  1.6232  1.8371
   84SLPC   H5Y 8000   0.775   6.544   3.296  0.0656  0.8150  1.0132
   84SLPC   C36 8001   0.952   6.681   3.293  0.6480  0.1532  0.2823
   84SLPC   H6X 8002   0.871   6.757   3.282 -2.2180 -2.5236  1.5991
   84SLPC   H6Y 8003   1.036   6.704   3.223 -0.5639 -0.4055 -1.4139
   84SLPC   C37 8004   0.997   6.692   3.442  0.0093  0.1549  0.4909
   84SLPC   H7X 8005   0.901   6.698   3.497  0.9144  2.0766  2.0224
   84SLPC   H7Y 8006   1.055   6.787   3.452 -1.1637  0.9165  0.1846
   84SLPC   C38 8007   1.070   6.568   3.499 -0.2412  0.4977  0.1331
   84SLPC   H8X 8008   1.168   6.540   3.455  0.2034 -0.6265  1.7545
   84SLPC   H8Y 8009   0.994   6.487   3.493 -1.1505  1.3412 -0.1258
   84SLPC   C39 8010   1.103   6.583   3.650 -0.4860  0.6381  0.2627
   84SLPC   H9X 8011   1.016   6.599   3.717  0.9901  1.2207  2.1743
   84SLPC   H9Y 8012   1.168   6.672   3.667 -3.4697  2.6696  1.9751
   84SLPC  C310 8013   1.168   6.462   3.717  0.0861 -0.6474  0.3791
   84SLPC  H10X 8014   1.234   6.431   3.633  0.3221 -0.7979  0.6201
   84SLPC  H10Y 8015   1.101   6.377   3.742 -0.7944 -0.5390 -1.4385
   84SLPC  C311 8016   1.254   6.485   3.841  0.1645  0.3888  0.7309
   84SLPC  H11X 8017   1.178   6.505   3.920 -0.1301  2.4412  0.0095
   84SLPC  H11Y 8018   1.325   6.570   3.832 -0.4499  0.8588  0.2619
   84SLPC  C312 8019   1.332   6.362   3.882  0.1025  0.4885 -0.0459
   84SLPC  H12X 8020   1.408   6.344   3.803  4.9057  2.1695  3.6908
   84SLPC  H12Y 8021   1.264   6.274   3.887  0.0838  0.2610 -2.7787
   84SLPC  C313 8022   1.410   6.385   4.017 -0.1034 -0.5417  0.0197
   84SLPC  H13X 8023   1.338   6.408   4.099  2.1575  0.8547  1.7295
   84SLPC  H13Y 8024   1.470   6.478   4.009 -1.5368  0.4433  0.2147
   84SLPC  C314 8025   1.503   6.261   4.052  0.2233  0.3372 -0.0054
   84SLPC  H14X 8026   1.590   6.245   3.984  0.8146  1.9493  0.3221
   84SLPC  H14Y 8027   1.448   6.173   4.014  0.0036  0.5830 -0.2604
   84SLPC  C315 8028   1.551   6.234   4.196  0.3755 -0.3228 -0.3308
   84SLPC  H15X 8029   1.465   6.259   4.262 -0.3250  0.8900 -1.6508
   84SLPC  H15Y 8030   1.635   6.301   4.224 -1.2939  1.4992  0.5510
   84SLPC  C316 8031   1.598   6.086   4.215  0.7786 -0.1205  0.5105
   84SLPC  H16X 8032   1.678   6.071   4.139 -0.1772  1.5027 -0.8989
   84SLPC  H16Y 8033   1.514   6.016   4.198 -0.1278  0.7317  1.3486
   84SLPC  C317 8034   1.662   6.060   4.353  0.4641 -0.3075  0.0690
   84SLPC  H17X 8035   1.681   5.951   4.362 -2.1991 -0.7359  1.4618
   84SLPC  H17Y 8036   1.591   6.087   4.434  1.5556  1.4774  0.4795
   84SLPC  C318 8037   1.792   6.134   4.381  0.1366 -0.9920  0.0396
   84SLPC  H18X 8038   1.862   6.118   4.297 -0.3885  0.8389 -0.8026
   84SLPC  H18Y 8039   1.830   6.099   4.480  0.3997 -0.7775  0.0146
   84SLPC  H18Z 8040   1.769   6.242   4.397  0.7282 -0.8020 -0.3754
   85SLPC     N 8041   3.029   4.544   1.912 -0.0239  0.0949  0.2928
   85SLPC   C13 8042   2.908   4.459   1.951 -0.3058 -0.1606  0.8299
   85SLPC  H13A 8043   2.917   4.354   1.929  0.2512  0.2184 -0.9497
   85SLPC  H13B 8044   2.897   4.456   2.058 -2.2566 -0.9822  0.6354
   85SLPC  H13C 8045   2.816   4.494   1.907  0.5576  2.2846  0.7810
   85SLPC   C14 8046   2.997   4.689   1.938 -0.2314 -0.5439 -0.5776
   85SLPC  H14A 8047   2.965   4.696   2.040  1.1631 -0.5476 -0.1127
   85SLPC  H14B 8048   3.091   4.743   1.940 -0.8553  0.5169  0.8329
   85SLPC  H14C 8049   2.947   4.735   1.854  1.4050 -0.0102 -1.3216
   85SLPC   C15 8050   3.061   4.520   1.770 -0.0459  0.1444  0.4209
   85SLPC  H15A 8051   3.146   4.575   1.734 -0.3148  0.6506  0.5512
   85SLPC  H15B 8052   3.088   4.416   1.761  2.4833  0.6626  1.4597
   85SLPC  H15C 8053   2.968   4.536   1.716  0.6873 -3.1001 -2.1537
   85SLPC   C12 8054   3.142   4.513   2.005 -0.0018 -0.1979  0.4480
   85SLPC  H12A 8055   3.229   4.562   1.964  0.1269  0.7764  1.7915
   85SLPC  H12B 8056   3.157   4.406   2.007  1.0214 -0.0611  1.7441
   85SLPC   C11 8057   3.139   4.549   2.154 -0.1525 -0.1612 -0.1041
   85SLPC  H11A 8058   3.126   4.659   2.165 -2.1247 -0.5383  2.2076
   85SLPC  H11B 8059   3.236   4.531   2.204  0.6179 -0.2680 -1.5725
   85SLPC     P 8060   3.055   4.349   2.315 -0.1843 -0.4107  0.1568
   85SLPC   O13 8061   2.922   4.327   2.382 -0.1170 -0.0649  0.2903
   85SLPC   O14 8062   3.100   4.238   2.229 -0.7701 -0.2961  0.2293
   85SLPC   O12 8063   3.040   4.485   2.229  0.3605  0.0304  0.1862
   85SLPC   O11 8064   3.169   4.384   2.418  0.1216 -0.1165 -0.4851
   85SLPC    C1 8065   3.179   4.511   2.483 -0.0224  0.4507  0.6804
   85SLPC    HA 8066   3.271   4.561   2.447  1.3042 -0.7796  2.2013
   85SLPC    HB 8067   3.088   4.575   2.472 -0.7336 -0.3265  1.7852
   85SLPC    C2 8068   3.203   4.489   2.635  0.1929 -0.1351  0.0125
   85SLPC    HS 8069   3.304   4.443   2.630  1.4853  2.4034  0.8899
   85SLPC   O21 8070   3.114   4.395   2.697 -0.6503  0.0069 -0.3338
   85SLPC   C21 8071   3.136   4.269   2.681 -0.6479 -0.5484  0.2811
   85SLPC   O22 8072   3.237   4.218   2.641 -0.0803 -0.1525  0.1032
   85SLPC   C22 8073   3.019   4.190   2.734  0.0523 -0.4620 -0.3846
   85SLPC   H2R 8074   2.929   4.256   2.734 -0.0222 -0.5132  1.3959
   85SLPC   H2S 8075   3.003   4.115   2.654  0.4976  0.3737 -1.2774
   85SLPC    C3 8076   3.225   4.620   2.714  0.8138  0.0545  0.4874
   85SLPC    HX 8077   3.124   4.665   2.726  0.6477  0.4413 -1.9843
   85SLPC    HY 8078   3.281   4.686   2.645 -2.7412  0.1327 -2.6919
   85SLPC   O31 8079   3.286   4.602   2.843 -0.0961  0.0158 -0.1654
   85SLPC   C31 8080   3.414   4.577   2.844 -0.6152  0.9194  0.6346
   85SLPC   O32 8081   3.478   4.557   2.742  0.2140 -0.1017  0.2180
   85SLPC   C32 8082   3.477   4.564   2.975  0.6833  0.1435  0.3851
   85SLPC   H2X 8083   3.545   4.651   2.984  0.8904 -0.0983  1.2900
   85SLPC   H2Y 8084   3.534   4.470   2.988 -0.8877 -0.8221  0.5821
   85SLPC   C23 8085   3.046   4.126   2.866  0.4557 -0.5523 -0.5419
   85SLPC   H3R 8086   3.137   4.062   2.866  0.1884 -0.9339 -0.8087
   85SLPC   H3S 8087   2.959   4.065   2.899 -0.0601  0.4954  0.0887
   85SLPC   C24 8088   3.075   4.235   2.975  0.8949 -0.1536  0.0962
   85SLPC   H4R 8089   2.985   4.301   2.971 -0.8133 -2.4296 -1.8002
   85SLPC   H4S 8090   3.169   4.293   2.963  0.8360  0.0398  0.5657
   85SLPC   C25 8091   3.069   4.184   3.120  0.2838 -0.0770 -0.1796
   85SLPC   H5R 8092   2.975   4.124   3.127 -0.0575  0.5055  0.3568
   85SLPC   H5S 8093   3.156   4.115   3.124 -1.9010 -3.0514  0.3300
   85SLPC   C26 8094   3.088   4.298   3.227  0.1985  0.5951  0.3400
   85SLPC   H6R 8095   3.030   4.385   3.191 -2.3549 -1.0074  0.3532
   85SLPC   H6S 8096   3.195   4.329   3.233 -0.1385  1.9252 -0.2797
   85SLPC   C27 8097   3.040   4.246   3.364  0.1796 -0.1284  0.0094
   85SLPC   H7R 8098   3.100   4.158   3.395 -2.4445 -2.6023 -1.4563
   85SLPC   H7S 8099   2.941   4.200   3.344  0.4156  0.0384 -1.7514
   85SLPC   C28 8100   3.009   4.362   3.458 -0.5156 -0.2241  0.2667
   85SLPC   H8R 8101   2.926   4.419   3.411 -0.1787 -0.4944 -0.6838
   85SLPC   H8S 8102   3.100   4.426   3.452 -0.0824 -0.9166 -0.8993
   85SLPC   C29 8103   2.982   4.313   3.604  0.5725 -0.2513  0.2397
   85SLPC   H9R 8104   2.984   4.203   3.603 -1.1920 -0.3027 -0.6810
   85SLPC  C210 8105   2.965   4.385   3.720  0.0011  0.5528  0.8797
   85SLPC  H10R 8106   2.945   4.322   3.808 -0.7999 -0.7949 -0.2233
   85SLPC  C211 8107   2.974   4.534   3.723  0.4736  0.2953 -0.2954
   85SLPC  H11R 8108   2.955   4.577   3.622 -0.8598 -1.3858 -0.8060
   85SLPC  H11S 8109   3.079   4.565   3.742  1.3674 -1.2831 -2.2377
   85SLPC  C212 8110   2.885   4.592   3.831 -0.2296 -0.6317  0.4931
   85SLPC  H12R 8111   2.861   4.520   3.911  1.5980 -1.5291  0.2823
   85SLPC  C213 8112   2.818   4.712   3.828  0.0825  0.0821 -0.1279
   85SLPC  H13R 8113   2.761   4.745   3.916  1.7699  2.0632  0.3030
   85SLPC  C214 8114   2.820   4.825   3.732  0.2498  0.3761 -0.6386
   85SLPC  H14R 8115   2.836   4.788   3.629 -1.0534 -0.5676 -0.5216
   85SLPC  H14S 8116   2.905   4.889   3.763  0.2614  0.2084 -0.3197
   85SLPC  C215 8117   2.696   4.915   3.732  0.1828 -0.3001 -0.0473
   85SLPC  H15R 8118   2.665   4.938   3.836 -0.7498 -0.1141 -0.3591
   85SLPC  H15S 8119   2.615   4.850   3.691 -0.2647 -0.2496  0.7311
   85SLPC  C216 8120   2.714   5.045   3.657  0.4700  0.9060  0.8269
   85SLPC  H16R 8121   2.717   5.033   3.546  0.7185 -0.7853  0.9839
   85SLPC  H16S 8122   2.809   5.097   3.682  0.8084  1.0161 -0.5921
   85SLPC  C217 8123   2.597   5.141   3.689  0.1257  0.9165 -0.2707
   85SLPC  H17R 8124   2.608   5.237   3.635 -1.5602  0.3815 -1.6625
   85SLPC  H17S 8125   2.599   5.164   3.797 -2.7722 -0.4528  0.1685
   85SLPC  C218 8126   2.446   5.092   3.660 -0.2443 -0.1271 -0.5393
   85SLPC  H18R 8127   2.430   4.993   3.709  0.3960  0.5171  1.0092
   85SLPC  H18S 8128   2.433   5.073   3.551 -3.1379  0.3301 -0.3640
   85SLPC  H18T 8129   2.368   5.147   3.715  1.4839  1.4878  0.3946
   85SLPC   C33 8130   3.368   4.574   3.092 -0.2746 -0.5513  0.0367
   85SLPC   H3X 8131   3.283   4.509   3.060 -2.1381  1.3128  0.9214
   85SLPC   H3Y 8132   3.331   4.679   3.087 -1.0412 -0.8811 -1.4698
   85SLPC   C34 8133   3.429   4.544   3.232  0.5862 -0.2121  0.5101
   85SLPC   H4X 8134   3.496   4.456   3.219 -1.3687 -1.6200 -0.6328
   85SLPC   H4Y 8135   3.342   4.508   3.290  0.1333 -0.5313 -0.3451
   85SLPC   C35 8136   3.505   4.654   3.289 -0.5095 -0.2756  0.0394
   85SLPC   H5X 8137   3.451   4.750   3.302 -1.1405 -0.6778  0.4602
   85SLPC   H5Y 8138   3.581   4.685   3.214 -1.3295  0.2962 -0.5819
   85SLPC   C36 8139   3.573   4.624   3.425  0.2737 -0.3898  0.0395
   85SLPC   H6X 8140   3.642   4.537   3.437  0.9353  0.1310  0.0509
   85SLPC   H6Y 8141   3.494   4.607   3.501 -0.7829 -0.3059 -1.0114
   85SLPC   C37 8142   3.652   4.748   3.453 -0.7119 -0.4191  0.5228
   85SLPC   H7X 8143   3.583   4.831   3.477 -2.5252 -1.2369 -1.5978
   85SLPC   H7Y 8144   3.700   4.785   3.360  1.3273  0.9829  2.0328
   85SLPC   C38 8145   3.770   4.743   3.546  0.1003  0.3652  0.0476
   85SLPC   H8X 8146   3.848   4.695   3.483 -0.4019 -1.0678  0.4894
   85SLPC   H8Y 8147   3.734   4.671   3.622 -0.4104  0.8613  0.2832
   85SLPC   C39 8148   3.820   4.876   3.599  0.4689 -0.0144  0.3342
   85SLPC   H9X 8149   3.725   4.934   3.612 -0.3451 -1.1099 -0.5118
   85SLPC   H9Y 8150   3.875   4.937   3.524  1.8092 -1.3795  0.1618
   85SLPC  C310 8151   3.903   4.874   3.728  1.0295 -0.1478  0.0728
   85SLPC  H10X 8152   3.886   4.979   3.761  0.6536 -0.4946  0.9922
   85SLPC  H10Y 8153   4.010   4.847   3.720  0.4500 -3.1020  1.2001
   85SLPC  C311 8154   3.853   4.783   3.838 -0.4418  0.0907  0.5016
   85SLPC  H11X 8155   3.884   4.677   3.821 -0.3329  0.1583  0.2593
   85SLPC  H11Y 8156   3.744   4.786   3.855 -0.2042 -0.3695  2.3323
   85SLPC  C312 8157   3.903   4.816   3.982 -0.8682 -0.3260  0.1461
   85SLPC  H12X 8158   3.842   4.765   4.059 -0.7821  1.1049  1.2019
   85SLPC  H12Y 8159   3.896   4.926   3.998  0.9654 -0.2860  1.0161
   85SLPC  C313 8160   4.044   4.772   4.004 -0.2626 -1.0836 -0.9864
   85SLPC  H13X 8161   4.108   4.815   3.924  0.7747 -0.0365  0.3550
   85SLPC  H13Y 8162   4.054   4.661   4.008  1.3300 -0.9147  0.6477
   85SLPC  C314 8163   4.102   4.815   4.135 -0.6491 -0.3694  0.1969
   85SLPC  H14X 8164   4.029   4.799   4.217 -0.7061 -0.5261  0.1167
   85SLPC  H14Y 8165   4.128   4.923   4.132  2.3209 -1.0010 -1.2359
   85SLPC  C315 8166   4.245   4.752   4.172 -0.7425 -0.5298 -0.3732
   85SLPC  H15X 8167   4.320   4.798   4.104 -1.3758  0.7233 -0.2557
   85SLPC  H15Y 8168   4.239   4.645   4.144  0.9936 -0.0136 -3.1802
   85SLPC  C316 8169   4.271   4.767   4.321 -0.8304 -0.1655 -0.6630
   85SLPC  H16X 8170   4.369   4.717   4.334 -0.8964 -0.7755 -2.2889
   85SLPC  H16Y 8171   4.194   4.712   4.380  0.1164  0.1002  0.8785
   85SLPC  C317 8172   4.286   4.905   4.374 -0.5135 -0.2996  0.6152
   85SLPC  H17X 8173   4.193   4.967   4.368  1.0082  2.0171 -0.4747
   85SLPC  H17Y 8174   4.357   4.966   4.315 -1.0720 -1.7347 -1.6742
   85SLPC  C318 8175   4.323   4.897   4.524 -0.5600  0.0500 -0.0526
   85SLPC  H18X 8176   4.320   5.002   4.559 -1.3284  0.6596 -1.8400
   85SLPC  H18Y 8177   4.420   4.845   4.540 -1.0616 -1.8812 -2.6226
   85SLPC  H18Z 8178   4.247   4.836   4.578  0.4547  0.1089  1.5136
   86SLPC     N 8179   4.848   1.606   1.781 -0.4269 -0.1713 -0.6204
   86SLPC   C13 8180   4.981   1.572   1.722 -0.2842  0.4035  0.0119
   86SLPC  H13A 8181   4.978   1.486   1.657  1.1189 -0.4639  1.0514
   86SLPC  H13B 8182   5.012   1.666   1.678  0.0922  0.4788  0.4325
   86SLPC  H13C 8183   5.061   1.554   1.792  0.1478 -0.4727 -0.6939
   86SLPC   C14 8184   4.747   1.619   1.672  0.0071 -0.0217  0.4056
   86SLPC  H14A 8185   4.777   1.674   1.583 -1.5896  0.9752  0.4493
   86SLPC  H14B 8186   4.722   1.523   1.631 -0.5471 -0.1811  1.1123
   86SLPC  H14C 8187   4.660   1.669   1.711 -1.4687 -1.0836 -1.3673
   86SLPC   C15 8188   4.869   1.739   1.844 -0.1508 -0.8541  0.2329
   86SLPC  H15A 8189   4.921   1.729   1.938 -1.3167  1.7373  1.2588
   86SLPC  H15B 8190   4.921   1.809   1.780 -0.3430  1.2919  2.2695
   86SLPC  H15C 8191   4.778   1.794   1.863  1.5051  2.0365  0.4241
   86SLPC   C12 8192   4.798   1.499   1.873 -0.0775  0.3131  0.0359
   86SLPC  H12A 8193   4.883   1.458   1.925  1.6041 -2.2211 -4.2110
   86SLPC  H12B 8194   4.770   1.408   1.822 -0.1629 -0.8830  2.0970
   86SLPC   C11 8195   4.680   1.524   1.968  0.1830  0.5148 -0.3437
   86SLPC  H11A 8196   4.697   1.615   2.030  0.1382  0.0872  0.3080
   86SLPC  H11B 8197   4.667   1.440   2.040  0.5684 -1.3850 -2.3958
   86SLPC     P 8198   4.446   1.451   1.904  0.0455 -0.1474  0.6007
   86SLPC   O13 8199   4.333   1.501   1.821  0.2463  0.0143 -0.4872
   86SLPC   O14 8200   4.498   1.317   1.876 -0.4042 -0.3978 -0.1039
   86SLPC   O12 8201   4.566   1.555   1.882 -0.5598  0.3425 -0.5780
   86SLPC   O11 8202   4.415   1.453   2.059 -0.3755  0.1350  0.4982
   86SLPC    C1 8203   4.392   1.578   2.134  0.2690  0.0506  0.0796
   86SLPC    HA 8204   4.488   1.634   2.138 -0.3031  0.9788  2.1734
   86SLPC    HB 8205   4.323   1.645   2.078 -0.7257 -1.0136  0.0086
   86SLPC    C2 8206   4.332   1.529   2.268 -1.0550 -0.7040  0.4154
   86SLPC    HS 8207   4.231   1.494   2.238 -1.0535  1.2264 -2.1671
   86SLPC   O21 8208   4.328   1.637   2.357  0.4715  0.1298  0.1813
   86SLPC   C21 8209   4.236   1.732   2.341  0.2795  0.5068 -0.2662
   86SLPC   O22 8210   4.153   1.726   2.259  0.7847  0.1553  0.2802
   86SLPC   C22 8211   4.264   1.844   2.435 -0.3113 -0.0282  0.0382
   86SLPC   H2R 8212   4.281   1.812   2.540 -0.2872  2.9071  1.0144
   86SLPC   H2S 8213   4.362   1.875   2.392 -0.3899 -0.3077 -0.3500
   86SLPC    C3 8214   4.417   1.421   2.332 -0.1516  0.6931 -0.7039
   86SLPC    HX 8215   4.515   1.471   2.334 -0.5769  1.5276 -0.0485
   86SLPC    HY 8216   4.419   1.329   2.269 -1.6782  0.0961  0.0477
   86SLPC   O31 8217   4.367   1.392   2.467  0.0340  0.0036  0.3811
   86SLPC   C31 8218   4.279   1.300   2.494 -0.5392 -0.0428 -1.1823
   86SLPC   O32 8219   4.222   1.226   2.413 -0.2684  0.4671  0.1587
   86SLPC   C32 8220   4.270   1.291   2.652  0.3677 -0.1395  0.1393
   86SLPC   H2X 8221   4.172   1.251   2.686  0.7192 -0.6557  0.5633
   86SLPC   H2Y 8222   4.292   1.394   2.688  1.3371  0.6629 -2.5231
   86SLPC   C23 8223   4.167   1.966   2.446 -0.0703  0.3642 -0.1440
   86SLPC   H3R 8224   4.059   1.937   2.442  0.8757 -4.2051  1.1957
   86SLPC   H3S 8225   4.174   2.038   2.361  0.3281  0.5198  0.0194
   86SLPC   C24 8226   4.186   2.039   2.578  0.0580  0.0104 -0.6229
   86SLPC   H4R 8227   4.145   1.971   2.656  0.2680  2.4959  1.7987
   86SLPC   H4S 8228   4.132   2.135   2.577 -0.7830 -0.3670 -4.1368
   86SLPC   C25 8229   4.334   2.081   2.628  0.0563  1.0990  0.5222
   86SLPC   H5R 8230   4.365   2.156   2.552  1.0399 -0.4945 -0.7212
   86SLPC   H5S 8231   4.410   2.000   2.636  1.8359  2.5054 -1.0385
   86SLPC   C26 8232   4.334   2.163   2.764 -0.4785 -0.2949  0.5570
   86SLPC   H6R 8233   4.285   2.262   2.750 -0.1841 -0.0225  1.4309
   86SLPC   H6S 8234   4.440   2.173   2.793 -0.5649 -1.2654  1.2459
   86SLPC   C27 8235   4.272   2.084   2.880  0.1625 -0.0979 -0.6563
   86SLPC   H7R 8236   4.315   1.982   2.884 -0.3261 -0.2644  1.4048
   86SLPC   H7S 8237   4.163   2.075   2.858 -0.2248 -1.7323  1.6313
   86SLPC   C28 8238   4.293   2.156   3.015  0.5857 -0.1435  0.1032
   86SLPC   H8R 8239   4.250   2.257   3.004 -0.0490 -0.5546 -1.5741
   86SLPC   H8S 8240   4.400   2.178   3.037  0.0361  2.2263  0.6528
   86SLPC   C29 8241   4.227   2.095   3.134  0.8047  0.5091  0.2239
   86SLPC   H9R 8242   4.125   2.059   3.114  0.2439  1.6736  0.8361
   86SLPC  C210 8243   4.275   2.072   3.261  0.5949  0.0195  0.0572
   86SLPC  H10R 8244   4.212   2.032   3.342 -1.1479  0.6780 -0.9112
   86SLPC  C211 8245   4.412   2.111   3.309 -0.3380  0.0819  0.5970
   86SLPC  H11R 8246   4.455   2.178   3.232  0.5757 -1.4928 -0.3289
   86SLPC  H11S 8247   4.483   2.025   3.316  0.8043  0.9920  0.4105
   86SLPC  C212 8248   4.414   2.190   3.430  0.0435 -0.3804 -0.6751
   86SLPC  H12R 8249   4.421   2.297   3.407  1.0363 -0.0849  0.8086
   86SLPC  C213 8250   4.390   2.154   3.556  0.2959 -0.5696  1.1849
   86SLPC  H13R 8251   4.409   2.230   3.633 -1.0008  1.4265 -0.3350
   86SLPC  C214 8252   4.394   2.006   3.595  0.8662  0.2662  0.4033
   86SLPC  H14R 8253   4.395   1.938   3.508 -0.5046  0.0034  0.5684
   86SLPC  H14S 8254   4.297   1.991   3.647  0.5105 -0.1836 -0.3737
   86SLPC  C215 8255   4.505   1.971   3.693 -0.1134  0.6513  0.0330
   86SLPC  H15R 8256   4.596   2.009   3.642 -0.9095  3.4970  0.5537
   86SLPC  H15S 8257   4.512   1.863   3.717  0.6080  0.8772  0.9291
   86SLPC  C216 8258   4.491   2.022   3.839 -0.2430 -0.0046  0.1282
   86SLPC  H16R 8259   4.398   1.982   3.885 -1.1964 -0.1730 -1.8609
   86SLPC  H16S 8260   4.488   2.132   3.847  0.2865 -0.0317  0.8790
   86SLPC  C217 8261   4.610   1.977   3.928 -0.1580  0.3688 -0.2790
   86SLPC  H17R 8262   4.692   2.049   3.913  0.7669 -0.8866 -1.4784
   86SLPC  H17S 8263   4.650   1.876   3.904 -0.3408 -0.0103  0.9409
   86SLPC  C218 8264   4.560   1.983   4.074 -0.2908 -0.3494  0.0213
   86SLPC  H18R 8265   4.647   1.983   4.143 -1.5553  2.2230  1.7884
   86SLPC  H18S 8266   4.498   1.894   4.097  1.2263 -1.6670 -0.7756
   86SLPC  H18T 8267   4.504   2.079   4.070  0.2728 -0.0566 -2.0811
   86SLPC   C33 8268   4.375   1.191   2.706 -0.2142 -0.1399 -0.5283
   86SLPC   H3X 8269   4.473   1.241   2.697  0.9488 -1.4580  3.1524
   86SLPC   H3Y 8270   4.375   1.098   2.645 -0.8369  0.0716 -0.8599
   86SLPC   C34 8271   4.358   1.146   2.852  0.8589  0.7279 -0.4358
   86SLPC   H4X 8272   4.454   1.096   2.880 -0.0543  0.1051  1.8445
   86SLPC   H4Y 8273   4.277   1.070   2.857  1.0657  0.4861 -0.7243
   86SLPC   C35 8274   4.337   1.260   2.955 -0.4627 -0.3317 -0.2676
   86SLPC   H5X 8275   4.253   1.321   2.917 -0.1547 -0.8633 -1.8805
   86SLPC   H5Y 8276   4.428   1.324   2.956 -1.5734  1.3066  0.4194
   86SLPC   C36 8277   4.318   1.200   3.090  0.5019 -0.8689 -0.5101
   86SLPC   H6X 8278   4.405   1.142   3.127 -0.2494 -0.8753  1.4004
   86SLPC   H6Y 8279   4.237   1.124   3.085  1.9313 -2.4306 -0.7438
   86SLPC   C37 8280   4.277   1.293   3.206 -0.3644 -0.4619  0.0463
   86SLPC   H7X 8281   4.179   1.333   3.172  1.1789  1.0802 -3.0191
   86SLPC   H7Y 8282   4.347   1.379   3.208  1.6729 -2.0460 -0.3313
   86SLPC   C38 8283   4.275   1.232   3.343 -0.5057  0.3887  0.2071
   86SLPC   H8X 8284   4.375   1.197   3.376 -0.8624 -3.0902 -1.8597
   86SLPC   H8Y 8285   4.218   1.140   3.319  0.6480 -0.8867  2.0676
   86SLPC   C39 8286   4.209   1.311   3.447 -0.0263 -0.2604  0.6705
   86SLPC   H9X 8287   4.104   1.339   3.423  0.1891 -0.1153 -0.1272
   86SLPC   H9Y 8288   4.269   1.404   3.457 -1.2317  0.5565  0.4972
   86SLPC  C310 8289   4.232   1.251   3.586 -0.1300 -0.3776  0.3420
   86SLPC  H10X 8290   4.340   1.251   3.608  0.1362  1.7404 -0.7550
   86SLPC  H10Y 8291   4.211   1.142   3.586  2.3972 -0.9570  2.2565
   86SLPC  C311 8292   4.149   1.322   3.697  0.2690  0.0863  0.3203
   86SLPC  H11X 8293   4.039   1.302   3.690  0.1626  0.0263  1.7660
   86SLPC  H11Y 8294   4.170   1.431   3.701 -2.2683  0.6616  0.1346
   86SLPC  C312 8295   4.167   1.264   3.833  0.0968  0.6916  0.2887
   86SLPC  H12X 8296   4.264   1.300   3.874  0.9185  2.6381 -3.0076
   86SLPC  H12Y 8297   4.181   1.154   3.825  1.0610  0.8659 -0.7033
   86SLPC  C313 8298   4.050   1.313   3.929 -0.5206 -0.3702 -0.1459
   86SLPC  H13X 8299   3.959   1.254   3.903 -1.5837  0.9096  0.5449
   86SLPC  H13Y 8300   4.036   1.421   3.911 -0.2913  0.2090  2.6243
   86SLPC  C314 8301   4.077   1.293   4.074 -0.4347 -0.3547 -0.2681
   86SLPC  H14X 8302   4.153   1.365   4.111 -1.2997  1.2990 -1.5427
   86SLPC  H14Y 8303   4.128   1.195   4.088  2.6313  1.2570  0.8810
   86SLPC  C315 8304   3.951   1.299   4.162  0.4039 -0.0859  0.2767
   86SLPC  H15X 8305   3.894   1.205   4.150  1.9817 -0.9475 -0.8840
   86SLPC  H15Y 8306   3.882   1.382   4.133 -2.4272 -2.3868 -0.0141
   86SLPC  C316 8307   3.993   1.325   4.305 -0.1652 -0.4936 -0.4139
   86SLPC  H16X 8308   4.088   1.267   4.311 -0.2607 -0.6599 -0.4954
   86SLPC  H16Y 8309   3.921   1.272   4.372 -0.5473 -2.4838 -2.2653
   86SLPC  C317 8310   4.000   1.477   4.345 -0.6214  0.7569  0.0065
   86SLPC  H17X 8311   3.906   1.532   4.323 -0.4722  1.0566  0.1065
   86SLPC  H17Y 8312   4.081   1.530   4.290 -1.8274  2.9445  0.1901
   86SLPC  C318 8313   4.036   1.496   4.491  0.7008  0.3783  0.2519
   86SLPC  H18X 8314   4.028   1.604   4.517  2.0473  0.4097  0.6300
   86SLPC  H18Y 8315   4.140   1.458   4.502  0.5058 -0.3502 -0.3685
   86SLPC  H18Z 8316   3.960   1.452   4.559 -1.5690  3.5167 -0.0150
   87SLPC     N 8317   3.907   6.837   1.971 -0.0339  0.0203  0.2574
   87SLPC   C13 8318   3.886   6.937   1.858 -0.6727  0.0788  0.2776
   87SLPC  H13A 8319   3.929   7.031   1.889 -0.1018 -0.8611  2.5675
   87SLPC  H13B 8320   3.937   6.910   1.766  1.2921  2.3581  0.6026
   87SLPC  H13C 8321   3.782   6.959   1.843 -0.4044  2.9121  1.9776
   87SLPC   C14 8322   4.052   6.810   1.982 -0.3836 -0.3953  0.3160
   87SLPC  H14A 8323   4.078   6.744   2.064 -1.9538 -1.1972  0.2091
   87SLPC  H14B 8324   4.094   6.768   1.891 -0.9146  0.8871 -0.5369
   87SLPC  H14C 8325   4.102   6.903   2.003  0.7980 -0.9551  0.1272
   87SLPC   C15 8326   3.848   6.708   1.947  0.3448 -0.2032  0.1647
   87SLPC  H15A 8327   3.889   6.673   1.854 -0.7393  3.9162 -2.1297
   87SLPC  H15B 8328   3.865   6.639   2.028  0.1896 -1.9580 -1.2263
   87SLPC  H15C 8329   3.740   6.708   1.941  0.3559 -1.0662 -0.2028
   87SLPC   C12 8330   3.835   6.889   2.091  0.6658  0.1294  0.3699
   87SLPC  H12A 8331   3.862   6.825   2.173  0.5223 -0.1160  0.2276
   87SLPC  H12B 8332   3.729   6.873   2.074  0.4520  0.9431  0.8773
   87SLPC   C11 8333   3.866   7.034   2.134 -0.4844  0.6261 -0.3014
   87SLPC  H11A 8334   3.814   7.045   2.232 -1.9296  2.6259 -1.2394
   87SLPC  H11B 8335   3.824   7.108   2.063 -0.9401  3.4153  2.6166
   87SLPC     P 8336   4.081   7.175   2.111  0.4754 -0.0123  0.3807
   87SLPC   O13 8337   4.227   7.174   2.131 -0.4146  0.1574 -0.0848
   87SLPC   O14 8338   4.039   7.206   1.971 -0.1212 -0.2981 -0.1648
   87SLPC   O12 8339   4.009   7.045   2.161  0.2704 -0.1355 -0.3284
   87SLPC   O11 8340   4.024   7.292   2.195 -0.1702 -0.7779  0.0149
   87SLPC    C1 8341   4.015   7.281   2.337 -0.2836  0.8624  0.4290
   87SLPC    HA 8342   3.911   7.305   2.370 -0.3279  1.6224 -0.2458
   87SLPC    HB 8343   4.042   7.180   2.375 -1.8571  0.5566  0.8000
   87SLPC    C2 8344   4.103   7.391   2.393 -0.3147  0.9530  0.3324
   87SLPC    HS 8345   4.202   7.343   2.386 -0.6333  0.1464  1.1070
   87SLPC   O21 8346   4.055   7.399   2.531  0.3684 -0.3704  0.0918
   87SLPC   C21 8347   4.144   7.376   2.617  0.5394  0.5330  0.5069
   87SLPC   O22 8348   4.261   7.344   2.597  0.0167 -0.0577  0.4356
   87SLPC   C22 8349   4.078   7.388   2.755  0.2426 -0.0467 -0.1516
   87SLPC   H2R 8350   4.059   7.497   2.762 -0.8773 -0.2865  0.7779
   87SLPC   H2S 8351   3.989   7.322   2.752 -0.2328  0.5977 -2.2312
   87SLPC    C3 8352   4.119   7.530   2.318  0.3900 -0.1032 -0.2608
   87SLPC    HX 8353   4.014   7.547   2.287  0.0958  0.0451  0.8057
   87SLPC    HY 8354   4.166   7.528   2.217  0.2071  1.6073 -0.4130
   87SLPC   O31 8355   4.181   7.639   2.398  1.0157  0.0437  0.0203
   87SLPC   C31 8356   4.310   7.651   2.402 -0.9481  0.8517  0.7590
   87SLPC   O32 8357   4.397   7.587   2.346  0.6546  0.2516 -0.4048
   87SLPC   C32 8358   4.359   7.772   2.488 -0.6864 -0.2839  0.6456
   87SLPC   H2X 8359   4.267   7.833   2.506 -1.8379 -1.9718  0.7209
   87SLPC   H2Y 8360   4.431   7.821   2.420 -2.7140  0.4187 -1.0976
   87SLPC   C23 8361   4.164   7.347   2.875 -0.2659  0.5926 -0.4890
   87SLPC   H3R 8362   4.253   7.412   2.888 -0.8876  1.3346  0.2447
   87SLPC   H3S 8363   4.203   7.245   2.860 -1.4149 -0.1814  1.3304
   87SLPC   C24 8364   4.083   7.349   3.002 -0.0293 -0.3962 -0.2725
   87SLPC   H4R 8365   4.008   7.268   2.988 -2.0909  1.6485 -1.9099
   87SLPC   H4S 8366   4.019   7.440   3.001 -1.9056 -1.6485  0.3537
   87SLPC   C25 8367   4.171   7.318   3.121 -0.3859 -0.1448  0.1901
   87SLPC   H5R 8368   4.253   7.393   3.128  0.5082 -1.0620 -0.2420
   87SLPC   H5S 8369   4.228   7.228   3.092  1.9732  1.7746 -1.4941
   87SLPC   C26 8370   4.115   7.288   3.262  0.2546 -0.0835  1.4075
   87SLPC   H6R 8371   4.197   7.308   3.334  1.4465  3.3280 -0.6569
   87SLPC   H6S 8372   4.083   7.182   3.258 -0.9543  0.2364 -3.2294
   87SLPC   C27 8373   3.994   7.378   3.297 -0.8557 -0.0435  0.2373
   87SLPC   H7R 8374   3.905   7.319   3.266 -0.5179 -0.3606 -0.1283
   87SLPC   H7S 8375   3.995   7.466   3.229 -0.4684  1.3953  2.0198
   87SLPC   C28 8376   3.996   7.431   3.444 -0.0540 -0.3674  0.4648
   87SLPC   H8R 8377   3.899   7.481   3.467 -0.9428 -0.3776 -2.7364
   87SLPC   H8S 8378   4.084   7.498   3.456 -0.0460 -0.4843  1.0580
   87SLPC   C29 8379   4.004   7.312   3.533 -0.7646  0.2732  0.0712
   87SLPC   H9R 8380   3.942   7.225   3.507  1.5943 -1.3475 -0.4888
   87SLPC  C210 8381   4.088   7.308   3.639 -0.0057 -0.0774  0.5013
   87SLPC  H10R 8382   4.080   7.228   3.715  0.2483 -0.0700  0.5380
   87SLPC  C211 8383   4.200   7.400   3.664  0.1931  0.5744 -0.2247
   87SLPC  H11R 8384   4.146   7.491   3.699  2.0188  0.5891  2.9236
   87SLPC  H11S 8385   4.247   7.423   3.567 -0.4593 -2.4439 -1.3921
   87SLPC  C212 8386   4.295   7.348   3.770 -0.6201  0.5197  0.6623
   87SLPC  H12R 8387   4.342   7.252   3.744  1.1799  0.8070  2.6069
   87SLPC  C213 8388   4.317   7.385   3.898  0.1887  0.4727 -0.7619
   87SLPC  H13R 8389   4.397   7.330   3.949 -0.0764  0.7070 -0.0794
   87SLPC  C214 8390   4.263   7.508   3.967 -0.1753  0.1023 -0.5050
   87SLPC  H14R 8391   4.260   7.589   3.891 -0.5615  1.9139  1.3519
   87SLPC  H14S 8392   4.329   7.543   4.049  0.8473  0.8794 -1.6369
   87SLPC  C215 8393   4.129   7.479   4.033  0.1905 -0.7762  0.1965
   87SLPC  H15R 8394   4.045   7.470   3.961  1.0647 -0.7320 -0.8626
   87SLPC  H15S 8395   4.109   7.569   4.095 -2.0090  2.4777 -4.6133
   87SLPC  C216 8396   4.123   7.363   4.129 -0.8674 -0.0582 -0.2466
   87SLPC  H16R 8397   4.124   7.267   4.074 -2.0118 -0.7394  0.8659
   87SLPC  H16S 8398   4.019   7.383   4.163 -1.3465  2.3878 -2.8158
   87SLPC  C217 8399   4.216   7.362   4.248  0.1678  0.1464  0.3109
   87SLPC  H17R 8400   4.213   7.461   4.298 -2.8869  0.8952 -1.0838
   87SLPC  H17S 8401   4.319   7.342   4.211 -0.0178 -0.7494  0.2522
   87SLPC  C218 8402   4.177   7.253   4.352  0.0982 -0.5539 -0.7773
   87SLPC  H18R 8403   4.082   7.278   4.405  2.0658 -1.1387  3.4328
   87SLPC  H18S 8404   4.264   7.240   4.419  0.2087  4.1117  0.3975
   87SLPC  H18T 8405   4.159   7.160   4.295 -0.7690 -1.2566  0.5906
   87SLPC   C33 8406   4.434   7.733   2.618 -0.0901 -0.2100 -0.1410
   87SLPC   H3X 8407   4.510   7.808   2.646 -3.8995  2.9331  3.0350
   87SLPC   H3Y 8408   4.487   7.636   2.605 -0.6925 -0.3554 -1.7550
   87SLPC   C34 8409   4.339   7.720   2.735  0.2590 -0.2281 -0.3786
   87SLPC   H4X 8410   4.271   7.635   2.715  1.1920 -1.1846  0.4029
   87SLPC   H4Y 8411   4.286   7.818   2.741 -1.1216 -0.8076 -2.3238
   87SLPC   C35 8412   4.412   7.704   2.872 -0.4972 -0.1529 -0.0163
   87SLPC   H5X 8413   4.477   7.793   2.858  0.2552 -0.7804 -0.5665
   87SLPC   H5Y 8414   4.473   7.612   2.883 -0.4359 -0.1379 -0.2253
   87SLPC   C36 8415   4.316   7.711   2.993  0.5564  0.0582  0.3551
   87SLPC   H6X 8416   4.247   7.625   2.991 -0.4817  0.8522  0.9037
   87SLPC   H6Y 8417   4.251   7.800   2.980  0.3587 -0.2371 -0.7609
   87SLPC   C37 8418   4.388   7.712   3.119  0.2920  0.4702  0.2889
   87SLPC   H7X 8419   4.458   7.798   3.112  0.5920  0.1757 -0.4186
   87SLPC   H7Y 8420   4.444   7.617   3.128 -1.9879 -0.8702  1.3006
   87SLPC   C38 8421   4.299   7.704   3.239  0.2475 -0.5151 -0.0820
   87SLPC   H8X 8422   4.232   7.617   3.222 -3.1679  2.3383 -2.5684
   87SLPC   H8Y 8423   4.231   7.791   3.241  1.0176  0.1284 -1.1184
   87SLPC   C39 8424   4.375   7.686   3.371 -0.0332 -0.0862 -0.6761
   87SLPC   H9X 8425   4.484   7.707   3.362  0.0066 -0.7842 -2.1221
   87SLPC   H9Y 8426   4.360   7.580   3.402  1.6120  0.1532  1.1088
   87SLPC  C310 8427   4.320   7.777   3.488 -0.3599  0.2374  0.3238
   87SLPC  H10X 8428   4.213   7.750   3.499 -0.3725  0.9356  2.2001
   87SLPC  H10Y 8429   4.347   7.881   3.461  0.4984  0.0590  0.4633
   87SLPC  C311 8430   4.387   7.751   3.627 -0.3106 -0.2596  0.1557
   87SLPC  H11X 8431   4.494   7.773   3.606 -0.7233  0.3073 -1.5403
   87SLPC  H11Y 8432   4.384   7.641   3.645 -0.0674 -0.4594 -0.9669
   87SLPC  C312 8433   4.337   7.839   3.747  0.0242  0.3989  0.7010
   87SLPC  H12X 8434   4.226   7.834   3.755 -0.1073  2.8952  1.4722
   87SLPC  H12Y 8435   4.352   7.944   3.713  1.5123  0.1901  0.6727
   87SLPC  C313 8436   4.413   7.822   3.878  0.3346 -0.7368  0.5266
   87SLPC  H13X 8437   4.512   7.866   3.857 -1.2138  3.3592  0.8779
   87SLPC  H13Y 8438   4.424   7.716   3.909 -1.3864 -0.7252  1.3185
   87SLPC  C314 8439   4.349   7.897   3.997 -0.0971 -0.3088 -0.0427
   87SLPC  H14X 8440   4.250   7.850   4.017 -0.8099  0.3050 -1.8938
   87SLPC  H14Y 8441   4.329   8.002   3.967  1.3900  0.4437  1.4466
   87SLPC  C315 8442   4.446   7.917   4.108 -0.4877 -0.1411 -0.0524
   87SLPC  H15X 8443   4.543   7.964   4.081 -0.4829 -0.4175 -0.5258
   87SLPC  H15Y 8444   4.472   7.815   4.143 -0.2543 -0.6004 -1.5018
   87SLPC  C316 8445   4.372   7.992   4.214  0.1079 -0.0853  1.0422
   87SLPC  H16X 8446   4.279   7.938   4.242 -1.0527  0.5645 -1.2723
   87SLPC  H16Y 8447   4.323   8.085   4.177 -1.2565 -1.6697 -1.3887
   87SLPC  C317 8448   4.436   8.037   4.351 -1.3581  0.4353 -0.1880
   87SLPC  H17X 8449   4.518   8.110   4.331 -1.6399  0.5699 -0.8850
   87SLPC  H17Y 8450   4.471   7.944   4.400 -2.3043  0.3221  0.2993
   87SLPC  C318 8451   4.339   8.125   4.438  0.5045 -0.1304 -0.1250
   87SLPC  H18X 8452   4.385   8.177   4.525  0.5108  0.8306 -0.6956
   87SLPC  H18Y 8453   4.251   8.067   4.475 -0.0379 -0.1884 -1.4779
   87SLPC  H18Z 8454   4.297   8.198   4.367  0.7424 -1.4972 -1.7200
   88SLPC     N 8455   4.850   5.692   2.059 -0.5644 -0.1890 -0.1459
   88SLPC   C13 8456   4.738   5.754   1.984  0.4805  0.3582 -0.3810
   88SLPC  H13A 8457   4.709   5.841   2.041  0.8708  0.6461 -0.6224
   88SLPC  H13B 8458   4.755   5.781   1.881 -1.1518 -1.8681 -1.3116
   88SLPC  H13C 8459   4.654   5.687   1.977  1.2596 -0.5017 -1.9868
   88SLPC   C14 8460   4.866   5.547   2.019 -0.0236  0.4968  0.8361
   88SLPC  H14A 8461   4.938   5.492   2.077  2.6987  1.1569 -1.6917
   88SLPC  H14B 8462   4.775   5.496   2.046  1.1459 -2.6518 -0.7611
   88SLPC  H14C 8463   4.882   5.529   1.914 -1.5655  1.8384  0.3152
   88SLPC   C15 8464   4.821   5.694   2.207  0.0255 -0.6473 -0.0289
   88SLPC  H15A 8465   4.833   5.791   2.254  0.1142 -1.9086  2.7399
   88SLPC  H15B 8466   4.719   5.664   2.222  0.1304 -0.9587  0.0585
   88SLPC  H15C 8467   4.883   5.625   2.262 -0.1577  0.3058  1.4395
   88SLPC   C12 8468   4.980   5.763   2.033  0.2802  0.1013 -0.1774
   88SLPC  H12A 8469   4.978   5.769   1.925  1.1928  1.7537 -0.1319
   88SLPC  H12B 8470   5.062   5.699   2.059  0.9981  0.9430 -0.3359
   88SLPC   C11 8471   5.011   5.911   2.082  0.3953  0.0532 -0.4616
   88SLPC  H11A 8472   4.921   5.970   2.056  0.4728  0.1992 -0.3999
   88SLPC  H11B 8473   5.091   5.959   2.023  0.8237 -0.6854 -0.4942
   88SLPC     P 8474   5.160   5.889   2.303 -0.5021  0.1594  0.0894
   88SLPC   O13 8475   5.166   5.742   2.315  0.1797  0.4228  0.7091
   88SLPC   O14 8476   5.277   5.956   2.240 -0.5493 -0.3086  0.2622
   88SLPC   O12 8477   5.026   5.919   2.224 -0.1276  0.6991 -0.4020
   88SLPC   O11 8478   5.131   5.952   2.448  0.2258 -0.0537  0.0469
   88SLPC    C1 8479   5.014   5.909   2.510 -0.1259 -0.3899  0.9672
   88SLPC    HA 8480   4.944   5.995   2.515  0.6385  0.2597  0.7316
   88SLPC    HB 8481   4.959   5.829   2.455 -0.3060 -0.2748  0.9788
   88SLPC    C2 8482   5.043   5.862   2.650 -0.7932  0.5797 -0.7887
   88SLPC    HS 8483   4.944   5.836   2.692 -0.5868 -1.3879 -1.4310
   88SLPC   O21 8484   5.113   5.962   2.726  0.2959 -0.4201  0.7425
   88SLPC   C21 8485   5.046   6.073   2.758 -0.3339 -0.1788 -0.1761
   88SLPC   O22 8486   4.927   6.096   2.743  0.0962  0.9473 -0.3886
   88SLPC   C22 8487   5.143   6.156   2.846 -0.0069 -1.0278  0.3511
   88SLPC   H2R 8488   5.176   6.095   2.933  0.4539  1.3889  1.9707
   88SLPC   H2S 8489   5.228   6.184   2.780  0.6609  1.4249  2.1157
   88SLPC    C3 8490   5.126   5.732   2.656  0.4624 -0.6151  0.4061
   88SLPC    HX 8491   5.223   5.740   2.603  0.0444  1.4419 -0.1423
   88SLPC    HY 8492   5.070   5.665   2.586 -0.7681 -0.5626  1.3124
   88SLPC   O31 8493   5.148   5.683   2.792 -0.3188  0.3718  0.4545
   88SLPC   C31 8494   5.073   5.574   2.816 -0.0406  0.1307 -0.9564
   88SLPC   O32 8495   4.998   5.527   2.736 -0.3231  0.5778  0.0297
   88SLPC   C32 8496   5.099   5.530   2.963  0.3985  0.2484 -0.5728
   88SLPC   H2X 8497   5.033   5.578   3.038  1.8841 -1.4921  2.0419
   88SLPC   H2Y 8498   5.197   5.577   2.987 -0.1948  1.3717 -0.2948
   88SLPC   C23 8499   5.078   6.287   2.892 -0.1090 -1.0308  0.2361
   88SLPC   H3R 8500   5.003   6.264   2.971 -2.9101 -1.6563 -2.4070
   88SLPC   H3S 8501   5.020   6.321   2.804  1.2810 -2.6355 -1.3710
   88SLPC   C24 8502   5.178   6.391   2.928  0.1078  0.3081 -0.9040
   88SLPC   H4R 8503   5.113   6.472   2.968 -1.4272 -1.7346  0.9681
   88SLPC   H4S 8504   5.230   6.429   2.837 -0.8227  0.3100 -1.4460
   88SLPC   C25 8505   5.283   6.350   3.032 -0.1618 -0.7469 -0.6909
   88SLPC   H5R 8506   5.343   6.443   3.045 -2.4977  0.7974 -0.2783
   88SLPC   H5S 8507   5.347   6.275   2.981  1.2376 -1.1736  1.5513
   88SLPC   C26 8508   5.225   6.288   3.165  0.8199  0.0837 -0.6294
   88SLPC   H6R 8509   5.306   6.251   3.231  1.0413 -0.0791 -0.9882
   88SLPC   H6S 8510   5.157   6.204   3.137 -1.4066  0.7855  2.1403
   88SLPC   C27 8511   5.117   6.381   3.238  0.8708  0.1857  0.5263
   88SLPC   H7R 8512   5.048   6.414   3.158 -0.4441 -0.0451  1.5349
   88SLPC   H7S 8513   5.182   6.465   3.272  0.0627  1.4073 -0.8046
   88SLPC   C28 8514   5.057   6.294   3.348 -0.1011 -0.3208 -0.3560
   88SLPC   H8R 8515   5.140   6.229   3.382  1.7545  1.9297 -0.3948
   88SLPC   H8S 8516   4.975   6.252   3.286 -0.4449  0.9608 -0.7946
   88SLPC   C29 8517   5.009   6.383   3.459 -0.2338 -0.0687  0.3999
   88SLPC   H9R 8518   4.960   6.475   3.424 -0.5699  0.5098  2.2949
   88SLPC  C210 8519   5.031   6.369   3.592  1.0103  0.1638 -0.4428
   88SLPC  H10R 8520   4.988   6.443   3.661  2.2189 -0.9133  1.5541
   88SLPC  C211 8521   5.109   6.252   3.653  0.1473  0.0072  0.0210
   88SLPC  H11R 8522   5.112   6.159   3.592  1.0419  0.5217 -0.7521
   88SLPC  H11S 8523   5.060   6.221   3.748  0.0715  0.6704  0.2035
   88SLPC  C212 8524   5.249   6.303   3.673 -0.2853  0.5821  0.0231
   88SLPC  H12R 8525   5.295   6.350   3.585  2.2699  0.2243  1.0741
   88SLPC  C213 8526   5.315   6.326   3.791 -0.4635 -0.5129  0.0181
   88SLPC  H13R 8527   5.420   6.358   3.788 -0.3604 -0.8361 -2.7881
   88SLPC  C214 8528   5.269   6.276   3.921 -0.4613  0.0687  0.2075
   88SLPC  H14R 8529   5.164   6.309   3.936 -0.5202  1.1921 -2.2472
   88SLPC  H14S 8530   5.332   6.324   3.999  0.8755 -1.1503 -0.0867
   88SLPC  C215 8531   5.295   6.130   3.958  0.0656 -0.3055  0.7118
   88SLPC  H15R 8532   5.395   6.106   3.917  0.4819  2.0342  0.2098
   88SLPC  H15S 8533   5.227   6.071   3.893  3.1843 -3.6240  0.1581
   88SLPC  C216 8534   5.288   6.093   4.105  0.2434  0.3879  0.7539
   88SLPC  H16R 8535   5.183   6.100   4.143  0.0406 -0.6090  0.4052
   88SLPC  H16S 8536   5.352   6.157   4.169  0.5816  0.9768 -0.1517
   88SLPC  C217 8537   5.344   5.951   4.127  0.6704  0.1261  0.6292
   88SLPC  H17R 8538   5.452   5.933   4.107  0.6546 -0.4564  1.0326
   88SLPC  H17S 8539   5.294   5.889   4.050  0.6390  2.1379 -1.0572
   88SLPC  C218 8540   5.310   5.889   4.266  0.0737 -0.2211  0.8830
   88SLPC  H18R 8541   5.360   5.790   4.272 -1.8404 -1.3214 -0.2651
   88SLPC  H18S 8542   5.199   5.878   4.268 -0.1363 -0.1986 -2.8907
   88SLPC  H18T 8543   5.358   5.951   4.345  2.6503 -0.3077 -0.5029
   88SLPC   C33 8544   5.119   5.373   2.973  0.0838  0.3192  0.1892
   88SLPC   H3X 8545   5.176   5.343   2.882  0.8629  0.9168  0.4749
   88SLPC   H3Y 8546   5.019   5.324   2.979  0.9334 -1.5118  0.3087
   88SLPC   C34 8547   5.207   5.324   3.094 -0.0588 -0.2947  0.9354
   88SLPC   H4X 8548   5.294   5.392   3.088 -1.4020  1.3479 -1.8174
   88SLPC   H4Y 8549   5.239   5.220   3.071  0.0384  0.4422 -2.8650
   88SLPC   C35 8550   5.139   5.330   3.231  0.4589 -0.5122 -0.1321
   88SLPC   H5X 8551   5.050   5.263   3.230 -0.2320  0.3669 -1.5241
   88SLPC   H5Y 8552   5.111   5.436   3.248  1.2144  0.0612 -2.1456
   88SLPC   C36 8553   5.234   5.308   3.352  0.2077  0.2748 -0.3740
   88SLPC   H6X 8554   5.283   5.407   3.366  0.4691  0.4907 -2.3916
   88SLPC   H6Y 8555   5.307   5.225   3.335  1.0867  0.7874  0.7987
   88SLPC   C37 8556   5.151   5.290   3.481  0.8221  0.2690  0.5071
   88SLPC   H7X 8557   5.063   5.225   3.462  0.5320  0.1599  2.1154
   88SLPC   H7Y 8558   5.111   5.390   3.510 -1.5179 -0.4286 -0.1118
   88SLPC   C38 8559   5.238   5.247   3.602 -0.2441 -0.0027  0.0850
   88SLPC   H8X 8560   5.330   5.309   3.606 -0.6085  0.5810 -0.4168
   88SLPC   H8Y 8561   5.270   5.141   3.589  0.7799  0.1884  0.9049
   88SLPC   C39 8562   5.172   5.261   3.737 -0.1315 -0.4207 -0.3605
   88SLPC   H9X 8563   5.250   5.239   3.813 -1.4937  0.0751  1.2423
   88SLPC   H9Y 8564   5.089   5.189   3.755  0.8864 -1.8319 -1.1021
   88SLPC  C310 8565   5.111   5.402   3.770 -0.2376 -0.0358  0.0709
   88SLPC  H10X 8566   5.020   5.412   3.707 -0.6100 -0.7902  0.4717
   88SLPC  H10Y 8567   5.191   5.473   3.741 -0.5753 -0.1321 -1.1455
   88SLPC  C311 8568   5.079   5.407   3.921 -0.1312 -0.6183  0.0785
   88SLPC  H11X 8569   5.170   5.382   3.980 -0.5809  0.9598  1.5333
   88SLPC  H11Y 8570   5.003   5.339   3.964  1.1088  0.2058  4.0075
   88SLPC  C312 8571   5.027   5.551   3.963 -0.2360 -0.2961  0.4041
   88SLPC  H12X 8572   4.942   5.583   3.899  1.8886  3.7920 -0.6819
   88SLPC  H12Y 8573   5.101   5.630   3.941 -0.2666 -0.6147 -0.9220
   88SLPC  C313 8574   4.992   5.565   4.109  0.5505  0.2502 -0.0546
   88SLPC  H13X 8575   4.913   5.488   4.122  0.9652 -0.1760 -0.0359
   88SLPC  H13Y 8576   4.961   5.667   4.142  1.0393 -0.5229  3.1303
   88SLPC  C314 8577   5.121   5.531   4.192 -0.6602 -0.4907  0.2570
   88SLPC  H14X 8578   5.203   5.601   4.164 -0.8341 -0.7501 -0.9423
   88SLPC  H14Y 8579   5.160   5.428   4.179 -0.4127 -0.6241  1.8632
   88SLPC  C315 8580   5.099   5.544   4.344  0.0909  0.6034  0.3847
   88SLPC  H15X 8581   5.030   5.629   4.361  2.5753  2.6915  0.4593
   88SLPC  H15Y 8582   5.199   5.557   4.390  0.1690  0.8282  0.1534
   88SLPC  C316 8583   5.049   5.416   4.413 -0.1068  0.3576 -0.7087
   88SLPC  H16X 8584   5.089   5.331   4.354  0.1547 -0.5344  0.6979
   88SLPC  H16Y 8585   4.939   5.407   4.402 -0.4424  2.4241  0.4241
   88SLPC  C317 8586   5.091   5.387   4.557 -1.1478  0.0171  0.2051
   88SLPC  H17X 8587   5.202   5.395   4.551 -1.0776 -0.7441  0.3887
   88SLPC  H17Y 8588   5.076   5.286   4.600  0.2430  0.1381  1.0757
   88SLPC  C318 8589   5.058   5.489   4.657  0.1874 -0.7466 -0.8869
   88SLPC  H18X 8590   5.113   5.462   4.749 -1.6334  2.1001  1.2363
   88SLPC  H18Y 8591   4.948   5.484   4.677  0.0812 -0.9575 -1.4904
   88SLPC  H18Z 8592   5.088   5.594   4.634 -2.2840  0.3626  0.5056
   89SAPE     N 8593   1.442   6.590   6.723 -0.1744 -0.3826  0.4502
   89SAPE   HN1 8594   1.347   6.625   6.745  0.0118  1.1687 -1.0140
   89SAPE   HN2 8595   1.431   6.494   6.684 -1.6387  0.0969 -0.4063
   89SAPE   HN3 8596   1.481   6.599   6.819  0.1393  1.4062  0.1979
   89SAPE   C12 8597   1.498   6.697   6.627  0.1489  0.3021 -0.8074
   89SAPE  H12A 8598   1.589   6.657   6.577 -0.0728 -3.7912  1.5970
   89SAPE  H12B 8599   1.520   6.782   6.694  1.6668 -1.5393  1.1768
   89SAPE   C11 8600   1.396   6.741   6.509  0.3222 -0.3812  0.3735
   89SAPE  H11A 8601   1.380   6.648   6.450 -1.1287  0.9001 -1.3417
   89SAPE  H11B 8602   1.432   6.819   6.439 -1.6512 -0.0577 -0.3166
   89SAPE     P 8603   1.190   6.899   6.545  0.1433  0.0027  0.0100
   89SAPE   O13 8604   1.130   6.931   6.680  0.0206 -0.0084  0.4951
   89SAPE   O14 8605   1.279   7.006   6.489 -0.1977 -0.0918  0.4789
   89SAPE   O12 8606   1.267   6.766   6.561  0.2241  0.1999  0.2244
   89SAPE   O11 8607   1.083   6.850   6.443  0.6084 -0.4181 -0.3512
   89SAPE    C1 8608   1.098   6.819   6.304 -0.3554  0.2534 -0.0208
   89SAPE    HA 8609   1.191   6.760   6.288 -0.1353 -0.1514  2.3713
   89SAPE    HB 8610   1.014   6.754   6.272  0.5927 -0.4576 -1.1469
   89SAPE    C2 8611   1.095   6.950   6.217 -0.0522  0.0453 -0.2077
   89SAPE    HS 8612   1.166   7.026   6.258  1.5889 -0.4914 -1.8835
   89SAPE   O21 8613   0.960   6.989   6.215 -0.0937 -0.4270 -0.1751
   89SAPE   C21 8614   0.941   7.117   6.183  0.1572  0.8327 -1.1187
   89SAPE   O22 8615   1.032   7.200   6.164  0.4017 -0.2645  0.1288
   89SAPE   C22 8616   0.794   7.143   6.196  0.6803  0.2590  0.3755
   89SAPE   H2R 8617   0.767   7.138   6.304 -0.0676 -1.0133  0.1465
   89SAPE   H2S 8618   0.776   7.246   6.158  0.7767  0.7770  1.6775
   89SAPE    C3 8619   1.144   6.901   6.080  0.2053 -0.3237 -0.0420
   89SAPE    HX 8620   1.075   6.822   6.041 -0.1008 -0.4365  0.7218
   89SAPE    HY 8621   1.241   6.851   6.100 -0.1951 -1.0003  0.2690
   89SAPE   O31 8622   1.155   7.009   5.984 -0.1894  0.6019 -0.0648
   89SAPE   C31 8623   1.270   7.053   5.954 -0.3967 -0.6755 -0.1664
   89SAPE   O32 8624   1.378   7.023   6.003  0.6118 -0.0511  0.3823
   89SAPE   C32 8625   1.254   7.171   5.840  0.7217  0.5835  0.3110
   89SAPE   H2X 8626   1.288   7.268   5.882  0.1865  1.0937 -0.4236
   89SAPE   H2Y 8627   1.143   7.178   5.832  0.7437  0.0868 -0.4704
   89SAPE   C23 8628   0.704   7.045   6.131 -0.4288  0.3212  0.2268
   89SAPE   H3R 8629   0.605   7.048   6.180  0.5437 -0.9526  2.4023
   89SAPE   H3S 8630   0.734   6.938   6.136 -1.9760 -0.1570 -0.3330
   89SAPE   C24 8631   0.682   7.084   5.984 -0.8125  0.3256  0.2598
   89SAPE   H4R 8632   0.645   6.988   5.943 -0.6013  0.0319  0.7520
   89SAPE   H4S 8633   0.779   7.109   5.936 -0.8497 -1.0249 -0.5631
   89SAPE   C25 8634   0.589   7.199   5.949  0.2315  0.2342  0.1383
   89SAPE   H5R 8635   0.578   7.272   6.029  0.6909 -0.6725  1.0531
   89SAPE   C26 8636   0.531   7.217   5.827 -0.0450 -0.1324 -0.1483
   89SAPE   H6R 8637   0.451   7.292   5.829  1.4999  1.6181  2.2768
   89SAPE   C27 8638   0.546   7.133   5.706 -0.3864 -0.3476  0.1536
   89SAPE   H7R 8639   0.651   7.097   5.698  0.1920  1.0300  1.1625
   89SAPE   H7S 8640   0.533   7.202   5.620 -3.6831  0.4573  1.1809
   89SAPE   C28 8641   0.454   7.020   5.686 -0.2709 -0.5127  0.4784
   89SAPE   H8R 8642   0.443   6.970   5.784  1.8420 -1.8145  0.1188
   89SAPE   C29 8643   0.388   6.978   5.581  0.5448 -0.1696  0.6063
   89SAPE   H9R 8644   0.322   6.891   5.596 -1.9149  1.0446 -2.1362
   89SAPE  C210 8645   0.400   7.029   5.440  0.4919 -0.1880 -0.2957
   89SAPE  H10R 8646   0.460   6.955   5.382  0.4943 -1.2089  0.9503
   89SAPE  H10S 8647   0.464   7.119   5.449 -1.5606  1.2536  0.5397
   89SAPE  C211 8648   0.271   7.059   5.366  0.1736 -0.2629 -0.7415
   89SAPE  H11R 8649   0.182   7.091   5.421  1.7520  2.2777  0.5461
   89SAPE  C212 8650   0.252   7.043   5.233  0.1839 -0.2131  0.2935
   89SAPE  H12R 8651   0.155   7.074   5.192 -0.3542 -0.1494  1.6014
   89SAPE  C213 8652   0.350   7.000   5.127 -0.7751 -0.2293  0.7300
   89SAPE  H13R 8653   0.300   6.972   5.032  2.3157  1.7279 -1.6544
   89SAPE  H13S 8654   0.409   6.906   5.143  2.0451  1.2901 -0.0847
   89SAPE  C214 8655   0.454   7.104   5.099  0.2104  0.1531 -0.4786
   89SAPE  H14R 8656   0.475   7.170   5.185  0.6270 -0.3240 -0.2076
   89SAPE  C215 8657   0.524   7.127   4.985  0.7381  0.4335 -0.0964
   89SAPE  H15R 8658   0.593   7.212   4.976  0.5361  0.5488 -0.5892
   89SAPE  C216 8659   0.524   7.032   4.865  0.6921  0.3909  0.2810
   89SAPE  H16R 8660   0.457   6.944   4.871 -1.6818  2.1071  0.3112
   89SAPE  H16S 8661   0.627   6.992   4.851  0.5256  0.0095  0.1336
   89SAPE  C217 8662   0.483   7.109   4.738  0.6407 -0.3922  0.6299
   89SAPE  H17R 8663   0.571   7.167   4.704 -0.8077  1.0652 -0.8395
   89SAPE  H17S 8664   0.391   7.169   4.758 -0.6283 -2.3947  1.1361
   89SAPE  C218 8665   0.445   7.014   4.620 -0.1474  0.0862  0.5414
   89SAPE  H18R 8666   0.366   6.942   4.652  0.8341 -1.6796 -0.8455
   89SAPE  H18S 8667   0.536   6.952   4.611 -0.9135 -0.7490 -2.9261
   89SAPE  C219 8668   0.415   7.094   4.490 -0.4337 -0.2891 -0.2215
   89SAPE  H19R 8669   0.337   7.166   4.521 -1.4311 -1.9736  1.4051
   89SAPE  H19S 8670   0.371   7.021   4.419 -0.5491 -0.1179 -0.3246
   89SAPE  C220 8671   0.530   7.166   4.430  0.2663  0.2839  0.3134
   89SAPE  H20R 8672   0.606   7.095   4.390 -0.9364 -0.4861 -0.6590
   89SAPE  H20S 8673   0.575   7.247   4.492  2.1827  0.1461 -0.8176
   89SAPE  H20T 8674   0.495   7.214   4.337 -0.2812 -1.4720 -0.4198
   89SAPE   C33 8675   1.311   7.122   5.707 -0.0774  0.0001 -0.5555
   89SAPE   H3X 8676   1.274   7.020   5.686 -0.2883  0.2902 -1.6622
   89SAPE   H3Y 8677   1.422   7.130   5.712 -0.2067  2.9270 -0.1117
   89SAPE   C34 8678   1.261   7.201   5.587 -0.2984  0.5682 -0.0806
   89SAPE   H4X 8679   1.253   7.309   5.612  0.0333  0.8001 -0.9191
   89SAPE   H4Y 8680   1.165   7.167   5.542  0.2409  2.1133 -2.6264
   89SAPE   C35 8681   1.362   7.189   5.474  0.0619  0.1032  0.1132
   89SAPE   H5X 8682   1.391   7.082   5.476 -0.4541 -0.0391  1.7177
   89SAPE   H5Y 8683   1.451   7.244   5.511 -2.1282  3.2319  1.2477
   89SAPE   C36 8684   1.303   7.234   5.340 -0.2942 -0.4794 -0.0986
   89SAPE   H6X 8685   1.254   7.333   5.353 -2.3802 -1.6405  1.4637
   89SAPE   H6Y 8686   1.229   7.159   5.304 -1.4194  1.7404 -2.8275
   89SAPE   C37 8687   1.409   7.235   5.227  0.0354 -0.0783 -0.1411
   89SAPE   H7X 8688   1.454   7.134   5.234  0.5813  0.1120 -0.7529
   89SAPE   H7Y 8689   1.485   7.313   5.250  1.1416 -1.1310 -0.1131
   89SAPE   C38 8690   1.346   7.261   5.094  0.2383 -0.3325  0.8999
   89SAPE   H8X 8691   1.291   7.356   5.079  0.5533 -0.4133 -1.0125
   89SAPE   H8Y 8692   1.276   7.176   5.080  0.8881 -1.4850  3.8455
   89SAPE   C39 8693   1.454   7.253   4.988 -0.4178  0.2086  0.2378
   89SAPE   H9X 8694   1.515   7.159   4.993 -0.0959  0.2869 -1.6079
   89SAPE   H9Y 8695   1.520   7.340   5.008  0.1528 -0.5566  1.8319
   89SAPE  C310 8696   1.391   7.260   4.848 -0.0456  0.2506 -0.0144
   89SAPE  H10X 8697   1.326   7.350   4.840  0.2282  0.3064 -2.1854
   89SAPE  H10Y 8698   1.316   7.180   4.829 -1.2685  0.2530  3.9805
   89SAPE  C311 8699   1.491   7.268   4.733 -0.6176  0.5384 -0.1885
   89SAPE  H11X 8700   1.551   7.174   4.735  1.3072  1.7198  1.4199
   89SAPE  H11Y 8701   1.567   7.347   4.747 -1.7342  1.5139  0.6151
   89SAPE  C312 8702   1.422   7.288   4.592 -0.6461  0.5981 -0.3420
   89SAPE  H12X 8703   1.498   7.309   4.514  0.3207 -0.0869  0.3930
   89SAPE  H12Y 8704   1.371   7.386   4.599 -1.1113  0.3418 -0.0946
   89SAPE  C313 8705   1.339   7.168   4.546 -0.8401 -0.8965 -0.0191
   89SAPE  H13X 8706   1.277   7.188   4.456 -1.3351  0.4944  0.6132
   89SAPE  H13Y 8707   1.274   7.128   4.627 -0.4455  0.1454  0.8272
   89SAPE  C314 8708   1.442   7.058   4.505 -0.0712  0.4114 -0.5033
   89SAPE  H14X 8709   1.499   7.037   4.597 -1.6450  1.0048  0.6668
   89SAPE  H14Y 8710   1.504   7.098   4.422 -0.6888 -0.7106 -1.5485
   89SAPE  C315 8711   1.377   6.929   4.445  0.2691 -0.1798  0.0862
   89SAPE  H15X 8712   1.344   6.951   4.341  0.9552 -2.3822 -0.6491
   89SAPE  H15Y 8713   1.282   6.924   4.502  1.0984  1.2440  1.6845
   89SAPE  C316 8714   1.461   6.797   4.448  0.1452 -0.1601 -0.4454
   89SAPE  H16X 8715   1.483   6.762   4.551  0.7462 -1.0890 -0.8753
   89SAPE  H16Y 8716   1.554   6.823   4.394  0.8938 -0.9139  0.4444
   89SAPE  C317 8717   1.373   6.681   4.387  0.3466 -0.2975 -0.4413
   89SAPE  H17X 8718   1.299   6.717   4.312 -1.1238 -1.3353  0.4661
   89SAPE  H17Y 8719   1.313   6.643   4.472  0.9256 -0.2544 -0.0107
   89SAPE  C318 8720   1.464   6.569   4.324 -0.0085  0.0836  0.5292
   89SAPE  H18X 8721   1.502   6.593   4.222  1.3137  0.4168  1.0843
   89SAPE  H18Y 8722   1.410   6.471   4.319 -0.0800  0.0821  1.2776
   89SAPE  H18Z 8723   1.550   6.555   4.392  0.6085  1.7042  0.1149
   90SAPE     N 8724   4.240   6.070   6.589 -0.0256 -0.0149  0.4500
   90SAPE   HN1 8725   4.232   6.161   6.638 -2.6059  0.8399 -1.3360
   90SAPE   HN2 8726   4.313   6.073   6.515 -0.9827 -0.2026 -0.5273
   90SAPE   HN3 8727   4.145   6.052   6.550  0.6193 -0.6329 -0.9204
   90SAPE   C12 8728   4.276   5.965   6.693  0.3374 -0.7353  0.0616
   90SAPE  H12A 8729   4.333   6.022   6.770  2.3078 -1.9380 -0.4426
   90SAPE  H12B 8730   4.340   5.885   6.651 -1.3036 -1.3453 -1.3913
   90SAPE   C11 8731   4.137   5.907   6.739  0.0305  0.3302  0.0577
   90SAPE  H11A 8732   4.164   5.834   6.819  1.1190 -0.3745 -0.9284
   90SAPE  H11B 8733   4.100   5.842   6.657  1.7489 -2.0714  1.0388
   90SAPE     P 8734   3.909   6.023   6.675  0.1823  0.0562  0.1862
   90SAPE   O13 8735   3.822   5.903   6.698  0.1063  0.1698  0.4171
   90SAPE   O14 8736   3.846   6.157   6.693  0.3915 -0.3800  0.2888
   90SAPE   O12 8737   4.043   6.012   6.770  0.1876  0.2596 -0.3163
   90SAPE   O11 8738   3.979   6.015   6.531 -0.7404 -0.1299  0.7629
   90SAPE    C1 8739   3.920   5.926   6.435 -0.0636  0.2025  0.1303
   90SAPE    HA 8740   3.941   5.820   6.459 -0.7922 -0.1926 -0.8942
   90SAPE    HB 8741   3.812   5.951   6.427  0.4401  2.2308 -0.9309
   90SAPE    C2 8742   3.982   5.958   6.295 -0.4501  0.3596 -0.4619
   90SAPE    HS 8743   4.091   5.937   6.304 -0.7841 -1.0312  0.6706
   90SAPE   O21 8744   3.944   6.098   6.263 -0.4517 -0.3717  0.0480
   90SAPE   C21 8745   4.038   6.185   6.291 -0.4493  0.3958 -0.1649
   90SAPE   O22 8746   4.154   6.160   6.333 -0.2511  0.3141 -0.4843
   90SAPE   C22 8747   4.000   6.332   6.254 -0.6415  0.1172  0.3237
   90SAPE   H2R 8748   3.891   6.343   6.272 -0.5318  1.8453  0.0756
   90SAPE   H2S 8749   4.064   6.403   6.310 -1.6645 -0.0092  1.7058
   90SAPE    C3 8750   3.938   5.856   6.180  0.9983  0.2926 -0.4154
   90SAPE    HX 8751   3.828   5.857   6.171  0.9843 -0.4826 -0.3675
   90SAPE    HY 8752   3.960   5.759   6.230 -0.0061  0.7714  1.0280
   90SAPE   O31 8753   4.006   5.868   6.051 -0.5795 -0.0978  0.1700
   90SAPE   C31 8754   3.952   5.958   5.969  0.8524 -0.5668  0.3305
   90SAPE   O32 8755   3.861   6.033   5.996  0.3129 -0.2260 -0.1065
   90SAPE   C32 8756   4.038   5.965   5.841  0.1497  0.3996 -0.0148
   90SAPE   H2X 8757   4.042   5.859   5.807  1.0817  0.2696  0.4519
   90SAPE   H2Y 8758   4.140   5.998   5.869 -0.3590  2.6790 -0.6324
   90SAPE   C23 8759   4.031   6.349   6.100  0.3599 -0.6919  0.1591
   90SAPE   H3R 8760   3.990   6.451   6.081  0.0578 -0.5509  1.4954
   90SAPE   H3S 8761   3.971   6.279   6.038  1.2654  0.6472 -2.4227
   90SAPE   C24 8762   4.181   6.335   6.061 -0.1996 -0.3002 -0.1337
   90SAPE   H4R 8763   4.189   6.351   5.952  0.2327 -2.9633 -0.5774
   90SAPE   H4S 8764   4.213   6.231   6.084 -0.5962 -0.5537 -0.7251
   90SAPE   C25 8765   4.277   6.431   6.135  0.3826  0.2247  0.5189
   90SAPE   H5R 8766   4.323   6.408   6.232 -0.6686 -1.5548  0.6288
   90SAPE   C26 8767   4.316   6.555   6.082 -0.7551 -0.1260  0.4255
   90SAPE   H6R 8768   4.402   6.592   6.140  0.5724 -3.1099  0.5296
   90SAPE   C27 8769   4.275   6.616   5.956  0.2302 -0.4061  0.3664
   90SAPE   H7R 8770   4.169   6.588   5.934 -0.1111  0.4351  0.9188
   90SAPE   H7S 8771   4.331   6.583   5.865  1.1843  2.6981 -0.2707
   90SAPE   C28 8772   4.291   6.768   5.978 -0.3015  0.5848  0.8437
   90SAPE   H8R 8773   4.254   6.809   6.073  1.1020 -0.4809  1.8946
   90SAPE   C29 8774   4.336   6.848   5.883  0.1682  0.4193  0.0552
   90SAPE   H9R 8775   4.332   6.953   5.915 -0.2799  0.5942 -0.5459
   90SAPE  C210 8776   4.389   6.809   5.746 -0.2296 -0.3482 -0.1827
   90SAPE  H10R 8777   4.322   6.754   5.676  1.3658 -0.7428 -1.4681
   90SAPE  H10S 8778   4.475   6.743   5.770 -0.4911  0.2651  2.7238
   90SAPE  C211 8779   4.464   6.922   5.682  0.4189 -0.6853  0.5555
   90SAPE  H11R 8780   4.516   6.987   5.754  2.2969 -0.1967 -1.1776
   90SAPE  C212 8781   4.469   6.955   5.549 -0.2245 -0.1483 -0.6091
   90SAPE  H12R 8782   4.551   7.024   5.522 -0.6318  1.3104  1.5926
   90SAPE  C213 8783   4.402   6.874   5.441 -0.4394 -0.1824 -1.1431
   90SAPE  H13R 8784   4.348   6.948   5.378  2.1000  2.8242 -0.0825
   90SAPE  H13S 8785   4.319   6.814   5.483  1.2700 -1.4973  0.5542
   90SAPE  C214 8786   4.491   6.782   5.369  1.4487  0.5584 -0.0782
   90SAPE  H14R 8787   4.509   6.692   5.430  2.7864 -0.1916 -1.5126
   90SAPE  C215 8788   4.570   6.801   5.267 -0.3279  0.5956 -0.0017
   90SAPE  H15R 8789   4.626   6.713   5.231  0.3684  1.6401 -1.5840
   90SAPE  C216 8790   4.572   6.926   5.178 -0.3878 -0.0719  0.4433
   90SAPE  H16R 8791   4.665   6.986   5.191  0.5071 -1.6661  1.6461
   90SAPE  H16S 8792   4.481   6.984   5.206 -0.6713 -1.0985  1.7332
   90SAPE  C217 8793   4.564   6.874   5.035  0.2990 -0.1673 -0.0559
   90SAPE  H17R 8794   4.654   6.814   5.011 -0.5568 -1.3759 -0.3440
   90SAPE  H17S 8795   4.566   6.962   4.966 -0.8800 -1.2562 -1.5694
   90SAPE  C218 8796   4.434   6.794   4.998  0.1471 -0.3171  0.0347
   90SAPE  H18R 8797   4.346   6.862   4.996  0.5281  0.2524 -2.8312
   90SAPE  H18S 8798   4.415   6.706   5.063  0.2120 -0.6960 -0.4507
   90SAPE  C219 8799   4.446   6.742   4.850  0.0972  0.6553 -1.0944
   90SAPE  H19R 8800   4.453   6.816   4.768 -0.6756  0.7133 -1.1105
   90SAPE  H19S 8801   4.350   6.690   4.833  0.7623 -0.8921 -0.3484
   90SAPE  C220 8802   4.543   6.630   4.841 -0.4538  0.2914  0.4776
   90SAPE  H20R 8803   4.530   6.556   4.923 -1.3424  0.4165  0.4549
   90SAPE  H20S 8804   4.644   6.677   4.843 -1.0027  1.5352 -0.3638
   90SAPE  H20T 8805   4.525   6.575   4.747  0.9437  0.1399  0.2706
   90SAPE   C33 8806   3.979   6.052   5.733 -0.3096  0.7711 -0.3294
   90SAPE   H3X 8807   4.007   6.159   5.747  0.2299  0.6588 -0.5403
   90SAPE   H3Y 8808   3.868   6.048   5.737 -0.2434 -1.4407  1.0344
   90SAPE   C34 8809   4.027   6.004   5.593 -0.0914 -0.2500  1.0020
   90SAPE   H4X 8810   3.973   5.908   5.579 -0.4032 -0.1147  1.2395
   90SAPE   H4Y 8811   4.135   5.980   5.603  0.6919  1.0709 -2.7646
   90SAPE   C35 8812   4.012   6.089   5.462 -0.4364  0.5715  0.0434
   90SAPE   H5X 8813   4.084   6.172   5.477  0.4769  0.4030 -2.8026
   90SAPE   H5Y 8814   3.905   6.117   5.452 -0.5047  0.5569  0.6590
   90SAPE   C36 8815   4.065   6.025   5.334 -0.0752  0.1693 -0.0871
   90SAPE   H6X 8816   4.160   5.970   5.346 -1.2164 -2.3741 -1.7311
   90SAPE   H6Y 8817   4.073   6.106   5.258  0.1491  1.4704  1.2635
   90SAPE   C37 8818   3.957   5.924   5.291 -0.1322 -0.2752 -0.0500
   90SAPE   H7X 8819   3.854   5.963   5.307  0.6700  0.7001  3.8872
   90SAPE   H7Y 8820   3.973   5.832   5.352 -0.5047  0.4941  1.2595
   90SAPE   C38 8821   3.967   5.866   5.147 -0.0484  0.1360 -0.1974
   90SAPE   H8X 8822   3.958   5.953   5.079 -1.3983  0.3621  0.2384
   90SAPE   H8Y 8823   3.883   5.796   5.127  0.0044  0.3668 -1.2761
   90SAPE   C39 8824   4.103   5.806   5.107 -0.2728  0.3192 -0.3617
   90SAPE   H9X 8825   4.122   5.744   5.197 -1.0410  0.5657 -0.0241
   90SAPE   H9Y 8826   4.178   5.888   5.112 -0.8075  0.7783  0.3456
   90SAPE  C310 8827   4.107   5.738   4.977 -0.3107 -0.1197  0.1687
   90SAPE  H10X 8828   4.015   5.678   4.958 -0.0709 -0.3569 -0.2741
   90SAPE  H10Y 8829   4.185   5.659   4.968 -0.0859  0.0797  0.3630
   90SAPE  C311 8830   4.131   5.842   4.863 -0.3476  0.0195 -0.1427
   90SAPE  H11X 8831   4.237   5.876   4.870 -0.4723  0.4758 -0.4305
   90SAPE  H11Y 8832   4.070   5.934   4.873  0.4779  0.9807 -2.8524
   90SAPE  C312 8833   4.119   5.771   4.730  1.2181 -0.3920  0.0647
   90SAPE  H12X 8834   4.017   5.727   4.721  1.4681 -0.7330 -1.1736
   90SAPE  H12Y 8835   4.191   5.688   4.715 -0.0633 -1.3126 -1.2467
   90SAPE  C313 8836   4.151   5.845   4.602 -0.4964 -0.1212 -0.4146
   90SAPE  H13X 8837   4.119   5.787   4.513 -0.8596  1.3896 -1.2992
   90SAPE  H13Y 8838   4.261   5.863   4.596 -0.6170  0.2019 -2.0656
   90SAPE  C314 8839   4.096   5.985   4.603 -0.2959  0.5414  0.0356
   90SAPE  H14X 8840   4.143   6.046   4.683 -1.7236  0.7321  0.7623
   90SAPE  H14Y 8841   3.986   5.974   4.614 -0.0348 -2.6452  0.4758
   90SAPE  C315 8842   4.105   6.055   4.465  0.2719 -0.0214  0.3402
   90SAPE  H15X 8843   4.204   6.037   4.418  0.8167  0.6767  1.1935
   90SAPE  H15Y 8844   4.065   6.157   4.483  0.5803  0.1982 -0.1835
   90SAPE  C316 8845   4.011   5.997   4.360 -0.1835  0.2911  0.4077
   90SAPE  H16X 8846   3.909   5.989   4.402  0.1947  1.0924  1.5384
   90SAPE  H16Y 8847   4.048   5.894   4.345 -0.6486  0.2536 -0.5341
   90SAPE  C317 8848   4.014   6.072   4.228 -0.5138  0.0486  0.1107
   90SAPE  H17X 8849   4.120   6.085   4.195 -0.1261  2.4220  1.9910
   90SAPE  H17Y 8850   3.976   6.176   4.243 -1.6962 -0.5390  1.3571
   90SAPE  C318 8851   3.933   6.010   4.114 -0.5075  0.6092 -0.3335
   90SAPE  H18X 8852   3.985   5.927   4.062  2.6849  1.5171  1.1370
   90SAPE  H18Y 8853   3.917   6.091   4.040  1.5332  2.7470  1.3993
   90SAPE  H18Z 8854   3.841   5.967   4.160 -1.1712  2.6993  0.4502
   91SAPE     N 8855   1.666   1.584   6.540 -0.3812  0.2253  0.1229
   91SAPE   HN1 8856   1.593   1.647   6.501 -1.3917 -0.5903  0.6274
   91SAPE   HN2 8857   1.609   1.547   6.619  1.1415 -1.8066  0.3343
   91SAPE   HN3 8858   1.751   1.629   6.579 -0.2001  0.9430 -1.0524
   91SAPE   C12 8859   1.700   1.469   6.450  0.5522  0.4311  0.6022
   91SAPE  H12A 8860   1.769   1.398   6.499 -0.2721 -1.1301 -0.4242
   91SAPE  H12B 8861   1.760   1.515   6.368 -0.7567  1.2467  0.0654
   91SAPE   C11 8862   1.578   1.404   6.384  0.2924 -0.5426  0.4559
   91SAPE  H11A 8863   1.628   1.321   6.331 -0.1518 -0.4247 -0.1595
   91SAPE  H11B 8864   1.521   1.468   6.313  0.2837 -0.4575  0.5396
   91SAPE     P 8865   1.486   1.216   6.543  0.4455 -0.1742  0.5062
   91SAPE   O13 8866   1.618   1.157   6.529 -0.3023  0.2037  0.2698
   91SAPE   O14 8867   1.432   1.202   6.682  0.3870  0.0066 -0.6325
   91SAPE   O12 8868   1.493   1.363   6.490 -0.1845  0.1906  0.3783
   91SAPE   O11 8869   1.392   1.143   6.440  0.5148  0.1841 -0.2206
   91SAPE    C1 8870   1.255   1.179   6.427  0.0292 -0.0408 -0.4008
   91SAPE    HA 8871   1.199   1.089   6.462 -0.9928 -0.4470 -2.8884
   91SAPE    HB 8872   1.231   1.264   6.494  0.7297 -0.7190  0.7546
   91SAPE    C2 8873   1.206   1.223   6.293 -0.0635 -0.2949 -0.3696
   91SAPE    HS 8874   1.095   1.227   6.305  0.1691  1.0872  1.7786
   91SAPE   O21 8875   1.259   1.137   6.188  0.1698  0.1619 -0.3877
   91SAPE   C21 8876   1.201   1.018   6.182  0.3279  0.3587 -0.0833
   91SAPE   O22 8877   1.114   0.980   6.263  0.5862  0.0006  0.2284
   91SAPE   C22 8878   1.253   0.933   6.065  0.1163  0.2990 -0.9482
   91SAPE   H2R 8879   1.321   1.008   6.021  0.8345  0.7708  0.8640
   91SAPE   H2S 8880   1.312   0.857   6.121  0.9992  0.7245 -1.2842
   91SAPE    C3 8881   1.256   1.359   6.246 -0.8737 -0.2868 -0.3726
   91SAPE    HX 8882   1.360   1.330   6.218 -0.5869  0.0878  0.2813
   91SAPE    HY 8883   1.271   1.438   6.323  0.7599  0.8787 -1.7972
   91SAPE   O31 8884   1.193   1.406   6.120 -0.3230 -0.5718 -0.6873
   91SAPE   C31 8885   1.099   1.504   6.125 -0.9452  0.4465 -0.4075
   91SAPE   O32 8886   1.058   1.551   6.228  0.2562 -0.2842  0.2214
   91SAPE   C32 8887   1.063   1.541   5.983  0.6677  0.3486  0.2558
   91SAPE   H2X 8888   1.117   1.486   5.903  1.3702  0.6374  0.5322
   91SAPE   H2Y 8889   1.084   1.650   5.976  2.0976 -0.0292 -3.2515
   91SAPE   C23 8890   1.158   0.859   5.974  0.7211 -0.2783 -0.1210
   91SAPE   H3R 8891   1.105   0.784   6.036  2.7413 -1.1136  0.6684
   91SAPE   H3S 8892   1.216   0.806   5.895 -2.3593 -0.7020 -2.2840
   91SAPE   C24 8893   1.052   0.952   5.916  0.5910  0.3497  0.6015
   91SAPE   H4R 8894   1.008   1.005   6.003  0.4278  0.8545  0.2183
   91SAPE   H4S 8895   0.972   0.900   5.858 -2.9129  3.9998  1.7024
   91SAPE   C25 8896   1.132   1.035   5.828 -0.0114 -0.1970 -0.3316
   91SAPE   H5R 8897   1.180   1.118   5.881  1.3180  0.4927 -2.4998
   91SAPE   C26 8898   1.142   1.037   5.692  0.1048  0.9620 -0.3104
   91SAPE   H6R 8899   1.210   1.112   5.649  0.2514  1.0992  0.1507
   91SAPE   C27 8900   1.083   0.934   5.591  0.4381  0.1562 -0.3123
   91SAPE   H7R 8901   1.108   0.832   5.626 -0.9142 -0.3331 -0.7073
   91SAPE   H7S 8902   1.122   0.921   5.488 -0.5162 -0.4054 -0.6137
   91SAPE   C28 8903   0.933   0.962   5.583  0.6155 -0.6976  0.0116
   91SAPE   H8R 8904   0.879   1.015   5.663  0.9269 -1.3092  0.6361
   91SAPE   C29 8905   0.853   0.931   5.473  0.6429 -0.1291 -0.6367
   91SAPE   H9R 8906   0.746   0.953   5.466 -0.2779 -3.2872  1.4832
   91SAPE  C210 8907   0.901   0.861   5.348  0.2665 -0.0420 -0.0191
   91SAPE  H10R 8908   0.978   0.783   5.365  1.2001  1.0217  0.8176
   91SAPE  H10S 8909   0.948   0.937   5.282  2.0285  0.2870  1.5310
   91SAPE  C211 8910   0.792   0.792   5.267 -0.3700  0.8321 -0.7635
   91SAPE  H11R 8911   0.736   0.727   5.336  1.9955  1.0712  1.5689
   91SAPE  C212 8912   0.758   0.787   5.143  1.4286 -0.3315  0.4772
   91SAPE  H12R 8913   0.671   0.729   5.110  1.8679 -0.8404  0.1901
   91SAPE  C213 8914   0.821   0.877   5.038 -0.0975  0.3206  0.0245
   91SAPE  H13R 8915   0.932   0.884   5.052 -0.0613 -0.9240  0.5391
   91SAPE  H13S 8916   0.777   0.978   5.050 -1.2940 -0.2144  0.2367
   91SAPE  C214 8917   0.777   0.829   4.902 -0.5669  0.8021 -0.2714
   91SAPE  H14R 8918   0.755   0.723   4.881  0.3606  0.1671  1.7380
   91SAPE  C215 8919   0.782   0.895   4.789 -0.5342 -0.3781  0.6166
   91SAPE  H15R 8920   0.756   0.842   4.697  0.1020  0.2643  0.0522
   91SAPE  C216 8921   0.823   1.040   4.779 -0.5124  0.0101 -0.5821
   91SAPE  H16R 8922   0.929   1.061   4.805 -0.5339 -0.0676 -0.4314
   91SAPE  H16S 8923   0.761   1.107   4.842  1.4351  0.1053  1.3601
   91SAPE  C217 8924   0.803   1.080   4.633 -0.5795 -0.5435  0.9065
   91SAPE  H17R 8925   0.697   1.075   4.602 -0.8125  3.4080  0.5682
   91SAPE  H17S 8926   0.865   1.013   4.570 -2.2189 -2.2591  1.0077
   91SAPE  C218 8927   0.855   1.218   4.613 -0.4377  0.3149  0.5697
   91SAPE  H18R 8928   0.952   1.249   4.655  1.2515 -0.9837 -2.0774
   91SAPE  H18S 8929   0.786   1.279   4.676 -0.1662  0.3378  0.8451
   91SAPE  C219 8930   0.853   1.256   4.468 -0.0343 -0.3342  0.8298
   91SAPE  H19R 8931   0.902   1.179   4.405 -1.3276  0.7606 -1.6282
   91SAPE  H19S 8932   0.908   1.353   4.463 -1.7000  0.5739 -2.0220
   91SAPE  C220 8933   0.714   1.273   4.414  0.0207 -0.4576 -0.8462
   91SAPE  H20R 8934   0.665   1.348   4.478 -0.3887 -0.0351 -1.6392
   91SAPE  H20S 8935   0.656   1.178   4.411 -0.2671 -0.2674 -1.3282
   91SAPE  H20T 8936   0.720   1.312   4.310 -0.8249  1.8960 -0.0674
   91SAPE   C33 8937   0.915   1.519   5.938 -0.1004  0.2734  0.1328
   91SAPE   H3X 8938   0.842   1.585   5.989 -0.5703 -0.4300  0.3803
   91SAPE   H3Y 8939   0.883   1.419   5.973 -0.0928 -0.1116 -0.9163
   91SAPE   C34 8940   0.898   1.510   5.785 -0.0567  0.1510 -0.1623
   91SAPE   H4X 8941   0.952   1.599   5.747  2.1448 -1.5378 -1.2387
   91SAPE   H4Y 8942   0.791   1.519   5.759  0.1946 -0.9512 -1.7284
   91SAPE   C35 8943   0.971   1.394   5.710 -0.1279  0.4122  0.4204
   91SAPE   H5X 8944   0.952   1.304   5.772 -0.4478  0.7454  0.8065
   91SAPE   H5Y 8945   1.081   1.411   5.705 -0.1272  0.4964  0.7220
   91SAPE   C36 8946   0.917   1.395   5.565  0.9637  0.4088  0.8511
   91SAPE   H6X 8947   0.986   1.339   5.499 -0.6481  1.3816 -1.8488
   91SAPE   H6Y 8948   0.909   1.495   5.518  1.7737  0.5148  0.9277
   91SAPE   C37 8949   0.786   1.323   5.552 -0.1389  0.4329  0.5410
   91SAPE   H7X 8950   0.705   1.378   5.604  0.4595 -0.1462  2.1306
   91SAPE   H7Y 8951   0.796   1.225   5.603 -0.4060 -0.2736 -0.7102
   91SAPE   C38 8952   0.742   1.287   5.412 -0.2026 -0.2893  0.7320
   91SAPE   H8X 8953   0.803   1.221   5.347 -1.9100 -2.2149  0.9597
   91SAPE   H8Y 8954   0.719   1.382   5.358 -1.3569 -0.7880  0.3145
   91SAPE   C39 8955   0.612   1.214   5.418  0.3405 -0.1216  0.2564
   91SAPE   H9X 8956   0.530   1.283   5.448 -0.3148 -0.8232  0.1022
   91SAPE   H9Y 8957   0.612   1.122   5.480 -0.3533  0.4019  1.0583
   91SAPE  C310 8958   0.576   1.164   5.280 -0.0531  0.1589 -0.6174
   91SAPE  H10X 8959   0.665   1.103   5.254  1.1661  0.9213  1.5688
   91SAPE  H10Y 8960   0.562   1.243   5.204 -0.9901 -0.5961 -1.2542
   91SAPE  C311 8961   0.449   1.081   5.288 -0.0260  0.0308  0.4164
   91SAPE  H11X 8962   0.363   1.149   5.309 -1.1485 -1.4708  0.8247
   91SAPE  H11Y 8963   0.450   1.007   5.370 -4.6096  0.1191  0.8239
   91SAPE  C312 8964   0.429   0.999   5.160  0.7552 -0.2932 -0.5881
   91SAPE  H12X 8965   0.338   0.939   5.180  0.3831  0.7210  0.9354
   91SAPE  H12Y 8966   0.511   0.923   5.161  1.2207  0.0304  3.5557
   91SAPE  C313 8967   0.431   1.073   5.026 -0.5960  0.0727 -1.0568
   91SAPE  H13X 8968   0.526   1.128   5.008  0.1406 -0.2686  1.4694
   91SAPE  H13Y 8969   0.352   1.152   5.024  0.5604  1.2904 -0.4492
   91SAPE  C314 8970   0.410   0.981   4.910  1.0569 -0.2077 -0.0910
   91SAPE  H14X 8971   0.327   0.909   4.924  0.9495 -0.1143 -0.2382
   91SAPE  H14Y 8972   0.499   0.915   4.905  0.3348 -1.1277 -1.6066
   91SAPE  C315 8973   0.400   1.065   4.773  0.0901 -0.4311  0.2672
   91SAPE  H15X 8974   0.485   1.135   4.763 -0.6287  0.5390  0.8454
   91SAPE  H15Y 8975   0.304   1.121   4.765 -1.7226 -3.5379 -2.6940
   91SAPE  C316 8976   0.387   0.972   4.652  0.3425  0.8919  0.3671
   91SAPE  H16X 8977   0.308   0.894   4.664  1.8763 -0.8652 -0.5229
   91SAPE  H16Y 8978   0.483   0.916   4.650  0.5506  1.2784 -0.6724
   91SAPE  C317 8979   0.371   1.044   4.518 -0.1551  0.1465 -0.3204
   91SAPE  H17X 8980   0.411   0.985   4.433 -0.3984 -0.3333 -0.1040
   91SAPE  H17Y 8981   0.424   1.142   4.522  0.2373 -0.0925  0.3968
   91SAPE  C318 8982   0.228   1.086   4.487 -0.3633 -0.2542  0.4134
   91SAPE  H18X 8983   0.175   0.996   4.449 -1.1311 -0.0585  0.9944
   91SAPE  H18Y 8984   0.231   1.162   4.407  0.3835 -2.0205 -1.3228
   91SAPE  H18Z 8985   0.188   1.128   4.581 -0.7262  1.2218 -0.3749
   92SAPE     N 8986   6.903   3.820   6.578  0.3129 -0.4974  0.0068
   92SAPE   HN1 8987   6.827   3.750   6.589 -0.6604  0.7966  2.3948
   92SAPE   HN2 8988   6.868   3.899   6.637 -0.9876  0.1148 -1.5173
   92SAPE   HN3 8989   6.902   3.847   6.478 -0.7983  1.3327  0.4612
   92SAPE   C12 8990   7.036   3.759   6.610 -0.2738 -0.1457 -0.3656
   92SAPE  H12A 8991   7.039   3.714   6.711 -1.2050 -1.4600 -0.9062
   92SAPE  H12B 8992   7.111   3.839   6.631  0.3130 -0.9114  0.5529
   92SAPE   C11 8993   7.082   3.658   6.506 -0.7607  0.5394  0.5145
   92SAPE  H11A 8994   7.185   3.632   6.538 -0.0704 -0.2257 -2.0538
   92SAPE  H11B 8995   7.091   3.720   6.414 -0.2124 -1.4087 -0.8159
   92SAPE     P 8996   6.995   3.466   6.362 -0.1551 -0.0335 -0.5499
   92SAPE   O13 8997   7.127   3.399   6.349 -0.3800 -0.4956  0.0346
   92SAPE   O14 8998   6.875   3.378   6.374  0.4113  0.1356 -0.0877
   92SAPE   O12 8999   6.998   3.555   6.492  1.2951  0.8817 -0.1880
   92SAPE   O11 9000   6.973   3.573   6.243 -0.0756 -0.0145 -0.0004
   92SAPE    C1 9001   6.886   3.540   6.133 -0.0991  0.0453 -0.1536
   92SAPE    HA 9002   6.793   3.491   6.169  0.6385 -0.1933  1.5056
   92SAPE    HB 9003   6.858   3.635   6.081 -1.2387 -0.2003 -0.0241
   92SAPE    C2 9004   6.947   3.434   6.027  0.6039  0.8802 -0.4015
   92SAPE    HS 9005   7.007   3.362   6.088 -1.0850 -1.4878 -1.3456
   92SAPE   O21 9006   7.037   3.509   5.942 -0.6497  0.0392 -0.1336
   92SAPE   C21 9007   6.980   3.561   5.838  0.1575  0.3532  0.1805
   92SAPE   O22 9008   6.856   3.571   5.821  0.1411 -0.4707 -0.4547
   92SAPE   C22 9009   7.092   3.599   5.737  0.3426  0.1873 -0.2763
   92SAPE   H2R 9010   7.150   3.679   5.786 -2.3722  3.0322 -1.3514
   92SAPE   H2S 9011   7.152   3.510   5.710  2.0108  0.7379  1.4381
   92SAPE    C3 9012   6.841   3.337   5.969 -0.0970 -0.0067 -0.9358
   92SAPE    HX 9013   6.754   3.398   5.938 -0.0882  0.6895  0.3356
   92SAPE    HY 9014   6.794   3.271   6.045 -1.5355  0.5809 -1.2921
   92SAPE   O31 9015   6.890   3.255   5.861  0.8440  0.6390  0.3186
   92SAPE   C31 9016   6.972   3.159   5.885  0.1755  0.1991  0.1236
   92SAPE   O32 9017   7.019   3.133   5.998  0.2363 -0.6541 -0.1234
   92SAPE   C32 9018   6.997   3.080   5.753  0.5183  0.1755  0.4277
   92SAPE   H2X 9019   6.900   3.066   5.702  0.6629 -0.1865  0.2463
   92SAPE   H2Y 9020   7.020   2.978   5.792  0.0466  0.2879  1.0194
   92SAPE   C23 9021   7.039   3.652   5.601  0.3209 -0.2613  0.0529
   92SAPE   H3R 9022   7.007   3.758   5.613 -0.6423 -0.3264 -1.7083
   92SAPE   H3S 9023   6.947   3.597   5.574 -0.5809 -1.2527  4.4124
   92SAPE   C24 9024   7.141   3.652   5.483 -0.0376 -0.5635  0.4298
   92SAPE   H4R 9025   7.234   3.695   5.526 -1.2669  1.3879  1.2841
   92SAPE   H4S 9026   7.109   3.728   5.408  3.1571 -0.9130 -1.4287
   92SAPE   C25 9027   7.177   3.518   5.430  0.3983  0.1300 -0.0720
   92SAPE   H5R 9028   7.155   3.432   5.496  0.8758 -1.3969 -1.8260
   92SAPE   C26 9029   7.219   3.495   5.308 -0.2542 -0.2984  0.3109
   92SAPE   H6R 9030   7.248   3.391   5.282 -2.5464 -1.5610  2.3996
   92SAPE   C27 9031   7.246   3.597   5.197  0.2550  0.4418  0.3638
   92SAPE   H7R 9032   7.215   3.700   5.225  1.6305  1.8627 -2.8491
   92SAPE   H7S 9033   7.190   3.571   5.105 -1.1628  0.2036  1.2648
   92SAPE   C28 9034   7.390   3.589   5.177 -0.1480 -0.0872  0.2761
   92SAPE   H8R 9035   7.454   3.657   5.237 -1.1770  1.3820 -0.2391
   92SAPE   C29 9036   7.453   3.502   5.092 -0.8309  0.5433  0.3413
   92SAPE   H9R 9037   7.563   3.505   5.090 -0.7862 -0.1218 -1.9132
   92SAPE  C210 9038   7.393   3.405   4.996  0.2500 -0.3360  0.7111
   92SAPE  H10R 9039   7.294   3.381   5.039 -0.3424  1.1259  0.2293
   92SAPE  H10S 9040   7.453   3.312   5.003  0.5326 -0.1913  0.2693
   92SAPE  C211 9041   7.367   3.448   4.850 -0.1537  0.2097 -0.2477
   92SAPE  H11R 9042   7.261   3.469   4.832 -0.2355 -1.1779 -1.5626
   92SAPE  C212 9043   7.463   3.468   4.756  0.0728 -0.5347 -0.5172
   92SAPE  H12R 9044   7.437   3.481   4.650  2.0233 -1.5481 -1.1728
   92SAPE  C213 9045   7.614   3.447   4.780 -0.2618  0.0203 -0.5939
   92SAPE  H13R 9046   7.642   3.464   4.886 -1.0027 -1.9105 -0.0396
   92SAPE  H13S 9047   7.675   3.517   4.719  1.1096 -0.5673  0.0575
   92SAPE  C214 9048   7.659   3.308   4.735  0.0238 -0.3699  0.3636
   92SAPE  H14R 9049   7.638   3.228   4.808 -3.0948 -0.3836 -0.4301
   92SAPE  C215 9050   7.717   3.275   4.616 -0.2352  0.0782 -0.1078
   92SAPE  H15R 9051   7.751   3.171   4.605  0.9513  0.2041  1.8564
   92SAPE  C216 9052   7.748   3.371   4.505 -0.3719 -0.0157 -0.5609
   92SAPE  H16R 9053   7.706   3.469   4.536 -1.5676 -1.0151  1.1271
   92SAPE  H16S 9054   7.694   3.335   4.415 -1.6350  2.1181 -0.7359
   92SAPE  C217 9055   7.894   3.398   4.455 -0.2099 -0.1499 -0.4362
   92SAPE  H17R 9056   7.964   3.425   4.537  0.1709 -1.3203 -0.3508
   92SAPE  H17S 9057   7.905   3.492   4.397  0.7116  1.0611  1.5681
   92SAPE  C218 9058   7.952   3.289   4.369  0.4101  0.6236  0.2275
   92SAPE  H18R 9059   7.922   3.189   4.405 -0.8206  0.1353 -1.9768
   92SAPE  H18S 9060   8.062   3.294   4.384  0.9775 -4.7029 -0.3175
   92SAPE  C219 9061   7.940   3.304   4.216  0.6181 -0.4202 -0.7242
   92SAPE  H19R 9062   7.970   3.403   4.176 -0.6573 -0.2893 -1.3877
   92SAPE  H19S 9063   7.834   3.284   4.189 -0.0288  2.0025 -0.2566
   92SAPE  C220 9064   8.020   3.198   4.148 -0.2848 -0.0564 -0.3885
   92SAPE  H20R 9065   7.991   3.112   4.212  1.5744  0.1797  0.8292
   92SAPE  H20S 9066   8.129   3.214   4.165 -0.6923  1.2097  1.3230
   92SAPE  H20T 9067   7.980   3.177   4.046  0.1963 -0.5907 -0.4710
   92SAPE   C33 9068   7.102   3.155   5.666 -0.2902 -0.0399  0.1674
   92SAPE   H3X 9069   7.193   3.167   5.729  1.3712 -1.5031 -1.8321
   92SAPE   H3Y 9070   7.064   3.257   5.644  1.4873  0.8074  0.8332
   92SAPE   C34 9071   7.137   3.079   5.543 -0.4688  0.7727  0.6744
   92SAPE   H4X 9072   7.151   2.971   5.565 -0.3703  0.4012 -1.0422
   92SAPE   H4Y 9073   7.243   3.110   5.526  0.8786 -3.3169  0.4233
   92SAPE   C35 9074   7.026   3.097   5.440 -0.0801  0.5641 -0.4167
   92SAPE   H5X 9075   7.018   3.203   5.409  1.5071  0.4842 -1.1920
   92SAPE   H5Y 9076   6.929   3.068   5.485  0.3895  1.0516  0.9838
   92SAPE   C36 9077   7.050   3.021   5.309 -0.0870  0.1564 -0.2494
   92SAPE   H6X 9078   6.961   3.027   5.241 -1.0316  1.3401  1.0492
   92SAPE   H6Y 9079   7.051   2.912   5.330  1.7868  0.8252  3.9718
   92SAPE   C37 9080   7.177   3.051   5.226 -0.3683  0.0690  0.0880
   92SAPE   H7X 9081   7.263   3.002   5.277 -1.9670 -2.9095  0.1445
   92SAPE   H7Y 9082   7.185   3.161   5.222  0.1707  0.0759  1.1449
   92SAPE   C38 9083   7.185   2.985   5.086 -0.2019  1.0731 -0.4394
   92SAPE   H8X 9084   7.081   2.972   5.048  0.1469 -1.9671 -0.5878
   92SAPE   H8Y 9085   7.232   2.886   5.102  0.6559  1.1484 -2.2326
   92SAPE   C39 9086   7.265   3.056   4.981 -0.1440  0.2354 -0.6898
   92SAPE   H9X 9087   7.365   3.075   5.025 -0.3437  1.9779 -0.9324
   92SAPE   H9Y 9088   7.217   3.155   4.966 -1.3471 -0.2293 -0.0763
   92SAPE  C310 9089   7.279   2.972   4.858 -0.5880 -0.2673  0.4896
   92SAPE  H10X 9090   7.179   2.979   4.811 -0.0941  0.1336 -0.5495
   92SAPE  H10Y 9091   7.301   2.866   4.883 -0.3418 -0.3344  0.0042
   92SAPE  C311 9092   7.386   3.028   4.757  0.1684 -0.2288 -0.2359
   92SAPE  H11X 9093   7.477   2.970   4.784 -0.7018 -2.1245 -1.1470
   92SAPE  H11Y 9094   7.398   3.136   4.778 -0.2609 -0.2850  0.3090
   92SAPE  C312 9095   7.356   2.992   4.607  0.5761 -0.5079 -0.2954
   92SAPE  H12X 9096   7.444   3.022   4.545  1.4752 -3.9032 -0.8752
   92SAPE  H12Y 9097   7.264   3.046   4.578  1.7023  0.7469 -1.7648
   92SAPE  C313 9098   7.352   2.833   4.571 -0.6048 -1.1645 -0.6543
   92SAPE  H13X 9099   7.278   2.793   4.644  0.9446 -1.2679  0.9229
   92SAPE  H13Y 9100   7.448   2.781   4.591  1.3394  2.4285  0.1538
   92SAPE  C314 9101   7.298   2.809   4.430 -0.4226 -0.5032  0.3319
   92SAPE  H14X 9102   7.358   2.861   4.352  0.8594 -0.2860  1.4328
   92SAPE  H14Y 9103   7.189   2.835   4.430 -0.6948 -1.5943  1.1937
   92SAPE  C315 9104   7.317   2.662   4.389  1.0820 -0.6200 -0.4572
   92SAPE  H15X 9105   7.258   2.600   4.460 -0.7685  1.2148 -0.3233
   92SAPE  H15Y 9106   7.426   2.640   4.391  1.0327 -0.9058 -0.7733
   92SAPE  C316 9107   7.255   2.647   4.247 -0.1344  0.1220  0.2430
   92SAPE  H16X 9108   7.282   2.735   4.185 -0.5344 -1.9329 -3.1281
   92SAPE  H16Y 9109   7.144   2.639   4.249 -0.2072  0.8594  2.5783
   92SAPE  C317 9110   7.295   2.522   4.176 -0.5428 -0.0043 -0.2101
   92SAPE  H17X 9111   7.282   2.433   4.241 -1.0334  1.1617  1.3412
   92SAPE  H17Y 9112   7.401   2.549   4.158 -0.2120 -0.5460  0.8348
   92SAPE  C318 9113   7.227   2.505   4.042  0.3614 -0.6220 -0.1192
   92SAPE  H18X 9114   7.278   2.434   3.973  2.3934 -1.3730  2.0107
   92SAPE  H18Y 9115   7.220   2.601   3.988 -1.6344 -0.9835 -0.5887
   92SAPE  H18Z 9116   7.124   2.464   4.056  1.1393 -2.6736  0.0611
   93SAPE     N 9117   3.661   0.650   6.946 -0.1132 -0.2193  0.1440
   93SAPE   HN1 9118   3.570   0.697   6.965  0.8329  1.6783  0.1083
   93SAPE   HN2 9119   3.634   0.586   6.868 -1.1351 -2.4730  2.1863
   93SAPE   HN3 9120   3.686   0.589   7.027  1.6783  0.3523  0.0501
   93SAPE   C12 9121   3.753   0.760   6.913 -0.0800 -0.2905 -0.1648
   93SAPE  H12A 9122   3.801   0.800   7.004  0.4155 -3.6823  1.2153
   93SAPE  H12B 9123   3.698   0.844   6.866  0.6565  0.9807  1.1902
   93SAPE   C11 9124   3.856   0.693   6.813 -0.7653 -0.1012 -0.3080
   93SAPE  H11A 9125   3.912   0.771   6.758  0.0299  1.6201  2.7144
   93SAPE  H11B 9126   3.804   0.628   6.739  1.5121 -1.8362 -0.5093
   93SAPE     P 9127   3.981   0.462   6.829 -0.1332  0.0270  0.1716
   93SAPE   O13 9128   4.104   0.409   6.885 -0.6504  0.0086 -0.4249
   93SAPE   O14 9129   3.862   0.379   6.853  0.0348  0.3488 -0.1382
   93SAPE   O12 9130   3.954   0.608   6.879  0.2106  0.7867  0.2280
   93SAPE   O11 9131   4.002   0.472   6.679 -0.5537 -0.6019  0.4696
   93SAPE    C1 9132   4.119   0.537   6.632 -0.0177 -0.0039  0.1968
   93SAPE    HA 9133   4.119   0.644   6.661  1.3110  0.0713 -0.0156
   93SAPE    HB 9134   4.219   0.497   6.660  1.0946  2.7278  0.4803
   93SAPE    C2 9135   4.104   0.512   6.479 -0.4860  0.4097 -0.5511
   93SAPE    HS 9136   4.000   0.542   6.454 -1.3269 -2.5781 -0.9723
   93SAPE   O21 9137   4.132   0.368   6.463  0.2863  0.1177  0.2023
   93SAPE   C21 9138   4.027   0.296   6.426  0.0598  0.0581 -0.1154
   93SAPE   O22 9139   3.910   0.339   6.422  0.5581 -0.0245  0.0586
   93SAPE   C22 9140   4.070   0.163   6.384  1.0828  0.5882  0.6753
   93SAPE   H2R 9141   4.111   0.122   6.479 -0.3827 -1.7254  0.3966
   93SAPE   H2S 9142   3.979   0.105   6.358  0.5804  2.0301 -0.9824
   93SAPE    C3 9143   4.209   0.587   6.409  0.3520  0.3567  0.5125
   93SAPE    HX 9144   4.308   0.548   6.438  0.8339  0.9394 -0.2995
   93SAPE    HY 9145   4.203   0.695   6.436 -0.7418  0.8964 -1.6313
   93SAPE   O31 9146   4.206   0.572   6.263 -0.2100  0.0782  0.3250
   93SAPE   C31 9147   4.105   0.642   6.208 -0.5603  0.0453  0.5993
   93SAPE   O32 9148   4.027   0.715   6.261  0.3477  0.1043  0.0661
   93SAPE   C32 9149   4.110   0.627   6.056  0.6925  0.5951  0.6851
   93SAPE   H2X 9150   4.141   0.521   6.039  0.2242  0.6062 -0.3333
   93SAPE   H2Y 9151   4.193   0.692   6.020  1.0882  0.1579  0.7964
   93SAPE   C23 9152   4.168   0.162   6.269 -0.3336 -0.2478 -0.0504
   93SAPE   H3R 9153   4.201   0.055   6.269  1.8046  0.3383  1.3444
   93SAPE   H3S 9154   4.261   0.220   6.289 -0.5391  0.7996 -1.8738
   93SAPE   C24 9155   4.117   0.213   6.130 -0.1693  0.6773 -0.3053
   93SAPE   H4R 9156   4.210   0.196   6.072 -0.5697  1.6214 -1.2517
   93SAPE   H4S 9157   4.103   0.323   6.131 -0.7395  0.6142  0.8042
   93SAPE   C25 9158   3.996   0.140   6.083 -0.4497 -0.1723  0.3526
   93SAPE   H5R 9159   3.920   0.127   6.161 -1.3340  1.5337 -0.1667
   93SAPE   C26 9160   3.960   0.115   5.952  0.1363 -0.3600 -0.4208
   93SAPE   H6R 9161   3.868   0.060   5.929  0.0145 -0.6092  0.6184
   93SAPE   C27 9162   4.047   0.141   5.831  0.4763  0.0910  0.0211
   93SAPE   H7R 9163   4.146   0.182   5.861 -0.5525  0.8500  2.6303
   93SAPE   H7S 9164   3.991   0.218   5.775 -2.1965 -2.2510 -0.7434
   93SAPE   C28 9165   4.056   0.014   5.755  0.5300  0.0211 -0.5677
   93SAPE   H8R 9166   4.067  -0.078   5.814 -0.2752 -2.1272 -3.5430
   93SAPE   C29 9167   4.026  -0.001   5.623 -0.3936 -0.9135  0.3892
   93SAPE   H9R 9168   4.044  -0.094   5.567 -1.0142 -0.9207  0.1926
   93SAPE  C210 9169   3.999   0.114   5.524  0.0168  0.6424 -0.0411
   93SAPE  H10R 9170   4.053   0.097   5.428  1.5223 -1.3725  1.0711
   93SAPE  H10S 9171   4.047   0.204   5.569  2.3015 -0.4254 -0.1689
   93SAPE  C211 9172   3.851   0.123   5.504 -0.3051  0.2572 -0.2299
   93SAPE  H11R 9173   3.801   0.164   5.594 -0.4827 -0.6168  0.0812
   93SAPE  C212 9174   3.784   0.078   5.396 -0.1846  0.0438 -0.1375
   93SAPE  H12R 9175   3.674   0.081   5.408 -0.2519  0.3555 -0.7737
   93SAPE  C213 9176   3.843   0.020   5.269  0.7233 -0.2079 -0.1095
   93SAPE  H13R 9177   3.758  -0.026   5.214  0.3611 -0.7791  0.9092
   93SAPE  H13S 9178   3.913  -0.063   5.293  0.6968 -0.6772 -1.5173
   93SAPE  C214 9179   3.916   0.118   5.181 -0.2816 -0.5421 -0.4622
   93SAPE  H14R 9180   3.946   0.207   5.238 -1.9624 -0.2056 -0.0435
   93SAPE  C215 9181   3.972   0.104   5.058 -0.3946  0.2092 -0.5488
   93SAPE  H15R 9182   4.028   0.185   5.009  2.1616 -0.0506  1.6476
   93SAPE  C216 9183   3.962  -0.017   4.969 -0.5135 -0.1362 -0.1689
   93SAPE  H16R 9184   3.860  -0.060   4.964 -1.4889  1.8627  0.9797
   93SAPE  H16S 9185   4.028  -0.098   5.006 -1.8412  0.1175  3.1298
   93SAPE  C217 9186   4.017   0.004   4.824  0.4201 -0.0208  0.5602
   93SAPE  H17R 9187   4.125   0.030   4.834 -0.0964  1.9881  1.4223
   93SAPE  H17S 9188   3.970   0.096   4.783  2.4818  1.4196  1.2559
   93SAPE  C218 9189   4.003  -0.123   4.732  0.7682  0.6075  0.6009
   93SAPE  H18R 9190   3.913  -0.128   4.667  1.1298  2.4405 -0.0831
   93SAPE  H18S 9191   4.012  -0.217   4.791  2.9485  1.1951  1.2920
   93SAPE  C219 9192   4.124  -0.112   4.638 -0.1650  0.4665  0.0334
   93SAPE  H19R 9193   4.218  -0.081   4.687  0.6090  0.6311 -1.4976
   93SAPE  H19S 9194   4.107  -0.039   4.557  1.3104 -1.3924 -2.0704
   93SAPE  C220 9195   4.149  -0.244   4.560  0.6270  0.6687  0.4388
   93SAPE  H20R 9196   4.248  -0.250   4.511  1.6395  0.7714  2.3882
   93SAPE  H20S 9197   4.061  -0.278   4.501  0.9669 -0.7107  0.6959
   93SAPE  H20T 9198   4.164  -0.324   4.635 -1.3331  0.1853  0.3787
   93SAPE   C33 9199   3.980   0.650   5.985  0.2927 -0.2164 -0.1390
   93SAPE   H3X 9200   3.957   0.758   5.989 -4.1078 -1.0004  1.3389
   93SAPE   H3Y 9201   3.903   0.599   6.046  1.4875 -0.3807  1.3061
   93SAPE   C34 9202   3.980   0.588   5.842 -0.6847  0.0457  0.2831
   93SAPE   H4X 9203   3.996   0.479   5.854 -1.2236  0.0076  0.7148
   93SAPE   H4Y 9204   4.074   0.629   5.800  0.2008  1.4840  3.4032
   93SAPE   C35 9205   3.847   0.603   5.756  0.2416 -0.1716 -0.1298
   93SAPE   H5X 9206   3.836   0.710   5.728  0.3491  0.2470  1.3060
   93SAPE   H5Y 9207   3.761   0.575   5.820 -0.8286  0.4531 -1.2516
   93SAPE   C36 9208   3.848   0.534   5.625  0.3878  0.5964  0.0018
   93SAPE   H6X 9209   3.740   0.544   5.600  0.2689  1.6444  0.8872
   93SAPE   H6Y 9210   3.868   0.425   5.637  0.1986  0.5176 -0.3769
   93SAPE   C37 9211   3.935   0.601   5.527 -0.1461 -0.1885  0.5467
   93SAPE   H7X 9212   4.042   0.593   5.555  0.4089  0.1902 -1.3190
   93SAPE   H7Y 9213   3.922   0.712   5.531  1.4922  0.0620 -0.2398
   93SAPE   C38 9214   3.909   0.563   5.373 -0.1589  0.0470 -0.8620
   93SAPE   H8X 9215   3.799   0.579   5.367 -0.5835 -1.3569  1.5986
   93SAPE   H8Y 9216   3.927   0.453   5.378 -0.9185 -0.0350  2.1172
   93SAPE   C39 9217   3.975   0.655   5.269  0.0380  0.3415 -0.5642
   93SAPE   H9X 9218   4.075   0.608   5.254 -1.0249 -2.3845  0.2417
   93SAPE   H9Y 9219   3.977   0.754   5.320 -0.4481 -0.0691  0.2696
   93SAPE  C310 9220   3.893   0.670   5.143 -0.0463  0.3954 -0.7090
   93SAPE  H10X 9221   3.796   0.716   5.170  0.2548  0.4638  0.3259
   93SAPE  H10Y 9222   3.881   0.568   5.100  1.9169 -0.3396  0.3352
   93SAPE  C311 9223   3.953   0.773   5.042  0.1925 -0.0939 -0.2011
   93SAPE  H11X 9224   4.051   0.735   5.007  0.7904  1.6553 -0.5092
   93SAPE  H11Y 9225   3.970   0.866   5.100 -2.0906 -1.0410  2.2236
   93SAPE  C312 9226   3.870   0.788   4.915  0.0172  0.6445  0.4939
   93SAPE  H12X 9227   3.930   0.845   4.841 -0.6902  0.4959 -0.2064
   93SAPE  H12Y 9228   3.785   0.856   4.937 -0.1088  1.0015 -1.0234
   93SAPE  C313 9229   3.804   0.660   4.863  0.0523  0.0597  0.1794
   93SAPE  H13X 9230   3.723   0.636   4.935 -1.9449  2.2956 -1.1453
   93SAPE  H13Y 9231   3.857   0.564   4.843 -0.2637 -0.3364  1.1581
   93SAPE  C314 9232   3.720   0.675   4.732 -0.6885 -0.3419  0.3875
   93SAPE  H14X 9233   3.688   0.781   4.740  1.9942  0.7051 -1.2533
   93SAPE  H14Y 9234   3.633   0.606   4.735  0.2128 -1.5658 -0.4627
   93SAPE  C315 9235   3.807   0.635   4.613 -0.5452 -0.4973  1.1842
   93SAPE  H15X 9236   3.807   0.524   4.611 -2.0331 -0.6285 -3.1728
   93SAPE  H15Y 9237   3.914   0.666   4.615 -0.6362 -0.0039 -0.1639
   93SAPE  C316 9238   3.765   0.696   4.476 -0.4013 -0.5283 -0.3717
   93SAPE  H16X 9239   3.774   0.806   4.483 -0.4151 -0.4990 -0.8177
   93SAPE  H16Y 9240   3.656   0.680   4.468 -0.4841 -0.0126 -0.3136
   93SAPE  C317 9241   3.863   0.641   4.372 -0.3454 -0.5666  0.2737
   93SAPE  H17X 9242   3.841   0.533   4.355  0.0541 -0.9723  2.1092
   93SAPE  H17Y 9243   3.967   0.653   4.409 -0.2259  0.5588 -0.4057
   93SAPE  C318 9244   3.856   0.718   4.241  0.1450  0.4076  0.0808
   93SAPE  H18X 9245   3.899   0.657   4.159 -0.3866  1.1623 -0.7746
   93SAPE  H18Y 9246   3.913   0.813   4.237 -1.2623  1.2371 -1.6922
   93SAPE  H18Z 9247   3.748   0.733   4.219 -0.7202 -1.4032  2.5569
   94SAPE     N 9248   2.291   2.012   6.494  0.0129 -0.0379 -0.0004
   94SAPE   HN1 9249   2.213   1.952   6.459 -1.1966  0.9259  0.9749
   94SAPE   HN2 9250   2.284   2.101   6.440  0.7195  0.0272  0.0075
   94SAPE   HN3 9251   2.383   1.969   6.469 -0.3214 -0.5550 -0.3813
   94SAPE   C12 9252   2.256   2.021   6.641 -0.7563  0.3887 -0.5382
   94SAPE  H12A 9253   2.342   1.978   6.696 -1.4102  0.7213  0.7946
   94SAPE  H12B 9254   2.168   1.953   6.646 -1.0238  0.7686  0.0608
   94SAPE   C11 9255   2.225   2.167   6.683  0.2771 -0.0652 -0.7216
   94SAPE  H11A 9256   2.185   2.171   6.787 -0.5989  0.1773 -1.0565
   94SAPE  H11B 9257   2.138   2.198   6.621 -1.4743 -2.5162  0.3492
   94SAPE     P 9258   2.366   2.364   6.574  0.0787 -0.0991 -0.2268
   94SAPE   O13 9259   2.261   2.466   6.581  0.4020 -0.2093  0.8477
   94SAPE   O14 9260   2.501   2.410   6.595 -0.3849  0.6282 -0.4802
   94SAPE   O12 9261   2.343   2.246   6.674  0.5312 -0.1880  0.5773
   94SAPE   O11 9262   2.355   2.291   6.434  0.2747 -0.3789  0.3916
   94SAPE    C1 9263   2.436   2.341   6.324 -0.0183 -0.5276  0.3197
   94SAPE    HA 9264   2.535   2.384   6.350  0.4441 -0.7896 -0.9297
   94SAPE    HB 9265   2.467   2.247   6.275  0.7095 -0.5180  0.7488
   94SAPE    C2 9266   2.361   2.426   6.219 -0.1867 -1.0802  0.9122
   94SAPE    HS 9267   2.423   2.438   6.128 -0.8731 -1.2482  0.4144
   94SAPE   O21 9268   2.330   2.552   6.267 -0.2528 -0.3918  0.2608
   94SAPE   C21 9269   2.438   2.630   6.281 -0.0001  0.3770  0.4290
   94SAPE   O22 9270   2.554   2.593   6.261 -0.5229 -0.4848 -0.1177
   94SAPE   C22 9271   2.391   2.766   6.329 -0.0326  0.6805  0.3686
   94SAPE   H2R 9272   2.314   2.792   6.253  0.1831 -1.4649 -0.6601
   94SAPE   H2S 9273   2.345   2.757   6.429  1.8081  1.4719  1.3334
   94SAPE    C3 9274   2.230   2.361   6.173  0.2406  0.3358  0.2200
   94SAPE    HX 9275   2.155   2.376   6.254  0.0339  2.7351 -0.3314
   94SAPE    HY 9276   2.246   2.251   6.176 -1.9395 -0.0381 -0.3854
   94SAPE   O31 9277   2.187   2.408   6.044 -0.0408  0.2266 -0.4180
   94SAPE   C31 9278   2.065   2.457   6.030  0.2909 -0.0205  0.3778
   94SAPE   O32 9279   1.986   2.472   6.123 -0.3364  0.1353  0.2917
   94SAPE   C32 9280   2.034   2.489   5.886  0.2076 -0.0020  0.5118
   94SAPE   H2X 9281   1.942   2.441   5.847  0.6433 -0.1434 -0.3829
   94SAPE   H2Y 9282   2.115   2.445   5.823 -0.9861 -0.3244 -0.8453
   94SAPE   C23 9283   2.502   2.874   6.329 -0.1961  0.3840 -0.4589
   94SAPE   H3R 9284   2.587   2.845   6.394  1.5302  1.1974 -2.2184
   94SAPE   H3S 9285   2.457   2.964   6.377 -0.3070  0.9815 -1.6365
   94SAPE   C24 9286   2.547   2.909   6.188 -0.6087  0.5079  0.0402
   94SAPE   H4R 9287   2.583   2.813   6.146 -2.3727 -0.2446  0.1490
   94SAPE   H4S 9288   2.643   2.964   6.191 -0.0585 -0.4647  1.8814
   94SAPE   C25 9289   2.456   2.962   6.087  0.1372 -0.1504  0.3942
   94SAPE   H5R 9290   2.401   3.046   6.132 -0.6833  0.0198 -0.8835
   94SAPE   C26 9291   2.418   2.925   5.964 -0.2244  0.3144 -0.3604
   94SAPE   H6R 9292   2.347   2.991   5.911 -0.2125  1.1317  0.6157
   94SAPE   C27 9293   2.483   2.821   5.878 -0.1343 -0.7466 -0.3587
   94SAPE   H7R 9294   2.591   2.830   5.902 -0.9477  1.4123  3.2812
   94SAPE   H7S 9295   2.473   2.852   5.772 -0.2905  1.0727  0.1527
   94SAPE   C28 9296   2.456   2.675   5.897  0.7526  0.6803  0.2345
   94SAPE   H8R 9297   2.386   2.642   5.975 -0.1631  0.3444 -0.7254
   94SAPE   C29 9298   2.493   2.588   5.798  0.2099 -0.0283  0.5885
   94SAPE   H9R 9299   2.473   2.481   5.816  0.1100 -0.4010 -1.4685
   94SAPE  C210 9300   2.549   2.621   5.665  0.0212  0.0777  0.4823
   94SAPE  H10R 9301   2.479   2.690   5.613  1.6145  1.2330 -0.2310
   94SAPE  H10S 9302   2.549   2.530   5.602 -0.2351  1.3282 -1.4092
   94SAPE  C211 9303   2.681   2.697   5.656 -0.4187  0.6240  0.2343
   94SAPE  H11R 9304   2.735   2.711   5.751 -3.5339  0.7252  2.1289
   94SAPE  C212 9305   2.721   2.751   5.541 -0.2545  0.0090 -0.1851
   94SAPE  H12R 9306   2.805   2.821   5.528  1.0602 -1.5152 -0.1917
   94SAPE  C213 9307   2.642   2.735   5.416  0.1410  0.4435  0.2013
   94SAPE  H13R 9308   2.584   2.640   5.412 -1.0975  0.9410  3.4003
   94SAPE  H13S 9309   2.719   2.717   5.338 -2.0205 -1.4126 -1.6398
   94SAPE  C214 9310   2.555   2.852   5.383  0.8478 -0.1676  0.1344
   94SAPE  H14R 9311   2.516   2.906   5.471 -1.3290  0.9416 -1.4279
   94SAPE  C215 9312   2.550   2.911   5.264  0.0504  0.3624 -0.4376
   94SAPE  H15R 9313   2.467   2.978   5.236  0.2174  0.5649 -0.4550
   94SAPE  C216 9314   2.618   2.857   5.142 -0.2162 -0.3798 -0.4716
   94SAPE  H16R 9315   2.564   2.762   5.120  1.4522 -1.5776  0.4159
   94SAPE  H16S 9316   2.725   2.830   5.151 -0.0222  0.2508 -0.8288
   94SAPE  C217 9317   2.608   2.948   5.011  0.0967 -0.1493  0.0818
   94SAPE  H17R 9318   2.657   3.044   5.041 -1.3330  0.4942  0.4369
   94SAPE  H17S 9319   2.501   2.972   4.995  0.6116  0.5651 -3.0620
   94SAPE  C218 9320   2.656   2.896   4.873 -0.0242  0.1391  0.0035
   94SAPE  H18R 9321   2.765   2.879   4.869  0.1176  0.8320  0.6714
   94SAPE  H18S 9322   2.640   2.976   4.798 -0.7649  0.5756  0.6052
   94SAPE  C219 9323   2.579   2.780   4.807 -0.3746 -0.4180  0.3351
   94SAPE  H19R 9324   2.468   2.795   4.810 -0.3495 -0.2828  2.3824
   94SAPE  H19S 9325   2.600   2.689   4.868 -0.7164 -0.9574 -0.3279
   94SAPE  C220 9326   2.616   2.755   4.655 -0.6915  0.5622 -0.1377
   94SAPE  H20R 9327   2.556   2.678   4.602 -1.0939  2.1996 -2.2342
   94SAPE  H20S 9328   2.723   2.731   4.641 -0.7594  1.1692 -1.9113
   94SAPE  H20T 9329   2.600   2.852   4.603  0.5148  1.6056  1.3510
   94SAPE   C33 9330   2.041   2.642   5.852 -0.4334 -0.9028 -0.7790
   94SAPE   H3X 9331   2.146   2.669   5.875 -0.5407 -1.7962  0.9745
   94SAPE   H3Y 9332   1.982   2.699   5.927 -0.3705  0.4642 -1.7422
   94SAPE   C34 9333   1.979   2.672   5.714  0.5718  0.7734 -0.4573
   94SAPE   H4X 9334   1.956   2.780   5.701 -0.7340  0.4886 -0.6144
   94SAPE   H4Y 9335   1.879   2.624   5.708  1.2361 -0.8992  0.8345
   94SAPE   C35 9336   2.068   2.618   5.601  0.1357  0.1486 -0.5545
   94SAPE   H5X 9337   2.058   2.508   5.586 -0.4157  0.1629 -0.3436
   94SAPE   H5Y 9338   2.173   2.626   5.636  0.6649 -0.2832 -2.0035
   94SAPE   C36 9339   2.040   2.676   5.467  0.2009 -0.2447  0.2713
   94SAPE   H6X 9340   2.029   2.786   5.467  1.2377 -0.1004 -1.3586
   94SAPE   H6Y 9341   1.938   2.635   5.452 -0.2809  0.9755  0.1350
   94SAPE   C37 9342   2.143   2.639   5.369  0.0704 -0.1206  0.0160
   94SAPE   H7X 9343   2.167   2.533   5.397  0.7230  0.1295  0.4490
   94SAPE   H7Y 9344   2.239   2.696   5.372 -0.4196  0.7199 -0.1207
   94SAPE   C38 9345   2.092   2.639   5.225 -0.0846  0.0819  0.1300
   94SAPE   H8X 9346   2.106   2.741   5.184 -0.3013 -0.2007 -0.6682
   94SAPE   H8Y 9347   1.985   2.612   5.217  0.4116 -1.5666 -2.0403
   94SAPE   C39 9348   2.165   2.537   5.140  0.3992  0.0520  1.1419
   94SAPE   H9X 9349   2.149   2.435   5.182  0.1806 -0.5763 -0.3686
   94SAPE   H9Y 9350   2.275   2.550   5.141  0.9403 -2.9774 -1.2294
   94SAPE  C310 9351   2.139   2.541   4.991  0.0216 -0.6162  1.5597
   94SAPE  H10X 9352   2.030   2.533   4.973  0.5847 -1.9395 -2.1723
   94SAPE  H10Y 9353   2.191   2.453   4.948  0.2405  0.8132 -1.4091
   94SAPE  C311 9354   2.214   2.659   4.914  0.5907  0.6718  0.3695
   94SAPE  H11X 9355   2.322   2.636   4.915  0.3734 -0.4694 -0.1773
   94SAPE  H11Y 9356   2.193   2.752   4.971  1.9680  0.5847  1.0544
   94SAPE  C312 9357   2.143   2.681   4.776 -0.5218 -0.6937 -0.2028
   94SAPE  H12X 9358   2.165   2.784   4.739  0.3730 -0.9854 -0.5031
   94SAPE  H12Y 9359   2.033   2.668   4.780 -0.6483  0.0450 -0.9570
   94SAPE  C313 9360   2.207   2.585   4.673  0.0290 -0.5437 -0.2603
   94SAPE  H13X 9361   2.190   2.479   4.702  2.2864 -1.3057 -1.5062
   94SAPE  H13Y 9362   2.318   2.584   4.670  0.0751 -3.9143 -1.4372
   94SAPE  C314 9363   2.164   2.610   4.527  0.3888  0.1570  0.8404
   94SAPE  H14X 9364   2.053   2.621   4.530  0.4273  0.7318  0.4051
   94SAPE  H14Y 9365   2.185   2.515   4.475 -0.6096  0.2495  0.2383
   94SAPE  C315 9366   2.223   2.731   4.451  0.5856 -0.2511 -0.3833
   94SAPE  H15X 9367   2.274   2.796   4.525 -1.0087  1.4918 -0.7634
   94SAPE  H15Y 9368   2.134   2.794   4.429 -0.3717 -0.4471  2.5436
   94SAPE  C316 9369   2.299   2.715   4.317  0.6479 -0.5521 -0.6431
   94SAPE  H16X 9370   2.236   2.662   4.242 -0.2837 -0.3043 -0.0541
   94SAPE  H16Y 9371   2.387   2.650   4.333  0.0609 -0.9106  1.4450
   94SAPE  C317 9372   2.335   2.855   4.261 -0.8801 -0.9176 -0.5605
   94SAPE  H17X 9373   2.246   2.914   4.228 -0.5068  0.4825  0.8540
   94SAPE  H17Y 9374   2.395   2.833   4.170 -1.5136 -0.7164 -1.0344
   94SAPE  C318 9375   2.420   2.933   4.361  0.0192  0.1725  0.7430
   94SAPE  H18X 9376   2.441   3.028   4.306 -2.0078 -0.2467 -0.8787
   94SAPE  H18Y 9377   2.509   2.871   4.381 -0.6605 -0.6413  1.3172
   94SAPE  H18Z 9378   2.363   2.959   4.452 -0.9611 -1.6941  0.7101
   95SAPE     N 9379   5.753   5.984   6.606  0.3461 -0.1641 -0.5892
   95SAPE   HN1 9380   5.853   5.971   6.582  0.3820 -1.7594  0.3181
   95SAPE   HN2 9381   5.692   5.931   6.540  1.6642  0.9327 -2.8250
   95SAPE   HN3 9382   5.719   6.082   6.593  1.2048  0.4187  1.2112
   95SAPE   C12 9383   5.732   5.930   6.746 -0.3134 -0.6063 -0.4583
   95SAPE  H12A 9384   5.754   5.821   6.743 -0.4405 -0.6752  0.5240
   95SAPE  H12B 9385   5.628   5.950   6.779  0.3903  0.4136  1.2763
   95SAPE   C11 9386   5.833   5.991   6.838 -0.8240 -0.1250 -0.2165
   95SAPE  H11A 9387   5.931   5.949   6.806  0.0440  1.8820 -0.3271
   95SAPE  H11B 9388   5.825   5.976   6.947 -2.4649  0.2116 -0.2627
   95SAPE     P 9389   5.945   6.222   6.775  0.0426 -0.2388  0.2502
   95SAPE   O13 9390   5.901   6.362   6.799 -0.4461 -0.3220 -0.2261
   95SAPE   O14 9391   6.072   6.179   6.844 -0.0023 -0.2718 -0.2790
   95SAPE   O12 9392   5.835   6.125   6.829  0.7111 -0.4422 -0.4043
   95SAPE   O11 9393   5.954   6.182   6.623 -0.0739 -0.5873  0.8063
   95SAPE    C1 9394   6.035   6.240   6.524  0.4291 -0.3244 -0.2754
   95SAPE    HA 9395   6.101   6.318   6.568  0.4865 -0.9047  0.6731
   95SAPE    HB 9396   6.100   6.158   6.488 -1.7289 -1.5185 -1.6787
   95SAPE    C2 9397   5.949   6.294   6.403 -0.5081  0.2298 -0.4573
   95SAPE    HS 9398   5.874   6.352   6.462  0.2624  0.0845  0.7105
   95SAPE   O21 9399   5.880   6.188   6.327  0.5971 -0.0642 -0.2443
   95SAPE   C21 9400   5.764   6.227   6.268  0.6705 -0.2908 -0.2627
   95SAPE   O22 9401   5.714   6.332   6.281  0.5291 -0.3648 -0.1878
   95SAPE   C22 9402   5.715   6.117   6.177  0.4429  0.1353  0.2978
   95SAPE   H2R 9403   5.793   6.039   6.171  0.9211  0.5624  0.8704
   95SAPE   H2S 9404   5.618   6.072   6.208  0.5365  0.2868  0.8195
   95SAPE    C3 9405   6.018   6.394   6.317 -0.4319  0.5133 -0.0443
   95SAPE    HX 9406   6.071   6.460   6.389 -1.8945  0.9610  0.6489
   95SAPE    HY 9407   5.956   6.459   6.253 -1.1857 -0.2913 -0.1567
   95SAPE   O31 9408   6.117   6.328   6.230  0.1065  0.4029 -0.3723
   95SAPE   C31 9409   6.210   6.411   6.187 -0.1134  0.3811  0.5076
   95SAPE   O32 9410   6.225   6.528   6.219 -1.4082 -0.4819  0.2252
   95SAPE   C32 9411   6.296   6.334   6.095 -0.5680 -0.4445  0.5217
   95SAPE   H2X 9412   6.230   6.285   6.019 -1.4891  1.4630  0.0285
   95SAPE   H2Y 9413   6.352   6.263   6.159 -0.2334  0.3423  1.1092
   95SAPE   C23 9414   5.689   6.173   6.035 -0.3516 -0.9949  0.9457
   95SAPE   H3R 9415   5.604   6.245   6.035  0.0266 -0.5182 -0.9317
   95SAPE   H3S 9416   5.668   6.089   5.965 -1.7209  0.1776 -0.0933
   95SAPE   C24 9417   5.801   6.253   5.958  0.3186 -0.2964 -0.0852
   95SAPE   H4R 9418   5.872   6.182   5.911  0.3179  0.9759 -2.1112
   95SAPE   H4S 9419   5.846   6.329   6.026  1.4145  1.1265 -2.2842
   95SAPE   C25 9420   5.753   6.344   5.843 -0.2126 -0.6507  0.7576
   95SAPE   H5R 9421   5.696   6.424   5.892 -0.4412 -1.4487  1.8227
   95SAPE   C26 9422   5.762   6.332   5.706 -0.0847 -0.0925 -0.0333
   95SAPE   H6R 9423   5.709   6.409   5.648 -4.2819 -1.6235  1.3999
   95SAPE   C27 9424   5.837   6.228   5.631  0.0186  0.2496  0.5930
   95SAPE   H7R 9425   5.849   6.134   5.688 -0.0156 -0.4451 -0.5330
   95SAPE   H7S 9426   5.942   6.252   5.605  0.2318 -2.2558 -1.1481
   95SAPE   C28 9427   5.764   6.184   5.506  0.7546  0.1567 -0.2475
   95SAPE   H8R 9428   5.677   6.121   5.531  2.1743 -1.0393  2.0795
   95SAPE   C29 9429   5.787   6.236   5.387  0.0710  0.8712 -0.1457
   95SAPE   H9R 9430   5.737   6.185   5.303 -0.0066 -1.2585  1.1147
   95SAPE  C210 9431   5.895   6.331   5.351  0.1066 -0.8731  0.5032
   95SAPE  H10R 9432   5.983   6.275   5.312  0.8190  1.0239 -0.7730
   95SAPE  H10S 9433   5.931   6.391   5.437 -0.4915  0.9968 -0.4929
   95SAPE  C211 9434   5.862   6.429   5.243  0.5429  0.3483 -0.0512
   95SAPE  H11R 9435   5.849   6.532   5.280  0.2773  0.7600 -1.2326
   95SAPE  C212 9436   5.832   6.411   5.112  0.0762  0.6694  0.2597
   95SAPE  H12R 9437   5.811   6.503   5.057 -1.3060  1.7454  2.4389
   95SAPE  C213 9438   5.817   6.283   5.038 -0.0508  0.4482 -0.2929
   95SAPE  H13R 9439   5.719   6.272   4.986  1.0542 -2.7545 -1.9843
   95SAPE  H13S 9440   5.815   6.192   5.102  1.3314 -0.2553 -1.1946
   95SAPE  C214 9441   5.933   6.274   4.940 -0.4477  0.4638  0.1433
   95SAPE  H14R 9442   6.028   6.253   4.992 -0.8503 -1.0862  0.3180
   95SAPE  C215 9443   5.928   6.284   4.807  0.1054  0.0912  0.5011
   95SAPE  H15R 9444   6.024   6.265   4.757  0.5544 -2.0341  2.0212
   95SAPE  C216 9445   5.813   6.331   4.720 -0.9040 -0.3375 -1.0602
   95SAPE  H16R 9446   5.717   6.316   4.773 -0.1100  1.1288  0.9441
   95SAPE  H16S 9447   5.817   6.290   4.617  0.0353 -0.5900 -0.9355
   95SAPE  C217 9448   5.814   6.485   4.698  0.1580 -0.4191  0.1517
   95SAPE  H17R 9449   5.809   6.519   4.803 -1.2583  1.0595 -0.3524
   95SAPE  H17S 9450   5.716   6.515   4.655  1.2245  0.5366 -1.7632
   95SAPE  C218 9451   5.942   6.531   4.620 -0.0199 -0.6269 -0.5548
   95SAPE  H18R 9452   5.958   6.470   4.528  0.3854 -1.9673  0.3828
   95SAPE  H18S 9453   6.020   6.523   4.698 -1.1417  4.1717  1.4503
   95SAPE  C219 9454   5.932   6.682   4.595  0.4576 -0.4900  0.8817
   95SAPE  H19R 9455   5.927   6.745   4.686  1.8728  1.0631 -0.0592
   95SAPE  H19S 9456   5.842   6.705   4.533 -0.0772 -1.1769  1.3961
   95SAPE  C220 9457   6.069   6.739   4.540  0.3080  0.0450  0.1091
   95SAPE  H20R 9458   6.067   6.850   4.539  0.6777  0.0528 -0.7131
   95SAPE  H20S 9459   6.101   6.693   4.444 -0.0040 -1.1192  0.5378
   95SAPE  H20T 9460   6.148   6.705   4.610  0.6020  1.6273  0.5737
   95SAPE   C33 9461   6.409   6.418   6.027 -0.1801 -0.0703  0.8406
   95SAPE   H3X 9462   6.484   6.339   6.002 -0.3640  0.2142 -0.7126
   95SAPE   H3Y 9463   6.451   6.489   6.101  1.1400 -0.9626  0.9938
   95SAPE   C34 9464   6.381   6.493   5.902  0.6462 -0.1922 -0.5556
   95SAPE   H4X 9465   6.478   6.543   5.881  1.4215 -2.8678 -4.3404
   95SAPE   H4Y 9466   6.313   6.578   5.927  1.6740  0.0131  1.8689
   95SAPE   C35 9467   6.338   6.412   5.774  0.5432  0.4828  0.0693
   95SAPE   H5X 9468   6.247   6.357   5.809  1.1426  0.3074  1.4184
   95SAPE   H5Y 9469   6.421   6.340   5.761  0.4042  0.0411  1.4567
   95SAPE   C36 9470   6.333   6.492   5.642  0.1828 -0.1432  0.3187
   95SAPE   H6X 9471   6.433   6.538   5.624  1.1378 -2.4344 -0.5176
   95SAPE   H6Y 9472   6.265   6.577   5.664  0.7994  0.1686  1.0910
   95SAPE   C37 9473   6.322   6.408   5.517  0.5984  0.2590  0.1650
   95SAPE   H7X 9474   6.232   6.344   5.527  0.8118 -0.0650  0.0302
   95SAPE   H7Y 9475   6.414   6.349   5.500 -0.1105 -0.4539 -1.4617
   95SAPE   C38 9476   6.324   6.494   5.385  0.2619  0.0591  0.2885
   95SAPE   H8X 9477   6.401   6.573   5.373 -0.1786  0.7173  1.5739
   95SAPE   H8Y 9478   6.231   6.552   5.369 -1.1372 -2.5962 -2.1281
   95SAPE   C39 9479   6.332   6.400   5.266 -0.2554 -0.2649  0.1613
   95SAPE   H9X 9480   6.261   6.315   5.280  1.6649 -2.4816 -2.4319
   95SAPE   H9Y 9481   6.433   6.355   5.277  1.1995  2.6752 -0.1515
   95SAPE  C310 9482   6.305   6.474   5.132 -0.1221 -0.0504  0.1384
   95SAPE  H10X 9483   6.364   6.568   5.130 -2.8298  1.9405  3.0453
   95SAPE  H10Y 9484   6.198   6.497   5.113 -0.6327 -1.6610  0.9476
   95SAPE  C311 9485   6.346   6.385   5.018  0.0145  0.3457  0.4179
   95SAPE  H11X 9486   6.282   6.296   5.001  0.3314  0.5285 -2.0754
   95SAPE  H11Y 9487   6.448   6.344   5.027  0.8122  2.1757  0.2089
   95SAPE  C312 9488   6.337   6.473   4.886  0.4086 -0.8489 -0.3892
   95SAPE  H12X 9489   6.422   6.544   4.898  1.3708 -1.8790 -0.8532
   95SAPE  H12Y 9490   6.243   6.531   4.894 -0.2503 -1.5830 -2.1326
   95SAPE  C313 9491   6.352   6.406   4.752 -0.4774  0.0997  0.4298
   95SAPE  H13X 9492   6.351   6.480   4.669 -0.0187 -0.5546 -0.1773
   95SAPE  H13Y 9493   6.277   6.327   4.734 -0.2725 -0.6064  2.4112
   95SAPE  C314 9494   6.483   6.328   4.745 -0.0720 -0.0256 -0.3408
   95SAPE  H14X 9495   6.491   6.227   4.791  0.8261 -0.5899 -1.6767
   95SAPE  H14Y 9496   6.564   6.395   4.780  0.5306 -0.9581  0.0597
   95SAPE  C315 9497   6.511   6.291   4.598  0.2564  0.1332 -0.2855
   95SAPE  H15X 9498   6.521   6.385   4.540 -0.5594  1.3299  1.4131
   95SAPE  H15Y 9499   6.426   6.231   4.562  0.6151  0.6430 -2.0520
   95SAPE  C316 9500   6.642   6.220   4.577 -0.0215  0.1245 -0.2829
   95SAPE  H16X 9501   6.655   6.129   4.639  2.3409 -0.0972 -0.9627
   95SAPE  H16Y 9502   6.730   6.286   4.592 -0.2556 -0.1051  2.7094
   95SAPE  C317 9503   6.661   6.162   4.431  0.1630 -0.1396 -0.1792
   95SAPE  H17X 9504   6.561   6.120   4.409 -0.1753 -0.0708  1.1521
   95SAPE  H17Y 9505   6.735   6.079   4.440  0.0198 -0.6489 -2.8954
   95SAPE  C318 9506   6.707   6.266   4.326 -0.5566 -0.8197 -0.5553
   95SAPE  H18X 9507   6.643   6.356   4.315  0.3205 -0.0569  0.3828
   95SAPE  H18Y 9508   6.724   6.234   4.221  0.4902  0.6996 -0.8694
   95SAPE  H18Z 9509   6.799   6.309   4.370 -0.5746 -1.1877 -0.1554
   96SAPE     N 9510   1.815   3.924   6.429 -0.6298 -0.0794 -0.1034
   96SAPE   HN1 9511   1.802   3.900   6.529 -0.4595  0.8277  0.1427
   96SAPE   HN2 9512   1.731   3.984   6.410 -1.8501 -1.2409  1.4161
   96SAPE   HN3 9513   1.811   3.848   6.358 -0.5178  0.0386 -0.2383
   96SAPE   C12 9514   1.940   4.007   6.404  0.0666 -0.2749 -0.0127
   96SAPE  H12A 9515   2.026   3.937   6.396  2.2341  2.3915 -1.8272
   96SAPE  H12B 9516   1.943   4.077   6.490 -0.4083 -0.6329  0.3024
   96SAPE   C11 9517   1.938   4.073   6.261  0.9730  0.1580 -1.0382
   96SAPE  H11A 9518   1.960   4.006   6.176  1.9426  0.0500 -0.7101
   96SAPE  H11B 9519   2.026   4.141   6.260 -0.2510  1.8182 -1.6967
   96SAPE     P 9520   1.766   4.180   6.090 -0.0325 -0.2033  0.2429
   96SAPE   O13 9521   1.626   4.223   6.106  0.0557  0.0111 -0.0823
   96SAPE   O14 9522   1.866   4.277   6.048 -0.2658 -0.1689  0.1032
   96SAPE   O12 9523   1.813   4.146   6.240  0.2349  0.2574  0.6457
   96SAPE   O11 9524   1.781   4.043   6.018 -0.1642  0.1324 -0.2558
   96SAPE    C1 9525   1.675   3.962   5.960 -0.1313 -0.2604 -0.1271
   96SAPE    HA 9526   1.622   3.909   6.042  0.5437  0.5921  0.8942
   96SAPE    HB 9527   1.603   4.030   5.908  0.8373  0.1797 -0.9199
   96SAPE    C2 9528   1.732   3.857   5.860  0.1516  0.0081 -0.1556
   96SAPE    HS 9529   1.807   3.790   5.909  0.0058 -2.1326 -2.6405
   96SAPE   O21 9530   1.789   3.930   5.749 -0.0137  0.0771  0.8689
   96SAPE   C21 9531   1.920   3.950   5.764  0.7281  0.7421 -0.5225
   96SAPE   O22 9532   1.999   3.908   5.844 -0.0430 -0.6478  0.0598
   96SAPE   C22 9533   1.962   4.020   5.636  0.4867  0.0263  0.1484
   96SAPE   H2R 9534   1.899   4.111   5.630  1.2368  0.4985 -0.8806
   96SAPE   H2S 9535   2.068   4.049   5.650  1.0864 -0.6570 -2.4503
   96SAPE    C3 9536   1.630   3.753   5.813  0.2232  0.2385  0.0881
   96SAPE    HX 9537   1.593   3.691   5.897 -1.4377  0.0543 -0.7335
   96SAPE    HY 9538   1.687   3.697   5.737 -2.7165 -3.1319  0.0805
   96SAPE   O31 9539   1.516   3.813   5.753 -0.6434  0.8002 -0.4034
   96SAPE   C31 9540   1.401   3.749   5.765  0.1163  0.7343  0.3698
   96SAPE   O32 9541   1.382   3.637   5.804 -0.3821 -0.6232  0.6999
   96SAPE   C32 9542   1.300   3.849   5.713 -0.4133 -0.2786 -1.0191
   96SAPE   H2X 9543   1.334   3.910   5.627  1.4055  0.6535  0.2979
   96SAPE   H2Y 9544   1.284   3.929   5.788  2.3556 -0.5134 -0.1001
   96SAPE   C23 9545   1.933   3.921   5.510 -0.1651  0.0488 -0.0297
   96SAPE   H3R 9546   1.825   3.892   5.512 -0.0869 -0.2237  1.1954
   96SAPE   H3S 9547   2.007   3.840   5.521  1.5700  1.6673  0.7550
   96SAPE   C24 9548   1.961   3.979   5.373 -0.6169  0.4932 -0.8918
   96SAPE   H4R 9549   1.930   3.903   5.299  0.3381 -1.1923  0.3612
   96SAPE   H4S 9550   2.071   3.987   5.360 -0.5223 -1.8646 -1.9803
   96SAPE   C25 9551   1.889   4.111   5.351  0.3762  0.7451  0.1285
   96SAPE   H5R 9552   1.787   4.100   5.390  0.5617 -1.1680  0.1612
   96SAPE   C26 9553   1.936   4.223   5.289 -0.8332 -0.5513  0.1490
   96SAPE   H6R 9554   1.866   4.308   5.287 -1.1214 -0.6603  2.3559
   96SAPE   C27 9555   2.075   4.248   5.234 -0.3675 -0.1374 -0.2749
   96SAPE   H7R 9556   2.084   4.316   5.147 -0.2967 -1.0227 -0.9738
   96SAPE   H7S 9557   2.121   4.153   5.201  1.5198  1.5007 -2.7396
   96SAPE   C28 9558   2.159   4.304   5.342 -0.9294  0.3156  0.0827
   96SAPE   H8R 9559   2.141   4.270   5.445 -1.6450  0.9051  0.1568
   96SAPE   C29 9560   2.259   4.392   5.322 -0.0388 -0.0279  0.4673
   96SAPE   H9R 9561   2.326   4.414   5.406  1.2140  0.0504 -0.5152
   96SAPE  C210 9562   2.298   4.463   5.192  0.9578  0.1054 -0.7420
   96SAPE  H10R 9563   2.317   4.569   5.219  1.5733 -0.1872 -0.0111
   96SAPE  H10S 9564   2.211   4.470   5.123  0.8205 -0.3107 -0.6128
   96SAPE  C211 9565   2.417   4.414   5.115  0.5129 -0.0021 -0.4911
   96SAPE  H11R 9566   2.485   4.362   5.185 -2.7164 -0.0153  2.9236
   96SAPE  C212 9567   2.452   4.432   4.990 -0.6478  1.0409 -0.5198
   96SAPE  H12R 9568   2.551   4.396   4.961 -1.1249 -2.3328  1.5177
   96SAPE  C213 9569   2.374   4.499   4.885 -0.1520 -0.1771 -0.0492
   96SAPE  H13R 9570   2.266   4.512   4.911 -0.4204 -0.0565 -1.1535
   96SAPE  H13S 9571   2.366   4.433   4.796 -1.3869 -1.9110  1.2679
   96SAPE  C214 9572   2.423   4.634   4.854  0.0636  1.0378 -0.2870
   96SAPE  H14R 9573   2.424   4.697   4.945 -1.3712  2.1521 -0.9948
   96SAPE  C215 9574   2.447   4.687   4.735  0.2715  0.4087  0.2198
   96SAPE  H15R 9575   2.476   4.793   4.726 -0.0176  0.3505 -2.0852
   96SAPE  C216 9576   2.432   4.626   4.600 -0.0199  0.4979  0.6285
   96SAPE  H16R 9577   2.384   4.697   4.530 -2.1361 -2.3032 -0.9498
   96SAPE  H16S 9578   2.354   4.547   4.598 -0.8482  1.2529 -2.0233
   96SAPE  C217 9579   2.561   4.577   4.531  0.2481  0.4147 -0.5135
   96SAPE  H17R 9580   2.523   4.533   4.437 -0.3585 -1.5140  0.6000
   96SAPE  H17S 9581   2.601   4.498   4.598  0.3525 -0.5593 -1.6874
   96SAPE  C218 9582   2.658   4.699   4.516  0.2065  0.4674  0.1497
   96SAPE  H18R 9583   2.762   4.668   4.491 -0.5844 -0.3232 -2.6233
   96SAPE  H18S 9584   2.693   4.741   4.612  3.0290  1.3139 -1.1385
   96SAPE  C219 9585   2.621   4.820   4.430 -0.6922  0.6544 -0.5373
   96SAPE  H19R 9586   2.538   4.874   4.480  0.3386  1.1887  0.6705
   96SAPE  H19S 9587   2.581   4.776   4.337  0.8585 -2.5352  0.1600
   96SAPE  C220 9588   2.752   4.901   4.412  0.0484 -0.0584 -0.5435
   96SAPE  H20R 9589   2.832   4.836   4.371  0.6341  0.1446  0.2624
   96SAPE  H20S 9590   2.781   4.947   4.509 -1.4333  1.1508 -0.6370
   96SAPE  H20T 9591   2.741   4.989   4.344 -2.4348  0.3989  0.3644
   96SAPE   C33 9592   1.158   3.792   5.682  0.4086  0.5321 -0.8427
   96SAPE   H3X 9593   1.090   3.879   5.666  2.0131  2.3562  1.4273
   96SAPE   H3Y 9594   1.116   3.747   5.775  0.0515  0.3057 -1.1150
   96SAPE   C34 9595   1.141   3.700   5.564  0.2581  0.2572  0.3448
   96SAPE   H4X 9596   1.236   3.650   5.537 -1.3381 -2.2647 -0.9559
   96SAPE   H4Y 9597   1.115   3.756   5.472  1.8258 -1.0966 -0.9880
   96SAPE   C35 9598   1.037   3.595   5.580  0.5557  0.1303  0.1444
   96SAPE   H5X 9599   0.943   3.642   5.618  2.0442  2.6761  0.9400
   96SAPE   H5Y 9600   1.061   3.535   5.671  0.1549  0.1435  0.2629
   96SAPE   C36 9601   0.999   3.510   5.459 -0.2898  0.2157  0.2180
   96SAPE   H6X 9602   0.908   3.448   5.473 -0.6454 -0.4004 -3.6071
   96SAPE   H6Y 9603   1.080   3.436   5.437  0.3526  1.3171 -1.2526
   96SAPE   C37 9604   0.994   3.590   5.328  0.3050 -0.4149  1.1718
   96SAPE   H7X 9605   1.086   3.644   5.298  0.2172 -1.0108 -0.2251
   96SAPE   H7Y 9606   0.920   3.670   5.347  1.5431  0.7042  1.4296
   96SAPE   C38 9607   0.940   3.494   5.219 -1.1511 -0.7712 -0.1743
   96SAPE   H8X 9608   0.834   3.485   5.253 -0.2411 -2.5548  2.4220
   96SAPE   H8Y 9609   1.001   3.403   5.232  0.1798  0.2522  1.0532
   96SAPE   C39 9610   0.948   3.555   5.079 -0.2735 -0.1997 -0.4086
   96SAPE   H9X 9611   0.888   3.649   5.077  1.1994  0.8353  0.8238
   96SAPE   H9Y 9612   0.921   3.483   4.999 -2.7197 -1.1051  1.1261
   96SAPE  C310 9613   1.096   3.592   5.039  0.1153  0.3001 -0.5033
   96SAPE  H10X 9614   1.169   3.511   5.060  0.7921  1.2518  1.0646
   96SAPE  H10Y 9615   1.130   3.687   5.086  1.4525 -0.2516 -0.3202
   96SAPE  C311 9616   1.108   3.620   4.888  0.1933  0.5603 -0.1832
   96SAPE  H11X 9617   1.026   3.685   4.849 -1.0919 -0.8570  0.0302
   96SAPE  H11Y 9618   1.095   3.519   4.842  1.9272  0.4353 -0.4383
   96SAPE  C312 9619   1.244   3.670   4.841  0.3352 -0.0542  0.2384
   96SAPE  H12X 9620   1.302   3.728   4.916 -1.1790  0.2198  1.2534
   96SAPE  H12Y 9621   1.231   3.727   4.747  3.0224 -1.6862 -1.2297
   96SAPE  C313 9622   1.328   3.544   4.806  0.0706  0.0891  0.5039
   96SAPE  H13X 9623   1.285   3.495   4.716 -0.6473 -0.7262  1.2668
   96SAPE  H13Y 9624   1.338   3.473   4.891 -0.0988 -0.5389  0.0042
   96SAPE  C314 9625   1.474   3.587   4.773  0.8559  0.6556  0.1834
   96SAPE  H14X 9626   1.530   3.622   4.862  0.1036  1.4305  0.3674
   96SAPE  H14Y 9627   1.458   3.676   4.708  0.6057  1.1156  0.8598
   96SAPE  C315 9628   1.551   3.472   4.715  0.3435 -0.6642 -0.0295
   96SAPE  H15X 9629   1.490   3.420   4.637 -1.0373 -0.2844  0.7621
   96SAPE  H15Y 9630   1.558   3.396   4.796 -0.3556  0.2245  0.8822
   96SAPE  C316 9631   1.698   3.497   4.677 -0.9851 -0.2773  0.3630
   96SAPE  H16X 9632   1.705   3.579   4.602 -2.1274 -0.8976 -0.4564
   96SAPE  H16Y 9633   1.738   3.406   4.626 -1.2005 -0.4365  0.4777
   96SAPE  C317 9634   1.791   3.533   4.789 -0.3535  0.3594  0.3205
   96SAPE  H17X 9635   1.800   3.443   4.853  0.9741 -0.2550 -0.6625
   96SAPE  H17Y 9636   1.749   3.623   4.838 -1.0901  1.6957 -2.5283
   96SAPE  C318 9637   1.937   3.567   4.760  0.1876 -0.2170  0.4382
   96SAPE  H18X 9638   1.985   3.612   4.850 -1.1263 -1.5800  1.8815
   96SAPE  H18Y 9639   1.948   3.654   4.692  0.5400 -0.6085 -0.0063
   96SAPE  H18Z 9640   1.994   3.483   4.715  0.2513  0.1562 -0.1836
   97SAPE     N 9641   2.110   3.597   6.227 -0.1869 -0.2440 -0.3282
   97SAPE   HN1 9642   2.029   3.544   6.189 -0.8840  0.6798 -0.1874
   97SAPE   HN2 9643   2.097   3.694   6.192 -0.5664  1.2865  3.5697
   97SAPE   HN3 9644   2.200   3.559   6.190 -0.2417 -0.6010 -0.0995
   97SAPE   C12 9645   2.115   3.610   6.378 -0.1148 -0.0942 -0.2991
   97SAPE  H12A 9646   2.095   3.510   6.420 -1.4747 -0.0460 -0.7932
   97SAPE  H12B 9647   2.038   3.680   6.417 -0.1863  0.3179 -1.1562
   97SAPE   C11 9648   2.259   3.657   6.405 -0.5932  1.1707 -0.1310
   97SAPE  H11A 9649   2.325   3.570   6.385 -0.7490  0.8410  0.7429
   97SAPE  H11B 9650   2.262   3.669   6.516  0.1205 -0.9523  0.1237
   97SAPE     P 9651   2.421   3.858   6.401  0.1480 -0.2000 -0.3069
   97SAPE   O13 9652   2.405   3.996   6.348 -0.4096 -0.2459 -0.0344
   97SAPE   O14 9653   2.422   3.853   6.547  0.4845  0.0318 -0.0311
   97SAPE   O12 9654   2.300   3.777   6.337 -0.5838  0.2185 -0.1821
   97SAPE   O11 9655   2.556   3.787   6.351  1.1960 -0.3531  0.2659
   97SAPE    C1 9656   2.603   3.813   6.215  0.2562 -0.0408 -0.3802
   97SAPE    HA 9657   2.530   3.875   6.158 -2.8921 -2.2053  1.0105
   97SAPE    HB 9658   2.708   3.850   6.211  0.3083 -0.1758 -0.2730
   97SAPE    C2 9659   2.618   3.681   6.132  1.2008  0.5152 -0.1270
   97SAPE    HS 9660   2.528   3.625   6.164  2.3145 -0.8902  0.6708
   97SAPE   O21 9661   2.735   3.615   6.183 -0.1888 -0.2618  0.2326
   97SAPE   C21 9662   2.769   3.495   6.142 -0.5438  0.0056  0.2728
   97SAPE   O22 9663   2.705   3.424   6.066  0.4995 -0.3100 -0.6343
   97SAPE   C22 9664   2.913   3.460   6.196 -0.4382 -0.4046  0.1738
   97SAPE   H2R 9665   2.978   3.551   6.201  1.8324 -2.0108  3.1064
   97SAPE   H2S 9666   2.899   3.426   6.300  0.8612  1.4750  1.0179
   97SAPE    C3 9667   2.621   3.715   5.978 -0.2488 -0.0578  1.0603
   97SAPE    HX 9668   2.678   3.637   5.924 -2.1753 -1.5875  1.1291
   97SAPE    HY 9669   2.684   3.807   5.970 -2.1644  1.2637  0.5296
   97SAPE   O31 9670   2.486   3.735   5.923  0.4148 -0.7799 -0.6891
   97SAPE   C31 9671   2.449   3.862   5.903  0.2674  0.9800 -0.3570
   97SAPE   O32 9672   2.523   3.955   5.921 -0.1297  0.4901 -0.3487
   97SAPE   C32 9673   2.311   3.857   5.838  0.0511  0.6666 -0.5873
   97SAPE   H2X 9674   2.266   3.958   5.848  0.5158  1.1805 -2.9875
   97SAPE   H2Y 9675   2.259   3.778   5.897  1.9783  0.4712  0.9695
   97SAPE   C23 9676   2.990   3.353   6.104  0.1385 -0.9033 -0.0130
   97SAPE   H3R 9677   2.927   3.262   6.091 -1.9200  0.4249  0.1597
   97SAPE   H3S 9678   3.077   3.331   6.169  0.5159 -1.2527 -0.6317
   97SAPE   C24 9679   3.044   3.412   5.971 -0.3185 -0.6871 -0.0596
   97SAPE   H4R 9680   3.093   3.508   5.998  1.1964 -1.4956  0.1687
   97SAPE   H4S 9681   2.970   3.423   5.888 -1.1586 -3.4565  0.2284
   97SAPE   C25 9682   3.149   3.331   5.910  0.0355  0.1047 -0.0851
   97SAPE   H5R 9683   3.204   3.276   5.988  1.2057  2.8659  1.1953
   97SAPE   C26 9684   3.178   3.318   5.779  0.1947  0.2629  0.9805
   97SAPE   H6R 9685   3.258   3.248   5.750  0.5052  1.2222 -0.6085
   97SAPE   C27 9686   3.104   3.381   5.659  0.1084 -0.0667  0.1692
   97SAPE   H7R 9687   3.138   3.487   5.664 -0.0533 -0.0524  1.6813
   97SAPE   H7S 9688   2.994   3.372   5.672 -0.1336  2.1362 -0.0099
   97SAPE   C28 9689   3.124   3.326   5.524  0.4440 -0.4961 -0.3403
   97SAPE   H8R 9690   3.092   3.221   5.510 -1.5052 -0.0467  0.4450
   97SAPE   C29 9691   3.154   3.386   5.410  0.4047 -0.3737  0.7123
   97SAPE   H9R 9692   3.144   3.327   5.318  0.8353 -0.7155  0.8795
   97SAPE  C210 9693   3.197   3.531   5.394  0.5630  0.3898  0.3442
   97SAPE  H10R 9694   3.220   3.573   5.494 -2.5467  1.7953  0.5929
   97SAPE  H10S 9695   3.109   3.585   5.352  0.4762  1.2896  1.6588
   97SAPE  C211 9696   3.300   3.534   5.288 -0.2874  0.0235  0.3078
   97SAPE  H11R 9697   3.269   3.531   5.182  1.3020 -1.4272 -0.1653
   97SAPE  C212 9698   3.433   3.555   5.304 -0.3184 -0.2101 -0.5953
   97SAPE  H12R 9699   3.494   3.537   5.214  0.0050  0.5245 -0.5283
   97SAPE  C213 9700   3.507   3.563   5.435  0.8231 -0.4527 -0.5554
   97SAPE  H13R 9701   3.616   3.549   5.426  1.0519  0.9913 -0.3178
   97SAPE  H13S 9702   3.474   3.480   5.502 -0.2554  0.2239 -0.2128
   97SAPE  C214 9703   3.498   3.706   5.492  0.1798 -0.5896  0.7947
   97SAPE  H14R 9704   3.484   3.787   5.419  0.0022 -1.4367 -0.1387
   97SAPE  C215 9705   3.527   3.736   5.620 -0.4897  0.0788  0.6780
   97SAPE  H15R 9706   3.502   3.838   5.654  0.9626  0.9449 -0.7070
   97SAPE  C216 9707   3.541   3.640   5.734 -0.3079 -0.0330 -0.3971
   97SAPE  H16R 9708   3.642   3.655   5.776  0.4128 -1.8046 -1.3663
   97SAPE  H16S 9709   3.533   3.534   5.701 -1.7016  0.0487 -0.4043
   97SAPE  C217 9710   3.431   3.664   5.833 -0.0238  0.2056 -0.3567
   97SAPE  H17R 9711   3.328   3.634   5.807  0.3388 -0.9176 -0.5648
   97SAPE  H17S 9712   3.417   3.772   5.852 -0.5500  0.1161 -0.2077
   97SAPE  C218 9713   3.456   3.606   5.973 -0.0260  0.7704  0.4450
   97SAPE  H18R 9714   3.365   3.628   6.033 -0.4305  3.0282 -0.8986
   97SAPE  H18S 9715   3.542   3.653   6.026  1.1521 -0.7557 -0.0708
   97SAPE  C219 9716   3.463   3.449   5.979 -0.5766 -0.7200 -0.4554
   97SAPE  H19R 9717   3.555   3.416   5.926 -0.1076 -0.0740 -0.0703
   97SAPE  H19S 9718   3.381   3.407   5.917 -1.6002  0.3761  0.1053
   97SAPE  C220 9719   3.456   3.389   6.121  0.4306 -0.8933  0.5076
   97SAPE  H20R 9720   3.453   3.278   6.118 -1.7167 -0.9274 -4.4230
   97SAPE  H20S 9721   3.365   3.435   6.167  0.7334 -0.3163  0.5378
   97SAPE  H20T 9722   3.540   3.419   6.187  1.9929 -1.0854 -1.3100
   97SAPE   C33 9723   2.314   3.821   5.691 -0.6318 -0.2675  0.7401
   97SAPE   H3X 9724   2.214   3.795   5.651 -0.6056 -2.4578  1.9580
   97SAPE   H3Y 9725   2.381   3.733   5.689  0.5257  0.5962 -0.2318
   97SAPE   C34 9726   2.374   3.923   5.602 -0.2680 -0.0673  0.2122
   97SAPE   H4X 9727   2.324   4.022   5.618  0.8372  0.1938  2.3169
   97SAPE   H4Y 9728   2.353   3.894   5.497  1.8265 -1.0637  0.0385
   97SAPE   C35 9729   2.529   3.951   5.607  0.3577 -0.0822 -0.3897
   97SAPE   H5X 9730   2.578   3.851   5.606 -0.9576 -0.8132  1.9840
   97SAPE   H5Y 9731   2.558   4.003   5.701 -0.5912 -0.8164  0.3350
   97SAPE   C36 9732   2.594   4.029   5.484 -0.1966  0.5671 -0.2045
   97SAPE   H6X 9733   2.698   4.058   5.507  0.1349 -1.2508  0.7855
   97SAPE   H6Y 9734   2.537   4.123   5.471  0.5651  1.0642  0.0550
   97SAPE   C37 9735   2.585   3.959   5.349 -0.5607 -0.2588 -0.0449
   97SAPE   H7X 9736   2.481   3.941   5.313 -0.1142 -2.7669 -0.2152
   97SAPE   H7Y 9737   2.629   3.857   5.352  1.9622  0.6683 -1.8251
   97SAPE   C38 9738   2.669   4.037   5.242 -1.0039 -0.1971  0.5247
   97SAPE   H8X 9739   2.775   4.032   5.273 -0.5761 -0.7853 -0.9729
   97SAPE   H8Y 9740   2.646   4.146   5.239  1.2866  0.3408 -2.9891
   97SAPE   C39 9741   2.655   3.978   5.108 -0.5995 -0.0790  0.1311
   97SAPE   H9X 9742   2.548   3.973   5.078 -0.3739 -0.4734 -0.6459
   97SAPE   H9Y 9743   2.699   3.876   5.105  0.4350  0.3902 -1.3414
   97SAPE  C310 9744   2.728   4.062   5.000  0.6095 -0.3226 -0.7450
   97SAPE  H10X 9745   2.838   4.061   5.014  0.4793  2.1118  1.2277
   97SAPE  H10Y 9746   2.684   4.164   5.000 -0.0974 -0.5462 -3.5564
   97SAPE  C311 9747   2.708   4.000   4.861  0.1646 -0.2889  0.3675
   97SAPE  H11X 9748   2.599   3.982   4.844  0.0718  0.0485  0.5895
   97SAPE  H11Y 9749   2.763   3.904   4.859  0.1526 -0.2859 -1.0255
   97SAPE  C312 9750   2.766   4.070   4.740 -0.6903 -0.0672 -0.2964
   97SAPE  H12X 9751   2.874   4.094   4.754 -0.6665  0.2015 -0.9007
   97SAPE  H12Y 9752   2.738   4.178   4.734  1.4272  0.5168 -0.6936
   97SAPE  C313 9753   2.750   3.987   4.611 -0.0393  0.2912 -0.0298
   97SAPE  H13X 9754   2.782   3.883   4.633  0.9269  0.7350  0.7652
   97SAPE  H13Y 9755   2.813   4.029   4.529 -1.5119  0.7483 -0.9705
   97SAPE  C314 9756   2.612   3.978   4.555  0.5489 -0.7028 -0.0592
   97SAPE  H14X 9757   2.535   3.960   4.634  0.4643  0.9163  0.2628
   97SAPE  H14Y 9758   2.600   3.909   4.469 -1.9447  0.1795 -0.5237
   97SAPE  C315 9759   2.581   4.114   4.484 -0.0974  0.0153 -0.0130
   97SAPE  H15X 9760   2.670   4.142   4.424  1.8039 -0.2014  2.5325
   97SAPE  H15Y 9761   2.566   4.197   4.555 -0.3072 -0.1820  0.1755
   97SAPE  C316 9762   2.450   4.098   4.407  0.1341 -0.0487  0.6747
   97SAPE  H16X 9763   2.375   4.030   4.453 -2.2840  1.7133 -0.4634
   97SAPE  H16Y 9764   2.481   4.061   4.307  0.4601  2.9893 -0.4574
   97SAPE  C317 9765   2.385   4.226   4.363  0.8550 -0.5194  0.5573
   97SAPE  H17X 9766   2.356   4.221   4.256 -1.3583 -1.0923  1.1348
   97SAPE  H17Y 9767   2.457   4.308   4.383  3.2866 -1.3813 -3.3534
   97SAPE  C318 9768   2.255   4.253   4.440 -0.2383 -0.5114 -0.7684
   97SAPE  H18X 9769   2.175   4.190   4.396 -1.6009  0.6613 -0.0820
   97SAPE  H18Y 9770   2.212   4.356   4.431 -0.8728 -0.7529 -0.5925
   97SAPE  H18Z 9771   2.261   4.227   4.548  1.8527  2.1726 -0.1371
   98SAPE     N 9772   2.168   6.535   6.573 -0.2323  0.3975 -0.4982
   98SAPE   HN1 9773   2.148   6.443   6.617 -0.4239  0.0127 -1.3585
   98SAPE   HN2 9774   2.144   6.610   6.640 -1.5216 -1.0408  0.7409
   98SAPE   HN3 9775   2.094   6.547   6.500 -0.9021 -0.5954 -0.0057
   98SAPE   C12 9776   2.312   6.532   6.524 -0.6316 -0.1215  0.3827
   98SAPE  H12A 9777   2.371   6.550   6.616  0.4990  0.0722 -0.3491
   98SAPE  H12B 9778   2.317   6.611   6.446 -2.2228  0.2794  0.6652
   98SAPE   C11 9779   2.344   6.400   6.451  0.1546  0.2074 -0.3596
   98SAPE  H11A 9780   2.370   6.318   6.521 -0.8318  1.8155  2.0211
   98SAPE  H11B 9781   2.432   6.419   6.385  0.9782  0.9958  0.9268
   98SAPE     P 9782   2.237   6.241   6.271  0.1163 -0.0031 -0.5019
   98SAPE   O13 9783   2.228   6.120   6.360 -0.0366  1.1331  0.0358
   98SAPE   O14 9784   2.126   6.252   6.173  0.3791 -0.1058  0.1555
   98SAPE   O12 9785   2.234   6.370   6.365 -0.1870  0.0338 -0.4479
   98SAPE   O11 9786   2.378   6.248   6.202  0.5720  0.3149 -0.1544
   98SAPE    C1 9787   2.448   6.149   6.134  0.1278 -0.7605 -0.6416
   98SAPE    HA 9788   2.557   6.159   6.156 -0.2296  1.7604  0.3035
   98SAPE    HB 9789   2.417   6.047   6.165  0.3298  0.0267  2.4345
   98SAPE    C2 9790   2.435   6.156   5.979  0.1104 -0.6272 -0.0258
   98SAPE    HS 9791   2.477   6.064   5.933 -0.2217 -0.2926 -1.0269
   98SAPE   O21 9792   2.496   6.268   5.916  0.1557  0.2728  0.9129
   98SAPE   C21 9793   2.627   6.293   5.921  0.1899 -1.8444 -0.3068
   98SAPE   O22 9794   2.710   6.222   5.967  0.6601  0.0505 -0.0184
   98SAPE   C22 9795   2.649   6.436   5.861  0.2789 -0.3160 -0.7239
   98SAPE   H2R 9796   2.557   6.483   5.820 -0.3722 -0.4100  0.5566
   98SAPE   H2S 9797   2.686   6.504   5.941 -0.7311 -0.0099 -0.5091
   98SAPE    C3 9798   2.288   6.145   5.932 -0.2994 -0.4950 -0.1140
   98SAPE    HX 9799   2.229   6.238   5.950 -3.1902 -2.2726  0.2484
   98SAPE    HY 9800   2.250   6.064   5.997 -0.3496 -0.1289  0.3162
   98SAPE   O31 9801   2.276   6.111   5.786 -0.8150  0.5304 -0.2776
   98SAPE   C31 9802   2.155   6.063   5.758  0.1520 -0.5683  0.2021
   98SAPE   O32 9803   2.071   6.043   5.840  0.9030  0.5479  0.2304
   98SAPE   C32 9804   2.132   6.053   5.608 -0.3116  0.0808  0.2687
   98SAPE   H2X 9805   2.089   6.148   5.569  1.0348  0.0830 -1.3170
   98SAPE   H2Y 9806   2.078   5.959   5.583  2.2971 -1.8243  1.3906
   98SAPE   C23 9807   2.762   6.437   5.748 -0.0771 -0.6583 -0.3448
   98SAPE   H3R 9808   2.851   6.467   5.808 -1.7145 -0.9826  2.3944
   98SAPE   H3S 9809   2.733   6.519   5.678  0.2497 -0.1529  0.1106
   98SAPE   C24 9810   2.791   6.310   5.668  0.5643  0.1344 -0.6905
   98SAPE   H4R 9811   2.785   6.217   5.729 -1.7972 -0.0634 -1.1391
   98SAPE   H4S 9812   2.896   6.309   5.631  1.0161  0.8465  0.5104
   98SAPE   C25 9813   2.693   6.293   5.551 -0.1675 -0.2599  0.0492
   98SAPE   H5R 9814   2.595   6.269   5.595 -1.1076  2.2672 -0.4754
   98SAPE   C26 9815   2.702   6.294   5.416  1.3205 -0.0523  0.0568
   98SAPE   H6R 9816   2.612   6.268   5.359  1.0470  0.0686  0.4364
   98SAPE   C27 9817   2.831   6.310   5.340  0.7170 -0.4962 -0.3197
   98SAPE   H7R 9818   2.887   6.219   5.369  1.2086  0.6688  2.7032
   98SAPE   H7S 9819   2.884   6.399   5.381 -1.7957  1.1263 -0.3907
   98SAPE   C28 9820   2.799   6.315   5.193  0.1561 -0.0820  0.4949
   98SAPE   H8R 9821   2.787   6.214   5.150  1.9390  0.1250 -0.5910
   98SAPE   C29 9822   2.802   6.430   5.124  0.6779 -0.3429  0.0551
   98SAPE   H9R 9823   2.767   6.415   5.020  0.3459  1.2879 -0.0991
   98SAPE  C210 9824   2.808   6.574   5.173  0.1790 -0.5881 -0.0070
   98SAPE  H10R 9825   2.823   6.569   5.283  1.5026 -3.7505 -0.2044
   98SAPE  H10S 9826   2.709   6.623   5.167  1.2443  1.5600 -1.5401
   98SAPE  C211 9827   2.914   6.669   5.113  0.6324  0.3951 -0.2564
   98SAPE  H11R 9828   2.956   6.736   5.190 -0.8070  0.0640  0.8689
   98SAPE  C212 9829   2.961   6.674   4.985  0.8661 -0.1891 -0.3619
   98SAPE  H12R 9830   3.033   6.752   4.960 -1.9113  2.2353 -1.3758
   98SAPE  C213 9831   2.921   6.593   4.862 -0.0156 -0.1857  0.5417
   98SAPE  H13R 9832   2.954   6.490   4.890  0.2452  0.0517  1.1305
   98SAPE  H13S 9833   2.982   6.606   4.771  0.8421  1.1350  1.2709
   98SAPE  C214 9834   2.772   6.589   4.840  0.1621 -0.4358 -0.5393
   98SAPE  H14R 9835   2.711   6.666   4.888  1.7097  2.5530 -2.9798
   98SAPE  C215 9836   2.700   6.514   4.750 -0.4148  0.3030  0.3616
   98SAPE  H15R 9837   2.591   6.527   4.747 -0.5778 -0.8260 -3.2870
   98SAPE  C216 9838   2.759   6.416   4.651 -0.1302 -0.4691  0.2093
   98SAPE  H16R 9839   2.696   6.325   4.643  0.1297 -0.6678  0.4113
   98SAPE  H16S 9840   2.864   6.396   4.680 -0.3082  0.7622  1.8928
   98SAPE  C217 9841   2.759   6.487   4.516 -0.0225  0.7617  0.1948
   98SAPE  H17R 9842   2.838   6.565   4.513  1.9577 -1.1501 -2.1344
   98SAPE  H17S 9843   2.661   6.527   4.484 -0.8045 -1.1330  0.0998
   98SAPE  C218 9844   2.799   6.387   4.405  0.4936 -0.5130  0.0531
   98SAPE  H18R 9845   2.718   6.312   4.393  1.5357 -1.5607 -0.7224
   98SAPE  H18S 9846   2.896   6.334   4.419  1.0454  0.1623 -1.0853
   98SAPE  C219 9847   2.803   6.467   4.274  0.0703 -0.0958 -0.2706
   98SAPE  H19R 9848   2.721   6.543   4.273 -0.7310 -0.9027 -2.8067
   98SAPE  H19S 9849   2.783   6.400   4.188  2.6663 -0.7230 -0.4680
   98SAPE  C220 9850   2.927   6.545   4.261  0.0209 -0.8845 -0.1548
   98SAPE  H20R 9851   3.023   6.490   4.274  1.1430  1.0460  0.0696
   98SAPE  H20S 9852   2.940   6.624   4.337  1.7660  1.1685 -2.4404
   98SAPE  H20T 9853   2.920   6.602   4.166 -0.3267  0.8865  0.8931
   98SAPE   C33 9854   2.267   6.042   5.529  0.7069  0.5598 -0.1901
   98SAPE   H3X 9855   2.317   5.945   5.550  1.0531  0.7320 -0.2123
   98SAPE   H3Y 9856   2.346   6.117   5.555 -1.4071  2.9486 -0.2609
   98SAPE   C34 9857   2.237   6.043   5.381 -0.3428 -0.2841  0.1463
   98SAPE   H4X 9858   2.178   6.134   5.356  1.7719  0.8183 -1.1219
   98SAPE   H4Y 9859   2.170   5.956   5.363 -1.4764  0.5792  0.0780
   98SAPE   C35 9860   2.359   6.035   5.314 -0.6940  0.7064  0.1906
   98SAPE   H5X 9861   2.428   5.952   5.340  0.6980  2.2037  1.4832
   98SAPE   H5Y 9862   2.410   6.134   5.323 -2.2441  1.6930 -1.2354
   98SAPE   C36 9863   2.343   6.033   5.160  0.2656  0.6113  0.2986
   98SAPE   H6X 9864   2.292   6.127   5.127  0.4711  1.3114  1.8870
   98SAPE   H6Y 9865   2.280   5.947   5.130  0.1826  1.2061 -1.3600
   98SAPE   C37 9866   2.478   6.039   5.091  0.2376 -0.0123 -0.2029
   98SAPE   H7X 9867   2.553   5.970   5.135  0.3422 -0.3122 -0.8371
   98SAPE   H7Y 9868   2.507   6.144   5.112  0.4467 -0.6357  3.1435
   98SAPE   C38 9869   2.467   6.017   4.940  0.1863  0.9234  0.2500
   98SAPE   H8X 9870   2.391   6.079   4.889 -0.2103  1.1434  1.0794
   98SAPE   H8Y 9871   2.430   5.912   4.937  2.6006 -0.1062  2.3983
   98SAPE   C39 9872   2.603   6.033   4.870 -0.2186  0.3639 -0.0381
   98SAPE   H9X 9873   2.682   6.013   4.946 -0.3841 -0.8444 -0.1642
   98SAPE   H9Y 9874   2.612   6.138   4.834  2.1111  0.3876  0.4791
   98SAPE  C310 9875   2.608   5.937   4.744  0.1982 -0.2639  0.2373
   98SAPE  H10X 9876   2.506   5.935   4.701 -0.2134 -1.4232  1.2278
   98SAPE  H10Y 9877   2.631   5.832   4.772  2.2434 -0.2543 -1.1505
   98SAPE  C311 9878   2.701   5.985   4.630  0.4302 -0.4237  0.5020
   98SAPE  H11X 9879   2.800   6.011   4.675  0.2082 -2.4993  2.3982
   98SAPE  H11Y 9880   2.668   6.077   4.578 -0.6266 -1.5312 -0.8832
   98SAPE  C312 9881   2.714   5.878   4.524  0.0677 -0.1541 -0.5612
   98SAPE  H12X 9882   2.610   5.846   4.497 -0.6957  2.0381 -0.4509
   98SAPE  H12Y 9883   2.765   5.792   4.571 -1.9587 -0.5285  1.1521
   98SAPE  C313 9884   2.814   5.914   4.415 -0.0067 -0.5922 -0.2988
   98SAPE  H13X 9885   2.909   5.943   4.466  1.4039  0.9198 -3.4840
   98SAPE  H13Y 9886   2.779   6.001   4.355 -1.2220  0.1976  1.4805
   98SAPE  C314 9887   2.855   5.802   4.312 -0.4520 -0.6100  0.0480
   98SAPE  H14X 9888   2.762   5.757   4.270 -0.8429 -1.0233  1.3058
   98SAPE  H14Y 9889   2.916   5.722   4.359 -2.2970 -0.7400  2.4598
   98SAPE  C315 9890   2.922   5.859   4.191  0.4461 -0.4566  0.2535
   98SAPE  H15X 9891   3.024   5.887   4.225  0.7760  0.6905 -1.5849
   98SAPE  H15Y 9892   2.864   5.950   4.164  1.6065 -0.1163 -1.2219
   98SAPE  C316 9893   2.923   5.786   4.059 -0.3658  0.1672  0.0036
   98SAPE  H16X 9894   2.821   5.756   4.027 -0.6919  1.3740 -0.1443
   98SAPE  H16Y 9895   2.986   5.700   4.088  0.4989  1.2288  1.4082
   98SAPE  C317 9896   2.994   5.845   3.944 -0.5196 -0.6755  0.6094
   98SAPE  H17X 9897   2.997   5.779   3.854  4.4365  0.6690 -0.5446
   98SAPE  H17Y 9898   3.101   5.859   3.972 -0.1403  0.9888 -1.4027
   98SAPE  C318 9899   2.947   5.977   3.886 -0.3470 -0.2027 -0.1986
   98SAPE  H18X 9900   2.839   5.967   3.861 -0.5384 -2.6792  1.2193
   98SAPE  H18Y 9901   2.991   6.009   3.789 -0.0546 -2.6388 -0.9329
   98SAPE  H18Z 9902   2.962   6.048   3.970 -0.1427  0.8265 -1.0861
   99SAPE     N 9903   2.024   5.502   6.271 -0.2941  0.4766  0.0949
   99SAPE   HN1 9904   2.120   5.525   6.240 -0.6150  1.6886 -0.0315
   99SAPE   HN2 9905   1.972   5.591   6.280 -0.9694  0.0384  0.6645
   99SAPE   HN3 9906   2.024   5.455   6.364 -2.4746  1.0226  0.4339
   99SAPE   C12 9907   1.963   5.414   6.160  0.1433 -0.0117  0.2370
   99SAPE  H12A 9908   2.022   5.320   6.154 -1.5903 -1.3157  2.1052
   99SAPE  H12B 9909   1.952   5.473   6.067  0.0754  0.6559  0.6563
   99SAPE   C11 9910   1.817   5.362   6.184 -0.4220  0.1699 -0.0430
   99SAPE  H11A 9911   1.777   5.327   6.086  0.6575 -0.1138 -0.3912
   99SAPE  H11B 9912   1.755   5.452   6.203  0.7518  1.1717 -0.8212
   99SAPE     P 9913   1.679   5.206   6.332 -0.1385 -0.1160 -0.3156
   99SAPE   O13 9914   1.704   5.101   6.437 -0.6299  0.0646  0.6536
   99SAPE   O14 9915   1.597   5.320   6.392 -0.1822  0.2908 -0.4146
   99SAPE   O12 9916   1.822   5.257   6.281  0.1959  0.0118  0.1952
   99SAPE   O11 9917   1.622   5.136   6.206  0.5183  0.4698  0.4639
   99SAPE    C1 9918   1.646   4.996   6.178 -0.1442  0.2584  0.0451
   99SAPE    HA 9919   1.666   4.935   6.269  1.3503  1.5151  0.5951
   99SAPE    HB 9920   1.557   4.957   6.124  0.2701  0.4399 -0.7805
   99SAPE    C2 9921   1.773   4.969   6.098 -0.1687  0.1396 -0.3330
   99SAPE    HS 9922   1.855   5.007   6.163  0.4459 -0.1922 -0.8993
   99SAPE   O21 9923   1.766   5.053   5.981  0.3370  0.1131 -0.5077
   99SAPE   C21 9924   1.881   5.093   5.929 -0.3494 -0.0249 -0.8546
   99SAPE   O22 9925   1.991   5.049   5.972 -0.3330  0.0767 -0.2493
   99SAPE   C22 9926   1.853   5.176   5.800  0.8109 -0.9862 -0.0889
   99SAPE   H2R 9927   1.778   5.113   5.748 -0.3722 -0.3144  0.7424
   99SAPE   H2S 9928   1.825   5.278   5.835  1.0105 -0.8911 -0.2051
   99SAPE    C3 9929   1.799   4.824   6.053 -0.0768 -0.1599  0.2851
   99SAPE    HX 9930   1.816   4.766   6.147  1.5431  2.2263  1.5732
   99SAPE    HY 9931   1.891   4.812   5.992 -0.9464  2.1883 -1.6470
   99SAPE   O31 9932   1.691   4.768   5.978 -0.0067  0.0224 -0.2889
   99SAPE   C31 9933   1.703   4.770   5.845  0.7670  0.0547 -0.3747
   99SAPE   O32 9934   1.797   4.812   5.778 -0.0916 -0.7336 -0.0378
   99SAPE   C32 9935   1.583   4.700   5.784  0.0267 -0.2882 -0.0664
   99SAPE   H2X 9936   1.490   4.755   5.813 -1.0555 -1.7931 -0.5172
   99SAPE   H2Y 9937   1.571   4.600   5.832 -1.2154 -0.2623 -0.2772
   99SAPE   C23 9938   1.972   5.168   5.707 -0.1556 -0.9196  0.6565
   99SAPE   H3R 9939   1.973   5.078   5.641  1.5768  0.1634 -0.8976
   99SAPE   H3S 9940   2.070   5.172   5.760  0.6743 -1.2636 -0.7930
   99SAPE   C24 9941   1.955   5.280   5.609 -0.1678  0.6601 -0.4163
   99SAPE   H4R 9942   2.051   5.302   5.556 -0.1384  0.1408 -0.5903
   99SAPE   H4S 9943   1.924   5.371   5.664 -0.9141 -0.9394  1.9656
   99SAPE   C25 9944   1.850   5.248   5.508 -0.1718  0.2562  0.2132
   99SAPE   H5R 9945   1.746   5.249   5.545  0.2305 -2.0649  1.5490
   99SAPE   C26 9946   1.867   5.218   5.378 -0.2704 -0.3434  0.3130
   99SAPE   H6R 9947   1.782   5.198   5.311  0.3441 -0.8194 -0.3513
   99SAPE   C27 9948   2.010   5.211   5.317  0.1530  0.0414 -0.4989
   99SAPE   H7R 9949   2.070   5.124   5.351  1.7088  1.7065  1.1943
   99SAPE   H7S 9950   2.071   5.299   5.344  0.5680 -0.0072 -1.2515
   99SAPE   C28 9951   2.011   5.226   5.167 -0.4505  0.1413 -0.9760
   99SAPE   H8R 9952   1.971   5.320   5.127 -0.7156  0.4822  0.0771
   99SAPE   C29 9953   2.058   5.137   5.074  0.5277 -0.1833 -1.0207
   99SAPE   H9R 9954   2.067   5.165   4.968  4.2689  2.6733 -0.1801
   99SAPE  C210 9955   2.112   5.000   5.106 -0.4006  0.4312  0.0973
   99SAPE  H10R 9956   2.060   4.927   5.040  2.3453 -1.4257 -0.1468
   99SAPE  H10S 9957   2.074   4.967   5.205 -2.7624 -0.4532 -1.0208
   99SAPE  C211 9958   2.261   4.989   5.116 -0.0838  0.1999  0.4706
   99SAPE  H11R 9959   2.307   4.988   5.216 -0.6192  1.1692  0.7470
   99SAPE  C212 9960   2.340   5.011   5.013  0.1317 -0.2251 -0.8614
   99SAPE  H12R 9961   2.448   5.001   5.029  0.2823  2.1458  0.0302
   99SAPE  C213 9962   2.305   5.041   4.869 -0.1808  0.3116  0.6502
   99SAPE  H13R 9963   2.205   5.089   4.860  0.2229  1.5288  2.2250
   99SAPE  H13S 9964   2.304   4.943   4.817 -2.0469  0.9568 -0.6264
   99SAPE  C214 9965   2.403   5.134   4.798  0.2539 -0.3486  0.1646
   99SAPE  H14R 9966   2.471   5.189   4.865 -1.2422  0.5616  0.9821
   99SAPE  C215 9967   2.405   5.148   4.663 -0.6421  0.2701 -0.4414
   99SAPE  H15R 9968   2.463   5.233   4.623 -1.8508  0.9828 -0.7457
   99SAPE  C216 9969   2.319   5.071   4.566 -0.6906 -0.4329  0.7278
   99SAPE  H16R 9970   2.208   5.082   4.560 -0.6044 -0.2563 -0.9614
   99SAPE  H16S 9971   2.331   4.966   4.600  1.6177 -0.3510  0.3151
   99SAPE  C217 9972   2.371   5.085   4.420  0.9809 -0.4582  0.1801
   99SAPE  H17R 9973   2.478   5.054   4.414  0.7024 -1.9708  1.9717
   99SAPE  H17S 9974   2.361   5.186   4.376 -0.7701  0.8405  3.2506
   99SAPE  C218 9975   2.294   4.993   4.318 -0.7014 -0.0819 -0.5569
   99SAPE  H18R 9976   2.184   4.991   4.337 -0.9424 -1.7464 -1.8682
   99SAPE  H18S 9977   2.327   4.887   4.322 -0.9097 -0.1161  2.5547
   99SAPE  C219 9978   2.304   5.044   4.176 -0.4433  1.2804  0.1024
   99SAPE  H19R 9979   2.257   5.145   4.177 -1.5460  0.7813  0.8119
   99SAPE  H19S 9980   2.230   4.995   4.110 -0.0689  1.8612 -0.7640
   99SAPE  C220 9981   2.434   5.044   4.105 -0.2149 -0.0152 -0.0131
   99SAPE  H20R 9982   2.425   5.079   4.000 -1.7129 -0.2756  0.0049
   99SAPE  H20S 9983   2.476   4.942   4.106 -1.1378 -0.4009  0.1394
   99SAPE  H20T 9984   2.499   5.122   4.152  0.4322 -0.5052 -0.0817
   99SAPE   C33 9985   1.593   4.681   5.631  0.8453 -0.3109  0.2435
   99SAPE   H3X 9986   1.507   4.618   5.597  0.8460  0.4113 -1.1810
   99SAPE   H3Y 9987   1.689   4.636   5.599  1.0157  0.8162 -0.8880
   99SAPE   C34 9988   1.566   4.806   5.555  0.0760  0.1832 -0.2900
   99SAPE   H4X 9989   1.651   4.877   5.569 -0.3389  0.8485 -1.0507
   99SAPE   H4Y 9990   1.475   4.857   5.593 -0.2475 -1.2715  0.9770
   99SAPE   C35 9991   1.553   4.784   5.403  0.7362  0.0669 -0.3231
   99SAPE   H5X 9992   1.464   4.722   5.383  0.4398  0.8611 -1.5880
   99SAPE   H5Y 9993   1.642   4.728   5.367  0.3339 -0.2087 -0.9044
   99SAPE   C36 9994   1.537   4.917   5.323  0.0653  0.4512 -0.3428
   99SAPE   H6X 9995   1.628   4.978   5.339 -0.4431  1.2927 -0.6300
   99SAPE   H6Y 9996   1.447   4.973   5.355  0.3825  0.1972  1.0548
   99SAPE   C37 9997   1.507   4.890   5.171  0.0585 -0.2070 -0.5908
   99SAPE   H7X 9998   1.402   4.921   5.151 -0.0803  0.3012  0.8020
   99SAPE   H7Y 9999   1.512   4.780   5.158 -0.9099 -0.5705  1.6661
   99SAPE   C3810000   1.601   4.976   5.078 -0.1626  0.0119  0.0298
   99SAPE   H8X10001   1.708   4.968   5.109 -0.0860 -1.1825 -0.4857
   99SAPE   H8Y10002   1.570   5.082   5.086  2.2099  0.6892  1.6376
   99SAPE   C3910003   1.595   4.923   4.937 -1.0321  0.3709 -0.2775
   99SAPE   H9X10004   1.490   4.926   4.900 -0.9958 -1.2907 -0.5793
   99SAPE   H9Y10005   1.622   4.815   4.927 -1.0280 -0.0661  3.3226
   99SAPE  C31010006   1.683   4.999   4.836  0.8163 -0.2047  0.4581
   99SAPE  H10X10007   1.670   5.108   4.856 -2.2119  0.2203 -2.9622
   99SAPE  H10Y10008   1.643   4.999   4.733 -0.6310  2.7435  0.9144
   99SAPE  C31110009   1.825   4.948   4.835  0.7490 -0.2798 -0.2181
   99SAPE  H11X10010   1.863   4.922   4.936 -1.1607 -0.8853  0.3854
   99SAPE  H11Y10011   1.891   5.028   4.795  0.6725 -0.4060 -0.6042
   99SAPE  C31210012   1.838   4.812   4.745  0.0261 -0.8055 -0.6857
   99SAPE  H12X10013   1.819   4.826   4.636  1.5495  0.1092 -0.8545
   99SAPE  H12Y10014   1.760   4.745   4.786 -1.2879  0.0414 -1.7185
   99SAPE  C31310015   1.973   4.754   4.750  0.0530  0.0423 -0.9517
   99SAPE  H13X10016   1.977   4.643   4.744  1.5565 -0.0695  1.0228
   99SAPE  H13Y10017   2.014   4.779   4.850 -1.3821 -1.8229  0.1699
   99SAPE  C31410018   2.071   4.792   4.642 -0.1544 -0.2357  0.0300
   99SAPE  H14X10019   2.173   4.756   4.667 -0.4678 -0.1929  1.4398
   99SAPE  H14Y10020   2.094   4.901   4.641  3.0574 -0.7727 -2.1245
   99SAPE  C31510021   2.029   4.751   4.497  0.3637  0.4107  0.2920
   99SAPE  H15X10022   2.112   4.785   4.432  1.6048 -2.6971  0.1040
   99SAPE  H15Y10023   1.935   4.801   4.465  0.3667  0.3080  0.1264
   99SAPE  C31610024   1.992   4.603   4.470 -0.3313 -0.8539 -0.4621
   99SAPE  H16X10025   1.901   4.580   4.530 -1.4968 -0.5305 -2.0288
   99SAPE  H16Y10026   2.074   4.535   4.501 -1.2581 -2.7641 -1.9101
   99SAPE  C31710027   1.967   4.584   4.326  0.3524 -0.1334  0.1165
   99SAPE  H17X10028   2.036   4.645   4.264 -0.1930  0.5087  0.1315
   99SAPE  H17Y10029   1.864   4.622   4.312  0.0784 -1.5270 -2.0780
   99SAPE  C31810030   1.959   4.437   4.283 -0.4267  0.1298 -0.0580
   99SAPE  H18X10031   1.923   4.430   4.178 -2.7111  0.1973  0.6585
   99SAPE  H18Y10032   1.874   4.384   4.332 -0.1254 -1.0486 -0.7843
   99SAPE  H18Z10033   2.051   4.376   4.290 -1.4781 -1.3531  1.4869
  100SAPE     N10034   4.981   1.299   6.680  0.1098  0.2580 -0.7967
  100SAPE   HN110035   4.881   1.305   6.651  0.3168 -0.5664 -1.7567
  100SAPE   HN210036   5.036   1.376   6.638  1.6461 -0.6601 -0.5265
  100SAPE   HN310037   5.028   1.216   6.638  1.4102  0.6282 -0.0961
  100SAPE   C1210038   5.001   1.279   6.823  0.1663 -0.1402 -0.2994
  100SAPE  H12A10039   4.935   1.347   6.881  1.3442 -0.0240  0.9426
  100SAPE  H12B10040   5.103   1.320   6.839 -0.3405  1.8951 -1.9226
  100SAPE   C1110041   4.985   1.127   6.857  0.1324 -0.2606 -0.4321
  100SAPE  H11A10042   4.997   1.114   6.967  0.8972  0.6045 -0.3932
  100SAPE  H11B10043   5.072   1.076   6.811  1.2746  0.8152  0.4327
  100SAPE     P10044   4.786   0.964   6.884  0.5388 -0.0631  0.2098
  100SAPE   O1310045   4.871   0.888   6.978  0.1585  0.3261 -0.3420
  100SAPE   O1410046   4.666   1.026   6.939  0.8153 -0.5765 -0.1208
  100SAPE   O1210047   4.868   1.073   6.810  0.0116  0.1791 -0.0855
  100SAPE   O1110048   4.754   0.853   6.776  0.6210  0.0980  0.2802
  100SAPE    C110049   4.857   0.790   6.698  0.2623 -0.0813 -0.1019
  100SAPE    HA10050   4.956   0.798   6.747  0.5268  0.2099 -0.6803
  100SAPE    HB10051   4.836   0.683   6.679 -1.3978  0.4236 -1.2865
  100SAPE    C210052   4.873   0.864   6.568 -0.3832  0.4204  0.0652
  100SAPE    HS10053   4.890   0.972   6.588 -0.9965  0.4782  0.2926
  100SAPE   O2110054   4.758   0.848   6.482 -0.4420 -0.1099 -0.5817
  100SAPE   C2110055   4.653   0.926   6.499  0.2254  0.4228  0.3018
  100SAPE   O2210056   4.649   1.029   6.568  0.0528  0.2463  0.1130
  100SAPE   C2210057   4.536   0.851   6.440 -0.2655  0.8192  0.7813
  100SAPE   H2R10058   4.574   0.776   6.367 -1.2396 -0.0550  1.1460
  100SAPE   H2S10059   4.485   0.789   6.517  2.6295 -1.7943  0.8100
  100SAPE    C310060   5.006   0.817   6.492  0.7744  0.4711  0.0488
  100SAPE    HX10061   4.988   0.712   6.460  1.7657  0.7372 -1.4768
  100SAPE    HY10062   5.083   0.799   6.570 -0.3159  0.5852  1.2097
  100SAPE   O3110063   5.041   0.893   6.374  0.2834 -0.1573  0.1590
  100SAPE   C3110064   5.089   1.013   6.393  0.1799  0.4573 -0.4176
  100SAPE   O3210065   5.094   1.081   6.496  0.8228 -0.3251  0.0444
  100SAPE   C3210066   5.162   1.053   6.265  0.1056 -0.5715  0.1833
  100SAPE   H2X10067   5.230   0.967   6.242  0.7241 -0.1438  0.3951
  100SAPE   H2Y10068   5.214   1.148   6.289 -0.8048 -0.0925  0.3043
  100SAPE   C2310069   4.427   0.935   6.370 -0.0251 -0.0454  0.0226
  100SAPE   H3R10070   4.404   1.029   6.425  1.4485 -0.0411  0.6964
  100SAPE   H3S10071   4.330   0.881   6.366  0.3338 -0.6378 -0.9620
  100SAPE   C2410072   4.465   0.961   6.224 -0.2235 -0.3210  0.0251
  100SAPE   H4R10073   4.390   1.023   6.171 -1.5262 -1.3886  0.5671
  100SAPE   H4S10074   4.467   0.859   6.180 -0.1760 -0.9609  1.4510
  100SAPE   C2510075   4.597   1.039   6.211  0.6305  0.3009  0.9761
  100SAPE   H5R10076   4.633   1.113   6.284  0.0764  1.4650  0.0901
  100SAPE   C2610077   4.651   1.049   6.086  0.1640  0.3400  0.0070
  100SAPE   H6R10078   4.729   1.122   6.062  1.4320 -1.5910 -2.1903
  100SAPE   C2710079   4.593   0.976   5.968 -0.2587  0.3956 -0.6835
  100SAPE   H7R10080   4.489   1.010   5.954  0.2306  1.1126 -2.9819
  100SAPE   H7S10081   4.571   0.871   5.997  0.2763  0.5765  0.4400
  100SAPE   C2810082   4.659   0.979   5.831  0.4649 -0.4253 -0.2704
  100SAPE   H8R10083   4.757   1.028   5.836 -0.4651  1.4654  0.6172
  100SAPE   C2910084   4.607   0.952   5.718  0.2971  0.5728  0.5343
  100SAPE   H9R10085   4.661   0.974   5.625 -1.9979  0.6725 -0.8456
  100SAPE  C21010086   4.467   0.892   5.694  0.4724 -0.8654 -0.1009
  100SAPE  H10R10087   4.416   0.902   5.793 -0.6353 -0.4729 -0.6916
  100SAPE  H10S10088   4.482   0.784   5.673 -0.7467 -1.3636  1.3763
  100SAPE  C21110089   4.371   0.945   5.593  0.0065 -0.0050  0.0270
  100SAPE  H11R10090   4.280   1.001   5.619 -0.0480  0.3668 -0.9313
  100SAPE  C21210091   4.378   0.935   5.458 -0.4581 -1.0030  0.3478
  100SAPE  H12R10092   4.300   0.975   5.391 -2.2415  0.5654  3.1854
  100SAPE  C21310093   4.491   0.863   5.381 -0.0352 -0.1851  0.2788
  100SAPE  H13R10094   4.575   0.822   5.441  2.2700  2.4670 -0.9345
  100SAPE  H13S10095   4.547   0.936   5.319  0.0914 -0.3313  0.2233
  100SAPE  C21410096   4.444   0.749   5.291 -0.5381  0.4491 -0.2284
  100SAPE  H14R10097   4.452   0.650   5.337 -1.9139 -0.1765 -1.2881
  100SAPE  C21510098   4.432   0.749   5.160  0.3774 -0.2468 -0.1681
  100SAPE  H15R10099   4.396   0.658   5.109  1.2181  0.6171 -2.4285
  100SAPE  C21610100   4.433   0.874   5.072  0.2228  0.3453  0.3797
  100SAPE  H16R10101   4.527   0.864   5.014  0.4537  1.5039  0.5354
  100SAPE  H16S10102   4.451   0.968   5.128  0.4683  1.3866 -1.3891
  100SAPE  C21710103   4.320   0.909   4.972  0.2399 -0.0807 -0.2312
  100SAPE  H17R10104   4.342   1.005   4.919 -0.1357  1.8740  2.8590
  100SAPE  H17S10105   4.229   0.928   5.033  0.8760  0.2505  0.6433
  100SAPE  C21810106   4.295   0.790   4.874 -0.6377  0.5492 -0.4479
  100SAPE  H18R10107   4.244   0.710   4.932  0.8314 -0.2709 -0.2309
  100SAPE  H18S10108   4.390   0.742   4.840 -2.1709 -1.4705 -2.1482
  100SAPE  C21910109   4.222   0.831   4.745 -0.0822 -0.0079 -0.3125
  100SAPE  H19R10110   4.277   0.919   4.704 -1.6174  0.7181 -0.8822
  100SAPE  H19S10111   4.127   0.875   4.782  1.1050  1.9368  0.5454
  100SAPE  C22010112   4.214   0.723   4.636 -0.6226  0.5135  0.1317
  100SAPE  H20R10113   4.286   0.640   4.655 -1.3946 -0.3139 -0.5019
  100SAPE  H20S10114   4.240   0.769   4.538  0.9161  0.1502  0.3446
  100SAPE  H20T10115   4.114   0.678   4.618  0.2622 -0.8926 -1.7125
  100SAPE   C3310116   5.072   1.079   6.139 -0.1198  0.4620  0.0394
  100SAPE   H3X10117   5.037   1.184   6.132 -1.5084  0.2131  2.2656
  100SAPE   H3Y10118   4.978   1.021   6.150  1.0922 -1.8915 -1.2178
  100SAPE   C3410119   5.144   1.034   6.015 -0.2130 -0.0434  0.3987
  100SAPE   H4X10120   5.175   0.927   6.016 -0.4046 -0.1441 -1.3764
  100SAPE   H4Y10121   5.238   1.093   6.019  0.9167 -1.7775  2.7741
  100SAPE   C3510122   5.068   1.058   5.887 -1.0182 -0.2719 -0.3145
  100SAPE   H5X10123   5.027   1.161   5.889  0.7648  0.5174  3.1130
  100SAPE   H5Y10124   4.988   0.981   5.891  0.7129 -2.1153  1.2493
  100SAPE   C3610125   5.152   1.039   5.765 -0.2284 -0.4322  0.3267
  100SAPE   H6X10126   5.207   0.942   5.773 -0.5658 -0.6811 -0.2732
  100SAPE   H6Y10127   5.227   1.120   5.762  0.1222 -0.7898 -1.6498
  100SAPE   C3710128   5.062   1.021   5.637  0.2473 -0.4754  0.2235
  100SAPE   H7X10129   4.983   1.100   5.641  1.1764  0.4421  1.2145
  100SAPE   H7Y10130   5.002   0.927   5.635  0.2991 -0.5352 -2.5913
  100SAPE   C3810131   5.147   1.024   5.503  1.1321  0.5119 -0.2415
  100SAPE   H8X10132   5.195   0.925   5.491 -2.5765 -1.3348 -1.3493
  100SAPE   H8Y10133   5.230   1.097   5.513 -1.8729  4.2938 -0.4487
  100SAPE   C3910134   5.061   1.059   5.376  0.5487  0.3228  0.5928
  100SAPE   H9X10135   5.003   1.152   5.390  0.6433  1.1559 -3.3913
  100SAPE   H9Y10136   4.989   0.974   5.373  0.3751  0.4875 -0.0224
  100SAPE  C31010137   5.160   1.063   5.253 -0.1539 -0.0050  0.2585
  100SAPE  H10X10138   5.225   0.973   5.246 -1.8442 -1.2001 -0.7342
  100SAPE  H10Y10139   5.239   1.136   5.281 -0.1339 -0.2958  0.9930
  100SAPE  C31110140   5.088   1.096   5.120 -0.2961  0.7530  0.0161
  100SAPE  H11X10141   5.066   1.205   5.119 -1.9416  0.4429  0.1471
  100SAPE  H11Y10142   4.996   1.034   5.129  0.1591 -0.0371 -0.6409
  100SAPE  C31210143   5.164   1.047   4.991 -0.0591  0.1498  0.3872
  100SAPE  H12X10144   5.222   0.956   5.017  3.1861  1.1182 -2.6917
  100SAPE  H12Y10145   5.234   1.127   4.957  0.1981  0.1033  0.7977
  100SAPE  C31310146   5.079   1.001   4.877 -0.0976  0.6233  0.6676
  100SAPE  H13X10147   5.021   1.089   4.842  0.4366  1.9343  2.8903
  100SAPE  H13Y10148   5.002   0.926   4.908 -0.3676  0.1699 -0.9854
  100SAPE  C31410149   5.156   0.936   4.759  0.3712  0.2875  0.2449
  100SAPE  H14X10150   5.172   0.829   4.784 -1.0661  0.6434  3.0760
  100SAPE  H14Y10151   5.248   0.994   4.733  0.9494 -0.5516  0.3910
  100SAPE  C31510152   5.077   0.935   4.623  0.3618 -0.5999  0.0286
  100SAPE  H15X10153   5.045   1.037   4.595  1.3715 -0.7580 -1.9023
  100SAPE  H15Y10154   4.977   0.887   4.620 -0.3147  0.7641 -2.6644
  100SAPE  C31610155   5.154   0.868   4.510 -0.6326  0.1368  0.3416
  100SAPE  H16X10156   5.241   0.932   4.485 -0.6618  0.7622  1.7263
  100SAPE  H16Y10157   5.098   0.868   4.414 -0.7156 -1.1401  0.3774
  100SAPE  C31710158   5.190   0.723   4.545 -0.6702 -0.4365  0.3059
  100SAPE  H17X10159   5.094   0.677   4.578 -1.0695 -0.7697 -1.2368
  100SAPE  H17Y10160   5.265   0.707   4.625 -1.8423 -1.4682  1.2472
  100SAPE  C31810161   5.229   0.644   4.409  0.2735 -0.0284 -0.4117
  100SAPE  H18X10162   5.142   0.659   4.342  0.8469  1.6240 -0.8342
  100SAPE  H18Y10163   5.250   0.536   4.426 -1.1259 -0.0612  1.5070
  100SAPE  H18Z10164   5.318   0.686   4.360 -0.5219  0.1485 -1.7356
  101SAPE     N10165   6.302   4.056   6.346 -0.3113 -0.2702 -0.0701
  101SAPE   HN110166   6.335   4.090   6.253 -1.0193  1.8190  0.3763
  101SAPE   HN210167   6.252   4.130   6.398  0.1771  0.1945 -0.2450
  101SAPE   HN310168   6.382   4.036   6.410 -2.8130 -2.4763  2.6524
  101SAPE   C1210169   6.215   3.931   6.343  0.3065  0.5161 -0.0743
  101SAPE  H12A10170   6.242   3.865   6.428 -2.3149  0.8933  1.1301
  101SAPE  H12B10171   6.253   3.883   6.250  0.0165  2.5169 -1.3118
  101SAPE   C1110172   6.078   3.981   6.332  0.1546  0.3083  0.2178
  101SAPE  H11A10173   6.005   3.902   6.304 -1.5929  2.0786 -0.4469
  101SAPE  H11B10174   6.070   4.065   6.260  0.6065 -1.7451 -2.3446
  101SAPE     P10175   5.897   4.079   6.496 -0.2381 -0.1315  0.0340
  101SAPE   O1310176   5.800   3.962   6.508  0.3819 -0.2069  0.0569
  101SAPE   O1410177   5.926   4.158   6.618  0.2291 -0.4392  0.6339
  101SAPE   O1210178   6.038   4.032   6.452 -0.5093  0.1806 -0.5937
  101SAPE   O1110179   5.844   4.181   6.385 -0.9495  0.2370 -0.2160
  101SAPE    C110180   5.926   4.283   6.333  0.0185 -0.4290  0.9311
  101SAPE    HA10181   5.911   4.383   6.379  3.6361  0.6894  0.0173
  101SAPE    HB10182   6.036   4.263   6.339  1.0491  2.8572 -3.0158
  101SAPE    C210183   5.888   4.313   6.182 -0.5679  0.3466  0.5514
  101SAPE    HS10184   5.783   4.349   6.179 -0.7570 -0.2501 -2.0542
  101SAPE   O2110185   5.910   4.185   6.121 -0.5232 -0.4999  0.3483
  101SAPE   C2110186   5.797   4.119   6.108  0.1711  0.3154 -0.8687
  101SAPE   O2210187   5.689   4.138   6.171  0.5018 -0.1234 -0.1253
  101SAPE   C2210188   5.812   4.003   6.008 -0.5970 -0.8157  0.2972
  101SAPE   H2R10189   5.876   4.038   5.924  0.3450 -1.1156  0.8669
  101SAPE   H2S10190   5.859   3.913   6.052  0.0656 -0.5017  0.2496
  101SAPE    C310191   5.984   4.405   6.112  0.3827 -0.0809 -0.3152
  101SAPE    HX10192   6.090   4.406   6.144 -0.5539 -0.5410  3.2016
  101SAPE    HY10193   5.943   4.505   6.139  2.6269  0.1484  2.7852
  101SAPE   O3110194   5.963   4.400   5.968 -0.3321 -0.0753  0.5066
  101SAPE   C3110195   6.061   4.346   5.894  0.4958 -0.7040 -0.1956
  101SAPE   O3210196   6.162   4.298   5.934 -0.6818  0.3150  0.4832
  101SAPE   C3210197   6.019   4.344   5.742  0.1872 -0.1102 -0.6954
  101SAPE   H2X10198   6.083   4.422   5.696  1.4932 -0.4568  0.4768
  101SAPE   H2Y10199   5.908   4.353   5.740 -0.0535 -2.4219 -2.1687
  101SAPE   C2310200   5.673   3.940   5.949 -0.6000 -0.5050 -0.0565
  101SAPE   H3R10201   5.605   4.025   5.927 -0.6876  0.2989  2.8897
  101SAPE   H3S10202   5.640   3.880   6.037 -0.8665 -1.9558 -1.1009
  101SAPE   C2410203   5.677   3.845   5.833 -0.3837 -0.5861 -0.4748
  101SAPE   H4R10204   5.750   3.769   5.868  1.5284  0.5667 -1.7135
  101SAPE   H4S10205   5.719   3.904   5.748 -0.7802 -0.5874 -0.6752
  101SAPE   C2510206   5.544   3.788   5.800  0.7308 -0.0433 -0.3590
  101SAPE   H5R10207   5.492   3.735   5.882  0.0913 -0.1277 -0.8144
  101SAPE   C2610208   5.465   3.810   5.687 -0.1867 -0.0059 -0.0454
  101SAPE   H6R10209   5.365   3.765   5.682 -1.3428  1.8538  3.3455
  101SAPE   C2710210   5.514   3.899   5.576 -0.1108 -0.4704 -0.9243
  101SAPE   H7R10211   5.551   3.993   5.621 -0.7303 -1.3388  1.5292
  101SAPE   H7S10212   5.426   3.933   5.517  1.1444  0.4264 -2.3688
  101SAPE   C2810213   5.615   3.841   5.479  0.6328 -0.1148  0.7493
  101SAPE   H8R10214   5.650   3.739   5.497 -2.0894 -1.7682 -2.1567
  101SAPE   C2910215   5.673   3.898   5.370 -0.4362  0.0289  0.0464
  101SAPE   H9R10216   5.736   3.836   5.305  2.2554  1.0191  1.5533
  101SAPE  C21010217   5.657   4.038   5.311  0.6084  0.5413 -0.9407
  101SAPE  H10R10218   5.573   4.098   5.353  0.3943  0.7584 -1.6534
  101SAPE  H10S10219   5.639   4.030   5.202 -0.2907  0.6301 -0.8067
  101SAPE  C21110220   5.792   4.109   5.335  0.2332  0.1403 -0.0936
  101SAPE  H11R10221   5.827   4.099   5.439 -0.6449  0.6429  0.2555
  101SAPE  C21210222   5.861   4.187   5.248 -0.1251 -0.0933  0.6908
  101SAPE  H12R10223   5.966   4.216   5.265 -0.1041  1.7732 -1.9890
  101SAPE  C21310224   5.809   4.231   5.113 -0.2415 -0.3455 -0.3546
  101SAPE  H13R10225   5.703   4.262   5.120 -0.5986 -1.9210  2.6045
  101SAPE  H13S10226   5.821   4.147   5.041  1.1687  0.1156 -0.6884
  101SAPE  C21410227   5.884   4.351   5.055  0.2900  0.9844  0.5549
  101SAPE  H14R10228   5.940   4.418   5.122 -2.1464  2.5092  1.1585
  101SAPE  C21510229   5.886   4.391   4.928  0.3954 -0.0277  0.2997
  101SAPE  H15R10230   5.927   4.492   4.913 -0.1264  0.5125  2.1822
  101SAPE  C21610231   5.839   4.323   4.801  0.2268  0.1290  0.5810
  101SAPE  H16R10232   5.829   4.395   4.717  3.1622 -0.3195 -0.2318
  101SAPE  H16S10233   5.741   4.280   4.832  1.3373 -1.5773  1.9533
  101SAPE  C21710234   5.928   4.218   4.742  0.1451  0.4684  0.3239
  101SAPE  H17R10235   5.923   4.134   4.815 -2.5329 -0.4270 -0.7384
  101SAPE  H17S10236   6.034   4.249   4.738  0.6381 -1.2893 -1.9422
  101SAPE  C21810237   5.887   4.154   4.611  0.4621 -0.7940 -0.1193
  101SAPE  H18R10238   5.844   4.239   4.553  0.4598 -0.3485  0.5191
  101SAPE  H18S10239   5.801   4.085   4.622  0.5197 -0.7172  0.8927
  101SAPE  C21910240   5.996   4.082   4.532 -0.2569 -0.4738  0.0940
  101SAPE  H19R10241   6.028   3.995   4.592  1.2043  1.6827  2.6265
  101SAPE  H19S10242   6.085   4.147   4.521 -1.1739  1.1454  1.6690
  101SAPE  C22010243   5.940   4.038   4.403  0.2651  0.0551 -0.0722
  101SAPE  H20R10244   6.015   3.985   4.340 -0.3704 -0.2468 -0.5846
  101SAPE  H20S10245   5.912   4.126   4.342  0.4093  0.3997  0.3505
  101SAPE  H20T10246   5.858   3.965   4.420 -0.2302  0.6234 -0.0018
  101SAPE   C3310247   6.046   4.211   5.678  0.1447  0.3995 -0.3542
  101SAPE   H3X10248   5.990   4.206   5.582 -1.0913 -2.8267  0.3872
  101SAPE   H3Y10249   6.008   4.120   5.730  2.4525 -0.6420 -0.3190
  101SAPE   C3410250   6.190   4.181   5.636  0.6723 -0.0818  0.4596
  101SAPE   H4X10251   6.179   4.089   5.575  4.1206  0.1357 -0.7135
  101SAPE   H4Y10252   6.253   4.150   5.723  2.3873  3.1346  0.4909
  101SAPE   C3510253   6.266   4.289   5.555 -0.0957 -0.5043 -0.3035
  101SAPE   H5X10254   6.366   4.247   5.531  0.1734 -0.6511  1.0060
  101SAPE   H5Y10255   6.285   4.377   5.620  0.2046  0.9314 -2.2373
  101SAPE   C3610256   6.197   4.335   5.423 -0.2230 -0.0764 -0.1231
  101SAPE   H6X10257   6.097   4.378   5.443  0.0553  2.5282 -3.4809
  101SAPE   H6Y10258   6.180   4.238   5.371  0.0317 -0.4137  0.4113
  101SAPE   C3710259   6.279   4.431   5.331  0.9743 -0.1959 -0.2460
  101SAPE   H7X10260   6.373   4.389   5.291 -1.1365 -3.6993 -1.9897
  101SAPE   H7Y10261   6.304   4.521   5.392 -0.7803 -0.9808  1.7711
  101SAPE   C3810262   6.197   4.479   5.213 -0.7611  0.4578 -0.1423
  101SAPE   H8X10263   6.107   4.532   5.250 -1.9153 -2.2354  1.2122
  101SAPE   H8Y10264   6.172   4.395   5.145 -0.9093  1.0924 -0.8916
  101SAPE   C3910265   6.279   4.584   5.134 -0.4100 -0.1419  0.2008
  101SAPE   H9X10266   6.364   4.542   5.075 -1.7725 -1.4437 -0.8981
  101SAPE   H9Y10267   6.316   4.665   5.200  0.2512 -0.6090  0.4156
  101SAPE  C31010268   6.196   4.652   5.021 -0.3064  0.2834  1.0517
  101SAPE  H10X10269   6.100   4.686   5.065 -1.4961 -2.4744  0.7906
  101SAPE  H10Y10270   6.179   4.583   4.936 -0.6164  0.3551  1.0533
  101SAPE  C31110271   6.267   4.782   4.978 -0.5000  0.3792  0.5658
  101SAPE  H11X10272   6.350   4.750   4.912 -0.7592 -1.8490  1.2217
  101SAPE  H11Y10273   6.322   4.838   5.056  0.4480  0.6909 -0.3139
  101SAPE  C31210274   6.174   4.876   4.895  0.0405  0.3764 -0.4775
  101SAPE  H12X10275   6.096   4.923   4.959 -0.2356  0.3829 -0.8162
  101SAPE  H12Y10276   6.122   4.816   4.818 -0.6710  1.8372 -1.1768
  101SAPE  C31310277   6.261   4.988   4.839 -0.7284 -0.2754  0.6266
  101SAPE  H13X10278   6.351   4.947   4.789 -3.0787 -2.2070 -2.3944
  101SAPE  H13Y10279   6.296   5.056   4.920  1.6978 -1.9025  1.0460
  101SAPE  C31410280   6.188   5.066   4.726  0.6432  0.4665 -0.1532
  101SAPE  H14X10281   6.100   5.120   4.766 -1.8255 -1.9916 -1.9623
  101SAPE  H14Y10282   6.143   4.990   4.659 -0.9317  0.3704  0.9779
  101SAPE  C31510283   6.269   5.170   4.644  0.3181 -0.3353  0.1219
  101SAPE  H15X10284   6.375   5.142   4.626  0.1744 -0.1039 -1.1489
  101SAPE  H15Y10285   6.300   5.256   4.708  0.9653 -2.9448  3.5798
  101SAPE  C31610286   6.211   5.217   4.505 -0.1891 -0.1925 -1.2219
  101SAPE  H16X10287   6.194   5.124   4.447  1.8735 -1.8218  0.6129
  101SAPE  H16Y10288   6.293   5.275   4.457 -0.5161  0.3694 -1.1105
  101SAPE  C31710289   6.086   5.303   4.522 -0.1030  0.3309  0.4946
  101SAPE  H17X10290   6.112   5.366   4.610  2.0238 -0.9840  0.8831
  101SAPE  H17Y10291   5.996   5.240   4.538  0.5158 -0.4943  0.7971
  101SAPE  C31810292   6.064   5.393   4.401 -0.6018 -0.0141  0.6981
  101SAPE  H18X10293   5.972   5.451   4.423 -1.3814 -0.6658 -0.6890
  101SAPE  H18Y10294   6.059   5.335   4.307  3.6611  0.0484  0.2426
  101SAPE  H18Z10295   6.149   5.464   4.401 -1.2012  0.7077  0.7986
  102SAPE     N10296   4.807   3.478   6.815 -0.0502 -0.6934 -0.2197
  102SAPE   HN110297   4.736   3.434   6.753  0.9995 -2.0561 -0.4977
  102SAPE   HN210298   4.893   3.422   6.828  0.5194  0.0192 -0.8388
  102SAPE   HN310299   4.750   3.495   6.901  2.2479  3.2472  0.7964
  102SAPE   C1210300   4.831   3.621   6.773 -0.2346 -0.2148  0.6239
  102SAPE  H12A10301   4.876   3.670   6.862  0.4216  0.0693  0.1481
  102SAPE  H12B10302   4.733   3.673   6.764 -1.1376 -1.4217  2.6852
  102SAPE   C1110303   4.915   3.630   6.650 -0.0982  0.0730  1.1295
  102SAPE  H11A10304   4.849   3.589   6.570  0.6027 -3.0866  2.0142
  102SAPE  H11B10305   5.010   3.572   6.651  0.5276  1.0580  2.4965
  102SAPE     P10306   5.090   3.829   6.636 -0.5737  0.0340 -0.0110
  102SAPE   O1310307   5.098   3.906   6.760 -0.5489 -0.2483 -0.3680
  102SAPE   O1410308   5.199   3.729   6.609  0.0493  0.4487 -0.1326
  102SAPE   O1210309   4.947   3.767   6.625  0.0825  0.1592  0.1267
  102SAPE   O1110310   5.089   3.930   6.510 -0.2557 -0.2388  0.1108
  102SAPE    C110311   5.051   3.876   6.387  0.7958 -0.1532 -0.0708
  102SAPE    HA10312   5.108   3.788   6.352 -1.2878 -0.9656 -1.5869
  102SAPE    HB10313   4.943   3.851   6.383  1.4789 -3.6009  0.0740
  102SAPE    C210314   5.065   3.991   6.281 -0.3766 -0.3996 -0.1529
  102SAPE    HS10315   5.149   4.055   6.314  0.6446 -1.0389 -1.3851
  102SAPE   O2110316   4.938   4.054   6.265  0.0968 -0.2798  0.0635
  102SAPE   C2110317   4.958   4.187   6.223  1.1948 -0.4753 -0.1451
  102SAPE   O2210318   5.064   4.235   6.197 -0.4233  0.1960  0.4004
  102SAPE   C2210319   4.819   4.259   6.224 -0.2623 -0.2759  0.4078
  102SAPE   H2R10320   4.834   4.369   6.214  1.3121 -0.4527  0.6528
  102SAPE   H2S10321   4.775   4.227   6.127  0.8154  2.3055 -1.0476
  102SAPE    C310322   5.114   3.927   6.146 -0.0143  0.3255 -0.1193
  102SAPE    HX10323   5.035   3.858   6.111  0.6055 -0.3878 -0.1462
  102SAPE    HY10324   5.209   3.874   6.169  0.0734 -0.1799 -1.5531
  102SAPE   O3110325   5.132   4.023   6.051  0.0710 -0.1867  0.5842
  102SAPE   C3110326   5.255   4.060   6.014 -0.2334  0.4494 -0.0808
  102SAPE   O3210327   5.358   4.015   6.054  0.2430 -0.0858 -0.0975
  102SAPE   C3210328   5.246   4.166   5.911  0.6316 -0.4840 -0.5237
  102SAPE   H2X10329   5.196   4.259   5.946 -1.5835 -2.4579  2.0665
  102SAPE   H2Y10330   5.176   4.121   5.837 -0.4691  0.8620 -0.3240
  102SAPE   C2310331   4.736   4.224   6.341 -0.1880  0.0751  0.4345
  102SAPE   H3R10332   4.793   4.232   6.436  1.2037 -1.4862 -0.2067
  102SAPE   H3S10333   4.700   4.119   6.349 -1.2660  0.4877  1.0382
  102SAPE   C2410334   4.603   4.299   6.345  0.6962 -0.0867  0.8888
  102SAPE   H4R10335   4.548   4.259   6.432  1.9199 -0.6436  1.4344
  102SAPE   H4S10336   4.548   4.275   6.251 -2.1768  1.7959  1.9521
  102SAPE   C2510337   4.613   4.446   6.369  0.8685  0.2416  0.6547
  102SAPE   H5R10338   4.647   4.469   6.471 -1.1549  0.2296  1.3648
  102SAPE   C2610339   4.594   4.545   6.278  0.7537 -1.1005 -0.2577
  102SAPE   H6R10340   4.600   4.648   6.317 -1.3239 -0.4545 -1.4648
  102SAPE   C2710341   4.563   4.517   6.135 -1.1446  0.0956 -0.7297
  102SAPE   H7R10342   4.459   4.479   6.124 -0.9911 -1.3809  2.0847
  102SAPE   H7S10343   4.614   4.425   6.101 -3.4848 -2.2094  1.4524
  102SAPE   C2810344   4.589   4.625   6.036  0.0270 -0.4925  0.2041
  102SAPE   H8R10345   4.568   4.729   6.067  0.7529 -0.1876 -0.2834
  102SAPE   C2910346   4.629   4.600   5.909  0.2347  0.2867  0.1181
  102SAPE   H9R10347   4.643   4.682   5.837  0.4469 -2.6195 -3.4462
  102SAPE  C21010348   4.661   4.457   5.857 -0.6236 -0.2188  0.1717
  102SAPE  H10R10349   4.628   4.473   5.752 -0.4088  2.2231  0.4095
  102SAPE  H10S10350   4.597   4.375   5.895 -0.4825 -0.0615  0.7666
  102SAPE  C21110351   4.807   4.413   5.860 -0.7867  0.1349  0.4291
  102SAPE  H11R10352   4.845   4.368   5.953 -0.3942 -1.0660 -0.2975
  102SAPE  C21210353   4.897   4.447   5.767  0.6781  0.1679  0.6295
  102SAPE  H12R10354   5.001   4.414   5.772  0.7944 -0.1189 -2.2101
  102SAPE  C21310355   4.855   4.516   5.640 -0.7759  0.5397  0.1946
  102SAPE  H13R10356   4.914   4.603   5.604 -1.2751  1.1612  0.8466
  102SAPE  H13S10357   4.765   4.579   5.654 -0.2773  1.4614 -0.6413
  102SAPE  C21410358   4.830   4.413   5.529  0.0405 -0.1981  0.4818
  102SAPE  H14R10359   4.754   4.339   5.556 -0.1856 -0.8805 -1.8618
  102SAPE  C21510360   4.898   4.393   5.409  1.0477 -0.1182 -0.4663
  102SAPE  H15R10361   4.875   4.306   5.346  1.2692 -0.8967  0.5196
  102SAPE  C21610362   5.000   4.478   5.339  0.4383 -0.6372  0.1189
  102SAPE  H16R10363   5.062   4.516   5.423 -1.0381 -0.1191  0.9965
  102SAPE  H16S10364   4.958   4.564   5.283  0.4735 -1.3519 -1.0323
  102SAPE  C21710365   5.085   4.416   5.224  0.0279  0.1893  0.3991
  102SAPE  H17R10366   5.162   4.493   5.205  0.2029 -0.3872 -1.3082
  102SAPE  H17S10367   5.014   4.412   5.139  1.3009  0.5311 -0.6926
  102SAPE  C21810368   5.151   4.284   5.267 -0.6737 -0.8522 -0.0810
  102SAPE  H18R10369   5.071   4.208   5.273 -1.5944  0.1171  0.2095
  102SAPE  H18S10370   5.189   4.295   5.370 -1.7219  1.8686  0.0963
  102SAPE  C21910371   5.243   4.216   5.161  1.6798 -0.7853  0.0501
  102SAPE  H19R10372   5.312   4.296   5.126 -1.2561  0.3572 -3.8993
  102SAPE  H19S10373   5.169   4.210   5.078 -0.4088  1.4239  1.6042
  102SAPE  C22010374   5.306   4.090   5.209  0.0006 -0.0664 -0.3630
  102SAPE  H20R10375   5.387   4.112   5.281 -0.3037 -0.0928 -0.0106
  102SAPE  H20S10376   5.348   4.049   5.114  2.9560  2.9031 -0.5057
  102SAPE  H20T10377   5.232   4.016   5.248  0.5493 -0.9123 -0.8813
  102SAPE   C3310378   5.368   4.183   5.820  0.1762 -0.3057 -0.3161
  102SAPE   H3X10379   5.397   4.087   5.772 -5.2741 -2.6965  0.4034
  102SAPE   H3Y10380   5.449   4.218   5.887 -0.9143  1.6367  0.0773
  102SAPE   C3410381   5.340   4.286   5.711 -0.3775  0.3182 -0.4903
  102SAPE   H4X10382   5.317   4.384   5.758 -1.2037 -0.2286  0.2807
  102SAPE   H4Y10383   5.245   4.247   5.668  0.4383 -1.3559 -0.8508
  102SAPE   C3510384   5.453   4.288   5.609 -0.8506 -0.7540  0.1967
  102SAPE   H5X10385   5.419   4.373   5.547 -0.6006  0.2508  1.3917
  102SAPE   H5Y10386   5.459   4.199   5.542  1.6482 -0.2967 -0.2933
  102SAPE   C3610387   5.588   4.336   5.666  0.3402 -0.3356  0.1972
  102SAPE   H6X10388   5.632   4.251   5.722  1.2841  0.0892  0.1215
  102SAPE   H6Y10389   5.585   4.424   5.735  2.8360 -0.6828  0.8301
  102SAPE   C3710390   5.687   4.370   5.546 -0.3670 -0.4307  0.4900
  102SAPE   H7X10391   5.641   4.347   5.447 -0.3393  3.0085 -0.4301
  102SAPE   H7Y10392   5.765   4.291   5.550  1.1052  0.8359 -1.1894
  102SAPE   C3810393   5.735   4.510   5.546 -0.0087 -0.1286 -0.0351
  102SAPE   H8X10394   5.795   4.525   5.638  0.4445 -0.0087 -0.3421
  102SAPE   H8Y10395   5.656   4.588   5.554 -0.5718 -0.6177 -0.6916
  102SAPE   C3910396   5.820   4.539   5.421 -0.0204 -0.4732  0.0607
  102SAPE   H9X10397   5.857   4.440   5.387 -0.3950 -1.5890  2.6379
  102SAPE   H9Y10398   5.900   4.613   5.442 -1.7705  2.2641 -2.2160
  102SAPE  C31010399   5.742   4.613   5.302 -0.8965 -0.3555  0.1749
  102SAPE  H10X10400   5.819   4.632   5.224 -1.1938 -0.8747 -0.2481
  102SAPE  H10Y10401   5.709   4.715   5.332 -1.4148 -0.1269 -1.1286
  102SAPE  C31110402   5.619   4.537   5.244 -0.8151 -0.4937 -1.4360
  102SAPE  H11X10403   5.536   4.561   5.314  1.5761 -1.0313  1.8865
  102SAPE  H11Y10404   5.638   4.429   5.263 -0.1880  0.2435  3.3982
  102SAPE  C31210405   5.593   4.567   5.098  0.4651  0.0501 -0.4082
  102SAPE  H12X10406   5.677   4.515   5.048 -0.2870 -1.3047 -0.3042
  102SAPE  H12Y10407   5.608   4.675   5.075 -1.5581  0.3630 -0.3893
  102SAPE  C31310408   5.464   4.528   5.034  0.2060  0.0917 -0.0839
  102SAPE  H13X10409   5.379   4.521   5.106  0.8018  1.5252  0.8035
  102SAPE  H13Y10410   5.483   4.427   4.992  4.9320  0.2446  1.1326
  102SAPE  C31410411   5.415   4.627   4.932 -1.1518 -0.3113 -0.4115
  102SAPE  H14X10412   5.471   4.615   4.836 -0.8687 -0.0548 -0.2804
  102SAPE  H14Y10413   5.428   4.733   4.963 -0.6033 -0.5391  0.1647
  102SAPE  C31510414   5.264   4.620   4.911  0.4139  0.5472  0.8118
  102SAPE  H15X10415   5.219   4.710   4.865 -0.5444  1.0296  2.6119
  102SAPE  H15Y10416   5.219   4.621   5.012 -0.6971  1.7270  0.3379
  102SAPE  C31610417   5.211   4.496   4.836  0.5300 -0.1061  0.4624
  102SAPE  H16X10418   5.212   4.401   4.894 -0.6585 -1.0867 -1.0394
  102SAPE  H16Y10419   5.266   4.472   4.742 -1.8504  3.3878 -2.0499
  102SAPE  C31710420   5.054   4.507   4.806  0.2497 -0.1154 -0.4914
  102SAPE  H17X10421   4.998   4.545   4.894  1.8335 -1.0630  0.9764
  102SAPE  H17Y10422   5.021   4.407   4.770  1.2828 -0.9089  0.6938
  102SAPE  C31810423   5.032   4.609   4.695  0.2138  0.3516  0.0703
  102SAPE  H18X10424   5.103   4.599   4.610  0.7233  0.5841  0.4648
  102SAPE  H18Y10425   5.035   4.713   4.734  1.2702  0.5163 -0.4004
  102SAPE  H18Z10426   4.929   4.608   4.654 -1.2871 -0.4022  3.5313
  103SAPE     N10427   4.909   5.096   2.481  0.2025 -0.1079  0.7268
  103SAPE   HN110428   4.875   5.185   2.524  0.4423  0.3422 -0.0032
  103SAPE   HN210429   4.986   5.122   2.416 -0.2018 -1.6611 -0.4272
  103SAPE   HN310430   4.824   5.065   2.430 -0.6015  1.9775  0.6975
  103SAPE   C1210431   4.954   5.015   2.591 -0.1118  0.2267 -0.5572
  103SAPE  H12A10432   4.987   4.917   2.553 -1.6246 -0.4807 -0.1471
  103SAPE  H12B10433   4.866   5.003   2.659 -0.4530  0.7833 -0.8907
  103SAPE   C1110434   5.068   5.089   2.667  0.1811  0.1118  0.0986
  103SAPE  H11A10435   5.087   5.025   2.757 -1.4550  1.1746  1.2541
  103SAPE  H11B10436   5.025   5.183   2.707  0.0824 -0.1610  0.6478
  103SAPE     P10437   5.291   5.003   2.551 -0.0762 -0.2566  0.4661
  103SAPE   O1310438   5.268   4.879   2.634  0.1279  0.3099  0.2939
  103SAPE   O1410439   5.290   4.983   2.408  0.3165  0.1510 -0.2330
  103SAPE   O1210440   5.185   5.109   2.582 -0.2841 -0.4320  0.3450
  103SAPE   O1110441   5.424   5.067   2.594 -0.4149  0.3213  0.6734
  103SAPE    C110442   5.466   5.205   2.616 -0.4046  0.7253 -0.1595
  103SAPE    HA10443   5.535   5.248   2.541  0.2140  0.7013  0.3883
  103SAPE    HB10444   5.380   5.274   2.625 -0.8828  0.4685 -2.2477
  103SAPE    C210445   5.545   5.216   2.755 -0.5252 -0.2553  0.3584
  103SAPE    HS10446   5.649   5.184   2.737  1.2598  3.7337  2.2706
  103SAPE   O2110447   5.471   5.140   2.848 -0.1506 -0.2948 -0.2518
  103SAPE   C2110448   5.537   5.079   2.947  0.5772 -0.1641  0.0638
  103SAPE   O2210449   5.656   5.069   2.947 -0.8919 -0.1213 -0.0664
  103SAPE   C2210450   5.439   5.023   3.052  0.5087  0.2805 -0.4267
  103SAPE   H2R10451   5.419   5.103   3.126 -0.0079  1.7753 -2.1116
  103SAPE   H2S10452   5.345   4.998   3.000 -0.0638 -0.8737  1.1115
  103SAPE    C310453   5.554   5.367   2.795  0.5140 -0.3387 -0.0224
  103SAPE    HX10454   5.450   5.404   2.784 -0.2670 -2.7615 -1.3821
  103SAPE    HY10455   5.611   5.422   2.717  0.4765  0.1621  0.2944
  103SAPE   O3110456   5.606   5.386   2.930 -0.3447 -0.1917  0.6206
  103SAPE   C3110457   5.742   5.397   2.931  0.3347  0.2117  0.8892
  103SAPE   O3210458   5.812   5.389   2.830 -0.2336  0.3119  0.2215
  103SAPE   C3210459   5.799   5.392   3.070 -0.0231  0.3789 -0.6778
  103SAPE   H2X10460   5.809   5.494   3.112 -1.5563  0.0546  0.5353
  103SAPE   H2Y10461   5.901   5.347   3.076  0.1532  0.8639  0.1055
  103SAPE   C2310462   5.502   4.905   3.115  0.2788  0.6726 -0.3243
  103SAPE   H3R10463   5.583   4.929   3.187 -0.3152 -2.7201  1.6908
  103SAPE   H3S10464   5.541   4.840   3.034  0.8612 -0.9800  1.2247
  103SAPE   C2410465   5.392   4.824   3.190 -0.4082 -0.0365  0.0422
  103SAPE   H4R10466   5.437   4.730   3.227  0.2832  0.2094 -0.1457
  103SAPE   H4S10467   5.331   4.807   3.099 -0.4011  1.8824 -0.3745
  103SAPE   C2510468   5.322   4.886   3.305  0.2892 -0.5955 -0.6012
  103SAPE   H5R10469   5.227   4.933   3.276 -0.0634  0.0962  1.5119
  103SAPE   C2610470   5.334   4.866   3.433 -1.0766  1.0479 -0.1719
  103SAPE   H6R10471   5.268   4.925   3.499 -0.1283  1.6042  0.2971
  103SAPE   C2710472   5.444   4.783   3.496 -0.1403 -0.1710 -0.6526
  103SAPE   H7R10473   5.511   4.852   3.551 -3.6203  1.4020  2.0388
  103SAPE   H7S10474   5.497   4.728   3.415 -1.1570 -2.7720  0.3317
  103SAPE   C2810475   5.391   4.673   3.589 -0.6754  0.3594  0.0920
  103SAPE   H8R10476   5.306   4.615   3.551 -0.9975 -0.1136  1.4827
  103SAPE   C2910477   5.434   4.661   3.715  0.6314  0.3237 -0.4304
  103SAPE   H9R10478   5.389   4.582   3.776 -0.6835 -0.0663 -1.8466
  103SAPE  C21010479   5.524   4.756   3.792 -0.3679  0.3380  0.3698
  103SAPE  H10R10480   5.475   4.855   3.810  0.8681  0.8102  1.2221
  103SAPE  H10S10481   5.610   4.776   3.724 -1.4400  2.1287 -0.5718
  103SAPE  C21110482   5.566   4.703   3.927 -0.3632 -0.3637  0.2209
  103SAPE  H11R10483   5.668   4.661   3.918  0.9180  2.8054 -1.3604
  103SAPE  C21210484   5.502   4.690   4.041 -0.1619  0.2027 -0.2245
  103SAPE  H12R10485   5.545   4.625   4.119 -1.0439 -0.3671 -0.2005
  103SAPE  C21310486   5.363   4.739   4.073  0.2674  0.1236 -0.1029
  103SAPE  H13R10487   5.352   4.830   4.011 -0.9618  0.4697  0.5803
  103SAPE  H13S10488   5.359   4.778   4.177  0.6720 -2.2140  0.8576
  103SAPE  C21410489   5.244   4.647   4.049  0.2147 -0.4213  0.0601
  103SAPE  H14R10490   5.186   4.663   3.957 -0.5334  1.6508  0.8400
  103SAPE  C21510491   5.222   4.537   4.121 -0.3380  0.1090  1.0669
  103SAPE  H15R10492   5.140   4.469   4.094  1.4603 -1.2408 -1.4604
  103SAPE  C21610493   5.304   4.498   4.240 -0.4474  0.4779 -0.3069
  103SAPE  H16R10494   5.413   4.499   4.217 -0.3141  0.7190  0.3079
  103SAPE  H16S10495   5.286   4.390   4.260 -0.1695  0.4085 -0.4247
  103SAPE  C21710496   5.270   4.579   4.364  0.6110 -0.2151 -0.0552
  103SAPE  H17R10497   5.164   4.556   4.388  0.7919 -0.5984  0.3874
  103SAPE  H17S10498   5.278   4.689   4.347  0.0922  0.0033  1.0307
  103SAPE  C21810499   5.367   4.544   4.481 -0.2129 -0.3808 -0.2058
  103SAPE  H18R10500   5.344   4.438   4.507  0.3778 -0.7312 -1.0847
  103SAPE  H18S10501   5.345   4.604   4.572 -0.6068  1.0520 -1.2091
  103SAPE  C21910502   5.512   4.581   4.452 -0.1290 -0.4193 -0.2537
  103SAPE  H19R10503   5.521   4.684   4.411  3.2012  0.1251  1.4932
  103SAPE  H19S10504   5.553   4.504   4.385  1.2146 -1.8138  2.0289
  103SAPE  C22010505   5.608   4.569   4.574  0.0603 -1.0261  1.1499
  103SAPE  H20R10506   5.714   4.573   4.543 -0.7402 -0.2283 -1.7914
  103SAPE  H20S10507   5.596   4.472   4.626  0.5148 -1.3098  0.7313
  103SAPE  H20T10508   5.581   4.650   4.645 -1.3636 -0.1720 -0.2744
  103SAPE   C3310509   5.714   5.310   3.171 -0.1299 -0.4105 -0.2575
  103SAPE   H3X10510   5.696   5.205   3.139  4.0462 -1.2418 -0.4896
  103SAPE   H3Y10511   5.623   5.373   3.168 -0.8149 -1.2484  1.4437
  103SAPE   C3410512   5.769   5.292   3.309 -0.5584 -0.3731 -0.3382
  103SAPE   H4X10513   5.781   5.395   3.348  1.6349 -0.7009 -0.0381
  103SAPE   H4Y10514   5.865   5.237   3.303 -0.2849  0.2174 -2.1343
  103SAPE   C3510515   5.678   5.209   3.398  0.1891  0.2201  0.3922
  103SAPE   H5X10516   5.656   5.109   3.355 -1.8786  1.4242 -1.5718
  103SAPE   H5Y10517   5.574   5.247   3.408 -0.4036 -1.1204 -0.4527
  103SAPE   C3610518   5.753   5.189   3.538  0.2187 -0.2397  1.2892
  103SAPE   H6X10519   5.799   5.284   3.571 -1.3862  0.6076  1.1649
  103SAPE   H6Y10520   5.823   5.102   3.532 -0.6694 -0.8863 -1.2598
  103SAPE   C3710521   5.652   5.147   3.648  0.0144  0.3164  0.2435
  103SAPE   H7X10522   5.632   5.042   3.617 -0.4563  0.5165 -0.1374
  103SAPE   H7Y10523   5.560   5.208   3.638 -1.9747 -2.5969 -0.6769
  103SAPE   C3810524   5.715   5.160   3.787  0.0944 -0.4683 -0.5254
  103SAPE   H8X10525   5.703   5.267   3.814 -0.7164 -0.4001 -1.1336
  103SAPE   H8Y10526   5.822   5.136   3.769  0.3578  2.1144 -3.1353
  103SAPE   C3910527   5.664   5.075   3.902  0.4561 -0.1271  0.3877
  103SAPE   H9X10528   5.698   4.972   3.879 -0.8742 -0.7427  1.0390
  103SAPE   H9Y10529   5.554   5.076   3.888  0.5767  1.4654 -0.7238
  103SAPE  C31010530   5.705   5.123   4.037 -0.3768 -0.0746 -0.3270
  103SAPE  H10X10531   5.633   5.203   4.067 -1.2227 -1.1840  0.6537
  103SAPE  H10Y10532   5.805   5.170   4.046  0.1781 -1.5807  2.5232
  103SAPE  C31110533   5.713   5.013   4.146  0.1336 -0.3635  0.0915
  103SAPE  H11X10534   5.802   4.948   4.128 -1.4406 -2.5239 -0.3317
  103SAPE  H11Y10535   5.621   4.952   4.142  0.4348 -0.8447  0.3130
  103SAPE  C31210536   5.720   5.075   4.292 -0.2845  0.2594  0.2850
  103SAPE  H12X10537   5.630   5.135   4.316  1.8049  2.2823  4.0474
  103SAPE  H12Y10538   5.805   5.147   4.301  0.4263 -0.5671  0.3685
  103SAPE  C31310539   5.731   4.965   4.404  0.5079 -0.1407  0.3752
  103SAPE  H13X10540   5.811   4.889   4.391  0.0350 -0.9059  1.7003
  103SAPE  H13Y10541   5.633   4.914   4.402 -0.0877  0.8449  2.1490
  103SAPE  C31410542   5.748   5.023   4.542  0.7157 -0.6352  0.2188
  103SAPE  H14X10543   5.664   5.095   4.554 -0.6477 -1.9359 -1.1500
  103SAPE  H14Y10544   5.845   5.076   4.555  0.3721  0.0681 -0.0315
  103SAPE  C31510545   5.738   4.924   4.662  0.3449 -0.3227 -0.0134
  103SAPE  H15X10546   5.774   4.821   4.642  1.0861  0.0893 -0.8978
  103SAPE  H15Y10547   5.631   4.908   4.684  0.3511 -0.8943 -0.3662
  103SAPE  C31610548   5.808   4.991   4.779 -0.0975  0.1433  0.1119
  103SAPE  H16X10549   5.763   5.092   4.795 -2.0365 -0.8743  1.5638
  103SAPE  H16Y10550   5.913   5.011   4.750 -1.2442  0.8435 -4.3175
  103SAPE  C31710551   5.794   4.911   4.912 -0.0856  0.1498 -0.3277
  103SAPE  H17X10552   5.692   4.933   4.950 -0.1764  0.6443 -0.8393
  103SAPE  H17Y10553   5.869   4.952   4.983  0.3289  0.3067 -0.8490
  103SAPE  C31810554   5.811   4.759   4.895  0.0759  0.3646  0.2075
  103SAPE  H18X10555   5.905   4.726   4.845  0.1470 -3.5305  2.5179
  103SAPE  H18Y10556   5.725   4.735   4.829  0.6421  1.6805 -1.0625
  103SAPE  H18Z10557   5.809   4.704   4.992 -0.2041 -0.8386 -0.4525
  104SAPE     N10558   6.660   0.963   2.268 -0.0873 -0.1792  0.9083
  104SAPE   HN110559   6.670   0.996   2.170  1.8097 -1.3242  0.6605
  104SAPE   HN210560   6.751   0.980   2.316  0.0681 -0.0019  0.5563
  104SAPE   HN310561   6.650   0.859   2.271 -0.6911 -0.1298  0.6528
  104SAPE   C1210562   6.552   1.046   2.344 -0.4093  0.3796 -0.0969
  104SAPE  H12A10563   6.588   1.043   2.449  1.8644 -0.2551 -0.8356
  104SAPE  H12B10564   6.449   1.007   2.326 -0.5253  1.1721 -1.2988
  104SAPE   C1110565   6.557   1.192   2.297  0.2625  0.2670  0.1995
  104SAPE  H11A10566   6.660   1.226   2.321 -0.0105  0.8127  0.6102
  104SAPE  H11B10567   6.483   1.250   2.356 -0.7184 -0.5336 -0.2101
  104SAPE     P10568   6.445   1.315   2.094  0.1654 -0.4179  0.1785
  104SAPE   O1310569   6.495   1.337   1.957  0.2139 -0.3045  0.1786
  104SAPE   O1410570   6.305   1.268   2.108  0.2225 -0.2241  0.3570
  104SAPE   O1210571   6.544   1.214   2.163  0.1434 -0.4301  0.1483
  104SAPE   O1110572   6.454   1.448   2.179 -0.5433 -0.5526 -0.5383
  104SAPE    C110573   6.580   1.522   2.174  0.5534 -0.9024  0.0779
  104SAPE    HA10574   6.665   1.462   2.136  0.8085 -0.6070  0.1698
  104SAPE    HB10575   6.566   1.615   2.114 -0.6136  1.4222  3.6122
  104SAPE    C210576   6.624   1.576   2.316 -0.1065  0.0326 -0.1003
  104SAPE    HS10577   6.646   1.483   2.372  0.8884 -0.0819 -0.6500
  104SAPE   O2110578   6.515   1.645   2.376 -0.1553  0.0272  0.3969
  104SAPE   C2110579   6.510   1.638   2.506  0.0182  0.0420 -0.2036
  104SAPE   O2210580   6.590   1.578   2.578 -0.2490  0.0824  0.2578
  104SAPE   C2210581   6.376   1.692   2.554 -0.5951 -0.6693  0.0327
  104SAPE   H2R10582   6.398   1.762   2.638 -0.5014 -0.9851  0.2733
  104SAPE   H2S10583   6.338   1.767   2.482  1.5023  2.2744  1.7660
  104SAPE    C310584   6.746   1.676   2.299 -0.1315 -0.1596 -0.0918
  104SAPE    HX10585   6.711   1.778   2.270  2.6319  1.6421  2.3260
  104SAPE    HY10586   6.819   1.643   2.222 -0.3308 -1.5991  0.3013
  104SAPE   O3110587   6.833   1.695   2.410 -0.2354 -0.1001  0.1194
  104SAPE   C3110588   6.803   1.788   2.499 -0.3947  0.3462  0.1902
  104SAPE   O3210589   6.723   1.879   2.490 -0.1337  0.0894  0.3237
  104SAPE   C3210590   6.887   1.778   2.629 -0.0274 -0.0084  0.2548
  104SAPE   H2X10591   6.993   1.804   2.608  0.0852 -0.6587  0.0111
  104SAPE   H2Y10592   6.894   1.672   2.662 -0.8951  0.0411  0.6222
  104SAPE   C2310593   6.291   1.571   2.591 -0.0264  0.0650  0.2276
  104SAPE   H3R10594   6.351   1.487   2.633  1.1951 -0.4999 -2.4808
  104SAPE   H3S10595   6.245   1.528   2.500 -1.2774  1.0258  0.3788
  104SAPE   C2410596   6.186   1.606   2.702 -0.4689 -0.0365  0.4773
  104SAPE   H4R10597   6.108   1.528   2.691 -0.4162  0.0941 -0.9537
  104SAPE   H4S10598   6.134   1.702   2.682 -0.7343  0.0204  1.3829
  104SAPE   C2510599   6.243   1.615   2.847  0.0581 -0.2022  0.2743
  104SAPE   H5R10600   6.308   1.704   2.848 -1.5153  1.1086 -1.7666
  104SAPE   C2610601   6.232   1.538   2.955  0.1533  0.8840  0.1665
  104SAPE   H6R10602   6.273   1.572   3.051  0.0219  1.2038  0.1137
  104SAPE   C2710603   6.130   1.420   2.974  0.3871  0.0167  0.2057
  104SAPE   H7R10604   6.044   1.441   2.907  0.6320  3.9742  0.9046
  104SAPE   H7S10605   6.100   1.430   3.081  0.7905  0.1235  0.3117
  104SAPE   C2810606   6.188   1.286   2.948 -1.1699 -0.0934  0.3886
  104SAPE   H8R10607   6.239   1.269   2.852 -1.1442  0.6346  0.2663
  104SAPE   C2910608   6.184   1.175   3.034  0.2111 -0.3409 -1.0099
  104SAPE   H9R10609   6.229   1.079   3.006  0.1390 -0.5215 -0.5096
  104SAPE  C21010610   6.118   1.173   3.174 -0.3816  0.9556  0.5148
  104SAPE  H10R10611   6.042   1.094   3.161  2.1228 -1.6880  0.9982
  104SAPE  H10S10612   6.055   1.264   3.186 -1.2039  0.5543 -0.5365
  104SAPE  C21110613   6.204   1.162   3.295  0.6190 -0.3200 -0.0489
  104SAPE  H11R10614   6.310   1.184   3.275  1.4388 -0.2009  3.6269
  104SAPE  C21210615   6.164   1.133   3.425 -0.4180 -0.1103  0.5314
  104SAPE  H12R10616   6.241   1.131   3.503  2.3451 -0.8997 -2.0310
  104SAPE  C21310617   6.023   1.098   3.470  0.1446 -0.7214 -0.6598
  104SAPE  H13R10618   6.026   0.994   3.510 -0.0543 -0.0696  1.1625
  104SAPE  H13S10619   5.946   1.082   3.391 -0.9493 -0.4946  0.3353
  104SAPE  C21410620   5.980   1.198   3.571 -0.4742  0.3028  0.6417
  104SAPE  H14R10621   6.056   1.211   3.649  1.2557  1.2329 -1.1294
  104SAPE  C21510622   5.867   1.264   3.575 -0.9213  0.8528  0.5196
  104SAPE  H15R10623   5.864   1.331   3.662  2.5529  2.4951 -0.4144
  104SAPE  C21610624   5.750   1.262   3.479  0.0046 -0.1808  0.0595
  104SAPE  H16R10625   5.661   1.279   3.544 -0.8524 -1.0417 -0.8581
  104SAPE  H16S10626   5.737   1.157   3.445 -1.7793 -0.4042  1.2652
  104SAPE  C21710627   5.755   1.368   3.369  0.0105  0.4687 -0.7881
  104SAPE  H17R10628   5.838   1.347   3.299 -1.3759 -2.5849 -1.7053
  104SAPE  H17S10629   5.764   1.468   3.417  0.4117  0.0732 -0.0113
  104SAPE  C21810630   5.625   1.346   3.287  0.4002  0.0674  0.1014
  104SAPE  H18R10631   5.534   1.350   3.350 -2.4319 -2.1726 -3.3893
  104SAPE  H18S10632   5.630   1.239   3.256  2.6212  0.0718  0.2579
  104SAPE  C21910633   5.611   1.435   3.160 -0.0556 -0.5165 -0.1602
  104SAPE  H19R10634   5.690   1.410   3.086  0.6168  0.0360  0.3501
  104SAPE  H19S10635   5.630   1.540   3.188 -1.2865 -0.2121 -0.4417
  104SAPE  C22010636   5.486   1.413   3.083  0.3926  0.7420  0.3546
  104SAPE  H20R10637   5.485   1.306   3.053  2.3792  0.6404  0.5165
  104SAPE  H20S10638   5.476   1.476   2.993  0.1952 -0.8469 -0.7840
  104SAPE  H20T10639   5.399   1.424   3.152 -1.3382 -0.5725 -1.4996
  104SAPE   C3310640   6.826   1.856   2.745 -0.6159  0.8045  0.0681
  104SAPE   H3X10641   6.715   1.855   2.756 -0.6481  1.0270 -0.2237
  104SAPE   H3Y10642   6.851   1.964   2.735 -0.3042  0.6075 -1.5792
  104SAPE   C3410643   6.878   1.799   2.874  0.0088  0.8294  0.4496
  104SAPE   H4X10644   6.989   1.806   2.878  0.0709  2.8951 -2.3137
  104SAPE   H4Y10645   6.847   1.693   2.886 -0.2350  0.8373 -0.1106
  104SAPE   C3510646   6.800   1.859   2.998 -0.3224  0.5536  0.8133
  104SAPE   H5X10647   6.694   1.870   2.967 -0.6018  1.7965  2.0852
  104SAPE   H5Y10648   6.841   1.961   3.010 -1.4859  0.9009  2.0063
  104SAPE   C3610649   6.828   1.768   3.119  0.5610  0.5546  0.4751
  104SAPE   H6X10650   6.935   1.739   3.112  0.6210  0.8628  0.0216
  104SAPE   H6Y10651   6.771   1.675   3.100  0.0442  1.0716 -0.6564
  104SAPE   C3710652   6.788   1.813   3.259 -0.4355 -0.4239 -0.4187
  104SAPE   H7X10653   6.682   1.846   3.249 -0.0975  1.4145  1.4647
  104SAPE   H7Y10654   6.851   1.902   3.277  0.5259 -0.9140 -1.2580
  104SAPE   C3810655   6.806   1.704   3.363  0.3418  0.3165 -0.5213
  104SAPE   H8X10656   6.911   1.668   3.368  0.4523  0.8024  1.5677
  104SAPE   H8Y10657   6.751   1.616   3.322  0.4627 -0.3860  0.7647
  104SAPE   C3910658   6.735   1.741   3.491 -0.5766  0.4068  0.3717
  104SAPE   H9X10659   6.631   1.778   3.476 -0.8262 -0.3027  0.3137
  104SAPE   H9Y10660   6.787   1.826   3.539  0.0840 -1.0619  2.3765
  104SAPE  C31010661   6.706   1.629   3.587  0.0136  0.3302 -0.5805
  104SAPE  H10X10662   6.667   1.533   3.548  3.0278 -1.6513  0.8102
  104SAPE  H10Y10663   6.628   1.668   3.655 -0.3591  0.8235 -1.2831
  104SAPE  C31110664   6.822   1.583   3.669  0.2403 -0.0239  0.4571
  104SAPE  H11X10665   6.901   1.656   3.698  0.0109 -0.6969  2.9697
  104SAPE  H11Y10666   6.878   1.524   3.593  0.1010  1.0078 -0.4876
  104SAPE  C31210667   6.779   1.494   3.788 -0.5987 -1.1126  0.0206
  104SAPE  H12X10668   6.718   1.412   3.745  2.2735 -1.7746 -3.1844
  104SAPE  H12Y10669   6.715   1.560   3.851  0.0894 -1.7331  1.3997
  104SAPE  C31310670   6.892   1.449   3.876  0.1960 -1.1467  0.0764
  104SAPE  H13X10671   6.952   1.538   3.905  0.4452 -0.8326 -1.3504
  104SAPE  H13Y10672   6.957   1.392   3.807 -0.3119  0.6434 -1.9938
  104SAPE  C31410673   6.865   1.361   3.997  0.1694  0.4948 -0.1540
  104SAPE  H14X10674   6.957   1.318   4.042 -0.4077 -0.1363  0.4516
  104SAPE  H14Y10675   6.789   1.289   3.960  0.3259 -0.0377  0.5410
  104SAPE  C31510676   6.810   1.439   4.113  0.5007 -0.0273 -0.5305
  104SAPE  H15X10677   6.709   1.481   4.092 -0.0722 -1.0141  0.1837
  104SAPE  H15Y10678   6.886   1.514   4.143 -1.4186  1.1525  1.6419
  104SAPE  C31610679   6.780   1.348   4.237  0.0195 -0.5459  0.5678
  104SAPE  H16X10680   6.871   1.297   4.276  1.1868  1.2794  0.3409
  104SAPE  H16Y10681   6.696   1.279   4.216 -1.1487  1.5965 -2.6153
  104SAPE  C31710682   6.725   1.428   4.361 -0.7338  0.4057  0.3949
  104SAPE  H17X10683   6.626   1.468   4.331  0.0445  0.7244 -1.9578
  104SAPE  H17Y10684   6.792   1.515   4.380  0.7519 -0.6934  0.3642
  104SAPE  C31810685   6.725   1.335   4.482 -0.3093  0.2344  0.1101
  104SAPE  H18X10686   6.823   1.284   4.494 -0.1916 -0.7453 -3.6065
  104SAPE  H18Y10687   6.651   1.257   4.453 -0.3734  0.1695  0.4445
  104SAPE  H18Z10688   6.674   1.371   4.573 -2.4108 -0.9960 -0.4969
  105SAPE     N10689   6.034   1.659   2.019 -0.2173  0.0011 -0.0010
  105SAPE   HN110690   6.071   1.576   1.967  0.8532  0.1407  0.5061
  105SAPE   HN210691   6.092   1.673   2.104  0.1213 -0.0137 -0.2238
  105SAPE   HN310692   5.938   1.634   2.047  0.1721 -3.7939 -1.3557
  105SAPE   C1210693   6.045   1.773   1.917  0.7312  0.4708  0.0779
  105SAPE  H12A10694   5.978   1.749   1.832  0.2875  3.5478 -0.5503
  105SAPE  H12B10695   6.147   1.787   1.874  1.5110 -1.5140  1.0931
  105SAPE   C1110696   6.002   1.908   1.964 -1.1279 -0.4549  0.1556
  105SAPE  H11A10697   5.892   1.908   1.977 -1.0067 -0.0717  1.2662
  105SAPE  H11B10698   6.019   1.982   1.883  1.4390 -0.7220  0.3793
  105SAPE     P10699   6.127   2.077   2.109 -0.0300 -0.0476  0.1030
  105SAPE   O1310700   6.272   2.061   2.083  0.0544 -0.1706  0.5966
  105SAPE   O1410701   6.058   2.183   2.031  0.5756 -0.7596  0.1274
  105SAPE   O1210702   6.064   1.942   2.089  0.1740  0.2596  0.0655
  105SAPE   O1110703   6.115   2.101   2.268 -0.2749  0.7171 -0.0545
  105SAPE    C110704   5.991   2.065   2.328 -0.7830 -0.1322  0.4185
  105SAPE    HA10705   5.964   2.150   2.394 -1.9485 -1.6750  2.0158
  105SAPE    HB10706   5.910   2.054   2.253 -0.0884 -1.8842 -0.1282
  105SAPE    C210707   5.992   1.949   2.432 -0.5694 -0.2067  0.3045
  105SAPE    HS10708   5.895   1.963   2.484  0.5670 -0.0863  2.5131
  105SAPE   O2110709   6.109   1.961   2.508  0.6970  0.1681 -0.4052
  105SAPE   C2110710   6.082   2.016   2.627  0.1914 -0.2041 -0.3350
  105SAPE   O2210711   5.974   2.040   2.669  0.5894 -0.0879  0.2284
  105SAPE   C2210712   6.215   2.030   2.702  0.7596  0.4509 -1.0437
  105SAPE   H2R10713   6.289   1.953   2.671  1.3052  1.1041 -1.4060
  105SAPE   H2S10714   6.257   2.132   2.689  0.2628  0.7260 -0.5106
  105SAPE    C310715   5.989   1.806   2.370  0.4365 -0.0717  0.1298
  105SAPE    HX10716   6.097   1.783   2.362  0.2505 -0.3433 -2.0525
  105SAPE    HY10717   5.948   1.819   2.268 -0.4952  3.3044  0.7800
  105SAPE   O3110718   5.899   1.717   2.442 -0.1642 -0.2673 -0.0752
  105SAPE   C3110719   5.920   1.582   2.432 -0.6643 -0.3531  0.2615
  105SAPE   O3210720   6.008   1.532   2.366  0.3558  0.3073  0.1803
  105SAPE   C3210721   5.819   1.491   2.506  0.5624 -0.0985 -0.0597
  105SAPE   H2X10722   5.794   1.413   2.431  0.1257  0.0089 -0.0277
  105SAPE   H2Y10723   5.728   1.549   2.529  0.2241  0.4172 -2.4306
  105SAPE   C2310724   6.218   2.008   2.860  0.2220  0.1528  0.5693
  105SAPE   H3R10725   6.162   1.913   2.866 -0.8022  0.3960 -2.7997
  105SAPE   H3S10726   6.154   2.081   2.914 -2.6738  0.7605 -3.2373
  105SAPE   C2410727   6.351   1.986   2.920  0.8510  0.0568  0.2301
  105SAPE   H4R10728   6.395   1.894   2.877 -0.4714 -0.6045  0.2481
  105SAPE   H4S10729   6.348   1.958   3.027  1.1233 -1.8260 -0.2200
  105SAPE   C2510730   6.445   2.103   2.893  0.3178 -0.5188 -0.1887
  105SAPE   H5R10731   6.491   2.100   2.793 -3.2366  0.8613 -2.0422
  105SAPE   C2610732   6.471   2.212   2.963  0.2823  0.3199 -0.6456
  105SAPE   H6R10733   6.548   2.280   2.923  1.0902  0.5578  1.2305
  105SAPE   C2710734   6.416   2.244   3.100  0.1976 -0.8643  0.7665
  105SAPE   H7R10735   6.311   2.206   3.097  0.0602 -0.4469 -2.0817
  105SAPE   H7S10736   6.409   2.353   3.115 -2.4154 -0.3968 -2.7619
  105SAPE   C2810737   6.486   2.177   3.220  0.2124 -0.2373 -1.1881
  105SAPE   H8R10738   6.517   2.072   3.206  1.6112 -0.1497  0.8464
  105SAPE   C2910739   6.502   2.237   3.343  0.3671  0.7977  0.4770
  105SAPE   H9R10740   6.553   2.176   3.420 -2.1232 -1.3093  0.5868
  105SAPE  C21010741   6.466   2.376   3.389 -0.3585  0.4504  0.2702
  105SAPE  H10R10742   6.409   2.360   3.483 -0.6963  1.2871  0.2185
  105SAPE  H10S10743   6.388   2.427   3.329 -0.8926  1.3130  1.6645
  105SAPE  C21110744   6.592   2.467   3.408 -0.2412  0.1253 -0.1010
  105SAPE  H11R10745   6.651   2.496   3.320  0.0161 -1.2850 -0.4119
  105SAPE  C21210746   6.648   2.499   3.533 -0.5938 -0.2016  0.1030
  105SAPE  H12R10747   6.736   2.565   3.540 -1.6207  1.1876  0.3598
  105SAPE  C21310748   6.607   2.461   3.672 -0.5037 -0.1270 -0.1763
  105SAPE  H13R10749   6.667   2.520   3.745 -0.0644  1.3839 -1.7001
  105SAPE  H13S10750   6.620   2.353   3.695  0.2887 -0.0541 -0.2430
  105SAPE  C21410751   6.467   2.505   3.695 -0.1074 -0.5771 -0.1476
  105SAPE  H14R10752   6.434   2.594   3.638  0.0405 -1.8918 -2.3941
  105SAPE  C21510753   6.383   2.453   3.786  0.3214  0.5433 -0.4727
  105SAPE  H15R10754   6.292   2.511   3.807  1.2104  0.9808  2.5615
  105SAPE  C21610755   6.406   2.328   3.865 -0.1939  0.0811  0.1421
  105SAPE  H16R10756   6.336   2.309   3.949 -0.3216  2.9627  0.7638
  105SAPE  H16S10757   6.503   2.349   3.915  1.3750  1.5676 -3.2106
  105SAPE  C21710758   6.414   2.189   3.787 -0.2765 -0.2890  0.1104
  105SAPE  H17R10759   6.491   2.195   3.708  1.5531  0.5981  1.8637
  105SAPE  H17S10760   6.311   2.181   3.746 -0.4290 -1.9326  0.7223
  105SAPE  C21810761   6.459   2.068   3.872  0.2612  0.5420  0.2406
  105SAPE  H18R10762   6.397   2.059   3.964 -0.6432  3.1945 -0.0249
  105SAPE  H18S10763   6.561   2.072   3.918  0.1010 -2.8787  1.1722
  105SAPE  C21910764   6.446   1.930   3.799 -0.1525  0.6453  0.0684
  105SAPE  H19R10765   6.495   1.853   3.862  2.7681  2.3844  0.1218
  105SAPE  H19S10766   6.500   1.940   3.702 -0.1510 -1.8389 -0.2324
  105SAPE  C22010767   6.302   1.892   3.765 -0.1660 -0.0639 -0.1287
  105SAPE  H20R10768   6.245   1.885   3.860 -0.8781  0.6447 -0.4942
  105SAPE  H20S10769   6.290   1.801   3.702 -0.5703  1.2078 -1.9607
  105SAPE  H20T10770   6.259   1.970   3.698  3.2305  1.8919 -0.2663
  105SAPE   C3310771   5.869   1.429   2.640  0.3025 -0.1487 -0.2678
  105SAPE   H3X10772   5.880   1.518   2.706 -0.4864  0.6333 -1.1576
  105SAPE   H3Y10773   5.971   1.385   2.630  1.1656  0.8333  2.9718
  105SAPE   C3410774   5.769   1.323   2.698  0.1537  0.5313 -0.4245
  105SAPE   H4X10775   5.751   1.238   2.628  0.0156 -0.6439  0.9788
  105SAPE   H4Y10776   5.666   1.361   2.713 -0.5632 -1.3414 -0.3198
  105SAPE   C3510777   5.813   1.265   2.832 -0.6860  1.1445 -0.2059
  105SAPE   H5X10778   5.798   1.341   2.913 -3.9561 -2.0543  2.5241
  105SAPE   H5Y10779   5.919   1.233   2.820 -0.2116  2.9627 -1.1783
  105SAPE   C3610780   5.726   1.145   2.884 -0.0031 -0.7767  0.1734
  105SAPE   H6X10781   5.723   1.062   2.810 -0.4517 -0.2778 -0.3821
  105SAPE   H6Y10782   5.623   1.185   2.901 -0.1619 -1.6601  1.4412
  105SAPE   C3710783   5.788   1.081   3.007  0.0810 -0.3350 -0.0501
  105SAPE   H7X10784   5.806   1.159   3.085  0.6246 -2.1775  1.7446
  105SAPE   H7Y10785   5.881   1.034   2.969  0.7151  0.7282  0.1528
  105SAPE   C3810786   5.701   0.964   3.060  1.0335  1.4174 -0.5590
  105SAPE   H8X10787   5.716   0.881   2.988 -2.6420 -0.2782  0.3990
  105SAPE   H8Y10788   5.596   0.997   3.051 -0.0747 -1.4384  0.4927
  105SAPE   C3910789   5.718   0.920   3.211 -0.8388 -0.0021  0.7246
  105SAPE   H9X10790   5.725   1.019   3.263 -0.4253  1.5910 -2.1703
  105SAPE   H9Y10791   5.820   0.878   3.224 -1.5953 -1.6316  1.6809
  105SAPE  C31010792   5.611   0.837   3.272 -0.3519 -0.0324  0.3573
  105SAPE  H10X10793   5.627   0.737   3.225  0.3659  0.1838  0.1255
  105SAPE  H10Y10794   5.507   0.859   3.238  0.5103 -0.2521 -2.7642
  105SAPE  C31110795   5.605   0.830   3.426  0.5719  0.7025 -0.7900
  105SAPE  H11X10796   5.538   0.745   3.453  2.2614 -0.2987  0.5040
  105SAPE  H11Y10797   5.566   0.924   3.469  0.4296  0.5921 -0.6770
  105SAPE  C31210798   5.736   0.791   3.488 -0.4724  0.0036  0.5850
  105SAPE  H12X10799   5.803   0.880   3.483  0.8500 -0.9435  0.9541
  105SAPE  H12Y10800   5.776   0.697   3.444 -1.3436  0.3094 -0.9294
  105SAPE  C31310801   5.720   0.767   3.638  0.1051  0.2876 -0.4344
  105SAPE  H13X10802   5.642   0.688   3.650 -0.3103  0.6620 -0.6164
  105SAPE  H13Y10803   5.684   0.862   3.683 -0.6264  0.0592 -0.5193
  105SAPE  C31410804   5.854   0.728   3.705  0.0010 -0.4825  0.1052
  105SAPE  H14X10805   5.938   0.801   3.704  0.8775 -1.3211  2.8734
  105SAPE  H14Y10806   5.879   0.627   3.665 -1.3345 -1.3762  1.4311
  105SAPE  C31510807   5.827   0.699   3.854  0.1253  0.4924  0.4719
  105SAPE  H15X10808   5.920   0.654   3.894  2.4189  2.6832 -2.0196
  105SAPE  H15Y10809   5.743   0.627   3.868  0.0054  0.3825 -0.7067
  105SAPE  C31610810   5.813   0.823   3.941 -0.2386  0.4073  0.6400
  105SAPE  H16X10811   5.803   0.791   4.047 -1.9539  0.7131  0.5858
  105SAPE  H16Y10812   5.726   0.884   3.911  0.0560  0.5488  0.0596
  105SAPE  C31710813   5.938   0.912   3.951 -0.5982 -1.0778  0.0902
  105SAPE  H17X10814   5.982   0.953   3.858  3.1710 -0.4872  1.9203
  105SAPE  H17Y10815   6.016   0.851   4.002 -0.9605 -1.6274 -0.0036
  105SAPE  C31810816   5.924   1.032   4.043 -0.1036  0.1396  0.1691
  105SAPE  H18X10817   6.024   1.074   4.068  1.1993 -2.2662 -0.6828
  105SAPE  H18Y10818   5.871   0.998   4.134  1.9208 -0.2054  1.2873
  105SAPE  H18Z10819   5.851   1.107   4.005 -2.9565 -0.3937  4.0002
  106SAPE     N10820   2.602   2.904   2.043  0.2589  0.5952 -0.0997
  106SAPE   HN110821   2.658   2.888   1.957  1.5314 -0.1296  0.8207
  106SAPE   HN210822   2.503   2.880   2.027  0.2961  0.1203  0.3599
  106SAPE   HN310823   2.612   3.006   2.060  1.5345  0.4863 -0.1202
  106SAPE   C1210824   2.651   2.828   2.158  0.0202 -0.0245 -0.2833
  106SAPE  H12A10825   2.655   2.721   2.130 -2.3668 -0.5518  1.0647
  106SAPE  H12B10826   2.575   2.825   2.239 -1.1222  0.6147 -1.2881
  106SAPE   C1110827   2.786   2.867   2.214 -0.3844 -0.5268  0.6559
  106SAPE  H11A10828   2.807   2.804   2.304  1.5306  1.3966  1.6469
  106SAPE  H11B10829   2.791   2.974   2.241 -1.1060 -0.3294  0.0471
  106SAPE     P10830   2.966   2.716   2.094 -0.0725  0.2864 -0.0156
  106SAPE   O1310831   2.898   2.635   1.991 -0.0533 -0.2055 -0.1709
  106SAPE   O1410832   3.103   2.758   2.063  0.1708 -0.6374 -0.3574
  106SAPE   O1210833   2.883   2.843   2.113 -0.0484  0.2616  0.3760
  106SAPE   O1110834   2.954   2.648   2.237  0.0246 -0.0726  0.0105
  106SAPE    C110835   3.030   2.525   2.249  0.2060 -0.4082 -0.3007
  106SAPE    HA10836   3.063   2.483   2.152 -1.7206  0.7565 -1.5221
  106SAPE    HB10837   3.125   2.551   2.302  0.0311  0.6841 -0.4990
  106SAPE    C210838   2.960   2.412   2.333 -0.0333  0.4831  0.0679
  106SAPE    HS10839   2.855   2.397   2.298 -0.9175 -2.2273  3.3535
  106SAPE   O2110840   2.969   2.451   2.471 -0.2137 -0.0245 -0.2916
  106SAPE   C2110841   2.883   2.538   2.510 -0.2517  0.7579 -0.3497
  106SAPE   O2210842   2.784   2.572   2.441 -0.3399 -0.0549  0.3922
  106SAPE   C2210843   2.929   2.589   2.650 -0.3061 -0.4387 -0.3369
  106SAPE   H2R10844   2.844   2.638   2.701 -1.8314 -1.3983 -1.8511
  106SAPE   H2S10845   2.949   2.499   2.711 -0.6487 -0.6575 -0.5420
  106SAPE    C310846   3.030   2.279   2.330  0.1649 -0.1525  0.4872
  106SAPE    HX10847   3.019   2.252   2.223  0.6674 -2.3774  0.9408
  106SAPE    HY10848   2.968   2.207   2.388 -1.5623  0.8206 -0.0772
  106SAPE   O3110849   3.163   2.291   2.385  0.3945 -0.4161  0.4845
  106SAPE   C3110850   3.253   2.214   2.330  0.0523  0.0516 -0.2371
  106SAPE   O3210851   3.230   2.131   2.243  0.2133  0.0183  0.7210
  106SAPE   C3210852   3.393   2.231   2.387 -0.4781  0.0322 -0.5906
  106SAPE   H2X10853   3.447   2.317   2.342  2.5868 -0.8413  1.1326
  106SAPE   H2Y10854   3.448   2.147   2.339  3.7083  1.7212  0.7772
  106SAPE   C2310855   3.053   2.683   2.633  0.5163  0.3003 -0.0068
  106SAPE   H3R10856   3.021   2.787   2.608 -1.8259 -0.7578 -1.7542
  106SAPE   H3S10857   3.116   2.643   2.551 -0.7799  0.3988 -1.0755
  106SAPE   C2410858   3.150   2.688   2.751 -0.3843  0.1033 -1.1153
  106SAPE   H4R10859   3.238   2.752   2.726  1.1977 -1.8720 -0.8546
  106SAPE   H4S10860   3.194   2.590   2.779 -2.9159 -0.4247  1.5064
  106SAPE   C2510861   3.070   2.751   2.861  0.6887 -0.4750 -0.0866
  106SAPE   H5R10862   3.015   2.840   2.826 -0.5693 -0.5592  1.5351
  106SAPE   C2610863   3.051   2.698   2.985 -0.3241  0.0341 -0.0141
  106SAPE   H6R10864   3.002   2.761   3.062 -2.1442 -1.1853 -0.1170
  106SAPE   C2710865   3.111   2.570   3.044 -0.3325 -0.1856 -0.3578
  106SAPE   H7R10866   3.221   2.578   3.039 -0.4244  1.1276 -0.6375
  106SAPE   H7S10867   3.078   2.481   2.986  0.4178 -0.1856 -0.7877
  106SAPE   C2810868   3.073   2.538   3.192  0.5140  0.6576 -0.2256
  106SAPE   H8R10869   3.016   2.443   3.194 -0.1817  0.9286 -3.1931
  106SAPE   C2910870   3.099   2.611   3.301  0.1434  0.0187  0.9560
  106SAPE   H9R10871   3.060   2.582   3.400 -0.3721 -0.0443  0.7368
  106SAPE  C21010872   3.177   2.744   3.298 -0.3651  0.5817 -0.1618
  106SAPE  H10R10873   3.193   2.775   3.193 -0.4294  0.8483 -0.0914
  106SAPE  H10S10874   3.283   2.728   3.329 -0.1085  1.9279 -0.2907
  106SAPE  C21110875   3.107   2.852   3.362  0.0791 -0.5925  0.3291
  106SAPE  H11R10876   3.018   2.892   3.311 -0.1984  0.2383  1.4412
  106SAPE  C21210877   3.113   2.867   3.492 -0.1575 -0.2154 -0.3914
  106SAPE  H12R10878   3.050   2.943   3.538 -1.0064 -0.6053 -0.8868
  106SAPE  C21310879   3.209   2.804   3.586  0.0589 -0.0211 -0.2986
  106SAPE  H13R10880   3.266   2.889   3.629 -1.8361  0.8235  0.6838
  106SAPE  H13S10881   3.280   2.732   3.541 -1.1205 -1.2959 -0.1797
  106SAPE  C21410882   3.137   2.729   3.694  0.3656  0.5533  0.4975
  106SAPE  H14R10883   3.128   2.621   3.679  0.3753  0.5996  0.1553
  106SAPE  C21510884   3.091   2.775   3.811 -0.0722 -1.0363 -0.1524
  106SAPE  H15R10885   3.032   2.704   3.871 -1.1036 -0.2246 -0.1843
  106SAPE  C21610886   3.098   2.923   3.858  0.1777 -0.0540 -0.0292
  106SAPE  H16R10887   3.020   2.954   3.932 -1.4878  0.3916 -1.8717
  106SAPE  H16S10888   3.092   2.995   3.774 -1.4709  1.1934  1.0795
  106SAPE  C21710889   3.241   2.945   3.918  0.4780 -0.2615 -0.1088
  106SAPE  H17R10890   3.254   3.053   3.942 -3.7946  0.2709  0.5422
  106SAPE  H17S10891   3.317   2.911   3.844 -1.2401  0.2168 -2.1936
  106SAPE  C21810892   3.260   2.866   4.044  0.5999  0.1016 -0.2159
  106SAPE  H18R10893   3.363   2.878   4.084  0.3581 -1.8899  1.1814
  106SAPE  H18S10894   3.252   2.759   4.012 -2.3684  0.6390 -1.6343
  106SAPE  C21910895   3.155   2.877   4.163 -0.3569  0.3806  0.0603
  106SAPE  H19R10896   3.062   2.830   4.123 -0.3158  0.9486 -0.7196
  106SAPE  H19S10897   3.133   2.983   4.187  0.5328  0.7446 -0.6763
  106SAPE  C22010898   3.204   2.809   4.293  0.0739 -0.5972  0.3972
  106SAPE  H20R10899   3.244   2.705   4.290  0.4711 -0.4251 -0.6643
  106SAPE  H20S10900   3.121   2.809   4.367 -0.8190  1.0686 -0.5443
  106SAPE  H20T10901   3.284   2.875   4.332  0.6970 -0.6855 -0.6766
  106SAPE   C3310902   3.400   2.233   2.545  0.0664  0.0373 -0.2455
  106SAPE   H3X10903   3.499   2.196   2.580 -0.9234 -2.7695 -0.1807
  106SAPE   H3Y10904   3.331   2.155   2.585  1.3820 -0.7950  0.4876
  106SAPE   C3410905   3.382   2.372   2.606  0.3741 -0.2064  0.2596
  106SAPE   H4X10906   3.297   2.415   2.549  1.9336  1.3373 -1.0370
  106SAPE   H4Y10907   3.474   2.422   2.569 -0.4137  1.7508  0.8086
  106SAPE   C3510908   3.383   2.374   2.758 -0.1972 -0.4545 -0.0923
  106SAPE   H5X10909   3.437   2.281   2.784 -3.1063 -2.4232 -0.5863
  106SAPE   H5Y10910   3.283   2.388   2.803  0.3625 -1.9916  1.7472
  106SAPE   C3610911   3.477   2.493   2.797 -0.1812  0.2987  0.0241
  106SAPE   H6X10912   3.429   2.592   2.780 -0.1669  0.5231  1.2144
  106SAPE   H6Y10913   3.575   2.497   2.746  0.8755  0.7530  1.9821
  106SAPE   C3710914   3.510   2.475   2.943  0.2542 -0.2420  0.2880
  106SAPE   H7X10915   3.583   2.396   2.969 -1.6360 -1.5584  1.8661
  106SAPE   H7Y10916   3.417   2.448   2.998  1.2627 -0.1329  2.1130
  106SAPE   C3810917   3.556   2.611   3.002 -0.1005 -0.1279  0.0736
  106SAPE   H8X10918   3.496   2.695   2.961 -1.9149 -0.0212  2.7204
  106SAPE   H8Y10919   3.661   2.632   2.971 -0.9122  1.8021 -1.5800
  106SAPE   C3910920   3.565   2.616   3.161  0.0551 -0.5907  0.4647
  106SAPE   H9X10921   3.464   2.611   3.206 -1.4007 -0.5763 -2.5449
  106SAPE   H9Y10922   3.612   2.713   3.189 -0.4141 -0.1763 -0.1597
  106SAPE  C31010923   3.663   2.511   3.211  0.1061  0.3326 -0.2688
  106SAPE  H10X10924   3.762   2.508   3.160  0.7841  0.0110  1.0239
  106SAPE  H10Y10925   3.627   2.407   3.196 -3.3229  1.4871 -0.8897
  106SAPE  C31110926   3.691   2.531   3.364 -0.0555 -0.0956  0.1762
  106SAPE  H11X10927   3.733   2.633   3.371  0.5195 -0.3967  1.3318
  106SAPE  H11Y10928   3.777   2.464   3.388 -0.2678 -1.3979 -2.3639
  106SAPE  C31210929   3.573   2.512   3.462  0.2573  0.8881 -0.5743
  106SAPE  H12X10930   3.570   2.404   3.487 -0.4406  0.7170 -1.3305
  106SAPE  H12Y10931   3.477   2.535   3.410 -0.8866 -1.6618  0.2674
  106SAPE  C31310932   3.592   2.591   3.596  0.0780 -0.6858 -0.4005
  106SAPE  H13X10933   3.561   2.693   3.567  4.1816  0.0633 -2.9907
  106SAPE  H13Y10934   3.698   2.593   3.628 -0.3798 -0.1922  1.1251
  106SAPE  C31410935   3.500   2.546   3.718  0.2770  0.2966 -0.8894
  106SAPE  H14X10936   3.539   2.450   3.758 -1.9900 -0.4742 -0.3749
  106SAPE  H14Y10937   3.398   2.516   3.687  1.0359 -1.9207 -1.4201
  106SAPE  C31510938   3.499   2.639   3.839  0.0583 -0.6480  0.0943
  106SAPE  H15X10939   3.428   2.597   3.913  0.8166  1.4039  2.0747
  106SAPE  H15Y10940   3.450   2.733   3.805 -0.2354 -0.6005  0.6430
  106SAPE  C31610941   3.639   2.665   3.891  0.2702 -0.7520  0.3051
  106SAPE  H16X10942   3.705   2.697   3.808  0.8748  0.2553  1.1503
  106SAPE  H16Y10943   3.692   2.574   3.927 -0.4247 -1.4903 -0.5053
  106SAPE  C31710944   3.652   2.775   3.994  0.4679 -0.2068 -0.3926
  106SAPE  H17X10945   3.752   2.776   4.043 -0.3087  2.8161  1.3748
  106SAPE  H17Y10946   3.573   2.751   4.069 -0.7329 -1.4070 -1.9659
  106SAPE  C31810947   3.631   2.916   3.941  0.2273  0.5576  0.2452
  106SAPE  H18X10948   3.532   2.922   3.893  0.0998 -0.9796  0.2563
  106SAPE  H18Y10949   3.708   2.946   3.866  0.4799 -2.0292 -0.6426
  106SAPE  H18Z10950   3.643   2.991   4.023 -0.2274 -1.3512  2.1662
  107SAPE     N10951   5.338   1.358   2.151 -0.8980  0.7608 -0.0276
  107SAPE   HN110952   5.302   1.429   2.084 -1.1140  0.9827  0.3177
  107SAPE   HN210953   5.382   1.411   2.229 -1.1764 -1.1838  1.5155
  107SAPE   HN310954   5.413   1.302   2.106 -2.3526  0.0223 -1.6232
  107SAPE   C1210955   5.232   1.287   2.224 -0.5943 -0.2982 -0.1179
  107SAPE  H12A10956   5.278   1.202   2.278 -0.2421  0.0985  0.2205
  107SAPE  H12B10957   5.150   1.263   2.153 -1.8025  1.0842  0.7437
  107SAPE   C1110958   5.165   1.386   2.322 -0.4745 -0.7425  0.3766
  107SAPE  H11A10959   5.240   1.402   2.402 -0.1785  1.1011 -0.2144
  107SAPE  H11B10960   5.079   1.332   2.367 -0.0745 -0.8644  1.0073
  107SAPE     P10961   5.030   1.548   2.169  0.1585 -0.0134  0.1846
  107SAPE   O1310962   5.003   1.691   2.144  0.2926 -0.0241  0.0895
  107SAPE   O1410963   5.072   1.470   2.052 -0.1961  0.6278 -0.4152
  107SAPE   O1210964   5.143   1.527   2.278  0.5637 -0.2233  0.3901
  107SAPE   O1110965   4.912   1.478   2.249 -0.1188  0.5599  0.0001
  107SAPE    C110966   4.835   1.557   2.339  0.5601  0.0535  0.2966
  107SAPE    HA10967   4.808   1.657   2.299 -2.1153 -0.4902  0.5628
  107SAPE    HB10968   4.737   1.505   2.349  0.1022  0.8950  0.2018
  107SAPE    C210969   4.887   1.554   2.480 -0.2431 -0.3197 -0.5067
  107SAPE    HS10970   4.994   1.584   2.474  0.3075 -0.8307  3.5942
  107SAPE   O2110971   4.869   1.426   2.539  0.0070  0.9488 -0.4917
  107SAPE   C2110972   4.954   1.389   2.630 -0.0543 -0.0974 -0.7496
  107SAPE   O2210973   5.045   1.459   2.674  0.2471 -0.1005 -0.3045
  107SAPE   C2210974   4.927   1.248   2.672  0.1881 -0.1062 -0.4350
  107SAPE   H2R10975   4.824   1.215   2.646 -0.0242 -0.2246  0.5183
  107SAPE   H2S10976   4.991   1.180   2.611  1.6881  0.1666  0.7866
  107SAPE    C310977   4.811   1.664   2.572 -0.2117 -0.1969  0.2252
  107SAPE    HX10978   4.826   1.763   2.523  1.2529 -1.6489 -2.4697
  107SAPE    HY10979   4.872   1.655   2.664  1.1854 -0.2368 -0.6666
  107SAPE   O3110980   4.677   1.624   2.602 -0.1812 -0.0907  0.2205
  107SAPE   C3110981   4.611   1.713   2.674  0.0583  0.6855 -0.4832
  107SAPE   O3210982   4.648   1.824   2.707 -0.0827 -0.1835 -0.5105
  107SAPE   C3210983   4.470   1.650   2.701 -0.7653 -0.8537 -0.3217
  107SAPE   H2X10984   4.454   1.592   2.608  1.3158  1.1063 -2.0036
  107SAPE   H2Y10985   4.397   1.734   2.710 -0.3159 -0.4494 -0.4355
  107SAPE   C2310986   4.954   1.219   2.828 -0.2476 -0.8857  0.0878
  107SAPE   H3R10987   5.048   1.269   2.862 -0.5773  0.5101 -0.9477
  107SAPE   H3S10988   4.969   1.110   2.835 -1.7243 -1.0171  1.5106
  107SAPE   C2410989   4.832   1.256   2.918  0.1046  0.1476 -0.2800
  107SAPE   H4R10990   4.859   1.216   3.018  0.2361  2.2565  0.5718
  107SAPE   H4S10991   4.750   1.194   2.875 -0.2546  0.1316  0.4154
  107SAPE   C2510992   4.793   1.403   2.914  0.3608 -0.7493 -0.1786
  107SAPE   H5R10993   4.736   1.432   2.824  1.4545  2.7203  0.1326
  107SAPE   C2610994   4.840   1.498   2.996  0.2644  0.2624  0.2498
  107SAPE   H6R10995   4.808   1.603   2.993  0.0426  0.2342  1.2814
  107SAPE   C2710996   4.925   1.476   3.114 -0.1415 -0.2689  0.7211
  107SAPE   H7R10997   4.941   1.367   3.126 -1.0319 -1.0365 -3.6470
  107SAPE   H7S10998   4.868   1.498   3.207  0.7626 -1.2411  1.5352
  107SAPE   C2810999   5.062   1.543   3.108 -0.2301 -0.2607 -0.0354
  107SAPE   H8R11000   5.092   1.585   3.011 -1.0965 -1.4876 -0.8723
  107SAPE   C2911001   5.156   1.551   3.211  0.3274  0.8508 -1.4905
  107SAPE   H9R11002   5.250   1.606   3.192  0.0784  2.5663  1.6881
  107SAPE  C21011003   5.156   1.487   3.345 -0.3204 -0.2520  0.3472
  107SAPE  H10R11004   5.239   1.414   3.339 -0.5444 -0.4621 -0.3839
  107SAPE  H10S11005   5.065   1.422   3.348  0.5371 -1.4625  0.9533
  107SAPE  C21111006   5.158   1.593   3.455  0.1930  0.4394  0.2518
  107SAPE  H11R11007   5.059   1.639   3.461  0.6969  1.6640 -0.3918
  107SAPE  C21211008   5.258   1.630   3.535  1.0794  0.4516  0.2131
  107SAPE  H12R11009   5.234   1.711   3.606  0.6201 -0.2701  0.8933
  107SAPE  C21311010   5.392   1.575   3.554  0.4386  0.3404  0.1753
  107SAPE  H13R11011   5.448   1.570   3.458 -1.9257 -0.5815 -1.2454
  107SAPE  H13S11012   5.383   1.465   3.571 -2.0809  0.5925  0.7991
  107SAPE  C21411013   5.481   1.638   3.654 -0.7565 -0.3490 -0.3897
  107SAPE  H14R11014   5.538   1.726   3.619 -0.1290 -0.4630  0.3089
  107SAPE  C21511015   5.507   1.591   3.778  0.3010  0.1415 -0.9808
  107SAPE  H15R11016   5.586   1.642   3.835 -0.2313  0.0576 -0.1489
  107SAPE  C21611017   5.431   1.486   3.857  0.0420 -0.0864 -0.1108
  107SAPE  H16R11018   5.396   1.399   3.797  0.6422 -1.1926  1.0802
  107SAPE  H16S11019   5.339   1.537   3.894  0.3203 -0.3236  0.9532
  107SAPE  C21711020   5.511   1.428   3.977  0.6604 -0.4000  0.2541
  107SAPE  H17R11021   5.606   1.382   3.944  1.2672  1.6056 -0.9911
  107SAPE  H17S11022   5.440   1.353   4.018  0.6621 -0.9649 -0.7558
  107SAPE  C21811023   5.546   1.538   4.080  0.2989  0.2935 -0.1001
  107SAPE  H18R11024   5.511   1.639   4.050  0.8785  0.4156 -0.3805
  107SAPE  H18S11025   5.657   1.531   4.076  0.2314 -1.1176 -0.0022
  107SAPE  C21911026   5.513   1.498   4.223 -0.2427  1.0719  0.2260
  107SAPE  H19R11027   5.404   1.487   4.239  0.0126 -0.0607  1.3480
  107SAPE  H19S11028   5.550   1.578   4.291  1.2255  0.2806  0.4014
  107SAPE  C22011029   5.577   1.367   4.284  0.8439  0.0985  0.3004
  107SAPE  H20R11030   5.535   1.360   4.386 -1.1978 -3.4792 -0.6160
  107SAPE  H20S11031   5.686   1.384   4.291  1.1482 -1.7445  0.5561
  107SAPE  H20T11032   5.555   1.274   4.227  0.3762  0.9616 -0.9690
  107SAPE   C3311033   4.460   1.574   2.836  0.4298 -0.3219  0.2643
  107SAPE   H3X11034   4.517   1.478   2.841 -0.5392 -1.0567 -1.8324
  107SAPE   H3Y11035   4.354   1.544   2.845  0.3183  0.0932  0.3329
  107SAPE   C3411036   4.509   1.654   2.961  0.7203 -0.5470  0.9137
  107SAPE   H4X11037   4.451   1.748   2.968 -2.3093 -2.2877  0.7666
  107SAPE   H4Y11038   4.617   1.682   2.956 -0.2226  3.5811 -2.2358
  107SAPE   C3511039   4.479   1.580   3.094  0.7926 -0.3049  0.1487
  107SAPE   H5X11040   4.513   1.474   3.084 -1.0199 -0.9992  0.9067
  107SAPE   H5Y11041   4.369   1.572   3.101  0.9817 -1.7433  2.8091
  107SAPE   C3611042   4.535   1.637   3.224 -0.4898 -0.1632  0.0958
  107SAPE   H6X11043   4.508   1.744   3.239  0.3691  0.0061  0.5421
  107SAPE   H6Y11044   4.646   1.635   3.212 -0.4907 -0.9487  0.2095
  107SAPE   C3711045   4.495   1.546   3.341  0.1937 -0.3756 -0.2645
  107SAPE   H7X11046   4.511   1.437   3.326 -2.0485 -0.8981  0.7607
  107SAPE   H7Y11047   4.386   1.562   3.354  0.5626  0.7073  1.9340
  107SAPE   C3811048   4.546   1.584   3.476 -0.1823 -0.1726  0.1486
  107SAPE   H8X11049   4.540   1.693   3.493 -1.1400 -0.1843 -0.0676
  107SAPE   H8Y11050   4.648   1.541   3.484 -0.4590 -1.2318 -1.5645
  107SAPE   C3911051   4.468   1.524   3.591  0.0063 -0.3138 -0.1232
  107SAPE   H9X11052   4.468   1.415   3.567  1.1589 -0.4276  0.2943
  107SAPE   H9Y11053   4.365   1.563   3.600 -0.0745 -0.5615  0.0504
  107SAPE  C31011054   4.542   1.542   3.727  0.5511  0.0414  0.1603
  107SAPE  H10X11055   4.550   1.651   3.747 -0.0237  0.4689 -1.6841
  107SAPE  H10Y11056   4.649   1.511   3.719  0.2454 -1.6977  2.1692
  107SAPE  C31111057   4.478   1.465   3.846  0.1852  0.5979  0.1271
  107SAPE  H11X11058   4.450   1.362   3.816 -0.4552  0.8906 -0.3063
  107SAPE  H11Y11059   4.380   1.513   3.867  0.3644  0.8101  0.4837
  107SAPE  C31211060   4.547   1.460   3.984  0.5635 -0.5358  0.8000
  107SAPE  H12X11061   4.643   1.406   3.973  1.2319  0.8724 -0.6584
  107SAPE  H12Y11062   4.472   1.398   4.037 -2.6828  0.6262 -2.0662
  107SAPE  C31311063   4.572   1.601   4.035  0.2069  0.4996 -0.2657
  107SAPE  H13X11064   4.497   1.672   3.994  1.0214  1.4469 -0.1539
  107SAPE  H13Y11065   4.670   1.633   3.994 -0.3491  1.1508 -1.1219
  107SAPE  C31411066   4.561   1.613   4.190  0.0106  0.4657  0.0753
  107SAPE  H14X11067   4.570   1.723   4.208 -0.1533  0.6126 -0.6917
  107SAPE  H14Y11068   4.652   1.578   4.243  0.1820  0.7657 -0.0099
  107SAPE  C31511069   4.435   1.558   4.251  1.0211 -0.1333  0.7269
  107SAPE  H15X11070   4.455   1.450   4.267  0.9331 -0.3284 -0.4083
  107SAPE  H15Y11071   4.347   1.572   4.185  0.5230 -2.8907  0.7126
  107SAPE  C31611072   4.404   1.619   4.396  0.8408 -0.1034  0.4725
  107SAPE  H16X11073   4.494   1.608   4.460 -0.2576 -1.9819  1.7815
  107SAPE  H16Y11074   4.323   1.552   4.434 -0.8951 -0.6286 -3.6498
  107SAPE  C31711075   4.342   1.764   4.396  0.2983 -0.5213  0.7272
  107SAPE  H17X11076   4.263   1.768   4.318  1.0528  1.3477 -0.0081
  107SAPE  H17Y11077   4.415   1.837   4.354 -0.2785 -1.0188 -1.2738
  107SAPE  C31811078   4.297   1.805   4.537  0.0976 -0.5109 -0.3912
  107SAPE  H18X11079   4.371   1.800   4.620 -1.0592 -0.7948  0.6501
  107SAPE  H18Y11080   4.230   1.724   4.574  1.6663 -1.3945  0.6313
  107SAPE  H18Z11081   4.259   1.909   4.530 -0.5223 -0.6776  0.4200
  108SAPE     N11082   5.118   2.724   2.426  0.8493 -0.0394 -0.5552
  108SAPE   HN111083   5.085   2.790   2.353 -2.3130 -1.1029 -0.2417
  108SAPE   HN211084   5.083   2.766   2.515 -3.1281 -0.4062 -1.7562
  108SAPE   HN311085   5.221   2.715   2.424  0.8640 -1.1672  1.6498
  108SAPE   C1211086   5.047   2.592   2.419 -0.4296  0.6014 -0.0791
  108SAPE  H12A11087   5.093   2.517   2.487 -0.3255  0.2392 -0.5511
  108SAPE  H12B11088   5.080   2.545   2.325  0.0796 -0.8907  0.8062
  108SAPE   C1111089   4.889   2.609   2.435 -0.0003  0.3825 -0.1253
  108SAPE  H11A11090   4.867   2.625   2.543  0.5699  2.4869 -0.2960
  108SAPE  H11B11091   4.838   2.513   2.410  1.2125  0.1483 -1.8604
  108SAPE     P11092   4.713   2.704   2.250 -0.3992  0.0094  0.1092
  108SAPE   O1311093   4.680   2.840   2.197  0.1463 -0.4458 -0.8712
  108SAPE   O1411094   4.733   2.599   2.143  0.0579  0.1896  0.6348
  108SAPE   O1211095   4.841   2.710   2.346 -0.2519 -0.6635  0.0062
  108SAPE   O1111096   4.598   2.662   2.363  0.1260 -0.3984  0.1750
  108SAPE    C111097   4.543   2.776   2.425  0.1855 -0.7019 -0.2471
  108SAPE    HA11098   4.623   2.840   2.469 -0.9931  1.5278 -1.2054
  108SAPE    HB11099   4.476   2.836   2.361 -2.3165 -0.3559  2.4819
  108SAPE    C211100   4.463   2.740   2.547  1.2176  0.0156 -0.0466
  108SAPE    HS11101   4.437   2.830   2.606  2.0263 -1.4946  2.8353
  108SAPE   O2111102   4.534   2.651   2.636 -0.2041  0.9112 -0.3291
  108SAPE   C2111103   4.633   2.690   2.708  0.5230  0.0174  0.4011
  108SAPE   O2211104   4.674   2.807   2.717 -0.9628  0.2198 -0.6916
  108SAPE   C2211105   4.664   2.583   2.811 -0.5125  0.5187 -0.4755
  108SAPE   H2R11106   4.754   2.626   2.861 -0.7357  0.3101  0.1193
  108SAPE   H2S11107   4.592   2.569   2.895  2.8600  0.3393  2.6391
  108SAPE    C311108   4.333   2.668   2.505  0.9274  0.4975  0.2130
  108SAPE    HX11109   4.375   2.570   2.474  1.0820 -0.0145  1.8974
  108SAPE    HY11110   4.290   2.717   2.415 -2.6464 -0.0479  1.4557
  108SAPE   O3111111   4.226   2.661   2.605  0.2732  0.3165  0.0400
  108SAPE   C3111112   4.159   2.548   2.603 -0.1421 -0.1653  0.1165
  108SAPE   O3211113   4.168   2.465   2.514 -0.3697  0.6139 -0.2622
  108SAPE   C3211114   4.045   2.536   2.707  0.4787  0.2470  0.8994
  108SAPE   H2X11115   4.024   2.427   2.700 -0.0533  0.4126 -0.2195
  108SAPE   H2Y11116   3.962   2.591   2.659  1.1536 -0.6739 -1.4503
  108SAPE   C2311117   4.697   2.443   2.753 -0.4773  0.2600  0.0696
  108SAPE   H3R11118   4.773   2.455   2.673  0.7115  2.4481  1.4549
  108SAPE   H3S11119   4.608   2.395   2.706  0.5088 -0.1385 -1.4505
  108SAPE   C2411120   4.759   2.342   2.851 -0.1138 -0.7403 -0.1285
  108SAPE   H4R11121   4.786   2.255   2.787  0.7481  0.6267 -1.6822
  108SAPE   H4S11122   4.683   2.306   2.924  0.1441 -1.1260 -0.0479
  108SAPE   C2511123   4.886   2.381   2.924  0.5049 -0.6730  1.2658
  108SAPE   H5R11124   4.973   2.401   2.860  1.0413 -1.7029  1.6360
  108SAPE   C2611125   4.904   2.377   3.059 -0.9634 -0.5215  0.7054
  108SAPE   H6R11126   5.003   2.402   3.100  0.1715 -0.8277 -1.6744
  108SAPE   C2711127   4.799   2.333   3.152  0.0866  0.1726 -0.0766
  108SAPE   H7R11128   4.842   2.272   3.234 -0.7192  0.8187  0.8517
  108SAPE   H7S11129   4.726   2.262   3.107  0.6977 -0.6441  0.2046
  108SAPE   C2811130   4.719   2.461   3.202  0.2513  0.2744 -0.0565
  108SAPE   H8R11131   4.660   2.518   3.128  0.0334  2.5486  1.7553
  108SAPE   C2911132   4.695   2.488   3.331 -0.5285  0.0375 -0.6212
  108SAPE   H9R11133   4.623   2.567   3.356 -2.1444 -1.0727 -1.5765
  108SAPE  C21011134   4.748   2.406   3.441  0.2561 -0.6926 -0.0202
  108SAPE  H10R11135   4.724   2.298   3.438 -0.5618 -0.4941 -1.5296
  108SAPE  H10S11136   4.679   2.436   3.523 -0.8181  1.5767 -1.6479
  108SAPE  C21111137   4.891   2.430   3.467  0.1378 -0.3539 -0.4968
  108SAPE  H11R11138   4.956   2.464   3.385  2.2922 -2.1923  0.3661
  108SAPE  C21211139   4.939   2.437   3.595 -0.1765  0.4866 -0.0110
  108SAPE  H12R11140   5.046   2.462   3.608  0.6625 -1.7690 -1.8916
  108SAPE  C21311141   4.873   2.398   3.717  0.3508 -0.2499 -0.9724
  108SAPE  H13R11142   4.934   2.320   3.766  0.5068  0.8082  0.5869
  108SAPE  H13S11143   4.779   2.345   3.689  0.7065 -0.9019 -0.9551
  108SAPE  C21411144   4.848   2.500   3.819 -0.4237 -0.7381  0.3062
  108SAPE  H14R11145   4.746   2.542   3.824 -0.2569 -0.4285  1.1211
  108SAPE  C21511146   4.927   2.542   3.916 -0.8110 -0.0191  0.0466
  108SAPE  H15R11147   4.881   2.616   3.983 -0.8933  2.1606 -2.2264
  108SAPE  C21611148   5.064   2.482   3.934 -0.2058 -0.4241 -0.3062
  108SAPE  H16R11149   5.140   2.555   3.971  1.5906 -3.0154  1.3965
  108SAPE  H16S11150   5.106   2.449   3.837  1.4269 -1.7853  0.8049
  108SAPE  C21711151   5.060   2.356   4.021 -0.7472  0.5662  0.6074
  108SAPE  H17R11152   5.013   2.277   3.957 -1.6764  1.5801 -0.0031
  108SAPE  H17S11153   5.001   2.358   4.115  2.0890 -1.0227  2.5845
  108SAPE  C21811154   5.192   2.288   4.065 -0.5365 -0.1468 -0.6695
  108SAPE  H18R11155   5.233   2.233   3.977 -1.1601  0.3707 -1.2924
  108SAPE  H18S11156   5.193   2.211   4.145  3.0192  0.1317 -0.2935
  108SAPE  C21911157   5.294   2.386   4.137 -0.4171  0.6561 -0.0296
  108SAPE  H19R11158   5.247   2.435   4.225 -0.9729  0.9156 -0.4610
  108SAPE  H19S11159   5.323   2.468   4.067 -0.2710  0.0377 -0.7069
  108SAPE  C22011160   5.417   2.313   4.182  0.7795  0.2611 -0.8586
  108SAPE  H20R11161   5.487   2.286   4.100  0.5461  0.2327 -1.0453
  108SAPE  H20S11162   5.388   2.211   4.212  0.4376  0.3189 -0.9947
  108SAPE  H20T11163   5.466   2.360   4.271 -0.6648  1.4161 -0.6319
  108SAPE   C3311164   4.085   2.586   2.844  0.2281 -0.1863  0.4853
  108SAPE   H3X11165   4.117   2.691   2.827 -1.3357  0.1246 -0.7585
  108SAPE   H3Y11166   4.172   2.524   2.874 -1.1682 -1.3302  2.4243
  108SAPE   C3411167   3.978   2.597   2.949 -0.1251  0.3234  0.1210
  108SAPE   H4X11168   3.969   2.491   2.980  0.7691 -0.3403 -1.7750
  108SAPE   H4Y11169   3.885   2.622   2.894 -0.6679 -1.7345  0.0329
  108SAPE   C3511170   3.996   2.684   3.068 -0.8506  0.0046 -0.0459
  108SAPE   H5X11171   3.984   2.792   3.048 -1.1095 -0.0229 -0.0346
  108SAPE   H5Y11172   3.919   2.647   3.138 -0.0391  0.1162  0.9254
  108SAPE   C3611173   4.130   2.665   3.144 -0.4486  0.6047 -0.0540
  108SAPE   H6X11174   4.150   2.737   3.227 -1.6760 -0.3813  1.1526
  108SAPE   H6Y11175   4.209   2.691   3.070  0.3640 -0.7596  0.2961
  108SAPE   C3711176   4.170   2.517   3.178  0.0167 -0.1601  0.0964
  108SAPE   H7X11177   4.280   2.523   3.197 -0.1870  0.9931  1.0336
  108SAPE   H7Y11178   4.160   2.460   3.084 -0.5220  0.9137 -0.5223
  108SAPE   C3811179   4.086   2.452   3.288 -0.2682  0.2869  0.1598
  108SAPE   H8X11180   4.113   2.344   3.287  0.0544  0.3613  0.4716
  108SAPE   H8Y11181   3.979   2.465   3.261  0.2276  1.1798 -1.5196
  108SAPE   C3911182   4.118   2.517   3.417 -0.0915 -0.0893 -0.9970
  108SAPE   H9X11183   4.057   2.608   3.434  0.8358  0.1184  1.6256
  108SAPE   H9Y11184   4.222   2.557   3.411 -0.8014  2.2040  0.4528
  108SAPE  C31011185   4.113   2.419   3.540 -0.3621 -0.4755  0.1012
  108SAPE  H10X11186   4.161   2.323   3.508  0.5122  0.3124 -1.0151
  108SAPE  H10Y11187   4.008   2.414   3.575 -1.9502  1.9265 -3.6565
  108SAPE  C31111188   4.201   2.479   3.654  0.0107 -0.5046 -0.4400
  108SAPE  H11X11189   4.184   2.589   3.666 -0.8294 -0.6314 -0.3718
  108SAPE  H11Y11190   4.299   2.478   3.603 -0.4196 -1.5496 -1.2733
  108SAPE  C31211191   4.200   2.407   3.788 -0.1592 -0.8084 -0.1610
  108SAPE  H12X11192   4.198   2.299   3.763  1.8531 -1.1711  1.0431
  108SAPE  H12Y11193   4.111   2.444   3.844 -1.3253 -0.9140 -1.8654
  108SAPE  C31311194   4.334   2.440   3.860 -0.1014  0.2647  0.4162
  108SAPE  H13X11195   4.330   2.548   3.884 -1.6872  0.3954 -0.3390
  108SAPE  H13Y11196   4.414   2.417   3.787 -0.5973  0.2568 -0.1318
  108SAPE  C31411197   4.366   2.370   3.998  0.1994 -0.3456 -0.2790
  108SAPE  H14X11198   4.356   2.259   3.988 -0.4380 -0.8721  4.3086
  108SAPE  H14Y11199   4.295   2.398   4.078  1.1670 -1.6258  1.1086
  108SAPE  C31511200   4.510   2.395   4.034 -0.6068  0.3324  0.5199
  108SAPE  H15X11201   4.537   2.499   4.007  2.9950 -0.4518  0.6629
  108SAPE  H15Y11202   4.576   2.329   3.974 -1.9082 -2.2703  1.7494
  108SAPE  C31611203   4.532   2.377   4.177 -0.8924 -0.3062 -0.3503
  108SAPE  H16X11204   4.502   2.278   4.218  0.6491 -1.0371 -0.9271
  108SAPE  H16Y11205   4.480   2.459   4.233  0.9947  0.6514  0.1045
  108SAPE  C31711206   4.687   2.379   4.217 -0.2022 -0.7212 -1.0111
  108SAPE  H17X11207   4.731   2.476   4.187  0.1697 -0.2623  0.8968
  108SAPE  H17Y11208   4.731   2.297   4.156 -0.7844 -2.5645  0.9114
  108SAPE  C31811209   4.717   2.344   4.366 -0.4983  0.6199 -0.2465
  108SAPE  H18X11210   4.666   2.413   4.438  0.2453  0.2493  0.6496
  108SAPE  H18Y11211   4.823   2.368   4.387 -0.6639  1.2197 -0.0427
  108SAPE  H18Z11212   4.700   2.236   4.386 -1.4498  0.3129 -2.4377
  109SAPE     N11213   2.883   5.614   1.723 -0.0512  0.3768 -0.9827
  109SAPE   HN111214   2.888   5.510   1.715  0.8390  0.4088 -0.9504
  109SAPE   HN211215   2.931   5.648   1.809 -0.8130  2.5632 -1.3804
  109SAPE   HN311216   2.783   5.643   1.725 -0.7293 -1.6604  1.9675
  109SAPE   C1211217   2.910   5.707   1.608 -0.6228 -0.3388 -0.5497
  109SAPE  H12A11218   2.871   5.658   1.516  1.0229 -2.3241 -0.2668
  109SAPE  H12B11219   3.020   5.721   1.605 -0.8079  1.0798 -1.4787
  109SAPE   C1111220   2.853   5.848   1.623 -0.2265 -0.4881  0.2805
  109SAPE  H11A11221   2.877   5.907   1.532  0.8721 -1.1235  0.1363
  109SAPE  H11B11222   2.913   5.890   1.706  0.1311 -0.6744  0.1218
  109SAPE     P11223   2.658   5.988   1.699  0.2557 -0.4182  0.3019
  109SAPE   O1311224   2.664   6.089   1.590  0.2714 -0.2767 -0.1451
  109SAPE   O1411225   2.530   5.955   1.752  0.5198 -0.0459 -1.0455
  109SAPE   O1211226   2.715   5.848   1.652  0.2061  0.1782 -0.1406
  109SAPE   O1111227   2.759   6.030   1.811  0.1368 -0.1359 -0.5829
  109SAPE    C111228   2.768   5.945   1.932 -0.5938  0.5054 -0.5633
  109SAPE    HA11229   2.790   5.838   1.912 -0.2863  0.3790  0.4204
  109SAPE    HB11230   2.859   5.972   1.991  0.3691 -0.9655 -1.3222
  109SAPE    C211231   2.652   5.972   2.028  0.1782  0.5623  0.6626
  109SAPE    HS11232   2.557   5.931   1.988  0.1224  1.1151  0.2214
  109SAPE   O2111233   2.641   6.112   2.057  0.3256 -0.4144  0.0364
  109SAPE   C2111234   2.515   6.155   2.090  0.2755  0.0332 -0.3462
  109SAPE   O2211235   2.416   6.087   2.092 -0.4193  0.0036  0.4527
  109SAPE   C2211236   2.519   6.300   2.127  1.0185 -0.6472  0.0206
  109SAPE   H2R11237   2.610   6.309   2.190  1.1355 -1.8705  0.0507
  109SAPE   H2S11238   2.520   6.349   2.028 -0.9756  0.9009  0.7054
  109SAPE    C311239   2.671   5.890   2.158 -0.8948  0.6617  0.7345
  109SAPE    HX11240   2.767   5.926   2.199  0.1411  1.6174 -2.2852
  109SAPE    HY11241   2.673   5.782   2.129  0.2173  0.5011  1.3515
  109SAPE   O3111242   2.569   5.912   2.258 -0.2747  0.6712 -0.0779
  109SAPE   C3111243   2.460   5.843   2.242  0.4405  0.2558 -0.3202
  109SAPE   O3211244   2.442   5.754   2.162  0.2392 -0.4171  0.0229
  109SAPE   C3211245   2.359   5.887   2.348  0.3063  0.0585  0.9252
  109SAPE   H2X11246   2.293   5.798   2.352 -0.6899  0.6723 -0.8236
  109SAPE   H2Y11247   2.295   5.959   2.293  1.7863  0.6737 -0.0635
  109SAPE   C2311248   2.393   6.350   2.203 -0.2757  0.6696 -0.6998
  109SAPE   H3R11249   2.294   6.326   2.158 -1.3837  2.0112  0.9219
  109SAPE   H3S11250   2.400   6.460   2.213  2.0533  0.6543 -1.5609
  109SAPE   C2411251   2.363   6.278   2.345 -0.1821  0.2768  0.4355
  109SAPE   H4R11252   2.458   6.239   2.387 -0.8641  0.6385  2.4012
  109SAPE   H4S11253   2.297   6.191   2.324 -1.0795  1.1293 -0.3744
  109SAPE   C2511254   2.290   6.371   2.443 -0.0964  1.0055  0.4068
  109SAPE   H5R11255   2.194   6.393   2.393 -0.8388 -0.0023  1.3441
  109SAPE   C2611256   2.332   6.417   2.567 -0.2541 -0.3762 -0.0373
  109SAPE   H6R11257   2.260   6.479   2.622 -1.8894 -0.6269 -1.8082
  109SAPE   C2711258   2.468   6.376   2.627 -0.4679  0.3586 -0.3964
  109SAPE   H7R11259   2.526   6.300   2.571 -1.5122 -0.6298 -0.1841
  109SAPE   H7S11260   2.451   6.335   2.729  0.3955 -1.3698 -0.9077
  109SAPE   C2811261   2.558   6.494   2.647  0.3445 -0.9033 -0.0194
  109SAPE   H8R11262   2.612   6.517   2.554  0.7841  0.1608  0.4806
  109SAPE   C2911263   2.578   6.570   2.755 -0.5899 -0.2923 -0.6589
  109SAPE   H9R11264   2.641   6.660   2.741  1.3970 -1.3599  0.9368
  109SAPE  C21011265   2.493   6.570   2.879 -0.1463 -0.5207  0.1374
  109SAPE  H10R11266   2.385   6.586   2.861 -1.0966 -4.1303  1.8185
  109SAPE  H10S11267   2.521   6.657   2.942 -1.8502  0.8147 -0.8766
  109SAPE  C21111268   2.530   6.462   2.977  0.5448  1.7365 -0.6864
  109SAPE  H11R11269   2.558   6.373   2.918 -1.6043 -0.0585  0.8176
  109SAPE  C21211270   2.534   6.443   3.113  0.1352  0.1171 -0.5171
  109SAPE  H12R11271   2.580   6.354   3.158  0.5167  0.6300  0.1267
  109SAPE  C21311272   2.497   6.556   3.209 -0.1445  0.2900 -0.2860
  109SAPE  H13R11273   2.391   6.542   3.239 -0.8663  1.1926 -2.2407
  109SAPE  H13S11274   2.487   6.646   3.144  2.8131 -1.1628 -3.0463
  109SAPE  C21411275   2.603   6.577   3.309  0.1926  0.5175  0.2403
  109SAPE  H14R11276   2.679   6.656   3.299 -1.3455  2.0557  0.4815
  109SAPE  C21511277   2.602   6.517   3.432  0.0745 -0.3102 -0.7050
  109SAPE  H15R11278   2.689   6.533   3.498  0.6618  0.0824 -1.5602
  109SAPE  C21611279   2.494   6.426   3.485 -0.6259  0.2583  0.1206
  109SAPE  H16R11280   2.537   6.326   3.507  0.8332  0.4528 -1.6143
  109SAPE  H16S11281   2.419   6.404   3.406 -3.5580  1.7461  2.2749
  109SAPE  C21711282   2.433   6.485   3.615 -0.7865 -0.7486  0.3253
  109SAPE  H17R11283   2.345   6.424   3.642 -1.8382  1.4735  2.3191
  109SAPE  H17S11284   2.401   6.590   3.596  1.9299  0.4378  1.7097
  109SAPE  C21811285   2.542   6.482   3.726  0.1032 -0.0548 -0.5405
  109SAPE  H18R11286   2.642   6.522   3.700  0.3039 -0.7924 -0.9530
  109SAPE  H18S11287   2.576   6.377   3.741  2.6919  0.7913  0.0944
  109SAPE  C21911288   2.494   6.533   3.855  0.8851  0.0254  0.0039
  109SAPE  H19R11289   2.398   6.481   3.878  0.7014  1.1806  2.0239
  109SAPE  H19S11290   2.464   6.639   3.837  0.5522  0.2847  1.8983
  109SAPE  C22011291   2.593   6.533   3.968  0.0052 -0.1302 -0.3718
  109SAPE  H20R11292   2.544   6.554   4.065 -0.4039 -0.5618 -0.4830
  109SAPE  H20S11293   2.675   6.604   3.943  1.2878 -0.6885  1.9834
  109SAPE  H20T11294   2.643   6.435   3.980  2.2382  0.8474 -1.0246
  109SAPE   C3311295   2.429   5.922   2.482  0.2766  0.0102 -1.0219
  109SAPE   H3X11296   2.500   6.006   2.468 -2.6319  2.5781 -1.1101
  109SAPE   H3Y11297   2.503   5.843   2.509 -0.6351 -0.0319  1.6791
  109SAPE   C3411298   2.337   5.938   2.609 -0.0903 -0.7239 -0.1672
  109SAPE   H4X11299   2.272   5.848   2.615 -0.9959  0.0232  2.3117
  109SAPE   H4Y11300   2.277   6.031   2.598  1.8636  0.8625  1.8136
  109SAPE   C3511301   2.417   5.954   2.734  0.1323  0.4226  0.5107
  109SAPE   H5X11302   2.472   6.049   2.717  0.7403 -0.3345 -2.2405
  109SAPE   H5Y11303   2.493   5.873   2.737 -0.1611  0.0916 -0.5190
  109SAPE   C3611304   2.335   5.949   2.862 -0.1905  0.2636 -0.7149
  109SAPE   H6X11305   2.265   5.863   2.856 -0.9098  0.9059 -2.3324
  109SAPE   H6Y11306   2.266   6.036   2.874 -0.5704 -0.2360  1.0232
  109SAPE   C3711307   2.429   5.955   2.986  0.5350 -0.2849  0.1959
  109SAPE   H7X11308   2.499   6.041   2.978 -0.2518  0.2546 -1.4926
  109SAPE   H7Y11309   2.489   5.864   2.969  0.8454  0.3415 -2.3887
  109SAPE   C3811310   2.351   5.950   3.114  0.1915 -0.6869  0.7160
  109SAPE   H8X11311   2.300   5.852   3.129 -0.6936 -0.3753 -0.1188
  109SAPE   H8Y11312   2.264   6.019   3.104 -0.1706 -1.0893  1.0649
  109SAPE   C3911313   2.435   5.975   3.240 -0.2777  0.1693  1.1217
  109SAPE   H9X11314   2.460   6.083   3.243 -0.9638  0.3446  0.8311
  109SAPE   H9Y11315   2.532   5.922   3.233 -1.1579 -1.6137  1.7644
  109SAPE  C31011316   2.356   5.936   3.362  0.5471 -0.1567 -0.6740
  109SAPE  H10X11317   2.359   5.825   3.374  0.6691 -0.0858 -0.0291
  109SAPE  H10Y11318   2.248   5.955   3.349  0.8396  0.8080 -1.7919
  109SAPE  C31111319   2.394   6.008   3.502  0.0237  0.8630  0.5835
  109SAPE  H11X11320   2.378   6.117   3.488 -0.5389  0.7413  0.2679
  109SAPE  H11Y11321   2.502   5.993   3.526  0.1563 -2.1205 -1.3674
  109SAPE  C31211322   2.319   5.953   3.624 -0.3136  0.0493 -0.6141
  109SAPE  H12X11323   2.374   5.975   3.718 -1.2433  0.7661 -0.2188
  109SAPE  H12Y11324   2.329   5.842   3.627  2.1507  0.2406  1.0086
  109SAPE  C31311325   2.178   6.008   3.656  0.5967  0.4989  0.5659
  109SAPE  H13X11326   2.104   5.979   3.578  2.7052  0.4164 -1.5113
  109SAPE  H13Y11327   2.183   6.119   3.648  0.6013  0.6703  2.4738
  109SAPE  C31411328   2.128   5.969   3.799 -0.2645  0.4124 -0.3295
  109SAPE  H14X11329   2.194   6.027   3.866  1.5754 -0.6830 -1.1106
  109SAPE  H14Y11330   2.153   5.861   3.811  0.4790  0.7138  0.9994
  109SAPE  C31511331   1.974   5.983   3.833 -0.3768 -0.0682  0.4711
  109SAPE  H15X11332   1.912   5.961   3.744 -1.2009 -1.5383  1.3635
  109SAPE  H15Y11333   1.960   6.088   3.868 -1.1176 -0.2730  0.8130
  109SAPE  C31611334   1.930   5.884   3.946 -0.6376 -0.0977  0.3063
  109SAPE  H16X11335   1.945   5.784   3.900 -0.3876 -0.0193  0.2116
  109SAPE  H16Y11336   1.822   5.905   3.958 -0.5068 -0.7592  3.5088
  109SAPE  C31711337   2.004   5.896   4.078  0.3881  0.0459  0.4371
  109SAPE  H17X11338   1.965   5.984   4.135 -0.1349  0.6592 -0.8329
  109SAPE  H17Y11339   2.114   5.909   4.067  0.0551  3.3350 -0.0573
  109SAPE  C31811340   1.981   5.774   4.166 -0.4809  0.0903  0.4614
  109SAPE  H18X11341   2.031   5.688   4.115 -3.0704 -2.3367  1.7001
  109SAPE  H18Y11342   1.872   5.755   4.177 -0.6029  1.8152  3.2557
  109SAPE  H18Z11343   2.034   5.781   4.263 -0.7573  0.7316  0.5698
  110SAPE     N11344   6.492   3.087   2.425 -0.1955 -0.2079 -0.7400
  110SAPE   HN111345   6.566   3.059   2.357  1.4750 -0.3209  1.0337
  110SAPE   HN211346   6.447   3.000   2.459  0.0015 -1.5947 -3.6613
  110SAPE   HN311347   6.411   3.137   2.382 -2.0398 -3.5105 -1.3977
  110SAPE   C1211348   6.571   3.149   2.529 -0.4423  0.2148  0.3248
  110SAPE  H12A11349   6.610   3.068   2.594 -1.3043 -2.0736 -1.8464
  110SAPE  H12B11350   6.503   3.213   2.589 -1.8255  0.4038 -1.3788
  110SAPE   C1111351   6.677   3.230   2.453 -0.1553 -0.2012 -0.4984
  110SAPE  H11A11352   6.730   3.295   2.526 -0.1625 -1.4196  0.6525
  110SAPE  H11B11353   6.629   3.302   2.384 -1.8524  0.6717  1.4779
  110SAPE     P11354   6.912   3.212   2.335 -0.2073  0.2115  0.5086
  110SAPE   O1311355   6.998   3.106   2.276  0.1693 -0.0213  0.7829
  110SAPE   O1411356   6.876   3.323   2.245 -0.5545  0.1933  0.4109
  110SAPE   O1211357   6.777   3.149   2.386 -0.0292 -0.2747  0.6511
  110SAPE   O1111358   6.989   3.272   2.455 -0.2476  0.3322  0.1905
  110SAPE    C111359   7.103   3.216   2.513 -0.4093  0.1566 -0.6853
  110SAPE    HA11360   7.133   3.119   2.469 -1.1334 -0.4111  0.0525
  110SAPE    HB11361   7.185   3.289   2.492 -0.6160  0.9163  1.0052
  110SAPE    C211362   7.086   3.197   2.667 -0.4772 -0.2241 -0.1989
  110SAPE    HS11363   7.025   3.105   2.678  1.7962 -1.8666 -0.7247
  110SAPE   O2111364   7.025   3.313   2.728  0.0673  0.0768 -0.0722
  110SAPE   C2111365   6.953   3.286   2.831 -0.5800  0.0135 -0.0067
  110SAPE   O2211366   6.938   3.171   2.872 -0.0717 -0.3491 -0.0410
  110SAPE   C2211367   6.894   3.423   2.887 -0.8796 -0.2521 -0.7511
  110SAPE   H2R11368   6.977   3.495   2.882 -0.6309 -0.4514  0.2939
  110SAPE   H2S11369   6.816   3.462   2.818  1.0399  0.7638 -2.4723
  110SAPE    C311370   7.227   3.176   2.723 -0.5168 -0.0796 -0.1983
  110SAPE    HX11371   7.292   3.112   2.660  0.3348 -0.5231  1.1070
  110SAPE    HY11372   7.277   3.275   2.723  1.9305 -1.2307 -1.3838
  110SAPE   O3111373   7.223   3.126   2.862  0.1467  0.5858 -0.4374
  110SAPE   C3111374   7.256   3.001   2.884  0.0411  0.2029 -0.1461
  110SAPE   O3211375   7.302   2.922   2.798 -0.6535 -0.3949  0.0465
  110SAPE   C3211376   7.245   2.971   3.029 -0.7004 -0.0431 -0.1649
  110SAPE   H2X11377   7.145   3.005   3.065 -0.1465 -0.3439  1.8064
  110SAPE   H2Y11378   7.317   3.032   3.088  0.7597 -2.0862  0.2772
  110SAPE   C2311379   6.848   3.421   3.039  0.1218 -0.7863 -0.0082
  110SAPE   H3R11380   6.767   3.346   3.052 -0.1709 -0.1985  1.9228
  110SAPE   H3S11381   6.810   3.524   3.059  1.1072 -0.0032 -1.8552
  110SAPE   C2411382   6.962   3.392   3.137 -0.3491  0.4955  0.4612
  110SAPE   H4R11383   7.040   3.470   3.148  1.3853 -1.2049  0.7796
  110SAPE   H4S11384   7.018   3.302   3.102 -0.7430  1.2502 -2.3436
  110SAPE   C2511385   6.896   3.370   3.269  0.6759  0.7130 -0.1582
  110SAPE   H5R11386   6.844   3.273   3.277  1.7663  0.0630 -0.7861
  110SAPE   C2611387   6.896   3.449   3.381 -0.3491 -0.3365 -0.3544
  110SAPE   H6R11388   6.835   3.424   3.469 -0.1466 -2.6857 -0.8021
  110SAPE   C2711389   6.957   3.585   3.375  0.3112 -0.0877 -0.3953
  110SAPE   H7R11390   6.875   3.657   3.355 -0.2087 -1.0854 -2.0813
  110SAPE   H7S11391   7.028   3.607   3.293  1.6270  0.3541  0.8272
  110SAPE   C2811392   7.016   3.633   3.503 -0.3837 -0.5084 -0.6053
  110SAPE   H8R11393   7.117   3.591   3.519  0.2077  1.0239 -0.1917
  110SAPE   C2911394   6.951   3.698   3.604  0.5150 -0.2841  0.0912
  110SAPE   H9R11395   7.002   3.717   3.699 -1.4367 -1.3439  1.4158
  110SAPE  C21011396   6.805   3.759   3.594  0.3664  0.0873  0.0895
  110SAPE  H10R11397   6.779   3.770   3.486  0.2371  1.8652  0.2773
  110SAPE  H10S11398   6.793   3.862   3.632 -1.2547  1.0047 -2.5599
  110SAPE  C21111399   6.704   3.665   3.658 -0.3864 -0.3470 -0.5592
  110SAPE  H11R11400   6.705   3.565   3.613 -0.1798 -1.0473  0.9428
  110SAPE  C21211401   6.624   3.686   3.767 -0.5455 -1.0689 -0.1767
  110SAPE  H12R11402   6.556   3.605   3.795 -1.3130 -0.0441  0.9787
  110SAPE  C21311403   6.608   3.799   3.857 -0.3848  0.2213 -0.0382
  110SAPE  H13R11404   6.707   3.848   3.865 -2.4125  4.4296  2.6921
  110SAPE  H13S11405   6.582   3.760   3.958 -1.1478  2.6371  0.7635
  110SAPE  C21411406   6.502   3.896   3.809 -0.0095  0.2366  0.2319
  110SAPE  H14R11407   6.443   3.878   3.717  2.4667  0.5773 -1.5185
  110SAPE  C21511408   6.469   4.017   3.861  0.7678 -0.0045 -0.1566
  110SAPE  H15R11409   6.403   4.087   3.807  2.2871  1.5622 -0.0887
  110SAPE  C21611410   6.530   4.061   3.996 -0.0200  0.4905  0.3873
  110SAPE  H16R11411   6.576   4.161   3.981  0.9442 -0.2091 -1.8025
  110SAPE  H16S11412   6.614   3.994   4.025 -1.8396 -1.6007  1.0784
  110SAPE  C21711413   6.431   4.065   4.115 -0.0778  0.1057 -0.4191
  110SAPE  H17R11414   6.394   3.962   4.135 -1.2495  0.7931  1.1242
  110SAPE  H17S11415   6.352   4.135   4.080 -0.6087 -1.1365 -1.8039
  110SAPE  C21811416   6.506   4.118   4.235  0.4924 -0.6265  0.1226
  110SAPE  H18R11417   6.511   4.229   4.230  1.5625 -0.7205 -2.0928
  110SAPE  H18S11418   6.615   4.096   4.233  0.5660 -0.2406 -1.0698
  110SAPE  C21911419   6.457   4.078   4.366  0.0276  0.7789  0.9171
  110SAPE  H19R11420   6.504   4.117   4.459  2.2218 -0.1588  0.2695
  110SAPE  H19S11421   6.481   3.970   4.374  0.6939  0.9233  0.8598
  110SAPE  C22011422   6.302   4.079   4.379  0.7072 -0.5988  0.1021
  110SAPE  H20R11423   6.257   4.179   4.397 -0.6094 -1.0265 -0.6780
  110SAPE  H20S11424   6.279   4.012   4.465  0.4980  0.1694  0.6510
  110SAPE  H20T11425   6.257   4.019   4.297 -2.0585  0.0076  1.1016
  110SAPE   C3311426   7.255   2.826   3.071 -0.2002  1.1666 -0.0918
  110SAPE   H3X11427   7.344   2.790   3.015  0.4765  1.8052  0.5603
  110SAPE   H3Y11428   7.167   2.771   3.031  0.2336  1.1133 -0.9984
  110SAPE   C3411429   7.258   2.798   3.219  0.0239 -0.5800 -0.4721
  110SAPE   H4X11430   7.354   2.838   3.258 -0.3366 -0.2292  0.0686
  110SAPE   H4Y11431   7.258   2.687   3.226 -0.0260 -0.5173  0.8006
  110SAPE   C3511432   7.139   2.846   3.298  0.1996 -0.6332  0.3010
  110SAPE   H5X11433   7.049   2.816   3.240 -1.0143  0.1495  1.7044
  110SAPE   H5Y11434   7.121   2.955   3.310 -1.8517 -1.0481  1.5822
  110SAPE   C3611435   7.125   2.775   3.434 -0.4633  0.3893 -0.0581
  110SAPE   H6X11436   7.223   2.795   3.482 -0.6710  0.9770  0.1373
  110SAPE   H6Y11437   7.104   2.666   3.427 -0.7945  0.5282 -1.5896
  110SAPE   C3711438   7.004   2.816   3.523 -0.0096 -0.4447 -0.5088
  110SAPE   H7X11439   6.922   2.805   3.450 -0.2776  0.8823 -0.4358
  110SAPE   H7Y11440   7.021   2.923   3.549 -0.1010 -0.8486  1.2787
  110SAPE   C3811441   6.983   2.735   3.654  0.9998 -0.6407  0.1799
  110SAPE   H8X11442   6.960   2.628   3.633  0.5471 -0.6818  0.8600
  110SAPE   H8Y11443   6.889   2.777   3.694  0.2294 -0.8920 -1.2768
  110SAPE   C3911444   7.097   2.745   3.743 -0.3897  0.6293 -0.6606
  110SAPE   H9X11445   7.196   2.728   3.695  0.9214  1.2788  1.6164
  110SAPE   H9Y11446   7.102   2.675   3.830  1.3077  1.7396  0.2039
  110SAPE  C31011447   7.104   2.882   3.801  0.0111  0.3844  0.1702
  110SAPE  H10X11448   7.003   2.915   3.830 -0.3192 -0.2071 -0.2811
  110SAPE  H10Y11449   7.150   2.959   3.736  1.2992 -0.4168  0.0930
  110SAPE  C31111450   7.199   2.896   3.922  0.3284 -0.1736 -0.5041
  110SAPE  H11X11451   7.298   2.852   3.895  0.3325 -1.2944  1.2044
  110SAPE  H11Y11452   7.162   2.832   4.005  0.6963  0.8340  0.4540
  110SAPE  C31211453   7.211   3.040   3.976 -0.4174 -0.3803 -0.4704
  110SAPE  H12X11454   7.113   3.092   3.973  0.2504  0.9336 -0.0913
  110SAPE  H12Y11455   7.279   3.103   3.914 -0.8682  1.6371  0.9934
  110SAPE  C31311456   7.256   3.033   4.123  0.3165  0.3282  0.5806
  110SAPE  H13X11457   7.349   2.974   4.117  1.3207  1.8196  1.0468
  110SAPE  H13Y11458   7.190   2.975   4.191 -0.5314 -1.0046 -1.2782
  110SAPE  C31411459   7.274   3.175   4.177  1.2619  0.1199 -0.0482
  110SAPE  H14X11460   7.177   3.212   4.215  0.1388 -2.1422 -0.5344
  110SAPE  H14Y11461   7.312   3.248   4.102  0.8189 -0.1654 -0.5613
  110SAPE  C31511462   7.374   3.173   4.289  0.4464 -0.3226 -0.8098
  110SAPE  H15X11463   7.469   3.131   4.249  1.7910  2.4042 -0.6720
  110SAPE  H15Y11464   7.329   3.100   4.360 -0.7557  1.7111  0.6426
  110SAPE  C31611465   7.392   3.304   4.354 -0.7705 -0.0842 -0.6580
  110SAPE  H16X11466   7.489   3.298   4.407 -1.5770 -0.0379  0.8766
  110SAPE  H16Y11467   7.313   3.313   4.431 -1.0967  0.5118 -1.0550
  110SAPE  C31711468   7.406   3.427   4.265 -0.4740  0.1050  0.6101
  110SAPE  H17X11469   7.307   3.450   4.219  0.3261  0.9910 -0.7593
  110SAPE  H17Y11470   7.475   3.402   4.181 -1.1278  0.9211 -0.1946
  110SAPE  C31811471   7.465   3.543   4.339 -0.4681 -0.0823  0.3590
  110SAPE  H18X11472   7.574   3.522   4.349  0.3418  2.2779 -2.2184
  110SAPE  H18Y11473   7.409   3.561   4.433 -0.0197  2.6359  0.1786
  110SAPE  H18Z11474   7.452   3.637   4.282  0.4698 -0.3699 -0.3713
  111SAPE     N11475   0.586   5.719   1.977  1.0846 -0.2632 -0.3720
  111SAPE   HN111476   0.593   5.684   2.074 -0.3913  1.2169  0.3158
  111SAPE   HN211477   0.677   5.762   1.950  1.2165  0.6814  1.4365
  111SAPE   HN311478   0.519   5.798   1.980 -0.1819 -1.2483 -1.2071
  111SAPE   C1211479   0.550   5.613   1.880  0.1915 -0.1171  0.0873
  111SAPE  H12A11480   0.549   5.668   1.784  2.0905  0.1519  0.2026
  111SAPE  H12B11481   0.452   5.572   1.915 -0.3890  1.8697  0.9092
  111SAPE   C1111482   0.656   5.504   1.880  0.0467 -0.1587 -0.0244
  111SAPE  H11A11483   0.754   5.540   1.842 -0.3855  2.5003  1.1338
  111SAPE  H11B11484   0.623   5.441   1.794 -1.4569 -1.3489  1.3561
  111SAPE     P11485   0.601   5.291   2.007  0.3083  0.1516  0.2222
  111SAPE   O1311486   0.459   5.317   2.003  0.0371 -0.3301 -0.0403
  111SAPE   O1411487   0.663   5.206   1.903  0.1653  0.3871  0.3072
  111SAPE   O1211488   0.669   5.431   2.006 -0.0078  0.2432 -0.2124
  111SAPE   O1111489   0.650   5.240   2.151 -0.4741 -0.0076  0.5654
  111SAPE    C111490   0.621   5.287   2.273 -0.1526  0.5217  0.2646
  111SAPE    HA11491   0.608   5.397   2.273 -1.0739  0.4797 -2.2470
  111SAPE    HB11492   0.526   5.237   2.303 -0.5950  0.1995 -1.5559
  111SAPE    C211493   0.719   5.241   2.386 -0.0172  0.2793  0.2815
  111SAPE    HS11494   0.656   5.248   2.478 -0.8562  0.6194 -0.3054
  111SAPE   O2111495   0.828   5.330   2.396  0.2859  0.0576 -0.7599
  111SAPE   C2111496   0.807   5.448   2.465 -0.3853  0.7762  0.1238
  111SAPE   O2211497   0.698   5.476   2.519 -0.0591  0.2294 -0.3102
  111SAPE   C2211498   0.947   5.514   2.487  0.2830  0.6765 -0.2636
  111SAPE   H2R11499   1.007   5.448   2.553  1.6761  2.5096  0.3849
  111SAPE   H2S11500   0.993   5.508   2.386 -0.1363 -2.0521 -0.3819
  111SAPE    C311501   0.777   5.095   2.368  0.0444 -0.7090 -0.2499
  111SAPE    HX11502   0.843   5.092   2.279 -0.2471 -3.0839 -0.4391
  111SAPE    HY11503   0.693   5.032   2.332 -0.1172 -0.4428 -0.3477
  111SAPE   O3111504   0.840   5.047   2.486  0.3251 -0.0517  0.4811
  111SAPE   C3111505   0.968   5.058   2.487 -0.7084  0.8605  0.0559
  111SAPE   O3211506   1.042   5.117   2.411  0.1382 -0.3337 -0.2218
  111SAPE   C3211507   1.012   4.982   2.613  0.2847 -0.1014 -0.0575
  111SAPE   H2X11508   0.979   4.877   2.606  0.4379 -0.0290 -3.2592
  111SAPE   H2Y11509   0.964   5.035   2.698 -2.3139 -2.2574 -0.0822
  111SAPE   C2311510   0.947   5.661   2.527 -0.3047 -0.4092  0.2866
  111SAPE   H3R11511   0.844   5.702   2.539  0.7464  2.4695  0.2627
  111SAPE   H3S11512   1.004   5.719   2.451 -0.4715  0.0152  0.4846
  111SAPE   C2411513   1.014   5.680   2.666 -1.1312 -0.0494 -0.8601
  111SAPE   H4R11514   1.040   5.786   2.686 -0.2906  0.2490 -3.2501
  111SAPE   H4S11515   1.107   5.619   2.668 -0.0850  1.5063 -0.4283
  111SAPE   C2511516   0.926   5.619   2.777 -0.4463 -0.4006 -0.1802
  111SAPE   H5R11517   0.832   5.675   2.792 -1.2042 -1.6378 -0.1636
  111SAPE   C2611518   0.952   5.529   2.872  0.0799  0.4483 -1.0247
  111SAPE   H6R11519   0.869   5.497   2.937  1.0326  2.0111  1.0638
  111SAPE   C2711520   1.084   5.472   2.886  0.2737 -0.1399 -0.9739
  111SAPE   H7R11521   1.117   5.425   2.791 -0.2641 -3.4762  0.3338
  111SAPE   H7S11522   1.087   5.384   2.955  0.8008  0.1878 -0.5696
  111SAPE   C2811523   1.185   5.580   2.935 -0.2907  1.0098 -0.9857
  111SAPE   H8R11524   1.226   5.644   2.855  0.6607  1.1887 -0.3787
  111SAPE   C2911525   1.242   5.586   3.055 -0.9054  0.2762 -0.1269
  111SAPE   H9R11526   1.317   5.665   3.074  1.3881 -0.9202 -3.2916
  111SAPE  C21011527   1.191   5.504   3.173  0.2337 -0.1345  0.4065
  111SAPE  H10R11528   1.247   5.409   3.161 -0.5613 -0.5399 -0.2090
  111SAPE  H10S11529   1.084   5.475   3.164  0.6159 -2.4269  2.2463
  111SAPE  C21111530   1.227   5.558   3.308  0.5225 -0.0287  0.2820
  111SAPE  H11R11531   1.294   5.645   3.303 -0.4120  0.7029  0.3706
  111SAPE  C21211532   1.195   5.505   3.429 -0.1540  0.5493  0.0993
  111SAPE  H12R11533   1.233   5.557   3.519 -0.9275  0.0299  0.7421
  111SAPE  C21311534   1.114   5.383   3.457  0.6377  1.1053  0.2402
  111SAPE  H13R11535   1.174   5.290   3.462 -0.6690  0.2763  1.0694
  111SAPE  H13S11536   1.055   5.368   3.365 -2.6019 -1.5466  2.5039
  111SAPE  C21411537   1.022   5.376   3.575 -0.1597 -0.0021  0.1351
  111SAPE  H14R11538   0.923   5.340   3.544 -0.5499 -0.1874  1.5130
  111SAPE  C21511539   1.042   5.404   3.708 -0.5074  0.4847  0.4721
  111SAPE  H15R11540   0.957   5.410   3.778 -2.3854 -0.6976 -1.5922
  111SAPE  C21611541   1.177   5.438   3.770  0.2740 -0.2818 -0.2429
  111SAPE  H16R11542   1.219   5.525   3.716  0.0583 -0.1130 -0.1399
  111SAPE  H16S11543   1.242   5.347   3.769 -0.0096 -0.4891  0.1896
  111SAPE  C21711544   1.149   5.500   3.908  0.0533  0.4633 -0.2489
  111SAPE  H17R11545   1.076   5.583   3.901 -3.1064 -1.9728  1.2859
  111SAPE  H17S11546   1.236   5.545   3.962  1.7338 -2.4877 -0.2823
  111SAPE  C21811547   1.115   5.397   4.018  0.4125  0.5110 -0.2055
  111SAPE  H18R11548   1.203   5.336   4.047 -1.3925 -0.8983  2.8548
  111SAPE  H18S11549   1.042   5.322   3.980  1.4552  0.8867 -3.1679
  111SAPE  C21911550   1.070   5.474   4.140  0.1150  0.2727  0.1753
  111SAPE  H19R11551   0.989   5.548   4.120  1.0727  1.2315 -0.2228
  111SAPE  H19S11552   1.154   5.534   4.179 -0.6139  0.8693  0.8700
  111SAPE  C22011553   1.013   5.377   4.239 -0.0977  0.6639 -0.1405
  111SAPE  H20R11554   1.083   5.329   4.311 -0.4671 -0.0449 -0.2489
  111SAPE  H20S11555   0.951   5.296   4.196 -2.0170  2.1426 -0.2661
  111SAPE  H20T11556   0.944   5.439   4.300 -0.5718  0.6539 -0.6562
  111SAPE   C3311557   1.160   4.994   2.657 -0.2146  0.1501  0.1495
  111SAPE   H3X11558   1.215   5.056   2.582 -0.3917 -1.2074 -1.1515
  111SAPE   H3Y11559   1.206   4.893   2.661  0.0091  0.1329 -1.7870
  111SAPE   C3411560   1.192   5.067   2.783 -0.1784 -0.2191 -0.6618
  111SAPE   H4X11561   1.137   5.164   2.792  0.4852  0.0009  1.7857
  111SAPE   H4Y11562   1.303   5.075   2.785 -0.1329 -0.8798  0.0924
  111SAPE   C3511563   1.150   4.983   2.903  0.0591 -1.0178  0.6674
  111SAPE   H5X11564   1.192   4.880   2.903 -0.6522 -1.3456  2.1395
  111SAPE   H5Y11565   1.040   4.967   2.900  0.0854 -1.6218  2.0301
  111SAPE   C3611566   1.188   5.063   3.028  0.9260  0.4537 -0.1006
  111SAPE   H6X11567   1.138   5.162   3.029  0.4648  0.2323 -0.6048
  111SAPE   H6Y11568   1.296   5.084   3.015  0.9750 -0.8101 -2.2176
  111SAPE   C3711569   1.144   4.995   3.160  0.2519  0.0496 -0.2690
  111SAPE   H7X11570   1.178   4.889   3.157  1.7762  0.4812  0.5295
  111SAPE   H7Y11571   1.034   5.007   3.168  0.4062  0.3972  1.7344
  111SAPE   C3811572   1.212   5.053   3.288 -0.0495  1.0073 -0.4198
  111SAPE   H8X11573   1.186   5.160   3.300  0.3888  1.0897 -0.1719
  111SAPE   H8Y11574   1.322   5.043   3.288 -0.1685 -0.8275  0.7319
  111SAPE   C3911575   1.175   4.979   3.423  0.2387 -0.1113  0.6491
  111SAPE   H9X11576   1.223   5.048   3.496  1.2567 -0.3602  0.2361
  111SAPE   H9Y11577   1.221   4.878   3.427  0.7169  0.0449 -0.4759
  111SAPE  C31011578   1.028   4.985   3.460  0.1112 -0.5897  0.3476
  111SAPE  H10X11579   0.971   4.895   3.428 -1.1863  0.3621 -0.1064
  111SAPE  H10Y11580   0.989   5.068   3.397 -0.6686 -0.3667  1.1028
  111SAPE  C31111581   1.019   5.006   3.610  0.4843  0.1614  0.9393
  111SAPE  H11X11582   1.088   5.091   3.629 -0.3066  1.2745 -0.9554
  111SAPE  H11Y11583   1.061   4.911   3.652 -0.5163 -0.7482 -0.0677
  111SAPE  C31211584   0.876   5.035   3.662  0.7640 -0.1863  0.3449
  111SAPE  H12X11585   0.808   5.004   3.579  0.0511  0.0207  0.8492
  111SAPE  H12Y11586   0.866   5.145   3.675 -1.4611  0.0171 -2.2096
  111SAPE  C31311587   0.855   4.964   3.795 -0.3970  0.7100  0.1464
  111SAPE  H13X11588   0.940   4.976   3.865 -0.4885 -1.8126  0.7825
  111SAPE  H13Y11589   0.853   4.857   3.764 -2.2010  1.4742 -2.7640
  111SAPE  C31411590   0.726   5.009   3.859 -0.2264  0.9635  0.1520
  111SAPE  H14X11591   0.737   5.117   3.883 -1.1485  0.6935  1.9599
  111SAPE  H14Y11592   0.718   4.952   3.954 -1.4460 -1.9790 -1.5561
  111SAPE  C31511593   0.592   4.993   3.780  0.3433  0.5664  0.8433
  111SAPE  H15X11594   0.589   4.896   3.726 -1.7783  1.0357  0.0164
  111SAPE  H15Y11595   0.611   5.071   3.702  1.9126 -0.2805  0.3139
  111SAPE  C31611596   0.460   4.999   3.853  0.4377  0.6368  0.3436
  111SAPE  H16X11597   0.470   4.923   3.933 -3.4239  0.3099  0.6796
  111SAPE  H16Y11598   0.384   4.976   3.775  2.6917  0.9695 -2.1290
  111SAPE  C31711599   0.434   5.136   3.913  0.2052  0.5853  1.2999
  111SAPE  H17X11600   0.507   5.149   3.996  0.1149 -3.0907  2.1147
  111SAPE  H17Y11601   0.329   5.123   3.948  0.4490  0.1864  1.8992
  111SAPE  C31811602   0.449   5.254   3.813  0.0388 -0.0938 -0.0164
  111SAPE  H18X11603   0.381   5.238   3.727 -1.1729 -0.5303  0.9798
  111SAPE  H18Y11604   0.555   5.270   3.785 -0.1439  0.4947 -0.3874
  111SAPE  H18Z11605   0.410   5.345   3.864 -1.0522  0.1338 -1.2130
  112SAPE     N11606   3.862   6.029   2.308  0.5392 -0.0650  0.5278
  112SAPE   HN111607   3.770   5.980   2.305  0.5328 -0.0498  0.4738
  112SAPE   HN211608   3.849   6.130   2.288  3.2824  0.5275  1.3084
  112SAPE   HN311609   3.916   6.005   2.224 -0.1331 -0.6064  0.2421
  112SAPE   C1211610   3.942   6.016   2.425 -0.8478  0.6463 -0.2707
  112SAPE  H12A11611   3.970   5.909   2.437  2.2877  1.3135 -0.7694
  112SAPE  H12B11612   3.886   6.057   2.512 -0.9030 -1.3156  0.6692
  112SAPE   C1111613   4.065   6.107   2.410 -0.0529 -0.1083  0.4384
  112SAPE  H11A11614   4.135   6.089   2.494  1.3993  1.8474 -0.2874
  112SAPE  H11B11615   4.030   6.212   2.419  1.0916  0.2813  0.5251
  112SAPE     P11616   4.259   6.175   2.257  0.4419  0.2095  0.0300
  112SAPE   O1311617   4.333   6.114   2.148  0.0592  0.1853 -0.2592
  112SAPE   O1411618   4.224   6.320   2.236 -0.5505 -0.0546 -0.2366
  112SAPE   O1211619   4.127   6.097   2.282  0.3246  0.2180  0.0958
  112SAPE   O1111620   4.347   6.172   2.391 -0.5570 -0.3907  0.4626
  112SAPE    C111621   4.415   6.056   2.427 -0.2158  0.1992  0.3130
  112SAPE    HA11622   4.357   5.999   2.503 -2.5333  0.3181 -1.2784
  112SAPE    HB11623   4.433   5.981   2.347 -3.3204 -0.8751  0.5013
  112SAPE    C211624   4.563   6.080   2.483  0.0104 -0.0956  0.8829
  112SAPE    HS11625   4.602   5.979   2.508  0.2398 -0.8944 -2.2381
  112SAPE   O2111626   4.556   6.161   2.595  0.3234 -0.5421 -0.4870
  112SAPE   C2111627   4.487   6.105   2.694  0.3842 -0.2123  0.2734
  112SAPE   O2211628   4.475   5.984   2.708 -0.1918 -0.5480  0.5510
  112SAPE   C2211629   4.440   6.206   2.790  0.1555 -0.1226  0.0024
  112SAPE   H2R11630   4.377   6.274   2.729  0.1704 -1.9388 -2.1454
  112SAPE   H2S11631   4.370   6.157   2.860  0.6080 -0.7820 -0.0006
  112SAPE    C311632   4.652   6.151   2.372 -0.5419 -0.1000  0.5969
  112SAPE    HX11633   4.595   6.241   2.340 -0.3286 -1.0167 -2.7821
  112SAPE    HY11634   4.649   6.085   2.282 -0.7582 -1.3530  1.4914
  112SAPE   O3111635   4.783   6.163   2.420  0.1351 -0.0484 -0.4278
  112SAPE   C3111636   4.870   6.231   2.356 -0.5249 -0.4065  0.5326
  112SAPE   O3211637   4.873   6.235   2.232  0.1609  0.0164 -0.4108
  112SAPE   C3211638   4.974   6.298   2.441 -0.2056 -0.0440  0.7661
  112SAPE   H2X11639   5.055   6.302   2.365 -2.6723 -0.7226 -2.0882
  112SAPE   H2Y11640   4.999   6.230   2.525 -1.0730  0.4049  1.4048
  112SAPE   C2311641   4.538   6.288   2.871  0.0384 -0.2181 -0.5917
  112SAPE   H3R11642   4.475   6.349   2.939 -2.4212 -1.0845 -1.9626
  112SAPE   H3S11643   4.592   6.360   2.806  0.8919 -1.1976 -0.9992
  112SAPE   C2411644   4.650   6.217   2.952  0.0522 -0.0604  0.6060
  112SAPE   H4R11645   4.685   6.290   3.028  1.1949  0.1991 -0.1458
  112SAPE   H4S11646   4.732   6.194   2.880  0.8039  1.3546  0.9776
  112SAPE   C2511647   4.592   6.096   3.016 -0.4476  0.8291 -0.4814
  112SAPE   H5R11648   4.613   6.000   2.968  3.9681  1.3036  0.0950
  112SAPE   C2611649   4.527   6.098   3.137 -0.3175  0.0240  0.0227
  112SAPE   H6R11650   4.502   6.000   3.180  1.4262 -1.5159 -2.2176
  112SAPE   C2711651   4.487   6.224   3.213 -0.1512 -0.2787 -0.0853
  112SAPE   H7R11652   4.409   6.197   3.288  1.8949 -1.9972  1.5481
  112SAPE   H7S11653   4.448   6.305   3.147  4.0206  0.4810 -1.9702
  112SAPE   C2811654   4.599   6.286   3.297  1.0295 -0.0591  0.7089
  112SAPE   H8R11655   4.615   6.393   3.276  0.3636  0.0434  0.6972
  112SAPE   C2911656   4.653   6.226   3.401  0.4134  0.5449  0.0745
  112SAPE   H9R11657   4.725   6.285   3.460 -0.0506  1.6843 -0.4668
  112SAPE  C21011658   4.629   6.083   3.444  0.3395 -0.0952 -0.0562
  112SAPE  H10R11659   4.722   6.033   3.410  0.9161  0.7223  0.3129
  112SAPE  H10S11660   4.541   6.037   3.394 -0.5948 -1.4970  2.6524
  112SAPE  C21111661   4.616   6.030   3.584 -0.0045  0.3643  0.0635
  112SAPE  H11R11662   4.666   5.933   3.601  0.1125  0.2804 -0.7118
  112SAPE  C21211663   4.538   6.086   3.685  0.2648 -0.2181  1.3419
  112SAPE  H12R11664   4.544   6.034   3.781 -0.1435 -0.7309  1.0988
  112SAPE  C21311665   4.463   6.219   3.682 -0.0927 -0.2464  0.0626
  112SAPE  H13R11666   4.483   6.284   3.595 -0.0655  2.7450  2.1397
  112SAPE  H13S11667   4.492   6.281   3.770  1.1469 -2.6367  1.4581
  112SAPE  C21411668   4.315   6.176   3.688  0.2188 -0.1974  0.6304
  112SAPE  H14R11669   4.279   6.104   3.613  1.9129  0.6079 -1.0441
  112SAPE  C21511670   4.225   6.217   3.777  0.4168 -0.9766  0.1949
  112SAPE  H15R11671   4.117   6.197   3.768  0.4062 -0.3533 -1.3993
  112SAPE  C21611672   4.247   6.292   3.905 -0.0405  0.1712  0.4628
  112SAPE  H16R11673   4.354   6.303   3.931 -0.0662  0.0738  0.6089
  112SAPE  H16S11674   4.204   6.235   3.990 -0.9149 -0.8631 -0.6375
  112SAPE  C21711675   4.175   6.431   3.925 -0.1419 -0.5452  0.0851
  112SAPE  H17R11676   4.066   6.411   3.937 -0.2237  0.0767  0.3931
  112SAPE  H17S11677   4.194   6.495   3.836  0.3398 -1.9511 -0.8755
  112SAPE  C21811678   4.209   6.515   4.050  0.3070  0.9990 -0.0889
  112SAPE  H18R11679   4.165   6.464   4.138 -0.3132  0.2341 -0.8210
  112SAPE  H18S11680   4.164   6.617   4.044 -2.0925  0.0134  0.0764
  112SAPE  C21911681   4.356   6.542   4.079 -0.1556  0.4569  0.2604
  112SAPE  H19R11682   4.408   6.584   3.990  1.1076 -0.8148  0.3456
  112SAPE  H19S11683   4.405   6.442   4.085 -1.4259 -0.0904  2.6964
  112SAPE  C22011684   4.391   6.614   4.205 -0.1372 -0.3941  0.0514
  112SAPE  H20R11685   4.351   6.558   4.293 -0.2168 -0.1127  0.1944
  112SAPE  H20S11686   4.341   6.713   4.204 -0.1547 -0.3944  0.4813
  112SAPE  H20T11687   4.502   6.623   4.212  0.0131 -0.1764 -2.0396
  112SAPE   C3311688   4.948   6.439   2.501 -0.1063 -0.1648 -0.0602
  112SAPE   H3X11689   4.935   6.504   2.411 -0.8833 -1.0126 -0.5736
  112SAPE   H3Y11690   5.044   6.474   2.544  0.0640 -2.7796  1.9231
  112SAPE   C3411691   4.843   6.442   2.606 -0.0139 -0.0114  0.4493
  112SAPE   H4X11692   4.868   6.354   2.670  0.4520 -0.9177 -0.9341
  112SAPE   H4Y11693   4.738   6.439   2.569  0.3651  0.0699 -0.6642
  112SAPE   C3511694   4.861   6.569   2.690 -0.2728 -0.4503  0.2972
  112SAPE   H5X11695   4.813   6.657   2.642 -1.5951 -0.7027  1.0956
  112SAPE   H5Y11696   4.971   6.579   2.706 -0.4465  0.9006  0.8287
  112SAPE   C3611697   4.795   6.572   2.821  1.1244 -0.1172 -0.1969
  112SAPE   H6X11698   4.817   6.485   2.886 -1.5716 -0.1522  0.8032
  112SAPE   H6Y11699   4.687   6.553   2.800  0.6751  1.3535  0.6490
  112SAPE   C3711700   4.808   6.697   2.908 -0.4867  0.0281 -0.2002
  112SAPE   H7X11701   4.765   6.771   2.837  0.7101 -1.0699 -2.1565
  112SAPE   H7Y11702   4.917   6.712   2.925 -0.6998 -0.8921  2.5383
  112SAPE   C3811703   4.743   6.699   3.046  0.5337  0.3348 -1.0246
  112SAPE   H8X11704   4.649   6.640   3.045  0.8779 -0.4277  1.8343
  112SAPE   H8Y11705   4.723   6.801   3.086  0.3316 -0.1532  0.1788
  112SAPE   C3911706   4.823   6.619   3.154  0.9301 -0.4959  0.9999
  112SAPE   H9X11707   4.930   6.632   3.178  1.4155 -1.4251 -0.5370
  112SAPE   H9Y11708   4.823   6.511   3.125 -0.9910 -0.1897 -0.3507
  112SAPE  C31011709   4.751   6.614   3.295  0.0308 -0.3066 -0.0696
  112SAPE  H10X11710   4.779   6.534   3.367 -1.5065 -1.4383 -0.6522
  112SAPE  H10Y11711   4.642   6.607   3.273  0.1603  1.0630 -1.2844
  112SAPE  C31111712   4.788   6.746   3.368 -0.5798  0.3125 -0.3048
  112SAPE  H11X11713   4.760   6.823   3.294  0.4259  1.5937  0.6134
  112SAPE  H11Y11714   4.898   6.756   3.378 -0.5390  0.2152 -0.6537
  112SAPE  C31211715   4.734   6.759   3.505  1.1158 -0.7036 -0.3354
  112SAPE  H12X11716   4.624   6.753   3.487  1.0599 -0.4646 -0.0769
  112SAPE  H12Y11717   4.753   6.858   3.551 -2.4889 -1.1420  2.6293
  112SAPE  C31311718   4.794   6.657   3.604  0.0933  0.0409  0.1872
  112SAPE  H13X11719   4.904   6.665   3.598  0.3980 -2.8832  0.1835
  112SAPE  H13Y11720   4.759   6.554   3.579 -1.6676  0.8751 -1.0469
  112SAPE  C31411721   4.753   6.685   3.752 -0.6405  0.2096 -0.2853
  112SAPE  H14X11722   4.643   6.687   3.759 -0.6313 -0.8670  0.2693
  112SAPE  H14Y11723   4.789   6.783   3.790 -0.9811  0.1140  0.2834
  112SAPE  C31511724   4.810   6.581   3.853  0.0341  0.7016 -0.5404
  112SAPE  H15X11725   4.921   6.585   3.857  0.1247 -0.5558 -1.1752
  112SAPE  H15Y11726   4.781   6.477   3.827 -2.4384  0.3775  2.7679
  112SAPE  C31611727   4.757   6.598   3.995 -0.1439  0.1274 -0.7182
  112SAPE  H16X11728   4.646   6.606   3.996 -0.1299  0.4156 -1.0726
  112SAPE  H16Y11729   4.791   6.701   4.021  0.6898 -0.2134 -0.4155
  112SAPE  C31711730   4.810   6.496   4.091 -0.0442  0.2644  0.2784
  112SAPE  H17X11731   4.920   6.482   4.080  0.3077  0.8915  2.6245
  112SAPE  H17Y11732   4.772   6.394   4.067 -0.0491  0.6168 -1.3435
  112SAPE  C31811733   4.799   6.511   4.244 -0.0554 -0.7252 -0.4668
  112SAPE  H18X11734   4.840   6.611   4.270 -3.5143  0.9687 -0.8720
  112SAPE  H18Y11735   4.850   6.431   4.301  0.6719 -0.7028 -1.0649
  112SAPE  H18Z11736   4.691   6.510   4.270 -0.7720 -1.2080 -3.1040
  113SAPE     N11737   4.574   4.271   1.992  0.2317 -0.0555 -0.4878
  113SAPE   HN111738   4.652   4.239   1.932  0.6242 -0.0064 -0.0140
  113SAPE   HN211739   4.561   4.190   2.056  1.2746 -0.9242 -1.3338
  113SAPE   HN311740   4.491   4.272   1.930  0.0014 -0.4056 -0.1894
  113SAPE   C1211741   4.578   4.390   2.081  0.3341 -0.1493  0.0579
  113SAPE  H12A11742   4.474   4.423   2.104  0.4937  0.8337 -0.5364
  113SAPE  H12B11743   4.626   4.470   2.021  0.8309  1.2704  2.2150
  113SAPE   C1111744   4.654   4.364   2.211 -0.2046 -0.0205  0.1569
  113SAPE  H11A11745   4.635   4.445   2.283  3.6259  0.7743  0.4529
  113SAPE  H11B11746   4.764   4.364   2.199 -0.1563  1.5640  0.4295
  113SAPE     P11747   4.680   4.146   2.362 -0.2544  0.2990  0.2410
  113SAPE   O1311748   4.609   4.018   2.395  0.4471 -0.2427 -0.0242
  113SAPE   O1411749   4.813   4.133   2.305  0.0565  0.5296  0.2162
  113SAPE   O1211750   4.602   4.242   2.263  0.3506 -0.4836 -0.4641
  113SAPE   O1111751   4.691   4.236   2.491  0.5584  0.7185 -0.3121
  113SAPE    C111752   4.576   4.255   2.574 -0.1073  0.1572 -0.2902
  113SAPE    HA11753   4.500   4.175   2.576  0.7106 -0.6251  1.6683
  113SAPE    HB11754   4.619   4.254   2.676  1.1632 -0.9038 -0.8074
  113SAPE    C211755   4.500   4.387   2.556  0.1466  0.0281 -0.0360
  113SAPE    HS11756   4.466   4.386   2.450  1.2029  2.6226 -0.4945
  113SAPE   O2111757   4.593   4.496   2.569  0.6859  0.2017  0.3579
  113SAPE   C2111758   4.542   4.606   2.533 -0.9061  0.2304 -0.3555
  113SAPE   O2211759   4.430   4.633   2.491 -0.3286 -0.5568 -0.6771
  113SAPE   C2211760   4.652   4.711   2.557 -0.2438  0.4529  0.5084
  113SAPE   H2R11761   4.750   4.669   2.527  0.3457  1.9926  0.1761
  113SAPE   H2S11762   4.645   4.785   2.474  0.7848 -0.5439 -0.5134
  113SAPE    C311763   4.378   4.395   2.652  0.2093  0.4177 -0.4162
  113SAPE    HX11764   4.343   4.290   2.646 -1.7917  0.9065  1.4976
  113SAPE    HY11765   4.297   4.460   2.612  1.3727  0.9234 -2.0839
  113SAPE   O3111766   4.428   4.422   2.781 -0.0747 -0.5031  0.2127
  113SAPE   C3111767   4.365   4.528   2.846 -0.3420 -0.1120  1.1069
  113SAPE   O3211768   4.270   4.591   2.801  0.0963 -0.7619  0.3430
  113SAPE   C3211769   4.445   4.547   2.976 -0.4019  0.2834  0.0969
  113SAPE   H2X11770   4.553   4.545   2.952 -0.3522 -2.2165  0.3226
  113SAPE   H2Y11771   4.428   4.459   3.041  0.8108  0.0203  0.0637
  113SAPE   C2311772   4.640   4.789   2.698  0.3234  0.3081  0.6823
  113SAPE   H3R11773   4.541   4.797   2.747  0.1961 -1.7696  0.8561
  113SAPE   H3S11774   4.661   4.895   2.671 -1.3601  1.1807  2.5771
  113SAPE   C2411775   4.736   4.729   2.802 -0.1122 -0.8232 -0.2603
  113SAPE   H4R11776   4.711   4.621   2.808  0.8797 -1.0162  1.0803
  113SAPE   H4S11777   4.718   4.775   2.902  1.1484  1.1600 -0.8763
  113SAPE   C2511778   4.882   4.739   2.769  0.2284  0.6638 -0.4187
  113SAPE   H5R11779   4.915   4.710   2.668  0.5125 -0.6710  0.0300
  113SAPE   C2611780   4.983   4.744   2.858  0.2351  0.1462  0.4890
  113SAPE   H6R11781   5.088   4.742   2.826  1.1290 -0.7799  3.1907
  113SAPE   C2711782   4.985   4.767   3.008 -0.1709  0.1794  0.7382
  113SAPE   H7R11783   5.072   4.708   3.046  1.2369  0.1498 -2.2312
  113SAPE   H7S11784   4.887   4.734   3.048  0.4470 -0.3812  1.8257
  113SAPE   C2811785   5.002   4.910   3.041 -0.5602 -0.6373  0.0860
  113SAPE   H8R11786   5.071   4.954   2.968 -0.4306 -1.8621 -0.5578
  113SAPE   C2911787   4.957   4.972   3.151  0.1302 -0.4848 -0.2447
  113SAPE   H9R11788   4.991   5.074   3.174  0.1243 -1.1512  3.4178
  113SAPE  C21011789   4.867   4.911   3.260 -0.7160 -0.3985  0.3046
  113SAPE  H10R11790   4.907   4.809   3.279  0.9788 -0.0119 -0.8966
  113SAPE  H10S11791   4.765   4.901   3.218 -1.4621  2.1184  1.3233
  113SAPE  C21111792   4.853   4.999   3.379  0.4645 -1.0834  0.1058
  113SAPE  H11R11793   4.798   5.093   3.367  1.1553 -0.4254  1.7153
  113SAPE  C21211794   4.903   4.975   3.504  0.3388 -0.2827  0.0410
  113SAPE  H12R11795   4.886   5.055   3.578 -3.5958  1.6789 -2.6045
  113SAPE  C21311796   4.979   4.854   3.551 -1.0425  1.0229  0.1756
  113SAPE  H13R11797   5.076   4.891   3.591 -0.7631  0.6670 -0.1578
  113SAPE  H13S11798   5.002   4.789   3.464  0.2704  1.8150 -0.1092
  113SAPE  C21411799   4.918   4.773   3.657  1.3162  0.4998 -0.0953
  113SAPE  H14R11800   4.842   4.699   3.628  0.4598  1.4489 -0.3280
  113SAPE  C21511801   4.919   4.803   3.790  0.0213 -0.4072 -0.9436
  113SAPE  H15R11802   4.864   4.740   3.861  0.1104  0.1642 -0.3600
  113SAPE  C21611803   5.006   4.908   3.852  0.0113  0.3129 -0.6441
  113SAPE  H16R11804   4.973   5.005   3.810  0.5645  0.7434 -0.1050
  113SAPE  H16S11805   5.114   4.890   3.831  0.0095  1.0128 -1.2688
  113SAPE  C21711806   5.010   4.939   4.004 -0.2096  0.2400 -0.2458
  113SAPE  H17R11807   5.047   4.851   4.060  2.6308  2.5261  1.8295
  113SAPE  H17S11808   4.910   4.968   4.044 -0.9191 -0.4591 -1.4763
  113SAPE  C21811809   5.105   5.054   4.045 -0.6183  0.2641 -0.2662
  113SAPE  H18R11810   5.071   5.154   4.008 -0.2849  0.7540  0.7155
  113SAPE  H18S11811   5.206   5.032   4.005  0.0693 -1.1869  2.0753
  113SAPE  C21911812   5.120   5.063   4.191 -0.6389  0.0895 -0.3941
  113SAPE  H19R11813   5.133   4.962   4.236  0.0296  0.9017  1.3302
  113SAPE  H19S11814   5.042   5.107   4.257 -0.1367  0.4177 -0.0073
  113SAPE  C22011815   5.259   5.135   4.226  0.5087 -0.0838 -0.4265
  113SAPE  H20R11816   5.341   5.062   4.212  0.4252 -0.4250  0.8033
  113SAPE  H20S11817   5.263   5.176   4.329  0.4879 -2.8438  0.7586
  113SAPE  H20T11818   5.276   5.210   4.145 -2.1507  0.1175 -0.9075
  113SAPE   C3311819   4.414   4.689   3.038  0.2907  0.5976  0.6597
  113SAPE   H3X11820   4.307   4.680   3.068  0.4947  0.0060  1.2605
  113SAPE   H3Y11821   4.423   4.759   2.953 -0.5836 -0.0429  0.0204
  113SAPE   C3411822   4.503   4.715   3.161  0.7225 -0.3557 -0.1626
  113SAPE   H4X11823   4.489   4.823   3.183  1.7786 -0.2838  0.2154
  113SAPE   H4Y11824   4.610   4.708   3.129  0.4841 -1.0369 -0.8557
  113SAPE   C3511825   4.479   4.630   3.279  0.6186  0.5811  0.9060
  113SAPE   H5X11826   4.441   4.529   3.252  1.9617  0.0234  1.0390
  113SAPE   H5Y11827   4.408   4.679   3.349  0.7251  0.7492  0.8976
  113SAPE   C3611828   4.620   4.610   3.347 -0.4635 -0.0188  0.3653
  113SAPE   H6X11829   4.669   4.708   3.362 -1.8335  0.4481  2.0775
  113SAPE   H6Y11830   4.693   4.556   3.282 -0.3184 -0.0536  0.5548
  113SAPE   C3711831   4.621   4.526   3.481  0.4822  0.5825 -0.3381
  113SAPE   H7X11832   4.725   4.487   3.494  0.8193  0.5729 -2.5530
  113SAPE   H7Y11833   4.558   4.436   3.466 -0.0416  1.0229 -0.8408
  113SAPE   C3811834   4.581   4.601   3.607  0.1350  0.1636  0.2636
  113SAPE   H8X11835   4.623   4.704   3.612  3.0965 -0.9498  0.3738
  113SAPE   H8Y11836   4.474   4.624   3.595 -0.5327 -3.1022 -1.2091
  113SAPE   C3911837   4.624   4.529   3.736 -0.1198  0.4148  0.2876
  113SAPE   H9X11838   4.734   4.514   3.724 -0.0717 -0.4047  1.5530
  113SAPE   H9Y11839   4.582   4.427   3.747  1.1139  0.0335  1.9743
  113SAPE  C31011840   4.598   4.605   3.861  0.6789 -0.4591  0.7025
  113SAPE  H10X11841   4.487   4.610   3.867  0.6722  0.8288 -0.2094
  113SAPE  H10Y11842   4.634   4.710   3.854 -0.5154  0.0807  2.1555
  113SAPE  C31111843   4.681   4.544   3.981  0.5976  1.0788  0.7318
  113SAPE  H11X11844   4.786   4.559   3.950  1.0911 -1.5626  0.9116
  113SAPE  H11Y11845   4.653   4.436   3.985  0.6541  1.0699  0.8838
  113SAPE  C31211846   4.673   4.622   4.116  0.5497  0.2550  0.5147
  113SAPE  H12X11847   4.566   4.631   4.142  0.5371  0.3334  0.4371
  113SAPE  H12Y11848   4.714   4.725   4.107 -0.3033  0.6048  0.5641
  113SAPE  C31311849   4.757   4.556   4.226  0.0955 -0.2093 -0.2113
  113SAPE  H13X11850   4.867   4.562   4.207  0.4479  0.5762  1.8233
  113SAPE  H13Y11851   4.725   4.450   4.237 -1.9024  0.5336  1.7942
  113SAPE  C31411852   4.737   4.621   4.362  0.9980 -0.0527  0.1056
  113SAPE  H14X11853   4.793   4.565   4.440 -1.6376 -3.3983 -0.1424
  113SAPE  H14Y11854   4.629   4.623   4.391  0.1341 -2.1978 -2.5179
  113SAPE  C31511855   4.783   4.765   4.365  0.4125 -0.4682  0.5608
  113SAPE  H15X11856   4.719   4.834   4.306 -0.4246 -2.1751 -0.6109
  113SAPE  H15Y11857   4.892   4.768   4.341  0.8456 -0.3373  2.3976
  113SAPE  C31611858   4.758   4.828   4.502  0.0022 -0.7326 -0.0680
  113SAPE  H16X11859   4.798   4.765   4.585 -0.2115 -0.4939  0.2177
  113SAPE  H16Y11860   4.653   4.858   4.520  0.3575 -0.6831  2.2014
  113SAPE  C31711861   4.835   4.967   4.507  0.0934  0.1257 -0.4387
  113SAPE  H17X11862   4.784   5.034   4.434  0.5944  0.6036 -0.3535
  113SAPE  H17Y11863   4.943   4.951   4.486  0.3103  2.6138 -1.4928
  113SAPE  C31811864   4.826   5.041   4.645 -0.5681 -0.1946  0.9227
  113SAPE  H18X11865   4.720   5.043   4.681 -0.5614 -1.3126  1.0558
  113SAPE  H18Y11866   4.873   5.141   4.651  0.9665 -0.8807  0.6955
  113SAPE  H18Z11867   4.880   4.982   4.722  1.5847 -0.7493 -0.9225
  114SAPE     N11868   6.230   4.121   2.065 -0.6256 -0.3433  0.2703
  114SAPE   HN111869   6.194   4.040   2.011 -1.4083 -0.0486  0.3335
  114SAPE   HN211870   6.172   4.201   2.032 -0.8765 -0.1318  1.1872
  114SAPE   HN311871   6.324   4.148   2.031 -0.9013 -1.5942 -1.6495
  114SAPE   C1211872   6.188   4.106   2.209  0.4608 -0.1289 -0.4633
  114SAPE  H12A11873   6.092   4.051   2.211  1.2352 -1.5353 -0.7590
  114SAPE  H12B11874   6.160   4.209   2.239 -1.0077 -0.7566  0.4317
  114SAPE   C1111875   6.302   4.048   2.297  0.1883  0.0850  0.8042
  114SAPE  H11A11876   6.255   4.038   2.397  1.5812  2.0432  1.7134
  114SAPE  H11B11877   6.378   4.129   2.305 -0.1361  0.5764 -0.6581
  114SAPE     P11878   6.292   3.790   2.269  0.1852  0.2647  0.2226
  114SAPE   O1311879   6.151   3.802   2.304  0.5800 -0.2850  0.4598
  114SAPE   O1411880   6.322   3.700   2.153 -0.2308 -0.1788 -0.1456
  114SAPE   O1211881   6.362   3.930   2.241 -0.0246 -0.1098 -0.7983
  114SAPE   O1111882   6.370   3.730   2.392 -0.9514 -0.2071 -0.0566
  114SAPE    C111883   6.512   3.758   2.403  0.5988 -0.8339  0.0663
  114SAPE    HA11884   6.564   3.745   2.306 -2.9625 -1.0498 -2.0090
  114SAPE    HB11885   6.536   3.861   2.438  0.4314 -0.8634  0.2670
  114SAPE    C211886   6.572   3.666   2.508  0.1634  0.5971 -0.0581
  114SAPE    HS11887   6.558   3.559   2.479 -0.5680  0.8210 -0.5423
  114SAPE   O2111888   6.504   3.689   2.627  0.4758 -0.4415  0.4421
  114SAPE   C2111889   6.524   3.610   2.734 -0.1229  0.1029  0.4241
  114SAPE   O2211890   6.585   3.506   2.733 -0.6908 -0.0975 -0.1768
  114SAPE   C2211891   6.443   3.665   2.850 -0.2105  0.0514 -0.0552
  114SAPE   H2R11892   6.509   3.734   2.906 -0.9985  1.7190 -1.1117
  114SAPE   H2S11893   6.352   3.715   2.811 -0.1452  0.3894  0.2227
  114SAPE    C311894   6.730   3.672   2.534 -0.3034 -0.2671 -0.0771
  114SAPE    HX11895   6.779   3.671   2.434 -0.2855  2.4087 -0.1649
  114SAPE    HY11896   6.765   3.587   2.596 -0.2021 -0.5949 -0.5723
  114SAPE   O3111897   6.770   3.779   2.614  0.6100 -0.0071 -0.4228
  114SAPE   C3111898   6.874   3.852   2.585  0.7706 -0.3487  0.1004
  114SAPE   O3211899   6.944   3.847   2.483 -0.6009 -0.0845 -0.2415
  114SAPE   C3211900   6.912   3.948   2.698  0.5300  0.1706 -0.1862
  114SAPE   H2X11901   6.818   3.999   2.730  0.2951 -1.0521  1.1916
  114SAPE   H2Y11902   6.977   4.031   2.665 -0.5410  1.0951 -0.0544
  114SAPE   C2311903   6.415   3.550   2.955  0.6916 -1.2695 -0.6153
  114SAPE   H3R11904   6.496   3.482   2.988  0.1967 -0.3410  2.8458
  114SAPE   H3S11905   6.357   3.479   2.891  0.0933 -2.1587  0.8788
  114SAPE   C2411906   6.333   3.608   3.067  0.5698 -0.3877  0.1113
  114SAPE   H4R11907   6.253   3.544   3.110  1.0770 -0.2080  1.3781
  114SAPE   H4S11908   6.274   3.690   3.022 -1.6658 -0.8979  1.9638
  114SAPE   C2511909   6.428   3.676   3.163 -1.3627 -0.4190  0.0460
  114SAPE   H5R11910   6.530   3.695   3.126 -1.1932 -0.6046  0.4185
  114SAPE   C2611911   6.415   3.693   3.296  0.4547  0.1038  0.0592
  114SAPE   H6R11912   6.496   3.740   3.352  0.8811 -0.2681 -0.2369
  114SAPE   C2711913   6.294   3.648   3.376 -0.3907 -0.6960 -0.0465
  114SAPE   H7R11914   6.313   3.541   3.399 -0.1946 -0.6912 -0.1860
  114SAPE   H7S11915   6.205   3.667   3.312  1.2860 -1.5983 -2.8121
  114SAPE   C2811916   6.283   3.729   3.501 -0.2691 -0.4027 -0.1403
  114SAPE   H8R11917   6.293   3.838   3.487  0.1826 -0.3275  0.7075
  114SAPE   C2911918   6.249   3.685   3.623 -0.2585  0.2990 -0.5452
  114SAPE   H9R11919   6.243   3.755   3.708 -0.2336  0.0346 -0.3226
  114SAPE  C21011920   6.232   3.538   3.659 -0.1017 -0.0801  0.1381
  114SAPE  H10R11921   6.307   3.478   3.602 -0.9773 -1.3390  0.2671
  114SAPE  H10S11922   6.135   3.501   3.619  0.4344 -1.6797  0.2122
  114SAPE  C21111923   6.248   3.489   3.798 -0.3557 -1.1932 -0.0305
  114SAPE  H11R11924   6.287   3.555   3.877  0.6713 -2.4418  0.5565
  114SAPE  C21211925   6.205   3.367   3.837 -0.2350 -0.0587  0.0926
  114SAPE  H12R11926   6.213   3.341   3.943 -0.5671  1.3617  0.4924
  114SAPE  C21311927   6.149   3.258   3.753 -0.2318  0.7155  0.7065
  114SAPE  H13R11928   6.206   3.167   3.781 -0.3145  0.9214  1.5645
  114SAPE  H13S11929   6.175   3.271   3.646 -0.9868  0.6455  0.5096
  114SAPE  C21411930   6.003   3.223   3.776 -0.1143 -0.2495  0.4062
  114SAPE  H14R11931   5.945   3.267   3.859 -4.1155 -0.9716 -1.7801
  114SAPE  C21511932   5.917   3.157   3.693 -0.7199 -0.6076 -0.5629
  114SAPE  H15R11933   5.812   3.163   3.726 -1.6130  2.5968 -3.4994
  114SAPE  C21611934   5.957   3.079   3.569  0.3123 -0.3583 -0.0925
  114SAPE  H16R11935   5.924   2.973   3.577  0.4138 -0.3805  0.0429
  114SAPE  H16S11936   6.067   3.081   3.553  0.3294 -0.5019  0.0036
  114SAPE  C21711937   5.888   3.160   3.454 -0.1520  0.7711 -0.3714
  114SAPE  H17R11938   5.927   3.264   3.453  0.3033  0.6113 -2.0840
  114SAPE  H17S11939   5.780   3.147   3.472  0.5798 -3.4489  2.2670
  114SAPE  C21811940   5.922   3.109   3.314 -0.2938 -0.5185 -0.4540
  114SAPE  H18R11941   5.860   3.166   3.241 -1.7971  0.3730  1.4258
  114SAPE  H18S11942   5.884   3.005   3.321 -1.9294  0.0408 -0.5531
  114SAPE  C21911943   6.069   3.110   3.269  0.2773  0.4902  0.4877
  114SAPE  H19R11944   6.076   3.067   3.167  0.7332  0.9704  0.3179
  114SAPE  H19S11945   6.124   3.039   3.335  0.4561 -1.2535 -1.4546
  114SAPE  C22011946   6.139   3.247   3.277  0.5131 -0.4637 -0.0205
  114SAPE  H20R11947   6.103   3.308   3.192  3.6039  2.0044  0.2885
  114SAPE  H20S11948   6.243   3.223   3.247  0.4259  0.2373 -0.8961
  114SAPE  H20T11949   6.131   3.297   3.375 -1.8056 -3.3108  1.4198
  114SAPE   C3311950   6.957   3.870   2.826  0.4095 -0.0247 -0.1221
  114SAPE   H3X11951   7.058   3.829   2.802  1.0952  2.6580 -2.3888
  114SAPE   H3Y11952   6.883   3.789   2.843  0.4258  0.3000  1.7407
  114SAPE   C3411953   6.981   3.948   2.951  0.0766 -0.3741 -0.1368
  114SAPE   H4X11954   6.883   3.982   2.992 -0.3416 -3.7441  2.0184
  114SAPE   H4Y11955   7.051   4.031   2.925  0.5138 -0.7554 -0.1872
  114SAPE   C3511956   7.056   3.875   3.065 -0.1930  0.3372 -0.2655
  114SAPE   H5X11957   7.155   3.847   3.023 -0.7657 -0.2157 -1.2962
  114SAPE   H5Y11958   7.006   3.783   3.100  0.7445  0.3352  1.1570
  114SAPE   C3611959   7.083   3.975   3.183 -0.1386 -0.6221 -0.2504
  114SAPE   H6X11960   6.986   4.005   3.226 -1.2919  0.3301 -3.2604
  114SAPE   H6Y11961   7.122   4.069   3.137  1.1913 -0.5978  0.8556
  114SAPE   C3711962   7.171   3.924   3.291  0.3732  0.3601 -0.0759
  114SAPE   H7X11963   7.273   3.911   3.247  0.1280  0.4448 -0.6854
  114SAPE   H7Y11964   7.126   3.829   3.327  0.1791  0.3803 -0.2596
  114SAPE   C3811965   7.178   4.023   3.407 -0.3639 -0.0938  0.4286
  114SAPE   H8X11966   7.083   4.028   3.465 -0.0549 -0.2299  0.9573
  114SAPE   H8Y11967   7.194   4.124   3.364 -0.0198  0.5963  2.1122
  114SAPE   C3911968   7.296   3.997   3.504  0.0681  0.2604  0.0446
  114SAPE   H9X11969   7.308   4.085   3.570 -1.5207 -0.5432  1.4847
  114SAPE   H9Y11970   7.391   3.983   3.448 -1.3028  1.4658 -2.8091
  114SAPE  C31011971   7.263   3.884   3.599  0.0836 -0.3251 -0.0877
  114SAPE  H10X11972   7.258   3.790   3.539  0.5517 -0.6832  0.4226
  114SAPE  H10Y11973   7.170   3.914   3.652  0.6966  1.3414  0.1057
  114SAPE  C31111974   7.378   3.875   3.705  0.1551 -0.4114  0.1484
  114SAPE  H11X11975   7.353   3.963   3.769 -0.1151 -0.6947  0.4360
  114SAPE  H11Y11976   7.480   3.889   3.665  1.8358 -2.4360  3.3053
  114SAPE  C31211977   7.380   3.751   3.799 -0.0578  0.3775  0.4667
  114SAPE  H12X11978   7.395   3.664   3.732  0.6480  1.1520 -0.4199
  114SAPE  H12Y11979   7.279   3.749   3.846  0.4976 -1.5357  1.6678
  114SAPE  C31311980   7.479   3.765   3.906  0.1939  0.3351 -0.5902
  114SAPE  H13X11981   7.438   3.830   3.986 -1.0142 -0.9702 -0.1047
  114SAPE  H13Y11982   7.577   3.808   3.874  0.1746  1.6912  1.0294
  114SAPE  C31411983   7.512   3.622   3.965 -0.3008  0.3628  0.3590
  114SAPE  H14X11984   7.420   3.580   4.009 -1.6074  2.9358  0.2713
  114SAPE  H14Y11985   7.583   3.643   4.048  1.0766 -2.5292  0.0493
  114SAPE  C31511986   7.580   3.524   3.869  0.2691 -0.4621  0.5226
  114SAPE  H15X11987   7.673   3.565   3.823  0.9126 -0.0141  2.1661
  114SAPE  H15Y11988   7.510   3.496   3.788  0.5737 -2.1079  0.8041
  114SAPE  C31611989   7.617   3.390   3.941 -0.3201  0.6364 -0.2820
  114SAPE  H16X11990   7.517   3.349   3.966 -0.5251  0.2475 -1.6589
  114SAPE  H16Y11991   7.675   3.406   4.034 -1.1787  3.5403 -0.1352
  114SAPE  C31711992   7.691   3.296   3.849 -0.2717  0.9283  0.1511
  114SAPE  H17X11993   7.644   3.284   3.749  0.5133 -0.6484 -0.0576
  114SAPE  H17Y11994   7.694   3.194   3.893  0.0444  0.4544 -0.9234
  114SAPE  C31811995   7.832   3.337   3.819 -0.1148  0.0057 -0.3743
  114SAPE  H18X11996   7.895   3.253   3.784  1.0710  0.7558 -0.0974
  114SAPE  H18Y11997   7.873   3.379   3.913 -1.0908 -0.4566  0.2827
  114SAPE  H18Z11998   7.842   3.422   3.747  1.5898  1.1680  1.1695
  115SAPE     N11999   4.657   0.605   2.325  0.3447 -0.1041 -0.1187
  115SAPE   HN112000   4.640   0.506   2.299  0.8507 -0.3111  0.3152
  115SAPE   HN212001   4.615   0.629   2.417  2.0177 -0.0104  0.6657
  115SAPE   HN312002   4.614   0.659   2.247  1.6092 -1.6947 -2.0336
  115SAPE   C1212003   4.795   0.636   2.326 -0.0741  0.1698  0.0448
  115SAPE  H12A12004   4.836   0.609   2.227  0.6101  1.9895 -0.2013
  115SAPE  H12B12005   4.852   0.577   2.401 -2.4038 -2.0044  0.2375
  115SAPE   C1112006   4.823   0.775   2.366  0.3428  0.0356 -0.2982
  115SAPE  H11A12007   4.775   0.788   2.465 -1.2182 -0.6301 -0.9342
  115SAPE  H11B12008   4.771   0.851   2.303 -1.2667 -1.4388 -0.8055
  115SAPE     P12009   5.034   0.924   2.443  0.5792  0.0070  0.2845
  115SAPE   O1312010   5.177   0.938   2.407 -0.5403  0.7786  0.2705
  115SAPE   O1412011   4.950   1.044   2.424  0.2858 -0.5305 -0.2806
  115SAPE   O1212012   4.964   0.805   2.369  0.0175  0.1719  0.3986
  115SAPE   O1112013   5.023   0.869   2.590 -0.4688 -0.2193 -0.5061
  115SAPE    C112014   5.055   0.736   2.621 -0.2950 -0.2560 -0.2129
  115SAPE    HA12015   5.097   0.687   2.530  1.0908  1.2390 -0.4142
  115SAPE    HB12016   5.136   0.727   2.696  0.3638  3.2942 -0.3231
  115SAPE    C212017   4.939   0.649   2.685 -0.3907 -0.3869  0.0128
  115SAPE    HS12018   4.851   0.680   2.626 -0.2041  0.8231  0.3544
  115SAPE   O2112019   4.923   0.687   2.821  0.4535  0.0627 -0.2502
  115SAPE   C2112020   4.862   0.801   2.844  0.6278 -0.1477 -0.3203
  115SAPE   O2212021   4.791   0.860   2.769  0.5387 -0.2991 -0.3188
  115SAPE   C2212022   4.878   0.838   2.991 -0.3244  0.4515 -0.2033
  115SAPE   H2R12023   4.966   0.792   3.040 -0.2890  0.5549 -0.1690
  115SAPE   H2S12024   4.903   0.946   3.002 -2.4510  0.8886  0.8123
  115SAPE    C312025   4.964   0.505   2.659 -0.3288  0.1742 -0.2804
  115SAPE    HX12026   5.061   0.475   2.705 -0.0424  1.5867  0.0946
  115SAPE    HY12027   4.967   0.499   2.548 -0.0466 -1.4986 -0.1972
  115SAPE   O3112028   4.863   0.425   2.723 -0.1583  0.5519  0.0001
  115SAPE   C3112029   4.737   0.431   2.683  0.4518 -0.1442 -0.3600
  115SAPE   O3212030   4.692   0.505   2.598  0.1003  0.0113 -0.0792
  115SAPE   C3212031   4.656   0.327   2.772  0.3235 -0.1334 -0.3294
  115SAPE   H2X12032   4.722   0.240   2.788  3.2782  1.9600 -0.2606
  115SAPE   H2Y12033   4.568   0.289   2.715  0.6318 -0.9771 -0.2545
  115SAPE   C2312034   4.763   0.793   3.071 -0.1056 -0.4457  0.1369
  115SAPE   H3R12035   4.767   0.683   3.078  0.8218 -0.3782  0.9326
  115SAPE   H3S12036   4.665   0.830   3.033  0.4000 -0.9113 -1.6893
  115SAPE   C2412037   4.770   0.848   3.217 -0.0328 -0.1002 -0.9874
  115SAPE   H4R12038   4.875   0.840   3.253 -0.6601 -0.7343  0.8378
  115SAPE   H4S12039   4.691   0.793   3.272 -0.1373  0.4859 -0.5318
  115SAPE   C2512040   4.721   0.994   3.212 -0.5286  0.4988  0.1107
  115SAPE   H5R12041   4.729   1.041   3.113 -0.3667  2.2200  0.8942
  115SAPE   C2612042   4.680   1.070   3.316  0.9398  0.3934  0.2546
  115SAPE   H6R12043   4.636   1.168   3.296 -0.3878 -0.4890 -1.4650
  115SAPE   C2712044   4.688   1.024   3.458  0.3690  0.2874  0.5201
  115SAPE   H7R12045   4.797   1.008   3.477  0.6999  0.2105 -1.2671
  115SAPE   H7S12046   4.635   0.926   3.464 -2.4113  1.5527 -1.3586
  115SAPE   C2812047   4.630   1.115   3.562 -0.3545  0.6590 -0.0586
  115SAPE   H8R12048   4.521   1.098   3.570 -0.2706  0.3156  0.3795
  115SAPE   C2912049   4.698   1.207   3.636  0.2656  0.5171  0.4484
  115SAPE   H9R12050   4.640   1.283   3.690 -1.2197 -0.0556 -0.2862
  115SAPE  C21012051   4.844   1.234   3.640 -0.3080 -0.6840 -0.2586
  115SAPE  H10R12052   4.901   1.165   3.575  2.0220  1.1552 -0.3116
  115SAPE  H10S12053   4.874   1.206   3.743  0.0844 -1.7787 -0.6552
  115SAPE  C21112054   4.890   1.380   3.607 -0.3888  0.0061  0.0557
  115SAPE  H11R12055   4.897   1.405   3.500  1.2161  0.7123  0.2948
  115SAPE  C21212056   4.926   1.472   3.704 -0.4465 -0.2937  0.4010
  115SAPE  H12R12057   4.946   1.576   3.672 -1.2772 -0.0124  0.7670
  115SAPE  C21312058   4.916   1.450   3.853 -0.5690  0.2469 -0.0594
  115SAPE  H13R12059   4.823   1.401   3.890  0.4640 -1.5095  0.3388
  115SAPE  H13S12060   4.913   1.549   3.904 -0.6530  1.0518 -1.5838
  115SAPE  C21412061   5.043   1.378   3.897 -0.3212 -0.0782 -0.4045
  115SAPE  H14R12062   5.137   1.393   3.842  0.3598 -2.0415  0.1584
  115SAPE  C21512063   5.059   1.289   3.997  0.1255  0.2588 -0.6512
  115SAPE  H15R12064   5.160   1.260   4.029 -0.5698 -1.7608 -0.1122
  115SAPE  C21612065   4.944   1.248   4.082 -0.3120  0.7382 -0.6742
  115SAPE  H16R12066   4.977   1.151   4.125  0.7280  1.0099 -0.8495
  115SAPE  H16S12067   4.850   1.224   4.027 -0.4550 -0.1092 -0.0799
  115SAPE  C21712068   4.908   1.349   4.193  0.1336  0.7048 -0.4504
  115SAPE  H17R12069   4.807   1.316   4.223  0.8417  0.4190  1.7710
  115SAPE  H17S12070   4.909   1.456   4.162  0.4242  0.4758 -1.2642
  115SAPE  C21812071   4.986   1.339   4.324  0.4624  0.2109  0.4494
  115SAPE  H18R12072   4.972   1.233   4.355  0.5399  0.3042  0.7979
  115SAPE  H18S12073   4.931   1.404   4.394  1.4980  1.4862  0.1173
  115SAPE  C21912074   5.130   1.381   4.326  0.0414  0.4088  0.2430
  115SAPE  H19R12075   5.151   1.481   4.280 -0.4017 -0.1584 -1.2403
  115SAPE  H19S12076   5.184   1.309   4.262  0.5098  1.6929 -0.8605
  115SAPE  C22012077   5.190   1.365   4.470 -0.2199 -0.0392  0.2844
  115SAPE  H20R12078   5.298   1.393   4.467  0.2651 -1.8020  0.1359
  115SAPE  H20S12079   5.180   1.260   4.502 -0.6409 -0.5993 -1.5659
  115SAPE  H20T12080   5.126   1.424   4.540 -0.4693  0.4516 -0.3449
  115SAPE   C3312081   4.602   0.376   2.907  0.0763  0.1666  0.5483
  115SAPE   H3X12082   4.527   0.459   2.906 -0.2295 -0.1023 -0.3675
  115SAPE   H3Y12083   4.679   0.416   2.975 -2.6923  0.1923  3.9749
  115SAPE   C3412084   4.526   0.259   2.970  0.5016  0.4476 -0.5922
  115SAPE   H4X12085   4.595   0.173   2.959 -0.7147 -0.5962 -0.3774
  115SAPE   H4Y12086   4.430   0.235   2.918 -0.4486  0.3556  1.1354
  115SAPE   C3512087   4.498   0.278   3.123  0.3006  0.2989 -0.9354
  115SAPE   H5X12088   4.440   0.190   3.158 -0.4479  0.8840 -0.6747
  115SAPE   H5Y12089   4.427   0.362   3.137  1.0087  0.8649 -0.6978
  115SAPE   C3612090   4.622   0.282   3.212  0.0138  0.1584 -0.2563
  115SAPE   H6X12091   4.676   0.374   3.183 -1.1229  0.5142 -1.3406
  115SAPE   H6Y12092   4.688   0.197   3.183 -0.2889 -0.1505 -0.0624
  115SAPE   C3712093   4.589   0.287   3.359  0.3910  0.3086  0.1220
  115SAPE   H7X12094   4.511   0.208   3.358  0.1593  0.5214 -2.2563
  115SAPE   H7Y12095   4.537   0.383   3.379 -0.2712 -0.0530  0.1600
  115SAPE   C3812096   4.696   0.257   3.460 -0.6390 -0.1933 -0.0241
  115SAPE   H8X12097   4.783   0.325   3.450 -0.0352 -0.7505  1.1758
  115SAPE   H8Y12098   4.729   0.153   3.440  0.0751  0.0372 -0.0817
  115SAPE   C3912099   4.654   0.266   3.605  0.0757 -0.2797 -0.0194
  115SAPE   H9X12100   4.570   0.196   3.619 -0.8868  0.6159 -1.1110
  115SAPE   H9Y12101   4.617   0.367   3.631 -0.7705 -0.7446  0.6008
  115SAPE  C31012102   4.763   0.225   3.705  0.2860  0.2272 -0.4632
  115SAPE  H10X12103   4.838   0.304   3.725  2.4065 -2.0123  0.9346
  115SAPE  H10Y12104   4.826   0.143   3.664  2.8226  1.3068  1.0193
  115SAPE  C31112105   4.697   0.158   3.826  0.2473  0.0465  0.4036
  115SAPE  H11X12106   4.659   0.064   3.780 -1.2297 -0.2192  2.1037
  115SAPE  H11Y12107   4.615   0.218   3.870 -0.0406 -0.8675  1.1291
  115SAPE  C31212108   4.793   0.118   3.937 -0.1964 -0.4620 -0.7836
  115SAPE  H12X12109   4.856   0.205   3.961 -0.8291 -0.0355 -0.6367
  115SAPE  H12Y12110   4.857   0.030   3.914  0.1687 -0.3596 -0.1756
  115SAPE  C31312111   4.728   0.082   4.074  0.4574  0.0505  0.8084
  115SAPE  H13X12112   4.802   0.086   4.157  1.0250 -0.7191  0.3577
  115SAPE  H13Y12113   4.700  -0.024   4.054  1.2569  0.1157 -0.8290
  115SAPE  C31412114   4.611   0.179   4.106 -0.4734  0.1550  0.9663
  115SAPE  H14X12115   4.520   0.162   4.045 -0.1459  1.3227  0.1024
  115SAPE  H14Y12116   4.642   0.285   4.090 -0.2973  0.0831  0.8297
  115SAPE  C31512117   4.560   0.165   4.248  0.4973  1.1547 -0.1337
  115SAPE  H15X12118   4.479   0.239   4.269 -2.0128 -1.2347 -0.8063
  115SAPE  H15Y12119   4.641   0.171   4.323  1.2165 -0.1622 -0.7828
  115SAPE  C31612120   4.483   0.027   4.261  0.7810 -0.1351  0.5911
  115SAPE  H16X12121   4.561  -0.052   4.259  1.4854  0.5532  0.3811
  115SAPE  H16Y12122   4.423   0.005   4.169  0.9878 -0.2446  0.4818
  115SAPE  C31712123   4.400   0.013   4.389 -0.1375 -0.0123  0.4829
  115SAPE  H17X12124   4.383  -0.095   4.406 -1.4311  0.3075  1.3069
  115SAPE  H17Y12125   4.298   0.051   4.366 -0.5241 -0.0129  2.1013
  115SAPE  C31812126   4.459   0.082   4.520  0.0369  0.1616  0.1302
  115SAPE  H18X12127   4.569   0.072   4.534  0.0963  0.6538  0.0050
  115SAPE  H18Y12128   4.410   0.035   4.609 -1.3283 -1.8014 -1.5631
  115SAPE  H18Z12129   4.445   0.191   4.509  0.3075 -0.0375 -3.4059
  116SAPE     N12130   6.121   6.685   2.071 -0.2581 -0.6526 -0.6505
  116SAPE   HN112131   6.175   6.711   1.986  0.0032 -0.5291 -0.4477
  116SAPE   HN212132   6.162   6.596   2.105 -0.2395  0.2859  2.0070
  116SAPE   HN312133   6.019   6.681   2.048  0.0104 -1.5596 -1.7671
  116SAPE   C1212134   6.162   6.793   2.165 -0.1840  0.0145  0.9217
  116SAPE  H12A12135   6.270   6.812   2.148 -0.3361  1.2072  1.2212
  116SAPE  H12B12136   6.135   6.763   2.268 -2.5360  1.6292  0.8504
  116SAPE   C1112137   6.090   6.928   2.135 -0.0037  0.8936  0.2745
  116SAPE  H11A12138   6.145   6.991   2.062 -0.7014  0.6858 -0.4376
  116SAPE  H11B12139   6.093   6.984   2.231 -1.4687 -0.9601  1.4615
  116SAPE     P12140   5.863   7.029   2.111  0.1995  0.1365  0.5141
  116SAPE   O1312141   5.905   7.148   2.034 -0.1476  0.2917  0.4134
  116SAPE   O1412142   5.731   6.977   2.079  0.4525  0.3973 -0.0504
  116SAPE   O1212143   5.958   6.907   2.099 -0.3470 -0.5688 -0.3958
  116SAPE   O1112144   5.874   7.075   2.263  0.0033 -0.0519 -0.8988
  116SAPE    C112145   5.851   6.993   2.374  0.3147  0.7529 -0.2200
  116SAPE    HA12146   5.879   6.888   2.350 -1.8403 -0.4545  2.0953
  116SAPE    HB12147   5.916   7.023   2.460 -1.5529  2.7330  0.5987
  116SAPE    C212148   5.703   6.963   2.427 -0.2584  0.0775  0.2204
  116SAPE    HS12149   5.644   6.922   2.342  1.3471 -1.2821 -0.2957
  116SAPE   O2112150   5.649   7.092   2.466  0.0442 -0.1682 -0.0731
  116SAPE   C2112151   5.524   7.114   2.477  0.1193 -0.0081 -0.7136
  116SAPE   O2212152   5.434   7.032   2.466 -0.5619  0.5682  0.3597
  116SAPE   C2212153   5.506   7.259   2.514  0.0900 -0.0094 -0.2246
  116SAPE   H2R12154   5.589   7.317   2.467 -0.3060  2.0882  1.4985
  116SAPE   H2S12155   5.406   7.297   2.486 -0.1609  2.3662  3.2279
  116SAPE    C312156   5.681   6.850   2.532  0.6392 -0.1300  0.3150
  116SAPE    HX12157   5.706   6.748   2.496 -1.2128  0.1062 -1.7837
  116SAPE    HY12158   5.571   6.849   2.547  0.3656 -2.2788 -1.4180
  116SAPE   O3112159   5.755   6.882   2.655 -0.0640  0.1874  0.3367
  116SAPE   C3112160   5.706   6.794   2.752 -0.2134 -0.6009  0.3773
  116SAPE   O3212161   5.644   6.696   2.725  0.4209  0.5870 -0.2025
  116SAPE   C3212162   5.752   6.850   2.885  0.4046  0.4975  0.5448
  116SAPE   H2X12163   5.692   6.941   2.905 -0.0514  0.1470  0.7982
  116SAPE   H2Y12164   5.858   6.881   2.891  0.6886  0.1902 -1.7924
  116SAPE   C2312165   5.522   7.273   2.669 -0.4396 -0.4903 -0.2602
  116SAPE   H3R12166   5.618   7.235   2.709 -0.5784 -1.5032 -0.8511
  116SAPE   H3S12167   5.445   7.221   2.731 -0.6974 -3.1017 -2.5613
  116SAPE   C2412168   5.503   7.425   2.696 -0.1509 -0.2137  0.2070
  116SAPE   H4R12169   5.397   7.452   2.678 -1.0258 -2.7136  1.0885
  116SAPE   H4S12170   5.573   7.484   2.635  0.9247  0.2297  1.7930
  116SAPE   C2512171   5.535   7.470   2.837  0.5060 -0.2575  0.0205
  116SAPE   H5R12172   5.633   7.516   2.859 -0.2859  0.5244  2.2371
  116SAPE   C2612173   5.449   7.458   2.940 -0.0809 -0.1853  0.2932
  116SAPE   H6R12174   5.463   7.517   3.032 -0.5619  0.8264 -0.2662
  116SAPE   C2712175   5.316   7.387   2.941 -0.0582 -0.1019 -0.4252
  116SAPE   H7R12176   5.318   7.287   2.989  3.6281 -0.2753 -0.6882
  116SAPE   H7S12177   5.283   7.362   2.838 -0.6978  0.8598 -0.4646
  116SAPE   C2812178   5.194   7.449   3.014 -0.4708  0.4258 -0.3452
  116SAPE   H8R12179   5.100   7.454   2.958  0.6576 -1.0707 -2.5530
  116SAPE   C2912180   5.179   7.472   3.144  0.0300 -0.2657 -0.2375
  116SAPE   H9R12181   5.083   7.514   3.177  1.0115  1.2824  0.7670
  116SAPE  C21012182   5.271   7.458   3.256 -0.0985  0.0239  0.5810
  116SAPE  H10R12183   5.376   7.467   3.220 -0.4169  0.9858 -0.1543
  116SAPE  H10S12184   5.258   7.352   3.286  1.1911 -0.5077 -0.6454
  116SAPE  C21112185   5.254   7.548   3.378  0.0813 -0.0787 -0.0723
  116SAPE  H11R12186   5.323   7.632   3.387 -0.3495  0.2970 -0.2319
  116SAPE  C21212187   5.147   7.542   3.459  0.1814 -0.5283 -0.0840
  116SAPE  H12R12188   5.142   7.628   3.527 -0.0216 -0.6561  0.0628
  116SAPE  C21312189   5.026   7.454   3.452 -1.0055 -0.1229 -0.1535
  116SAPE  H13R12190   5.018   7.401   3.550 -1.2468 -1.5810 -0.9457
  116SAPE  H13S12191   5.042   7.368   3.384 -0.0118 -0.8577  0.9624
  116SAPE  C21412192   4.899   7.526   3.421  0.0107  0.1923  0.4985
  116SAPE  H14R12193   4.903   7.565   3.318  1.4578 -1.2951 -0.0550
  116SAPE  C21512194   4.797   7.564   3.511 -0.3520 -0.0724 -0.2004
  116SAPE  H15R12195   4.713   7.617   3.463  1.2247  3.3722  0.5428
  116SAPE  C21612196   4.789   7.543   3.664  0.0674  0.1972  0.8411
  116SAPE  H16R12197   4.874   7.483   3.700  0.7294  0.1369 -0.7278
  116SAPE  H16S12198   4.704   7.478   3.695 -0.7393  1.0151  0.3976
  116SAPE  C21712199   4.780   7.672   3.745  0.0177  0.5112 -0.2682
  116SAPE  H17R12200   4.686   7.731   3.745 -0.4599 -0.2173 -1.5284
  116SAPE  H17S12201   4.863   7.741   3.715  0.0933  0.8241  0.6386
  116SAPE  C21812202   4.811   7.647   3.899 -0.3960  0.0993 -0.5128
  116SAPE  H18R12203   4.891   7.571   3.908  0.0959  0.4655 -1.7347
  116SAPE  H18S12204   4.712   7.615   3.938 -0.2021 -1.3258 -1.1569
  116SAPE  C21912205   4.850   7.780   3.973 -0.5620  0.9990  0.1331
  116SAPE  H19R12206   4.777   7.860   3.948 -0.7561  1.2867  1.5420
  116SAPE  H19S12207   4.951   7.800   3.930 -0.0543 -1.0451  0.2568
  116SAPE  C22012208   4.864   7.762   4.126  0.1883 -0.1302  0.6352
  116SAPE  H20R12209   4.766   7.772   4.178  0.0958 -0.6710  0.5685
  116SAPE  H20S12210   4.926   7.838   4.178  1.3768 -1.1577  0.7750
  116SAPE  H20T12211   4.906   7.661   4.143 -1.4913 -1.1040 -0.6989
  116SAPE   C3312212   5.710   6.739   2.987 -0.2537 -0.6291 -0.2814
  116SAPE   H3X12213   5.772   6.647   2.980  0.1567 -0.4590  0.9202
  116SAPE   H3Y12214   5.605   6.711   2.966 -1.0085  3.0375 -2.3230
  116SAPE   C3412215   5.721   6.807   3.124 -0.0173  0.4719 -0.2476
  116SAPE   H4X12216   5.658   6.898   3.128  1.4779  1.5031  0.7783
  116SAPE   H4Y12217   5.826   6.845   3.130  0.0768  0.2311 -0.3383
  116SAPE   C3512218   5.692   6.709   3.235 -0.3817  0.2422 -0.7969
  116SAPE   H5X12219   5.763   6.624   3.226  0.7364  1.1493 -0.7757
  116SAPE   H5Y12220   5.586   6.676   3.230 -0.5130  0.8408 -2.3337
  116SAPE   C3612221   5.718   6.779   3.375 -0.3795  0.2111 -0.4012
  116SAPE   H6X12222   5.640   6.855   3.400 -1.4622 -1.3063  1.0072
  116SAPE   H6Y12223   5.816   6.831   3.386 -1.4165  1.9658  1.0569
  116SAPE   C3712224   5.710   6.692   3.502  0.2274 -0.1530  1.0470
  116SAPE   H7X12225   5.783   6.608   3.502  2.2886  1.5328 -0.9690
  116SAPE   H7Y12226   5.617   6.633   3.485 -0.3490  0.8733  0.6060
  116SAPE   C3812227   5.701   6.771   3.637  0.3612  0.3382  0.0892
  116SAPE   H8X12228   5.615   6.840   3.650 -0.0481 -0.4994  2.4215
  116SAPE   H8Y12229   5.797   6.823   3.654  2.2592 -3.0018  0.4537
  116SAPE   C3912230   5.694   6.671   3.747 -0.2168  0.6971 -0.3309
  116SAPE   H9X12231   5.788   6.613   3.758 -0.0484  1.1725  0.8793
  116SAPE   H9Y12232   5.615   6.599   3.717 -0.4629  0.7358  0.2072
  116SAPE  C31012233   5.659   6.732   3.886  0.4210  0.2652 -0.4113
  116SAPE  H10X12234   5.569   6.795   3.874  0.2525 -0.3411 -3.1696
  116SAPE  H10Y12235   5.739   6.807   3.905  0.2386  0.2708  0.3404
  116SAPE  C31112236   5.641   6.632   3.999 -0.0010  0.0893 -0.2598
  116SAPE  H11X12237   5.743   6.597   4.024 -0.2279  0.6555  1.6129
  116SAPE  H11Y12238   5.574   6.548   3.970  0.1031 -1.0227  2.4600
  116SAPE  C31212239   5.599   6.698   4.130 -0.0255 -0.1390  0.1104
  116SAPE  H12X12240   5.493   6.730   4.120  0.0008 -0.7517 -2.7054
  116SAPE  H12Y12241   5.661   6.789   4.146  0.6654 -0.4722 -0.6194
  116SAPE  C31312242   5.600   6.600   4.249 -0.3952 -0.0074 -0.2440
  116SAPE  H13X12243   5.606   6.662   4.342  0.7378  0.8378 -0.8564
  116SAPE  H13Y12244   5.689   6.533   4.256  0.8076  1.6664  2.5723
  116SAPE  C31412245   5.473   6.516   4.247  0.4457 -0.0274 -0.0322
  116SAPE  H14X12246   5.459   6.473   4.146  3.1059 -1.8832  0.2784
  116SAPE  H14Y12247   5.388   6.582   4.274 -0.0494 -0.9025  0.6120
  116SAPE  C31512248   5.489   6.393   4.338 -0.1918  0.1801  0.5655
  116SAPE  H15X12249   5.396   6.353   4.384  1.5434 -0.8655  3.4796
  116SAPE  H15Y12250   5.548   6.433   4.424  2.9530 -1.5936 -0.5986
  116SAPE  C31612251   5.575   6.277   4.282 -0.2974  0.0312 -0.2476
  116SAPE  H16X12252   5.679   6.307   4.260 -1.0645  0.6606 -3.6052
  116SAPE  H16Y12253   5.548   6.242   4.180 -2.8924 -0.7888  0.6340
  116SAPE  C31712254   5.576   6.157   4.379  0.0950 -0.0737  0.1756
  116SAPE  H17X12255   5.471   6.121   4.390  0.4614 -0.5869  2.4055
  116SAPE  H17Y12256   5.597   6.189   4.483 -1.9346  1.4503  0.1850
  116SAPE  C31812257   5.668   6.042   4.347 -0.0056  0.4835  0.0592
  116SAPE  H18X12258   5.648   5.998   4.247 -1.6324 -2.3188  1.4796
  116SAPE  H18Y12259   5.655   5.966   4.428 -0.5465  1.6431  1.0834
  116SAPE  H18Z12260   5.774   6.076   4.343  0.3453 -0.6553 -3.1073
  117SOPE     N12261   1.799   2.544   6.313  0.9383  0.0575 -0.5530
  117SOPE   HN112262   1.861   2.521   6.233  0.8033 -0.9286 -0.3890
  117SOPE   HN212263   1.782   2.646   6.325 -1.9213 -0.4648  0.5962
  117SOPE   HN312264   1.846   2.500   6.395  1.2900 -3.0188 -2.2301
  117SOPE   C1212265   1.670   2.464   6.299 -0.7285  0.1533  0.1942
  117SOPE  H12A12266   1.651   2.420   6.400  1.6263 -1.8339 -0.1381
  117SOPE  H12B12267   1.687   2.378   6.231 -2.0654  0.7494 -0.9446
  117SOPE   C1112268   1.541   2.545   6.275 -0.0422  0.3816  0.1288
  117SOPE  H11A12269   1.454   2.478   6.293 -0.1152  0.2550 -0.6504
  117SOPE  H11B12270   1.538   2.577   6.168 -1.4893  0.5247  0.1937
  117SOPE     P12271   1.575   2.804   6.358 -0.5054 -0.7909  0.0288
  117SOPE   O1312272   1.718   2.793   6.373 -0.5334 -0.4993  0.6945
  117SOPE   O1412273   1.518   2.877   6.478  0.5321 -0.4754  0.4481
  117SOPE   O1212274   1.523   2.654   6.363 -0.0923 -0.3275 -0.3639
  117SOPE   O1112275   1.536   2.867   6.218  0.3422 -0.1455  0.5527
  117SOPE    C112276   1.408   2.927   6.192  0.0856  0.8850  0.0928
  117SOPE    HA12277   1.422   3.037   6.198  0.0122  0.8407  1.8365
  117SOPE    HB12278   1.342   2.915   6.281  1.2278 -0.6027  0.7706
  117SOPE    C212279   1.346   2.888   6.058 -1.2994  0.4613 -0.5194
  117SOPE    HS12280   1.321   2.780   6.059  0.1863  0.0664 -2.2688
  117SOPE   O2112281   1.440   2.923   5.949  0.0448 -0.0616  0.1759
  117SOPE   C2112282   1.444   2.835   5.844  0.2898 -0.0591 -0.5715
  117SOPE   O2212283   1.388   2.732   5.835  0.8490  0.2220  0.0051
  117SOPE   C2212284   1.533   2.893   5.733  0.2075 -0.2939 -0.0628
  117SOPE   H2R12285   1.633   2.910   5.778  0.5175  0.1521 -0.8955
  117SOPE   H2S12286   1.488   2.990   5.703  0.5675 -0.4960 -1.3010
  117SOPE    C312287   1.216   2.965   6.035 -0.1658  0.7615 -0.2384
  117SOPE    HX12288   1.236   3.074   6.029  2.3349  0.3276 -1.0855
  117SOPE    HY12289   1.139   2.960   6.115  0.6113  2.2809  0.6473
  117SOPE   O3112290   1.155   2.922   5.911  0.0782 -0.3331 -0.2573
  117SOPE   C3112291   1.082   2.819   5.913  0.5064  0.1520 -0.8784
  117SOPE   O3212292   1.050   2.746   6.006  0.2544  0.6620 -0.2746
  117SOPE   C3212293   1.014   2.806   5.777 -0.2649 -0.4640  0.5144
  117SOPE   H2X12294   0.963   2.904   5.763 -0.5916 -0.6584  0.3362
  117SOPE   H2Y12295   0.940   2.725   5.789  0.4457 -1.2759 -0.4070
  117SOPE   C2312296   1.555   2.804   5.614 -0.4597 -0.1345  0.6698
  117SOPE   H3R12297   1.466   2.796   5.548  0.2286 -1.2244 -0.1615
  117SOPE   H3S12298   1.577   2.701   5.648  0.0191 -0.0056  0.7640
  117SOPE   C2412299   1.671   2.844   5.522  0.2837  0.6327  0.6006
  117SOPE   H4R12300   1.762   2.876   5.577  0.1019 -1.7988  2.5400
  117SOPE   H4S12301   1.703   2.755   5.464  1.5846  0.0928  2.0904
  117SOPE   C2512302   1.620   2.940   5.409  0.0786  0.5424  0.5448
  117SOPE   H5R12303   1.518   2.914   5.375  0.5426 -0.4496 -0.1179
  117SOPE   H5S12304   1.612   3.045   5.446  1.3207  1.6920 -2.1284
  117SOPE   C2612305   1.712   2.959   5.285 -0.1790  0.0562 -0.0049
  117SOPE   H6R12306   1.816   2.969   5.322 -1.0388  1.5230  2.2824
  117SOPE   H6S12307   1.700   2.864   5.229 -1.6214 -1.3735  2.5315
  117SOPE   C2712308   1.683   3.072   5.186 -0.0052  0.1619  0.5817
  117SOPE   H7R12309   1.755   3.060   5.102 -0.6885 -0.6866  0.0914
  117SOPE   H7S12310   1.585   3.054   5.137 -1.4950  4.0887  1.7668
  117SOPE   C2812311   1.672   3.206   5.251 -0.2614  0.5232 -0.4782
  117SOPE   H8R12312   1.586   3.214   5.320 -1.2755 -1.3267 -1.4505
  117SOPE   H8S12313   1.772   3.209   5.300 -0.4826  0.8664 -0.0393
  117SOPE   C2912314   1.647   3.303   5.138 -0.3625 -0.0821  0.5173
  117SOPE   H9112315   1.718   3.298   5.054  0.0448  0.9093  0.7816
  117SOPE  C21012316   1.545   3.389   5.119  0.1029 -0.2417 -0.6321
  117SOPE  H10112317   1.541   3.459   5.034 -1.6507 -0.8462 -1.1010
  117SOPE  C21112318   1.421   3.412   5.213 -0.8980  0.5097  0.0678
  117SOPE  H11R12319   1.434   3.365   5.313  2.3596  2.9205  0.9100
  117SOPE  H11S12320   1.330   3.373   5.162 -0.3637 -0.7010  0.0098
  117SOPE  C21212321   1.402   3.565   5.230  1.0769  0.1573 -1.1117
  117SOPE  H12R12322   1.295   3.585   5.254  0.5127 -0.3297 -3.0029
  117SOPE  H12S12323   1.401   3.605   5.126 -0.0116 -0.6492 -1.4254
  117SOPE  C21312324   1.493   3.625   5.334 -0.0783  0.0503  0.1023
  117SOPE  H13R12325   1.601   3.611   5.312 -0.3777 -1.1982 -0.6905
  117SOPE  H13S12326   1.478   3.562   5.424  1.0654 -0.2552  0.1036
  117SOPE  C21412327   1.469   3.772   5.358 -0.4848  0.1925 -0.2782
  117SOPE  H14R12328   1.533   3.818   5.436 -2.4426  0.1847  1.4294
  117SOPE  H14S12329   1.362   3.789   5.386 -1.1223  0.8966 -2.8326
  117SOPE  C21512330   1.489   3.859   5.231 -0.4973 -0.4911  0.2168
  117SOPE  H15R12331   1.470   3.964   5.262 -1.0778 -0.8282  1.0422
  117SOPE  H15S12332   1.406   3.840   5.159  0.1742 -1.6837 -0.2851
  117SOPE  C21612333   1.617   3.831   5.154 -1.1172  0.0966 -0.4133
  117SOPE  H16R12334   1.610   3.732   5.105  0.0954 -0.9310  1.3701
  117SOPE  H16S12335   1.701   3.809   5.222 -1.5991  0.4258  0.3003
  117SOPE  C21712336   1.661   3.936   5.054  0.0937 -0.1950  0.1188
  117SOPE  H17R12337   1.673   4.035   5.104  1.2593 -0.6010  0.6799
  117SOPE  H17S12338   1.585   3.931   4.973  1.6107  1.4842 -1.5054
  117SOPE  C21812339   1.797   3.922   4.989 -0.1488 -0.0577  0.0246
  117SOPE  H18R12340   1.863   3.953   5.073 -2.7403 -0.3834  2.3182
  117SOPE  H18S12341   1.807   3.991   4.902  0.4266 -1.2768 -0.9046
  117SOPE  H18T12342   1.821   3.819   4.956 -0.3302  0.4815 -1.9231
  117SOPE   C3312343   1.109   2.773   5.658  0.0527 -0.1975 -0.1284
  117SOPE   H3X12344   1.147   2.669   5.671 -3.0832 -1.4042  0.0451
  117SOPE   H3Y12345   1.207   2.826   5.659 -0.0927  0.0679  0.5462
  117SOPE   C3412346   1.037   2.765   5.526  0.3230 -0.2437 -0.1561
  117SOPE   H4X12347   0.995   2.864   5.498  1.2295  0.7066  1.6563
  117SOPE   H4Y12348   0.948   2.699   5.536  0.6365 -0.9232 -1.6265
  117SOPE   C3512349   1.120   2.719   5.409  0.4236  0.3025  0.3498
  117SOPE   H5X12350   1.170   2.627   5.447  0.9826  0.7589  0.7332
  117SOPE   H5Y12351   1.209   2.781   5.388  2.1001 -1.4943  1.6927
  117SOPE   C3612352   1.042   2.680   5.277 -0.3754 -0.4310 -0.5503
  117SOPE   H6X12353   0.973   2.766   5.261  0.3058  0.1183 -0.5761
  117SOPE   H6Y12354   1.001   2.578   5.293  1.7182 -1.3616 -0.7742
  117SOPE   C3712355   1.142   2.674   5.162  0.1377 -0.4222 -0.1861
  117SOPE   H7X12356   1.209   2.761   5.156 -0.6609  0.3332  1.2793
  117SOPE   H7Y12357   1.081   2.664   5.070 -0.2967  0.8236 -0.0495
  117SOPE   C3812358   1.231   2.548   5.148  0.3380 -0.8112 -0.7663
  117SOPE   H8X12359   1.164   2.459   5.147 -1.6814  0.5414  2.1100
  117SOPE   H8Y12360   1.287   2.533   5.243 -1.0057  2.0158  0.5729
  117SOPE   C3912361   1.327   2.541   5.032 -0.5212 -0.2797  0.2934
  117SOPE   H9X12362   1.382   2.446   5.047  3.0001  1.8782  2.5609
  117SOPE   H9Y12363   1.415   2.608   5.045  0.8879 -1.8505 -0.7329
  117SOPE  C31012364   1.274   2.544   4.895  0.4590 -0.0353 -0.4140
  117SOPE  H10X12365   1.216   2.635   4.870 -0.8367  0.0224  2.3628
  117SOPE  H10Y12366   1.196   2.469   4.868 -1.1096  1.2290  0.4466
  117SOPE  C31112367   1.393   2.527   4.795 -0.5286  0.1252  0.3787
  117SOPE  H11X12368   1.460   2.451   4.839 -1.7836 -0.9599  0.4709
  117SOPE  H11Y12369   1.451   2.622   4.790 -1.5126  0.6872 -1.5713
  117SOPE  C31212370   1.359   2.502   4.644  0.1720 -0.4391 -0.5250
  117SOPE  H12X12371   1.327   2.598   4.598  0.8303  0.8056  1.4963
  117SOPE  H12Y12372   1.278   2.426   4.634 -0.0551 -0.3800  0.7506
  117SOPE  C31312373   1.487   2.477   4.554  0.3999 -0.2181  0.0803
  117SOPE  H13X12374   1.504   2.367   4.559 -0.7189 -0.3801  0.9032
  117SOPE  H13Y12375   1.567   2.545   4.589  2.3585 -2.6865  0.7270
  117SOPE  C31412376   1.451   2.511   4.406  0.5828 -0.7437 -0.2007
  117SOPE  H14X12377   1.380   2.596   4.399  0.4711 -0.5185  2.6506
  117SOPE  H14Y12378   1.386   2.427   4.372 -1.8285  0.8423  0.2314
  117SOPE  C31512379   1.566   2.520   4.307 -0.7189  0.0525 -0.0773
  117SOPE  H15X12380   1.535   2.546   4.203  1.7859  1.5712 -0.5057
  117SOPE  H15Y12381   1.616   2.421   4.317 -0.0576  0.4719  0.9305
  117SOPE  C31612382   1.670   2.631   4.336  0.3341  0.0395  0.2393
  117SOPE  H16X12383   1.725   2.606   4.430 -1.5350  0.6827  1.5706
  117SOPE  H16Y12384   1.627   2.730   4.360  0.2911 -0.0726  0.6422
  117SOPE  C31712385   1.776   2.650   4.229  0.3516  0.0018 -0.3019
  117SOPE  H17X12386   1.851   2.725   4.265  1.2669 -1.5145  1.0915
  117SOPE  H17Y12387   1.739   2.698   4.136  2.8739  1.9898 -0.4088
  117SOPE  C31812388   1.842   2.525   4.178  0.0610  0.0552  0.1414
  117SOPE  H18X12389   1.762   2.470   4.124 -0.4319  0.6052  0.2963
  117SOPE  H18Y12390   1.875   2.453   4.257 -1.9313 -0.4218  0.5937
  117SOPE  H18Z12391   1.925   2.535   4.105 -0.0398 -2.6819 -0.4764
  118SOPE     N12392   1.533   3.080   6.656  1.5775  0.7157  0.0883
  118SOPE   HN112393   1.548   3.000   6.591 -1.3563  0.1563 -0.0377
  118SOPE   HN212394   1.477   3.030   6.728  2.8963 -2.1046 -0.7040
  118SOPE   HN312395   1.471   3.142   6.599  2.5133 -1.6479 -3.9261
  118SOPE   C1212396   1.662   3.135   6.695 -0.1866  0.5617  0.2708
  118SOPE  H12A12397   1.694   3.074   6.783 -0.0307 -0.2190 -0.3149
  118SOPE  H12B12398   1.653   3.241   6.729 -0.8025 -0.0378  2.1185
  118SOPE   C1112399   1.745   3.122   6.568 -0.1515  0.9342  0.0074
  118SOPE  H11A12400   1.724   3.018   6.534 -2.8103  0.6771  2.0970
  118SOPE  H11B12401   1.855   3.125   6.585 -0.0992  0.7019 -0.2782
  118SOPE     P12402   1.816   3.297   6.384  0.2861 -0.1713  0.0356
  118SOPE   O1312403   1.953   3.270   6.431  0.5102  0.5540  0.0937
  118SOPE   O1412404   1.775   3.436   6.400 -0.0773  0.3796 -0.2625
  118SOPE   O1212405   1.712   3.217   6.464 -0.1506  0.1352 -0.3090
  118SOPE   O1112406   1.798   3.248   6.236  0.1186  0.2152  0.1039
  118SOPE    C112407   1.720   3.135   6.199  0.0723 -0.4951  0.1504
  118SOPE    HA12408   1.626   3.129   6.258 -1.7006  0.0631 -2.4554
  118SOPE    HB12409   1.779   3.044   6.225 -2.3644 -1.6674  1.9977
  118SOPE    C212410   1.665   3.150   6.057 -0.4216 -0.7745 -0.6948
  118SOPE    HS12411   1.631   3.051   6.019  0.5469 -1.2973 -0.2370
  118SOPE   O2112412   1.768   3.187   5.972 -0.2476 -0.3774  0.1135
  118SOPE   C2112413   1.869   3.104   5.970  0.0346 -0.0717  0.1742
  118SOPE   O2212414   1.870   2.987   6.003 -0.5905  0.1887 -0.1760
  118SOPE   C2212415   1.999   3.174   5.920 -0.7371 -0.6771 -0.2786
  118SOPE   H2R12416   2.040   3.222   6.012  0.3325 -2.5306  0.2655
  118SOPE   H2S12417   1.970   3.262   5.859 -1.6059 -3.0644 -3.5815
  118SOPE    C312418   1.557   3.263   6.055  0.2205 -0.0001  0.9854
  118SOPE    HX12419   1.598   3.350   6.111  2.2133 -0.7414  0.7563
  118SOPE    HY12420   1.462   3.233   6.104 -0.3020  2.5144  1.6725
  118SOPE   O3112421   1.523   3.293   5.917  0.4159  0.3963 -1.1876
  118SOPE   C3112422   1.596   3.387   5.862  0.1026 -0.5230  0.1770
  118SOPE   O3212423   1.685   3.456   5.914 -0.0521 -0.0349 -0.0560
  118SOPE   C3212424   1.556   3.398   5.714 -0.0651 -0.0050 -0.1705
  118SOPE   H2X12425   1.569   3.506   5.691 -0.1663 -0.1777 -1.0674
  118SOPE   H2Y12426   1.453   3.358   5.706 -0.3022  0.4763  0.3853
  118SOPE   C2312427   2.085   3.088   5.820  0.0722 -0.0853 -0.1838
  118SOPE   H3R12428   2.088   2.978   5.837 -4.1124 -0.3345  0.1900
  118SOPE   H3S12429   2.192   3.116   5.832  0.3672 -0.9762 -0.6749
  118SOPE   C2412430   2.058   3.125   5.674 -0.8569  0.4758  0.3756
  118SOPE   H4R12431   1.950   3.099   5.660 -0.8131 -0.7909  2.1512
  118SOPE   H4S12432   2.064   3.236   5.661  2.0469  0.4760  1.2065
  118SOPE   C2512433   2.151   3.058   5.579 -0.0473 -0.2812  1.0939
  118SOPE   H5R12434   2.251   3.105   5.592  0.0611  0.1595 -0.9419
  118SOPE   H5S12435   2.154   2.950   5.606  0.0753 -0.7203 -0.5261
  118SOPE   C2612436   2.085   3.077   5.441 -0.2005  1.5054  0.7432
  118SOPE   H6R12437   2.002   3.003   5.442  0.0391  1.2083 -0.2530
  118SOPE   H6S12438   2.040   3.179   5.438  0.8624  1.9768 -0.2249
  118SOPE   C2712439   2.178   3.045   5.325 -0.4745  0.3338  0.6027
  118SOPE   H7R12440   2.264   3.115   5.310  1.6821 -2.1268  0.7691
  118SOPE   H7S12441   2.219   2.943   5.343 -0.7096  0.1443  0.0760
  118SOPE   C2812442   2.108   3.038   5.197 -0.0580 -0.2997  0.3869
  118SOPE   H8R12443   2.173   2.995   5.118  1.7309  2.0435  0.4892
  118SOPE   H8S12444   2.026   2.963   5.205 -0.6896 -0.0690 -2.7242
  118SOPE   C2912445   2.055   3.175   5.150  0.5073 -0.1269 -0.0395
  118SOPE   H9112446   2.003   3.230   5.230  1.9349 -0.7649  1.3861
  118SOPE  C21012447   2.090   3.231   5.030 -0.8118 -0.4504  0.1842
  118SOPE  H10112448   2.060   3.334   5.003  0.8036 -0.0020 -0.0258
  118SOPE  C21112449   2.180   3.174   4.935 -0.0736  0.0973  0.3759
  118SOPE  H11R12450   2.136   3.089   4.878  1.1166  0.1860 -0.7321
  118SOPE  H11S12451   2.274   3.137   4.982  0.8446  2.7691  0.7844
  118SOPE  C21212452   2.223   3.275   4.823  0.3485 -0.5693  0.2227
  118SOPE  H12R12453   2.278   3.358   4.874  1.9953 -1.7453  0.4496
  118SOPE  H12S12454   2.144   3.319   4.759  1.8346  2.5159  0.2825
  118SOPE  C21312455   2.335   3.209   4.736  0.3802 -0.3686  0.0869
  118SOPE  H13R12456   2.274   3.143   4.671 -1.9039 -0.0614  1.8139
  118SOPE  H13S12457   2.402   3.142   4.793 -0.6918 -0.9164  0.7261
  118SOPE  C21412458   2.385   3.310   4.646  0.3267 -0.6092  0.5771
  118SOPE  H14R12459   2.446   3.385   4.703  2.8265 -1.1149 -1.2484
  118SOPE  H14S12460   2.297   3.346   4.590  2.5276  2.7329 -1.0897
  118SOPE  C21512461   2.471   3.250   4.527  0.2091 -0.5457 -0.7651
  118SOPE  H15R12462   2.405   3.176   4.478 -0.8938  0.9931 -1.6838
  118SOPE  H15S12463   2.556   3.202   4.579  1.4282  0.8431 -1.3837
  118SOPE  C21612464   2.526   3.362   4.430 -0.1847 -0.2770  0.5717
  118SOPE  H16R12465   2.583   3.431   4.495  1.9624 -0.3746 -1.1256
  118SOPE  H16S12466   2.433   3.416   4.401  0.5491  1.1999  0.9023
  118SOPE  C21712467   2.619   3.310   4.311 -0.1003  0.0780 -0.4468
  118SOPE  H17R12468   2.570   3.223   4.261 -1.0915  0.1066  0.4557
  118SOPE  H17S12469   2.713   3.270   4.356  0.5338 -0.7786 -2.3830
  118SOPE  C21812470   2.644   3.422   4.213 -0.0861  0.0819 -0.4116
  118SOPE  H18R12471   2.708   3.384   4.130 -1.6398 -0.3068 -1.4597
  118SOPE  H18S12472   2.684   3.517   4.254 -0.4522  0.1569 -0.2295
  118SOPE  H18T12473   2.542   3.444   4.175 -0.5429 -0.9971  0.1454
  118SOPE   C3312474   1.642   3.329   5.607  0.7806  0.5165 -0.1045
  118SOPE   H3X12475   1.591   3.314   5.510 -2.0781  3.2273  0.7892
  118SOPE   H3Y12476   1.649   3.223   5.641  0.6866  0.2891 -0.7817
  118SOPE   C3412477   1.789   3.380   5.589  0.2250  0.1156  0.3918
  118SOPE   H4X12478   1.859   3.305   5.547  1.8409  2.3914 -1.2253
  118SOPE   H4Y12479   1.838   3.412   5.683 -0.8251 -0.2535  1.0822
  118SOPE   C3512480   1.789   3.494   5.481  0.1996 -0.7517  0.8916
  118SOPE   H5X12481   1.711   3.566   5.514  0.2240  0.7955 -2.1170
  118SOPE   H5Y12482   1.769   3.447   5.382  1.9293 -1.5126  0.8606
  118SOPE   C3612483   1.928   3.569   5.468 -0.7164  0.2858  0.4879
  118SOPE   H6X12484   1.956   3.610   5.568  0.2962 -2.7205  1.5367
  118SOPE   H6Y12485   1.921   3.653   5.396 -0.0850  1.8075  2.1406
  118SOPE   C3712486   2.035   3.467   5.431 -0.5357 -0.1840 -0.3172
  118SOPE   H7X12487   1.988   3.403   5.353 -1.8556 -0.0247  0.3177
  118SOPE   H7Y12488   2.062   3.407   5.521  0.2681  0.4451 -0.1233
  118SOPE   C3812489   2.157   3.536   5.378  0.0311 -0.0322 -0.0740
  118SOPE   H8X12490   2.248   3.473   5.363  0.3386  0.8779 -2.4674
  118SOPE   H8Y12491   2.183   3.622   5.443 -1.8490 -0.1136  0.8223
  118SOPE   C3912492   2.129   3.602   5.241 -0.2388  0.8406 -0.0749
  118SOPE   H9X12493   2.080   3.702   5.237 -0.9028  0.4857 -1.2445
  118SOPE   H9Y12494   2.071   3.527   5.183  1.1389 -0.5492  0.2698
  118SOPE  C31012495   2.259   3.627   5.154  0.2136  0.1337  0.1274
  118SOPE  H10X12496   2.313   3.539   5.115  0.4649  0.5063 -0.3730
  118SOPE  H10Y12497   2.323   3.690   5.219 -0.4851 -0.3540  1.3332
  118SOPE  C31112498   2.215   3.699   5.029 -0.1852 -0.6638  0.5792
  118SOPE  H11X12499   2.151   3.788   5.049  2.5462  1.8363 -1.0630
  118SOPE  H11Y12500   2.152   3.640   4.958  0.4992 -0.2847 -0.3494
  118SOPE  C31212501   2.341   3.752   4.953 -0.4411  0.4978  0.3739
  118SOPE  H12X12502   2.415   3.669   4.945 -1.0214 -0.2045  1.8273
  118SOPE  H12Y12503   2.393   3.819   5.025  1.0402 -1.3344  1.1002
  118SOPE  C31312504   2.319   3.814   4.807 -0.0075 -0.3432  0.2203
  118SOPE  H13X12505   2.292   3.734   4.736 -0.1607 -0.9000  0.8962
  118SOPE  H13Y12506   2.419   3.850   4.774 -0.4651  1.3338  0.5587
  118SOPE  C31412507   2.219   3.929   4.810 -0.7895  0.3626 -0.2287
  118SOPE  H14X12508   2.130   3.900   4.869 -1.2858  0.3212 -0.9895
  118SOPE  H14Y12509   2.179   3.950   4.708  0.6754  0.6215 -0.7711
  118SOPE  C31512510   2.278   4.062   4.857 -0.0444  0.0750  0.3634
  118SOPE  H15X12511   2.333   4.109   4.772  0.4467 -1.8581 -0.4476
  118SOPE  H15Y12512   2.349   4.045   4.940  0.5680  0.5894 -0.0410
  118SOPE  C31612513   2.166   4.162   4.892  0.6487  0.4044 -0.2111
  118SOPE  H16X12514   2.207   4.263   4.914  0.1131  0.6624 -0.3627
  118SOPE  H16Y12515   2.112   4.123   4.981  1.4088  1.3024  0.6734
  118SOPE  C31712516   2.071   4.184   4.768 -0.3122  0.0060  0.5108
  118SOPE  H17X12517   1.984   4.116   4.778  1.5196 -2.7710 -1.1569
  118SOPE  H17Y12518   2.112   4.160   4.668 -2.4266  0.0071 -0.3977
  118SOPE  C31812519   2.022   4.327   4.767  0.6584 -0.5099 -0.5522
  118SOPE  H18X12520   1.929   4.327   4.706  0.0450 -0.5143  0.3670
  118SOPE  H18Y12521   2.091   4.398   4.716  0.8363 -1.0815 -1.1266
  118SOPE  H18Z12522   2.005   4.364   4.870 -2.0746  1.3612 -1.5599
  119SOPE     N12523   4.231   2.773   6.602 -0.0724  0.1459  0.2309
  119SOPE   HN112524   4.303   2.843   6.629 -0.5790  0.5140  0.6488
  119SOPE   HN212525   4.261   2.679   6.636 -0.3453 -0.2957 -0.6997
  119SOPE   HN312526   4.202   2.760   6.503 -0.7659  2.4218  0.0790
  119SOPE   C1212527   4.105   2.823   6.671 -0.9154  0.6091 -0.7253
  119SOPE  H12A12528   4.138   2.847   6.774  1.1916 -1.2888 -0.8785
  119SOPE  H12B12529   4.035   2.737   6.681  0.1429 -0.2876 -0.8455
  119SOPE   C1112530   4.045   2.939   6.604  0.5289 -0.0744  0.8065
  119SOPE  H11A12531   3.949   2.966   6.654  0.3413  0.3933  0.2055
  119SOPE  H11B12532   4.011   2.912   6.502  2.0119  0.3969  0.1686
  119SOPE     P12533   4.124   3.183   6.692 -0.2375 -0.2082 -0.2037
  119SOPE   O1312534   4.260   3.212   6.742  0.1714 -0.2147  0.4811
  119SOPE   O1412535   4.026   3.161   6.800  0.0714 -0.0891 -0.2229
  119SOPE   O1212536   4.131   3.048   6.603  0.5464  0.4775 -0.2484
  119SOPE   O1112537   4.078   3.289   6.580  0.3767 -0.0602  0.0074
  119SOPE    C112538   4.135   3.291   6.453  0.3860 -0.1598  0.3464
  119SOPE    HA12539   4.243   3.263   6.448  1.5310  3.7281 -0.6432
  119SOPE    HB12540   4.140   3.393   6.408 -2.8119 -1.0667 -2.4141
  119SOPE    C212541   4.051   3.205   6.359  0.8925  0.3030 -0.2406
  119SOPE    HS12542   4.068   3.098   6.386  0.2318  0.3540  0.4043
  119SOPE   O2112543   4.088   3.241   6.228  0.4405 -0.1184  0.2458
  119SOPE   C2112544   4.097   3.135   6.149  0.2571 -0.0276  0.7388
  119SOPE   O2212545   4.091   3.019   6.182 -0.3801  0.2585  0.2721
  119SOPE   C2212546   4.126   3.180   6.006 -0.0284  0.2203  0.2213
  119SOPE   H2R12547   4.195   3.266   6.022  1.1714 -1.3216  5.0897
  119SOPE   H2S12548   4.026   3.201   5.962  0.2325 -0.7706 -0.8933
  119SOPE    C312549   3.898   3.221   6.378  0.1989 -0.3289 -0.2765
  119SOPE    HX12550   3.881   3.331   6.374 -0.8180 -0.5196 -2.4011
  119SOPE    HY12551   3.864   3.186   6.478  1.2506  0.3036  0.3294
  119SOPE   O3112552   3.830   3.163   6.269 -0.0404 -0.2013  0.4311
  119SOPE   C3112553   3.794   3.030   6.280  0.6345 -0.1368  0.0607
  119SOPE   O3212554   3.807   2.973   6.385 -0.1211 -0.0854  0.4124
  119SOPE   C3212555   3.754   2.960   6.145  0.3022 -0.3131  0.8912
  119SOPE   H2X12556   3.662   2.901   6.168 -1.8695  1.2030 -2.9410
  119SOPE   H2Y12557   3.844   2.903   6.114 -1.1037 -0.9827 -2.3658
  119SOPE   C2312558   4.180   3.077   5.916 -0.1165 -0.4069 -0.6409
  119SOPE   H3R12559   4.122   2.983   5.933  0.6386 -0.8479 -0.4592
  119SOPE   H3S12560   4.282   3.051   5.953 -1.3555  0.8182  4.3256
  119SOPE   C2412561   4.178   3.110   5.765 -1.2839  0.2429 -0.4002
  119SOPE   H4R12562   4.202   3.014   5.715 -0.5410  0.3147 -0.1901
  119SOPE   H4S12563   4.074   3.140   5.739 -1.8614 -1.1130  0.2575
  119SOPE   C2512564   4.270   3.220   5.721  0.3077 -0.2227 -0.3729
  119SOPE   H5R12565   4.234   3.243   5.618 -3.0443 -1.0040  0.5068
  119SOPE   H5S12566   4.254   3.315   5.776  2.1704 -0.0417 -0.1049
  119SOPE   C2612567   4.420   3.185   5.732 -0.7755  0.4147 -0.0536
  119SOPE   H6R12568   4.452   3.162   5.836 -0.7790  0.3885 -0.0582
  119SOPE   H6S12569   4.427   3.085   5.685 -2.2030  0.2997 -0.0639
  119SOPE   C2712570   4.509   3.288   5.663 -0.3912 -0.3784  0.1438
  119SOPE   H7R12571   4.505   3.376   5.730  1.3414 -1.2583  1.4765
  119SOPE   H7S12572   4.617   3.266   5.671 -0.3895 -0.4537 -0.0875
  119SOPE   C2812573   4.476   3.323   5.520 -0.0007  0.3849  0.0604
  119SOPE   H8R12574   4.492   3.234   5.456  0.3712  0.7449 -0.3510
  119SOPE   H8S12575   4.377   3.365   5.495 -0.1848  0.3169  0.6502
  119SOPE   C2912576   4.577   3.427   5.470  0.2572 -0.0353  0.8925
  119SOPE   H9112577   4.545   3.532   5.476  1.9387  0.5702 -0.1399
  119SOPE  C21012578   4.702   3.400   5.425  0.2010 -1.0435 -0.2488
  119SOPE  H10112579   4.756   3.475   5.365 -0.3675 -0.4625 -0.0538
  119SOPE  C21112580   4.764   3.267   5.424 -0.6363  0.5298  0.7834
  119SOPE  H11R12581   4.694   3.186   5.454  0.0235  0.3905  2.0369
  119SOPE  H11S12582   4.839   3.260   5.505 -0.0506  0.8699  0.2768
  119SOPE  C21212583   4.830   3.230   5.291 -0.2869 -0.1208 -0.0383
  119SOPE  H12R12584   4.766   3.253   5.204 -1.1931 -1.9923  0.0927
  119SOPE  H12S12585   4.832   3.119   5.294  0.5579 -0.1049  0.5575
  119SOPE  C21312586   4.964   3.287   5.255 -0.4621  0.1983 -0.4817
  119SOPE  H13R12587   5.038   3.276   5.337  0.4462  0.9613 -1.1715
  119SOPE  H13S12588   4.951   3.394   5.229  1.2895  0.4825 -0.2989
  119SOPE  C21412589   5.029   3.210   5.134 -1.4544  0.1469 -0.4280
  119SOPE  H14R12590   5.064   3.114   5.178 -2.6464 -0.2071 -0.2157
  119SOPE  H14S12591   5.112   3.275   5.100 -0.4438 -0.9997 -0.2231
  119SOPE  C21512592   4.936   3.178   5.025 -0.3727  0.2969  0.1772
  119SOPE  H15R12593   4.878   3.270   5.001  1.3304  0.7947 -2.5592
  119SOPE  H15S12594   4.865   3.099   5.056  0.6893 -0.1328  1.5885
  119SOPE  C21612595   5.008   3.142   4.892 -0.0237 -1.3303  0.2659
  119SOPE  H16R12596   5.067   3.049   4.876  2.8118  0.1898  1.0851
  119SOPE  H16S12597   5.092   3.215   4.893 -0.1313 -1.2083  0.6604
  119SOPE  C21712598   4.941   3.186   4.760  0.1294 -0.4810  0.5900
  119SOPE  H17R12599   4.923   3.296   4.771  0.5153 -0.2792 -0.6915
  119SOPE  H17S12600   4.845   3.132   4.744  0.6777 -1.8382  1.7160
  119SOPE  C21812601   5.027   3.172   4.632  0.5149 -0.5296  0.0448
  119SOPE  H18R12602   5.113   3.241   4.623 -1.1061  1.4709 -0.9929
  119SOPE  H18S12603   4.974   3.184   4.536  1.9985  1.4350 -0.5812
  119SOPE  H18T12604   5.063   3.067   4.636  1.3793 -0.2999 -1.1713
  119SOPE   C3312605   3.702   3.062   6.036 -0.1551  0.3258  0.1789
  119SOPE   H3X12606   3.771   3.148   6.023 -0.6953  0.8635  0.7935
  119SOPE   H3Y12607   3.606   3.100   6.078 -2.2833 -0.9970 -3.0505
  119SOPE   C3412608   3.681   2.991   5.900 -0.4331 -0.8110  0.1572
  119SOPE   H4X12609   3.623   2.899   5.924 -2.7456  0.3612 -0.6076
  119SOPE   H4Y12610   3.784   2.964   5.868 -0.8892 -0.9226 -1.2812
  119SOPE   C3512611   3.616   3.084   5.794  0.8592 -0.4051 -0.3230
  119SOPE   H5X12612   3.680   3.174   5.786 -0.2300  0.3799 -0.5154
  119SOPE   H5Y12613   3.523   3.128   5.837 -0.2596 -1.8864 -1.1350
  119SOPE   C3612614   3.601   3.023   5.652 -0.1097 -0.4524 -0.7918
  119SOPE   H6X12615   3.507   2.964   5.646 -1.3315  1.2529  0.6677
  119SOPE   H6Y12616   3.685   2.953   5.631  0.8798  0.0879  1.2154
  119SOPE   C3712617   3.602   3.139   5.546  0.9100  0.1851  0.1871
  119SOPE   H7X12618   3.694   3.201   5.552  1.8555 -0.8386 -2.2113
  119SOPE   H7Y12619   3.527   3.217   5.571  2.4581  2.2679 -1.3560
  119SOPE   C3812620   3.588   3.091   5.398 -0.5960  0.0542  0.0348
  119SOPE   H8X12621   3.522   3.002   5.397  1.2062 -1.3206  0.0720
  119SOPE   H8Y12622   3.683   3.050   5.360 -1.0639 -2.0390  0.9948
  119SOPE   C3912623   3.545   3.197   5.301  0.5382  0.2501 -0.3152
  119SOPE   H9X12624   3.620   3.278   5.300  0.2362  0.5594  0.6384
  119SOPE   H9Y12625   3.445   3.233   5.333  0.1788 -0.4269 -0.6507
  119SOPE  C31012626   3.533   3.136   5.157  0.2123 -0.1202  0.1086
  119SOPE  H10X12627   3.451   3.060   5.153  0.1066  0.0163 -0.3996
  119SOPE  H10Y12628   3.629   3.084   5.138 -0.0364 -0.5787  0.0797
  119SOPE  C31112629   3.505   3.243   5.058  0.1066 -0.7148  0.7730
  119SOPE  H11X12630   3.586   3.318   5.072  0.0894 -0.8375  1.5878
  119SOPE  H11Y12631   3.402   3.279   5.075  0.3614  0.7030 -0.4797
  119SOPE  C31212632   3.501   3.185   4.914  0.0357  0.3474  0.8610
  119SOPE  H12X12633   3.427   3.102   4.909  2.1279 -1.5616 -0.7663
  119SOPE  H12Y12634   3.599   3.136   4.896 -1.2599 -1.8830 -0.5415
  119SOPE  C31312635   3.482   3.297   4.810  0.3209 -0.2091  0.3931
  119SOPE  H13X12636   3.563   3.373   4.819 -0.1522  0.1868  1.4721
  119SOPE  H13Y12637   3.387   3.347   4.838  0.3149 -0.6987  1.2801
  119SOPE  C31412638   3.471   3.254   4.665 -0.1810  0.7250  0.5934
  119SOPE  H14X12639   3.393   3.176   4.658 -0.0085  0.1992  3.3957
  119SOPE  H14Y12640   3.570   3.215   4.631 -0.6114  1.2400 -1.3798
  119SOPE  C31512641   3.436   3.369   4.568 -0.1744 -0.1510 -0.1497
  119SOPE  H15X12642   3.524   3.435   4.553 -1.2169  1.0498 -1.2450
  119SOPE  H15Y12643   3.356   3.425   4.621 -0.6830 -1.0053  0.0126
  119SOPE  C31612644   3.386   3.324   4.427 -0.1398  0.6238 -0.4044
  119SOPE  H16X12645   3.366   3.409   4.358  0.0229 -0.2813 -1.6106
  119SOPE  H16Y12646   3.285   3.283   4.450 -0.0075  0.6051  0.1675
  119SOPE  C31712647   3.466   3.211   4.356 -0.2681 -0.0913  0.2101
  119SOPE  H17X12648   3.485   3.134   4.434 -0.2904 -1.7275 -1.3419
  119SOPE  H17Y12649   3.564   3.253   4.327  0.6165 -1.7168  0.7227
  119SOPE  C31812650   3.397   3.151   4.228 -0.0504  0.6382 -0.6394
  119SOPE  H18X12651   3.374   3.237   4.162  1.0371  0.9070 -0.6999
  119SOPE  H18Y12652   3.298   3.119   4.265 -0.7772  0.7827 -2.4023
  119SOPE  H18Z12653   3.450   3.072   4.171 -0.4948  0.4340 -0.7691
  120SOPE     N12654   3.757   3.169   6.806  0.3112  0.1949  0.1464
  120SOPE   HN112655   3.701   3.099   6.753 -1.0988  1.0556  0.4616
  120SOPE   HN212656   3.857   3.145   6.793  0.1279 -0.3814 -0.2319
  120SOPE   HN312657   3.742   3.144   6.906  2.4770  0.2433  0.5279
  120SOPE   C1212658   3.715   3.305   6.764 -0.7279 -0.1310  0.6302
  120SOPE  H12A12659   3.604   3.302   6.762 -1.0029  4.3401 -0.0484
  120SOPE  H12B12660   3.752   3.320   6.661 -0.7214 -0.7096  0.5472
  120SOPE   C1112661   3.749   3.416   6.861  0.2416 -0.5670 -0.2789
  120SOPE  H11A12662   3.742   3.380   6.966  0.7339  0.5774  0.1636
  120SOPE  H11B12663   3.665   3.486   6.842  0.2597 -0.2298  0.8203
  120SOPE     P12664   3.911   3.612   6.763  0.4100  0.0854 -0.0919
  120SOPE   O1312665   4.049   3.613   6.713 -0.0770 -0.6734  0.4781
  120SOPE   O1412666   3.879   3.709   6.870 -0.1691  0.0308  0.6464
  120SOPE   O1212667   3.880   3.465   6.825  0.0533  0.2394  0.6247
  120SOPE   O1112668   3.813   3.639   6.646 -0.2762 -0.6803 -0.6855
  120SOPE    C112669   3.826   3.576   6.517  0.2096 -0.2041 -0.2712
  120SOPE    HA12670   3.728   3.533   6.485 -0.1409  0.5610 -0.2548
  120SOPE    HB12671   3.898   3.492   6.522 -0.6737 -0.9396  0.3925
  120SOPE    C212672   3.888   3.678   6.404  0.4164  0.1822 -0.2193
  120SOPE    HS12673   3.804   3.748   6.386  1.1041  0.6496 -1.7850
  120SOPE   O2112674   3.944   3.606   6.294 -0.8235  0.2145  0.2945
  120SOPE   C2112675   3.850   3.552   6.214  0.4033 -0.0165  0.6765
  120SOPE   O2212676   3.731   3.572   6.225 -0.0238 -0.1331 -0.2848
  120SOPE   C2212677   3.911   3.477   6.097 -0.5375  0.6342 -0.0418
  120SOPE   H2R12678   3.870   3.374   6.094  1.4688 -0.1999 -2.5489
  120SOPE   H2S12679   4.018   3.464   6.124 -0.1018 -1.3726 -2.3593
  120SOPE    C312680   4.003   3.758   6.462 -0.1989  0.2306 -0.4558
  120SOPE    HX12681   4.082   3.683   6.485  1.0617  1.1171 -1.6923
  120SOPE    HY12682   3.977   3.821   6.550 -0.8354  2.3577 -2.0838
  120SOPE   O3112683   4.051   3.843   6.358  0.3868  0.4180 -0.2699
  120SOPE   C3112684   4.145   3.928   6.393 -0.6280 -0.1068 -0.2435
  120SOPE   O3212685   4.178   3.951   6.508 -0.3283  0.4072 -0.0583
  120SOPE   C3212686   4.176   4.003   6.263  0.2308 -0.6682 -0.1188
  120SOPE   H2X12687   4.078   4.034   6.221  0.1352  0.6291  0.9861
  120SOPE   H2Y12688   4.217   3.930   6.190 -1.7607 -1.4067 -0.5375
  120SOPE   C2312689   3.896   3.542   5.961 -0.1007  0.3375 -0.4457
  120SOPE   H3R12690   3.968   3.625   5.946 -0.2933  0.4078 -1.0159
  120SOPE   H3S12691   3.792   3.574   5.940 -0.1899  0.1344 -0.3134
  120SOPE   C2412692   3.936   3.446   5.848  0.7433  0.8090  0.8587
  120SOPE   H4R12693   4.039   3.407   5.862  0.3979 -0.4671  0.0312
  120SOPE   H4S12694   3.875   3.353   5.839 -0.2039  1.3439  1.5254
  120SOPE   C2512695   3.924   3.508   5.708 -0.0514  1.1059 -0.1392
  120SOPE   H5R12696   3.817   3.534   5.692  0.1337  1.7917 -0.2858
  120SOPE   H5S12697   3.992   3.596   5.707  0.6404  0.5828  0.1095
  120SOPE   C2612698   3.940   3.396   5.597  0.3430  0.4852 -0.2732
  120SOPE   H6R12699   4.042   3.351   5.592 -0.4110 -1.3611  0.1630
  120SOPE   H6S12700   3.864   3.319   5.621  2.1735 -1.1924  0.4461
  120SOPE   C2712701   3.910   3.460   5.464  0.0619  0.2215 -0.2328
  120SOPE   H7R12702   3.812   3.511   5.461 -0.9695 -1.6437 -0.0231
  120SOPE   H7S12703   3.974   3.549   5.447  1.9382 -0.7551  1.2174
  120SOPE   C2812704   3.887   3.378   5.342  0.2374  0.0811  0.1792
  120SOPE   H8R12705   3.829   3.288   5.372 -3.1329  1.8381 -0.5604
  120SOPE   H8S12706   3.820   3.428   5.270 -1.7624  2.8526  3.6568
  120SOPE   C2912707   4.017   3.331   5.276 -1.1153 -0.4476  0.2936
  120SOPE   H9112708   4.099   3.296   5.340 -1.8477 -4.4902 -0.6908
  120SOPE  C21012709   4.049   3.346   5.147 -0.6131  0.0432 -1.1037
  120SOPE  H10112710   4.156   3.329   5.126  0.4758  1.3865  2.5956
  120SOPE  C21112711   3.951   3.391   5.044 -1.5656 -0.2044  0.2336
  120SOPE  H11R12712   3.847   3.408   5.080 -1.0991 -0.2769  1.6843
  120SOPE  H11S12713   3.939   3.308   4.971 -1.7529 -0.8153  0.9431
  120SOPE  C21212714   4.006   3.510   4.975  0.1295 -0.1344  0.5078
  120SOPE  H12R12715   4.109   3.494   4.937  0.4781  1.3349  0.7416
  120SOPE  H12S12716   4.007   3.597   5.045 -0.9592 -0.4278  0.8970
  120SOPE  C21312717   3.911   3.546   4.865  0.2525 -0.2120 -0.0684
  120SOPE  H13R12718   3.813   3.580   4.906  0.2705  0.2133 -0.3660
  120SOPE  H13S12719   3.900   3.457   4.800  0.4154 -1.6341  1.7953
  120SOPE  C21412720   3.972   3.652   4.769 -0.6720  0.1308  0.3679
  120SOPE  H14R12721   4.082   3.646   4.758 -0.7701  1.0554 -1.5899
  120SOPE  H14S12722   3.950   3.754   4.807 -0.3332  0.4072 -0.1618
  120SOPE  C21512723   3.897   3.638   4.634 -0.4674  0.0023  0.4140
  120SOPE  H15R12724   3.880   3.746   4.613  3.0287  1.2603  3.0044
  120SOPE  H15S12725   3.800   3.585   4.636 -0.1606 -0.8499 -2.5445
  120SOPE  C21612726   3.991   3.581   4.520  0.3297 -0.3464 -0.2641
  120SOPE  H16R12727   3.997   3.473   4.543  1.9882 -0.1731  0.2713
  120SOPE  H16S12728   4.085   3.635   4.546 -0.7445  1.7877 -0.5564
  120SOPE  C21712729   3.945   3.606   4.374  0.8827 -0.6108  0.1761
  120SOPE  H17R12730   3.910   3.711   4.370 -0.5787 -1.0975 -0.8659
  120SOPE  H17S12731   3.852   3.551   4.346 -0.0834  0.3754  1.3022
  120SOPE  C21812732   4.046   3.590   4.258  0.3899  0.7229  0.5497
  120SOPE  H18R12733   4.123   3.510   4.260 -0.5854 -0.8742 -5.5052
  120SOPE  H18S12734   4.090   3.692   4.254  1.5134  0.2849  1.2959
  120SOPE  H18T12735   3.995   3.569   4.162  1.3861 -0.2239  0.2147
  120SOPE   C3312736   4.265   4.128   6.270  0.0587  0.3139  0.0125
  120SOPE   H3X12737   4.366   4.115   6.314 -0.4332 -1.3156  0.7287
  120SOPE   H3Y12738   4.202   4.210   6.312 -0.5622  1.1332 -2.3439
  120SOPE   C3412739   4.288   4.183   6.130 -0.1112 -0.1253 -0.0658
  120SOPE   H4X12740   4.362   4.116   6.081  0.1189 -0.0061  0.1186
  120SOPE   H4Y12741   4.332   4.284   6.141 -1.1722  0.2389  0.9581
  120SOPE   C3512742   4.171   4.191   6.039  0.1770  0.5503  0.0685
  120SOPE   H5X12743   4.091   4.245   6.095 -1.3224 -1.2091 -0.2750
  120SOPE   H5Y12744   4.117   4.094   6.032 -0.0368  0.6131  0.7743
  120SOPE   C3612745   4.194   4.261   5.907 -0.0600  0.1322  0.1087
  120SOPE   H6X12746   4.223   4.363   5.942 -2.2608  1.0234 -0.4628
  120SOPE   H6Y12747   4.098   4.273   5.852 -0.2510 -1.3350  0.0910
  120SOPE   C3712748   4.302   4.207   5.820  0.0228 -0.2342  0.5200
  120SOPE   H7X12749   4.292   4.100   5.795 -0.2221 -0.2616  0.7253
  120SOPE   H7Y12750   4.399   4.242   5.860  0.0705 -0.4981  0.6348
  120SOPE   C3812751   4.282   4.271   5.678 -0.0774 -0.2901 -0.2877
  120SOPE   H8X12752   4.176   4.263   5.645  0.1565 -0.2836 -1.0478
  120SOPE   H8Y12753   4.349   4.221   5.605 -1.4863 -0.7495 -1.3238
  120SOPE   C3912754   4.315   4.421   5.666 -0.0853  0.4477 -0.4580
  120SOPE   H9X12755   4.420   4.438   5.699  0.8749 -0.1418 -2.9604
  120SOPE   H9Y12756   4.259   4.490   5.733 -1.9665 -0.7710 -0.6972
  120SOPE  C31012757   4.309   4.478   5.527  0.8736  0.5561 -0.4811
  120SOPE  H10X12758   4.343   4.583   5.517  0.1871  0.7654 -0.6626
  120SOPE  H10Y12759   4.206   4.469   5.488  0.1976  1.4454  1.0509
  120SOPE  C31112760   4.397   4.399   5.426  0.4493 -0.3494 -0.6242
  120SOPE  H11X12761   4.332   4.310   5.412  0.1405 -0.3514  0.6779
  120SOPE  H11Y12762   4.493   4.372   5.475 -0.0819 -2.9576 -0.8676
  120SOPE  C31212763   4.421   4.476   5.299 -0.3397 -0.1089  0.2539
  120SOPE  H12X12764   4.496   4.558   5.306 -0.0111 -0.3262 -0.6066
  120SOPE  H12Y12765   4.329   4.524   5.258 -1.5697 -1.8374  0.8561
  120SOPE  C31312766   4.453   4.382   5.186  0.1689 -0.2237  0.7110
  120SOPE  H13X12767   4.433   4.430   5.088  0.3850  1.5303  1.4859
  120SOPE  H13Y12768   4.387   4.293   5.199  1.3579 -0.8866  2.6971
  120SOPE  C31412769   4.595   4.326   5.194 -0.6677  0.0973  0.1834
  120SOPE  H14X12770   4.611   4.281   5.295  1.6317 -0.6356 -0.4569
  120SOPE  H14Y12771   4.662   4.411   5.173 -1.5328  0.6998 -0.2130
  120SOPE  C31512772   4.625   4.215   5.092  0.1239  0.4634  0.1064
  120SOPE  H15X12773   4.584   4.260   4.999 -0.1411 -1.2647 -0.6564
  120SOPE  H15Y12774   4.559   4.131   5.124  1.1268  0.0658  1.1979
  120SOPE  C31612775   4.774   4.181   5.090 -0.2848 -0.0405  0.0805
  120SOPE  H16X12776   4.813   4.139   5.185 -0.9055 -0.4704  0.1481
  120SOPE  H16Y12777   4.828   4.278   5.078 -1.3183  0.6134  0.6016
  120SOPE  C31712778   4.811   4.089   4.969 -0.7980 -0.3324 -0.4096
  120SOPE  H17X12779   4.737   4.006   4.969 -3.2423  1.7331 -0.0913
  120SOPE  H17Y12780   4.910   4.047   4.995 -0.4893  0.3750 -0.4145
  120SOPE  C31812781   4.825   4.151   4.828  0.1190 -0.3764 -0.0455
  120SOPE  H18X12782   4.813   4.082   4.742  0.3158  1.1063 -1.3135
  120SOPE  H18Y12783   4.918   4.213   4.829  0.0024 -0.2046  0.2706
  120SOPE  H18Z12784   4.736   4.217   4.817  0.2137 -0.4254 -1.1932
  121SOPE     N12785   3.364   2.654   6.978 -0.5017  0.3688  0.1386
  121SOPE   HN112786   3.429   2.574   6.993 -0.0158  1.1760  3.1225
  121SOPE   HN212787   3.398   2.721   7.050 -1.1706 -3.2658  4.2577
  121SOPE   HN312788   3.273   2.617   7.014  0.5718 -1.9338  0.6824
  121SOPE   C1212789   3.351   2.705   6.837 -0.4865 -0.2715 -0.4090
  121SOPE  H12A12790   3.451   2.752   6.827 -1.7720  2.9181  0.5536
  121SOPE  H12B12791   3.271   2.781   6.846 -1.6258 -1.5050  0.3447
  121SOPE   C1112792   3.324   2.598   6.732  0.3252  0.3512  0.5342
  121SOPE  H11A12793   3.399   2.519   6.754 -0.6425 -0.1187  2.3853
  121SOPE  H11B12794   3.341   2.637   6.630  0.9526 -1.1021  0.0537
  121SOPE     P12795   3.058   2.619   6.700  0.2285  0.2962  0.2537
  121SOPE   O1312796   3.046   2.741   6.780 -0.2629 -0.6215 -0.1180
  121SOPE   O1412797   2.942   2.531   6.723 -0.0216  0.2277 -0.3207
  121SOPE   O1212798   3.188   2.547   6.742 -0.2476  0.1240 -0.5139
  121SOPE   O1112799   3.068   2.648   6.547  0.3985  0.1551  0.2249
  121SOPE    C112800   3.083   2.540   6.454 -0.4039  0.5521 -0.0246
  121SOPE    HA12801   2.992   2.477   6.448  0.8378 -1.5069  1.4865
  121SOPE    HB12802   3.174   2.482   6.481  0.5240  1.6753 -0.5824
  121SOPE    C212803   3.132   2.587   6.320  0.1187  0.1951 -0.4859
  121SOPE    HS12804   3.230   2.636   6.336 -1.1739  2.5154  0.7473
  121SOPE   O2112805   3.033   2.670   6.267  0.5823  0.2811  0.0042
  121SOPE   C2112806   3.076   2.788   6.223 -0.7732  0.2199  0.6488
  121SOPE   O2212807   3.192   2.821   6.240 -0.2803 -0.2712  0.2345
  121SOPE   C2212808   2.967   2.871   6.163  0.2975  0.0676 -0.0230
  121SOPE   H2R12809   2.941   2.957   6.228  0.4256  1.1097 -1.3008
  121SOPE   H2S12810   2.872   2.814   6.156 -0.4912  1.3395 -0.0476
  121SOPE    C312811   3.149   2.470   6.220  0.0054 -0.1882 -0.0311
  121SOPE    HX12812   3.054   2.418   6.197  2.1309 -3.5946 -2.1497
  121SOPE    HY12813   3.219   2.390   6.253  2.7491  2.3885  0.9331
  121SOPE   O3112814   3.195   2.517   6.092 -0.3461 -0.3026 -0.2254
  121SOPE   C3112815   3.322   2.514   6.070 -0.8845 -0.2595 -0.6241
  121SOPE   O3212816   3.410   2.506   6.153 -0.0915  0.0593  0.1140
  121SOPE   C3212817   3.345   2.542   5.919  0.3757  0.4746  0.2935
  121SOPE   H2X12818   3.276   2.624   5.889 -1.4184 -1.6308 -1.7334
  121SOPE   H2Y12819   3.321   2.448   5.865 -1.5262  0.6580  0.7749
  121SOPE   C2312820   3.003   2.945   6.032  0.2908 -0.1653 -0.6066
  121SOPE   H3R12821   3.093   3.009   6.043  1.2321 -1.3391 -1.2121
  121SOPE   H3S12822   2.918   3.012   6.005 -1.5529 -1.8786  0.6144
  121SOPE   C2412823   3.011   2.853   5.918 -0.4548  0.5516 -0.1151
  121SOPE   H4R12824   3.095   2.781   5.911 -1.9818 -1.2618 -1.0123
  121SOPE   H4S12825   2.933   2.775   5.906 -0.7595  1.0371 -1.4636
  121SOPE   C2512826   3.031   2.931   5.792  0.3368  0.0357 -0.3035
  121SOPE   H5R12827   2.948   3.003   5.772  0.1102 -0.0873  0.1942
  121SOPE   H5S12828   3.113   3.001   5.818 -0.4300  0.6478  0.5068
  121SOPE   C2612829   3.063   2.854   5.663 -0.4833  0.2188  0.0464
  121SOPE   H6R12830   3.156   2.793   5.666  0.7615  1.9282 -1.5947
  121SOPE   H6S12831   2.979   2.794   5.621 -1.3332  0.6012  1.1583
  121SOPE   C2712832   3.101   2.958   5.560 -0.3847 -0.0985 -0.0470
  121SOPE   H7R12833   3.011   3.021   5.544 -2.2003 -2.3797  0.6060
  121SOPE   H7S12834   3.187   3.009   5.607  0.0793 -2.5686  1.9849
  121SOPE   C2812835   3.146   2.891   5.428 -0.1710 -0.6090  0.2170
  121SOPE   H8R12836   3.232   2.828   5.458  0.8427  0.0079 -1.2884
  121SOPE   H8S12837   3.059   2.832   5.391  1.1835 -2.8713  0.4719
  121SOPE   C2912838   3.177   2.996   5.320  0.2950 -0.5951 -0.1432
  121SOPE   H9112839   3.238   3.081   5.354  0.4584 -0.4725 -0.7417
  121SOPE  C21012840   3.135   2.990   5.197 -0.3714 -0.7280  0.3968
  121SOPE  H10112841   3.164   3.071   5.127 -3.1230 -1.7725 -2.1628
  121SOPE  C21112842   3.046   2.888   5.128 -0.7363  0.2382 -0.5691
  121SOPE  H11R12843   2.960   2.943   5.084  0.3514  1.0493 -1.7351
  121SOPE  H11S12844   3.011   2.812   5.203  0.3306  0.7194  0.4421
  121SOPE  C21212845   3.119   2.792   5.029  0.0299  0.1469 -0.3276
  121SOPE  H12R12846   3.046   2.714   5.000  1.3128 -1.0096 -0.5185
  121SOPE  H12S12847   3.203   2.739   5.078  1.2799  0.2159 -2.2998
  121SOPE  C21312848   3.168   2.873   4.897  0.2657 -0.3110 -0.0706
  121SOPE  H13R12849   3.211   2.792   4.835  0.1081 -1.4160  1.1978
  121SOPE  H13S12850   3.248   2.943   4.929  0.9858  0.6604 -3.6465
  121SOPE  C21412851   3.060   2.946   4.818 -0.1315  0.2145  0.1557
  121SOPE  H14R12852   3.028   3.036   4.875  1.7175  1.3924 -0.5496
  121SOPE  H14S12853   2.974   2.877   4.806 -1.1613  1.4613  0.0669
  121SOPE  C21512854   3.119   2.995   4.686 -0.0835 -0.0780 -0.4851
  121SOPE  H15R12855   3.142   2.910   4.618  0.0147 -1.3370  1.0584
  121SOPE  H15S12856   3.216   3.044   4.707  0.0159 -0.0931 -0.8954
  121SOPE  C21612857   3.042   3.104   4.611 -1.0543 -0.0460  0.9474
  121SOPE  H16R12858   3.078   3.121   4.508 -1.0547 -1.8491  0.6206
  121SOPE  H16S12859   3.056   3.200   4.665 -0.3646 -0.1029  0.8849
  121SOPE  C21712860   2.893   3.096   4.596  0.5338 -0.1226  0.4476
  121SOPE  H17R12861   2.876   3.198   4.555 -0.1522 -0.0940  0.7940
  121SOPE  H17S12862   2.843   3.094   4.696 -1.5327  2.4053 -0.4345
  121SOPE  C21812863   2.833   2.983   4.496 -0.2724 -0.3703 -0.5759
  121SOPE  H18R12864   2.723   2.994   4.485 -0.4372 -0.1938  0.9472
  121SOPE  H18S12865   2.863   2.885   4.537  0.5159 -0.0555 -0.3754
  121SOPE  H18T12866   2.888   2.986   4.400  0.7186 -2.2449 -0.0982
  121SOPE   C3312867   3.495   2.592   5.900 -0.2545  0.6569 -0.1804
  121SOPE   H3X12868   3.565   2.512   5.934 -1.2911 -0.0008  0.4687
  121SOPE   H3Y12869   3.507   2.686   5.958  0.4778  1.4904 -1.6218
  121SOPE   C3412870   3.538   2.638   5.763 -0.1387  0.1676 -0.3094
  121SOPE   H4X12871   3.641   2.679   5.764 -0.3289  0.6946 -1.1987
  121SOPE   H4Y12872   3.480   2.729   5.735  1.1732  0.8919 -0.7566
  121SOPE   C3512873   3.547   2.520   5.669  0.4734 -0.0723 -0.3128
  121SOPE   H5X12874   3.451   2.464   5.678 -1.0978  2.3232 -1.1473
  121SOPE   H5Y12875   3.628   2.450   5.698 -1.0938 -1.6676  0.4642
  121SOPE   C3612876   3.590   2.565   5.531  0.6189 -0.4744 -0.2523
  121SOPE   H6X12877   3.606   2.479   5.462  0.2212  0.6245 -1.7629
  121SOPE   H6Y12878   3.691   2.611   5.537  0.7533 -0.8798  0.8407
  121SOPE   C3712879   3.500   2.656   5.456  0.6664  0.2679  0.4025
  121SOPE   H7X12880   3.493   2.749   5.515  1.2886 -1.9020  4.1963
  121SOPE   H7Y12881   3.396   2.621   5.438  0.8910 -0.0077 -0.4300
  121SOPE   C3812882   3.553   2.688   5.312  1.0284  0.4957  0.1386
  121SOPE   H8X12883   3.592   2.600   5.257 -0.5324  0.1185 -0.4093
  121SOPE   H8Y12884   3.645   2.749   5.326  0.0137  2.0040  0.4276
  121SOPE   C3912885   3.442   2.751   5.224 -0.8407  0.0937  0.0922
  121SOPE   H9X12886   3.409   2.846   5.271  2.5504  0.7789  1.3462
  121SOPE   H9Y12887   3.356   2.681   5.216 -1.1749  0.7182 -3.0818
  121SOPE  C31012888   3.496   2.788   5.082 -0.5452 -0.1978 -0.7318
  121SOPE  H10X12889   3.596   2.828   5.107 -0.1760 -2.5770  2.0512
  121SOPE  H10Y12890   3.435   2.869   5.037  1.2160  2.9049  2.0008
  121SOPE  C31112891   3.519   2.674   4.974  0.0322 -0.1176  0.0110
  121SOPE  H11X12892   3.418   2.636   4.950 -1.3621  0.3309  4.2438
  121SOPE  H11Y12893   3.578   2.600   5.031 -1.0072 -0.4784  0.6334
  121SOPE  C31212894   3.603   2.720   4.859  0.2688 -0.2415 -0.5115
  121SOPE  H12X12895   3.628   2.634   4.793 -1.3117  0.0588 -1.5634
  121SOPE  H12Y12896   3.697   2.769   4.892  0.3805 -1.5284  1.2006
  121SOPE  C31312897   3.525   2.812   4.760  0.5713 -0.7695 -0.6430
  121SOPE  H13X12898   3.519   2.910   4.813 -1.0619 -2.9584  3.6643
  121SOPE  H13Y12899   3.420   2.776   4.750  1.0313 -2.5181  0.3804
  121SOPE  C31412900   3.581   2.823   4.623  0.0819  0.8117  0.1735
  121SOPE  H14X12901   3.501   2.862   4.558  0.3450  0.0762 -0.6016
  121SOPE  H14Y12902   3.616   2.727   4.579 -0.3920  1.3194 -1.3618
  121SOPE  C31512903   3.696   2.926   4.613  0.7698  0.5113  0.1275
  121SOPE  H15X12904   3.787   2.898   4.670 -0.2044  1.4278  2.2673
  121SOPE  H15Y12905   3.660   3.015   4.668  1.2142  0.3391  0.7165
  121SOPE  C31612906   3.741   2.938   4.463  0.1756  0.8247 -0.0616
  121SOPE  H16X12907   3.658   2.950   4.391 -1.1899 -1.0521  1.1172
  121SOPE  H16Y12908   3.780   2.836   4.442 -1.5782 -0.2667  1.7263
  121SOPE  C31712909   3.847   3.040   4.447 -0.4012  0.6342  0.1880
  121SOPE  H17X12910   3.877   3.037   4.340  0.0393 -1.0496  0.3384
  121SOPE  H17Y12911   3.935   3.003   4.503 -0.5652  1.9601  1.3769
  121SOPE  C31812912   3.807   3.185   4.488  0.0986 -0.1002  0.0365
  121SOPE  H18X12913   3.703   3.206   4.456 -1.0617 -1.4180  2.6740
  121SOPE  H18Y12914   3.879   3.259   4.447 -0.9280  0.9365  0.0585
  121SOPE  H18Z12915   3.810   3.180   4.599 -0.6098 -0.4674  0.0424
  122SOPE     N12916   2.353   5.120   6.361 -0.0624  0.3980 -0.4613
  122SOPE   HN112917   2.300   5.172   6.434  2.4778 -0.7393  2.4111
  122SOPE   HN212918   2.288   5.083   6.289  0.7372 -2.0752 -0.0156
  122SOPE   HN312919   2.407   5.040   6.399 -0.4465  0.3724  0.0393
  122SOPE   C1212920   2.453   5.212   6.292  0.8413 -0.4693 -0.0892
  122SOPE  H12A12921   2.498   5.152   6.210 -0.2546 -2.3046  0.6048
  122SOPE  H12B12922   2.529   5.242   6.368  1.6450  2.5250 -1.8901
  122SOPE   C1112923   2.372   5.335   6.227  0.4586  0.4879  0.7177
  122SOPE  H11A12924   2.295   5.291   6.160  0.8898  0.3445  0.3071
  122SOPE  H11B12925   2.448   5.396   6.173  0.4528  1.6065  1.9281
  122SOPE     P12926   2.372   5.528   6.405  0.2882 -0.0021 -0.1902
  122SOPE   O1312927   2.382   5.469   6.540 -0.6263  0.5373 -0.6190
  122SOPE   O1412928   2.306   5.663   6.384 -1.2299  0.1090  0.2220
  122SOPE   O1212929   2.295   5.425   6.313 -0.7995 -0.2656 -0.3802
  122SOPE   O1112930   2.524   5.525   6.351  0.0132  0.1670 -0.3992
  122SOPE    C112931   2.586   5.653   6.336 -0.4620 -0.7082 -0.2728
  122SOPE    HA12932   2.693   5.640   6.363 -0.3725  0.0190 -0.2400
  122SOPE    HB12933   2.547   5.731   6.405  0.3861  0.2966 -0.8833
  122SOPE    C212934   2.585   5.688   6.187  0.4211 -1.0412  0.0075
  122SOPE    HS12935   2.481   5.687   6.148 -0.5841 -4.5509  2.2928
  122SOPE   O2112936   2.672   5.593   6.114  0.2079 -0.2324  0.4677
  122SOPE   C2112937   2.625   5.532   6.012 -0.0926 -1.8020 -0.7912
  122SOPE   O2212938   2.507   5.538   5.977  0.1132 -0.6213 -0.0517
  122SOPE   C2212939   2.726   5.438   5.955  0.1680  0.0768 -0.0368
  122SOPE   H2R12940   2.681   5.396   5.863  1.3826 -0.2486 -0.4908
  122SOPE   H2S12941   2.757   5.356   6.023  0.1223 -0.0661 -0.1880
  122SOPE    C312942   2.632   5.837   6.161 -0.5890  0.3689 -0.1273
  122SOPE    HX12943   2.727   5.848   6.218 -2.1863  1.1938  2.5346
  122SOPE    HY12944   2.554   5.902   6.206  0.8396  1.4474  0.8694
  122SOPE   O3112945   2.648   5.863   6.019 -0.6368 -0.3790 -0.4211
  122SOPE   C3112946   2.769   5.906   5.977  0.3070 -0.2087  0.6936
  122SOPE   O3212947   2.865   5.917   6.046 -0.1217 -0.4818  0.2635
  122SOPE   C3212948   2.765   5.909   5.820 -0.7060 -0.5243 -0.1945
  122SOPE   H2X12949   2.815   5.816   5.786  1.5525  0.9970 -1.2398
  122SOPE   H2Y12950   2.834   5.988   5.784  1.5348 -2.0550  0.5293
  122SOPE   C2312951   2.849   5.514   5.907 -0.5112  0.1774 -0.7302
  122SOPE   H3R12952   2.903   5.569   5.987 -0.6479 -2.8730  1.6510
  122SOPE   H3S12953   2.822   5.578   5.820 -2.5850 -0.3140 -0.5197
  122SOPE   C2412954   2.957   5.418   5.851  0.2072  0.4126 -0.3840
  122SOPE   H4R12955   2.968   5.342   5.932 -1.6579  1.7493  1.2235
  122SOPE   H4S12956   2.903   5.368   5.767  0.1550  0.8232 -0.5956
  122SOPE   C2512957   3.090   5.496   5.824  0.1353 -0.8521 -0.4556
  122SOPE   H5R12958   3.123   5.512   5.929 -1.0332 -3.0783  0.3281
  122SOPE   H5S12959   3.169   5.427   5.788 -0.2259 -1.7410  0.4106
  122SOPE   C2612960   3.093   5.624   5.733  0.0176 -0.0041  0.5609
  122SOPE   H6R12961   3.029   5.701   5.780 -0.7323 -0.0226 -0.4061
  122SOPE   H6S12962   3.198   5.661   5.723 -0.7841  2.6593  1.1027
  122SOPE   C2712963   3.041   5.596   5.595 -0.4834 -0.2941 -0.6942
  122SOPE   H7R12964   2.941   5.548   5.600 -1.4843  1.4657 -2.3442
  122SOPE   H7S12965   3.034   5.695   5.545 -0.7791  0.4984  0.8816
  122SOPE   C2812966   3.126   5.515   5.491 -0.3422  0.8998 -0.4121
  122SOPE   H8R12967   3.227   5.560   5.481  0.5725 -1.3386 -2.0328
  122SOPE   H8S12968   3.138   5.416   5.541  3.7872  0.8898 -1.0506
  122SOPE   C2912969   3.069   5.503   5.352  0.6807  0.0374  0.2482
  122SOPE   H9112970   2.981   5.437   5.340  0.1991  0.8978 -1.2426
  122SOPE  C21012971   3.103   5.579   5.245 -0.2627 -0.4008 -0.3687
  122SOPE  H10112972   3.049   5.559   5.151  0.0597  1.8425 -1.0948
  122SOPE  C21112973   3.210   5.689   5.242  0.1392  0.2857 -0.2780
  122SOPE  H11R12974   3.206   5.737   5.343 -0.1643 -0.9962  0.3287
  122SOPE  H11S12975   3.192   5.753   5.153  1.0888 -0.0529 -0.7301
  122SOPE  C21212976   3.353   5.617   5.232 -0.2672 -0.0350 -0.3563
  122SOPE  H12R12977   3.336   5.553   5.143 -2.9204 -3.4001  2.2978
  122SOPE  H12S12978   3.365   5.542   5.313  0.9624  0.0570 -0.4345
  122SOPE  C21312979   3.458   5.720   5.204 -0.3221 -0.1736 -0.5153
  122SOPE  H13R12980   3.558   5.684   5.235  0.0112 -0.4766 -1.8457
  122SOPE  H13S12981   3.424   5.810   5.259 -0.6728  1.0914 -2.6808
  122SOPE  C21412982   3.465   5.775   5.064  0.1137 -0.4785 -0.3792
  122SOPE  H14R12983   3.384   5.847   5.041  0.2177 -0.5056 -0.8303
  122SOPE  H14S12984   3.451   5.688   4.997 -0.1860 -2.5863  2.2191
  122SOPE  C21512985   3.598   5.841   5.028  0.0369  0.1091  0.2565
  122SOPE  H15R12986   3.685   5.779   5.059 -0.4538 -1.7959 -1.8966
  122SOPE  H15S12987   3.602   5.935   5.087 -0.8874 -0.6046  1.5120
  122SOPE  C21612988   3.608   5.855   4.865 -0.3080  0.2196 -0.4349
  122SOPE  H16R12989   3.515   5.914   4.847 -1.6038 -0.8445  2.2638
  122SOPE  H16S12990   3.603   5.764   4.802  2.1761 -0.7767  0.6837
  122SOPE  C21712991   3.722   5.934   4.818  0.4166 -0.1545  0.3192
  122SOPE  H17R12992   3.814   5.872   4.820 -0.4758 -1.7229 -2.4752
  122SOPE  H17S12993   3.728   6.031   4.872  0.8081  0.2452 -0.4235
  122SOPE  C21812994   3.706   5.952   4.673  0.5433  0.1812 -0.0312
  122SOPE  H18R12995   3.787   6.007   4.620  1.9920 -2.5095 -0.8157
  122SOPE  H18S12996   3.604   5.983   4.643  0.5210 -1.2424 -1.6239
  122SOPE  H18T12997   3.723   5.852   4.627 -0.9321  0.5070 -1.3802
  122SOPE   C3312998   2.635   5.920   5.737 -0.6254 -0.1164  0.1190
  122SOPE   H3X12999   2.629   6.029   5.718 -1.9210 -0.1145  0.4459
  122SOPE   H3Y13000   2.540   5.897   5.789 -1.8045  0.1345 -1.8373
  122SOPE   C3413001   2.644   5.837   5.606  0.5400 -0.4339  0.3497
  122SOPE   H4X13002   2.540   5.837   5.567 -0.6732  1.8554  3.1881
  122SOPE   H4Y13003   2.671   5.731   5.628  1.1937 -0.6383 -1.3000
  122SOPE   C3513004   2.735   5.887   5.495  0.6781 -0.1860  0.8555
  122SOPE   H5X13005   2.835   5.887   5.544  0.1097 -1.1798  2.0865
  122SOPE   H5Y13006   2.709   5.991   5.468 -0.4119 -0.8448 -0.7908
  122SOPE   C3613007   2.735   5.798   5.372  0.4263  0.4924  1.0473
  122SOPE   H6X13008   2.627   5.790   5.346  0.0624  1.3987  2.2044
  122SOPE   H6Y13009   2.781   5.703   5.405 -1.7321 -1.6481 -1.6036
  122SOPE   C3713010   2.812   5.854   5.252  0.7797 -0.2769  0.5816
  122SOPE   H7X13011   2.917   5.871   5.281  0.2952 -0.0995  2.3336
  122SOPE   H7Y13012   2.781   5.958   5.227 -0.8016 -0.4510  1.6793
  122SOPE   C3813013   2.829   5.767   5.122  0.1776 -0.4244 -0.0181
  122SOPE   H8X13014   2.730   5.760   5.072  0.2685 -1.9952  0.0013
  122SOPE   H8Y13015   2.867   5.666   5.149 -1.1019 -1.0296 -0.4273
  122SOPE   C3913016   2.924   5.834   5.025 -0.3672  0.2383 -0.3610
  122SOPE   H9X13017   3.009   5.868   5.088 -0.3815 -2.0039  0.9815
  122SOPE   H9Y13018   2.884   5.925   4.975 -0.5222 -0.9687 -2.5583
  122SOPE  C31013019   2.953   5.744   4.908 -0.3419  0.8133 -0.6430
  122SOPE  H10X13020   2.860   5.739   4.848  0.3470  0.1726 -1.6961
  122SOPE  H10Y13021   2.978   5.648   4.958 -1.8742  1.2576  1.0643
  122SOPE  C31113022   3.054   5.798   4.809  0.6869  0.0700 -0.1436
  122SOPE  H11X13023   3.156   5.789   4.853 -0.1765  0.6711  2.0660
  122SOPE  H11Y13024   3.027   5.905   4.796  0.9216  0.0062 -1.3085
  122SOPE  C31213025   3.066   5.712   4.679 -0.0097 -0.2128  0.0081
  122SOPE  H12X13026   2.970   5.708   4.623  0.5315 -1.5498 -0.8565
  122SOPE  H12Y13027   3.088   5.605   4.699 -0.8783 -0.1456  1.5375
  122SOPE  C31313028   3.177   5.775   4.588  0.1462 -0.4554 -0.2217
  122SOPE  H13X13029   3.205   5.878   4.621  1.2414 -1.3240  1.7963
  122SOPE  H13Y13030   3.144   5.797   4.485 -1.2671  4.3603  0.9767
  122SOPE  C31413031   3.314   5.702   4.582  1.2358 -0.2125  0.0115
  122SOPE  H14X13032   3.302   5.607   4.525  1.2274 -0.2689  0.1058
  122SOPE  H14Y13033   3.349   5.678   4.685  1.6672 -1.7256 -0.4589
  122SOPE  C31513034   3.424   5.766   4.503  0.4107 -0.5107  0.2703
  122SOPE  H15X13035   3.506   5.692   4.493  1.0846 -0.0139  1.8855
  122SOPE  H15Y13036   3.465   5.852   4.559  0.8614 -0.2096 -0.5095
  122SOPE  C31613037   3.382   5.805   4.361  0.1708 -0.6259 -0.1785
  122SOPE  H16X13038   3.318   5.894   4.346  1.2028 -0.0134 -1.1279
  122SOPE  H16Y13039   3.307   5.731   4.325  0.5508 -0.9994 -0.2234
  122SOPE  C31713040   3.490   5.824   4.259 -0.1716  0.3123 -0.6315
  122SOPE  H17X13041   3.463   5.835   4.152 -1.3661 -2.0056 -0.6400
  122SOPE  H17Y13042   3.565   5.742   4.260 -0.4531  0.0455 -0.9500
  122SOPE  C31813043   3.572   5.950   4.295  0.1423  0.7996  0.4111
  122SOPE  H18X13044   3.632   5.940   4.387  2.1076  1.3318 -0.7622
  122SOPE  H18Y13045   3.497   6.031   4.309 -0.9162 -0.3823  1.9673
  122SOPE  H18Z13046   3.643   5.972   4.213 -0.2969 -2.1313 -0.8894
  123SOPE     N13047   2.158   0.943   1.830  0.1416  0.5175 -0.0757
  123SOPE   HN113048   2.082   0.873   1.839  0.4149 -0.0977 -2.0227
  123SOPE   HN213049   2.225   0.905   1.760  0.9703  0.5553  0.6719
  123SOPE   HN313050   2.207   0.952   1.922 -0.5462 -0.6261  0.4223
  123SOPE   C1213051   2.087   1.059   1.772 -0.2009 -0.2265  0.3458
  123SOPE  H12A13052   2.078   1.053   1.662 -1.1478  2.1383  0.2360
  123SOPE  H12B13053   2.146   1.150   1.798  1.3027 -1.0574 -0.0386
  123SOPE   C1113054   1.942   1.057   1.830 -0.4635  0.6759  0.0470
  123SOPE  H11A13055   1.891   0.973   1.777  1.2274  0.0467 -0.6383
  123SOPE  H11B13056   1.888   1.146   1.790 -3.3692 -0.9416  0.0770
  123SOPE     P13057   1.817   1.005   2.042 -0.1649  0.1532 -0.4577
  123SOPE   O1313058   1.780   0.873   1.982 -0.1865 -0.2911  0.9518
  123SOPE   O1413059   1.720   1.111   2.016 -0.2904 -0.5099  0.0889
  123SOPE   O1213060   1.952   1.039   1.975 -0.2706 -0.5043  0.0068
  123SOPE   O1113061   1.844   0.997   2.193 -0.2155 -0.0166  0.2475
  123SOPE    C113062   1.949   0.913   2.238  0.2546  0.4805 -0.2270
  123SOPE    HA13063   2.043   0.951   2.192 -0.6619  2.5749 -0.4906
  123SOPE    HB13064   1.928   0.810   2.201 -1.0008  0.9573 -0.9410
  123SOPE    C213065   1.957   0.913   2.395 -0.6278 -0.5468 -0.3318
  123SOPE    HS13066   2.002   0.818   2.433 -0.4123 -0.4487 -0.3408
  123SOPE   O2113067   1.822   0.920   2.444  0.2880 -0.1453 -0.5744
  123SOPE   C2113068   1.726   0.826   2.422 -0.1420  0.3297 -0.1914
  123SOPE   O2213069   1.737   0.723   2.361  0.4677 -0.0506  0.5499
  123SOPE   C2213070   1.595   0.883   2.487 -0.0638  0.3719  0.3831
  123SOPE   H2R13071   1.515   0.894   2.411 -2.2007  1.7605  2.6916
  123SOPE   H2S13072   1.621   0.979   2.535  1.6736  0.3998 -0.5172
  123SOPE    C313073   2.035   1.036   2.453  0.0731 -0.5460 -0.8909
  123SOPE    HX13074   1.989   1.134   2.427 -0.8407 -1.0587 -1.2408
  123SOPE    HY13075   2.143   1.046   2.430  0.2515 -0.4668 -0.0467
  123SOPE   O3113076   2.040   1.025   2.598 -0.3585  0.2774  0.0571
  123SOPE   C3113077   1.945   1.100   2.659  0.1691  0.2490  0.1577
  123SOPE   O3213078   1.855   1.164   2.606 -0.2711 -0.5685  0.4835
  123SOPE   C3213079   1.965   1.103   2.809  0.7079  0.1577 -0.5247
  123SOPE   H2X13080   2.032   1.189   2.833 -0.1848  0.6900  0.1448
  123SOPE   H2Y13081   2.018   1.009   2.837  1.8914  1.0701  0.4349
  123SOPE   C2313082   1.537   0.800   2.605 -0.3068 -0.0306  0.3880
  123SOPE   H3R13083   1.541   0.691   2.583  0.5522  0.0489  0.1390
  123SOPE   H3S13084   1.432   0.837   2.614 -0.0288  0.8656  0.0226
  123SOPE   C2413085   1.601   0.852   2.739  0.3109  0.0548 -0.3536
  123SOPE   H4R13086   1.711   0.835   2.742  0.5549  1.4971  2.4978
  123SOPE   H4S13087   1.585   0.962   2.733  1.2984  0.2124 -0.2391
  123SOPE   C2513088   1.536   0.790   2.858  0.0497  0.0364 -0.1450
  123SOPE   H5R13089   1.428   0.811   2.843  0.1732  1.8666  1.1633
  123SOPE   H5S13090   1.553   0.681   2.861 -1.0462 -0.1392  0.0893
  123SOPE   C2613091   1.581   0.847   2.993  0.0017 -0.1423 -0.7745
  123SOPE   H6R13092   1.687   0.831   3.023 -0.0485 -2.7109 -1.7238
  123SOPE   H6S13093   1.566   0.957   2.982 -0.6085 -0.1843 -0.3792
  123SOPE   C2713094   1.497   0.816   3.108  0.3446 -0.2433 -0.5600
  123SOPE   H7R13095   1.392   0.849   3.093  0.9917  3.2995  1.6691
  123SOPE   H7S13096   1.501   0.710   3.139  0.7156 -0.0446  0.0715
  123SOPE   C2813097   1.536   0.895   3.232  0.0026 -0.1139  0.0938
  123SOPE   H8R13098   1.540   1.004   3.213  2.2467  0.0652  1.2896
  123SOPE   H8S13099   1.457   0.867   3.305  1.1356 -0.8401  1.0734
  123SOPE   C2913100   1.667   0.849   3.289 -0.3378 -0.1020  0.8152
  123SOPE   H9113101   1.742   0.819   3.215 -0.8015 -2.4290  1.2008
  123SOPE  C21013102   1.689   0.821   3.423  0.4116 -0.1335 -0.3264
  123SOPE  H10113103   1.792   0.795   3.450  1.2198  0.7854 -2.3428
  123SOPE  C21113104   1.592   0.844   3.541  0.5250  0.3811  0.5676
  123SOPE  H11R13105   1.563   0.740   3.566  1.3071 -0.6058 -2.2501
  123SOPE  H11S13106   1.513   0.913   3.504  1.6886  1.1637 -0.5465
  123SOPE  C21213107   1.656   0.916   3.659  0.8005 -0.1306 -1.1821
  123SOPE  H12R13108   1.699   1.017   3.638 -2.3787  1.8386  0.8499
  123SOPE  H12S13109   1.730   0.844   3.700  0.8613  0.7358  0.3013
  123SOPE  C21313110   1.556   0.948   3.780  0.5709  0.6207 -0.3726
  123SOPE  H13R13111   1.604   1.001   3.864  2.4938  0.2963 -1.2145
  123SOPE  H13S13112   1.509   0.855   3.819  2.2141  0.8016  2.2459
  123SOPE  C21413113   1.436   1.040   3.747  0.8588 -0.0623 -0.1336
  123SOPE  H14R13114   1.369   1.047   3.835  2.3843  2.5729  0.9265
  123SOPE  H14S13115   1.384   0.995   3.659  0.3673  1.6494 -0.7489
  123SOPE  C21513116   1.473   1.183   3.694 -0.1438  0.7876  0.4869
  123SOPE  H15R13117   1.391   1.225   3.631 -1.7492 -0.8153  1.4100
  123SOPE  H15S13118   1.561   1.164   3.629 -1.4890 -2.8185 -0.5730
  123SOPE  C21613119   1.496   1.284   3.803  0.1900 -0.4313  0.3662
  123SOPE  H16R13120   1.602   1.317   3.798  0.5045 -1.5182 -0.4789
  123SOPE  H16S13121   1.502   1.226   3.898 -0.1200 -0.1047  0.5936
  123SOPE  C21713122   1.392   1.390   3.825  0.9198 -0.7829  0.6587
  123SOPE  H17R13123   1.291   1.347   3.840 -0.4654  1.4164 -1.5217
  123SOPE  H17S13124   1.382   1.447   3.730 -2.3700 -2.4715 -0.1315
  123SOPE  C21813125   1.420   1.496   3.933  0.3391  0.2604  0.1262
  123SOPE  H18R13126   1.522   1.539   3.928 -0.2200  1.7207  0.8215
  123SOPE  H18S13127   1.402   1.449   4.033  3.7158 -0.6036  0.4526
  123SOPE  H18T13128   1.355   1.585   3.926  0.8831  0.5636 -1.4359
  123SOPE   C3313129   1.837   1.118   2.886 -0.0333  0.4304  0.0214
  123SOPE   H3X13130   1.765   1.039   2.856  0.2899  0.0256  0.2923
  123SOPE   H3Y13131   1.795   1.220   2.870  0.9295  0.6837 -0.9990
  123SOPE   C3413132   1.841   1.082   3.031  0.5412 -0.0495 -0.2811
  123SOPE   H4X13133   1.901   0.992   3.055  0.7896  0.0270 -0.5990
  123SOPE   H4Y13134   1.738   1.066   3.070  0.4636 -1.6973 -1.0934
  123SOPE   C3513135   1.899   1.197   3.109 -0.1591  0.8440 -0.7972
  123SOPE   H5X13136   1.823   1.278   3.099  0.8776  2.0159  0.3501
  123SOPE   H5Y13137   2.001   1.229   3.079 -0.0065  0.5223 -0.6281
  123SOPE   C3613138   1.913   1.179   3.261 -0.0129  0.0362  0.3663
  123SOPE   H6X13139   2.001   1.119   3.293  0.8652  1.0966 -0.0020
  123SOPE   H6Y13140   1.820   1.129   3.294  0.7820 -2.8365 -1.3478
  123SOPE   C3713141   1.915   1.307   3.332 -0.5034 -0.2011 -0.9108
  123SOPE   H7X13142   1.994   1.370   3.285 -0.6975  0.8585  0.1376
  123SOPE   H7Y13143   1.969   1.302   3.429  1.6212  1.2468 -1.9589
  123SOPE   C3813144   1.787   1.389   3.330 -0.2759  0.1106  0.7276
  123SOPE   H8X13145   1.693   1.331   3.330 -0.3179  0.1075 -1.2177
  123SOPE   H8Y13146   1.772   1.441   3.233  1.2046  2.1567  1.5083
  123SOPE   C3913147   1.769   1.500   3.434 -0.5628  0.5668 -0.6917
  123SOPE   H9X13148   1.688   1.567   3.399 -1.5040  1.4520  2.8055
  123SOPE   H9Y13149   1.863   1.559   3.428  1.0760 -1.9049 -0.6462
  123SOPE  C31013150   1.730   1.449   3.573 -0.0200  0.4051  0.2321
  123SOPE  H10X13151   1.804   1.369   3.593 -0.9653 -0.5993 -0.2129
  123SOPE  H10Y13152   1.628   1.406   3.574  0.8457 -1.8586 -0.4991
  123SOPE  C31113153   1.743   1.559   3.677 -0.5482 -1.0403  0.7402
  123SOPE  H11X13154   1.844   1.605   3.680  0.3154 -2.9061  2.0128
  123SOPE  H11Y13155   1.726   1.516   3.778 -3.3793  0.5406  1.0420
  123SOPE  C31213156   1.640   1.672   3.650 -0.3104  0.1191  0.1433
  123SOPE  H12X13157   1.543   1.618   3.644  0.6600 -2.0835  2.1667
  123SOPE  H12Y13158   1.653   1.723   3.552 -1.5503  0.0407 -0.0723
  123SOPE  C31313159   1.624   1.784   3.747 -0.5907 -0.1827 -0.2645
  123SOPE  H13X13160   1.723   1.833   3.748 -1.0134  0.6971 -0.3017
  123SOPE  H13Y13161   1.605   1.758   3.853  0.5390 -1.0723 -0.2685
  123SOPE  C31413162   1.518   1.881   3.703  0.2627 -0.0237 -0.2490
  123SOPE  H14X13163   1.423   1.823   3.706  0.9775 -1.2911 -1.1579
  123SOPE  H14Y13164   1.536   1.915   3.599  1.0714 -1.3667 -0.5589
  123SOPE  C31513165   1.507   2.008   3.796  0.6994  0.5687 -0.2360
  123SOPE  H15X13166   1.454   1.991   3.892  1.1659  0.9960  0.1028
  123SOPE  H15Y13167   1.428   2.066   3.744 -0.8970  0.5608  2.0268
  123SOPE  C31613168   1.638   2.077   3.816  0.9265 -0.0243  0.5564
  123SOPE  H16X13169   1.697   2.062   3.723 -3.0071  2.5754 -2.6979
  123SOPE  H16Y13170   1.692   2.022   3.896 -1.1381 -1.4313  1.0743
  123SOPE  C31713171   1.640   2.227   3.849  0.4216 -0.0152 -0.5007
  123SOPE  H17X13172   1.612   2.284   3.758 -0.0633  2.8856  1.3417
  123SOPE  H17Y13173   1.743   2.253   3.881 -0.2194  0.9560  0.9128
  123SOPE  C31813174   1.562   2.273   3.971  0.0378  0.2627 -0.3480
  123SOPE  H18X13175   1.580   2.197   4.050  0.2814 -1.1084 -1.6771
  123SOPE  H18Y13176   1.454   2.274   3.947  0.2786 -0.7315 -1.6255
  123SOPE  H18Z13177   1.586   2.377   4.000  0.2474  0.2791 -0.5746
  124SOPE     N13178   3.784   5.295   1.698 -0.2779 -0.3240  0.3271
  124SOPE   HN113179   3.688   5.257   1.705 -0.6426  0.0972 -1.7600
  124SOPE   HN213180   3.784   5.386   1.750 -0.5593  0.8600 -1.6419
  124SOPE   HN313181   3.799   5.327   1.600 -2.5269  1.3887  0.4564
  124SOPE   C1213182   3.886   5.197   1.742 -0.3844 -0.1396  0.3218
  124SOPE  H12A13183   3.984   5.248   1.729  0.5467 -1.7486  0.7612
  124SOPE  H12B13184   3.881   5.107   1.678  1.1007 -0.2740  0.3664
  124SOPE   C1113185   3.861   5.169   1.893 -0.0837 -0.5022  0.3240
  124SOPE  H11A13186   3.949   5.108   1.922  1.3285  0.7290 -1.2164
  124SOPE  H11B13187   3.769   5.108   1.910 -1.6887  1.9629  1.0539
  124SOPE     P13188   3.970   5.357   2.033 -0.1491 -0.0869 -0.2460
  124SOPE   O1313189   3.949   5.504   2.050  0.9697  0.4864  0.4281
  124SOPE   O1413190   4.098   5.319   1.972  0.0804  0.1990  0.6893
  124SOPE   O1213191   3.846   5.291   1.963  0.2521 -0.7242  0.4607
  124SOPE   O1113192   3.954   5.278   2.170  0.0752 -0.0937  0.4301
  124SOPE    C113193   3.848   5.326   2.260 -0.5111  0.4796  0.4074
  124SOPE    HA13194   3.748   5.343   2.214  0.2718 -0.6808 -1.8628
  124SOPE    HB13195   3.874   5.422   2.309  1.6499 -0.7065  1.7361
  124SOPE    C213196   3.822   5.222   2.374  0.7020  0.1426  0.0666
  124SOPE    HS13197   3.721   5.240   2.416  0.5332 -0.7858  0.0869
  124SOPE   O2113198   3.926   5.235   2.474 -0.7560 -0.6145  0.2206
  124SOPE   C2113199   3.900   5.321   2.570  0.4166  0.4679 -0.2670
  124SOPE   O2213200   3.795   5.390   2.570 -0.5988  0.0350 -0.0743
  124SOPE   C2213201   4.004   5.309   2.676  0.7385  0.1158 -0.4171
  124SOPE   H2R13202   4.097   5.365   2.652  0.8435  0.8550  1.5094
  124SOPE   H2S13203   4.039   5.204   2.689  1.0927  0.3951  1.0920
  124SOPE    C313204   3.814   5.075   2.312 -0.1701 -0.3130  0.8691
  124SOPE    HX13205   3.922   5.051   2.297 -0.3630 -0.4098 -0.5571
  124SOPE    HY13206   3.753   5.076   2.219  0.9268  1.3819  0.1076
  124SOPE   O3113207   3.752   5.003   2.417  0.6200  0.3097  0.1041
  124SOPE   C3113208   3.823   4.938   2.502  0.1672  0.6587 -0.4279
  124SOPE   O3213209   3.945   4.950   2.523  0.0182  0.0999  0.2668
  124SOPE   C3213210   3.728   4.850   2.575  0.0199  0.5735  0.1656
  124SOPE   H2X13211   3.657   4.803   2.503 -0.0103  0.3684  0.3291
  124SOPE   H2Y13212   3.667   4.922   2.634 -0.2486 -0.4427  1.1700
  124SOPE   C2313213   3.955   5.337   2.820 -0.3162  0.3235 -0.0898
  124SOPE   H3R13214   3.948   5.248   2.885  1.0450  1.1147  1.1973
  124SOPE   H3S13215   3.858   5.391   2.819  1.1575  3.2440 -2.2050
  124SOPE   C2413216   4.051   5.433   2.892  0.0381  0.3723  0.5249
  124SOPE   H4R13217   4.157   5.398   2.896 -0.2655 -0.4390  2.2159
  124SOPE   H4S13218   4.050   5.533   2.843 -1.2220 -1.1073 -2.7895
  124SOPE   C2513219   4.026   5.473   3.044 -0.3716  0.0980  0.3721
  124SOPE   H5R13220   4.090   5.555   3.083 -1.6945  1.3126  0.1092
  124SOPE   H5S13221   3.922   5.508   3.027 -0.3678  0.0848  0.3251
  124SOPE   C2613222   4.046   5.355   3.138 -0.3657  0.6692  0.9594
  124SOPE   H6R13223   3.996   5.259   3.113  0.7625  0.1508  0.6650
  124SOPE   H6S13224   4.153   5.338   3.160 -0.6429  0.9807  2.6851
  124SOPE   C2713225   3.981   5.382   3.271 -0.0320  0.4922  0.3498
  124SOPE   H7R13226   4.027   5.480   3.297  3.0142 -1.0603  1.1829
  124SOPE   H7S13227   3.870   5.388   3.262 -0.0176 -0.8057 -1.1762
  124SOPE   C2813228   4.037   5.286   3.381  0.0503  0.6454  0.1010
  124SOPE   H8R13229   4.041   5.181   3.343  0.9178  0.6717  0.1058
  124SOPE   H8S13230   4.137   5.324   3.410  0.3858  0.4351 -0.7576
  124SOPE   C2913231   3.938   5.293   3.498 -0.6396  0.1374  0.2637
  124SOPE   H9113232   3.829   5.289   3.486 -0.4830  0.9743 -1.7495
  124SOPE  C21013233   3.987   5.325   3.619 -0.2232  0.0461 -0.2935
  124SOPE  H10113234   3.922   5.332   3.707 -0.1596  0.8147 -0.2998
  124SOPE  C21113235   4.126   5.352   3.660  0.2752 -0.2350  0.5587
  124SOPE  H11R13236   4.158   5.447   3.612 -1.9734  0.8926  1.1734
  124SOPE  H11S13237   4.197   5.273   3.627  0.4985 -0.5857  1.8006
  124SOPE  C21213238   4.160   5.356   3.809 -0.7235 -0.5556 -0.5326
  124SOPE  H12R13239   4.098   5.422   3.872  1.3046 -0.5234  1.5550
  124SOPE  H12S13240   4.260   5.405   3.811 -0.6623 -0.4723 -2.7319
  124SOPE  C21313241   4.163   5.210   3.869  0.2437 -0.6265 -0.6709
  124SOPE  H13R13242   4.239   5.163   3.803 -1.6127  0.0299 -3.4174
  124SOPE  H13S13243   4.074   5.145   3.852  0.5519 -0.7745 -1.7926
  124SOPE  C21413244   4.221   5.209   4.013 -0.4273  0.7586 -0.2151
  124SOPE  H14R13245   4.315   5.268   4.011  0.5269 -0.6482  1.2475
  124SOPE  H14S13246   4.252   5.108   4.046  1.7273  1.4167 -0.0986
  124SOPE  C21513247   4.124   5.276   4.110  0.0151  0.2586 -0.1808
  124SOPE  H15R13248   4.051   5.200   4.146 -0.0487  0.5744  0.3617
  124SOPE  H15S13249   4.064   5.351   4.056 -0.4858  0.3843  0.5429
  124SOPE  C21613250   4.198   5.311   4.241  0.5411  0.0384  0.4517
  124SOPE  H16R13251   4.283   5.377   4.214 -1.9909  2.6945 -1.7209
  124SOPE  H16S13252   4.232   5.213   4.282 -2.5868 -0.5511  1.9538
  124SOPE  C21713253   4.116   5.372   4.353 -0.0444 -0.2858 -0.2889
  124SOPE  H17R13254   4.016   5.329   4.372 -0.3983  0.3650 -0.6711
  124SOPE  H17S13255   4.106   5.479   4.328 -1.2635  0.0720  1.5562
  124SOPE  C21813256   4.197   5.372   4.486 -0.8260 -0.5928 -0.4914
  124SOPE  H18R13257   4.149   5.430   4.568  0.3204 -0.8688  0.3964
  124SOPE  H18S13258   4.295   5.420   4.464  0.2695 -1.8098  1.4484
  124SOPE  H18T13259   4.214   5.273   4.533 -0.3103  1.1503  3.4267
  124SOPE   C3313260   3.795   4.740   2.658 -0.0710  0.1025 -0.4397
  124SOPE   H3X13261   3.864   4.679   2.596 -1.0721 -1.3248 -0.1940
  124SOPE   H3Y13262   3.727   4.665   2.705  1.2346 -0.6764  0.2870
  124SOPE   C3413263   3.867   4.798   2.782  0.4310 -0.0497  0.3424
  124SOPE   H4X13264   3.927   4.888   2.753 -1.5073  0.9178 -0.9243
  124SOPE   H4Y13265   3.930   4.714   2.819 -1.3978 -0.5695  2.5008
  124SOPE   C3513266   3.773   4.849   2.892  0.6927 -0.1477  0.8014
  124SOPE   H5X13267   3.672   4.809   2.873  0.5099 -0.0517  1.5092
  124SOPE   H5Y13268   3.768   4.959   2.878  2.4813 -0.2825 -1.5402
  124SOPE   C3613269   3.822   4.816   3.029 -0.3905 -0.4497 -0.3736
  124SOPE   H6X13270   3.837   4.706   3.041  1.9309 -0.0978  0.3763
  124SOPE   H6Y13271   3.759   4.841   3.117  0.8527 -0.6344  0.5865
  124SOPE   C3713272   3.960   4.888   3.069  0.7474  0.0181 -0.1995
  124SOPE   H7X13273   3.958   4.998   3.055  3.3208 -0.0645 -1.9976
  124SOPE   H7Y13274   4.033   4.856   2.991  1.5251  0.4288  0.3419
  124SOPE   C3813275   4.002   4.852   3.209 -0.4228  0.2875  0.5090
  124SOPE   H8X13276   4.000   4.741   3.222  3.7346  0.0045  0.1512
  124SOPE   H8Y13277   3.937   4.902   3.284 -1.8241  1.4749 -1.4104
  124SOPE   C3913278   4.147   4.897   3.242  0.2331  0.1474 -0.5427
  124SOPE   H9X13279   4.162   5.006   3.224  0.6907  0.0532 -0.7441
  124SOPE   H9Y13280   4.227   4.848   3.182  1.1019 -0.0427  0.7352
  124SOPE  C31013281   4.177   4.860   3.394 -0.8717  0.6515 -0.5307
  124SOPE  H10X13282   4.175   4.749   3.403 -1.9276  0.7995  1.8345
  124SOPE  H10Y13283   4.088   4.894   3.450 -1.0250 -0.6488  0.0585
  124SOPE  C31113284   4.292   4.934   3.463 -0.6201  0.1496 -0.1216
  124SOPE  H11X13285   4.277   5.042   3.442 -1.8374  0.4514  2.0498
  124SOPE  H11Y13286   4.399   4.912   3.440 -0.6560  0.3882 -0.5217
  124SOPE  C31213287   4.288   4.915   3.620  0.3186 -0.1086 -0.1934
  124SOPE  H12X13288   4.297   4.807   3.641 -2.8984 -0.5225 -0.3918
  124SOPE  H12Y13289   4.195   4.955   3.666  0.9140  0.6824  0.3488
  124SOPE  C31313290   4.406   4.983   3.688 -0.1347  0.5322  0.2226
  124SOPE  H13X13291   4.397   5.093   3.686  2.4950  0.8063 -0.6487
  124SOPE  H13Y13292   4.496   4.960   3.627 -1.0129 -1.7479 -0.3329
  124SOPE  C31413293   4.435   4.931   3.831 -0.6852  0.0908  0.0893
  124SOPE  H14X13294   4.465   4.824   3.825  3.1476  0.9196  1.8136
  124SOPE  H14Y13295   4.338   4.939   3.885 -1.4994  1.0150 -1.4480
  124SOPE  C31513296   4.544   5.013   3.911 -0.0822  0.6543  0.5555
  124SOPE  H15X13297   4.518   5.118   3.884 -0.1276  0.7055  0.8001
  124SOPE  H15Y13298   4.649   4.982   3.890 -0.5749 -2.3510  1.9660
  124SOPE  C31613299   4.524   4.987   4.063  0.2067 -0.8482 -0.0921
  124SOPE  H16X13300   4.549   4.883   4.093  3.2396 -0.1979 -0.0034
  124SOPE  H16Y13301   4.425   5.021   4.100  1.4181  1.3570  1.3177
  124SOPE  C31713302   4.618   5.071   4.149 -0.4044  0.6572  0.1086
  124SOPE  H17X13303   4.727   5.050   4.136 -0.0943  3.0389 -1.6153
  124SOPE  H17Y13304   4.600   5.037   4.254  0.9082  0.1097  0.1761
  124SOPE  C31813305   4.593   5.222   4.131 -0.6260 -0.0500 -0.3476
  124SOPE  H18X13306   4.617   5.258   4.029 -0.5858  3.8306  0.8576
  124SOPE  H18Y13307   4.657   5.289   4.194 -0.6486  0.0154 -0.3934
  124SOPE  H18Z13308   4.485   5.246   4.142 -0.5714 -0.5658  1.6586
  125SOPE     N13309   6.694   4.732   2.146  0.0829  0.1285 -0.2057
  125SOPE   HN113310   6.704   4.659   2.219  1.2550  1.0266  0.5813
  125SOPE   HN213311   6.599   4.721   2.106  0.7459 -1.9507 -1.3086
  125SOPE   HN313312   6.770   4.724   2.076  2.0192  1.5844  1.5674
  125SOPE   C1213313   6.715   4.868   2.208 -0.3239 -0.5903 -0.1431
  125SOPE  H12A13314   6.816   4.864   2.254 -0.1541 -1.2028 -0.5541
  125SOPE  H12B13315   6.636   4.885   2.285  1.9258 -0.8578  2.3560
  125SOPE   C1113316   6.721   4.971   2.098 -0.1987 -0.0625 -0.0419
  125SOPE  H11A13317   6.808   4.944   2.035 -0.6226 -1.2135 -0.1530
  125SOPE  H11B13318   6.747   5.068   2.147  2.0404 -0.3943 -0.4682
  125SOPE     P13319   6.579   5.111   1.937 -0.3557  0.4223 -0.3505
  125SOPE   O1313320   6.459   5.101   1.853  1.0880 -0.1811  0.2059
  125SOPE   O1413321   6.696   5.180   1.879 -0.2506  0.6230 -0.1272
  125SOPE   O1213322   6.608   4.978   2.011  0.0182  0.2607 -0.5514
  125SOPE   O1113323   6.550   5.213   2.050  0.1690  0.0538 -0.3746
  125SOPE    C113324   6.465   5.178   2.161 -0.3499 -0.4093  0.1377
  125SOPE    HA13325   6.450   5.069   2.173 -0.1313 -0.2465  2.1182
  125SOPE    HB13326   6.367   5.225   2.140  0.4648  0.9418 -0.8810
  125SOPE    C213327   6.507   5.249   2.290  0.1168  0.1312 -0.1256
  125SOPE    HS13328   6.523   5.354   2.258  2.4305  0.0400  0.5702
  125SOPE   O2113329   6.632   5.191   2.346  0.1416 -0.2004  0.1700
  125SOPE   C2113330   6.728   5.276   2.391  0.0505  0.0090 -0.0883
  125SOPE   O2213331   6.710   5.395   2.405 -0.6854 -0.4139 -0.4286
  125SOPE   C2213332   6.854   5.201   2.429 -0.5052  0.3739 -0.3178
  125SOPE   H2R13333   6.928   5.200   2.345  0.5355  2.0873  0.5243
  125SOPE   H2S13334   6.825   5.094   2.434 -1.7464  0.5627 -2.2882
  125SOPE    C313335   6.401   5.244   2.400 -0.0089 -0.4546  0.3834
  125SOPE    HX13336   6.376   5.140   2.430 -2.4943 -0.0063  0.0521
  125SOPE    HY13337   6.301   5.287   2.379  0.6166  0.0960 -1.6640
  125SOPE   O3113338   6.455   5.298   2.523 -0.6333 -0.2168  0.0773
  125SOPE   C3113339   6.448   5.424   2.549  0.1734  0.5113  0.7579
  125SOPE   O3213340   6.398   5.510   2.473 -0.4862 -0.5392  0.0407
  125SOPE   C3213341   6.523   5.460   2.678 -0.7916  1.0191  0.0428
  125SOPE   H2X13342   6.521   5.570   2.697  2.7011  1.1321  0.5296
  125SOPE   H2Y13343   6.630   5.429   2.668 -1.0024  0.3969 -0.3545
  125SOPE   C2313344   6.938   5.255   2.551 -0.2106  0.4745 -0.9227
  125SOPE   H3R13345   6.952   5.365   2.557 -1.0603  0.5420  0.2502
  125SOPE   H3S13346   7.041   5.219   2.532 -0.1331  0.0243  0.2701
  125SOPE   C2413347   6.899   5.204   2.688  0.0306 -0.4006 -0.0927
  125SOPE   H4R13348   6.790   5.223   2.700  0.1630  0.8543 -0.7357
  125SOPE   H4S13349   6.904   5.093   2.684  1.7609 -0.3903  0.7117
  125SOPE   C2513350   7.002   5.233   2.802  0.1267  0.0882 -0.2924
  125SOPE   H5R13351   7.106   5.203   2.777 -0.4090 -2.2675  0.0900
  125SOPE   H5S13352   7.012   5.342   2.820  0.4533  0.3709 -1.9806
  125SOPE   C2613353   6.966   5.168   2.940  0.0249  0.2061 -0.2617
  125SOPE   H6R13354   6.871   5.208   2.982 -0.3739 -0.8052 -0.1652
  125SOPE   H6S13355   6.948   5.059   2.922 -0.3950  0.5566 -2.1512
  125SOPE   C2713356   7.079   5.203   3.031  0.8476 -0.6573 -0.4349
  125SOPE   H7R13357   7.172   5.187   2.973  1.1887 -1.8037  0.3827
  125SOPE   H7S13358   7.069   5.308   3.065 -0.2795 -0.4618 -1.3128
  125SOPE   C2813359   7.090   5.124   3.160 -0.3158  0.0554 -0.3878
  125SOPE   H8R13360   6.986   5.135   3.199 -0.6660 -2.1719 -0.5752
  125SOPE   H8S13361   7.111   5.019   3.131  1.7988  0.3976 -0.2151
  125SOPE   C2913362   7.191   5.169   3.271  0.1205  0.3595  0.5309
  125SOPE   H9113363   7.285   5.210   3.231 -0.8651  2.0288 -0.2062
  125SOPE  C21013364   7.164   5.180   3.399 -0.4048 -0.0724 -0.1837
  125SOPE  H10113365   7.249   5.202   3.465  0.2710 -1.2731 -0.6232
  125SOPE  C21113366   7.041   5.145   3.474  0.1317 -1.1475 -0.4826
  125SOPE  H11R13367   6.950   5.166   3.414 -0.2875  2.1759  1.0938
  125SOPE  H11S13368   7.022   5.206   3.564 -2.6393  1.2479 -2.4952
  125SOPE  C21213369   7.046   4.996   3.503  0.0389 -0.2462 -0.3184
  125SOPE  H12R13370   7.136   4.976   3.565 -0.3591 -0.6342  0.1436
  125SOPE  H12S13371   7.048   4.931   3.413 -0.0004  1.7049 -1.7975
  125SOPE  C21313372   6.924   4.968   3.584 -0.4811  0.3974  0.1466
  125SOPE  H13R13373   6.833   4.996   3.525 -0.0382 -1.4862 -1.5359
  125SOPE  H13S13374   6.932   5.035   3.672 -4.1813  3.1022 -1.2852
  125SOPE  C21413375   6.917   4.823   3.621 -0.1523  0.3074 -0.0219
  125SOPE  H14R13376   7.007   4.802   3.683  0.2124  0.1610 -0.5947
  125SOPE  H14S13377   6.924   4.751   3.537 -1.4784 -2.3402  2.0048
  125SOPE  C21513378   6.785   4.785   3.698  0.1177 -0.1558  0.3791
  125SOPE  H15R13379   6.765   4.676   3.691  1.9424 -0.7487  3.0658
  125SOPE  H15S13380   6.699   4.823   3.639  1.1286  0.0990 -0.9589
  125SOPE  C21613381   6.777   4.831   3.842 -0.1631 -0.6661  0.4507
  125SOPE  H16R13382   6.818   4.934   3.852  1.5368 -1.3393  0.6561
  125SOPE  H16S13383   6.842   4.762   3.900  0.9210  0.6085  0.8195
  125SOPE  C21713384   6.628   4.846   3.887  0.8197 -0.6934 -0.1291
  125SOPE  H17R13385   6.566   4.902   3.814 -0.3255 -0.2450  1.1420
  125SOPE  H17S13386   6.619   4.912   3.976  0.1240 -0.3856 -0.4223
  125SOPE  C21813387   6.571   4.712   3.931  0.5947  0.3874 -0.0283
  125SOPE  H18R13388   6.598   4.641   3.850 -1.6203 -0.2767 -0.2700
  125SOPE  H18S13389   6.461   4.713   3.952  0.8842 -0.7548  1.7601
  125SOPE  H18T13390   6.619   4.681   4.026  0.9137  2.3353  0.4863
  125SOPE   C3313391   6.470   5.391   2.802 -0.2943  0.4361 -0.8789
  125SOPE   H3X13392   6.510   5.451   2.886 -0.6704  0.9721 -1.0814
  125SOPE   H3Y13393   6.517   5.292   2.820  0.6635  1.2304  1.4019
  125SOPE   C3413394   6.319   5.395   2.832 -0.0117  0.2083 -0.1625
  125SOPE   H4X13395   6.270   5.337   2.751 -0.2131  0.3889 -0.1732
  125SOPE   H4Y13396   6.282   5.498   2.814 -2.4508 -0.2219  1.7388
  125SOPE   C3513397   6.267   5.362   2.976 -0.0741 -0.3546  0.0332
  125SOPE   H5X13398   6.157   5.370   2.970 -0.0926  0.0835  0.8763
  125SOPE   H5Y13399   6.303   5.434   3.052  1.6261  1.0829 -1.9923
  125SOPE   C3613400   6.308   5.220   3.025  0.3140  0.6242 -0.2754
  125SOPE   H6X13401   6.418   5.209   3.031  0.4084  0.5981 -1.7366
  125SOPE   H6Y13402   6.287   5.148   2.944 -0.5312  1.3716 -0.7461
  125SOPE   C3713403   6.224   5.153   3.142 -0.3384  0.0187  0.0949
  125SOPE   H7X13404   6.250   5.045   3.143 -2.7916 -0.6257  0.4392
  125SOPE   H7Y13405   6.115   5.157   3.124 -0.1737  0.4461 -0.9453
  125SOPE   C3813406   6.255   5.202   3.281  0.0593 -0.8404 -0.7876
  125SOPE   H8X13407   6.200   5.298   3.289 -0.1165 -1.0112  0.1222
  125SOPE   H8Y13408   6.363   5.216   3.304 -0.4131  0.5219  0.7556
  125SOPE   C3913409   6.184   5.105   3.382 -0.1086 -0.0960 -0.0898
  125SOPE   H9X13410   6.243   5.012   3.378 -1.4533 -0.9236 -2.8704
  125SOPE   H9Y13411   6.082   5.074   3.352  1.1307 -3.1842 -1.4260
  125SOPE  C31013412   6.194   5.152   3.528 -0.7222 -0.3868  0.5670
  125SOPE  H10X13413   6.105   5.120   3.585  1.5295 -2.8058  3.0378
  125SOPE  H10Y13414   6.183   5.262   3.517 -0.0646 -0.3323  0.4002
  125SOPE  C31113415   6.323   5.128   3.600 -0.5355  0.3237 -0.3476
  125SOPE  H11X13416   6.413   5.176   3.555  0.9409  2.2683  4.1091
  125SOPE  H11Y13417   6.347   5.020   3.612  1.6192  0.8771  0.8054
  125SOPE  C31213418   6.310   5.190   3.741 -0.1713  0.9002 -0.0080
  125SOPE  H12X13419   6.210   5.171   3.784 -0.1557  0.9326  0.0428
  125SOPE  H12Y13420   6.314   5.298   3.714 -2.9129  1.1964  0.5430
  125SOPE  C31313421   6.414   5.137   3.841  0.0274  0.9718 -0.8539
  125SOPE  H13X13422   6.516   5.140   3.796 -0.0684  0.7809 -1.0808
  125SOPE  H13Y13423   6.392   5.029   3.860 -2.2293  1.2543 -1.5823
  125SOPE  C31413424   6.386   5.208   3.980 -0.4364  0.2803 -0.3765
  125SOPE  H14X13425   6.278   5.192   3.997 -0.5460  0.0429 -1.2706
  125SOPE  H14Y13426   6.415   5.313   3.957 -1.0236  0.5144 -0.0582
  125SOPE  C31513427   6.473   5.147   4.093  0.3752 -0.1677 -0.0731
  125SOPE  H15X13428   6.580   5.159   4.069 -0.2271  2.2756 -1.9218
  125SOPE  H15Y13429   6.446   5.041   4.114  0.0254 -0.1128 -0.2387
  125SOPE  C31613430   6.451   5.227   4.227 -0.2044  0.2514  0.4166
  125SOPE  H16X13431   6.508   5.175   4.307 -2.0991 -0.0297  1.6390
  125SOPE  H16Y13432   6.343   5.215   4.250  0.2441 -1.0207  2.0800
  125SOPE  C31713433   6.487   5.378   4.210  0.6914  0.2933  0.1214
  125SOPE  H17X13434   6.428   5.429   4.131 -0.1625 -0.0155  0.5561
  125SOPE  H17Y13435   6.594   5.380   4.179  0.7049 -0.2924  0.1203
  125SOPE  C31813436   6.471   5.456   4.339 -0.0185  0.2251  0.7045
  125SOPE  H18X13437   6.375   5.441   4.393  1.2309 -3.4146  2.2345
  125SOPE  H18Y13438   6.491   5.563   4.317 -0.7174  0.0388 -1.0025
  125SOPE  H18Z13439   6.549   5.426   4.412  2.8018  0.7732 -1.8922
  126SOPE     N13440   2.782   0.954   2.177 -0.0718  0.0259 -0.3477
  126SOPE   HN113441   2.725   0.904   2.248 -0.1705  1.6300  0.7525
  126SOPE   HN213442   2.826   0.879   2.120 -1.6695 -1.4811  0.3409
  126SOPE   HN313443   2.838   1.027   2.225 -0.0317  0.5441 -1.1613
  126SOPE   C1213444   2.674   1.034   2.104 -0.9165 -0.1595 -0.2443
  126SOPE  H12A13445   2.725   1.085   2.020  0.1596 -2.4357 -1.0539
  126SOPE  H12B13446   2.636   1.114   2.170  0.1856  0.3523 -0.2043
  126SOPE   C1113447   2.556   0.946   2.071  0.3251 -0.2216 -0.8144
  126SOPE  H11A13448   2.587   0.851   2.023 -1.8258 -2.1115  1.2846
  126SOPE  H11B13449   2.490   1.004   2.003 -0.9231  1.2383  1.4592
  126SOPE     P13450   2.330   0.906   2.203  0.1877 -0.1775  0.6027
  126SOPE   O1313451   2.288   0.801   2.298 -0.2333  0.1243  0.2874
  126SOPE   O1413452   2.256   0.906   2.071  0.2076  0.4846  0.4881
  126SOPE   O1213453   2.483   0.921   2.191  0.2323  0.5300  0.1383
  126SOPE   O1113454   2.293   1.046   2.269 -0.1817 -0.6755 -0.3315
  126SOPE    C113455   2.381   1.141   2.337  0.0585 -0.0835 -0.5962
  126SOPE    HA13456   2.334   1.234   2.376  0.7219  1.5643 -3.4606
  126SOPE    HB13457   2.464   1.165   2.267 -0.1095  0.4702 -0.6042
  126SOPE    C213458   2.449   1.073   2.461 -0.4127  0.0974 -0.2013
  126SOPE    HS13459   2.485   0.970   2.440  0.0509  0.0442  0.8054
  126SOPE   O2113460   2.363   1.075   2.570  0.4055 -0.3039 -0.1347
  126SOPE   C2113461   2.373   0.969   2.649 -0.2534  0.4291  0.1127
  126SOPE   O2213462   2.444   0.873   2.637  0.5299  0.4536  0.6773
  126SOPE   C2213463   2.289   0.982   2.771 -0.4402  0.4977 -0.2111
  126SOPE   H2R13464   2.210   0.904   2.762  0.6150 -0.3412 -3.2984
  126SOPE   H2S13465   2.249   1.085   2.769 -1.0750  0.2871 -3.3693
  126SOPE    C313466   2.578   1.152   2.496 -0.2914 -0.1997  0.3149
  126SOPE    HX13467   2.535   1.248   2.531  0.0611 -0.8089  2.5412
  126SOPE    HY13468   2.640   1.175   2.407  2.3707  0.8275  2.3190
  126SOPE   O3113469   2.656   1.093   2.607 -0.1486 -0.0701  0.3734
  126SOPE   C3113470   2.760   1.010   2.558  0.1678  1.1291 -0.1308
  126SOPE   O3213471   2.751   0.959   2.447  0.5019  0.1757  0.4418
  126SOPE   C3213472   2.865   0.979   2.665 -0.3418  0.2828 -0.2115
  126SOPE   H2X13473   2.951   0.926   2.619  2.5479  3.1260  1.4866
  126SOPE   H2Y13474   2.814   0.919   2.744  1.1901 -0.6928  0.0852
  126SOPE   C2313475   2.368   0.954   2.894  0.7520  0.5661 -1.2617
  126SOPE   H3R13476   2.472   0.995   2.896  0.7802  0.4728 -0.3426
  126SOPE   H3S13477   2.369   0.846   2.920  0.7796  0.5735 -1.2316
  126SOPE   C2413478   2.295   1.019   3.014 -0.2682  0.0530  0.0480
  126SOPE   H4R13479   2.299   1.130   3.014 -3.1946  0.2426 -0.8955
  126SOPE   H4S13480   2.189   0.988   3.005  0.1505 -1.9853  1.2952
  126SOPE   C2513481   2.353   0.975   3.150 -0.4086  0.7770 -0.2368
  126SOPE   H5R13482   2.349   0.864   3.156 -0.1386  0.8123  0.7178
  126SOPE   H5S13483   2.451   1.027   3.155 -0.0349  0.5105 -2.9753
  126SOPE   C2613484   2.268   1.019   3.269 -0.6596 -0.0332 -0.3080
  126SOPE   H6R13485   2.257   1.128   3.255  0.9223 -0.0361 -1.9683
  126SOPE   H6S13486   2.172   0.965   3.254 -0.2267 -0.4011 -2.0013
  126SOPE   C2713487   2.333   0.996   3.407  0.5197  0.2229 -0.1538
  126SOPE   H7R13488   2.393   0.903   3.400 -0.2453 -0.5402  2.5536
  126SOPE   H7S13489   2.410   1.075   3.423 -1.3445  2.3608 -1.2349
  126SOPE   C2813490   2.232   0.999   3.525  0.7451 -0.4709  0.2144
  126SOPE   H8R13491   2.197   1.104   3.535  1.9095 -0.0462  0.0559
  126SOPE   H8S13492   2.143   0.945   3.486 -0.1235  1.1001 -0.0519
  126SOPE   C2913493   2.291   0.942   3.649  0.4329  0.2869  0.9333
  126SOPE   H9113494   2.401   0.933   3.647  0.4214 -0.3505  2.1177
  126SOPE  C21013495   2.232   0.875   3.751 -0.4085  0.3453  0.2049
  126SOPE  H10113496   2.305   0.837   3.823 -0.7778 -1.6301 -0.4085
  126SOPE  C21113497   2.080   0.863   3.777 -0.8615 -0.9054  0.6560
  126SOPE  H11R13498   2.061   0.768   3.832  0.0355 -1.0686  0.6930
  126SOPE  H11S13499   2.033   0.856   3.676  3.1321  2.6409 -1.8194
  126SOPE  C21213500   2.015   0.970   3.864  0.3622  0.3236  0.1240
  126SOPE  H12R13501   2.077   0.983   3.955 -0.5033 -1.4828  1.0257
  126SOPE  H12S13502   1.911   0.934   3.884  0.6899  0.0888  1.5299
  126SOPE  C21313503   1.991   1.103   3.788  0.0004 -0.3166  0.1743
  126SOPE  H13R13504   1.960   1.081   3.683 -1.0438 -0.8411  0.5726
  126SOPE  H13S13505   2.092   1.148   3.785 -0.0505 -0.2325 -0.6223
  126SOPE  C21413506   1.887   1.202   3.849  0.3072  0.6654 -0.6546
  126SOPE  H14R13507   1.789   1.150   3.847 -0.0758  1.3935 -2.1459
  126SOPE  H14S13508   1.879   1.294   3.788  1.4909  1.6887  0.6540
  126SOPE  C21513509   1.925   1.253   3.985 -0.6173 -0.4550  0.5161
  126SOPE  H15R13510   2.030   1.288   3.999 -0.4350 -0.5855 -0.4873
  126SOPE  H15S13511   1.937   1.170   4.059 -1.7109 -1.8842 -0.8466
  126SOPE  C21613512   1.827   1.358   4.028 -0.7014 -0.2035 -0.0150
  126SOPE  H16R13513   1.729   1.308   4.043 -1.3204  1.2943  1.2237
  126SOPE  H16S13514   1.810   1.440   3.955 -1.2069 -0.9412 -0.7319
  126SOPE  C21713515   1.859   1.421   4.161 -0.4577  0.7102 -0.1612
  126SOPE  H17R13516   1.956   1.475   4.163  0.4791 -0.9344  0.3495
  126SOPE  H17S13517   1.859   1.331   4.225 -1.2189  0.4737 -0.4800
  126SOPE  C21813518   1.751   1.509   4.217  0.2331 -0.5317  0.4812
  126SOPE  H18R13519   1.772   1.521   4.325  0.2401 -2.1738  0.6921
  126SOPE  H18S13520   1.656   1.452   4.223  0.9241 -1.6534  1.2253
  126SOPE  H18T13521   1.755   1.607   4.166  3.2378 -1.7361 -1.9243
  126SOPE   C3313522   2.928   1.101   2.738 -0.4240  0.2356  0.6317
  126SOPE   H3X13523   2.890   1.186   2.676  1.0722  0.0611 -0.5865
  126SOPE   H3Y13524   3.036   1.092   2.715 -0.4877 -0.6893  0.6722
  126SOPE   C3413525   2.892   1.129   2.882 -0.1699 -0.0146 -0.2149
  126SOPE   H4X13526   2.943   1.226   2.901  0.8184 -0.1374 -1.9746
  126SOPE   H4Y13527   2.944   1.055   2.946  1.7018  2.8357  1.8361
  126SOPE   C3513528   2.744   1.136   2.909  0.0772 -0.1627  0.6113
  126SOPE   H5X13529   2.706   1.032   2.917  0.4642 -0.5318 -1.5334
  126SOPE   H5Y13530   2.682   1.181   2.828  2.0114  1.0897 -0.2352
  126SOPE   C3613531   2.710   1.210   3.042 -0.0654  0.1139  0.8771
  126SOPE   H6X13532   2.600   1.210   3.051 -0.1800 -1.1954 -0.1680
  126SOPE   H6Y13533   2.750   1.314   3.034  2.1117 -0.7808 -1.4121
  126SOPE   C3713534   2.781   1.162   3.172  0.6062 -0.7737  0.2262
  126SOPE   H7X13535   2.892   1.173   3.171  0.4615  3.1128  3.5319
  126SOPE   H7Y13536   2.759   1.054   3.188  0.2930 -0.9305 -1.1893
  126SOPE   C3813537   2.740   1.250   3.297 -0.2852 -0.4378  0.1117
  126SOPE   H8X13538   2.634   1.224   3.321 -1.1271 -1.4704 -3.9381
  126SOPE   H8Y13539   2.743   1.353   3.255  1.8595 -1.0827 -1.4854
  126SOPE   C3913540   2.833   1.238   3.414  0.1422  0.0306 -0.0755
  126SOPE   H9X13541   2.936   1.262   3.381  0.4776 -0.1231  0.8222
  126SOPE   H9Y13542   2.838   1.129   3.435  0.1749 -0.5637 -2.8236
  126SOPE  C31013543   2.786   1.311   3.541  0.5915  0.2602 -0.3262
  126SOPE  H10X13544   2.682   1.282   3.570  0.5730  1.5052  0.9454
  126SOPE  H10Y13545   2.783   1.420   3.518 -1.4115 -0.1268 -2.3415
  126SOPE  C31113546   2.871   1.292   3.664  0.0373  0.1516 -0.3060
  126SOPE  H11X13547   2.972   1.338   3.652 -0.7290  2.0353  0.1064
  126SOPE  H11Y13548   2.896   1.185   3.682 -0.2621 -0.5051 -3.3186
  126SOPE  C31213549   2.813   1.361   3.780  0.2699 -0.3301 -0.4683
  126SOPE  H12X13550   2.720   1.313   3.817  0.3647  1.0918  1.7670
  126SOPE  H12Y13551   2.785   1.464   3.749 -0.5435 -0.1492  0.8003
  126SOPE  C31313552   2.917   1.383   3.900 -0.1689  0.5494  0.8513
  126SOPE  H13X13553   2.995   1.443   3.850  0.5950 -3.2154 -3.1075
  126SOPE  H13Y13554   2.970   1.289   3.928 -1.0591  0.0818  1.0277
  126SOPE  C31413555   2.846   1.443   4.024  0.1251  0.5688 -0.2178
  126SOPE  H14X13556   2.751   1.390   4.046  0.0951  0.7780  0.1765
  126SOPE  H14Y13557   2.820   1.550   4.012 -4.0394 -0.0812  1.3930
  126SOPE  C31513558   2.930   1.429   4.145  0.2113 -0.4111  0.1474
  126SOPE  H15X13559   3.019   1.487   4.113 -1.0236  0.2301 -2.3605
  126SOPE  H15Y13560   2.949   1.322   4.168  0.2189 -0.1255  1.5501
  126SOPE  C31613561   2.879   1.507   4.270 -0.4153 -0.7718  1.1084
  126SOPE  H16X13562   2.774   1.474   4.288 -1.4821  1.9356  0.4214
  126SOPE  H16Y13563   2.874   1.611   4.233  0.3164 -1.2617 -0.4299
  126SOPE  C31713564   2.967   1.497   4.397 -0.5883  0.6957  0.3513
  126SOPE  H17X13565   3.054   1.566   4.392  0.6080 -0.8209 -1.1413
  126SOPE  H17Y13566   3.010   1.396   4.378  0.0924  0.5345  2.4636
  126SOPE  C31813567   2.895   1.513   4.529  0.6467  0.2780 -0.5277
  126SOPE  H18X13568   2.805   1.448   4.535  1.4961 -0.8577  0.4933
  126SOPE  H18Y13569   2.866   1.618   4.549  1.0446  0.3839 -0.4918
  126SOPE  H18Z13570   2.971   1.493   4.607 -1.6434 -0.8067  1.5836
  127SOPE     N13571   1.318   2.941   2.235  0.9184 -0.6221  0.0133
  127SOPE   HN113572   1.313   3.038   2.196 -0.5651 -0.9868 -0.7704
  127SOPE   HN213573   1.389   2.952   2.311  0.1777 -1.3920  0.8412
  127SOPE   HN313574   1.342   2.871   2.162 -0.2755 -1.0635  0.0283
  127SOPE   C1213575   1.174   2.910   2.287 -0.1963  0.3498  0.5373
  127SOPE  H12A13576   1.096   2.949   2.217 -1.1505 -2.4052 -0.0732
  127SOPE  H12B13577   1.151   2.966   2.380 -0.5082  1.1607 -0.0104
  127SOPE   C1113578   1.162   2.765   2.308 -0.5049 -0.4455  0.0826
  127SOPE  H11A13579   1.085   2.750   2.387 -1.8260  1.1339 -0.8431
  127SOPE  H11B13580   1.252   2.715   2.351  1.1459 -0.1407 -2.7536
  127SOPE     P13581   0.976   2.683   2.149  0.2426  0.0598 -0.0936
  127SOPE   O1313582   0.968   2.613   2.020 -0.4836  0.1645 -0.5938
  127SOPE   O1413583   0.897   2.807   2.161 -0.2154  0.0994  0.0129
  127SOPE   O1213584   1.130   2.703   2.182 -0.0968  0.0464  0.3421
  127SOPE   O1113585   0.925   2.588   2.261 -0.7438 -0.4263 -0.1467
  127SOPE    C113586   0.988   2.464   2.288  0.2527  0.5156 -0.1002
  127SOPE    HA13587   1.082   2.441   2.231 -0.3112 -0.3795 -0.7026
  127SOPE    HB13588   0.924   2.380   2.255  1.0340  0.1055 -0.6215
  127SOPE    C213589   1.020   2.441   2.433 -0.0857 -0.2858 -0.2959
  127SOPE    HS13590   0.926   2.477   2.482 -1.4005 -1.6754 -1.6875
  127SOPE   O2113591   1.133   2.519   2.484  0.2506  0.7002  0.5794
  127SOPE   C2113592   1.125   2.555   2.607  0.2994 -0.7009 -0.6648
  127SOPE   O2213593   1.017   2.562   2.669 -0.2788  0.3632 -0.4688
  127SOPE   C2213594   1.266   2.584   2.666  0.6807 -0.2995 -1.2418
  127SOPE   H2R13595   1.329   2.632   2.588  0.3488  0.8052 -0.8368
  127SOPE   H2S13596   1.311   2.485   2.689  0.2879 -0.3910 -0.8521
  127SOPE    C313597   1.030   2.281   2.464 -0.7398 -0.0197  0.0034
  127SOPE    HX13598   1.118   2.261   2.399 -1.6986 -3.2845 -0.4537
  127SOPE    HY13599   0.939   2.238   2.416 -0.2427 -0.4343 -0.5738
  127SOPE   O3113600   1.051   2.251   2.606  0.1509  0.0151  0.0735
  127SOPE   C3113601   0.932   2.233   2.672  0.0299  0.1695 -0.4700
  127SOPE   O3213602   0.824   2.233   2.621  0.5153 -0.1202  0.0709
  127SOPE   C3213603   0.960   2.216   2.824  0.0551 -0.4064 -0.3892
  127SOPE   H2X13604   0.968   2.320   2.862 -0.5746 -1.1724  2.0190
  127SOPE   H2Y13605   1.054   2.160   2.841  0.3299  0.5760  1.6282
  127SOPE   C2313606   1.247   2.673   2.790 -0.3850 -0.1886 -0.1952
  127SOPE   H3R13607   1.342   2.665   2.848 -1.7226 -1.1731  2.0126
  127SOPE   H3S13608   1.170   2.646   2.865 -0.1925  0.0967  0.1113
  127SOPE   C2413609   1.222   2.818   2.772  0.5051  0.2967  0.8808
  127SOPE   H4R13610   1.311   2.860   2.720  0.6871 -2.4976 -1.3005
  127SOPE   H4S13611   1.134   2.817   2.705  1.0605  0.9404  0.1233
  127SOPE   C2513612   1.196   2.885   2.908 -0.0334 -0.7083 -0.5950
  127SOPE   H5R13613   1.124   2.821   2.962 -1.9822  0.1164 -2.0851
  127SOPE   H5S13614   1.296   2.865   2.952  1.3739 -0.1631 -3.2807
  127SOPE   C2613615   1.142   3.029   2.916 -0.7747 -0.0831 -0.1647
  127SOPE   H6R13616   1.217   3.101   2.875 -0.0360 -0.6693  0.1204
  127SOPE   H6S13617   1.054   3.047   2.852 -0.3478 -2.7802 -1.6346
  127SOPE   C2713618   1.120   3.072   3.055 -1.1597  0.0044 -0.5590
  127SOPE   H7R13619   1.073   3.172   3.065  1.6263  1.2736  0.9589
  127SOPE   H7S13620   1.067   2.995   3.116 -1.1005  1.0930  0.9360
  127SOPE   C2813621   1.261   3.094   3.128 -0.0243  0.3266 -0.2296
  127SOPE   H8R13622   1.317   2.997   3.124 -1.8753 -0.7948 -0.1893
  127SOPE   H8S13623   1.318   3.168   3.067 -1.8689 -0.7078 -3.4652
  127SOPE   C2913624   1.248   3.156   3.265 -0.6818  0.1581  0.0319
  127SOPE   H9113625   1.251   3.266   3.258 -2.7934  0.3438  1.1681
  127SOPE  C21013626   1.228   3.110   3.389 -0.1274 -0.7215  0.1622
  127SOPE  H10113627   1.224   3.178   3.475  1.6149 -0.0369 -0.2361
  127SOPE  C21113628   1.204   2.967   3.415  0.6729  0.0717 -0.3923
  127SOPE  H11R13629   1.187   2.914   3.319  4.5054 -0.7772 -0.7564
  127SOPE  H11S13630   1.113   2.944   3.474  1.1186 -2.5120 -0.6105
  127SOPE  C21213631   1.324   2.899   3.477  0.0210 -0.2738 -0.4021
  127SOPE  H12R13632   1.398   2.864   3.402 -2.6318 -1.8944 -2.4620
  127SOPE  H12S13633   1.280   2.805   3.515 -0.3296 -0.4191 -1.1473
  127SOPE  C21313634   1.395   2.977   3.594 -0.7009  0.8089  0.6303
  127SOPE  H13R13635   1.318   2.996   3.673 -3.7494 -1.7039 -1.4723
  127SOPE  H13S13636   1.441   3.072   3.560 -1.4124  0.2780 -2.0163
  127SOPE  C21413637   1.512   2.905   3.666  0.9647  0.0143 -0.1129
  127SOPE  H14R13638   1.610   2.891   3.617  2.6322 -1.2720  3.2325
  127SOPE  H14S13639   1.468   2.804   3.675  1.7477 -0.2585  0.7122
  127SOPE  C21513640   1.537   2.964   3.800 -0.1515  0.3180  0.5342
  127SOPE  H15R13641   1.447   2.961   3.864  0.8973 -1.4964  2.0052
  127SOPE  H15S13642   1.557   3.073   3.790 -1.8499  0.7677  1.5592
  127SOPE  C21613643   1.669   2.904   3.867  0.2990 -0.4803  0.5423
  127SOPE  H16R13644   1.747   2.911   3.788  0.5671 -1.0351  0.7520
  127SOPE  H16S13645   1.650   2.798   3.895  1.1936 -1.7749 -3.2309
  127SOPE  C21713646   1.727   2.976   3.989  0.6774 -0.8526  0.3492
  127SOPE  H17R13647   1.817   2.924   4.028  3.5157  2.2934 -1.4481
  127SOPE  H17S13648   1.660   2.988   4.076 -0.7245  1.2036 -0.9322
  127SOPE  C21813649   1.784   3.117   3.956  0.3643 -0.1995 -0.0754
  127SOPE  H18R13650   1.873   3.102   3.893  1.1558 -1.2014  1.2323
  127SOPE  H18S13651   1.840   3.151   4.046 -1.7483 -0.1000  1.2971
  127SOPE  H18T13652   1.712   3.186   3.908 -0.8589 -1.6426 -0.4068
  127SOPE   C3313653   0.835   2.156   2.894 -0.8885  0.5336  1.0200
  127SOPE   H3X13654   0.802   2.073   2.828  1.5748 -0.5405  1.0568
  127SOPE   H3Y13655   0.749   2.226   2.901 -1.4013  0.3263 -1.9676
  127SOPE   C3413656   0.868   2.107   3.032  0.1092  0.0795 -1.2686
  127SOPE   H4X13657   0.957   2.041   3.037 -0.5935 -0.7879  1.6225
  127SOPE   H4Y13658   0.777   2.050   3.059  0.5600  0.1168  0.4151
  127SOPE   C3513659   0.878   2.220   3.136 -0.8478 -0.0892 -0.6919
  127SOPE   H5X13660   0.819   2.306   3.098 -1.1920 -0.0100 -0.0041
  127SOPE   H5Y13661   0.984   2.253   3.141 -0.5163 -1.2347  1.2095
  127SOPE   C3613662   0.815   2.180   3.269 -0.1102 -1.0097 -0.3190
  127SOPE   H6X13663   0.728   2.117   3.240  0.6828 -1.4478 -1.8955
  127SOPE   H6Y13664   0.780   2.276   3.313  1.5980 -0.4486 -0.1047
  127SOPE   C3713665   0.897   2.102   3.371  0.1933  0.4046  0.7475
  127SOPE   H7X13666   0.997   2.146   3.391  1.1719 -2.0436  1.5691
  127SOPE   H7Y13667   0.921   1.999   3.336 -3.6770  0.0772 -1.5391
  127SOPE   C3813668   0.827   2.095   3.506  0.2136 -0.4261  0.5728
  127SOPE   H8X13669   0.742   2.024   3.498  0.1488 -0.4061  1.0479
  127SOPE   H8Y13670   0.788   2.198   3.520  3.3857  0.6551  2.3488
  127SOPE   C3913671   0.929   2.064   3.614 -0.3522 -0.3278 -0.1003
  127SOPE   H9X13672   0.996   1.988   3.570 -2.9939 -1.3659 -2.7095
  127SOPE   H9Y13673   0.881   2.019   3.704 -0.0227 -0.4297  0.0232
  127SOPE  C31013674   0.986   2.192   3.669 -0.5578 -0.1695 -0.2382
  127SOPE  H10X13675   0.914   2.274   3.689  0.9217  0.4752  3.2170
  127SOPE  H10Y13676   1.070   2.211   3.600 -0.7227 -2.4002 -1.1391
  127SOPE  C31113677   1.063   2.172   3.796  0.1236 -0.9605 -0.1628
  127SOPE  H11X13678   1.155   2.112   3.778  0.2548 -0.2845 -1.9397
  127SOPE  H11Y13679   0.996   2.127   3.872 -0.6529  0.4898  0.0362
  127SOPE  C31213680   1.117   2.306   3.863  0.5900  0.3838  0.8620
  127SOPE  H12X13681   1.195   2.343   3.792 -0.2813  0.7530  0.0658
  127SOPE  H12Y13682   1.175   2.288   3.956  0.5147 -0.2158  0.7959
  127SOPE  C31313683   1.004   2.413   3.881 -0.2231 -0.6369 -0.7297
  127SOPE  H13X13684   0.920   2.385   3.949  0.8921  0.1275  1.0373
  127SOPE  H13Y13685   0.964   2.454   3.786  2.0241 -0.6582 -1.7451
  127SOPE  C31413686   1.058   2.542   3.944  0.5326  0.7988 -0.1762
  127SOPE  H14X13687   1.077   2.541   4.054  0.8820 -0.1775 -0.2331
  127SOPE  H14Y13688   0.980   2.619   3.923  1.4250  1.3770 -1.4941
  127SOPE  C31513689   1.184   2.598   3.887 -0.0531  0.3832  0.1630
  127SOPE  H15X13690   1.176   2.589   3.776  0.6673 -3.4672  0.2850
  127SOPE  H15Y13691   1.276   2.546   3.921  0.6997  0.4882 -1.5979
  127SOPE  C31613692   1.208   2.741   3.920  0.1773 -0.8113  1.3116
  127SOPE  H16X13693   1.308   2.779   3.889  0.4042 -0.2766  2.6421
  127SOPE  H16Y13694   1.204   2.772   4.026  1.9346  4.5520  0.1445
  127SOPE  C31713695   1.102   2.827   3.835 -1.1090  0.6733 -0.2331
  127SOPE  H17X13696   1.000   2.784   3.844  0.6117 -3.7509  0.9638
  127SOPE  H17Y13697   1.130   2.814   3.729  0.9852  0.0677  0.3534
  127SOPE  C31813698   1.097   2.973   3.881 -0.5652 -0.3762 -0.3783
  127SOPE  H18X13699   1.198   3.018   3.875 -0.1440 -1.5172 -3.2264
  127SOPE  H18Y13700   1.077   2.973   3.991  3.5218 -0.9540  0.5267
  127SOPE  H18Z13701   1.028   3.034   3.819 -1.1106 -0.8170 -0.2186
  128SOPE     N13702   5.914   0.509   2.038  0.3669 -0.6888  0.0404
  128SOPE   HN113703   5.915   0.495   1.935 -0.7523  0.0494 -0.0977
  128SOPE   HN213704   5.867   0.428   2.084 -1.0234  0.1486  0.1687
  128SOPE   HN313705   5.861   0.597   2.054 -1.4777 -2.1709  3.1018
  128SOPE   C1213706   6.055   0.528   2.080  0.8598  0.3377 -0.5912
  128SOPE  H12A13707   6.115   0.456   2.021  1.4986 -1.4124  2.0267
  128SOPE  H12B13708   6.058   0.510   2.190 -0.7370 -1.8923 -0.8422
  128SOPE   C1113709   6.107   0.669   2.049 -1.3412 -0.8512  0.6238
  128SOPE  H11A13710   6.049   0.757   2.086 -0.7920  0.3247 -1.1434
  128SOPE  H11B13711   6.127   0.686   1.941  1.7622  0.6248  1.3150
  128SOPE     P13712   6.367   0.705   2.052  0.2876 -0.1753 -0.1705
  128SOPE   O1313713   6.402   0.843   2.080  0.0272 -0.2409 -0.0773
  128SOPE   O1413714   6.351   0.670   1.905  0.2371  0.0515 -0.2024
  128SOPE   O1213715   6.229   0.680   2.120 -0.5079 -0.4855 -0.6428
  128SOPE   O1113716   6.458   0.592   2.125  0.4179  0.6101  0.2780
  128SOPE    C113717   6.407   0.463   2.152  0.4670 -0.0891 -0.0516
  128SOPE    HA13718   6.497   0.400   2.135  0.0727 -0.4694 -0.7922
  128SOPE    HB13719   6.327   0.431   2.081  0.5898 -0.8708  0.1502
  128SOPE    C213720   6.352   0.448   2.299  0.2459 -0.5241 -0.6983
  128SOPE    HS13721   6.259   0.508   2.307 -0.6830 -1.6616 -2.1881
  128SOPE   O2113722   6.464   0.467   2.392 -0.0357 -0.1180 -0.3478
  128SOPE   C2113723   6.428   0.543   2.493 -0.4022 -0.3266 -0.7799
  128SOPE   O2213724   6.318   0.579   2.529 -0.0555  0.2279  0.1366
  128SOPE   C2213725   6.556   0.565   2.570  0.2589  0.1536 -0.3929
  128SOPE   H2R13726   6.642   0.586   2.503  0.0600  2.0082 -0.1153
  128SOPE   H2S13727   6.576   0.466   2.616 -0.0298  0.4650  0.4420
  128SOPE    C313728   6.297   0.303   2.335 -0.1552  0.0852  0.1789
  128SOPE    HX13729   6.386   0.239   2.315 -0.3550  0.1041 -0.8208
  128SOPE    HY13730   6.211   0.283   2.268 -0.4112 -0.1031  0.5583
  128SOPE   O3113731   6.265   0.287   2.473 -0.2717  0.0285 -0.0410
  128SOPE   C3113732   6.151   0.329   2.508  0.2775 -0.4792 -0.2694
  128SOPE   O3213733   6.072   0.390   2.439 -0.2284 -0.5432 -0.3337
  128SOPE   C3213734   6.142   0.298   2.659  0.6888 -1.0413  0.0125
  128SOPE   H2X13735   6.185   0.386   2.711  0.1284 -1.1405  0.6487
  128SOPE   H2Y13736   6.204   0.207   2.676  2.0326  0.1058  1.6505
  128SOPE   C2313737   6.542   0.683   2.670 -0.1397  0.4300 -1.0236
  128SOPE   H3R13738   6.480   0.660   2.759  0.8730  0.3860 -0.3079
  128SOPE   H3S13739   6.494   0.767   2.616 -2.3094 -0.4075 -0.4752
  128SOPE   C2413740   6.681   0.740   2.713 -0.1811  0.9220 -0.3730
  128SOPE   H4R13741   6.734   0.770   2.620  0.7618 -0.5265 -0.3373
  128SOPE   H4S13742   6.657   0.832   2.769  0.7734  2.0117 -1.6760
  128SOPE   C2513743   6.769   0.644   2.801 -0.1453 -0.4294  0.1971
  128SOPE   H5R13744   6.752   0.538   2.772 -0.4712 -0.5497  0.8145
  128SOPE   H5S13745   6.878   0.663   2.791 -0.0702 -1.5679 -1.9176
  128SOPE   C2613746   6.734   0.654   2.949  0.2019 -0.5845  0.8879
  128SOPE   H6R13747   6.727   0.761   2.980 -1.9993 -0.7846  1.2918
  128SOPE   H6S13748   6.631   0.613   2.960  0.5035 -1.4935  0.4188
  128SOPE   C2713749   6.827   0.565   3.031  0.3071  0.0844 -1.0628
  128SOPE   H7R13750   6.818   0.467   2.980 -0.5013  0.2890 -1.3224
  128SOPE   H7S13751   6.934   0.596   3.029  0.8413 -1.1117  2.2628
  128SOPE   C2813752   6.804   0.577   3.189 -0.7583  0.3862  0.5274
  128SOPE   H8R13753   6.859   0.490   3.232 -3.7244 -1.1356  1.5254
  128SOPE   H8S13754   6.845   0.672   3.229 -1.2942  1.3723 -1.1881
  128SOPE   C2913755   6.661   0.583   3.231 -0.8474  0.1616 -0.3838
  128SOPE   H9113756   6.610   0.680   3.231 -2.5396 -0.6656  0.5182
  128SOPE  C21013757   6.586   0.478   3.280 -0.0690  0.3409  0.0086
  128SOPE  H10113758   6.486   0.491   3.323 -0.7294 -1.0313 -1.0252
  128SOPE  C21113759   6.641   0.338   3.303 -0.3013  0.2931  1.2589
  128SOPE  H11R13760   6.743   0.321   3.261 -0.1163 -0.8123  2.0843
  128SOPE  H11S13761   6.584   0.259   3.249  0.9688 -0.4206  0.9082
  128SOPE  C21213762   6.638   0.301   3.451 -0.4493  1.0819  0.2126
  128SOPE  H12R13763   6.687   0.385   3.503 -1.4630  1.4784  0.5379
  128SOPE  H12S13764   6.710   0.216   3.457 -2.4100 -1.0226 -2.8406
  128SOPE  C21313765   6.494   0.275   3.506 -0.0593  0.1980 -0.5930
  128SOPE  H13R13766   6.461   0.177   3.468 -0.9878  0.9261 -1.7357
  128SOPE  H13S13767   6.422   0.344   3.456 -0.7853  1.5313  2.1191
  128SOPE  C21413768   6.486   0.287   3.657  0.1145 -0.6327  0.4313
  128SOPE  H14R13769   6.548   0.207   3.704  1.9105  1.5428  1.9835
  128SOPE  H14S13770   6.377   0.268   3.666  0.1987 -2.6247 -1.7318
  128SOPE  C21513771   6.551   0.411   3.724  0.2626  0.0765  0.0914
  128SOPE  H15R13772   6.525   0.493   3.654 -2.0215  0.2997  1.1324
  128SOPE  H15S13773   6.661   0.399   3.709  0.2395  1.3324 -1.2816
  128SOPE  C21613774   6.509   0.448   3.868  0.3213  0.4214 -0.1751
  128SOPE  H16R13775   6.498   0.358   3.932 -0.9847 -0.7855 -2.0074
  128SOPE  H16S13776   6.407   0.493   3.860 -0.7698 -0.9382  3.7133
  128SOPE  C21713777   6.604   0.551   3.928  1.0860 -0.7841  0.1285
  128SOPE  H17R13778   6.572   0.583   4.030 -3.2702  1.5136 -1.6700
  128SOPE  H17S13779   6.600   0.638   3.859 -0.4153 -0.5687  0.4307
  128SOPE  C21813780   6.748   0.500   3.940  0.1423 -0.0778 -0.6354
  128SOPE  H18R13781   6.792   0.570   4.014  0.4405 -0.7435 -0.1757
  128SOPE  H18S13782   6.806   0.501   3.845 -2.7387  0.0442 -2.5317
  128SOPE  H18T13783   6.746   0.401   3.988 -1.3780  0.3361  0.2492
  128SOPE   C3313784   6.002   0.277   2.709  1.1844 -0.4687 -0.4513
  128SOPE   H3X13785   5.943   0.194   2.665  0.0477 -0.0231  0.1874
  128SOPE   H3Y13786   5.940   0.367   2.694  0.9315 -0.5591  0.0026
  128SOPE   C3413787   5.991   0.255   2.860  0.5931  0.4573  0.6046
  128SOPE   H4X13788   6.065   0.320   2.912  1.2354  0.9413 -0.8523
  128SOPE   H4Y13789   6.022   0.150   2.876  0.6495  0.4399  0.3916
  128SOPE   C3513790   5.852   0.286   2.919  0.7607  0.3281  0.3327
  128SOPE   H5X13791   5.781   0.216   2.870  2.0376  0.3621 -1.6959
  128SOPE   H5Y13792   5.819   0.389   2.896  0.8018  0.3719  0.4739
  128SOPE   C3613793   5.835   0.267   3.070 -0.1027  0.0714 -0.4792
  128SOPE   H6X13794   5.910   0.333   3.118  1.0875 -1.3503 -0.3203
  128SOPE   H6Y13795   5.856   0.162   3.099  0.7718  0.8849  2.0795
  128SOPE   C3713796   5.684   0.294   3.121  0.2824  0.1478  0.3040
  128SOPE   H7X13797   5.636   0.194   3.134  0.0428  0.3229  0.8367
  128SOPE   H7Y13798   5.619   0.346   3.048 -1.6431  1.8354  3.0204
  128SOPE   C3813799   5.675   0.371   3.252  0.4930 -0.3637  0.1662
  128SOPE   H8X13800   5.571   0.406   3.265  0.0923 -1.6843  0.7534
  128SOPE   H8Y13801   5.747   0.456   3.256  2.9342 -2.2177 -1.4550
  128SOPE   C3913802   5.703   0.279   3.372  0.1235  0.0944 -0.8346
  128SOPE   H9X13803   5.811   0.256   3.375 -0.5207 -3.3544 -0.3930
  128SOPE   H9Y13804   5.652   0.182   3.356  2.6696 -1.5066  0.1584
  128SOPE  C31013805   5.652   0.349   3.498  0.3172 -0.1861 -0.2878
  128SOPE  H10X13806   5.543   0.363   3.484  0.5816 -0.1976 -2.7132
  128SOPE  H10Y13807   5.701   0.447   3.518 -0.7214  0.4536 -0.7894
  128SOPE  C31113808   5.667   0.251   3.612 -0.5441 -0.5128 -0.5334
  128SOPE  H11X13809   5.776   0.243   3.633 -0.6573  0.1330  0.3669
  128SOPE  H11Y13810   5.637   0.145   3.597 -0.4505 -0.3477 -2.0475
  128SOPE  C31213811   5.601   0.304   3.740  1.2779  0.6365  0.5102
  128SOPE  H12X13812   5.493   0.306   3.715  0.9819  0.1623  1.6611
  128SOPE  H12Y13813   5.629   0.407   3.771  1.4220  0.5776  0.5776
  128SOPE  C31313814   5.622   0.205   3.855  0.3619  0.0294 -0.4067
  128SOPE  H13X13815   5.729   0.221   3.880  0.9364  0.3716 -2.7915
  128SOPE  H13Y13816   5.595   0.108   3.809 -0.6765  0.6808 -1.2296
  128SOPE  C31413817   5.531   0.232   3.979  0.2780  0.3902 -0.3993
  128SOPE  H14X13818   5.429   0.219   3.938  0.0591 -2.6058  0.8267
  128SOPE  H14Y13819   5.534   0.340   4.004 -1.5692  0.8409 -1.8747
  128SOPE  C31513820   5.534   0.137   4.102  0.1533 -0.1858  0.0489
  128SOPE  H15X13821   5.642   0.134   4.130  0.3223  1.7613 -0.2701
  128SOPE  H15Y13822   5.493   0.040   4.069 -1.7812  0.7149 -0.3207
  128SOPE  C31613823   5.460   0.182   4.227  0.1396  0.3648  0.8009
  128SOPE  H16X13824   5.357   0.211   4.200  0.8714  1.7464 -0.6090
  128SOPE  H16Y13825   5.517   0.270   4.264  0.8565 -0.7024  2.3572
  128SOPE  C31713826   5.447   0.070   4.341 -0.0790 -0.6998  0.7637
  128SOPE  H17X13827   5.392  -0.020   4.306 -1.2338 -0.7686  2.5905
  128SOPE  H17Y13828   5.385   0.126   4.415 -0.2263  0.4976 -0.2188
  128SOPE  C31813829   5.581   0.037   4.401 -0.3181 -0.2076  0.1415
  128SOPE  H18X13830   5.574  -0.059   4.457 -3.2822  0.2446  0.7328
  128SOPE  H18Y13831   5.602   0.102   4.488 -0.3119 -2.8088  2.2019
  128SOPE  H18Z13832   5.661   0.018   4.327 -0.8574 -0.8638 -0.2927
  129OSM      N13833   1.429   0.465   6.752  0.7488  0.1608  0.9077
  129OSM    C1513834   1.320   0.406   6.673 -0.1235  0.0294 -0.0219
  129OSM   H15A13835   1.325   0.443   6.571  0.4846  2.1969  0.7406
  129OSM   H15B13836   1.222   0.435   6.707  0.7928  1.6157  1.4305
  129OSM   H15C13837   1.324   0.299   6.655 -2.0065  0.3854 -3.3093
  129OSM    C1413838   1.407   0.611   6.758 -0.3864  0.4891 -0.4071
  129OSM   H14A13839   1.310   0.637   6.798 -1.5592 -3.7829  0.0028
  129OSM   H14B13840   1.420   0.663   6.664  0.5000 -0.3323 -0.7477
  129OSM   H14C13841   1.490   0.653   6.812 -0.1870  0.3409 -0.5964
  129OSM    C1313842   1.428   0.416   6.893  0.3456  0.4933  0.2229
  129OSM   H13A13843   1.495   0.466   6.961 -0.3655 -1.0169  2.1181
  129OSM   H13B13844   1.452   0.311   6.895  0.6931  0.5767  0.4504
  129OSM   H13C13845   1.329   0.431   6.934  0.1888 -0.1366  0.0934
  129OSM    C1213846   1.564   0.426   6.688 -0.1109  0.0179 -0.4811
  129OSM   H12A13847   1.588   0.322   6.704  0.1471  0.0271 -0.7829
  129OSM   H12B13848   1.642   0.481   6.739 -1.5411 -1.0167  3.1203
  129OSM    C1113849   1.589   0.471   6.543 -0.2714  0.3702 -0.3424
  129OSM   H11A13850   1.516   0.418   6.477 -0.2385  0.3357 -0.3513
  129OSM   H11B13851   1.690   0.433   6.517 -0.6058 -0.0350 -1.0801
  129OSM      P13852   1.691   0.713   6.580  0.1805  0.3291 -0.0797
  129OSM    O1313853   1.633   0.838   6.627  0.2502  0.1867  0.0765
  129OSM    O1413854   1.773   0.639   6.679  0.0059  0.0282  0.1257
  129OSM    O1113855   1.781   0.728   6.453 -0.4478 -1.1311  0.6511
  129OSM    O1213856   1.576   0.611   6.532 -0.1434 -0.0924 -0.4890
  129OSM    C1S13857   1.707   0.790   6.343  0.2050 -0.3169  0.5877
  129OSM    H1S13858   1.684   0.895   6.373  1.2177 -0.4464  1.8978
  129OSM    H1T13859   1.614   0.734   6.320  0.3897 -0.2155 -0.4372
  129OSM     NF13860   1.747   0.857   6.105  0.1197  0.6370 -0.2511
  129OSM    HNF13861   1.680   0.815   6.044  0.9639 -0.0292 -0.7558
  129OSM    C2S13862   1.795   0.775   6.212 -0.1666 -0.1582  0.8089
  129OSM    H2S13863   1.893   0.812   6.249  0.7774 -1.2901 -0.4742
  129OSM    C3S13864   1.807   0.624   6.166 -0.0876 -0.0398  0.7923
  129OSM    H3S13865   1.708   0.592   6.128 -0.6779  0.6800  1.6780
  129OSM     O313866   1.843   0.531   6.270 -0.0776 -0.2997 -0.1662
  129OSM    HO313867   1.865   0.591   6.341 -2.4498  0.1917  0.2403
  129OSM    C4S13868   1.899   0.617   6.043 -0.1113  0.3953 -0.7916
  129OSM    H4S13869   1.842   0.623   5.950 -2.4617 -2.3712  0.3233
  129OSM    C5S13870   2.028   0.602   6.031 -0.5572  0.6766 -0.3306
  129OSM    H5S13871   2.097   0.590   6.116 -1.1374 -1.8448 -0.1429
  129OSM    C6S13872   2.107   0.584   5.904 -0.1923  0.2947 -0.2550
  129OSM    H6S13873   2.137   0.478   5.899 -0.4678  0.2506 -1.1796
  129OSM    H6T13874   2.197   0.650   5.901  0.3326 -0.3888  0.2635
  129OSM    C7S13875   2.040   0.622   5.769  0.6773 -0.7593  0.4048
  129OSM    H7S13876   2.004   0.726   5.783 -1.3186 -1.2462 -0.6598
  129OSM    H7T13877   1.949   0.558   5.769  0.8034 -0.9622  1.4530
  129OSM    C8S13878   2.119   0.609   5.644 -0.1634  0.4055  0.6780
  129OSM    H8S13879   2.163   0.509   5.663 -2.0517 -0.5936  0.0349
  129OSM    H8T13880   2.199   0.686   5.642 -0.4757  0.7187 -0.5862
  129OSM    C9S13881   2.041   0.622   5.511  0.0491 -0.2651  0.0899
  129OSM    H9S13882   1.979   0.713   5.498  1.2871  0.2284 -3.2033
  129OSM    H9T13883   1.960   0.546   5.504 -1.2033  0.9490  0.8583
  129OSM   C10S13884   2.119   0.613   5.384 -0.3017 -0.3661  0.5514
  129OSM   H10S13885   2.172   0.517   5.368  0.3946  0.2040 -0.7656
  129OSM   H10T13886   2.199   0.690   5.389 -0.4608  0.0097 -1.6356
  129OSM   C11S13887   2.029   0.640   5.264  0.4652 -0.7321 -0.8932
  129OSM   H11S13888   1.960   0.725   5.286  1.6953  0.2065 -0.5213
  129OSM   H11T13889   1.971   0.549   5.240 -1.8571 -0.1545  2.0113
  129OSM   C12S13890   2.111   0.686   5.145 -0.2589  0.3193 -0.5404
  129OSM   H12S13891   2.186   0.605   5.130 -1.0722 -0.6177  0.3445
  129OSM   H12T13892   2.178   0.766   5.184  0.4277 -0.2596 -0.5081
  129OSM   C13S13893   2.033   0.723   5.018 -0.8371  0.0502  0.0956
  129OSM   H13S13894   2.110   0.762   4.948 -3.1028  1.4941 -1.7262
  129OSM   H13T13895   1.970   0.812   5.040 -0.3717  0.4296 -0.0936
  129OSM   C14S13896   1.953   0.614   4.954  0.1772 -0.3794  0.2009
  129OSM   H14S13897   1.866   0.594   5.019 -0.4897  1.9557  0.1023
  129OSM   H14T13898   2.017   0.523   4.941  1.0265  0.4901 -2.3030
  129OSM   C15S13899   1.913   0.636   4.807 -0.5461 -0.3575 -0.1042
  129OSM   H15S13900   1.865   0.735   4.794  0.2260 -0.1601 -1.5841
  129OSM   H15T13901   1.836   0.559   4.784 -0.4895 -1.0919  1.9968
  129OSM   C16S13902   2.035   0.622   4.708  0.2024  1.0200 -0.4328
  129OSM   H16S13903   2.054   0.513   4.698  3.3224  1.1721  2.0939
  129OSM   H16T13904   2.121   0.675   4.755 -1.5895  1.6492  2.4150
  129OSM   C17S13905   2.012   0.679   4.570 -0.2189  0.3325  0.0820
  129OSM   H17S13906   2.018   0.790   4.567  0.1846  0.3032 -0.3852
  129OSM   H17T13907   1.908   0.658   4.538  0.1033 -0.0619 -0.7341
  129OSM   C18S13908   2.098   0.618   4.461  0.4497 -0.4571 -0.0818
  129OSM   H18S13909   2.205   0.646   4.470  0.4772 -0.8607  1.0078
  129OSM   H18T13910   2.057   0.639   4.360 -0.1147 -2.0370 -0.2106
  129OSM   H18U13911   2.099   0.507   4.460 -0.0661 -0.4865  1.1109
  129OSM    C1F13912   1.764   0.988   6.098 -0.4097 -0.0400 -0.2621
  129OSM     OF13913   1.851   1.044   6.154  0.1170 -0.4975 -0.5075
  129OSM    C2F13914   1.664   1.064   6.012 -0.5341  0.3145  0.2800
  129OSM    H2F13915   1.562   1.044   6.052 -1.3365  1.9528 -0.8385
  129OSM    H2G13916   1.665   1.038   5.904 -2.9554  2.2292 -0.2840
  129OSM    C3F13917   1.668   1.216   6.031  0.3409 -0.2769 -0.3012
  129OSM    H3F13918   1.762   1.255   5.985  1.2701 -0.2010  1.5478
  129OSM    H3G13919   1.684   1.249   6.136  1.3370  2.7910 -1.2988
  129OSM    C4F13920   1.551   1.269   5.953  0.6772  0.4103  0.8922
  129OSM    H4F13921   1.550   1.380   5.964  0.0999  0.4129  0.8655
  129OSM    H4G13922   1.461   1.228   6.004 -0.5257 -1.9782 -2.7496
  129OSM    C5F13923   1.541   1.224   5.802 -0.2775  0.1996  0.0202
  129OSM    H5F13924   1.520   1.115   5.800 -1.6215  0.3340  2.4581
  129OSM    H5G13925   1.637   1.256   5.756 -1.0129  1.0399 -0.9775
  129OSM    C6F13926   1.436   1.300   5.720  0.0982 -0.2016  0.6626
  129OSM    H6F13927   1.457   1.409   5.724 -1.5278  0.2188 -0.9257
  129OSM    H6G13928   1.334   1.279   5.759  0.6538 -1.0597  1.6975
  129OSM    C7F13929   1.439   1.252   5.572  0.7088 -0.2577  0.4346
  129OSM    H7F13930   1.348   1.296   5.526  0.9905 -0.5766 -0.4567
  129OSM    H7G13931   1.432   1.142   5.572  2.2630 -0.4316 -1.4631
  129OSM    C8F13932   1.564   1.285   5.475  0.0596  0.5294  0.1317
  129OSM    H8F13933   1.542   1.236   5.378  0.1000  1.6024 -0.4326
  129OSM    H8G13934   1.654   1.232   5.514  0.9114 -0.2589 -2.7172
  129OSM    C9F13935   1.587   1.437   5.458  0.0455 -1.0199  0.4199
  129OSM    H9F13936   1.614   1.495   5.548 -1.1571  1.6439 -0.8261
  129OSM   C10F13937   1.558   1.521   5.357 -0.2581 -0.3551 -0.0322
  129OSM   H10F13938   1.583   1.627   5.372  0.3935 -0.5828  0.5316
  129OSM   C11F13939   1.511   1.467   5.218 -0.0170  0.5472 -0.1372
  129OSM   H11F13940   1.409   1.506   5.198 -0.6428  1.1333  3.5567
  129OSM   H11G13941   1.513   1.356   5.212  2.5050  0.4978  0.4681
  129OSM   C12F13942   1.600   1.506   5.101  0.6924  0.0700 -0.2249
  129OSM   H12F13943   1.704   1.469   5.109  1.0344  0.2987 -2.7163
  129OSM   H12G13944   1.593   1.616   5.098 -4.0120 -0.0274 -0.0704
  129OSM   C13F13945   1.543   1.460   4.972  0.0981 -0.1979  0.5355
  129OSM   H13F13946   1.517   1.353   4.983  1.1795 -0.5049  0.2105
  129OSM   H13G13947   1.621   1.464   4.892 -0.2931  0.5156  0.1790
  129OSM   C14F13948   1.427   1.547   4.925 -1.0035 -0.0691  0.5935
  129OSM   H14F13949   1.448   1.652   4.897  1.3328 -0.6485 -0.0460
  129OSM   H14G13950   1.349   1.556   5.003 -0.6710 -0.0063  0.9175
  129OSM   C15F13951   1.351   1.500   4.800 -0.6018 -0.0891  0.0774
  129OSM   H15F13952   1.304   1.401   4.819 -0.2123 -0.4739 -0.8971
  129OSM   H15G13953   1.422   1.482   4.717  1.0501  2.4496  0.8365
  129OSM   C16F13954   1.240   1.602   4.745 -0.3315  0.4144 -0.3667
  129OSM   H16F13955   1.286   1.689   4.694  2.0067 -0.3281  0.3312
  129OSM   H16G13956   1.184   1.647   4.830  3.3250  0.5037  2.2542
  129OSM   C17F13957   1.135   1.530   4.662 -0.0064 -0.5758 -0.5833
  129OSM   H17F13958   1.112   1.436   4.717  0.6526 -0.2292  0.2952
  129OSM   H17G13959   1.177   1.499   4.564 -0.0594  0.0382 -0.8042
  129OSM   C18F13960   1.004   1.596   4.636  0.7934  0.2293  0.5274
  129OSM   H18F13961   0.930   1.513   4.628  0.2812  0.6958  0.3595
  129OSM   H18G13962   1.010   1.635   4.532 -0.0967  2.3785  1.2283
  129OSM   H18H13963   0.976   1.674   4.710  1.4399  1.8392 -0.8462
  130OSM      N13964   1.202   3.963   6.508 -0.4827  0.7597  0.0176
  130OSM    C1513965   1.112   3.901   6.615 -0.8143 -0.6579  0.3658
  130OSM   H15A13966   1.010   3.927   6.595 -0.7453 -0.1499  0.6575
  130OSM   H15B13967   1.135   3.951   6.708  0.2268  0.8278 -0.6375
  130OSM   H15C13968   1.119   3.793   6.619 -0.9887 -0.7312 -1.0249
  130OSM    C1413969   1.185   4.115   6.505  0.8185  0.1308  0.2426
  130OSM   H14A13970   1.215   4.156   6.601  0.2537 -1.3078  1.0633
  130OSM   H14B13971   1.088   4.149   6.473 -0.2554 -0.2942  2.8205
  130OSM   H14C13972   1.251   4.157   6.431 -0.8640  0.3215 -1.1917
  130OSM    C1313973   1.347   3.940   6.537 -0.6650  0.0883  0.5040
  130OSM   H13A13974   1.375   3.998   6.624  1.0114  3.2494 -1.9527
  130OSM   H13B13975   1.398   3.987   6.455 -3.9339 -0.7433 -2.2219
  130OSM   H13C13976   1.369   3.834   6.543 -2.0437 -0.1714  1.9213
  130OSM    C1213977   1.160   3.897   6.380  0.7798 -0.2344  0.1582
  130OSM   H12A13978   1.224   3.934   6.301  1.2386 -0.3279  0.4849
  130OSM   H12B13979   1.060   3.930   6.354  1.0326  1.0469  0.7155
  130OSM    C1113980   1.155   3.745   6.360  0.2838 -0.1525  0.6372
  130OSM   H11A13981   1.245   3.691   6.400  0.7128  0.7849  0.9622
  130OSM   H11B13982   1.161   3.723   6.252  0.9599 -1.5514  0.9360
  130OSM      P13983   0.908   3.649   6.356  0.7364 -0.1652  0.5038
  130OSM    O1313984   0.840   3.542   6.434 -0.5980  0.5581  0.2447
  130OSM    O1413985   0.822   3.769   6.338 -0.2040 -0.5235  0.3144
  130OSM    O1113986   0.956   3.596   6.217 -0.0910 -0.0270  0.4064
  130OSM    O1213987   1.046   3.682   6.430  0.2087  0.2958 -0.2074
  130OSM    C1S13988   0.866   3.531   6.126 -1.1191 -0.2452  0.0906
  130OSM    H1S13989   0.767   3.580   6.113 -1.2401 -0.5197 -0.0261
  130OSM    H1T13990   0.843   3.426   6.156  0.7857 -0.4003  1.1783
  130OSM     NF13991   0.849   3.481   5.888 -0.0908  0.0526  0.1762
  130OSM    HNF13992   0.864   3.388   5.855  0.6359  0.3477 -0.3463
  130OSM    C2S13993   0.938   3.519   5.993  0.6277  0.1004 -0.3282
  130OSM    H2S13994   0.980   3.619   5.966 -0.8273  0.5342 -1.0852
  130OSM    C3S13995   1.059   3.418   6.019 -0.1792  0.5198  0.7063
  130OSM    H3S13996   1.018   3.321   6.056  0.3768 -0.0509 -0.1328
  130OSM     O313997   1.145   3.455   6.119 -0.4542  0.0343 -0.0844
  130OSM    HO313998   1.094   3.528   6.156 -2.1059 -1.1641  0.0983
  130OSM    C4S13999   1.134   3.386   5.888  0.3108  0.2102 -0.3052
  130OSM    H4S14000   1.160   3.480   5.839  0.3853  1.4089  1.8841
  130OSM    C5S14001   1.153   3.264   5.837  0.2661 -0.5045 -0.1917
  130OSM    H5S14002   1.110   3.176   5.887  1.1541 -0.4935  0.6339
  130OSM    C6S14003   1.223   3.231   5.707  0.0470  0.2310 -0.4640
  130OSM    H6S14004   1.325   3.186   5.716  1.2430  2.7240 -0.8163
  130OSM    H6T14005   1.237   3.325   5.651 -0.1163  0.3860 -0.2473
  130OSM    C7S14006   1.151   3.133   5.608  0.3170 -0.0664  0.3985
  130OSM    H7S14007   1.074   3.198   5.562  1.5668  3.0356  2.3860
  130OSM    H7T14008   1.116   3.051   5.673 -0.8076  2.7805  3.6611
  130OSM    C8S14009   1.241   3.082   5.487 -0.6387  0.6735 -0.1563
  130OSM    H8S14010   1.276   2.984   5.526  2.4591  2.8814  3.1772
  130OSM    H8T14011   1.333   3.144   5.479 -0.8061  1.0247  0.5715
  130OSM    C9S14012   1.172   3.085   5.351 -0.6532  0.0684 -0.0039
  130OSM    H9S14013   1.125   3.185   5.361 -0.6801  0.0181  0.3696
  130OSM    H9T14014   1.096   3.005   5.341 -0.4298 -0.2363  0.7084
  130OSM   C10S14015   1.277   3.073   5.238  0.1869 -1.0918 -0.6884
  130OSM   H10S14016   1.317   2.969   5.239 -0.5458 -1.3759  0.4015
  130OSM   H10T14017   1.367   3.136   5.253 -0.3795 -0.7966  2.1572
  130OSM   C11S14018   1.221   3.091   5.100 -0.0084  0.2094  0.5102
  130OSM   H11S14019   1.187   3.196   5.085  2.4200  1.1107  1.0005
  130OSM   H11T14020   1.141   3.015   5.089  0.2542  0.1172 -0.9675
  130OSM   C12S14021   1.315   3.059   4.983 -0.3969  0.4486 -0.5705
  130OSM   H12S14022   1.325   2.949   4.975 -1.7487  0.2698 -0.0873
  130OSM   H12T14023   1.418   3.086   5.014 -0.6158  0.3483  0.2793
  130OSM   C13S14024   1.261   3.112   4.852  0.0524  0.1356 -0.0962
  130OSM   H13S14025   1.307   3.205   4.813 -1.0134 -0.2376 -2.4230
  130OSM   H13T14026   1.152   3.130   4.867 -0.3239 -1.8430 -0.1408
  130OSM   C14S14027   1.267   3.012   4.739 -0.5090  0.1536 -0.5176
  130OSM   H14S14028   1.202   2.923   4.758 -0.5768  0.1077 -0.9439
  130OSM   H14T14029   1.370   2.981   4.710 -0.4277 -0.8180  0.7197
  130OSM   C15S14030   1.205   3.067   4.610  0.2612 -0.3038  0.7557
  130OSM   H15S14031   1.255   3.162   4.584  1.0765 -0.5117  1.5123
  130OSM   H15T14032   1.097   3.088   4.625 -0.1966  1.3447 -3.6631
  130OSM   C16S14033   1.220   2.985   4.478  0.1730  0.0373  0.7390
  130OSM   H16S14034   1.136   3.008   4.410 -1.6132 -2.8332  1.7863
  130OSM   H16T14035   1.193   2.880   4.503  0.4516  0.2919  2.2317
  130OSM   C17S14036   1.360   2.994   4.413  0.4022 -0.2724  0.1037
  130OSM   H17S14037   1.432   2.941   4.480  2.4276  1.5571 -0.5166
  130OSM   H17T14038   1.384   3.102   4.406  1.3529 -0.5227 -0.7746
  130OSM   C18S14039   1.373   2.933   4.274  0.0943  0.0393 -0.5305
  130OSM   H18S14040   1.331   2.830   4.271 -2.9332  1.1701 -0.1583
  130OSM   H18T14041   1.483   2.935   4.259  0.6526  0.6224  2.7799
  130OSM   H18U14042   1.318   2.992   4.198 -1.4358 -0.0392  0.4710
  130OSM    C1F14043   0.755   3.557   5.833 -0.5701  0.0992 -1.6682
  130OSM     OF14044   0.721   3.659   5.895 -0.5601 -0.5940 -0.4749
  130OSM    C2F14045   0.680   3.508   5.713  0.3817  0.5290 -0.7935
  130OSM    H2F14046   0.633   3.414   5.748  0.2511  0.8879  0.0078
  130OSM    H2G14047   0.759   3.483   5.639  2.4737 -0.3850  1.5922
  130OSM    C3F14048   0.587   3.611   5.650  0.5602  0.2665 -0.2096
  130OSM    H3F14049   0.504   3.628   5.722 -0.5679 -2.2573 -0.7757
  130OSM    H3G14050   0.544   3.559   5.561  0.4382  2.3410 -1.4294
  130OSM    C4F14051   0.661   3.731   5.596  0.2299 -0.1658 -0.8691
  130OSM    H4F14052   0.750   3.694   5.540 -0.1692 -0.7776 -1.1131
  130OSM    H4G14053   0.704   3.784   5.683 -0.7019 -1.5823  0.5122
  130OSM    C5F14054   0.576   3.816   5.506  0.4263 -0.2968  0.3379
  130OSM    H5F14055   0.490   3.853   5.566  1.2840  1.0059  0.8050
  130OSM    H5G14056   0.521   3.757   5.429 -0.5994  3.2868 -1.8896
  130OSM    C6F14057   0.639   3.932   5.434 -0.3898  0.0149 -0.2734
  130OSM    H6F14058   0.662   4.004   5.515  2.3459 -0.2121 -0.7525
  130OSM    H6G14059   0.557   3.976   5.373 -1.0245 -1.4549 -0.5382
  130OSM    C7F14060   0.765   3.908   5.343  0.4708 -0.2750 -0.0168
  130OSM    H7F14061   0.751   3.804   5.306 -0.6626 -0.8655  1.8899
  130OSM    H7G14062   0.858   3.907   5.404  2.2863 -1.6161 -2.6050
  130OSM    C8F14063   0.780   3.991   5.216 -0.3144  0.5294  0.3903
  130OSM    H8F14064   0.862   3.939   5.164 -0.9967  0.1024 -0.2834
  130OSM    H8G14065   0.791   4.099   5.239 -0.8892  0.6666  0.0461
  130OSM    C9F14066   0.656   3.987   5.116 -0.2606  0.6150  0.1135
  130OSM    H9F14067   0.561   4.004   5.169 -0.9763  1.4079 -1.3460
  130OSM   C10F14068   0.659   3.956   4.983 -0.6382 -0.1383  0.2333
  130OSM   H10F14069   0.568   3.950   4.920  0.1842  1.0705 -1.1345
  130OSM   C11F14070   0.783   3.949   4.896 -0.3493  0.4262 -0.4305
  130OSM   H11F14071   0.857   3.873   4.929 -0.0941 -0.6773 -3.2136
  130OSM   H11G14072   0.831   4.049   4.899 -1.7195  1.1070 -0.1664
  130OSM   C12F14073   0.743   3.914   4.758  0.2944 -0.2693 -0.5300
  130OSM   H12F14074   0.671   3.987   4.716 -1.3341 -0.5950  1.5245
  130OSM   H12G14075   0.700   3.811   4.756  1.1993 -0.6534 -1.2762
  130OSM   C13F14076   0.868   3.902   4.665  0.4199 -0.5238 -0.1861
  130OSM   H13F14077   0.950   3.856   4.725  0.0193 -0.2380  0.5800
  130OSM   H13G14078   0.895   4.005   4.634  0.3034  0.6577  3.3163
  130OSM   C14F14079   0.850   3.805   4.548  0.8867 -0.5178  0.0180
  130OSM   H14F14080   0.749   3.838   4.514  0.2279 -0.8219  1.5715
  130OSM   H14G14081   0.847   3.699   4.581 -1.4933 -1.4010 -2.6345
  130OSM   C15F14082   0.944   3.828   4.428 -0.0448 -0.3842  0.0107
  130OSM   H15F14083   1.043   3.781   4.447  0.4427  1.0460  1.2625
  130OSM   H15G14084   0.953   3.938   4.415  1.9486 -0.6990 -1.6248
  130OSM   C16F14085   0.897   3.760   4.295  0.2494 -0.2299  0.4433
  130OSM   H16F14086   0.794   3.785   4.260  1.2482 -0.2378 -2.9040
  130OSM   H16G14087   0.880   3.651   4.307  0.2992 -0.2057  0.7471
  130OSM   C17F14088   1.000   3.773   4.175  0.3394  0.4109 -0.0345
  130OSM   H17F14089   0.990   3.881   4.150  2.1387  0.4219 -0.8632
  130OSM   H17G14090   0.959   3.718   4.088  0.3429  1.3374 -0.6267
  130OSM   C18F14091   1.151   3.723   4.185  0.1480 -0.3865 -0.3866
  130OSM   H18F14092   1.167   3.613   4.187  1.3372 -0.2949 -2.2468
  130OSM   H18G14093   1.190   3.758   4.283  0.5243  1.8323 -1.2816
  130OSM   H18H14094   1.218   3.768   4.109 -0.2471  1.3109  0.2174
  131OSM      N14095   3.237   0.915   6.444 -0.1620 -0.0092  0.5422
  131OSM    C1514096   3.113   0.841   6.470 -0.5076  0.0162  0.5525
  131OSM   H15A14097   3.110   0.799   6.569  1.5293  1.2987  1.2156
  131OSM   H15B14098   3.096   0.761   6.400  0.3802  1.8742 -1.9224
  131OSM   H15C14099   3.031   0.912   6.471 -0.3151  0.2676 -0.3806
  131OSM    C1414100   3.343   0.814   6.451 -0.0216 -0.1476 -0.5775
  131OSM   H14A14101   3.332   0.754   6.362  1.2440 -2.6164  0.8263
  131OSM   H14B14102   3.334   0.747   6.535  2.6797  0.5070  0.3215
  131OSM   H14C14103   3.442   0.856   6.457 -0.1156  0.0193 -0.1463
  131OSM    C1314104   3.228   0.972   6.307 -0.2031 -0.4894  0.3762
  131OSM   H13A14105   3.143   1.038   6.308  0.8655  0.9944 -1.0165
  131OSM   H13B14106   3.201   0.898   6.234  0.3337 -0.2436 -0.0804
  131OSM   H13C14107   3.321   1.019   6.277  0.1224 -2.3826 -1.8655
  131OSM    C1214108   3.258   1.022   6.544  0.5677  0.3436  0.3308
  131OSM   H12A14109   3.362   1.050   6.546  1.2298 -1.9366  0.2741
  131OSM   H12B14110   3.223   0.987   6.641  2.9739 -0.7209  0.8781
  131OSM    C1114111   3.162   1.146   6.525  0.1362  0.4070 -0.1876
  131OSM   H11A14112   3.173   1.200   6.428 -0.2493  2.3755  0.8052
  131OSM   H11B14113   3.191   1.224   6.599 -1.7803 -1.4716  2.7148
  131OSM      P14114   2.909   1.206   6.507  0.3221 -0.1675  0.1351
  131OSM    O1314115   2.791   1.141   6.567  0.3387  0.2612  0.0979
  131OSM    O1414116   2.933   1.349   6.538 -0.3883  0.3624  0.2663
  131OSM    O1114117   2.904   1.205   6.347  0.4339  0.0803 -0.4600
  131OSM    O1214118   3.026   1.112   6.551  0.5458 -0.1621 -0.7003
  131OSM    C1S14119   2.817   1.111   6.279  0.0793  0.5609  0.0574
  131OSM    H1S14120   2.712   1.120   6.312 -0.7795 -2.5462 -1.3743
  131OSM    H1T14121   2.850   1.005   6.290  1.6960  0.5545 -3.3663
  131OSM     NF14122   2.722   1.039   6.068  0.8562 -0.4897 -0.0013
  131OSM    HNF14123   2.768   0.981   6.001 -0.2605 -0.6483 -0.6664
  131OSM    C2S14124   2.803   1.141   6.124  0.4820  0.2670 -0.7365
  131OSM    H2S14125   2.754   1.240   6.121  1.0605  0.6559  1.0827
  131OSM    C3S14126   2.952   1.143   6.071 -0.6074  0.3802  0.2962
  131OSM    H3S14127   2.984   1.040   6.095  0.2129  0.7030  0.5891
  131OSM     O314128   3.051   1.221   6.135  0.1258 -0.8295  0.2596
  131OSM    HO314129   2.996   1.238   6.211  0.5517  1.9664  0.0635
  131OSM    C4S14130   2.964   1.154   5.915 -0.0546 -0.2449  0.1221
  131OSM    H4S14131   2.944   1.058   5.865 -1.1949  0.5864 -1.0905
  131OSM    C5S14132   2.984   1.270   5.844  0.9506 -0.3076  0.6568
  131OSM    H5S14133   2.986   1.367   5.896  1.5352  0.6518 -1.0877
  131OSM    C6S14134   3.002   1.278   5.695  0.3463  0.3700 -0.6961
  131OSM    H6S14135   3.110   1.279   5.670  0.3957 -0.8029 -0.5737
  131OSM    H6T14136   2.954   1.372   5.658 -0.3412  0.6718  0.8725
  131OSM    C7S14137   2.940   1.179   5.598  0.1245  0.3344  0.5944
  131OSM    H7S14138   2.831   1.180   5.615  0.1446  3.8835  1.3501
  131OSM    H7T14139   2.976   1.078   5.626  1.8479  1.3409  2.2424
  131OSM    C8S14140   2.972   1.203   5.452  1.5300  0.5096  0.0881
  131OSM    H8S14141   3.078   1.179   5.429  0.9771 -0.1536 -1.9384
  131OSM    H8T14142   2.958   1.312   5.436 -0.7038 -0.0761 -2.7476
  131OSM    C9S14143   2.877   1.117   5.367 -0.0853 -0.3432 -0.2522
  131OSM    H9S14144   2.769   1.122   5.391  0.3196  0.7305  1.4979
  131OSM    H9T14145   2.914   1.012   5.372 -1.1978 -0.7310 -0.0495
  131OSM   C10S14146   2.903   1.163   5.223 -1.3961 -1.1906 -0.2034
  131OSM   H10S14147   3.012   1.171   5.205 -1.0877  1.8996  2.1652
  131OSM   H10T14148   2.870   1.269   5.217  1.4430 -0.1700  0.5557
  131OSM   C11S14149   2.827   1.079   5.125  0.0024 -0.6852  0.0347
  131OSM   H11S14150   2.719   1.090   5.152  0.4729  1.2283  1.3107
  131OSM   H11T14151   2.859   0.974   5.142 -1.2212 -1.0673  0.0693
  131OSM   C12S14152   2.845   1.121   4.978  0.0835 -0.2225 -0.4599
  131OSM   H12S14153   2.946   1.161   4.955 -0.7531  1.3305 -1.6561
  131OSM   H12T14154   2.767   1.199   4.962  0.1667 -0.1418 -0.4735
  131OSM   C13S14155   2.801   1.007   4.880  0.0930 -0.4740  0.0324
  131OSM   H13S14156   2.704   0.968   4.919 -0.1104 -1.7623 -1.6510
  131OSM   H13T14157   2.870   0.920   4.879  0.2532 -0.4566  2.6787
  131OSM   C14S14158   2.766   1.069   4.742 -0.2763  0.1856 -0.4108
  131OSM   H14S14159   2.698   1.154   4.760 -1.2199 -0.9190  1.4551
  131OSM   H14T14160   2.710   1.002   4.673  1.3308 -1.4406 -0.2256
  131OSM   C15S14161   2.887   1.126   4.665  0.2481 -0.2840 -1.0861
  131OSM   H15S14162   2.970   1.052   4.662  0.4559 -0.1056 -0.1010
  131OSM   H15T14163   2.930   1.221   4.704  0.9807 -0.0253 -2.4488
  131OSM   C16S14164   2.833   1.155   4.525 -0.0008  0.3777  0.0715
  131OSM   H16S14165   2.884   1.243   4.479 -0.5779 -0.5114 -2.4768
  131OSM   H16T14166   2.728   1.190   4.525  0.1053  0.9199  3.0103
  131OSM   C17S14167   2.858   1.046   4.420  0.2902  0.1844  0.5879
  131OSM   H17S14168   2.775   1.067   4.348  0.7632  0.4043  0.0963
  131OSM   H17T14169   2.830   0.948   4.465  0.5850 -0.3366 -0.3326
  131OSM   C18S14170   2.987   1.037   4.350  0.6969 -0.0975  0.2843
  131OSM   H18S14171   3.009   1.139   4.313 -0.4095  0.7818  1.9187
  131OSM   H18T14172   2.991   0.967   4.264 -4.8215 -0.4668 -0.0605
  131OSM   H18U14173   3.065   1.008   4.424  0.7201  0.7976  0.6225
  131OSM    C1F14174   2.596   1.030   6.087  0.6559  0.3895 -0.0498
  131OSM     OF14175   2.528   1.128   6.120 -0.2329 -0.0460 -0.4317
  131OSM    C2F14176   2.535   0.898   6.081  0.5044  0.0450  0.9093
  131OSM    H2F14177   2.574   0.825   6.155  0.3277  1.2138  2.1753
  131OSM    H2G14178   2.560   0.849   5.984  1.1779 -2.2127  2.1389
  131OSM    C3F14179   2.381   0.916   6.085 -0.1300 -0.3775 -0.1398
  131OSM    H3F14180   2.351   0.965   6.180 -1.4137 -0.7031 -0.3612
  131OSM    H3G14181   2.336   0.815   6.098 -0.3196 -0.0373  2.3037
  131OSM    C4F14182   2.327   0.970   5.957  0.0573 -0.1616 -0.3456
  131OSM    H4F14183   2.338   0.903   5.869  1.6575  0.1751 -0.4482
  131OSM    H4G14184   2.375   1.067   5.929 -2.1823  0.5909 -1.8317
  131OSM    C5F14185   2.173   0.991   5.971 -0.5066 -0.0669  0.5058
  131OSM    H5F14186   2.153   1.039   6.069  0.7891  1.6776 -0.0312
  131OSM    H5G14187   2.119   0.896   5.953 -0.9424  0.4769 -1.3153
  131OSM    C6F14188   2.117   1.081   5.861  0.1508  0.2700  0.8566
  131OSM    H6F14189   2.169   1.179   5.865  1.4956 -0.3194 -0.9191
  131OSM    H6G14190   2.010   1.100   5.882 -0.2817 -0.4062 -0.6286
  131OSM    C7F14191   2.122   1.024   5.719  0.1741  0.2766  0.2773
  131OSM    H7F14192   2.082   0.920   5.727  0.9883  0.0541  1.7276
  131OSM    H7G14193   2.227   1.005   5.691 -0.0943 -0.3223 -0.3582
  131OSM    C8F14194   2.040   1.091   5.613 -0.2782  0.2756 -0.4380
  131OSM    H8F14195   2.072   1.197   5.618 -0.5403  0.3940 -1.1007
  131OSM    H8G14196   1.931   1.076   5.629 -0.0466 -0.4078  0.5926
  131OSM    C9F14197   2.068   1.025   5.485  0.3725  0.7957  0.0969
  131OSM    H9F14198   2.102   0.921   5.491  1.5401  1.1271 -0.4853
  131OSM   C10F14199   2.049   1.077   5.366 -0.3142  0.1356  1.0767
  131OSM   H10F14200   2.069   1.009   5.281  1.4597  1.7028  0.1538
  131OSM   C11F14201   1.997   1.212   5.332  0.2432  0.5010 -0.1025
  131OSM   H11F14202   2.054   1.289   5.390  1.9413 -0.3360 -0.5942
  131OSM   H11G14203   1.891   1.222   5.365 -0.0500 -0.1368 -0.8523
  131OSM   C12F14204   2.027   1.240   5.184 -0.0524  0.3355  0.1308
  131OSM   H12F14205   2.131   1.212   5.159 -0.1157  1.3064 -1.3218
  131OSM   H12G14206   2.009   1.346   5.156 -1.6258 -0.3844 -1.8146
  131OSM   C13F14207   1.924   1.175   5.096 -0.2990  0.4504 -0.4662
  131OSM   H13F14208   1.824   1.196   5.140  0.2919  3.8228 -0.5081
  131OSM   H13G14209   1.943   1.066   5.089 -0.9387  0.4375 -3.8452
  131OSM   C14F14210   1.918   1.229   4.956 -0.1959  0.4218  0.1789
  131OSM   H14F14211   1.880   1.332   4.941  1.4332  1.1029  0.5315
  131OSM   H14G14212   1.846   1.164   4.902 -0.0114 -0.0231  0.4560
  131OSM   C15F14213   2.051   1.229   4.882  0.3022  0.2573 -0.6714
  131OSM   H15F14214   2.093   1.127   4.893  0.7248  0.2388 -2.1835
  131OSM   H15G14215   2.116   1.303   4.935 -2.0177  2.8456 -1.2212
  131OSM   C16F14216   2.041   1.258   4.736  0.2579  0.2051  0.5902
  131OSM   H16F14217   2.133   1.313   4.707  1.6990 -1.1400  2.3696
  131OSM   H16G14218   1.961   1.330   4.712  2.2601  2.2463 -0.3472
  131OSM   C17F14219   2.022   1.137   4.639  0.7450 -0.1743  0.4345
  131OSM   H17F14220   1.920   1.104   4.667  1.6871 -2.5625  1.3026
  131OSM   H17G14221   2.085   1.048   4.659  0.6358 -0.1882  0.7102
  131OSM   C18F14222   2.022   1.178   4.494 -0.1121 -0.1756  0.5436
  131OSM   H18F14223   1.962   1.271   4.484 -0.2468 -0.4110 -1.2600
  131OSM   H18G14224   1.976   1.097   4.432 -1.2913  0.0122  1.1382
  131OSM   H18H14225   2.127   1.200   4.465  0.4237 -2.8778  0.2038
  132OSM      N14226   3.341   1.554   6.531 -0.0292  0.5139 -0.1512
  132OSM    C1514227   3.329   1.434   6.441 -0.4144 -0.6100  0.2732
  132OSM   H15A14228   3.409   1.366   6.467  0.0159 -0.2366 -0.0455
  132OSM   H15B14229   3.334   1.463   6.337 -0.1814  1.6270  0.8618
  132OSM   H15C14230   3.237   1.384   6.467 -1.3300  0.7162 -0.3084
  132OSM    C1414231   3.226   1.644   6.493  0.2422  0.0130  0.5965
  132OSM   H14A14232   3.229   1.696   6.399  2.8967 -0.2211  0.4758
  132OSM   H14B14233   3.210   1.717   6.571  0.6099 -0.3318  1.0008
  132OSM   H14C14234   3.140   1.578   6.488  1.4206 -1.5245 -0.6696
  132OSM    C1314235   3.326   1.508   6.671  0.0450  0.0401  0.1142
  132OSM   H13A14236   3.404   1.446   6.713 -0.7803 -1.2741 -0.2384
  132OSM   H13B14237   3.223   1.476   6.684 -1.2887  3.3677 -1.1815
  132OSM   H13C14238   3.324   1.591   6.741  2.1839  1.0361 -0.9381
  132OSM    C1214239   3.469   1.629   6.507  0.4901 -0.2111 -0.2839
  132OSM   H12A14240   3.548   1.587   6.568  2.0484  3.2006  0.2927
  132OSM   H12B14241   3.462   1.727   6.552  0.6373  0.5151 -1.7778
  132OSM    C1114242   3.509   1.657   6.366  0.1946 -0.5805 -0.0153
  132OSM   H11A14243   3.516   1.557   6.317 -1.1280 -1.4974  1.5635
  132OSM   H11B14244   3.611   1.701   6.374 -0.8903  1.7328  3.8174
  132OSM      P14245   3.417   1.907   6.350 -0.1278  0.2155 -0.1135
  132OSM    O1314246   3.308   1.979   6.284 -0.0204 -0.4393  0.3284
  132OSM    O1414247   3.418   1.914   6.496 -0.0613  0.1584  0.0347
  132OSM    O1114248   3.552   1.967   6.304 -0.4885 -0.0318 -0.2812
  132OSM    O1214249   3.421   1.754   6.303  0.0347 -0.2623 -0.6890
  132OSM    C1S14250   3.578   2.006   6.167 -0.3740  0.4884  0.2831
  132OSM    H1S14251   3.507   1.956   6.097  0.3877 -0.1561 -0.0501
  132OSM    H1T14252   3.676   1.965   6.132 -0.0807  1.5663 -0.1837
  132OSM     NF14253   3.570   2.166   5.991 -0.5313  0.2760  0.5099
  132OSM    HNF14254   3.658   2.171   5.946 -1.1387  1.0497 -0.6364
  132OSM    C2S14255   3.570   2.156   6.133  0.6953 -0.2799 -0.5307
  132OSM    H2S14256   3.479   2.207   6.172  1.4608  1.0740 -0.4436
  132OSM    C3S14257   3.690   2.217   6.212 -0.0448  0.0414 -0.3845
  132OSM    H3S14258   3.779   2.156   6.187  0.8972  0.5936  1.4686
  132OSM     O314259   3.678   2.213   6.355 -0.2521  0.4473 -0.3418
  132OSM    HO314260   3.611   2.145   6.362 -1.6002  1.8241  0.8334
  132OSM    C4S14261   3.710   2.362   6.172 -0.2068  0.7019 -0.1901
  132OSM    H4S14262   3.616   2.406   6.134 -1.4015 -1.7689 -0.2630
  132OSM    C5S14263   3.824   2.427   6.179 -0.2616 -0.2774 -0.2864
  132OSM    H5S14264   3.917   2.372   6.198 -1.0384 -1.6710 -0.3787
  132OSM    C6S14265   3.843   2.570   6.124 -0.2496  0.7000 -0.3010
  132OSM    H6S14266   3.901   2.642   6.185  0.2706  0.0993 -0.0778
  132OSM    H6T14267   3.742   2.612   6.105 -0.6133 -0.7362 -1.8709
  132OSM    C7S14268   3.923   2.566   5.989 -0.4150 -0.3402 -0.6197
  132OSM    H7S14269   3.880   2.491   5.919 -0.6428  0.8684 -1.8124
  132OSM    H7T14270   4.032   2.553   6.004  0.0095  2.8624 -0.3328
  132OSM    C8S14271   3.907   2.693   5.900  1.1593  0.2040 -0.7783
  132OSM    H8S14272   3.969   2.778   5.935 -1.1953  1.8862 -0.4566
  132OSM    H8T14273   3.799   2.716   5.903  0.6192 -2.0949  1.8665
  132OSM    C9S14274   3.953   2.661   5.760  0.9029  0.3754  0.1092
  132OSM    H9S14275   3.896   2.576   5.716 -0.6913  0.9038  1.0657
  132OSM    H9T14276   4.053   2.614   5.774  0.0549 -2.3265 -1.8868
  132OSM   C10S14277   3.951   2.796   5.679  0.2146  0.4183  0.4293
  132OSM   H10S14278   4.033   2.858   5.723  1.1069 -1.0078  0.8368
  132OSM   H10T14279   3.853   2.848   5.688  0.4173  0.4925  3.2285
  132OSM   C11S14280   3.977   2.773   5.531 -0.5394 -0.1519  0.0603
  132OSM   H11S14281   3.893   2.717   5.486  0.7658 -1.2994 -1.0514
  132OSM   H11T14282   4.066   2.708   5.518 -0.6434 -0.1405 -0.7993
  132OSM   C12S14283   3.986   2.904   5.449 -0.3159 -0.2838 -0.2943
  132OSM   H12S14284   4.075   2.960   5.483 -1.2512  1.6019 -0.8602
  132OSM   H12T14285   3.901   2.970   5.475 -0.5682 -0.2687 -1.1377
  132OSM   C13S14286   4.009   2.880   5.299  0.5101 -0.3684 -0.7064
  132OSM   H13S14287   3.909   2.890   5.251  0.5534 -1.0437 -0.9394
  132OSM   H13T14288   4.046   2.776   5.293  0.3519 -0.5109  0.5264
  132OSM   C14S14289   4.112   2.975   5.238 -0.3936 -0.2708  0.1400
  132OSM   H14S14290   4.206   2.966   5.296  0.2851  3.2674 -0.2078
  132OSM   H14T14291   4.068   3.077   5.238 -3.2778 -1.4071 -1.3750
  132OSM   C15S14292   4.149   2.944   5.088  0.6078 -0.4785  0.5710
  132OSM   H15S14293   4.190   2.841   5.083  2.7845  0.3499 -3.6782
  132OSM   H15T14294   4.231   3.009   5.051  0.9218 -1.2089 -0.0248
  132OSM   C16S14295   4.022   2.960   4.998 -0.2738  0.0736  0.7685
  132OSM   H16S14296   4.000   3.069   4.993 -0.9868 -0.1260 -1.4532
  132OSM   H16T14297   3.932   2.903   5.032  1.2058 -3.4941 -0.7809
  132OSM   C17S14298   4.050   2.907   4.855  0.2495 -0.3706  0.6134
  132OSM   H17S14299   3.956   2.916   4.797  0.2768  1.8066  0.8153
  132OSM   H17T14300   4.071   2.798   4.859 -0.2841 -0.4540  1.3777
  132OSM   C18S14301   4.158   2.981   4.783  0.5047  0.0667 -0.3535
  132OSM   H18S14302   4.127   3.088   4.790 -3.6910 -1.0158  0.2317
  132OSM   H18T14303   4.158   2.949   4.677  0.4065  0.0336 -0.3432
  132OSM   H18U14304   4.259   2.964   4.826  0.1569 -3.4077 -0.6252
  132OSM    C1F14305   3.457   2.140   5.915 -0.1926  0.2442  0.2337
  132OSM     OF14306   3.350   2.117   5.967 -0.4790 -0.1203  0.4263
  132OSM    C2F14307   3.475   2.150   5.770  0.1386 -0.0588  0.6395
  132OSM    H2F14308   3.582   2.127   5.750  0.1536 -0.8001  1.4852
  132OSM    H2G14309   3.439   2.252   5.745  2.2136  1.4117  3.0803
  132OSM    C3F14310   3.388   2.056   5.675 -0.1083 -0.4290  0.2233
  132OSM    H3F14311   3.427   2.055   5.571  1.9809  2.2663  0.8535
  132OSM    H3G14312   3.290   2.105   5.661  0.4750  0.4637 -0.8504
  132OSM    C4F14313   3.388   1.913   5.725 -0.0923 -0.1847  0.1989
  132OSM    H4F14314   3.349   1.848   5.644 -0.1280 -1.5893  1.3020
  132OSM    H4G14315   3.317   1.892   5.807 -1.4604  0.1497 -0.8690
  132OSM    C5F14316   3.530   1.854   5.765  0.0902 -0.3133 -0.3643
  132OSM    H5F14317   3.509   1.751   5.800  0.9306 -0.9321 -1.5738
  132OSM    H5G14318   3.562   1.906   5.858 -1.3946 -2.5876  1.5368
  132OSM    C6F14319   3.643   1.846   5.660 -0.0898 -0.3563 -0.2354
  132OSM    H6F14320   3.739   1.826   5.712 -0.9426 -0.4892  1.3530
  132OSM    H6G14321   3.639   1.952   5.625  1.1536  0.1594  1.0722
  132OSM    C7F14322   3.608   1.758   5.549 -0.2529  0.2929  0.7730
  132OSM    H7F14323   3.499   1.767   5.528  0.2273  2.5506 -1.2253
  132OSM    H7G14324   3.623   1.650   5.571 -0.1215  0.0830 -0.2939
  132OSM    C8F14325   3.682   1.785   5.419 -0.1600 -0.2131 -0.5422
  132OSM    H8F14326   3.783   1.745   5.443 -1.0906 -2.0570  0.4748
  132OSM    H8G14327   3.689   1.895   5.404  0.8337 -0.1903 -0.0066
  132OSM    C9F14328   3.628   1.715   5.295 -0.7581 -0.3033  0.1814
  132OSM    H9F14329   3.676   1.619   5.274  1.3275  0.7505 -0.1390
  132OSM   C10F14330   3.569   1.773   5.191  0.4857 -0.5263 -0.3575
  132OSM   H10F14331   3.538   1.705   5.111  1.9804 -2.1312  0.3689
  132OSM   C11F14332   3.502   1.910   5.199 -0.3455  0.0033 -0.2753
  132OSM   H11F14333   3.575   1.994   5.198 -0.8453  0.4707 -2.3966
  132OSM   H11G14334   3.451   1.909   5.298  2.1316 -2.1217  1.1046
  132OSM   C12F14335   3.382   1.916   5.104 -0.2828  0.0155  0.2794
  132OSM   H12F14336   3.323   2.008   5.121 -0.3855 -0.2207  1.2796
  132OSM   H12G14337   3.308   1.833   5.109  0.6224 -0.8145  0.3863
  132OSM   C13F14338   3.428   1.921   4.960 -0.4928 -0.1130 -0.0694
  132OSM   H13F14339   3.475   1.824   4.932 -0.8584 -0.5588  0.8161
  132OSM   H13G14340   3.506   2.000   4.960 -1.5205  0.9466 -2.1628
  132OSM   C14F14341   3.324   1.960   4.850 -0.0193 -0.2162  0.1196
  132OSM   H14F14342   3.275   2.056   4.877  1.7891  0.8526 -0.2034
  132OSM   H14G14343   3.246   1.881   4.846  0.3597 -0.5593 -0.9426
  132OSM   C15F14344   3.385   1.984   4.716  0.6034 -0.0038  0.6109
  132OSM   H15F14345   3.436   1.888   4.695 -3.5307 -2.4772  0.7862
  132OSM   H15G14346   3.453   2.072   4.717  0.2869  0.2675  2.8119
  132OSM   C16F14347   3.277   2.016   4.605  0.3234 -0.0733  0.4974
  132OSM   H16F14348   3.216   2.101   4.642  1.7783  0.5866  1.4426
  132OSM   H16G14349   3.206   1.931   4.590 -4.0215  3.2831 -0.2593
  132OSM   C17F14350   3.351   2.035   4.470  0.8768 -0.5018  0.6462
  132OSM   H17F14351   3.405   1.941   4.444  2.0784  1.0922 -3.2347
  132OSM   H17G14352   3.427   2.116   4.477  0.8442 -0.2928 -1.0544
  132OSM   C18F14353   3.259   2.075   4.351 -0.1391  0.2541 -0.9740
  132OSM   H18F14354   3.310   2.059   4.254  0.4937  2.8721 -1.1358
  132OSM   H18G14355   3.226   2.181   4.360  1.6432  0.8480 -0.9079
  132OSM   H18H14356   3.168   2.012   4.362  0.4544 -0.5527 -0.5080
  133OSM      N14357   0.716   5.088   6.314 -0.5172 -1.0081 -0.0258
  133OSM    C1514358   0.779   5.149   6.194  0.2901  0.4520  0.1928
  133OSM   H15A14359   0.882   5.179   6.205  0.6287  1.0046 -3.3207
  133OSM   H15B14360   0.719   5.235   6.168 -1.1895  0.5508  3.5134
  133OSM   H15C14361   0.770   5.083   6.109 -1.4375  1.4923 -0.4982
  133OSM    C1414362   0.697   5.188   6.430 -0.1665 -0.6887 -0.0976
  133OSM   H14A14363   0.782   5.247   6.460 -0.0469 -0.9400  0.0643
  133OSM   H14B14364   0.650   5.131   6.509 -1.0432 -0.2671 -0.3001
  133OSM   H14C14365   0.630   5.266   6.397  1.2350  0.0322 -1.3164
  133OSM    C1314366   0.582   5.037   6.274  0.4035  0.2820 -0.3583
  133OSM   H13A14367   0.522   5.119   6.238  2.5120  1.9982 -0.1791
  133OSM   H13B14368   0.530   4.992   6.358 -2.9200 -2.4548 -3.5675
  133OSM   H13C14369   0.585   4.961   6.198 -0.6160 -2.2397  1.9746
  133OSM    C1214370   0.808   4.978   6.366  0.3010 -0.1371 -0.8450
  133OSM   H12A14371   0.908   5.014   6.382  0.1792 -0.6103  1.3521
  133OSM   H12B14372   0.818   4.901   6.291 -0.2436  0.3803 -1.4600
  133OSM    C1114373   0.750   4.893   6.485 -0.7218 -0.3216 -0.1200
  133OSM   H11A14374   0.730   4.960   6.572  0.3809  1.0610 -0.8823
  133OSM   H11B14375   0.833   4.830   6.523 -1.7949 -0.7308  1.6591
  133OSM      P14376   0.643   4.686   6.354 -0.0875  0.0810 -0.3312
  133OSM    O1314377   0.738   4.601   6.430  0.0102  0.2111 -0.0304
  133OSM    O1414378   0.504   4.634   6.333  0.1466  0.7482  0.0039
  133OSM    O1114379   0.717   4.739   6.221  0.4506  0.4375  0.3044
  133OSM    O1214380   0.643   4.817   6.435 -0.1678 -0.0098  0.2796
  133OSM    C1S14381   0.784   4.648   6.137 -0.1264 -0.2641 -0.3974
  133OSM    H1S14382   0.788   4.544   6.177  1.2495  1.1474  3.5985
  133OSM    H1T14383   0.891   4.674   6.128 -0.6782  3.4410  1.6654
  133OSM     NF14384   0.776   4.557   5.902 -0.3327  0.3316 -0.0625
  133OSM    HNF14385   0.833   4.590   5.827 -0.5562  1.9943  0.4585
  133OSM    C2S14386   0.723   4.658   5.994  0.2726 -0.1165 -0.2988
  133OSM    H2S14387   0.615   4.633   6.006 -0.2175  2.3046  1.1476
  133OSM    C3S14388   0.726   4.805   5.941  0.1467 -0.4527  0.3633
  133OSM    H3S14389   0.833   4.831   5.934  0.6804 -1.8267  2.4170
  133OSM     O314390   0.687   4.914   6.023 -0.6267  0.2869 -0.5289
  133OSM    HO314391   0.679   4.881   6.113 -1.7087  1.2217 -0.2539
  133OSM    C4S14392   0.652   4.809   5.805  0.2825 -0.7231  0.3538
  133OSM    H4S14393   0.551   4.767   5.796 -0.9140  1.6104  1.8332
  133OSM    C5S14394   0.705   4.862   5.695  0.4171  0.0081  0.0130
  133OSM    H5S14395   0.809   4.898   5.686  0.5080 -0.5059 -1.2145
  133OSM    C6S14396   0.645   4.855   5.557 -0.1839  0.6933  1.0062
  133OSM    H6S14397   0.627   4.960   5.526  0.0497  0.4071 -0.1436
  133OSM    H6T14398   0.551   4.795   5.558  1.8537 -2.7653 -0.0017
  133OSM    C7S14399   0.740   4.794   5.457  0.1523  0.1469  0.0664
  133OSM    H7S14400   0.756   4.689   5.488  0.1727 -0.1822 -0.9980
  133OSM    H7T14401   0.838   4.845   5.462  0.8835 -1.2307  0.2149
  133OSM    C8S14402   0.682   4.798   5.321  0.7957 -0.2831  0.6206
  133OSM    H8S14403   0.620   4.890   5.322  0.1171 -0.7319  0.5463
  133OSM    H8T14404   0.604   4.718   5.315  0.7252 -0.1475 -0.6431
  133OSM    C9S14405   0.783   4.813   5.213  0.2220 -0.1134 -0.0298
  133OSM    H9S14406   0.857   4.731   5.225  1.5439  0.8051 -1.5528
  133OSM    H9T14407   0.839   4.907   5.230 -0.0498  0.2311 -0.9943
  133OSM   C10S14408   0.724   4.798   5.069 -0.8259  0.1016  0.1352
  133OSM   H10S14409   0.651   4.877   5.042  0.4507  1.0253 -0.7540
  133OSM   H10T14410   0.663   4.705   5.070 -2.5060  1.1625  0.1864
  133OSM   C11S14411   0.833   4.793   4.965 -0.4508 -0.4634 -0.5386
  133OSM   H11S14412   0.872   4.690   4.977 -0.8031 -0.5538 -0.1108
  133OSM   H11T14413   0.907   4.875   4.974 -0.3000 -0.5759 -0.7461
  133OSM   C12S14414   0.776   4.796   4.822 -0.5936  0.8110  0.0222
  133OSM   H12S14415   0.691   4.725   4.822  0.0514 -0.2405  4.5429
  133OSM   H12T14416   0.853   4.745   4.760 -1.8017  0.3073 -1.0975
  133OSM   C13S14417   0.746   4.932   4.758 -0.6814  0.3203  0.3047
  133OSM   H13S14418   0.721   5.002   4.841 -1.0590  1.3163 -0.6255
  133OSM   H13T14419   0.654   4.927   4.695 -1.9154 -0.5068  2.0728
  133OSM   C14S14420   0.870   4.986   4.683  0.6888  0.6113  0.6908
  133OSM   H14S14421   0.906   4.902   4.620  0.0357  1.1001 -0.3744
  133OSM   H14T14422   0.954   5.006   4.752  1.5982 -4.4601  1.4280
  133OSM   C15S14423   0.850   5.090   4.574  0.4781  0.0321 -0.3232
  133OSM   H15S14424   0.954   5.112   4.541  0.6042  1.5172  0.9637
  133OSM   H15T14425   0.807   5.180   4.623  1.0437  0.7728 -1.1503
  133OSM   C16S14426   0.760   5.050   4.455  0.2701  0.5301  0.3866
  133OSM   H16S14427   0.740   5.140   4.394  2.5843  1.0538  0.3246
  133OSM   H16T14428   0.666   5.000   4.488  1.1305 -1.0776  0.4812
  133OSM   C17S14429   0.825   4.958   4.347  0.6824 -0.3200  0.1493
  133OSM   H17S14430   0.870   4.870   4.398 -0.1292  0.9014  3.1327
  133OSM   H17T14431   0.900   5.024   4.299 -0.3614 -0.1808 -1.3631
  133OSM   C18S14432   0.734   4.920   4.235 -0.7831 -0.1525 -0.0210
  133OSM   H18S14433   0.787   4.840   4.180  0.8001 -1.0531  2.6264
  133OSM   H18T14434   0.704   4.999   4.163  2.7659  0.6961 -0.7374
  133OSM   H18U14435   0.634   4.877   4.260  0.0748 -1.2406  1.7112
  133OSM    C1F14436   0.757   4.431   5.920 -0.0991  0.2847 -0.2736
  133OSM     OF14437   0.690   4.384   6.012  0.2214  0.6835 -0.0476
  133OSM    C2F14438   0.843   4.342   5.829 -0.8563 -0.1762 -1.2058
  133OSM    H2F14439   0.873   4.254   5.889  1.2950  1.2737 -0.0158
  133OSM    H2G14440   0.932   4.402   5.798 -0.8276 -0.2900 -1.3423
  133OSM    C3F14441   0.764   4.287   5.707  0.2351 -0.6805 -0.1971
  133OSM    H3F14442   0.710   4.368   5.654 -1.3247 -0.2958  1.8312
  133OSM    H3G14443   0.691   4.211   5.745 -1.0311  1.9022  3.0222
  133OSM    C4F14444   0.865   4.205   5.622 -0.6425 -0.2381 -0.1507
  133OSM    H4F14445   0.812   4.174   5.530 -0.6925  2.7155 -1.2114
  133OSM    H4G14446   0.910   4.118   5.675 -1.0884  0.6143  1.6978
  133OSM    C5F14447   0.978   4.294   5.569 -1.0066 -0.0078 -0.1928
  133OSM    H5F14448   1.055   4.308   5.648  0.2349 -1.6195 -1.0488
  133OSM    H5G14449   0.940   4.394   5.540  2.2137  1.4080  0.0309
  133OSM    C6F14450   1.053   4.237   5.432 -0.1204  0.4995 -0.5568
  133OSM    H6F14451   1.124   4.313   5.394 -0.8159  0.5602 -1.8012
  133OSM    H6G14452   0.976   4.226   5.352 -0.8791  0.1707  0.1995
  133OSM    C7F14453   1.124   4.105   5.451 -0.1956  0.9483  0.6532
  133OSM    H7F14454   1.073   4.019   5.499  1.9526  0.2859  1.8992
  133OSM    H7G14455   1.211   4.133   5.514  1.2016 -0.5550 -0.5447
  133OSM    C8F14456   1.179   4.048   5.316  0.1883 -0.3536 -0.8051
  133OSM    H8F14457   1.095   4.014   5.252 -1.1458  1.7136 -0.2269
  133OSM    H8G14458   1.247   3.966   5.347  0.6582  0.4442  0.3351
  133OSM    C9F14459   1.257   4.163   5.247  0.6806  0.3201 -0.2814
  133OSM    H9F14460   1.300   4.235   5.318  0.5688  0.0770  0.0331
  133OSM   C10F14461   1.252   4.193   5.119  0.8923 -0.0156  0.0627
  133OSM   H10F14462   1.324   4.270   5.087 -0.3288  1.1529  0.0452
  133OSM   C11F14463   1.186   4.108   5.015  0.0993  0.2114 -0.1491
  133OSM   H11F14464   1.075   4.109   5.019  0.1039  0.5780  0.0293
  133OSM   H11G14465   1.221   4.003   5.022  3.5704  1.3011  1.0331
  133OSM   C12F14466   1.216   4.165   4.872 -0.2093 -0.5340  0.2125
  133OSM   H12F14467   1.189   4.273   4.869  1.6530 -0.0404 -0.5777
  133OSM   H12G14468   1.153   4.105   4.803  1.5718 -1.7732 -0.3943
  133OSM   C13F14469   1.361   4.160   4.834 -0.4663 -0.3311 -0.4054
  133OSM   H13F14470   1.374   4.095   4.746 -1.1783 -2.9860  1.3314
  133OSM   H13G14471   1.427   4.111   4.909  0.2467  1.3279  0.1105
  133OSM   C14F14472   1.414   4.302   4.795 -0.3207  0.6909 -0.0295
  133OSM   H14F14473   1.441   4.366   4.882  1.4449  0.5471 -0.4245
  133OSM   H14G14474   1.337   4.349   4.731  0.5966  1.9284 -0.2681
  133OSM   C15F14475   1.548   4.291   4.716 -0.1804 -0.1350  0.2776
  133OSM   H15F14476   1.546   4.222   4.629 -1.7477  0.2643 -0.0332
  133OSM   H15G14477   1.624   4.244   4.783  0.7269  0.4260 -0.3266
  133OSM   C16F14478   1.605   4.428   4.666 -0.1259 -0.4404  0.5764
  133OSM   H16F14479   1.709   4.416   4.627 -0.4368 -1.5523  0.0353
  133OSM   H16G14480   1.630   4.494   4.752  1.3848  0.5488 -0.5750
  133OSM   C17F14481   1.522   4.489   4.562 -0.4133 -0.1277 -0.1863
  133OSM   H17F14482   1.416   4.502   4.592 -0.3266 -0.3204  0.2097
  133OSM   H17G14483   1.519   4.424   4.472 -0.3827 -0.3055 -0.0610
  133OSM   C18F14484   1.592   4.623   4.527  0.4846 -0.0154 -0.2170
  133OSM   H18F14485   1.589   4.696   4.610  1.4856 -0.5678  0.3325
  133OSM   H18G14486   1.538   4.671   4.442 -1.0980  0.1319  0.8377
  133OSM   H18H14487   1.701   4.614   4.508  0.2529 -0.5824 -1.4506
  134OSM      N14488   0.101   0.220   6.641 -0.6604 -0.2389 -0.2308
  134OSM    C1514489   0.174   0.164   6.519  0.5844  0.8813 -0.0826
  134OSM   H15A14490   0.113   0.093   6.465  0.7345 -1.1090  2.1926
  134OSM   H15B14491   0.267   0.116   6.548 -1.2311 -2.0173  1.3329
  134OSM   H15C14492   0.214   0.228   6.441  2.3526 -2.3186 -2.0267
  134OSM    C1414493   0.086   0.114   6.744  0.5130 -0.4225 -0.1072
  134OSM   H14A14494   0.009   0.043   6.719 -0.5580  0.4028  0.7815
  134OSM   H14B14495   0.048   0.150   6.838 -0.7412 -1.4754 -0.1816
  134OSM   H14C14496   0.178   0.058   6.757 -0.6993 -2.9583 -1.7572
  134OSM    C1314497   0.185   0.337   6.695  0.2657 -0.0870  0.2469
  134OSM   H13A14498   0.278   0.301   6.737 -0.2876 -1.2377  0.5045
  134OSM   H13B14499   0.130   0.386   6.775  0.2930 -0.5836  0.5765
  134OSM   H13C14500   0.204   0.412   6.619 -0.3504  0.9575  1.0942
  134OSM    C1214501  -0.026   0.275   6.598 -0.5461  0.3845 -0.0195
  134OSM   H12A14502  -0.090   0.203   6.549  0.2430  0.3707 -1.0633
  134OSM   H12B14503  -0.015   0.341   6.513  3.3477 -0.7724 -0.5854
  134OSM    C1114504  -0.110   0.350   6.707  0.2982  0.0781  0.6318
  134OSM   H11A14505  -0.050   0.433   6.748  1.2366 -0.5110  0.4774
  134OSM   H11B14506  -0.147   0.280   6.785 -1.9856 -0.9020 -1.1970
  134OSM      P14507  -0.359   0.349   6.618  0.1834  0.0473 -0.3010
  134OSM    O1314508  -0.380   0.240   6.711 -0.6735  0.2175  0.4215
  134OSM    O1414509  -0.454   0.462   6.635  0.1203  0.1295 -0.2658
  134OSM    O1114510  -0.379   0.291   6.475 -0.4230 -0.2389  0.1190
  134OSM    O1214511  -0.213   0.407   6.630  0.4607  0.1709 -0.3529
  134OSM    C1S14512  -0.315   0.358   6.371  0.3698 -0.8042  0.1529
  134OSM    H1S14513  -0.204   0.357   6.383  0.7470  2.5593 -1.7772
  134OSM    H1T14514  -0.362   0.454   6.342 -0.5460 -2.0982 -3.1666
  134OSM     NF14515  -0.257   0.302   6.141  0.1372 -0.5573  0.2058
  134OSM    HNF14516  -0.311   0.337   6.065 -0.6313 -1.6980  0.1932
  134OSM    C2S14517  -0.343   0.267   6.253  0.0361  0.3937 -0.0706
  134OSM    H2S14518  -0.317   0.161   6.277  0.5947  0.2126 -1.4189
  134OSM    C3S14519  -0.497   0.272   6.218  0.1576  0.5332 -0.3119
  134OSM    H3S14520  -0.521   0.378   6.196  0.7922  0.4106 -1.7024
  134OSM     O314521  -0.594   0.243   6.320 -0.4057 -0.0998  0.3215
  134OSM    HO314522  -0.548   0.250   6.404  1.2425  0.0174 -0.5469
  134OSM    C4S14523  -0.520   0.184   6.099  0.1171 -0.2069 -0.1016
  134OSM    H4S14524  -0.537   0.238   6.005  1.2895 -0.1199 -0.2728
  134OSM    C5S14525  -0.531   0.048   6.107 -0.3117  0.3057 -0.1372
  134OSM    H5S14526  -0.504   0.001   6.203  1.1983 -0.0756 -0.7086
  134OSM    C6S14527  -0.547  -0.044   5.990 -0.3680 -0.4485  0.5743
  134OSM    H6S14528  -0.640  -0.106   5.990 -0.9271  0.3208 -1.2482
  134OSM    H6T14529  -0.460  -0.112   5.999  1.0757  1.3918  1.0441
  134OSM    C7S14530  -0.546   0.024   5.853  0.4210 -0.0153 -0.1023
  134OSM    H7S14531  -0.454   0.085   5.836  0.5714 -0.5399 -1.2895
  134OSM    H7T14532  -0.635   0.090   5.852 -0.4148 -1.1014 -0.9605
  134OSM    C8S14533  -0.567  -0.070   5.737  1.0462 -0.1555 -0.5101
  134OSM    H8S14534  -0.662  -0.125   5.753  0.5845  0.6014 -0.6498
  134OSM    H8T14535  -0.499  -0.158   5.736  0.5448 -0.5415 -1.8645
  134OSM    C9S14536  -0.571   0.005   5.606 -0.5161 -0.5960  0.6797
  134OSM    H9S14537  -0.485   0.075   5.602  1.3600 -2.7988  0.2317
  134OSM    H9T14538  -0.668   0.058   5.593  0.4189  0.7935 -0.9802
  134OSM   C10S14539  -0.550  -0.083   5.485 -0.7544 -0.2595  0.4075
  134OSM   H10S14540  -0.635  -0.155   5.481  0.9052 -2.3094  0.1360
  134OSM   H10T14541  -0.451  -0.135   5.481  0.2104  1.5843 -0.6532
  134OSM   C11S14542  -0.564   0.004   5.362  0.0358 -0.0934  0.1292
  134OSM   H11S14543  -0.493   0.088   5.374 -0.7679  0.8654 -1.4866
  134OSM   H11T14544  -0.662   0.055   5.351  0.2207  0.2221 -0.0603
  134OSM   C12S14545  -0.550  -0.080   5.229 -0.0196 -0.1757 -0.1092
  134OSM   H12S14546  -0.631  -0.155   5.235 -0.8553  0.5636 -1.5825
  134OSM   H12T14547  -0.452  -0.133   5.234  0.6823  1.0071 -0.6704
  134OSM   C13S14548  -0.563   0.002   5.102 -0.4998 -0.7689  0.5242
  134OSM   H13S14549  -0.476   0.071   5.090 -1.7857  0.3992 -4.7030
  134OSM   H13T14550  -0.656   0.063   5.103  0.6255  1.0212  1.9047
  134OSM   C14S14551  -0.578  -0.089   4.974  1.5512 -0.3627 -0.3326
  134OSM   H14S14552  -0.662  -0.162   4.982 -0.2056  1.4437 -1.3242
  134OSM   H14T14553  -0.487  -0.151   4.986  2.2372  0.7489  0.4202
  134OSM   C15S14554  -0.572  -0.018   4.832 -0.4108 -0.0215  0.2334
  134OSM   H15S14555  -0.508   0.070   4.851 -0.0785 -0.2382  0.1329
  134OSM   H15T14556  -0.672   0.025   4.807  0.5351  1.8685 -0.4112
  134OSM   C16S14557  -0.520  -0.102   4.714  0.0592  0.0756 -0.8687
  134OSM   H16S14558  -0.579  -0.196   4.719 -1.0437  0.8068  1.3987
  134OSM   H16T14559  -0.416  -0.130   4.741 -0.4909 -1.1223  0.1183
  134OSM   C17S14560  -0.532  -0.031   4.584 -0.5238  0.0207 -0.5239
  134OSM   H17S14561  -0.639  -0.006   4.575 -0.4676  0.6957  0.5451
  134OSM   H17T14562  -0.504  -0.094   4.496  0.1206  1.5791 -1.4736
  134OSM   C18S14563  -0.434   0.084   4.577 -0.2950  0.3612 -0.3783
  134OSM   H18S14564  -0.433   0.143   4.671 -1.6414  0.9251 -0.6943
  134OSM   H18T14565  -0.444   0.145   4.484  1.2661  1.0481 -0.1329
  134OSM   H18U14566  -0.332   0.044   4.557 -1.1033 -1.7659 -0.4674
  134OSM    C1F14567  -0.125   0.276   6.135  0.2448  0.4266  0.8845
  134OSM     OF14568  -0.065   0.209   6.217 -0.4396  0.8300 -0.1306
  134OSM    C2F14569  -0.052   0.334   6.018 -0.4094 -0.7281 -0.0731
  134OSM    H2F14570  -0.017   0.430   6.061 -2.3543  0.6527 -1.3823
  134OSM    H2G14571  -0.134   0.356   5.946 -0.8016  0.4638  0.7116
  134OSM    C3F14572   0.065   0.261   5.958 -0.8346  0.0964  0.8630
  134OSM    H3F14573   0.038   0.160   5.920  0.9819 -0.1185  0.0257
  134OSM    H3G14574   0.149   0.254   6.030 -0.1113 -0.1151  0.0204
  134OSM    C4F14575   0.125   0.322   5.830  0.1330  0.3685 -0.5273
  134OSM    H4F14576   0.212   0.257   5.806  0.8408  0.3667  1.7638
  134OSM    H4G14577   0.170   0.414   5.874  0.3974 -0.0306  0.0582
  134OSM    C5F14578   0.033   0.357   5.709  0.5833 -0.1168  0.2032
  134OSM    H5F14579  -0.041   0.433   5.743  0.5809 -0.0872  0.1337
  134OSM    H5G14580  -0.019   0.262   5.681  0.8986 -0.2827  0.1705
  134OSM    C6F14581   0.091   0.418   5.577 -0.1134 -0.1970 -0.4750
  134OSM    H6F14582   0.149   0.336   5.529 -1.6459 -1.8166  0.3515
  134OSM    H6G14583   0.156   0.504   5.603 -0.2640 -0.5609  1.2020
  134OSM    C7F14584  -0.025   0.459   5.488  0.0197 -0.2940  0.3436
  134OSM    H7F14585  -0.078   0.538   5.545 -1.6406 -0.7876 -0.4765
  134OSM    H7G14586  -0.097   0.375   5.483  2.3568 -2.3733 -0.0369
  134OSM    C8F14587   0.015   0.524   5.355 -0.1708  0.2838 -0.2152
  134OSM    H8F14588   0.103   0.464   5.322  1.0336  2.3064 -0.8600
  134OSM    H8G14589   0.060   0.624   5.375 -0.1605  0.0113  1.2190
  134OSM    C9F14590  -0.094   0.515   5.247 -0.2001  0.3057  0.5629
  134OSM    H9F14591  -0.185   0.560   5.291 -1.3452  1.0981 -2.4185
  134OSM   C10F14592  -0.094   0.464   5.123 -0.0367  0.0005  0.6901
  134OSM   H10F14593  -0.179   0.486   5.058  0.7322  0.4633 -0.1865
  134OSM   C11F14594   0.028   0.381   5.076  0.8813  0.2354 -0.0341
  134OSM   H11F14595  -0.003   0.274   5.078  0.4561  0.3422 -0.7713
  134OSM   H11G14596   0.120   0.394   5.138 -0.0905  0.3209  1.4544
  134OSM   C12F14597   0.058   0.407   4.923  0.2552 -0.0694 -0.7370
  134OSM   H12F14598   0.137   0.337   4.888 -1.1454 -1.8254 -0.4993
  134OSM   H12G14599   0.092   0.512   4.909 -0.9735  0.4743  0.1311
  134OSM   C13F14600  -0.061   0.392   4.829 -0.6267  0.2121  0.3790
  134OSM   H13F14601  -0.128   0.477   4.856  0.2399  1.3612 -0.9720
  134OSM   H13G14602  -0.120   0.303   4.859  1.3653 -1.0870  0.6435
  134OSM   C14F14603  -0.031   0.407   4.675 -0.2663  0.4213  0.4621
  134OSM   H14F14604   0.049   0.337   4.644  0.0797  0.6905  0.7243
  134OSM   H14G14605   0.001   0.510   4.647 -1.1588  1.1667  2.0165
  134OSM   C15F14606  -0.145   0.381   4.580 -0.3738 -0.3037 -0.3136
  134OSM   H15F14607  -0.228   0.449   4.609  0.4420 -0.0590  1.6489
  134OSM   H15G14608  -0.182   0.279   4.601 -3.2776  0.4862 -1.1732
  134OSM   C16F14609  -0.125   0.390   4.430  0.8353 -0.0126 -0.1780
  134OSM   H16F14610  -0.035   0.329   4.407  0.5045 -0.1913 -1.0311
  134OSM   H16G14611  -0.106   0.497   4.407 -1.7292  0.8665  1.4307
  134OSM   C17F14612  -0.228   0.334   4.342  0.4635 -0.6432  1.3548
  134OSM   H17F14613  -0.231   0.224   4.353 -3.5252 -1.0878 -1.7193
  134OSM   H17G14614  -0.194   0.359   4.239  1.8611  0.2240  1.9991
  134OSM   C18F14615  -0.370   0.386   4.371  0.5592 -1.0049 -0.3258
  134OSM   H18F14616  -0.369   0.497   4.366  0.9900 -0.9503  0.6738
  134OSM   H18G14617  -0.412   0.355   4.469  0.7348  1.9684  0.7995
  134OSM   H18H14618  -0.449   0.362   4.296 -3.0315  0.9926  2.4791
  135OSM      N14619   0.078   5.465   6.841 -0.4546  0.1174 -0.3698
  135OSM    C1514620  -0.000   5.406   6.957  0.5344  0.5141  0.2127
  135OSM   H15A14621  -0.028   5.481   7.030 -1.5081  0.2553 -0.2294
  135OSM   H15B14622   0.059   5.327   7.002  1.3744  1.0641  0.0906
  135OSM   H15C14623  -0.082   5.340   6.931  1.9888 -1.5704  0.6660
  135OSM    C1414624   0.203   5.521   6.904 -0.1909  0.1344 -0.5032
  135OSM   H14A14625   0.185   5.593   6.982  1.3598  0.1502 -0.1288
  135OSM   H14B14626   0.274   5.574   6.843  2.8633  0.9555  3.3613
  135OSM   H14C14627   0.262   5.442   6.947  0.7686  0.7041 -0.7545
  135OSM    C1314628   0.120   5.359   6.747  0.3900 -0.3192 -0.7335
  135OSM   H13A14629   0.040   5.311   6.692 -1.3792 -0.9475  2.1596
  135OSM   H13B14630   0.175   5.278   6.793 -0.6848  0.4797  2.1707
  135OSM   H13C14631   0.193   5.400   6.679  1.5592 -1.5137 -0.2469
  135OSM    C1214632  -0.000   5.581   6.779 -0.0504 -0.3265  0.6773
  135OSM   H12A14633  -0.018   5.655   6.856  0.5429  0.1513  0.3596
  135OSM   H12B14634  -0.093   5.532   6.756  0.5813  0.2295 -3.8094
  135OSM    C1114635   0.046   5.665   6.656 -0.3428  0.3455  0.0750
  135OSM   H11A14636  -0.041   5.732   6.639 -2.0240 -1.5508  0.7432
  135OSM   H11B14637   0.076   5.600   6.571 -1.4786  1.7654 -1.4778
  135OSM      P14638   0.157   5.867   6.778 -0.1888 -0.2010 -0.4506
  135OSM    O1314639   0.024   5.884   6.848  0.4562 -0.6159  0.2607
  135OSM    O1414640   0.277   5.883   6.865  0.5643  0.8001 -0.2915
  135OSM    O1114641   0.145   5.971   6.664 -0.8620 -0.1840  0.4286
  135OSM    O1214642   0.168   5.730   6.702 -0.4869  0.2719  0.3836
  135OSM    C1S14643   0.204   5.956   6.533 -0.1616 -0.2801  0.6123
  135OSM    H1S14644   0.269   5.866   6.523  1.6643  0.8721  1.5776
  135OSM    H1T14645   0.265   6.046   6.514 -1.1079  0.8508  2.6037
  135OSM     NF14646   0.150   5.937   6.283  0.1071  0.2319 -0.1214
  135OSM    HNF14647   0.152   6.026   6.238 -2.0107  0.4378  0.0522
  135OSM    C2S14648   0.090   5.949   6.420  0.0706 -0.0403 -0.2103
  135OSM    H2S14649   0.037   5.852   6.428 -0.2852  0.2758  1.8474
  135OSM    C3S14650  -0.023   6.057   6.436 -0.9722 -0.5535  0.0572
  135OSM    H3S14651   0.020   6.160   6.438 -1.3314 -0.4171  1.4327
  135OSM     O314652  -0.093   6.048   6.554 -0.6344  0.3097  0.2064
  135OSM    HO314653  -0.033   5.995   6.607 -0.7138  0.0331  0.0184
  135OSM    C4S14654  -0.115   6.052   6.321 -0.2605  0.1249  0.5291
  135OSM    H4S14655  -0.154   5.952   6.298  0.5186 -0.3672  1.2640
  135OSM    C5S14656  -0.156   6.154   6.244  1.0110  0.0042 -0.2370
  135OSM    H5S14657  -0.109   6.253   6.256 -1.5291  1.4469 -1.3046
  135OSM    C6S14658  -0.266   6.142   6.132  0.2675 -0.3366 -0.2521
  135OSM    H6S14659  -0.325   6.235   6.145 -0.9888 -1.4489  3.1286
  135OSM    H6T14660  -0.332   6.056   6.153  1.6149 -0.9562  1.8208
  135OSM    C7S14661  -0.202   6.125   5.991 -0.9383 -0.2808 -0.3089
  135OSM    H7S14662  -0.137   6.036   6.002 -2.1857 -1.0632  1.0188
  135OSM    H7T14663  -0.132   6.210   5.977 -1.4819  0.1252 -0.6541
  135OSM    C8S14664  -0.298   6.108   5.878  0.4876 -0.5145  0.0536
  135OSM    H8S14665  -0.353   6.205   5.869  1.1449  0.0258  1.4270
  135OSM    H8T14666  -0.353   6.013   5.893 -2.3587  0.9439 -0.3554
  135OSM    C9S14667  -0.231   6.095   5.744  0.1049  0.0931  0.4856
  135OSM    H9S14668  -0.162   6.008   5.737  1.2706  0.9660  0.8590
  135OSM    H9T14669  -0.167   6.184   5.727 -2.4925  1.8166 -0.9845
  135OSM   C10S14670  -0.329   6.084   5.622  0.1750 -0.5865  0.1713
  135OSM   H10S14671  -0.394   6.172   5.640  0.1562 -0.4183 -0.6857
  135OSM   H10T14672  -0.396   5.996   5.630 -0.9180  0.1293 -0.9098
  135OSM   C11S14673  -0.266   6.086   5.477  0.5271  0.3260 -0.8482
  135OSM   H11S14674  -0.173   6.027   5.491  0.9854  1.3114  0.3990
  135OSM   H11T14675  -0.230   6.188   5.454  2.1540 -0.0114  0.0623
  135OSM   C12S14676  -0.363   6.048   5.362 -0.1418 -0.7934 -0.1793
  135OSM   H12S14677  -0.453   6.113   5.371  0.3524 -0.3986  3.2900
  135OSM   H12T14678  -0.399   5.946   5.385 -2.1331  0.2921  1.8337
  135OSM   C13S14679  -0.303   6.079   5.230 -1.3849  0.0632  0.1655
  135OSM   H13S14680  -0.287   6.188   5.213 -0.3482 -0.1629 -0.4121
  135OSM   H13T14681  -0.372   6.056   5.146  1.5231 -0.3857 -2.2708
  135OSM   C14S14682  -0.168   6.003   5.203 -0.6113  0.0492 -0.2372
  135OSM   H14S14683  -0.207   5.901   5.222  0.1495 -0.1993  0.0381
  135OSM   H14T14684  -0.091   6.022   5.282  1.5478 -2.0214 -1.7168
  135OSM   C15S14685  -0.096   6.015   5.072 -0.5663 -0.1765 -0.0488
  135OSM   H15S14686  -0.168   5.973   4.998 -1.5843  0.4163  0.5825
  135OSM   H15T14687  -0.003   5.955   5.075  0.6308  1.6386  2.3843
  135OSM   C16S14688  -0.066   6.156   5.032  0.0789 -0.5280 -0.0566
  135OSM   H16S14689   0.012   6.195   5.100  0.9266  1.1225 -1.8662
  135OSM   H16T14690  -0.157   6.217   5.047 -0.1693 -0.7637 -0.5661
  135OSM   C17S14691  -0.026   6.178   4.886  0.2184  0.3971  0.6069
  135OSM   H17S14692  -0.104   6.133   4.821  1.8723 -0.9958 -0.5183
  135OSM   H17T14693   0.069   6.123   4.867  0.3493  0.4344  1.1507
  135OSM   C18S14694  -0.001   6.325   4.866  0.0000 -0.0655 -0.2514
  135OSM   H18S14695   0.031   6.334   4.760  4.0038  0.2580  0.8089
  135OSM   H18T14696   0.076   6.356   4.940 -0.4358  0.4303  0.0014
  135OSM   H18U14697  -0.099   6.374   4.885 -1.1513 -2.0579 -0.8459
  135OSM    C1F14698   0.220   5.829   6.246 -0.2411  0.2030 -0.0561
  135OSM     OF14699   0.239   5.745   6.327  0.6378  0.0620  0.3839
  135OSM    C2F14700   0.284   5.821   6.109  0.2739  0.4197 -0.4882
  135OSM    H2F14701   0.384   5.870   6.111  0.5761 -0.0301 -2.4328
  135OSM    H2G14702   0.221   5.872   6.034  1.5913  2.7483 -0.0961
  135OSM    C3F14703   0.313   5.674   6.053  0.0436  0.2737 -0.5067
  135OSM    H3F14704   0.213   5.626   6.050  0.1332  0.1015 -2.0544
  135OSM    H3G14705   0.377   5.617   6.123 -0.6803 -0.8321 -0.7088
  135OSM    C4F14706   0.376   5.669   5.919  0.4651 -0.1144  0.2004
  135OSM    H4F14707   0.451   5.750   5.915 -0.3719  0.6814  0.3596
  135OSM    H4G14708   0.415   5.565   5.921  0.0425 -0.2685  0.7925
  135OSM    C5F14709   0.277   5.704   5.803 -0.5197  0.6809 -0.9504
  135OSM    H5F14710   0.259   5.813   5.812 -2.4092  0.4198 -1.2776
  135OSM    H5G14711   0.186   5.649   5.834 -0.4974  0.6433 -0.9513
  135OSM    C6F14712   0.319   5.660   5.669 -0.0186  0.0929  0.3941
  135OSM    H6F14713   0.328   5.550   5.668 -2.6825 -0.1778  0.9143
  135OSM    H6G14714   0.417   5.706   5.641 -0.7914  0.2697 -2.2586
  135OSM    C7F14715   0.212   5.685   5.555  0.2954 -0.8205 -0.1825
  135OSM    H7F14716   0.118   5.641   5.595 -2.4943  2.0646 -2.8907
  135OSM    H7G14717   0.241   5.638   5.458  1.7373  1.3459 -0.8737
  135OSM    C8F14718   0.185   5.836   5.533  0.5626  0.2952  0.0716
  135OSM    H8F14719   0.160   5.884   5.629  0.0100 -2.3949  1.3789
  135OSM    H8G14720   0.096   5.844   5.466  0.9834 -2.2672 -0.9380
  135OSM    C9F14721   0.309   5.896   5.472 -0.4379 -0.6802 -0.2918
  135OSM    H9F14722   0.377   5.937   5.548  0.1091  1.7187 -1.9629
  135OSM   C10F14723   0.342   5.904   5.339  0.4960  0.0648  0.3921
  135OSM   H10F14724   0.429   5.965   5.309  0.3859 -0.2424 -0.5930
  135OSM   C11F14725   0.258   5.848   5.221 -1.1065  0.1478 -0.1163
  135OSM   H11F14726   0.240   5.928   5.146  1.3914  2.3200  1.4360
  135OSM   H11G14727   0.158   5.813   5.253 -1.3898  1.7053  0.8264
  135OSM   C12F14728   0.345   5.731   5.166  0.6570 -0.0614 -0.4685
  135OSM   H12F14729   0.356   5.661   5.251 -2.2058 -0.2801 -0.1924
  135OSM   H12G14730   0.450   5.759   5.142  1.8026 -1.3531  2.5979
  135OSM   C13F14731   0.289   5.644   5.051  0.0169  0.0493  0.0409
  135OSM   H13F14732   0.200   5.596   5.097  0.2688  1.8026  2.6231
  135OSM   H13G14733   0.351   5.558   5.019  1.2104  1.2432 -1.0311
  135OSM   C14F14734   0.256   5.727   4.924  0.5425 -0.2366 -0.2332
  135OSM   H14F14735   0.343   5.785   4.887  0.1956  0.9173  0.6824
  135OSM   H14G14736   0.185   5.802   4.966 -1.1905 -2.5975  1.3301
  135OSM   C15F14737   0.176   5.664   4.808 -0.2723  0.2145 -1.1558
  135OSM   H15F14738   0.075   5.631   4.841 -0.8336  0.3793 -2.6611
  135OSM   H15G14739   0.224   5.571   4.771 -0.8326 -0.6070  0.1074
  135OSM   C16F14740   0.144   5.773   4.704 -0.1768  0.1378 -0.6902
  135OSM   H16F14741   0.242   5.796   4.656  0.0083 -0.5626 -0.6656
  135OSM   H16G14742   0.110   5.857   4.768  0.7381  0.3302 -0.4331
  135OSM   C17F14743   0.062   5.723   4.590  0.7983 -0.6814  0.3093
  135OSM   H17F14744  -0.043   5.699   4.617  0.0823  0.6699 -1.1090
  135OSM   H17G14745   0.112   5.632   4.552  0.7804 -1.1606  1.3933
  135OSM   C18F14746   0.039   5.835   4.484  0.1596  0.0281 -0.4218
  135OSM   H18F14747   0.135   5.878   4.450 -0.0356 -0.3568 -1.5306
  135OSM   H18G14748  -0.021   5.919   4.524 -2.4291 -1.0914 -1.7109
  135OSM   H18H14749  -0.006   5.792   4.392 -0.3253  0.7480 -0.5320
  136OSM      N14750   2.272   1.364   6.321 -0.8974 -0.0543  0.1780
  136OSM    C1514751   2.181   1.316   6.214 -0.2263  0.5880  0.1369
  136OSM   H15A14752   2.104   1.257   6.261 -0.9123  1.0417 -0.3895
  136OSM   H15B14753   2.233   1.257   6.139 -0.9097 -1.0980  0.9493
  136OSM   H15C14754   2.118   1.389   6.165 -1.4269 -0.7602 -0.4086
  136OSM    C1414755   2.388   1.262   6.344  0.1139  0.2245  0.0308
  136OSM   H14A14756   2.444   1.245   6.253 -0.0708  1.0244 -0.2431
  136OSM   H14B14757   2.358   1.162   6.371  0.6762  0.0687  0.0945
  136OSM   H14C14758   2.452   1.308   6.418  1.1141  2.0895 -1.8592
  136OSM    C1314759   2.326   1.499   6.273  0.3385 -0.1705 -0.7579
  136OSM   H13A14760   2.403   1.536   6.339 -0.7131  0.7796 -0.0322
  136OSM   H13B14761   2.245   1.570   6.278  1.5462  1.2438 -0.5999
  136OSM   H13C14762   2.370   1.492   6.175  2.4259  0.2201  0.0964
  136OSM    C1214763   2.201   1.360   6.459  0.0532  0.4603 -0.6324
  136OSM   H12A14764   2.259   1.386   6.546 -1.1588  0.0100  0.3507
  136OSM   H12B14765   2.170   1.257   6.474  0.1260 -0.0368 -3.4369
  136OSM    C1114766   2.077   1.451   6.471 -0.6664 -0.3728 -0.0079
  136OSM   H11A14767   2.036   1.446   6.574 -1.3968  3.5054  0.0292
  136OSM   H11B14768   1.996   1.429   6.398 -0.7492  2.4866 -0.8877
  136OSM      P14769   2.016   1.711   6.458 -0.2962 -0.3294  0.0219
  136OSM    O1314770   1.921   1.675   6.569  0.3431 -0.2492  0.4686
  136OSM    O1414771   2.076   1.845   6.463 -0.2968 -0.2760  0.3483
  136OSM    O1114772   1.941   1.688   6.329  0.1334  0.4443  1.0328
  136OSM    O1214773   2.117   1.588   6.448 -0.2948 -0.1758 -0.4798
  136OSM    C1S14774   1.865   1.776   6.249  0.0754 -0.0872  0.0721
  136OSM    H1S14775   1.873   1.883   6.279  0.7372  0.2061 -1.0823
  136OSM    H1T14776   1.759   1.762   6.280  0.0351  0.8700  0.4185
  136OSM     NF14777   1.807   1.861   6.024  0.2794 -0.7516 -0.6326
  136OSM    HNF14778   1.720   1.835   5.983 -0.1693  1.1775 -0.9856
  136OSM    C2S14779   1.878   1.751   6.093  0.1239 -0.1939  0.0315
  136OSM    H2S14780   1.984   1.766   6.063  0.6675 -1.8953  1.0326
  136OSM    C3S14781   1.850   1.602   6.047  0.4940 -1.0285 -0.1815
  136OSM    H3S14782   1.742   1.597   6.073  0.4670  3.8377  1.7805
  136OSM     O314783   1.915   1.498   6.118 -0.0203  0.1872 -0.3056
  136OSM    HO314784   1.947   1.539   6.198  1.9803 -6.2404  2.8294
  136OSM    C4S14785   1.861   1.582   5.897  0.3226  0.4392 -0.1733
  136OSM    H4S14786   1.771   1.602   5.837  0.0290 -0.1085  0.0770
  136OSM    C5S14787   1.962   1.528   5.829  0.0770  0.1992  0.0155
  136OSM    H5S14788   2.056   1.495   5.878 -0.0021 -0.9123 -0.5326
  136OSM    C6S14789   1.957   1.497   5.683  0.5528 -0.5875  0.2181
  136OSM    H6S14790   1.905   1.404   5.651  0.5873  0.0794 -1.8887
  136OSM    H6T14791   2.061   1.475   5.651 -0.3326 -0.7217 -2.8423
  136OSM    C7S14792   1.916   1.615   5.583  0.8366 -0.0118  0.7673
  136OSM    H7S14793   1.979   1.702   5.612  0.0611  1.0980 -0.7064
  136OSM    H7T14794   1.808   1.640   5.593  0.7179  0.2305 -0.9606
  136OSM    C8S14795   1.960   1.575   5.439 -0.4503  0.1562  0.2077
  136OSM    H8S14796   1.901   1.489   5.402  1.0157 -0.9450  0.3495
  136OSM    H8T14797   2.062   1.531   5.448 -1.9499 -3.5803  1.0171
  136OSM    C9S14798   1.953   1.684   5.340  0.2842 -0.3140 -0.2935
  136OSM    H9S14799   2.034   1.754   5.369  0.3781 -0.8943  0.9016
  136OSM    H9T14800   1.857   1.735   5.364 -0.0879 -1.3460  0.4677
  136OSM   C10S14801   1.983   1.636   5.197  0.8003 -0.3297 -0.6627
  136OSM   H10S14802   1.915   1.555   5.162  0.8450 -1.5817  1.9461
  136OSM   H10T14803   2.081   1.587   5.210  0.8239 -0.1938 -0.3323
  136OSM   C11S14804   1.979   1.754   5.101 -0.3170 -0.4737  0.5301
  136OSM   H11S14805   2.036   1.719   5.013  4.0716 -0.5603  3.0894
  136OSM   H11T14806   2.048   1.837   5.126  0.3154 -0.6236 -0.6777
  136OSM   C12S14807   1.835   1.809   5.080 -0.0626  0.0142  0.2765
  136OSM   H12S14808   1.810   1.883   5.159  0.3242  0.4927 -0.0449
  136OSM   H12T14809   1.760   1.729   5.094  1.1991 -1.0227  1.3813
  136OSM   C13S14810   1.812   1.866   4.936  0.4885  0.5304  0.4264
  136OSM   H13S14811   1.703   1.891   4.934  0.6476  1.2064 -0.1808
  136OSM   H13T14812   1.814   1.783   4.863 -0.1318  0.3457  0.6153
  136OSM   C14S14813   1.889   1.994   4.890 -0.0545  1.0772 -0.2386
  136OSM   H14S14814   1.998   1.981   4.908  0.7141  4.5519 -1.4014
  136OSM   H14T14815   1.850   2.078   4.952  0.3598  1.5227 -0.5676
  136OSM   C15S14816   1.875   2.048   4.752  0.2725 -0.6325  1.1568
  136OSM   H15S14817   1.906   2.153   4.732 -4.5193  0.8075  0.0241
  136OSM   H15T14818   1.767   2.046   4.726  0.7218  1.3037 -1.2951
  136OSM   C16S14819   1.941   1.947   4.655 -0.8120 -0.1273  0.4893
  136OSM   H16S14820   1.914   1.841   4.674  1.6070 -1.0022 -0.5719
  136OSM   H16T14821   2.051   1.962   4.657 -0.5652 -1.7047 -0.1127
  136OSM   C17S14822   1.908   1.973   4.507 -1.0903 -0.3939 -0.0534
  136OSM   H17S14823   1.799   1.992   4.508 -0.8371  1.2109 -0.3858
  136OSM   H17T14824   1.937   1.881   4.452  2.1543  2.4765 -3.6903
  136OSM   C18S14825   1.972   2.100   4.449 -0.1695 -0.1638 -0.2984
  136OSM   H18S14826   1.923   2.113   4.350 -0.2637 -4.7241 -1.0524
  136OSM   H18T14827   2.081   2.077   4.441 -0.2434 -1.4514  1.5729
  136OSM   H18U14828   1.950   2.173   4.530 -0.5566 -2.0251  1.3618
  136OSM    C1F14829   1.843   1.988   6.027  0.4166  0.1399  0.4525
  136OSM     OF14830   1.954   2.026   6.063  0.1911 -0.1538 -0.2050
  136OSM    C2F14831   1.740   2.088   5.978 -0.5730  0.4552 -0.8547
  136OSM    H2F14832   1.695   2.129   6.071  1.5303 -0.4902  0.6561
  136OSM    H2G14833   1.660   2.027   5.932  0.9475 -2.4289  0.0659
  136OSM    C3F14834   1.807   2.194   5.882 -0.3605  0.2477  0.1307
  136OSM    H3F14835   1.905   2.223   5.926  0.7655 -1.3261 -1.2186
  136OSM    H3G14836   1.737   2.280   5.887 -0.1634  0.4465 -0.4471
  136OSM    C4F14837   1.828   2.127   5.742  0.7424  0.5283  0.8027
  136OSM    H4F14838   1.726   2.104   5.706  1.0047  1.0063 -0.3093
  136OSM    H4G14839   1.885   2.032   5.751 -1.0637 -0.7937 -0.8013
  136OSM    C5F14840   1.890   2.216   5.625  0.3569 -0.5946 -0.3095
  136OSM    H5F14841   1.987   2.256   5.661 -0.4228  0.5316  0.6356
  136OSM    H5G14842   1.819   2.302   5.620  0.0991 -0.8617 -1.3426
  136OSM    C6F14843   1.894   2.155   5.482  0.2545 -0.5909 -0.6570
  136OSM    H6F14844   1.796   2.116   5.449 -0.5895  0.3125  0.7167
  136OSM    H6G14845   1.954   2.066   5.510 -0.5200 -0.0967  3.0177
  136OSM    C7F14846   1.957   2.250   5.379  0.0751  0.4108  0.1906
  136OSM    H7F14847   2.058   2.279   5.413 -0.0189 -1.6508  2.5290
  136OSM    H7G14848   1.901   2.346   5.373  2.9829  2.3721  2.1807
  136OSM    C8F14849   1.967   2.189   5.238 -0.1004 -0.0458 -0.1416
  136OSM    H8F14850   1.999   2.257   5.156  0.4918 -0.8699 -0.6039
  136OSM    H8G14851   1.862   2.156   5.223  0.1124 -1.6008  1.4852
  136OSM    C9F14852   2.060   2.062   5.240 -0.6742 -1.0117 -0.1524
  136OSM    H9F14853   2.026   1.973   5.295 -1.0231 -1.3627 -0.9232
  136OSM   C10F14854   2.183   2.048   5.183 -0.7080 -0.5880  0.0786
  136OSM   H10F14855   2.257   1.977   5.224 -0.7582 -0.9875 -0.5111
  136OSM   C11F14856   2.249   2.150   5.093 -0.1881 -0.1380  0.2293
  136OSM   H11F14857   2.344   2.184   5.138  0.3079 -0.5286 -0.5081
  136OSM   H11G14858   2.184   2.240   5.094 -1.8138 -1.2556  0.6121
  136OSM   C12F14859   2.279   2.100   4.949  0.9561 -0.1753 -0.5773
  136OSM   H12F14860   2.189   2.053   4.903  0.9796 -0.8567  0.0539
  136OSM   H12G14861   2.347   2.012   4.957  1.6285  0.4231  0.5941
  136OSM   C13F14862   2.334   2.192   4.834 -0.0555  0.4726 -0.2425
  136OSM   H13F14863   2.432   2.234   4.865  0.2051  0.7309 -1.3692
  136OSM   H13G14864   2.267   2.280   4.825  0.2510  0.5366 -2.3155
  136OSM   C14F14865   2.342   2.120   4.696 -0.5397  0.0446 -0.0069
  136OSM   H14F14866   2.238   2.100   4.661  0.1015 -0.0807 -1.9526
  136OSM   H14G14867   2.379   2.016   4.710  3.6123  1.3583 -0.1104
  136OSM   C15F14868   2.440   2.181   4.594 -0.2722 -0.1528  0.0654
  136OSM   H15F14869   2.448   2.100   4.520 -0.8383  1.1330 -1.4662
  136OSM   H15G14870   2.538   2.187   4.645 -0.1065  1.6083 -0.3702
  136OSM   C16F14871   2.398   2.319   4.542  0.4726 -0.9044 -0.3995
  136OSM   H16F14872   2.432   2.397   4.614  1.1507  1.5440 -3.2037
  136OSM   H16G14873   2.287   2.323   4.540  0.4705 -0.4464  0.2840
  136OSM   C17F14874   2.474   2.358   4.409 -0.5739 -0.7887 -0.4946
  136OSM   H17F14875   2.414   2.437   4.358 -0.4322 -0.1661  0.2780
  136OSM   H17G14876   2.479   2.267   4.346 -1.9547 -1.0728 -0.2133
  136OSM   C18F14877   2.619   2.420   4.426  0.3617 -0.1161  0.1344
  136OSM   H18F14878   2.686   2.347   4.476 -2.7208 -1.4316  2.7040
  136OSM   H18G14879   2.618   2.514   4.485  2.1251  0.6914 -1.0103
  136OSM   H18H14880   2.649   2.451   4.324 -0.2583  0.4951  0.1322
  137OSM      N14881   3.292   4.063   6.515  1.2670  0.4748  0.2332
  137OSM    C1514882   3.205   4.119   6.631  0.3701 -0.7792 -0.9273
  137OSM   H15A14883   3.111   4.068   6.644  0.3134 -0.3738  0.3671
  137OSM   H15B14884   3.186   4.223   6.609 -0.2574 -0.7710 -0.3482
  137OSM   H15C14885   3.254   4.117   6.727 -1.9528 -0.1897  0.3469
  137OSM    C1414886   3.349   3.928   6.556  0.0772  0.3708 -0.0053
  137OSM   H14A14887   3.391   3.936   6.656  3.6822 -0.3583 -1.2897
  137OSM   H14B14888   3.427   3.877   6.500 -0.1024  2.1977 -2.0565
  137OSM   H14C14889   3.265   3.860   6.553 -2.0827  2.9132 -0.5183
  137OSM    C1314890   3.196   4.037   6.403  0.1268 -0.5023 -0.4617
  137OSM   H13A14891   3.102   4.005   6.445 -0.8505  0.3855 -1.8903
  137OSM   H13B14892   3.227   3.965   6.329  1.7182 -0.7168  0.3610
  137OSM   H13C14893   3.177   4.132   6.356 -2.7219 -1.7517 -2.0774
  137OSM    C1214894   3.408   4.157   6.478 -0.0205 -0.4625  0.0175
  137OSM   H12A14895   3.452   4.117   6.388  0.7424  1.5868 -0.5707
  137OSM   H12B14896   3.480   4.150   6.559 -1.2445  0.5382  1.2456
  137OSM    C1114897   3.381   4.311   6.462 -0.2516 -0.0329 -0.1817
  137OSM   H11A14898   3.466   4.370   6.422  0.2530 -0.8040 -0.2671
  137OSM   H11B14899   3.368   4.338   6.569  1.3562 -0.8415  0.2571
  137OSM      P14900   3.164   4.437   6.399 -0.1454  0.1115 -0.4095
  137OSM    O1314901   3.031   4.372   6.420 -0.0178 -0.6657 -0.2184
  137OSM    O1414902   3.213   4.530   6.499  0.7485  0.2313  0.1987
  137OSM    O1114903   3.169   4.514   6.260  0.3939  0.4679 -0.1503
  137OSM    O1214904   3.270   4.324   6.376 -0.1699  0.1567  0.1668
  137OSM    C1S14905   3.295   4.536   6.191  0.7325 -0.9017 -0.4724
  137OSM    H1S14906   3.377   4.472   6.231  1.3128 -0.6538 -1.2488
  137OSM    H1T14907   3.319   4.643   6.206 -1.6236 -0.5618  1.4203
  137OSM     NF14908   3.415   4.526   5.976 -0.2603 -0.2873 -0.0732
  137OSM    HNF14909   3.427   4.600   5.910 -0.2011  0.9760  1.2984
  137OSM    C2S14910   3.286   4.513   6.042 -0.8253 -0.5413  0.2529
  137OSM    H2S14911   3.248   4.408   6.033 -2.1001 -0.3905  2.8539
  137OSM    C3S14912   3.168   4.592   5.978 -0.2946 -0.4374 -0.7163
  137OSM    H3S14913   3.185   4.701   5.993  0.6350 -0.8532  1.6407
  137OSM     O314914   3.036   4.576   6.036  1.0173  0.3898 -0.0658
  137OSM    HO314915   3.063   4.546   6.123  3.2559  1.0880 -0.4721
  137OSM    C4S14916   3.158   4.565   5.830 -0.4277 -0.0727  0.0049
  137OSM    H4S14917   3.122   4.463   5.807 -1.7023  1.0258 -3.5799
  137OSM    C5S14918   3.170   4.654   5.737  0.6893  0.3388  0.1782
  137OSM    H5S14919   3.202   4.755   5.767  1.4250  0.1937 -0.0985
  137OSM    C6S14920   3.142   4.636   5.586 -0.3457 -0.0343 -0.8227
  137OSM    H6S14921   3.054   4.691   5.547  1.2171  2.1334 -1.4797
  137OSM    H6T14922   3.124   4.527   5.573 -0.1841 -0.2501  0.6005
  137OSM    C7S14923   3.258   4.683   5.497 -0.3206 -0.2671  1.1062
  137OSM    H7S14924   3.357   4.643   5.527  0.4442 -0.5641 -1.5458
  137OSM    H7T14925   3.259   4.792   5.519 -2.0284 -0.2334  1.1976
  137OSM    C8S14926   3.240   4.651   5.347  0.0288 -0.3800  0.8864
  137OSM    H8S14927   3.172   4.727   5.303  1.0772  1.5261  2.4038
  137OSM    H8T14928   3.199   4.551   5.322 -0.5182  0.1944 -0.6324
  137OSM    C9S14929   3.374   4.669   5.275 -0.1073 -0.4491 -0.6319
  137OSM    H9S14930   3.444   4.589   5.307  0.4091  0.6824  1.1939
  137OSM    H9T14931   3.424   4.759   5.316  0.0436 -1.0091  0.4271
  137OSM   C10S14932   3.366   4.694   5.121  0.5436 -0.1711  0.6683
  137OSM   H10S14933   3.323   4.793   5.095  0.3807 -0.0835  1.2608
  137OSM   H10T14934   3.295   4.619   5.081  1.3577 -0.0125 -1.1764
  137OSM   C11S14935   3.499   4.667   5.048 -0.0618 -0.5624  0.3471
  137OSM   H11S14936   3.483   4.646   4.940  2.6956  1.0020 -0.4484
  137OSM   H11T14937   3.527   4.569   5.091 -0.2633 -0.6359  0.3135
  137OSM   C12S14938   3.598   4.776   5.065 -0.2962  0.1897 -0.7080
  137OSM   H12S14939   3.699   4.732   5.075 -0.7191 -0.5178  0.8485
  137OSM   H12T14940   3.579   4.824   5.164 -1.3002 -1.6624  0.0373
  137OSM   C13S14941   3.578   4.891   4.967 -0.5069  0.1030  0.2663
  137OSM   H13S14942   3.473   4.925   4.969 -0.4903  0.1583  1.8511
  137OSM   H13T14943   3.603   4.857   4.864  0.2585 -1.4506  0.9238
  137OSM   C14S14944   3.664   5.010   5.004  0.4844 -0.0967  0.1682
  137OSM   H14S14945   3.768   4.972   4.993 -0.0743 -1.5512 -0.2722
  137OSM   H14T14946   3.654   5.042   5.110  4.3515  2.1207  0.0478
  137OSM   C15S14947   3.634   5.127   4.910 -0.9092 -0.2571 -0.2494
  137OSM   H15S14948   3.533   5.173   4.911 -0.3012  1.1209 -0.3773
  137OSM   H15T14949   3.661   5.099   4.806  2.6613  1.7496 -0.0247
  137OSM   C16S14950   3.743   5.239   4.934 -0.3330  0.8952  0.3092
  137OSM   H16S14951   3.840   5.184   4.939  0.3412  1.9402 -0.7712
  137OSM   H16T14952   3.744   5.285   5.035  1.1163 -0.9656  1.2122
  137OSM   C17S14953   3.749   5.341   4.816  0.4146 -0.1812 -1.4123
  137OSM   H17S14954   3.652   5.395   4.811  0.8172  1.0021  1.5245
  137OSM   H17T14955   3.779   5.286   4.725 -1.0599  0.1573 -2.1286
  137OSM   C18S14956   3.854   5.445   4.850  0.0687 -0.1386 -0.0796
  137OSM   H18S14957   3.953   5.400   4.826  0.8859  0.9457  1.1365
  137OSM   H18T14958   3.847   5.469   4.958 -1.4634 -0.8668  0.0167
  137OSM   H18U14959   3.847   5.541   4.797  2.4368 -0.8910 -1.9452
  137OSM    C1F14960   3.530   4.456   5.998  0.0416  0.0283 -0.2046
  137OSM     OF14961   3.534   4.374   6.085  0.6430 -0.5582 -0.8283
  137OSM    C2F14962   3.652   4.478   5.902  0.5669 -0.7364 -0.0649
  137OSM    H2F14963   3.728   4.553   5.934  3.6518 -1.9631 -3.8035
  137OSM    H2G14964   3.612   4.523   5.809 -0.5628  2.9805  2.0264
  137OSM    C3F14965   3.719   4.344   5.889 -0.3451  0.0488  0.4119
  137OSM    H3F14966   3.648   4.266   5.854 -1.9212  2.2078 -1.4948
  137OSM    H3G14967   3.754   4.311   5.989  0.5731 -1.9850 -0.5327
  137OSM    C4F14968   3.837   4.350   5.788 -0.0684 -0.1098 -0.0190
  137OSM    H4F14969   3.902   4.259   5.795 -1.8679 -1.4931 -0.4662
  137OSM    H4G14970   3.906   4.435   5.803 -0.1239 -0.2371  1.0909
  137OSM    C5F14971   3.782   4.342   5.645  0.1887  0.3658 -0.1475
  137OSM    H5F14972   3.717   4.425   5.609  0.2263  0.5292  0.1587
  137OSM    H5G14973   3.712   4.255   5.646  0.5707  0.0296 -1.2826
  137OSM    C6F14974   3.902   4.340   5.548 -0.4017 -0.4547 -0.3274
  137OSM    H6F14975   3.974   4.257   5.566  0.2476 -0.1523 -1.4377
  137OSM    H6G14976   3.958   4.436   5.551 -1.1878 -0.0079  0.2775
  137OSM    C7F14977   3.865   4.343   5.396  0.1401  0.0524  0.6634
  137OSM    H7F14978   3.795   4.428   5.383  1.1680  0.7347 -0.5364
  137OSM    H7G14979   3.807   4.252   5.369  1.3846 -0.4521 -0.4425
  137OSM    C8F14980   3.977   4.359   5.291 -0.5490 -0.4833 -0.3373
  137OSM    H8F14981   4.034   4.452   5.314  1.1037 -1.8058  1.3125
  137OSM    H8G14982   3.928   4.375   5.193  0.8403 -0.9642 -1.1312
  137OSM    C9F14983   4.065   4.241   5.280  0.4708  0.6709  0.3750
  137OSM    H9F14984   4.103   4.209   5.378  0.9881  1.6707  0.5084
  137OSM   C10F14985   4.113   4.179   5.170  0.9780  0.2334 -0.2223
  137OSM   H10F14986   4.190   4.102   5.186  0.4238 -0.1663  0.6331
  137OSM   C11F14987   4.073   4.220   5.029 -0.1669 -0.3865 -0.2766
  137OSM   H11F14988   4.038   4.325   5.019 -1.8448 -1.1011 -2.5203
  137OSM   H11G14989   3.991   4.159   4.988 -0.1871 -0.1692 -0.5579
  137OSM   C12F14990   4.197   4.211   4.937 -0.5740 -0.3384  0.3387
  137OSM   H12F14991   4.278   4.283   4.960 -0.7095 -0.5510  1.5401
  137OSM   H12G14992   4.158   4.237   4.836  1.1890  1.2668  0.0148
  137OSM   C13F14993   4.251   4.067   4.931 -0.2519  0.8461  0.5683
  137OSM   H13F14994   4.175   3.991   4.905  1.1227  0.5615 -3.3195
  137OSM   H13G14995   4.302   4.028   5.022 -2.6089 -0.6197  1.3432
  137OSM   C14F14996   4.354   4.051   4.822 -0.0977 -0.0346  0.6878
  137OSM   H14F14997   4.431   3.976   4.852 -1.2345 -1.8327 -0.6718
  137OSM   H14G14998   4.418   4.140   4.804  1.9290 -0.9154  2.9580
  137OSM   C15F14999   4.299   4.002   4.684  0.3111  0.0901 -0.0991
  137OSM   H15F15000   4.234   4.083   4.646  1.0266  0.8026  0.1508
  137OSM   H15G15001   4.225   3.920   4.695 -2.0492  1.9568 -1.1080
  137OSM   C16F15002   4.416   3.964   4.583  0.3732 -1.1523 -0.3426
  137OSM   H16F15003   4.471   4.059   4.568  0.1520 -0.7434  1.2478
  137OSM   H16G15004   4.372   3.938   4.484  0.4761 -0.2417 -0.6368
  137OSM   C17F15005   4.510   3.847   4.614 -0.4320  0.7680 -0.1647
  137OSM   H17F15006   4.563   3.858   4.711  1.4128 -0.7976 -0.9222
  137OSM   H17G15007   4.594   3.842   4.541  2.3956 -0.5315  2.9025
  137OSM   C18F15008   4.445   3.708   4.616  0.4528 -0.6293  0.0958
  137OSM   H18F15009   4.361   3.726   4.686  1.8186  1.8739  1.2065
  137OSM   H18G15010   4.516   3.630   4.651  2.7562  2.1034  1.8562
  137OSM   H18H15011   4.398   3.700   4.515  0.4082  1.5182 -0.0847
  138OSM      N15012   2.117   0.203   6.344 -0.8116 -0.0256  0.7417
  138OSM    C1515013   2.189   0.227   6.216 -0.2399 -0.4790  0.1881
  138OSM   H15A15014   2.139   0.193   6.126 -1.1099 -0.6746  0.7453
  138OSM   H15B15015   2.274   0.161   6.208 -0.5627 -0.8021 -0.7792
  138OSM   H15C15016   2.219   0.331   6.208 -0.8041 -0.3364 -0.1152
  138OSM    C1415017   1.982   0.273   6.321  0.4391 -0.0646 -0.2680
  138OSM   H14A15018   1.990   0.380   6.320  1.5633 -0.1407 -0.9935
  138OSM   H14B15019   1.910   0.236   6.393  0.7015 -3.6381 -1.6058
  138OSM   H14C15020   1.951   0.238   6.223  2.6047 -2.2164 -0.2955
  138OSM    C1315021   2.099   0.057   6.354 -0.1152 -0.4761 -0.1488
  138OSM   H13A15022   2.059   0.011   6.264  1.9852 -1.7124 -0.5204
  138OSM   H13B15023   2.038   0.031   6.439  1.2980  0.0155  1.0488
  138OSM   H13C15024   2.194   0.012   6.380  0.2079  0.5733  0.5277
  138OSM    C1215025   2.191   0.247   6.473 -0.2270 -0.1956 -0.3272
  138OSM   H12A15026   2.135   0.204   6.554 -3.2978 -0.2582 -2.3249
  138OSM   H12B15027   2.188   0.355   6.484  1.2616 -0.1806  0.1542
  138OSM    C1115028   2.332   0.197   6.494 -0.5640 -0.6657 -0.4571
  138OSM   H11A15029   2.379   0.270   6.563  1.2972 -1.4778 -0.7994
  138OSM   H11B15030   2.385   0.194   6.396  1.1218 -1.1152  0.4186
  138OSM      P15031   2.474   0.004   6.584 -0.3217 -0.0236  0.2311
  138OSM    O1315032   2.529   0.091   6.687 -0.6807 -0.3370  0.3062
  138OSM    O1415033   2.467  -0.138   6.617  0.0913 -0.7772  0.4126
  138OSM    O1115034   2.550   0.025   6.449 -0.0815 -0.0858  0.2792
  138OSM    O1215035   2.332   0.064   6.551 -0.5240 -0.0893  0.3634
  138OSM    C1S15036   2.537  -0.067   6.343  0.2588 -0.3112  0.4467
  138OSM    H1S15037   2.428  -0.075   6.323  0.4082  0.3242 -0.7613
  138OSM    H1T15038   2.586  -0.165   6.364  0.8741 -0.1935 -0.3511
  138OSM     NF15039   2.558  -0.079   6.101  0.7225  0.1023 -0.1634
  138OSM    HNF15040   2.605  -0.161   6.069  2.0581  1.1018 -0.8458
  138OSM    C2S15041   2.603  -0.009   6.217 -0.0618  0.4718 -0.3751
  138OSM    H2S15042   2.558   0.091   6.201 -1.2352  0.1287  0.6096
  138OSM    C3S15043   2.755  -0.015   6.248 -0.2283  0.7113 -0.1883
  138OSM    H3S15044   2.785  -0.115   6.288  0.4132  0.6005 -0.9253
  138OSM     O315045   2.800   0.073   6.352  0.3500 -0.2814 -0.5088
  138OSM    HO315046   2.718   0.118   6.376  0.4495 -0.2884 -0.1551
  138OSM    C4S15047   2.845   0.007   6.129  0.5087 -0.1918  0.5076
  138OSM    H4S15048   2.901  -0.080   6.092 -1.2955 -0.7100 -1.1893
  138OSM    C5S15049   2.839   0.119   6.056  0.6667 -0.3512 -0.5753
  138OSM    H5S15050   2.769   0.198   6.087  1.2725  0.0125 -0.1140
  138OSM    C6S15051   2.929   0.158   5.941 -0.1845  0.6658  0.3389
  138OSM    H6S15052   2.977   0.064   5.906 -1.2938  0.4673 -0.7558
  138OSM    H6T15053   3.000   0.240   5.963  0.7666  0.4313 -1.6645
  138OSM    C7S15054   2.851   0.190   5.808  0.1288 -0.1922 -0.6565
  138OSM    H7S15055   2.777   0.269   5.832 -0.8299 -1.1453 -0.3883
  138OSM    H7T15056   2.788   0.103   5.780 -1.8366  0.3719  1.5889
  138OSM    C8S15057   2.939   0.245   5.697 -0.7594 -0.3462 -0.3179
  138OSM    H8S15058   3.004   0.162   5.662 -0.4331 -1.0720  1.8087
  138OSM    H8T15059   3.016   0.318   5.729  0.7846 -1.6747 -0.8375
  138OSM    C9S15060   2.854   0.307   5.585  0.5243  0.5261 -0.2685
  138OSM    H9S15061   2.795   0.390   5.629  1.1338  2.1266 -2.2962
  138OSM    H9T15062   2.780   0.234   5.544  0.7384  0.2805 -0.2200
  138OSM   C10S15063   2.922   0.368   5.459 -0.0742  0.0301  0.1240
  138OSM   H10S15064   3.014   0.423   5.487  0.5294 -1.0208  0.2555
  138OSM   H10T15065   2.848   0.433   5.408  0.3802 -0.7543 -1.5821
  138OSM   C11S15066   2.957   0.267   5.353 -0.3795 -0.2051 -0.3771
  138OSM   H11S15067   2.860   0.222   5.322 -0.2293 -1.4605  0.8450
  138OSM   H11T15068   3.021   0.190   5.402  1.0367  1.1220 -0.0827
  138OSM   C12S15069   3.030   0.319   5.231  0.2219 -0.5861 -0.9468
  138OSM   H12S15070   3.131   0.329   5.274 -0.8042  3.1414  1.0323
  138OSM   H12T15071   2.989   0.422   5.219 -0.0337 -0.4845  0.5603
  138OSM   C13S15072   3.020   0.229   5.109  0.1546  0.1620 -0.1672
  138OSM   H13S15073   2.911   0.230   5.089 -0.6049  0.8874  3.2774
  138OSM   H13T15074   3.047   0.123   5.128 -2.0372 -0.1343  1.6823
  138OSM   C14S15075   3.122   0.280   5.001 -0.1364  0.2827 -0.0095
  138OSM   H14S15076   3.223   0.250   5.035 -1.7327 -2.5823  2.8017
  138OSM   H14T15077   3.112   0.386   4.970 -0.0094 -0.7993 -4.4313
  138OSM   C15S15078   3.082   0.207   4.874 -0.3243  0.0592  0.0006
  138OSM   H15S15079   2.974   0.187   4.861 -0.7861  1.0844  1.9120
  138OSM   H15T15080   3.127   0.105   4.881  0.4450  0.5049  3.1984
  138OSM   C16S15081   3.134   0.279   4.754 -0.2310  0.7336  0.2455
  138OSM   H16S15082   3.244   0.262   4.746 -0.8324 -4.0996 -1.0444
  138OSM   H16T15083   3.126   0.389   4.768 -1.6638  0.9218 -1.6960
  138OSM   C17S15084   3.068   0.240   4.617  0.3057  0.1061 -0.0183
  138OSM   H17S15085   2.979   0.303   4.598  0.5509 -0.1918 -2.4693
  138OSM   H17T15086   3.038   0.136   4.643 -1.3409  0.4203 -0.5526
  138OSM   C18S15087   3.148   0.248   4.483  0.7115 -0.5075 -0.4088
  138OSM   H18S15088   3.247   0.203   4.504 -0.4789 -2.3589  1.5164
  138OSM   H18T15089   3.167   0.355   4.460  0.1433 -0.1086  0.8616
  138OSM   H18U15090   3.103   0.190   4.400 -1.2495 -1.3376  1.1528
  138OSM    C1F15091   2.436  -0.068   6.044 -0.0404 -0.0357 -0.4621
  138OSM     OF15092   2.349  -0.003   6.101  0.0330  0.5427 -0.3837
  138OSM    C2F15093   2.428  -0.136   5.914 -0.1564 -0.3189 -0.3296
  138OSM    H2F15094   2.340  -0.096   5.859  0.3108  1.7729  0.3542
  138OSM    H2G15095   2.415  -0.244   5.934  0.3505 -0.4958 -0.9075
  138OSM    C3F15096   2.556  -0.119   5.829  0.0923 -0.3240  1.1227
  138OSM    H3F15097   2.626  -0.198   5.862 -0.2968 -1.4061 -0.5611
  138OSM    H3G15098   2.594  -0.015   5.834 -1.5548  0.4811 -1.2427
  138OSM    C4F15099   2.544  -0.145   5.679  0.8147  0.5298  1.0855
  138OSM    H4F15100   2.465  -0.076   5.639  1.7866 -0.2928 -2.6355
  138OSM    H4G15101   2.519  -0.252   5.663  1.6467  0.2804  1.4144
  138OSM    C5F15102   2.671  -0.114   5.601 -0.1393 -1.1217 -0.4111
  138OSM    H5F15103   2.749  -0.158   5.668  1.2516  1.1190 -0.4569
  138OSM    H5G15104   2.695  -0.006   5.608 -0.1896 -1.0062 -1.7539
  138OSM    C6F15105   2.682  -0.174   5.464  0.3110 -0.5875  0.4253
  138OSM    H6F15106   2.663  -0.283   5.470 -2.0868 -0.1922  1.4578
  138OSM    H6G15107   2.790  -0.179   5.437  0.5301  0.1574  1.1146
  138OSM    C7F15108   2.592  -0.095   5.366  0.5808  0.5923 -0.5849
  138OSM    H7F15109   2.493  -0.080   5.414  0.6503 -1.1457  0.1717
  138OSM    H7G15110   2.592  -0.155   5.273  0.9011 -0.2802 -0.0383
  138OSM    C8F15111   2.643   0.044   5.324 -0.0048  0.3173 -1.1735
  138OSM    H8F15112   2.741   0.027   5.276  0.3237  2.6792 -1.4786
  138OSM    H8G15113   2.669   0.106   5.413  0.3329 -1.4626  0.0135
  138OSM    C9F15114   2.529   0.107   5.246  0.2964  0.6282 -0.1397
  138OSM    H9F15115   2.443   0.128   5.311 -0.3765  0.8206 -1.0695
  138OSM   C10F15116   2.520   0.135   5.115  0.2112  0.1744 -1.0201
  138OSM   H10F15117   2.422   0.173   5.084 -0.0821  2.7239  2.3581
  138OSM   C11F15118   2.626   0.123   5.011 -0.4931 -0.2545 -0.7762
  138OSM   H11F15119   2.724   0.105   5.060 -1.2193 -3.1579 -0.2007
  138OSM   H11G15120   2.649   0.225   4.973  2.5050  0.0766  1.4889
  138OSM   C12F15121   2.608   0.023   4.894 -0.4834  0.0785  0.1691
  138OSM   H12F15122   2.508   0.047   4.851 -0.2189 -1.0159 -1.1527
  138OSM   H12G15123   2.592  -0.082   4.926 -0.5788  1.1165  4.0294
  138OSM   C13F15124   2.724   0.038   4.793 -0.0620 -0.3515 -0.3301
  138OSM   H13F15125   2.819  -0.002   4.834  0.8454  1.4350 -0.6023
  138OSM   H13G15126   2.755   0.145   4.791  1.7338 -0.7912  1.3446
  138OSM   C14F15127   2.706  -0.019   4.654  0.1404  0.4110  0.1225
  138OSM   H14F15128   2.616   0.020   4.603  0.4730 -0.4461 -1.1787
  138OSM   H14G15129   2.699  -0.129   4.661  0.3522  0.4797  1.9038
  138OSM   C15F15130   2.813   0.006   4.553 -0.2460 -1.0000  0.4073
  138OSM   H15F15131   2.912  -0.043   4.565  1.7452  2.2136 -1.3405
  138OSM   H15G15132   2.834   0.115   4.554 -0.5515 -0.8997 -1.2443
  138OSM   C16F15133   2.757  -0.023   4.412  0.5505 -0.2524 -0.2842
  138OSM   H16F15134   2.669   0.044   4.410  0.9518  0.5485  3.0376
  138OSM   H16G15135   2.727  -0.130   4.407  0.7255 -0.4068  1.3549
  138OSM   C17F15136   2.853   0.015   4.295 -0.2407 -0.3474  0.4972
  138OSM   H17F15137   2.946  -0.044   4.282  0.2748  0.5537  0.0156
  138OSM   H17G15138   2.887   0.119   4.315 -1.0286 -0.0607  0.3887
  138OSM   C18F15139   2.778   0.013   4.165  0.2695 -0.0727 -0.9374
  138OSM   H18F15140   2.845   0.060   4.090 -2.1998  3.6290 -1.0755
  138OSM   H18G15141   2.694   0.086   4.173 -0.0064 -0.2691 -1.9026
  138OSM   H18H15142   2.734  -0.085   4.138 -1.9654  0.8043 -0.6626
  139OSM      N15143   4.543   0.564   6.895  0.2947 -0.1012 -0.1189
  139OSM    C1515144   4.451   0.676   6.916  0.7639  0.5092 -0.0278
  139OSM   H15A15145   4.351   0.636   6.906  0.9539  0.0504 -0.1430
  139OSM   H15B15146   4.481   0.757   6.852  0.3343  2.1296  1.7376
  139OSM   H15C15147   4.465   0.705   7.019  2.3082 -1.5081  0.4007
  139OSM    C1415148   4.560   0.534   6.745 -0.5784  0.0244 -0.6629
  139OSM   H14A15149   4.465   0.513   6.697 -1.1891 -0.4020  0.6915
  139OSM   H14B15150   4.615   0.441   6.737 -0.8530 -0.4744  2.1275
  139OSM   H14C15151   4.610   0.620   6.705 -1.0123  0.9882  0.8056
  139OSM    C1315152   4.681   0.586   6.949 -0.3913  0.3351  0.1656
  139OSM   H13A15153   4.746   0.506   6.918 -1.1158  0.1279 -0.8769
  139OSM   H13B15154   4.684   0.578   7.056 -0.6615  0.1467  0.1598
  139OSM   H13C15155   4.722   0.680   6.914 -0.7425 -0.5435 -2.9988
  139OSM    C1215156   4.483   0.429   6.951 -0.2831 -0.0928  0.2124
  139OSM   H12A15157   4.397   0.410   6.889 -1.6021 -1.2831  2.3015
  139OSM   H12B15158   4.450   0.443   7.052  1.5713  1.8991  0.6105
  139OSM    C1115159   4.563   0.297   6.961  0.6538 -0.1887  0.0732
  139OSM   H11A15160   4.491   0.213   6.957  0.0602  0.3489 -1.0171
  139OSM   H11B15161   4.629   0.300   7.051 -0.6737  2.1847  1.0699
  139OSM      P15162   4.794   0.219   6.873 -0.3046 -0.3790 -0.2708
  139OSM    O1315163   4.874   0.293   6.972  1.0454  0.4821 -0.6113
  139OSM    O1415164   4.782   0.074   6.910  0.2577  0.4527 -0.7326
  139OSM    O1115165   4.865   0.230   6.737  0.6828 -0.0644  0.5459
  139OSM    O1215166   4.650   0.273   6.848  0.3152 -1.4416  0.2189
  139OSM    C1S15167   4.831   0.162   6.618  0.0245  0.3184  0.0689
  139OSM    H1S15168   4.755   0.084   6.641  1.0258 -0.5257  0.6076
  139OSM    H1T15169   4.925   0.114   6.583  1.2432  1.9508  0.9358
  139OSM     NF15170   4.802   0.183   6.362 -0.2377 -0.2554  0.2698
  139OSM    HNF15171   4.874   0.211   6.298 -0.9240 -1.1987 -0.9516
  139OSM    C2S15172   4.781   0.248   6.495  0.0007  0.1856  0.1049
  139OSM    H2S15173   4.673   0.255   6.522 -0.7993 -0.2843 -2.6722
  139OSM    C3S15174   4.832   0.389   6.497  0.4002 -0.6322 -0.0457
  139OSM    H3S15175   4.937   0.390   6.462 -0.0099 -0.3847 -1.3366
  139OSM     O315176   4.840   0.463   6.623 -0.4270 -0.0745 -0.4722
  139OSM    HO315177   4.820   0.386   6.677 -1.8251  0.3324 -0.3892
  139OSM    C4S15178   4.753   0.473   6.394 -0.4585  0.3169 -0.1401
  139OSM    H4S15179   4.648   0.442   6.385 -0.5607  1.0471 -1.8611
  139OSM    C5S15180   4.810   0.546   6.294  0.2974 -0.1491 -0.2273
  139OSM    H5S15181   4.916   0.571   6.309  0.0097 -0.2790  2.6505
  139OSM    C6S15182   4.754   0.606   6.169 -0.3903  1.0093 -0.3387
  139OSM    H6S15183   4.834   0.604   6.092  1.6699  0.8524  1.6924
  139OSM    H6T15184   4.734   0.715   6.182 -0.3733  1.0666 -0.8111
  139OSM    C7S15185   4.641   0.516   6.119 -0.0448  0.3820  0.7963
  139OSM    H7S15186   4.554   0.513   6.187 -0.3021  0.0417  0.4597
  139OSM    H7T15187   4.670   0.410   6.104 -1.6723 -0.2533  1.9719
  139OSM    C8S15188   4.584   0.564   5.982  0.0480  0.0925  0.0753
  139OSM    H8S15189   4.666   0.590   5.911  0.0328 -0.3787 -0.1175
  139OSM    H8T15190   4.537   0.662   6.005  0.7904  0.5039 -0.0999
  139OSM    C9S15191   4.482   0.470   5.922 -0.1805 -0.2369  0.4076
  139OSM    H9S15192   4.394   0.478   5.989 -0.0401 -0.2867  0.5980
  139OSM    H9T15193   4.520   0.366   5.919  0.1084 -0.1231 -0.0522
  139OSM   C10S15194   4.448   0.501   5.773  1.0704 -0.1776  0.4149
  139OSM   H10S15195   4.535   0.484   5.706  0.6161 -0.6223 -0.0646
  139OSM   H10T15196   4.431   0.611   5.769  1.0774  0.0289  3.5865
  139OSM   C11S15197   4.318   0.437   5.724 -0.1987 -0.1614 -0.0231
  139OSM   H11S15198   4.238   0.488   5.781  2.0031  1.9337  1.3522
  139OSM   H11T15199   4.322   0.327   5.739  0.4495  0.0282  1.3215
  139OSM   C12S15200   4.274   0.471   5.584 -0.1490  0.1337  0.7616
  139OSM   H12S15201   4.273   0.581   5.569  0.9873 -0.1401 -1.6447
  139OSM   H12T15202   4.173   0.424   5.571 -0.1669  0.8582 -2.7354
  139OSM   C13S15203   4.362   0.409   5.481  0.9617 -0.2912  0.5613
  139OSM   H13S15204   4.373   0.302   5.510  0.0254 -0.5941 -0.1608
  139OSM   H13T15205   4.464   0.453   5.472 -0.5002  3.3156  0.1760
  139OSM   C14S15206   4.304   0.410   5.339  1.0789  0.4278 -0.1415
  139OSM   H14S15207   4.294   0.514   5.301  1.8771  1.0871  1.3569
  139OSM   H14T15208   4.204   0.365   5.355  1.8684 -1.1935  0.5303
  139OSM   C15S15209   4.376   0.337   5.228  0.1878 -0.5329 -0.8385
  139OSM   H15S15210   4.373   0.231   5.261  0.4307  0.0213  1.1185
  139OSM   H15T15211   4.478   0.382   5.233 -1.0161  2.3090  0.2109
  139OSM   C16S15212   4.293   0.373   5.108  0.1604 -0.4086 -0.4780
  139OSM   H16S15213   4.307   0.481   5.086  1.7332 -0.3806  0.4948
  139OSM   H16T15214   4.183   0.364   5.123  0.2863  0.6645  1.4637
  139OSM   C17S15215   4.336   0.292   4.988 -0.5176 -0.0353  0.1007
  139OSM   H17S15216   4.318   0.183   5.001 -2.1335  0.0097 -1.3652
  139OSM   H17T15217   4.446   0.298   4.972 -0.8488 -0.2906 -2.6998
  139OSM   C18S15218   4.263   0.338   4.863  0.9801 -0.2729 -0.1383
  139OSM   H18S15219   4.266   0.254   4.791  1.2541 -0.9002  0.5810
  139OSM   H18T15220   4.299   0.435   4.822  1.7041  0.8645  2.8477
  139OSM   H18U15221   4.157   0.361   4.884  0.6822 -0.7571 -1.0886
  139OSM    C1F15222   4.741   0.065   6.340  0.3525 -0.1164  0.6106
  139OSM     OF15223   4.657   0.030   6.422  0.2189 -0.3914  0.4016
  139OSM    C2F15224   4.787  -0.006   6.214  0.7071  0.0085  0.4022
  139OSM    H2F15225   4.807  -0.112   6.241 -0.6820 -0.3350  0.1583
  139OSM    H2G15226   4.883   0.031   6.171  1.6173 -2.1567  0.4347
  139OSM    C3F15227   4.675  -0.014   6.107  0.0421  0.3340  0.1690
  139OSM    H3F15228   4.582  -0.045   6.160 -0.4122  2.2458  0.5609
  139OSM    H3G15229   4.700  -0.095   6.036 -0.8150  1.2788 -1.2588
  139OSM    C4F15230   4.658   0.115   6.033  1.0341 -0.4002  0.0654
  139OSM    H4F15231   4.639   0.201   6.101 -2.9609  1.6875 -3.1710
  139OSM    H4G15232   4.560   0.116   5.980  0.4226  1.1586  1.1417
  139OSM    C5F15233   4.768   0.153   5.938  0.0407  0.2778  0.1840
  139OSM    H5F15234   4.868   0.164   5.985 -0.5810  0.6809  1.4485
  139OSM    H5G15235   4.746   0.251   5.890 -2.5042 -1.1581 -1.8767
  139OSM    C6F15236   4.774   0.057   5.814  0.1133 -0.2023  0.1204
  139OSM    H6F15237   4.714   0.107   5.734  0.8272  1.2150  0.4333
  139OSM    H6G15238   4.730  -0.039   5.846 -1.0096  1.1707  3.1056
  139OSM    C7F15239   4.915   0.031   5.763  0.0640  0.4498 -0.2169
  139OSM    H7F15240   4.976  -0.018   5.842 -0.1032  0.5309 -0.0383
  139OSM    H7G15241   4.964   0.123   5.725 -0.1726  0.1460 -1.3159
  139OSM    C8F15242   4.912  -0.064   5.641 -0.6899  0.7568 -0.8859
  139OSM    H8F15243   4.845  -0.014   5.568 -0.1733  1.4496 -0.8994
  139OSM    H8G15244   4.857  -0.157   5.665  3.3211 -1.2616  1.6812
  139OSM    C9F15245   5.044  -0.094   5.585  0.4399 -0.4991 -0.4536
  139OSM    H9F15246   5.112  -0.145   5.655  0.4109  0.4574  0.2992
  139OSM   C10F15247   5.095  -0.069   5.463 -0.2759 -0.1215  0.9046
  139OSM   H10F15248   5.197  -0.097   5.433 -0.9815 -0.2720 -1.6075
  139OSM   C11F15249   5.029   0.017   5.347 -0.3167  0.1267  0.8452
  139OSM   H11F15250   5.057   0.122   5.328 -1.8821  0.1930 -1.6234
  139OSM   H11G15251   4.922   0.028   5.374 -0.2928  0.6059  0.7443
  139OSM   C12F15252   5.049  -0.062   5.216 -0.1699  0.1300 -0.5797
  139OSM   H12F15253   4.980  -0.150   5.214 -1.6048  1.2204 -1.1267
  139OSM   H12G15254   5.153  -0.099   5.203  0.0144  0.4613 -0.0290
  139OSM   C13F15255   5.009   0.009   5.088  0.6484  0.5362 -0.5498
  139OSM   H13F15256   5.069   0.098   5.062  1.9074 -0.2229 -0.3141
  139OSM   H13G15257   4.912   0.060   5.107 -0.9517 -2.2160 -0.7311
  139OSM   C14F15258   4.984  -0.081   4.961 -0.3243 -0.0884  0.6642
  139OSM   H14F15259   4.904  -0.155   4.983 -0.4934 -0.5034 -1.2364
  139OSM   H14G15260   5.077  -0.140   4.945 -1.1425 -1.3383  0.3652
  139OSM   C15F15261   4.950   0.010   4.839  0.2677 -0.4821  0.1434
  139OSM   H15F15262   5.041   0.073   4.829  1.3974 -2.0323  0.3686
  139OSM   H15G15263   4.860   0.073   4.858 -0.2030 -1.0816 -0.0589
  139OSM   C16F15264   4.938  -0.071   4.711  0.1327  0.5659  0.3841
  139OSM   H16F15265   4.860  -0.146   4.738  0.6755  0.0174  0.4711
  139OSM   H16G15266   5.023  -0.139   4.688 -2.5501 -2.8189 -0.4061
  139OSM   C17F15267   4.900  -0.004   4.579  0.2681  0.9131  0.6585
  139OSM   H17F15268   4.984   0.063   4.551 -0.4213  2.2065  1.5623
  139OSM   H17G15269   4.813   0.062   4.603  0.1996  0.5153  1.5552
  139OSM   C18F15270   4.868  -0.103   4.466 -0.5920 -0.2610 -0.5042
  139OSM   H18F15271   4.870  -0.041   4.374  2.0262  2.3214  1.1287
  139OSM   H18G15272   4.768  -0.152   4.471  0.0004 -1.4450  0.3204
  139OSM   H18H15273   4.951  -0.176   4.466  0.2063  0.6365 -0.1904
  140OSM      N15274   4.326   5.213   6.842 -0.2213 -0.3324  0.8622
  140OSM    C1515275   4.423   5.129   6.770 -0.3774 -0.5437 -0.4975
  140OSM   H15A15276   4.500   5.087   6.834 -1.6826 -1.0605  0.7773
  140OSM   H15B15277   4.467   5.177   6.683 -2.2018  0.0072 -1.1518
  140OSM   H15C15278   4.368   5.045   6.732 -1.7925 -0.6264  1.5598
  140OSM    C1415279   4.271   5.152   6.968 -0.1892  0.0249 -0.1361
  140OSM   H14A15280   4.345   5.150   7.047  1.0870  1.3148 -1.2600
  140OSM   H14B15281   4.226   5.055   6.959  0.2679 -0.6204  3.2240
  140OSM   H14C15282   4.191   5.206   7.017 -0.1438  0.6569 -0.7452
  140OSM    C1315283   4.404   5.337   6.890 -0.0438  0.2948  0.0619
  140OSM   H13A15284   4.441   5.378   6.797 -0.7786 -1.5574 -1.0940
  140OSM   H13B15285   4.488   5.322   6.956  0.8413  0.9457 -0.8884
  140OSM   H13C15286   4.336   5.409   6.934 -1.1429 -0.7767  0.1671
  140OSM    C1215287   4.214   5.253   6.742 -1.1643 -0.2842  0.1093
  140OSM   H12A15288   4.148   5.331   6.777  1.4185  2.6090 -1.0401
  140OSM   H12B15289   4.152   5.167   6.723 -2.4494  0.6700 -0.2154
  140OSM    C1115290   4.273   5.298   6.605 -0.0696  0.0785 -0.0135
  140OSM   H11A15291   4.179   5.318   6.550 -0.6884  0.2311  1.0792
  140OSM   H11B15292   4.329   5.217   6.553 -0.3226 -1.1781  1.5984
  140OSM      P15293   4.308   5.553   6.616  0.5309 -0.2217  0.1374
  140OSM    O1315294   4.183   5.563   6.696 -0.7122 -0.1942  0.4508
  140OSM    O1415295   4.420   5.631   6.664 -0.3840  0.0611 -0.3920
  140OSM    O1115296   4.276   5.591   6.464  0.1838 -0.3510  0.6011
  140OSM    O1215297   4.363   5.404   6.615 -0.3690  0.4846  0.5025
  140OSM    C1S15298   4.368   5.551   6.366  0.0704  0.1451 -0.4345
  140OSM    H1S15299   4.345   5.446   6.340  2.5069 -0.4673 -0.3326
  140OSM    H1T15300   4.469   5.565   6.409  0.4699  0.8316 -1.5643
  140OSM     NF15301   4.464   5.611   6.136  0.4444 -0.0628  0.1741
  140OSM    HNF15302   4.534   5.681   6.136  1.1691 -0.7220  2.0850
  140OSM    C2S15303   4.365   5.649   6.239  0.3205 -0.0289 -0.2927
  140OSM    H2S15304   4.262   5.646   6.198  0.2135  0.1091 -0.0420
  140OSM    C3S15305   4.385   5.797   6.289 -0.6439  0.4133 -0.0771
  140OSM    H3S15306   4.485   5.806   6.336  0.1473  3.6900 -2.0397
  140OSM     O315307   4.296   5.844   6.398 -0.0469  0.5806  0.5828
  140OSM    HO315308   4.248   5.766   6.427 -1.5909 -0.2115 -3.4735
  140OSM    C4S15309   4.372   5.881   6.169  0.1215 -0.3382 -0.7617
  140OSM    H4S15310   4.274   5.862   6.123  0.3351 -1.6557 -0.7237
  140OSM    C5S15311   4.455   5.981   6.140  0.0055  0.7079 -0.0158
  140OSM    H5S15312   4.553   5.979   6.189  0.6761 -1.6920 -1.2595
  140OSM    C6S15313   4.428   6.087   6.045  1.0436 -0.0718  0.4265
  140OSM    H6S15314   4.433   6.183   6.101  0.3788  1.2985 -1.7511
  140OSM    H6T15315   4.326   6.072   6.004  1.2198 -1.4960  0.4805
  140OSM    C7S15316   4.527   6.099   5.917  1.0844 -0.2339  0.1315
  140OSM    H7S15317   4.515   5.999   5.870  0.0971  0.2130 -0.6121
  140OSM    H7T15318   4.630   6.112   5.958  1.5657 -2.1394 -0.3777
  140OSM    C8S15319   4.504   6.215   5.819  0.7810 -0.6645 -0.2138
  140OSM    H8S15320   4.592   6.235   5.755  2.1353  2.8535  2.3921
  140OSM    H8T15321   4.487   6.312   5.872 -1.6104 -1.9283  1.5037
  140OSM    C9S15322   4.373   6.200   5.737  0.2394 -0.2996 -0.5691
  140OSM    H9S15323   4.298   6.195   5.818  0.0923  0.2145 -0.6710
  140OSM    H9T15324   4.383   6.102   5.685 -1.1504 -0.3239 -0.8226
  140OSM   C10S15325   4.341   6.306   5.631  0.4477  0.3522  0.2484
  140OSM   H10S15326   4.350   6.413   5.659  0.1740  0.8979 -1.6103
  140OSM   H10T15327   4.242   6.285   5.585  0.9189  1.0092 -1.1269
  140OSM   C11S15328   4.432   6.295   5.501  0.5029  0.0192  0.3369
  140OSM   H11S15329   4.452   6.189   5.477  0.5463  0.1763 -0.3237
  140OSM   H11T15330   4.531   6.337   5.528 -0.0874  1.8181 -0.1142
  140OSM   C12S15331   4.372   6.368   5.387  0.1165  0.0744 -0.8931
  140OSM   H12S15332   4.363   6.478   5.403  0.7925  0.4325 -2.6703
  140OSM   H12T15333   4.273   6.325   5.360 -1.2927  3.2862 -1.2867
  140OSM   C13S15334   4.462   6.351   5.256  0.3286 -0.5902  0.1183
  140OSM   H13S15335   4.561   6.394   5.282 -0.6404  2.1396 -0.3194
  140OSM   H13T15336   4.422   6.429   5.187  0.1501 -1.5674 -0.9219
  140OSM   C14S15337   4.474   6.213   5.203  0.4622 -0.0600  0.6007
  140OSM   H14S15338   4.378   6.157   5.198  0.1575  0.5081 -0.1758
  140OSM   H14T15339   4.549   6.158   5.263 -0.1336 -0.5173  0.9274
  140OSM   C15S15340   4.524   6.199   5.057 -0.1058  0.6191 -0.4922
  140OSM   H15S15341   4.543   6.090   5.043  0.6459  0.6715  0.0201
  140OSM   H15T15342   4.620   6.251   5.035  1.2874 -1.8135 -0.5579
  140OSM   C16S15343   4.420   6.247   4.965 -0.5864 -0.0634  0.4251
  140OSM   H16S15344   4.389   6.353   4.977  2.3928  1.0379 -0.4978
  140OSM   H16T15345   4.333   6.178   4.970 -0.4615 -0.2699 -0.1143
  140OSM   C17S15346   4.477   6.237   4.822 -0.4583 -0.2559  0.4075
  140OSM   H17S15347   4.563   6.307   4.816 -2.6083  2.6376  1.2604
  140OSM   H17T15348   4.411   6.291   4.750 -1.2989  0.9225  2.0085
  140OSM   C18S15349   4.516   6.091   4.768  0.1080 -0.3166 -0.4142
  140OSM   H18S15350   4.564   6.084   4.667  1.6043 -2.2392  0.3595
  140OSM   H18T15351   4.424   6.028   4.765  1.1995 -1.9934 -0.1723
  140OSM   H18U15352   4.582   6.034   4.837 -2.3962 -1.4467  1.1752
  140OSM    C1F15353   4.458   5.499   6.066  0.6891 -0.6421 -0.5336
  140OSM     OF15354   4.370   5.416   6.082  0.5858 -0.5195 -0.1783
  140OSM    C2F15355   4.566   5.476   5.965 -0.0650 -0.4625  0.7855
  140OSM    H2F15356   4.660   5.523   6.001  0.0224  0.7138 -0.8622
  140OSM    H2G15357   4.538   5.537   5.876  0.3305  0.1094  1.0510
  140OSM    C3F15358   4.586   5.328   5.923 -0.2979 -0.4992 -0.0697
  140OSM    H3F15359   4.489   5.282   5.894 -0.0089 -0.2607 -1.4563
  140OSM    H3G15360   4.638   5.280   6.009  1.1249 -2.1909 -1.8038
  140OSM    C4F15361   4.672   5.305   5.804 -0.3777  0.1506 -0.3488
  140OSM    H4F15362   4.685   5.195   5.788  0.9423  0.5869 -2.7534
  140OSM    H4G15363   4.771   5.350   5.828 -1.2816  1.9514  0.1419
  140OSM    C5F15364   4.625   5.358   5.668 -0.4060  0.5118  0.0275
  140OSM    H5F15365   4.640   5.468   5.664  1.4390  0.3018  0.1118
  140OSM    H5G15366   4.521   5.320   5.657 -0.0505 -0.0236 -1.7153
  140OSM    C6F15367   4.706   5.304   5.551 -0.5917  0.2079 -0.4318
  140OSM    H6F15368   4.692   5.194   5.552 -0.5145  0.1737 -1.6377
  140OSM    H6G15369   4.810   5.332   5.577 -0.4726  0.3455 -1.0243
  140OSM    C7F15370   4.650   5.371   5.419  0.1007 -0.0329 -0.6579
  140OSM    H7F15371   4.721   5.340   5.339  0.0519 -0.5756 -0.4976
  140OSM    H7G15372   4.655   5.480   5.438 -1.5120 -0.4397  2.8442
  140OSM    C8F15373   4.512   5.332   5.374 -0.0581  0.2907  0.2325
  140OSM    H8F15374   4.442   5.381   5.445 -0.5686  1.6787 -1.1816
  140OSM    H8G15375   4.502   5.222   5.385 -2.0050  0.2648 -1.2170
  140OSM    C9F15376   4.465   5.369   5.238 -0.1255 -0.5365  0.2990
  140OSM    H9F15377   4.543   5.399   5.166 -0.0236 -0.2807  0.5134
  140OSM   C10F15378   4.332   5.375   5.205 -0.2700  0.5002 -0.0067
  140OSM   H10F15379   4.301   5.394   5.102  0.9885 -1.3004 -0.7684
  140OSM   C11F15380   4.216   5.333   5.292  0.3193 -0.2257  0.2147
  140OSM   H11F15381   4.203   5.424   5.354 -1.8807 -1.4098  1.6497
  140OSM   H11G15382   4.248   5.255   5.364  2.4808 -0.2928 -0.7615
  140OSM   C12F15383   4.090   5.305   5.199  0.0871 -0.1327  0.1443
  140OSM   H12F15384   4.088   5.198   5.170  1.1080  0.2713 -1.5745
  140OSM   H12G15385   4.101   5.378   5.115  2.8584 -1.2047 -0.5280
  140OSM   C13F15386   3.965   5.324   5.280  0.5898  0.2207  0.1073
  140OSM   H13F15387   3.980   5.265   5.372 -1.6340  0.8836  0.9391
  140OSM   H13G15388   3.877   5.290   5.222  1.5254 -1.3341 -0.4587
  140OSM   C14F15389   3.931   5.469   5.318 -0.1513  0.6477  0.4092
  140OSM   H14F15390   3.917   5.541   5.235  0.2807 -1.2731 -1.4049
  140OSM   H14G15391   4.022   5.498   5.375  0.8497 -2.4569  0.5965
  140OSM   C15F15392   3.804   5.476   5.406 -1.0309  0.0370  0.3592
  140OSM   H15F15393   3.810   5.405   5.492  2.2940  0.8895  0.9778
  140OSM   H15G15394   3.716   5.458   5.340  0.1049  2.8767 -2.1231
  140OSM   C16F15395   3.807   5.620   5.461  0.0366  0.0146  0.5684
  140OSM   H16F15396   3.820   5.694   5.379  0.7314  1.2955  1.7846
  140OSM   H16G15397   3.899   5.645   5.518  0.1033 -0.2686  0.5864
  140OSM   C17F15398   3.682   5.659   5.543  0.3076  0.3323 -0.0800
  140OSM   H17F15399   3.693   5.604   5.639  2.1500  2.1885  0.8516
  140OSM   H17G15400   3.588   5.618   5.500 -0.0995  1.2128 -0.0641
  140OSM   C18F15401   3.650   5.808   5.570 -0.6070  0.1235 -0.5586
  140OSM   H18F15402   3.676   5.869   5.481 -1.1651  0.0008 -0.8091
  140OSM   H18G15403   3.721   5.826   5.654  0.0883 -2.2979 -0.5749
  140OSM   H18H15404   3.544   5.826   5.601 -1.1045 -0.6021 -1.7996
  141OSM      N15405   3.717   5.221   6.556  0.0867  0.1191  0.2168
  141OSM    C1515406   3.681   5.083   6.604  1.1031  0.0120 -0.0591
  141OSM   H15A15407   3.720   5.070   6.703  0.4522  3.2427  0.7191
  141OSM   H15B15408   3.713   5.001   6.541 -1.7675 -2.7444  1.7475
  141OSM   H15C15409   3.576   5.072   6.627  1.1468  0.3614  0.3067
  141OSM    C1415410   3.703   5.313   6.667  0.1675  0.4055 -0.6618
  141OSM   H14A15411   3.774   5.295   6.747 -0.8010 -0.9033 -0.0668
  141OSM   H14B15412   3.614   5.293   6.724  2.1805  1.9306  3.5171
  141OSM   H14C15413   3.726   5.411   6.628  0.7537  0.6669  0.3051
  141OSM    C1315414   3.859   5.213   6.514  0.1058  0.3496 -0.0254
  141OSM   H13A15415   3.885   5.120   6.465 -1.4794 -0.3159  0.3217
  141OSM   H13B15416   3.928   5.206   6.597  0.2193  1.3532 -0.0219
  141OSM   H13C15417   3.891   5.299   6.457  1.8676  0.2205  0.7112
  141OSM    C1215418   3.633   5.260   6.432  0.1584 -0.2814 -1.1365
  141OSM   H12A15419   3.651   5.363   6.406  2.6335 -0.6279 -0.9802
  141OSM   H12B15420   3.530   5.258   6.465  0.4505  0.4908 -0.1544
  141OSM    C1115421   3.633   5.169   6.306  0.6259 -0.1063 -0.1460
  141OSM   H11A15422   3.734   5.155   6.261  1.0818 -0.4097  0.9374
  141OSM   H11B15423   3.575   5.228   6.233  0.6765  1.0316  0.6939
  141OSM      P15424   3.414   5.034   6.350  0.2137  0.2082  0.1046
  141OSM    O1315425   3.362   4.894   6.367 -0.4544  0.4949  0.0875
  141OSM    O1415426   3.365   5.128   6.451  0.2649 -0.7174  0.4736
  141OSM    O1115427   3.370   5.085   6.210 -0.4686 -0.3963 -0.2985
  141OSM    O1215428   3.572   5.045   6.329  0.1356  0.2205 -0.3375
  141OSM    C1S15429   3.420   5.041   6.085  0.2388  0.2821 -0.2658
  141OSM    H1S15430   3.476   4.946   6.099  0.0775  0.4951  2.2743
  141OSM    H1T15431   3.490   5.114   6.041  0.4478  2.0924  2.7654
  141OSM     NF15432   3.382   4.992   5.847  0.6570 -0.2644 -0.3174
  141OSM    HNF15433   3.375   5.059   5.774  0.1772  0.1539  0.1012
  141OSM    C2S15434   3.316   5.005   5.980 -0.3779 -0.1490  0.1977
  141OSM    H2S15435   3.270   4.912   6.022 -1.2432  0.5152  0.7642
  141OSM    C3S15436   3.201   5.114   5.980  0.2427 -0.1500 -0.2095
  141OSM    H3S15437   3.242   5.216   5.971 -1.0422  0.5724  1.6143
  141OSM     O315438   3.128   5.123   6.102 -0.0930  0.2107 -0.6075
  141OSM    HO315439   3.192   5.106   6.172  0.2103  2.9496 -0.1287
  141OSM    C4S15440   3.102   5.092   5.865  0.5853  0.0420  0.1672
  141OSM    H4S15441   3.124   5.149   5.774  0.1481 -0.2207 -0.1104
  141OSM    C5S15442   3.006   4.998   5.860 -0.4131 -0.2055  0.0142
  141OSM    H5S15443   2.997   4.945   5.956  0.6569  0.9258  0.7668
  141OSM    C6S15444   2.918   4.962   5.746 -0.4218  0.1542  0.0960
  141OSM    H6S15445   2.824   5.021   5.744 -0.0140  0.8215  0.1215
  141OSM    H6T15446   2.895   4.854   5.753 -1.3502  0.1412 -2.3316
  141OSM    C7S15447   2.982   4.987   5.607  0.1933 -0.3560 -0.1825
  141OSM    H7S15448   3.073   4.923   5.615  0.5248  0.3435  4.3367
  141OSM    H7T15449   3.019   5.090   5.588 -2.5047  0.5139 -1.0815
  141OSM    C8S15450   2.890   4.960   5.489  0.1833 -0.1638 -0.0920
  141OSM    H8S15451   2.826   5.050   5.490  1.5506  0.8242  0.2114
  141OSM    H8T15452   2.825   4.871   5.508  1.0743 -0.4858  1.6492
  141OSM    C9S15453   2.968   4.949   5.365 -1.2880 -0.4828  0.4236
  141OSM    H9S15454   3.042   4.866   5.366  0.3733  0.8375 -2.2262
  141OSM    H9T15455   3.020   5.046   5.353 -2.3424 -0.1308 -1.7947
  141OSM   C10S15456   2.871   4.920   5.246  0.5758 -0.4706  0.5437
  141OSM   H10S15457   2.797   5.003   5.242  0.9074 -0.2009 -2.2264
  141OSM   H10T15458   2.803   4.836   5.268 -2.5158  1.3830 -1.1324
  141OSM   C11S15459   2.939   4.897   5.111  0.3699  0.2425 -0.2130
  141OSM   H11S15460   2.993   4.800   5.113 -0.4899 -0.3351 -2.2171
  141OSM   H11T15461   3.011   4.980   5.099  1.3223 -0.3869  0.8822
  141OSM   C12S15462   2.850   4.902   4.989  0.2431  0.3472  0.8193
  141OSM   H12S15463   2.801   5.001   4.998  0.1571  0.4796 -0.7304
  141OSM   H12T15464   2.770   4.826   4.970  0.1762  0.5334  0.3361
  141OSM   C13S15465   2.931   4.913   4.859 -0.5356  0.5155 -0.1793
  141OSM   H13S15466   2.979   5.013   4.858 -1.2125  0.8975  1.7372
  141OSM   H13T15467   2.859   4.907   4.774 -1.0288 -0.6483  0.3072
  141OSM   C14S15468   3.039   4.811   4.835 -0.2070 -0.0906 -0.1563
  141OSM   H14S15469   3.010   4.703   4.838  0.2481 -0.2013  1.0151
  141OSM   H14T15470   3.108   4.824   4.921 -0.0824  0.9734 -0.4088
  141OSM   C15S15471   3.142   4.845   4.716  0.4438  0.6150 -1.1339
  141OSM   H15S15472   3.126   4.950   4.682  1.9656  0.4661 -2.4020
  141OSM   H15T15473   3.124   4.776   4.631 -2.1696 -2.2690  1.5185
  141OSM   C16S15474   3.294   4.850   4.765  0.2154  0.4868 -0.4601
  141OSM   H16S15475   3.315   4.757   4.822 -0.5964  1.7063  1.9319
  141OSM   H16T15476   3.300   4.941   4.828 -1.3328  0.3733 -0.1254
  141OSM   C17S15477   3.393   4.849   4.644 -0.1246  0.7988 -0.2290
  141OSM   H17S15478   3.494   4.851   4.692 -0.4702  0.8766  0.5112
  141OSM   H17T15479   3.372   4.917   4.559 -2.3681 -2.3935 -2.4877
  141OSM   C18S15480   3.391   4.711   4.576 -0.2392 -0.0710 -0.4378
  141OSM   H18S15481   3.294   4.694   4.526 -0.4147  0.5205 -0.3114
  141OSM   H18T15482   3.411   4.630   4.649  2.8643  0.0043 -1.0645
  141OSM   H18U15483   3.468   4.699   4.497  0.3616  1.6957 -0.1687
  141OSM    C1F15484   3.460   4.889   5.817 -0.1743  0.2790  0.4465
  141OSM     OF15485   3.455   4.783   5.866  0.0816 -0.3072  0.3771
  141OSM    C2F15486   3.558   4.922   5.711 -0.8945 -0.4756  0.6913
  141OSM    H2F15487   3.613   5.016   5.734 -2.1799  0.4444  0.0683
  141OSM    H2G15488   3.504   4.932   5.614 -0.6666 -0.3651  0.5725
  141OSM    C3F15489   3.680   4.825   5.690 -0.0179  0.4497 -0.7078
  141OSM    H3F15490   3.644   4.719   5.684  0.9038  0.2021 -2.5232
  141OSM    H3G15491   3.749   4.828   5.776  2.3559 -2.0027 -2.3316
  141OSM    C4F15492   3.752   4.849   5.553  0.2413 -0.6241 -0.0026
  141OSM    H4F15493   3.807   4.945   5.555  1.2517 -1.0996 -2.3460
  141OSM    H4G15494   3.680   4.854   5.469  1.8714  0.8055 -1.3846
  141OSM    C5F15495   3.854   4.733   5.532  0.4443  0.9341 -1.3754
  141OSM    H5F15496   3.797   4.642   5.506  0.9340 -0.4036  1.7540
  141OSM    H5G15497   3.913   4.715   5.625 -2.2276  0.1862  0.2934
  141OSM    C6F15498   3.950   4.770   5.425 -0.3952 -0.5460 -0.3684
  141OSM    H6F15499   4.037   4.702   5.424  0.7327  0.8549 -0.5772
  141OSM    H6G15500   3.988   4.873   5.444 -0.8983 -0.1041 -1.6817
  141OSM    C7F15501   3.892   4.762   5.284 -0.4679  0.7006  0.1615
  141OSM    H7F15502   3.794   4.814   5.283 -0.9106 -0.1154  0.0947
  141OSM    H7G15503   3.862   4.655   5.277 -0.0932  0.6419 -0.6521
  141OSM    C8F15504   3.982   4.805   5.166 -0.3523 -0.0872 -0.4923
  141OSM    H8F15505   4.007   4.911   5.185 -1.3082 -0.0050  0.4099
  141OSM    H8G15506   3.921   4.795   5.073 -1.4620 -3.7993  0.4532
  141OSM    C9F15507   4.113   4.727   5.159  0.5395 -0.1617  0.6555
  141OSM    H9F15508   4.178   4.721   5.247 -1.7167  0.5125  2.4634
  141OSM   C10F15509   4.153   4.658   5.051  0.4796 -0.0688  0.8350
  141OSM   H10F15510   4.247   4.602   5.054 -0.7871 -2.3635  0.1914
  141OSM   C11F15511   4.085   4.646   4.914  0.5547 -0.8236  0.0483
  141OSM   H11F15512   3.974   4.649   4.916  0.4997 -1.8231  2.5395
  141OSM   H11G15513   4.097   4.539   4.887  1.0601 -0.9198  0.6181
  141OSM   C12F15514   4.133   4.747   4.810 -0.5719 -0.1222  0.3275
  141OSM   H12F15515   4.134   4.708   4.706 -4.4187  1.1560 -0.3408
  141OSM   H12G15516   4.237   4.776   4.837 -0.9665 -0.8789  3.0173
  141OSM   C13F15517   4.061   4.876   4.796  0.5213  0.1244  0.6728
  141OSM   H13F15518   4.135   4.951   4.762  1.7550 -1.1629  0.4043
  141OSM   H13G15519   4.012   4.908   4.891  1.1162  0.3508  0.9082
  141OSM   C14F15520   3.969   4.870   4.673 -0.2297  0.0715  0.0980
  141OSM   H14F15521   3.875   4.820   4.707 -0.2874  1.6952  2.5886
  141OSM   H14G15522   3.993   4.802   4.589 -2.0583 -1.1987  0.5244
  141OSM   C15F15523   3.926   5.010   4.623 -0.1500 -0.6431 -0.6315
  141OSM   H15F15524   4.014   5.054   4.572 -1.0835  0.6146 -1.2099
  141OSM   H15G15525   3.901   5.074   4.710 -1.0348 -2.2122  0.3109
  141OSM   C16F15526   3.800   5.010   4.535 -0.2252  0.3393 -0.1921
  141OSM   H16F15527   3.767   5.116   4.529  0.3924  0.4782 -1.9753
  141OSM   H16G15528   3.723   4.938   4.568 -0.0127 -0.1706 -0.7933
  141OSM   C17F15529   3.836   4.950   4.393 -0.1797  0.0902  0.7394
  141OSM   H17F15530   3.879   4.853   4.427 -0.3072 -0.0604  0.4754
  141OSM   H17G15531   3.914   5.014   4.346 -0.0703  0.9237  2.0252
  141OSM   C18F15532   3.722   4.923   4.298 -0.2616  0.1922 -0.6702
  141OSM   H18F15533   3.637   4.992   4.317 -1.0404 -0.3917 -1.9161
  141OSM   H18G15534   3.693   4.818   4.322 -2.8953  1.3163  1.6486
  141OSM   H18H15535   3.743   4.947   4.191  2.0760  0.7820 -0.1177
  142OSM      N15536   3.911   4.033   7.057 -0.3762 -0.6650 -0.2341
  142OSM    C1515537   3.931   3.921   7.152 -0.2452  0.0644 -0.2022
  142OSM   H15A15538   3.951   3.957   7.252  0.3554 -0.1181 -0.2541
  142OSM   H15B15539   4.005   3.847   7.127 -0.4351 -1.1769  2.5514
  142OSM   H15C15540   3.840   3.865   7.138  0.7617 -1.8569  0.5459
  142OSM    C1415541   3.787   4.111   7.096 -0.1256  0.0519  0.0206
  142OSM   H14A15542   3.769   4.195   7.030 -1.6940  0.4381  0.8934
  142OSM   H14B15543   3.781   4.143   7.199  0.6695  2.5809 -0.6358
  142OSM   H14C15544   3.698   4.051   7.087 -0.6776  0.5551  1.6913
  142OSM    C1315545   4.029   4.125   7.072 -0.0240 -0.4664 -0.7568
  142OSM   H13A15546   4.041   4.175   7.166  2.7473  0.7410 -1.6577
  142OSM   H13B15547   4.020   4.203   6.998 -0.8603  0.5042  0.3410
  142OSM   H13C15548   4.119   4.067   7.054  1.1612  1.6934 -2.2804
  142OSM    C1215549   3.921   3.983   6.916 -0.4711 -0.1512  0.2918
  142OSM   H12A15550   3.842   3.911   6.905 -3.4887  2.6264  1.9717
  142OSM   H12B15551   4.010   3.922   6.903 -0.7921  0.0070 -3.7223
  142OSM    C1115552   3.934   4.097   6.798  0.2166  0.2517  0.3687
  142OSM   H11A15553   3.955   4.041   6.704 -0.5852 -3.4659  2.2394
  142OSM   H11B15554   4.007   4.178   6.815 -0.5821  0.6461  2.1814
  142OSM      P15555   3.686   4.119   6.714  0.0373 -0.3263 -0.2571
  142OSM    O1315556   3.636   3.989   6.752  0.0654  0.7341  0.2557
  142OSM    O1415557   3.588   4.230   6.722  0.5476  0.6900 -0.0492
  142OSM    O1115558   3.746   4.108   6.571 -0.5515 -0.7724 -0.1317
  142OSM    O1215559   3.813   4.171   6.801  0.7476  1.0232  0.0522
  142OSM    C1S15560   3.769   4.224   6.489 -0.1584  0.0766  0.5028
  142OSM    H1S15561   3.852   4.290   6.523  0.8121  0.6271 -2.6542
  142OSM    H1T15562   3.678   4.286   6.475  0.3547  0.6391 -0.4432
  142OSM     NF15563   3.838   4.305   6.267 -0.4144  1.1368  0.2792
  142OSM    HNF15564   3.791   4.315   6.180  0.9599  1.5464 -0.4371
  142OSM    C2S15565   3.807   4.180   6.338 -0.4419  0.2765 -0.4063
  142OSM    H2S15566   3.894   4.111   6.326 -1.1505 -0.3822 -2.1311
  142OSM    C3S15567   3.690   4.093   6.280 -0.5897 -0.4244 -0.7965
  142OSM    H3S15568   3.608   4.167   6.280 -1.1019 -0.9485  0.4982
  142OSM     O315569   3.656   3.987   6.363  0.2546  0.2925  0.4097
  142OSM    HO315570   3.693   4.014   6.447 -1.5447  0.7922  1.0957
  142OSM    C4S15571   3.709   4.046   6.139 -0.3539 -0.4647  0.3848
  142OSM    H4S15572   3.636   4.086   6.067 -0.0441 -2.6174 -1.2224
  142OSM    C5S15573   3.795   3.953   6.093  0.6602 -0.1781 -0.0976
  142OSM    H5S15574   3.863   3.892   6.155  0.8738 -1.1856 -1.2838
  142OSM    C6S15575   3.774   3.894   5.955  0.1917  0.3119  0.7487
  142OSM    H6S15576   3.670   3.900   5.915  0.6572 -0.2044 -0.6307
  142OSM    H6T15577   3.781   3.783   5.957  1.0886  0.1969 -2.7075
  142OSM    C7S15578   3.874   3.954   5.846  0.0938  0.2934  0.2574
  142OSM    H7S15579   3.976   3.918   5.869 -0.2665 -1.0638 -0.1845
  142OSM    H7T15580   3.866   4.064   5.862  2.1781  0.1892  2.5359
  142OSM    C8S15581   3.846   3.905   5.704 -0.2074  0.0233  0.1149
  142OSM    H8S15582   3.743   3.938   5.676 -1.2725 -1.6046  1.8108
  142OSM    H8T15583   3.846   3.794   5.706  1.7608 -0.0420 -1.3733
  142OSM    C9S15584   3.946   3.950   5.603 -0.3502 -0.0579  0.7061
  142OSM    H9S15585   4.050   3.941   5.641  0.5694  2.9262 -0.7890
  142OSM    H9T15586   3.913   4.053   5.579  0.7243  0.0885 -0.2353
  142OSM   C10S15587   3.946   3.859   5.478  0.2821 -0.4592 -0.2458
  142OSM   H10S15588   3.972   3.755   5.509 -1.3455 -0.6642  0.5133
  142OSM   H10T15589   4.027   3.900   5.414 -0.5667  0.3808 -0.8061
  142OSM   C11S15590   3.803   3.862   5.411 -0.1672 -0.3551  0.2866
  142OSM   H11S15591   3.754   3.957   5.438 -1.5711 -0.6881 -0.9570
  142OSM   H11T15592   3.740   3.778   5.448 -1.1318  0.5280  0.6585
  142OSM   C12S15593   3.829   3.854   5.264  0.6993  0.5138 -0.1617
  142OSM   H12S15594   3.912   3.782   5.250  0.0447 -0.5923  1.3679
  142OSM   H12T15595   3.870   3.952   5.231 -1.3751  0.9927 -1.4729
  142OSM   C13S15596   3.695   3.830   5.190 -0.5619  0.1001 -0.1467
  142OSM   H13S15597   3.632   3.914   5.225 -0.1291 -0.3477  1.8200
  142OSM   H13T15598   3.642   3.736   5.218 -0.9302  1.0116  2.4757
  142OSM   C14S15599   3.719   3.840   5.039 -0.0317  0.2832 -0.5592
  142OSM   H14S15600   3.793   3.762   5.011  1.5492  0.8190  1.8790
  142OSM   H14T15601   3.738   3.945   5.010  0.1222  0.5484  0.4604
  142OSM   C15S15602   3.584   3.794   4.967 -0.5990  0.2095  0.0407
  142OSM   H15S15603   3.501   3.860   4.999 -0.3442  0.0442  1.0954
  142OSM   H15T15604   3.567   3.690   5.004  0.9197  0.5568  1.8824
  142OSM   C16S15605   3.588   3.766   4.811 -0.0493  0.2636  0.6310
  142OSM   H16S15606   3.504   3.698   4.782  2.0617 -1.8154 -1.0133
  142OSM   H16T15607   3.688   3.728   4.783 -0.0813  0.6479 -0.0222
  142OSM   C17S15608   3.567   3.900   4.734 -0.2318 -0.2698 -0.5230
  142OSM   H17S15609   3.630   3.982   4.777 -1.2323  0.0837  0.3168
  142OSM   H17T15610   3.464   3.942   4.741  1.0899  3.4756 -0.9709
  142OSM   C18S15611   3.600   3.904   4.577  0.3583  0.5340  0.4084
  142OSM   H18S15612   3.594   4.010   4.544  1.0318  0.2146 -0.8190
  142OSM   H18T15613   3.523   3.843   4.526  1.3134 -1.0702  0.8027
  142OSM   H18U15614   3.706   3.872   4.568  0.0652 -1.7241  3.4909
  142OSM    C1F15615   3.932   4.393   6.296  0.9150  0.5730  1.2016
  142OSM     OF15616   4.022   4.367   6.374 -0.1801  0.2445  0.0831
  142OSM    C2F15617   3.909   4.513   6.216 -0.1502 -0.2173  0.0494
  142OSM    H2F15618   3.887   4.595   6.287 -0.0364 -1.1070  1.1380
  142OSM    H2G15619   3.830   4.511   6.138  1.7046  1.8711 -2.0393
  142OSM    C3F15620   4.032   4.550   6.129 -0.7519 -0.2118 -0.1460
  142OSM    H3F15621   4.046   4.478   6.045 -0.7070  1.3240 -1.5120
  142OSM    H3G15622   4.125   4.537   6.189 -2.1795 -1.9962  1.8450
  142OSM    C4F15623   4.040   4.693   6.081 -0.3309 -0.6551  0.4936
  142OSM    H4F15624   4.036   4.761   6.168  1.8208  0.7009 -0.3925
  142OSM    H4G15625   3.949   4.720   6.023  1.3494  2.3932 -0.9350
  142OSM    C5F15626   4.159   4.720   5.982  0.4523  0.7323 -0.1516
  142OSM    H5F15627   4.174   4.638   5.909  0.2680 -2.1348  2.8118
  142OSM    H5G15628   4.252   4.736   6.040  0.9279  0.4464 -0.8125
  142OSM    C6F15629   4.121   4.845   5.904 -0.6734  0.6576 -0.3431
  142OSM    H6F15630   4.114   4.925   5.981  1.3555 -1.7729  2.5991
  142OSM    H6G15631   4.018   4.834   5.863 -1.9792  0.4711  2.7095
  142OSM    C7F15632   4.222   4.888   5.799 -0.1349 -0.7063  0.0105
  142OSM    H7F15633   4.188   4.984   5.755  0.2952  0.8193  2.8178
  142OSM    H7G15634   4.205   4.815   5.717  0.8251 -0.0873 -0.7628
  142OSM    C8F15635   4.361   4.877   5.856 -0.1716  0.8161  0.0026
  142OSM    H8F15636   4.401   4.773   5.846  0.3636  0.8913  1.1867
  142OSM    H8G15637   4.367   4.892   5.966  2.2808  2.9063 -0.3233
  142OSM    C9F15638   4.452   4.979   5.785 -0.3220 -0.1479 -0.5755
  142OSM    H9F15639   4.468   5.075   5.837 -0.2347  0.9629 -2.5600
  142OSM   C10F15640   4.526   4.952   5.671  0.3624 -0.0431 -0.1976
  142OSM   H10F15641   4.583   5.033   5.623 -0.9443  1.2389  0.3160
  142OSM   C11F15642   4.521   4.814   5.601 -0.0732 -0.3591  0.5532
  142OSM   H11F15643   4.469   4.735   5.658 -2.7264  1.2736  0.5400
  142OSM   H11G15644   4.627   4.782   5.595  0.0445 -0.3344  2.1177
  142OSM   C12F15645   4.452   4.827   5.462 -0.2543 -0.3631 -0.3975
  142OSM   H12F15646   4.353   4.875   5.475 -0.1976 -0.2513 -0.3877
  142OSM   H12G15647   4.442   4.723   5.424 -0.5695 -0.3575 -0.3330
  142OSM   C13F15648   4.527   4.915   5.361  0.6670  0.5955  0.0170
  142OSM   H13F15649   4.627   4.868   5.348  1.4823  1.7787  1.6139
  142OSM   H13G15650   4.549   5.015   5.402 -1.1585  0.2845  1.9256
  142OSM   C14F15651   4.436   4.928   5.233 -0.0200 -0.0056  0.7770
  142OSM   H14F15652   4.341   4.972   5.269 -1.1397 -3.3634  2.3093
  142OSM   H14G15653   4.415   4.825   5.196 -0.2185  0.2221  0.2441
  142OSM   C15F15654   4.482   5.026   5.130  0.6689  0.1174 -0.0219
  142OSM   H15F15655   4.580   4.988   5.095  0.6986 -0.2909  0.4858
  142OSM   H15G15656   4.496   5.126   5.177  1.1673  0.2134 -0.3611
  142OSM   C16F15657   4.382   5.047   5.009 -0.0369 -0.2130 -0.2930
  142OSM   H16F15658   4.291   5.092   5.054  0.6496  1.7112 -0.7736
  142OSM   H16G15659   4.365   4.950   4.957 -0.0910  0.3498 -1.3426
  142OSM   C17F15660   4.437   5.154   4.909 -1.0436 -0.2863 -0.2583
  142OSM   H17F15661   4.520   5.108   4.850  0.3200 -0.7768  1.9193
  142OSM   H17G15662   4.489   5.237   4.962  0.1234  0.6894 -2.7392
  142OSM   C18F15663   4.326   5.210   4.819 -0.1453 -0.5478  0.7650
  142OSM   H18F15664   4.294   5.137   4.742  0.1353  2.5562 -2.5721
  142OSM   H18G15665   4.363   5.300   4.765 -1.6076 -0.0660  0.5167
  142OSM   H18H15666   4.242   5.250   4.881  0.3386  1.3647  0.2593
  143OSM      N15667   5.583   1.491   6.775  0.5336  0.3654  0.6816
  143OSM    C1515668   5.531   1.368   6.704  0.5045  0.6160 -0.8551
  143OSM   H15A15669   5.576   1.276   6.736 -1.2200 -0.5924 -1.7551
  143OSM   H15B15670   5.548   1.386   6.599  1.0580  1.8464 -0.5729
  143OSM   H15C15671   5.426   1.363   6.730  0.6972 -1.8052 -0.3751
  143OSM    C1415672   5.547   1.481   6.924  1.3836  0.1903  0.2750
  143OSM   H14A15673   5.597   1.393   6.962 -0.0639 -1.4635 -1.4746
  143OSM   H14B15674   5.442   1.468   6.942  1.0175  1.2920 -0.9079
  143OSM   H14C15675   5.579   1.568   6.979 -1.8464  0.6432  1.6489
  143OSM    C1315676   5.734   1.479   6.766 -0.5198  0.1586 -0.1005
  143OSM   H13A15677   5.778   1.386   6.799  1.4469  0.9150 -0.4306
  143OSM   H13B15678   5.775   1.561   6.824  0.3259 -0.2972 -0.0367
  143OSM   H13C15679   5.765   1.489   6.663 -1.3543  1.4547 -0.2588
  143OSM    C1215680   5.539   1.623   6.707 -0.6156  0.3911 -0.0864
  143OSM   H12A15681   5.550   1.621   6.599  0.4042 -1.9045  0.0015
  143OSM   H12B15682   5.604   1.702   6.742  0.9222 -0.3156 -1.1889
  143OSM    C1115683   5.391   1.669   6.727  0.1188 -0.0887 -0.1936
  143OSM   H11A15684   5.378   1.761   6.665 -0.8580 -1.6572 -2.4437
  143OSM   H11B15685   5.382   1.703   6.832  2.2990  2.6719 -0.7666
  143OSM      P15686   5.230   1.565   6.540  0.0816 -0.1274 -0.3761
  143OSM    O1315687   5.337   1.533   6.446 -0.2496  0.2508 -0.2176
  143OSM    O1415688   5.119   1.475   6.545  0.2627 -0.4473 -0.3780
  143OSM    O1115689   5.187   1.718   6.500  0.2118  0.0520 -0.2088
  143OSM    O1215690   5.296   1.567   6.686 -0.1261 -0.6384  0.1374
  143OSM    C1S15691   5.237   1.801   6.395 -0.5834  0.5968  0.0727
  143OSM    H1S15692   5.347   1.788   6.382 -0.7838 -1.3324  0.1133
  143OSM    H1T15693   5.217   1.905   6.430 -1.9410  0.5541 -0.5410
  143OSM     NF15694   5.227   1.836   6.152  0.0351 -0.2375 -0.1356
  143OSM    HNF15695   5.174   1.905   6.104  0.0479  0.7958  1.2742
  143OSM    C2S15696   5.172   1.761   6.264  0.8126 -0.0259 -0.1798
  143OSM    H2S15697   5.185   1.656   6.231 -1.4208 -0.6747  0.8106
  143OSM    C3S15698   5.012   1.770   6.277  0.0854 -0.7817  0.5158
  143OSM    H3S15699   4.994   1.879   6.286 -0.6576 -0.6635 -1.8715
  143OSM     O315700   4.941   1.719   6.395 -0.1424  0.5932  0.1167
  143OSM    HO315701   5.007   1.700   6.462 -0.8276  0.5959  0.7987
  143OSM    C4S15702   4.957   1.724   6.148  0.0290 -0.8257 -0.6599
  143OSM    H4S15703   4.960   1.798   6.067  0.0775 -1.3094 -1.1049
  143OSM    C5S15704   4.888   1.616   6.119  0.3766 -0.0665  0.6494
  143OSM    H5S15705   4.848   1.557   6.203 -1.6614  1.2671  0.7007
  143OSM    C6S15706   4.801   1.586   6.001  0.8585 -0.3517  0.0143
  143OSM    H6S15707   4.697   1.565   6.032  1.1026 -1.5763  0.0644
  143OSM    H6T15708   4.823   1.491   5.946 -0.9898  0.3484 -2.0922
  143OSM    C7S15709   4.801   1.699   5.897 -0.3462  0.2995 -0.5718
  143OSM    H7S15710   4.906   1.727   5.877  0.1865 -0.9479  0.3664
  143OSM    H7T15711   4.760   1.795   5.936  0.6725  1.1339 -1.4863
  143OSM    C8S15712   4.725   1.671   5.769  0.3569  0.6837 -0.2690
  143OSM    H8S15713   4.622   1.637   5.793  0.7802 -0.0960  0.5166
  143OSM    H8T15714   4.780   1.590   5.716  1.7368  1.0809  0.5045
  143OSM    C9S15715   4.731   1.792   5.672  0.1603 -0.1240 -0.1272
  143OSM    H9S15716   4.836   1.803   5.637 -0.1522  1.3045 -0.6969
  143OSM    H9T15717   4.711   1.886   5.727 -0.1969 -0.5319  0.4555
  143OSM   C10S15718   4.659   1.770   5.541  0.0653 -0.0383 -0.3010
  143OSM   H10S15719   4.687   1.674   5.493 -0.3710 -1.5644  2.2686
  143OSM   H10T15720   4.693   1.848   5.470 -1.5566  1.3667  0.4081
  143OSM   C11S15721   4.502   1.759   5.547 -0.3054 -0.9594  0.4259
  143OSM   H11S15722   4.461   1.854   5.589  1.0115  0.0158 -0.3842
  143OSM   H11T15723   4.463   1.692   5.627 -0.1405  1.7597  2.9770
  143OSM   C12S15724   4.432   1.720   5.415  0.0709  0.5365  0.2186
  143OSM   H12S15725   4.322   1.705   5.417 -0.1173  1.1806 -1.9469
  143OSM   H12T15726   4.469   1.625   5.370  1.3601  1.2044 -0.1767
  143OSM   C13S15727   4.442   1.826   5.303 -0.1294 -0.1243 -0.8010
  143OSM   H13S15728   4.439   1.778   5.202 -2.4669  0.1820 -0.9181
  143OSM   H13T15729   4.540   1.878   5.314 -0.3764 -0.1562  2.0534
  143OSM   C14S15730   4.333   1.929   5.323  0.1083  0.3670  0.7421
  143OSM   H14S15731   4.344   1.978   5.422  2.8643  0.9134  0.2301
  143OSM   H14T15732   4.236   1.877   5.338 -0.9142  2.3792  1.3413
  143OSM   C15S15733   4.328   2.034   5.217 -0.5265  0.0379 -0.0442
  143OSM   H15S15734   4.426   2.079   5.191 -1.8851  2.1730 -1.9047
  143OSM   H15T15735   4.265   2.116   5.257 -0.6336 -0.4989  0.9179
  143OSM   C16S15736   4.257   1.991   5.084 -0.4874  0.3825  0.0646
  143OSM   H16S15737   4.152   1.971   5.115 -0.3743 -2.1767 -0.9514
  143OSM   H16T15738   4.298   1.894   5.048  1.9295  1.0675  0.7883
  143OSM   C17S15739   4.267   2.099   4.975 -0.0382 -0.0675  0.4783
  143OSM   H17S15740   4.375   2.122   4.966  0.7513 -3.8055 -2.2352
  143OSM   H17T15741   4.208   2.184   5.014 -1.8855 -2.0759  2.3316
  143OSM   C18S15742   4.208   2.068   4.832  0.0515  0.0087  0.0487
  143OSM   H18S15743   4.115   2.007   4.834  0.6428 -0.8911  0.5959
  143OSM   H18T15744   4.276   1.997   4.781 -1.5454 -0.9270 -0.8792
  143OSM   H18U15745   4.207   2.159   4.768 -0.4457  0.8483  1.2044
  143OSM    C1F15746   5.354   1.822   6.115  0.4128 -0.2334  0.8098
  143OSM     OF15747   5.433   1.735   6.159  0.7643 -0.0637  0.0094
  143OSM    C2F15748   5.402   1.919   6.011  0.0794  0.7880  0.3521
  143OSM    H2F15749   5.391   2.022   6.051 -0.4645  1.0649 -0.4903
  143OSM    H2G15750   5.335   1.926   5.923  0.7860 -0.5048 -0.3232
  143OSM    C3F15751   5.545   1.888   5.953  0.4469  0.2032 -0.2025
  143OSM    H3F15752   5.520   1.820   5.869 -1.2344 -0.2218  0.6041
  143OSM    H3G15753   5.612   1.831   6.022  0.1229  0.6970  0.5202
  143OSM    C4F15754   5.611   2.013   5.898 -0.4160 -0.3423  0.9529
  143OSM    H4F15755   5.618   2.090   5.978  1.9702 -0.3629  0.8293
  143OSM    H4G15756   5.545   2.057   5.820  1.5416  2.7450  0.8378
  143OSM    C5F15757   5.742   1.982   5.831  0.2659  0.1482 -0.1463
  143OSM    H5F15758   5.791   1.899   5.885  0.7616  1.0923  0.8989
  143OSM    H5G15759   5.810   2.069   5.847  0.4062  0.3027 -1.4660
  143OSM    C6F15760   5.727   1.945   5.689  0.3858 -0.2576 -0.1014
  143OSM    H6F15761   5.669   2.027   5.643  2.4051  0.2660 -1.8750
  143OSM    H6G15762   5.662   1.855   5.682 -1.2440  0.7485  1.2818
  143OSM    C7F15763   5.869   1.940   5.617 -0.2145  0.2375  0.1204
  143OSM    H7F15764   5.920   1.844   5.640  2.3495  1.1192 -1.4639
  143OSM    H7G15765   5.940   2.017   5.654  2.2448 -0.9788 -1.7612
  143OSM    C8F15766   5.850   1.958   5.471  0.6052 -0.2535 -0.0836
  143OSM    H8F15767   5.785   2.048   5.461 -1.2635 -1.2367  2.2353
  143OSM    H8G15768   5.788   1.870   5.444  0.1604  0.6614 -2.1947
  143OSM    C9F15769   5.983   1.985   5.398  0.5072  0.0532 -0.2418
  143OSM    H9F15770   6.076   1.975   5.455  1.1947 -0.8166 -1.4569
  143OSM   C10F15771   5.984   2.005   5.265 -0.3735 -0.7967  0.0076
  143OSM   H10F15772   6.078   2.038   5.218 -1.5536  0.4868 -1.5726
  143OSM   C11F15773   5.855   2.011   5.182 -0.3504 -0.0573 -0.0823
  143OSM   H11F15774   5.813   2.114   5.180  1.8305  0.8797 -1.9948
  143OSM   H11G15775   5.763   1.954   5.208 -1.9159  1.4168 -2.0707
  143OSM   C12F15776   5.882   1.980   5.031  0.2118  0.3998 -0.4974
  143OSM   H12F15777   5.883   1.870   5.013 -0.4524  0.3342 -0.1267
  143OSM   H12G15778   5.978   2.019   4.991  0.3650  0.1224 -0.4025
  143OSM   C13F15779   5.774   2.032   4.934  0.1238  0.6475  0.1062
  143OSM   H13F15780   5.771   2.142   4.952 -0.4334  0.4579  1.2889
  143OSM   H13G15781   5.670   1.996   4.951  0.2478  1.2312  2.4708
  143OSM   C14F15782   5.803   2.009   4.786 -0.2807  0.1637 -0.5596
  143OSM   H14F15783   5.791   1.899   4.769  0.3652  0.1273 -0.8017
  143OSM   H14G15784   5.910   2.037   4.775 -0.0317  0.0998  1.4075
  143OSM   C15F15785   5.733   2.101   4.690 -0.2075 -0.0227  0.4685
  143OSM   H15F15786   5.811   2.120   4.613  1.4594 -1.3304  1.7622
  143OSM   H15G15787   5.721   2.194   4.749 -0.5738  1.7689 -2.2124
  143OSM   C16F15788   5.600   2.051   4.630 -0.1706  0.3432 -0.3572
  143OSM   H16F15789   5.550   2.013   4.722  2.2239 -0.8999  0.5096
  143OSM   H16G15790   5.619   1.963   4.565  1.7335 -0.0829  0.7255
  143OSM   C17F15791   5.509   2.152   4.558  0.0371 -0.1018  0.1557
  143OSM   H17F15792   5.415   2.101   4.529 -1.5568  0.6503  3.5709
  143OSM   H17G15793   5.562   2.181   4.465 -1.7867 -1.2728 -1.3175
  143OSM   C18F15794   5.471   2.277   4.635 -0.4100  0.3751  0.7399
  143OSM   H18F15795   5.424   2.348   4.564  2.6403  2.2237  0.3761
  143OSM   H18G15796   5.558   2.336   4.671 -0.1747  1.3555 -1.2805
  143OSM   H18H15797   5.411   2.252   4.725 -0.4289  1.0723  0.9207
  144OSM      N15798   4.009   6.475   6.789  0.2739 -0.6634  0.3031
  144OSM    C1515799   3.961   6.599   6.870 -0.6595 -0.2460  0.4094
  144OSM   H15A15800   3.965   6.696   6.822 -0.4072 -0.1355  0.6556
  144OSM   H15B15801   4.019   6.611   6.960  1.2139 -0.4995 -0.7029
  144OSM   H15C15802   3.855   6.602   6.890 -0.8677  0.9185 -0.7396
  144OSM    C1415803   4.004   6.359   6.872 -0.1869 -0.3295  0.6240
  144OSM   H14A15804   4.074   6.356   6.955 -0.7866  0.5080  1.1733
  144OSM   H14B15805   4.034   6.274   6.813  0.7544 -0.7047  1.6039
  144OSM   H14C15806   3.906   6.341   6.915 -0.6039  0.0749 -0.1462
  144OSM    C1315807   3.916   6.459   6.673 -0.2835  0.1473 -0.1404
  144OSM   H13A15808   3.949   6.533   6.601 -0.8876  0.2543 -0.3140
  144OSM   H13B15809   3.816   6.473   6.709  0.5186  1.0037  1.8660
  144OSM   H13C15810   3.924   6.358   6.634 -2.3873 -0.6429  1.3142
  144OSM    C1215811   4.149   6.501   6.741  0.3224 -0.6739  0.2058
  144OSM   H12A15812   4.212   6.525   6.826  0.3381 -2.5045  0.7519
  144OSM   H12B15813   4.145   6.590   6.681  1.1276  0.6183  1.9795
  144OSM    C1115814   4.215   6.387   6.658  0.6835 -0.2416 -0.1915
  144OSM   H11A15815   4.297   6.431   6.598 -1.3946  4.4883  0.0243
  144OSM   H11B15816   4.142   6.339   6.589  0.6741 -1.3878  0.5780
  144OSM      P15817   4.366   6.314   6.860 -0.0705  0.1269 -0.4558
  144OSM    O1315818   4.364   6.447   6.926 -0.6436 -0.1500  0.2231
  144OSM    O1415819   4.350   6.196   6.949 -0.0428 -0.0101  0.0860
  144OSM    O1115820   4.496   6.306   6.765 -0.5762  0.5260 -0.2032
  144OSM    O1215821   4.256   6.290   6.750  0.5880 -0.0721  0.3071
  144OSM    C1S15822   4.546   6.432   6.709  0.0434  0.4104 -0.2817
  144OSM    H1S15823   4.612   6.483   6.783 -2.3555  2.7538  0.4125
  144OSM    H1T15824   4.477   6.507   6.665 -1.0797  0.2380  1.0984
  144OSM     NF15825   4.728   6.507   6.563  0.3280  0.2202 -0.5270
  144OSM    HNF15826   4.681   6.569   6.500  0.0853  0.1075 -0.4606
  144OSM    C2S15827   4.646   6.393   6.596  0.2936  0.4016  0.0424
  144OSM    H2S15828   4.714   6.314   6.635  1.4187  0.6619 -1.3469
  144OSM    C3S15829   4.573   6.331   6.474 -0.0651 -0.6569  0.0439
  144OSM    H3S15830   4.503   6.411   6.442 -0.8481 -1.7161 -0.9051
  144OSM     O315831   4.511   6.212   6.520  1.0479 -0.6733 -0.1552
  144OSM    HO315832   4.526   6.221   6.614  0.0933  0.9959 -0.1214
  144OSM    C4S15833   4.672   6.294   6.369  0.2948  0.1697 -0.3006
  144OSM    H4S15834   4.722   6.199   6.392  0.7775  0.2455 -0.9935
  144OSM    C5S15835   4.697   6.374   6.262 -0.6631 -0.1283  0.3135
  144OSM    H5S15836   4.654   6.474   6.246  1.2159  0.5135 -1.0743
  144OSM    C6S15837   4.793   6.328   6.150  0.4501  0.1552 -0.4004
  144OSM    H6S15838   4.793   6.218   6.137  2.2681  0.2544 -1.5388
  144OSM    H6T15839   4.896   6.361   6.177  0.1686  0.0982  0.8233
  144OSM    C7S15840   4.755   6.393   6.011  0.0412 -0.1721 -0.6720
  144OSM    H7S15841   4.739   6.503   6.023  1.5775  0.1333 -1.0987
  144OSM    H7T15842   4.656   6.348   5.988 -0.4084  1.1076 -1.3638
  144OSM    C8S15843   4.863   6.365   5.903  0.3506  1.2519  0.0011
  144OSM    H8S15844   4.876   6.255   5.891  0.5234  0.8784  2.9471
  144OSM    H8T15845   4.953   6.408   5.951 -1.2798  2.5621  2.0832
  144OSM    C9S15846   4.823   6.435   5.764  0.2846  0.4401  0.1095
  144OSM    H9S15847   4.822   6.542   5.796  1.5137  0.6994 -0.6513
  144OSM    H9T15848   4.721   6.396   5.741 -0.1392  1.2610  0.5192
  144OSM   C10S15849   4.915   6.406   5.646  0.1455 -0.5837 -0.7850
  144OSM   H10S15850   4.952   6.301   5.647  3.3308  0.4159  0.0883
  144OSM   H10T15851   5.000   6.475   5.667 -2.5181  3.0125 -0.8036
  144OSM   C11S15852   4.850   6.442   5.507 -0.0795 -0.0360 -0.3546
  144OSM   H11S15853   4.807   6.544   5.513 -2.0080 -0.7927 -0.4367
  144OSM   H11T15854   4.769   6.370   5.482 -1.9259  2.1505 -0.9908
  144OSM   C12S15855   4.950   6.438   5.383 -0.1102  0.0215 -0.0164
  144OSM   H12S15856   4.992   6.336   5.371  1.7645  0.7945 -0.4577
  144OSM   H12T15857   5.038   6.502   5.405 -0.8333  0.1165  3.2425
  144OSM   C13S15858   4.879   6.476   5.253  0.3995 -0.2583 -0.1344
  144OSM   H13S15859   4.847   6.581   5.269 -1.6519 -0.9515  0.7266
  144OSM   H13T15860   4.784   6.420   5.245  0.5548 -0.3234 -1.9954
  144OSM   C14S15861   4.976   6.446   5.139  0.7522  0.1887 -0.4616
  144OSM   H14S15862   5.043   6.358   5.152  0.5482  0.1889  0.6722
  144OSM   H14T15863   5.046   6.532   5.132 -0.0621  1.3345  3.2154
  144OSM   C15S15864   4.897   6.430   5.004 -0.2360  0.4453 -0.4747
  144OSM   H15S15865   4.838   6.519   4.974 -0.6390  0.4746  0.3805
  144OSM   H15T15866   4.820   6.350   5.006 -0.6273  0.7406  3.3062
  144OSM   C16S15867   4.992   6.400   4.886  1.2682  0.3962 -0.0278
  144OSM   H16S15868   5.013   6.291   4.878 -0.3590  0.0542 -0.0766
  144OSM   H16T15869   5.088   6.456   4.887  1.8849 -0.6309 -0.2437
  144OSM   C17S15870   4.932   6.438   4.747  0.0644 -0.3064 -0.1658
  144OSM   H17S15871   4.891   6.542   4.745 -1.7582 -0.9958 -0.2113
  144OSM   H17T15872   4.835   6.390   4.721 -1.3465  2.8368 -1.2505
  144OSM   C18S15873   5.026   6.414   4.629 -0.0107  0.3084  0.5484
  144OSM   H18S15874   4.991   6.457   4.532  1.0310  1.0730  0.4846
  144OSM   H18T15875   5.050   6.306   4.618 -2.5810 -0.0856 -2.9720
  144OSM   H18U15876   5.123   6.463   4.654  0.0921  0.3743  0.0427
  144OSM    C1F15877   4.819   6.562   6.638 -1.0466 -0.6892  0.0657
  144OSM     OF15878   4.850   6.501   6.739 -0.3850  0.3887 -0.5095
  144OSM    C2F15879   4.874   6.700   6.604  0.2214 -0.0453  0.8033
  144OSM    H2F15880   4.831   6.784   6.662 -1.8343  0.0791 -0.8120
  144OSM    H2G15881   4.839   6.719   6.501  2.1434 -1.3467 -0.1412
  144OSM    C3F15882   5.029   6.706   6.591  0.5528 -0.3689  1.1258
  144OSM    H3F15883   5.077   6.698   6.691  1.2718  1.9917  1.0313
  144OSM    H3G15884   5.078   6.800   6.557  0.4730 -1.1107 -1.1262
  144OSM    C4F15885   5.087   6.607   6.493  0.4103  0.0513 -0.0065
  144OSM    H4F15886   5.080   6.506   6.540 -0.9630  0.5684  0.9979
  144OSM    H4G15887   5.196   6.623   6.498  0.4981  0.2599 -2.1266
  144OSM    C5F15888   5.054   6.610   6.339 -0.0472 -0.4931 -0.6737
  144OSM    H5F15889   4.944   6.617   6.336 -0.4148 -4.1458 -0.0427
  144OSM    H5G15890   5.079   6.510   6.296 -2.1063 -0.7491 -1.3602
  144OSM    C6F15891   5.123   6.714   6.258  0.2815 -0.2261  0.1439
  144OSM    H6F15892   5.228   6.705   6.293  0.6587  0.5735 -0.7320
  144OSM    H6G15893   5.080   6.809   6.297  0.0321 -0.2173 -0.1438
  144OSM    C7F15894   5.098   6.695   6.112 -0.0678  0.2594  0.6601
  144OSM    H7F15895   4.991   6.687   6.083  0.1760 -0.7695  0.0124
  144OSM    H7G15896   5.131   6.591   6.096  1.0622  0.3659  2.0316
  144OSM    C8F15897   5.176   6.792   6.014 -0.0788  0.6620  0.2275
  144OSM    H8F15898   5.128   6.892   6.027 -3.8887 -1.1268  1.5004
  144OSM    H8G15899   5.157   6.760   5.909 -3.5853 -1.1492  1.2415
  144OSM    C9F15900   5.331   6.795   6.026 -0.5057  0.7497 -0.2029
  144OSM    H9F15901   5.368   6.732   6.108  0.3096  2.8180  1.1156
  144OSM   C10F15902   5.412   6.886   5.966  0.1071 -0.6710 -0.0605
  144OSM   H10F15903   5.521   6.886   5.977  0.3448  2.0814 -1.3816
  144OSM   C11F15904   5.353   7.003   5.885  0.0386  0.3164  0.4486
  144OSM   H11F15905   5.372   7.096   5.942 -0.4424 -0.0000  1.1391
  144OSM   H11G15906   5.246   6.989   5.861  0.7252 -1.0616 -2.2634
  144OSM   C12F15907   5.448   7.022   5.757  0.1908  0.5476 -0.3382
  144OSM   H12F15908   5.471   6.921   5.716  0.2667  0.0180  0.9653
  144OSM   H12G15909   5.538   7.080   5.786  2.7783 -2.9624 -0.7277
  144OSM   C13F15910   5.381   7.100   5.637  0.3681  0.5592  0.0357
  144OSM   H13F15911   5.322   7.190   5.668 -2.0914 -0.2249 -1.9749
  144OSM   H13G15912   5.311   7.029   5.587  0.6239  1.7430 -2.1418
  144OSM   C14F15913   5.489   7.134   5.533  0.0816 -0.0149 -0.1193
  144OSM   H14F15914   5.539   7.037   5.512  1.9967  0.7132  0.8671
  144OSM   H14G15915   5.564   7.198   5.583 -0.1599  1.0987 -1.1293
  144OSM   C15F15916   5.447   7.203   5.406  0.2384 -0.3753 -0.0777
  144OSM   H15F15917   5.532   7.186   5.336 -0.3588  0.8858 -1.1497
  144OSM   H15G15918   5.441   7.313   5.420  0.5929 -0.6279  2.7374
  144OSM   C16F15919   5.321   7.145   5.331 -0.2426  0.1227 -0.0205
  144OSM   H16F15920   5.230   7.185   5.380  0.3645  3.3649 -1.3244
  144OSM   H16G15921   5.330   7.034   5.325 -1.0877  0.0496  0.0022
  144OSM   C17F15922   5.319   7.183   5.183 -0.2602  0.2084 -0.0980
  144OSM   H17F15923   5.328   7.294   5.180  2.3037  0.0557 -0.1779
  144OSM   H17G15924   5.216   7.160   5.147 -0.7759  0.4260  1.1736
  144OSM   C18F15925   5.430   7.129   5.086 -0.0229 -0.6246 -0.5092
  144OSM   H18F15926   5.525   7.178   5.114 -0.4619  0.3400 -0.6849
  144OSM   H18G15927   5.399   7.154   4.982 -0.8862 -2.1371 -0.6507
  144OSM   H18H15928   5.438   7.018   5.086 -2.6449 -0.8835 -1.2118
  145OSM      N15929   5.531   3.645   6.479  0.1173 -0.4468  0.5304
  145OSM    C1515930   5.504   3.513   6.541  0.2774 -0.0326 -0.6313
  145OSM   H15A15931   5.400   3.513   6.571 -0.3177  1.4670 -2.4764
  145OSM   H15B15932   5.556   3.483   6.631  2.1568 -1.6765 -2.1672
  145OSM   H15C15933   5.521   3.436   6.468 -2.0286  0.5810 -1.9334
  145OSM    C1415934   5.418   3.695   6.393 -0.5765 -0.8329  0.1324
  145OSM   H14A15935   5.324   3.688   6.446 -0.2745 -0.3222  0.7547
  145OSM   H14B15936   5.404   3.623   6.314 -0.6443 -0.3927 -0.2634
  145OSM   H14C15937   5.439   3.791   6.349  1.2046 -0.8987  0.7405
  145OSM    C1315938   5.523   3.743   6.591 -0.1788 -0.1626 -0.0985
  145OSM   H13A15939   5.437   3.723   6.653 -0.4982 -1.9216 -1.0490
  145OSM   H13B15940   5.516   3.844   6.553 -1.5079  0.7260  2.2964
  145OSM   H13C15941   5.608   3.727   6.656  1.0304  1.7512 -1.1093
  145OSM    C1215942   5.671   3.664   6.424  0.6022 -0.3334 -0.3494
  145OSM   H12A15943   5.739   3.611   6.489  3.0665  1.0576 -1.6284
  145OSM   H12B15944   5.686   3.769   6.407 -1.4029 -0.1103 -0.9667
  145OSM    C1115945   5.698   3.589   6.284  0.3860  0.2664 -0.7233
  145OSM   H11A15946   5.802   3.607   6.249  0.7134 -1.2259 -0.5819
  145OSM   H11B15947   5.639   3.632   6.200 -0.4346  1.7594  0.5421
  145OSM      P15948   5.777   3.355   6.361 -0.2253  0.5657 -0.5245
  145OSM    O1315949   5.864   3.419   6.459 -0.3517  0.1149 -0.0749
  145OSM    O1415950   5.706   3.233   6.404  0.3452  0.1027 -0.0682
  145OSM    O1115951   5.866   3.311   6.237 -0.2113 -0.2911  0.1485
  145OSM    O1215952   5.677   3.454   6.304  0.4072  0.1904 -0.0610
  145OSM    C1S15953   5.791   3.284   6.114 -0.2360 -0.6469  0.9546
  145OSM    H1S15954   5.680   3.280   6.119 -0.4234  0.6381 -1.2959
  145OSM    H1T15955   5.820   3.184   6.074 -1.2644 -0.8377  0.6671
  145OSM     NF15956   5.750   3.379   5.882  0.0739  0.8786  0.0438
  145OSM    HNF15957   5.810   3.352   5.806  1.3840 -2.1422  1.9611
  145OSM    C2S15958   5.821   3.403   6.006 -0.0168  0.3486 -0.2794
  145OSM    H2S15959   5.768   3.495   6.040  1.4700  0.7935  0.9834
  145OSM    C3S15960   5.967   3.442   6.007 -0.8196 -0.7224 -0.1859
  145OSM    H3S15961   6.031   3.351   6.000 -0.2175 -0.2286 -1.3533
  145OSM     O315962   6.015   3.501   6.131  0.1540 -0.0132  0.0994
  145OSM    HO315963   5.958   3.459   6.196  2.4888 -0.8287  1.7657
  145OSM    C4S15964   6.007   3.537   5.894  0.1310  1.1114  0.2158
  145OSM    H4S15965   5.982   3.487   5.799  0.1314  1.2624  0.1361
  145OSM    C5S15966   6.039   3.667   5.903  0.3679 -0.1354  0.1345
  145OSM    H5S15967   6.031   3.709   6.004  1.6071 -0.1246  0.2524
  145OSM    C6S15968   6.057   3.768   5.790  0.3381  0.7747  0.0859
  145OSM    H6S15969   6.132   3.850   5.787 -0.1926  1.2930  0.6460
  145OSM    H6T15970   5.958   3.815   5.774  0.3198  0.3838 -1.1188
  145OSM    C7S15971   6.074   3.690   5.654  0.5861 -0.2748 -0.5491
  145OSM    H7S15972   5.988   3.624   5.633 -1.0950  1.3263  0.9271
  145OSM    H7T15973   6.167   3.630   5.663  1.2333  0.5241 -1.5816
  145OSM    C8S15974   6.104   3.793   5.539  0.3990  0.1881 -0.1530
  145OSM    H8S15975   6.212   3.817   5.540  0.1151  1.7559 -1.7167
  145OSM    H8T15976   6.061   3.896   5.548 -0.3514  0.1236 -2.3716
  145OSM    C9S15977   6.074   3.739   5.401 -0.0147  0.3659  0.8194
  145OSM    H9S15978   5.966   3.714   5.403 -0.0250  0.0619 -1.3365
  145OSM    H9T15979   6.131   3.644   5.392 -1.3103 -0.2964 -1.2140
  145OSM   C10S15980   6.077   3.841   5.287 -0.3141 -0.8707 -0.1081
  145OSM   H10S15981   6.174   3.893   5.295  0.2133 -1.5712 -1.6200
  145OSM   H10T15982   5.999   3.915   5.318  1.3047  0.5310  0.7845
  145OSM   C11S15983   6.060   3.778   5.151 -0.4964  0.4133 -0.4195
  145OSM   H11S15984   5.959   3.731   5.152 -1.1508  1.7942 -0.4498
  145OSM   H11T15985   6.145   3.709   5.131 -0.4408  0.7611 -1.4902
  145OSM   C12S15986   6.060   3.890   5.038 -0.3819  0.1183 -0.2991
  145OSM   H12S15987   5.961   3.937   5.058 -1.7454 -2.0490 -1.6146
  145OSM   H12T15988   6.050   3.838   4.941 -2.2589 -1.1674  0.5291
  145OSM   C13S15989   6.176   3.976   5.036 -0.6654 -0.2776 -0.3927
  145OSM   H13S15990   6.273   3.923   5.031  0.6604  1.8968  0.4960
  145OSM   H13T15991   6.178   4.040   5.127 -1.0160 -1.1289  0.2259
  145OSM   C14S15992   6.187   4.080   4.925 -0.1528 -0.3482 -0.9719
  145OSM   H14S15993   6.116   4.161   4.952  0.4027  0.0364 -0.6513
  145OSM   H14T15994   6.141   4.043   4.830 -0.8907 -0.5220 -0.5583
  145OSM   C15S15995   6.326   4.140   4.901 -0.1973  0.3629 -0.1286
  145OSM   H15S15996   6.371   4.076   4.821 -0.1472  0.9007 -0.5358
  145OSM   H15T15997   6.386   4.140   4.994 -0.8732 -0.3737  0.3153
  145OSM   C16S15998   6.321   4.280   4.844  0.2839  0.3218 -0.2191
  145OSM   H16S15999   6.409   4.325   4.894 -0.2132  0.6244  0.3940
  145OSM   H16T16000   6.222   4.327   4.864  0.9073  1.7593 -0.3473
  145OSM   C17S16001   6.332   4.279   4.690  1.1064 -0.6669  0.8303
  145OSM   H17S16002   6.248   4.218   4.650  0.1096  1.6462 -0.8150
  145OSM   H17T16003   6.429   4.230   4.667  1.0536 -0.3167 -0.1482
  145OSM   C18S16004   6.349   4.428   4.643  0.3293  0.3833 -0.1113
  145OSM   H18S16005   6.379   4.438   4.537  0.1699  1.9196 -0.0316
  145OSM   H18T16006   6.410   4.492   4.710 -0.7395  1.6924 -0.3319
  145OSM   H18U16007   6.249   4.477   4.642  0.3839  0.7592  3.1485
  145OSM    C1F16008   5.619   3.387   5.868 -0.1883 -0.7825  1.6388
  145OSM     OF16009   5.553   3.427   5.961  0.3368 -0.8362 -0.2602
  145OSM    C2F16010   5.564   3.358   5.735 -0.6760  0.4018 -0.3380
  145OSM    H2F16011   5.610   3.264   5.697 -0.2806  0.6095 -0.3787
  145OSM    H2G16012   5.598   3.440   5.669  2.3522 -1.0492 -0.7701
  145OSM    C3F16013   5.413   3.343   5.743 -0.1353  0.4988  0.0216
  145OSM    H3F16014   5.362   3.432   5.785 -2.2105 -0.0252 -1.2287
  145OSM    H3G16015   5.382   3.258   5.807 -0.4850 -0.7396 -1.7383
  145OSM    C4F16016   5.353   3.308   5.599  0.2602 -0.2452 -0.5797
  145OSM    H4F16017   5.243   3.297   5.608  0.0652  1.7627  0.0008
  145OSM    H4G16018   5.407   3.219   5.561 -0.4846 -1.2503  0.6152
  145OSM    C5F16019   5.355   3.444   5.518 -0.0979  0.2033 -0.2992
  145OSM    H5F16020   5.457   3.487   5.525  0.7672 -1.9570  1.4859
  145OSM    H5G16021   5.279   3.508   5.567 -0.8356  0.3494 -1.5880
  145OSM    C6F16022   5.316   3.421   5.369 -0.8152 -0.4659  0.0319
  145OSM    H6F16023   5.253   3.329   5.365 -0.6643 -0.5853  0.4266
  145OSM    H6G16024   5.406   3.396   5.308  0.6054  2.4816  0.7256
  145OSM    C7F16025   5.223   3.526   5.310 -0.1790  0.1008 -0.0034
  145OSM    H7F16026   5.146   3.549   5.387  1.0817 -1.2180  1.7376
  145OSM    H7G16027   5.162   3.483   5.227 -0.3626  0.1064  0.1274
  145OSM    C8F16028   5.286   3.665   5.288  0.4119 -0.4773  0.5628
  145OSM    H8F16029   5.373   3.687   5.353 -0.5227  0.4973  1.5238
  145OSM    H8G16030   5.207   3.739   5.316 -0.8786 -1.1646 -1.0850
  145OSM    C9F16031   5.302   3.682   5.134 -0.0938  0.6066  0.1736
  145OSM    H9F16032   5.204   3.701   5.087  0.2257  0.6175 -0.4983
  145OSM   C10F16033   5.416   3.677   5.060  0.1248 -0.4592  0.4971
  145OSM   H10F16034   5.420   3.675   4.950  1.7952 -1.0855  0.5459
  145OSM   C11F16035   5.553   3.663   5.112 -0.4363  0.9583 -0.2735
  145OSM   H11F16036   5.567   3.641   5.220  1.0163 -0.4598 -0.6947
  145OSM   H11G16037   5.602   3.762   5.102 -0.7687  1.1672  0.1275
  145OSM   C12F16038   5.648   3.568   5.034 -0.1992 -0.4456  0.0852
  145OSM   H12F16039   5.600   3.473   5.002  1.4578 -0.6741 -1.9302
  145OSM   H12G16040   5.734   3.543   5.099  0.2673  2.3159  0.6324
  145OSM   C13F16041   5.701   3.636   4.906 -0.4999  0.4650 -0.1186
  145OSM   H13F16042   5.768   3.720   4.932 -1.8683  1.2521  1.0166
  145OSM   H13G16043   5.617   3.670   4.841 -0.6325 -1.3235 -0.9543
  145OSM   C14F16044   5.803   3.551   4.830  0.1105 -0.4180 -0.1459
  145OSM   H14F16045   5.847   3.480   4.903  0.8513  0.0803 -0.0992
  145OSM   H14G16046   5.894   3.592   4.782 -0.8854  2.3314  0.1616
  145OSM   C15F16047   5.729   3.480   4.710 -0.5211 -0.4175  0.3489
  145OSM   H15F16048   5.631   3.441   4.745 -0.3668 -0.8471  0.3181
  145OSM   H15G16049   5.790   3.394   4.675 -1.0203 -0.3071 -0.8524
  145OSM   C16F16050   5.715   3.580   4.594  0.1434 -0.4943  0.5771
  145OSM   H16F16051   5.820   3.609   4.571 -0.0668 -0.2665 -0.1493
  145OSM   H16G16052   5.682   3.683   4.620  3.4707  1.4813 -2.1250
  145OSM   C17F16053   5.650   3.520   4.474  0.2110  0.1681 -0.3477
  145OSM   H17F16054   5.541   3.519   4.495  0.0741 -0.1781 -1.0414
  145OSM   H17G16055   5.684   3.417   4.453  1.2814  0.8842 -2.4385
  145OSM   C18F16056   5.670   3.610   4.343  0.2167 -0.7049 -0.6313
  145OSM   H18F16057   5.771   3.653   4.326 -0.1250  0.5195  0.2994
  145OSM   H18G16058   5.600   3.696   4.345  1.3785  0.2857 -0.9024
  145OSM   H18H16059   5.644   3.551   4.253  0.5295  0.6744 -1.6658
  146OSM      N16060   2.997   4.889   6.448 -0.2950 -0.6375  0.1428
  146OSM    C1516061   3.109   4.856   6.546 -0.0134 -0.0278 -0.1356
  146OSM   H15A16062   3.126   4.941   6.611  1.3277 -1.1642  1.0664
  146OSM   H15B16063   3.203   4.854   6.492  0.1765  0.1412  0.1827
  146OSM   H15C16064   3.083   4.772   6.609 -0.5882 -0.7570 -1.3131
  146OSM    C1416065   2.884   4.953   6.516 -0.3646  0.0053  0.4772
  146OSM   H14A16066   2.918   5.051   6.546 -0.1050  0.2864 -0.6752
  146OSM   H14B16067   2.847   4.897   6.600  0.5571  1.2979  1.7799
  146OSM   H14C16068   2.803   4.969   6.446  0.4460  1.2288 -0.2333
  146OSM    C1316069   3.055   4.983   6.346  0.1356  0.0255  0.0441
  146OSM   H13A16070   3.126   5.052   6.391  0.2923 -0.5261  0.6605
  146OSM   H13B16071   2.977   5.039   6.296  0.7402 -0.9539 -2.0746
  146OSM   H13C16072   3.125   4.939   6.278  0.0670 -1.1272  0.6985
  146OSM    C1216073   2.948   4.757   6.381 -0.8212  0.3176  0.0337
  146OSM   H12A16074   2.914   4.693   6.461 -2.9717 -1.8109 -2.4257
  146OSM   H12B16075   3.033   4.702   6.344  0.6852  1.8550  1.0564
  146OSM    C1116076   2.842   4.750   6.271 -0.0543  0.1688  0.7829
  146OSM   H11A16077   2.821   4.647   6.237 -1.6138  1.0900 -1.3349
  146OSM   H11B16078   2.880   4.799   6.179 -0.6785 -0.5656  0.1233
  146OSM      P16079   2.599   4.776   6.382 -0.0376  0.2218  0.5502
  146OSM    O1316080   2.634   4.681   6.492  0.2888 -0.2575  0.7461
  146OSM    O1416081   2.521   4.896   6.417 -0.0697 -0.2463  0.2569
  146OSM    O1116082   2.516   4.689   6.273 -0.1764 -0.4763  0.3561
  146OSM    O1216083   2.724   4.819   6.303 -0.7167 -0.6650 -0.7242
  146OSM    C1S16084   2.457   4.752   6.156 -0.5319 -0.5663 -0.0156
  146OSM    H1S16085   2.446   4.862   6.174  1.1672 -0.6793  2.2178
  146OSM    H1T16086   2.353   4.719   6.139 -2.2574  3.0155  2.2157
  146OSM     NF16087   2.480   4.829   5.920 -0.5518 -0.1828  0.3551
  146OSM    HNF16088   2.421   4.797   5.847  0.8615 -1.2908 -0.3578
  146OSM    C2S16089   2.537   4.732   6.018  1.0654  0.2703  0.2679
  146OSM    H2S16090   2.645   4.755   6.035  0.9247  0.2247  1.2596
  146OSM    C3S16091   2.524   4.578   5.979 -0.0422  0.6704 -0.3010
  146OSM    H3S16092   2.415   4.560   5.979 -0.0954  0.9208  0.7902
  146OSM     O316093   2.576   4.489   6.078 -0.0950 -0.3233  0.0090
  146OSM    HO316094   2.561   4.542   6.157 -2.4664 -0.1832 -0.4483
  146OSM    C4S16095   2.582   4.556   5.838 -0.0294  0.4868 -0.6525
  146OSM    H4S16096   2.492   4.572   5.777 -1.7004 -1.0829  1.2268
  146OSM    C5S16097   2.713   4.532   5.796 -0.5878 -0.3350 -0.3172
  146OSM    H5S16098   2.792   4.515   5.870 -0.0832  1.9229 -0.2992
  146OSM    C6S16099   2.761   4.542   5.655  0.3214 -0.2682 -0.9815
  146OSM    H6S16100   2.863   4.499   5.656  0.2047 -0.5274  0.2683
  146OSM    H6T16101   2.768   4.647   5.617 -2.3429  0.3821  0.1189
  146OSM    C7S16102   2.667   4.452   5.567 -0.3434 -0.2876 -0.3138
  146OSM    H7S16103   2.568   4.502   5.558 -0.9583 -1.2564  0.7231
  146OSM    H7T16104   2.641   4.352   5.608 -1.3005 -0.8863 -2.2526
  146OSM    C8S16105   2.736   4.425   5.433 -0.4007  0.2269  0.5389
  146OSM    H8S16106   2.671   4.397   5.347  0.8607  0.9545 -0.6749
  146OSM    H8T16107   2.825   4.360   5.441  0.7545  1.5244 -1.2081
  146OSM    C9S16108   2.812   4.546   5.378 -0.3772 -0.1141  0.2152
  146OSM    H9S16109   2.887   4.580   5.452 -0.5564 -1.9558  1.2899
  146OSM    H9T16110   2.737   4.626   5.354  0.8577  0.7785 -0.8034
  146OSM   C10S16111   2.898   4.517   5.252  0.4624  0.0053  0.4228
  146OSM   H10S16112   2.976   4.439   5.259  0.8209  0.4522  1.7247
  146OSM   H10T16113   2.949   4.611   5.223 -0.7342  0.9061  1.1097
  146OSM   C11S16114   2.816   4.478   5.117  0.2468  0.0261 -0.3489
  146OSM   H11S16115   2.753   4.565   5.090  1.6799  1.2562  0.1319
  146OSM   H11T16116   2.770   4.379   5.137  0.4079  0.2282  1.1274
  146OSM   C12S16117   2.924   4.447   5.010  0.5568 -0.5176  1.1275
  146OSM   H12S16118   2.973   4.348   5.022 -0.0666 -1.0431 -0.4132
  146OSM   H12T16119   3.015   4.512   5.012 -0.5522  1.0635  2.0318
  146OSM   C13S16120   2.870   4.460   4.864  0.0662 -0.3337  0.0931
  146OSM   H13S16121   2.838   4.567   4.861  0.2901 -0.2638  0.1928
  146OSM   H13T16122   2.785   4.392   4.840  1.8195 -2.3985 -0.5733
  146OSM   C14S16123   2.986   4.431   4.774  0.4650 -0.3294  0.0204
  146OSM   H14S16124   3.011   4.324   4.787 -0.6028 -0.6337 -0.4042
  146OSM   H14T16125   3.080   4.489   4.792  0.9642 -0.9841 -0.4036
  146OSM   C15S16126   2.961   4.448   4.625  0.5860  0.0942 -0.1540
  146OSM   H15S16127   2.942   4.553   4.596  2.0370  1.1617  2.4689
  146OSM   H15T16128   2.875   4.382   4.598 -0.3931  1.5425 -0.7155
  146OSM   C16S16129   3.094   4.412   4.552  0.4397  0.5814  0.5515
  146OSM   H16S16130   3.108   4.302   4.557 -1.6146  0.2062 -0.8656
  146OSM   H16T16131   3.176   4.472   4.597  1.1913  1.0085 -1.3106
  146OSM   C17S16132   3.086   4.441   4.401 -0.2484 -0.0232  0.5740
  146OSM   H17S16133   3.055   4.548   4.397 -0.9660 -0.0434  3.4476
  146OSM   H17T16134   3.007   4.374   4.363 -0.9601  0.7133  0.7352
  146OSM   C18S16135   3.225   4.411   4.336 -0.4431  0.7423  1.1114
  146OSM   H18S16136   3.301   4.486   4.367  1.2730  0.2844 -1.6704
  146OSM   H18T16137   3.215   4.404   4.225  1.6832 -1.6981  0.9905
  146OSM   H18U16138   3.261   4.312   4.371  0.6648  0.8213  0.2534
  146OSM    C1F16139   2.508   4.957   5.930 -0.4112 -0.3239  0.1280
  146OSM     OF16140   2.576   5.010   6.016 -0.3747  0.1881  0.2480
  146OSM    C2F16141   2.447   5.039   5.815  0.6025 -0.4119 -0.5012
  146OSM    H2F16142   2.340   5.015   5.796  0.5713 -1.1923  0.5782
  146OSM    H2G16143   2.496   5.010   5.720 -1.4389 -0.4039 -1.6246
  146OSM    C3F16144   2.469   5.195   5.826 -0.6561 -0.0781 -0.0206
  146OSM    H3F16145   2.571   5.227   5.794  1.3214 -2.0846  3.5337
  146OSM    H3G16146   2.466   5.230   5.932  1.2647  1.2598 -0.3468
  146OSM    C4F16147   2.369   5.282   5.750  0.5397  0.5691  0.6630
  146OSM    H4F16148   2.399   5.389   5.754  1.0529  0.3965  1.8905
  146OSM    H4G16149   2.272   5.282   5.803  0.0148 -3.5789  0.0026
  146OSM    C5F16150   2.345   5.233   5.605 -0.1545 -1.2221 -1.1777
  146OSM    H5F16151   2.260   5.296   5.569 -0.1057 -0.6874 -0.3869
  146OSM    H5G16152   2.301   5.132   5.592 -2.0502 -0.6544  0.2354
  146OSM    C6F16153   2.468   5.258   5.515 -0.0469 -0.5344  0.2259
  146OSM    H6F16154   2.551   5.199   5.560  0.3301 -1.4218 -1.5482
  146OSM    H6G16155   2.495   5.365   5.523  0.5696 -0.7166  0.7059
  146OSM    C7F16156   2.445   5.210   5.371 -0.2601 -0.0371 -0.0252
  146OSM    H7F16157   2.364   5.273   5.328  0.4886  0.1145 -1.2766
  146OSM    H7G16158   2.394   5.112   5.373 -2.9223  1.2586  2.2590
  146OSM    C8F16159   2.577   5.192   5.290 -0.3871 -0.6274 -0.3677
  146OSM    H8F16160   2.549   5.156   5.189 -2.2180 -0.8618  0.1769
  146OSM    H8G16161   2.646   5.122   5.341  0.9696  1.4324  0.7435
  146OSM    C9F16162   2.642   5.329   5.267  0.4271  0.5073  0.1770
  146OSM    H9F16163   2.633   5.394   5.356  1.2893 -0.4714  1.0000
  146OSM   C10F16164   2.719   5.370   5.165  0.4005 -0.8237 -0.8572
  146OSM   H10F16165   2.767   5.468   5.180  0.9127 -1.0361 -1.1002
  146OSM   C11F16166   2.762   5.287   5.041 -0.0301 -0.1966  0.9175
  146OSM   H11F16167   2.680   5.218   5.016 -0.2005  0.1200  0.5918
  146OSM   H11G16168   2.862   5.242   5.057  0.0216 -0.4513 -0.0919
  146OSM   C12F16169   2.783   5.385   4.917  0.3181 -0.3765 -0.7787
  146OSM   H12F16170   2.831   5.315   4.846 -0.0368  0.2618 -1.6663
  146OSM   H12G16171   2.840   5.474   4.951  2.6759 -1.8690 -0.6418
  146OSM   C13F16172   2.650   5.436   4.855 -0.5849  0.5017  0.3843
  146OSM   H13F16173   2.604   5.507   4.927  0.0677  1.2353  0.0880
  146OSM   H13G16174   2.575   5.355   4.842 -0.1293 -0.2204  1.9355
  146OSM   C14F16175   2.678   5.524   4.727  0.5954 -0.1750  0.2163
  146OSM   H14F16176   2.614   5.615   4.721  1.0798  0.4717  3.3205
  146OSM   H14G16177   2.783   5.559   4.726  0.0533  1.5177  0.1253
  146OSM   C15F16178   2.677   5.433   4.601  0.4000  0.6747  0.5145
  146OSM   H15F16179   2.578   5.389   4.577  1.0197 -0.4948  0.0032
  146OSM   H15G16180   2.738   5.352   4.646  0.1433  1.3859  2.2282
  146OSM   C16F16181   2.740   5.502   4.468 -0.0955  0.4798  0.0444
  146OSM   H16F16182   2.799   5.590   4.501  0.2133 -0.4756  2.1757
  146OSM   H16G16183   2.645   5.538   4.421 -0.2944  0.8996  0.7510
  146OSM   C17F16184   2.828   5.411   4.378 -0.3984 -0.9236 -0.9831
  146OSM   H17F16185   2.851   5.476   4.291  2.4382  0.5104  0.7248
  146OSM   H17G16186   2.775   5.325   4.331 -1.0644 -1.0534 -0.0187
  146OSM   C18F16187   2.958   5.371   4.452 -0.0912  0.5213  0.2989
  146OSM   H18F16188   3.009   5.468   4.473  0.3861  0.5567 -0.9065
  146OSM   H18G16189   3.026   5.306   4.392 -1.7114 -1.5744  0.6412
  146OSM   H18H16190   2.933   5.314   4.544  1.7401 -0.7824  0.0520
  147OSM      N16191   5.271   2.318   1.999 -0.2336  0.7539 -0.6496
  147OSM    C1516192   5.387   2.246   1.948  0.1582 -0.9164 -0.0958
  147OSM   H15A16193   5.382   2.153   2.002 -2.0699 -0.2048  1.0514
  147OSM   H15B16194   5.481   2.299   1.960 -0.7286  0.8370 -0.5250
  147OSM   H15C16195   5.372   2.224   1.844  0.2141 -0.3689 -0.2237
  147OSM    C1416196   5.249   2.435   1.910 -0.1158  0.4651  0.3247
  147OSM   H14A16197   5.339   2.494   1.920  0.5406 -0.5593  0.5277
  147OSM   H14B16198   5.162   2.494   1.936  1.1374  3.0919 -0.9558
  147OSM   H14C16199   5.231   2.401   1.809  0.4109 -0.3795  0.5064
  147OSM    C1316200   5.153   2.228   1.995  0.2634  0.3308  0.1029
  147OSM   H13A16201   5.148   2.194   1.893  0.7699 -1.3112  0.5785
  147OSM   H13B16202   5.066   2.280   2.031 -0.8390 -2.0980  1.2261
  147OSM   H13C16203   5.153   2.142   2.062 -2.6200  0.7252  0.7263
  147OSM    C1216204   5.290   2.367   2.136  0.0033  0.2051 -0.1617
  147OSM   H12A16205   5.203   2.426   2.162  1.1281  2.7568 -1.8265
  147OSM   H12B16206   5.355   2.453   2.130 -1.0379  1.1025  0.8319
  147OSM    C1116207   5.330   2.266   2.246  0.5375 -0.1427 -0.1582
  147OSM   H11A16208   5.354   2.313   2.344 -0.3204 -0.8562  0.4043
  147OSM   H11B16209   5.431   2.228   2.219  1.2349  1.6044 -0.1493
  147OSM      P16210   5.111   2.184   2.354 -0.2512  0.2529 -0.4198
  147OSM    O1316211   5.034   2.305   2.318  0.3392 -0.4975 -0.6010
  147OSM    O1416212   5.036   2.057   2.362  0.1582  0.3056 -0.3052
  147OSM    O1116213   5.182   2.194   2.501  0.0344  0.0613 -0.7654
  147OSM    O1216214   5.237   2.161   2.256 -0.4424 -0.0203  0.2189
  147OSM    C1S16215   5.252   2.084   2.559  0.0012 -0.3479  0.5341
  147OSM    H1S16216   5.360   2.111   2.550  0.0509  0.1467  2.1212
  147OSM    H1T16217   5.248   1.988   2.504 -0.6952  0.1558 -0.3108
  147OSM     NF16218   5.321   1.967   2.758 -0.5151 -0.1043 -0.2104
  147OSM    HNF16219   5.298   1.870   2.752 -1.0897  0.0904 -1.2860
  147OSM    C2S16220   5.224   2.065   2.709  0.0363  0.7267 -0.8776
  147OSM    H2S16221   5.246   2.154   2.772  0.6062  0.3732 -0.5725
  147OSM    C3S16222   5.078   2.018   2.726 -0.5440  0.3860 -0.3324
  147OSM    H3S16223   5.054   1.925   2.672 -0.9502 -0.2512  0.8981
  147OSM     O316224   4.980   2.106   2.674 -1.1630  0.1885  0.2919
  147OSM    HO316225   5.034   2.162   2.617 -0.1003 -1.8793 -0.8834
  147OSM    C4S16226   5.052   2.004   2.875  0.5029  0.0225  0.1835
  147OSM    H4S16227   5.065   2.091   2.940 -0.2619 -0.7365  1.3852
  147OSM    C5S16228   5.002   1.886   2.942  0.0658 -0.0498  0.3633
  147OSM    H5S16229   4.963   1.803   2.881 -2.2441  0.9426  0.4070
  147OSM    C6S16230   4.970   1.878   3.094  0.6219 -0.3675 -0.7854
  147OSM    H6S16231   5.058   1.911   3.153 -0.1357  0.9798 -0.3563
  147OSM    H6T16232   4.959   1.772   3.126  0.6835 -0.8344 -2.2439
  147OSM    C7S16233   4.847   1.959   3.138  0.4723 -0.0978 -0.2232
  147OSM    H7S16234   4.762   1.943   3.068 -0.0250  0.0535  0.3466
  147OSM    H7T16235   4.864   2.069   3.130 -0.4238  0.0349 -0.4106
  147OSM    C8S16236   4.804   1.918   3.277  0.3762 -0.5718  0.5244
  147OSM    H8S16237   4.799   1.809   3.298 -2.2873 -0.3930  1.1783
  147OSM    H8T16238   4.698   1.952   3.277  0.2615 -0.8378  2.2277
  147OSM    C9S16239   4.898   1.975   3.387  0.4934  0.6768 -0.5712
  147OSM    H9S16240   4.932   2.079   3.367 -3.0141  2.0454 -0.2157
  147OSM    H9T16241   4.983   1.905   3.390  0.3397  0.5262  0.5365
  147OSM   C10S16242   4.821   1.984   3.522  0.2888 -0.0580 -0.1280
  147OSM   H10S16243   4.763   1.893   3.550 -3.3566  2.0592 -0.1958
  147OSM   H10T16244   4.745   2.065   3.521 -0.8186 -1.0675 -0.6838
  147OSM   C11S16245   4.904   2.022   3.647  0.3065 -0.4851  0.7412
  147OSM   H11S16246   4.837   2.066   3.725  1.4419  1.6139  0.6033
  147OSM   H11T16247   4.974   2.102   3.618 -2.0789  0.7046 -2.2576
  147OSM   C12S16248   4.970   1.895   3.704 -0.2487  0.6550  0.0982
  147OSM   H12S16249   5.040   1.843   3.636  1.2623  1.1361  1.2206
  147OSM   H12T16250   4.888   1.826   3.733 -0.3338  0.4503 -0.6207
  147OSM   C13S16251   5.061   1.922   3.832  0.4140  0.1523 -1.0144
  147OSM   H13S16252   4.998   1.973   3.908  1.7703  0.9920 -0.4187
  147OSM   H13T16253   5.150   1.980   3.802  1.7401 -1.3736 -0.1995
  147OSM   C14S16254   5.105   1.792   3.897 -0.0237  0.5526  0.0192
  147OSM   H14S16255   5.186   1.741   3.840 -0.9422 -0.2422 -0.6000
  147OSM   H14T16256   5.012   1.735   3.915 -0.9456  1.3551 -1.8641
  147OSM   C15S16257   5.182   1.824   4.033 -0.4517 -0.2369 -0.3564
  147OSM   H15S16258   5.213   1.727   4.078 -0.8354 -1.2366 -2.1551
  147OSM   H15T16259   5.111   1.888   4.090 -1.4295 -0.5714 -1.1520
  147OSM   C16S16260   5.311   1.913   4.013 -0.9315 -0.1578  0.0068
  147OSM   H16S16261   5.277   1.999   3.951  0.5485  0.2133 -0.3311
  147OSM   H16T16262   5.385   1.854   3.955  0.4346  1.0643  0.4292
  147OSM   C17S16263   5.373   1.961   4.148  0.2178 -0.1940  0.0473
  147OSM   H17S16264   5.302   2.040   4.181 -0.4204 -0.8041  0.1441
  147OSM   H17T16265   5.472   2.005   4.121  0.7993 -1.8096 -0.5859
  147OSM   C18S16266   5.408   1.857   4.252 -0.0728 -0.3234 -0.2928
  147OSM   H18S16267   5.326   1.785   4.271 -0.4557 -0.3791 -1.9931
  147OSM   H18T16268   5.438   1.912   4.343 -0.4334  0.2393 -0.5071
  147OSM   H18U16269   5.501   1.805   4.223 -1.0812 -1.9333 -0.7646
  147OSM    C1F16270   5.443   2.001   2.791  0.3130  0.2520  0.7944
  147OSM     OF16271   5.489   2.110   2.784  0.1802  0.1704 -0.2741
  147OSM    C2F16272   5.532   1.883   2.821 -0.3199 -0.3056  0.6763
  147OSM    H2F16273   5.598   1.880   2.732 -0.6200  2.7704  0.2440
  147OSM    H2G16274   5.482   1.784   2.832  1.0711 -0.9092  2.0250
  147OSM    C3F16275   5.590   1.901   2.959 -0.1485  0.0278  0.2218
  147OSM    H3F16276   5.636   2.002   2.968  1.0782 -0.2190 -2.4816
  147OSM    H3G16277   5.673   1.828   2.967 -0.8090 -0.7134  0.4889
  147OSM    C4F16278   5.484   1.880   3.076  0.3786  0.4328 -0.1055
  147OSM    H4F16279   5.429   1.783   3.071  0.0615  0.3800  2.8264
  147OSM    H4G16280   5.403   1.954   3.065 -0.3963 -0.5674 -1.4981
  147OSM    C5F16281   5.544   1.912   3.217  0.4680 -0.1056 -0.6842
  147OSM    H5F16282   5.455   1.932   3.280  0.0347 -2.0068 -0.6142
  147OSM    H5G16283   5.603   2.006   3.211  0.9821 -0.0505  2.9973
  147OSM    C6F16284   5.628   1.802   3.289  0.0966  0.2780  0.1757
  147OSM    H6F16285   5.712   1.778   3.220 -0.3352  1.5593 -0.8476
  147OSM    H6G16286   5.582   1.707   3.322  0.5307  0.0133  0.0223
  147OSM    C7F16287   5.710   1.861   3.397  0.3291 -0.7135 -0.6997
  147OSM    H7F16288   5.640   1.901   3.473  0.7816 -1.7010  0.2609
  147OSM    H7G16289   5.764   1.946   3.351 -1.9933  0.3515 -1.6254
  147OSM    C8F16290   5.795   1.751   3.453 -0.2238  0.6235  0.6837
  147OSM    H8F16291   5.857   1.701   3.376 -0.2158 -1.2197  1.8358
  147OSM    H8G16292   5.737   1.662   3.486 -1.2062  0.7184 -0.6657
  147OSM    C9F16293   5.895   1.803   3.554 -0.6877  0.6033 -0.0429
  147OSM    H9F16294   5.926   1.908   3.553 -0.6475  0.7013  3.0982
  147OSM   C10F16295   5.942   1.734   3.660 -0.1879 -0.4211  0.5245
  147OSM   H10F16296   6.019   1.783   3.720 -0.5966  1.5627 -0.4875
  147OSM   C11F16297   5.903   1.596   3.699  0.3119  1.2351  0.1046
  147OSM   H11F16298   5.976   1.514   3.683 -0.6725  0.3035  0.2633
  147OSM   H11G16299   5.812   1.566   3.642  0.6894 -0.3194  0.2681
  147OSM   C12F16300   5.865   1.586   3.854  0.0971  0.1113 -0.1042
  147OSM   H12F16301   5.803   1.497   3.876 -2.7345  2.3069  1.5735
  147OSM   H12G16302   5.793   1.665   3.886 -1.3447 -1.5225  0.8414
  147OSM   C13F16303   5.989   1.606   3.949 -0.1908  0.3889  0.0000
  147OSM   H13F16304   6.045   1.699   3.926 -1.7664  1.5035  0.4961
  147OSM   H13G16305   6.064   1.528   3.924 -0.1237  1.3373 -3.1937
  147OSM   C14F16306   5.955   1.611   4.095 -0.1038  0.1110  0.0794
  147OSM   H14F16307   6.040   1.578   4.159 -1.9700 -1.9405  1.6683
  147OSM   H14G16308   5.871   1.545   4.124 -0.4872  0.7462  0.4445
  147OSM   C15F16309   5.912   1.755   4.133 -0.6471  0.0650 -0.0989
  147OSM   H15F16310   5.847   1.807   4.059 -0.3258 -1.4192 -1.4648
  147OSM   H15G16311   6.001   1.821   4.131 -1.2939  0.9455 -2.1805
  147OSM   C16F16312   5.842   1.762   4.272 -0.2047 -0.3416 -0.3931
  147OSM   H16F16313   5.762   1.686   4.259 -0.5581  0.1631 -1.2337
  147OSM   H16G16314   5.806   1.864   4.297 -0.2003 -0.4497  0.0662
  147OSM   C17F16315   5.928   1.716   4.389  0.1889  0.2325  0.2815
  147OSM   H17F16316   5.987   1.804   4.421  0.2019 -0.3695  1.9957
  147OSM   H17G16317   5.992   1.628   4.364  0.2289 -0.2985  2.1265
  147OSM   C18F16318   5.845   1.660   4.508  0.2796  0.3472  0.8564
  147OSM   H18F16319   5.794   1.570   4.467  2.6988 -0.1872 -1.2237
  147OSM   H18G16320   5.773   1.739   4.536 -0.8616  0.2911 -1.6274
  147OSM   H18H16321   5.913   1.623   4.589  0.1064  0.4006  1.0274
  148OSM      N16322   1.470   0.237   2.076 -0.0224  0.0036  0.0148
  148OSM    C1516323   1.528   0.103   2.109  0.5746 -0.9790  0.2108
  148OSM   H15A16324   1.597   0.111   2.191  1.9293  0.4864 -1.0012
  148OSM   H15B16325   1.594   0.078   2.027 -1.2428  0.2364 -1.7244
  148OSM   H15C16326   1.449   0.035   2.137 -0.3731  0.7510  1.9331
  148OSM    C1416327   1.577   0.338   2.072 -0.3011  0.1377 -0.1141
  148OSM   H14A16328   1.604   0.367   2.172 -0.2265  0.3444 -0.1938
  148OSM   H14B16329   1.542   0.422   2.014 -0.1344  0.4419  0.2216
  148OSM   H14C16330   1.660   0.298   2.016  0.0011 -1.1929  1.2378
  148OSM    C1316331   1.410   0.224   1.934  0.1021  0.3123  0.8083
  148OSM   H13A16332   1.340   0.142   1.940  0.4198 -0.0643 -0.2979
  148OSM   H13B16333   1.480   0.186   1.860  0.0445 -0.2892  1.0562
  148OSM   H13C16334   1.359   0.312   1.899 -0.7709 -0.8784 -1.1040
  148OSM    C1216335   1.360   0.268   2.176 -0.2251 -0.3268 -0.1721
  148OSM   H12A16336   1.300   0.347   2.133  0.2589  0.1529  0.0240
  148OSM   H12B16337   1.422   0.299   2.259  0.2438 -0.7141 -0.3729
  148OSM    C1116338   1.269   0.148   2.226 -0.2546  0.3053  0.0275
  148OSM   H11A16339   1.178   0.194   2.270  0.0374  0.4883  0.4555
  148OSM   H11B16340   1.314   0.093   2.311  2.0657  0.8877 -0.7504
  148OSM      P16341   1.200  -0.087   2.130 -0.1483  0.6240 -0.3332
  148OSM    O1316342   1.131  -0.144   2.014 -0.2058  0.1733  0.2797
  148OSM    O1416343   1.324  -0.147   2.176 -0.0422  0.8005 -0.0207
  148OSM    O1116344   1.098  -0.089   2.242 -0.4280 -0.2594 -0.7566
  148OSM    O1216345   1.223   0.064   2.111 -0.2489 -0.5936  0.8565
  148OSM    C1S16346   1.097  -0.167   2.366  0.1157 -0.4648  0.0391
  148OSM    H1S16347   1.192  -0.224   2.376 -0.0992 -0.4344  3.0292
  148OSM    H1T16348   1.012  -0.237   2.355  1.2271 -1.7691 -0.4950
  148OSM     NF16349   1.099  -0.160   2.610 -0.2634 -0.3142 -0.3158
  148OSM    HNF16350   1.020  -0.162   2.671  0.5099  1.0204  0.7878
  148OSM    C2S16351   1.088  -0.077   2.492 -0.6666  0.4421  0.0144
  148OSM    H2S16352   1.180  -0.015   2.484  0.1897 -0.9042 -0.9933
  148OSM    C3S16353   0.968   0.026   2.494 -0.7672 -0.2551 -0.3989
  148OSM    H3S16354   0.875  -0.029   2.470 -2.3791  3.2898 -3.2520
  148OSM     O316355   0.971   0.136   2.397  0.8343  0.2455 -0.3442
  148OSM    HO316356   1.055   0.123   2.354  1.8093  3.6285  0.2684
  148OSM    C4S16357   0.961   0.082   2.634 -0.3693 -0.2134  0.0627
  148OSM    H4S16358   0.910   0.025   2.713 -1.2188 -0.0928 -0.3778
  148OSM    C5S16359   1.005   0.206   2.670  0.0432  0.6129 -0.2702
  148OSM    H5S16360   1.055   0.277   2.602  0.9667  0.3908  0.1661
  148OSM    C6S16361   0.996   0.269   2.807 -0.6153  0.1773  0.4209
  148OSM    H6S16362   0.903   0.328   2.820 -1.8919 -1.4048 -1.1360
  148OSM    H6T16363   1.082   0.338   2.822 -0.6802  0.3276  0.1177
  148OSM    C7S16364   0.982   0.176   2.927  0.5733 -0.1326 -0.1991
  148OSM    H7S16365   1.071   0.110   2.938  0.3310 -0.3746  0.3451
  148OSM    H7T16366   0.892   0.114   2.907 -0.2191 -0.0995  2.7529
  148OSM    C8S16367   0.961   0.246   3.060  0.4037  0.1316 -0.6904
  148OSM    H8S16368   0.859   0.288   3.071  0.9102  0.7685  3.1731
  148OSM    H8T16369   1.025   0.336   3.068 -0.7149  0.8089  1.9855
  148OSM    C9S16370   0.980   0.149   3.173  0.1665 -0.0188 -0.2699
  148OSM    H9S16371   1.075   0.094   3.153 -1.0705 -2.1939 -0.4061
  148OSM    H9T16372   0.900   0.072   3.171 -0.6062  0.7976 -1.2404
  148OSM   C10S16373   0.997   0.228   3.305 -0.4280 -0.6349 -0.7835
  148OSM   H10S16374   0.892   0.260   3.321 -0.1310  0.2314 -0.4974
  148OSM   H10T16375   1.067   0.309   3.275 -1.3838  0.1500 -0.9359
  148OSM   C11S16376   1.053   0.155   3.432  0.4396 -0.6700  0.4433
  148OSM   H11S16377   1.154   0.118   3.402  0.5623 -0.4225  0.5467
  148OSM   H11T16378   0.999   0.064   3.466  0.2348 -0.6781  0.1041
  148OSM   C12S16379   1.079   0.247   3.558  0.0907 -0.0698  1.2208
  148OSM   H12S16380   0.980   0.283   3.593 -0.4921  0.7316 -1.0619
  148OSM   H12T16381   1.146   0.330   3.528  2.0628 -2.3853 -1.3644
  148OSM   C13S16382   1.151   0.181   3.673 -0.1766  0.2283  0.5134
  148OSM   H13S16383   1.180   0.265   3.739  1.6982  0.2005 -0.2343
  148OSM   H13T16384   1.251   0.139   3.652 -0.3956  0.4961 -1.1533
  148OSM   C14S16385   1.060   0.070   3.743  0.0722  0.3353  0.3330
  148OSM   H14S16386   1.025  -0.009   3.673  0.8845  1.1890 -1.1123
  148OSM   H14T16387   0.966   0.125   3.763  0.4177  0.9773  0.2208
  148OSM   C15S16388   1.126   0.010   3.872 -0.0178 -0.5600  0.2042
  148OSM   H15S16389   1.171   0.100   3.920  1.9292 -1.5175  0.2868
  148OSM   H15T16390   1.210  -0.061   3.862  0.1357 -0.4331  0.5559
  148OSM   C16S16391   1.017  -0.051   3.963 -0.5015 -0.0998  0.1707
  148OSM   H16S16392   0.972  -0.135   3.906 -1.5249  0.6485 -0.1570
  148OSM   H16T16393   0.942   0.026   3.995 -0.8737 -0.3252 -0.1493
  148OSM   C17S16394   1.085  -0.101   4.096 -0.1111  0.4864  0.9857
  148OSM   H17S16395   1.140  -0.014   4.138 -0.4175  1.3395 -0.2930
  148OSM   H17T16396   1.150  -0.187   4.071 -0.4648  0.2695  0.7959
  148OSM   C18S16397   0.977  -0.140   4.208  0.0939 -0.3769 -0.0043
  148OSM   H18S16398   0.890  -0.186   4.158 -0.3500  0.5008 -0.0546
  148OSM   H18T16399   0.939  -0.047   4.256 -1.2491 -0.0570 -1.6225
  148OSM   H18U16400   1.028  -0.213   4.275  1.3413 -0.3092 -0.8399
  148OSM    C1F16401   1.206  -0.238   2.630  0.7093  0.4626 -0.9676
  148OSM     OF16402   1.314  -0.212   2.577 -0.4379  0.1822  0.2308
  148OSM    C2F16403   1.184  -0.351   2.726 -0.8387 -0.3697 -0.0946
  148OSM    H2F16404   1.126  -0.436   2.684 -0.2800 -0.0891 -1.4947
  148OSM    H2G16405   1.122  -0.310   2.808  0.0279 -0.5031  0.6459
  148OSM    C3F16406   1.325  -0.397   2.785  0.1446  0.1152  0.2905
  148OSM    H3F16407   1.391  -0.430   2.702 -0.3241  0.9794 -0.4468
  148OSM    H3G16408   1.301  -0.490   2.840 -0.2279  0.7728  1.2658
  148OSM    C4F16409   1.390  -0.296   2.876  0.7682  0.5281  0.8470
  148OSM    H4F16410   1.400  -0.197   2.826  0.4216  0.8945  1.4898
  148OSM    H4G16411   1.491  -0.337   2.896  0.8110  0.7924  1.1777
  148OSM    C5F16412   1.316  -0.275   3.011 -0.8451  0.0649 -0.5736
  148OSM    H5F16413   1.264  -0.369   3.038 -0.8825  0.2726  0.1054
  148OSM    H5G16414   1.238  -0.197   2.995 -1.2552 -0.4456 -1.0844
  148OSM    C6F16415   1.417  -0.245   3.127  0.1075 -0.5285 -0.2487
  148OSM    H6F16416   1.485  -0.168   3.085  1.4954 -1.7801 -0.3695
  148OSM    H6G16417   1.478  -0.333   3.157  0.7868 -0.3426 -1.0425
  148OSM    C7F16418   1.351  -0.173   3.251  0.4103 -0.0606  0.1419
  148OSM    H7F16419   1.263  -0.233   3.282  1.3151 -0.6866  1.5641
  148OSM    H7G16420   1.321  -0.072   3.214 -0.3480 -0.3052  0.0699
  148OSM    C8F16421   1.433  -0.175   3.384 -0.0594  1.1021  0.3363
  148OSM    H8F16422   1.373  -0.117   3.457 -1.4454 -1.5738  1.4636
  148OSM    H8G16423   1.524  -0.117   3.358 -1.1255  2.3882 -0.6334
  148OSM    C9F16424   1.456  -0.320   3.425  0.2375 -0.1727  0.4035
  148OSM    H9F16425   1.419  -0.406   3.368 -0.9457  0.9989 -0.6836
  148OSM   C10F16426   1.543  -0.348   3.517 -0.6006  0.1805  0.4603
  148OSM   H10F16427   1.554  -0.454   3.545 -3.3557 -0.7003 -1.3982
  148OSM   C11F16428   1.627  -0.257   3.605  0.6861 -1.1945 -0.5593
  148OSM   H11F16429   1.648  -0.161   3.554  0.7285 -0.3403  1.0010
  148OSM   H11G16430   1.726  -0.304   3.620  2.0282  1.4954 -0.5760
  148OSM   C12F16431   1.567  -0.234   3.748  0.0677  0.2178 -0.0469
  148OSM   H12F16432   1.547  -0.340   3.774 -1.4923 -0.0119 -1.9161
  148OSM   H12G16433   1.484  -0.161   3.739 -1.0342 -0.8649  1.0867
  148OSM   C13F16434   1.693  -0.180   3.828  0.8218 -0.6410 -0.5087
  148OSM   H13F16435   1.741  -0.100   3.768 -1.2340  1.2816  0.2401
  148OSM   H13G16436   1.755  -0.266   3.860 -0.5737 -1.0102  1.3954
  148OSM   C14F16437   1.648  -0.099   3.951  0.0701 -0.3690 -0.0101
  148OSM   H14F16438   1.735  -0.087   4.019  1.0252  2.7268 -1.5795
  148OSM   H14G16439   1.579  -0.166   4.006  1.2055 -0.5423  1.2618
  148OSM   C15F16440   1.597   0.041   3.930 -0.0429  0.1651  0.8037
  148OSM   H15F16441   1.527   0.042   3.844  0.8748 -1.0538 -0.0004
  148OSM   H15G16442   1.679   0.110   3.902 -0.8587  0.7049 -0.3419
  148OSM   C16F16443   1.528   0.089   4.055 -0.5830 -1.3031  0.0660
  148OSM   H16F16444   1.595   0.078   4.143  2.8903  1.1440 -2.0228
  148OSM   H16G16445   1.443   0.017   4.064  0.2990 -2.1994  1.9793
  148OSM   C17F16446   1.480   0.231   4.035  0.3545 -0.2458  0.3382
  148OSM   H17F16447   1.404   0.230   3.955  0.9045  0.2127 -0.2063
  148OSM   H17G16448   1.559   0.304   4.007 -0.0854  0.6435  1.3390
  148OSM   C18F16449   1.408   0.287   4.155 -0.1312  0.3392  0.9286
  148OSM   H18F16450   1.316   0.228   4.175 -0.0888 -0.2363 -0.4599
  148OSM   H18G16451   1.368   0.389   4.137  0.4228  0.4757  0.4522
  148OSM   H18H16452   1.479   0.290   4.241 -2.0065  1.6251  2.5456
  149OSM      N16453   1.599   2.067   1.724  0.4602 -1.0139 -0.7876
  149OSM    C1516454   1.465   2.052   1.780  0.3341 -0.0133  0.2748
  149OSM   H15A16455   1.392   2.076   1.705  0.3860 -1.0389 -0.1171
  149OSM   H15B16456   1.456   2.114   1.868  2.6349  0.6413  0.0967
  149OSM   H15C16457   1.447   1.948   1.804  0.6140 -0.1685 -0.1888
  149OSM    C1416458   1.605   2.002   1.590  0.4228  0.1181  0.8857
  149OSM   H14A16459   1.550   2.061   1.518  2.6612  0.5626 -0.5496
  149OSM   H14B16460   1.565   1.903   1.601 -0.4520  0.4768  1.0592
  149OSM   H14C16461   1.706   1.999   1.553  0.1119 -2.0647  0.0996
  149OSM    C1316462   1.643   2.209   1.700 -0.2722  0.5522 -0.1866
  149OSM   H13A16463   1.571   2.263   1.641  0.3114  0.7480 -0.7308
  149OSM   H13B16464   1.733   2.201   1.642 -1.5286 -0.5034 -2.0981
  149OSM   H13C16465   1.669   2.268   1.787 -0.4722  1.1019 -0.4970
  149OSM    C1216466   1.704   2.006   1.814  0.4143  0.0649  0.6467
  149OSM   H12A16467   1.732   2.075   1.892 -0.9727  0.2698  0.9965
  149OSM   H12B16468   1.788   1.986   1.750  0.9068  1.0801  0.9553
  149OSM    C1116469   1.680   1.863   1.869 -0.4184 -1.5268  0.4412
  149OSM   H11A16470   1.595   1.888   1.937  1.2125  1.0248  1.6917
  149OSM   H11B16471   1.772   1.839   1.926  0.7681 -1.2828 -1.3075
  149OSM      P16472   1.718   1.627   1.764 -0.2829  0.0329 -0.1999
  149OSM    O1316473   1.647   1.554   1.658  0.5107  0.2678 -0.2568
  149OSM    O1416474   1.864   1.640   1.763  0.5533  0.7853  0.2401
  149OSM    O1116475   1.669   1.571   1.903 -0.3138  0.1615  0.3092
  149OSM    O1216476   1.648   1.767   1.770  0.0666  0.3678 -0.3912
  149OSM    C1S16477   1.775   1.527   1.996  0.0788 -0.2318 -0.0838
  149OSM    H1S16478   1.853   1.605   2.006  1.0189 -1.2416  0.5528
  149OSM    H1T16479   1.836   1.439   1.968  3.0129  0.4420  3.4976
  149OSM     NF16480   1.810   1.466   2.244 -0.4624 -0.0073 -0.1913
  149OSM    HNF16481   1.782   1.386   2.296 -0.4260  0.5553  0.7199
  149OSM    C2S16482   1.718   1.514   2.143  0.7141 -0.1860  0.1017
  149OSM    H2S16483   1.685   1.616   2.175  3.0293  0.0241  2.0866
  149OSM    C3S16484   1.580   1.426   2.140 -0.0930  0.5492  0.2409
  149OSM    H3S16485   1.618   1.321   2.138  2.7398  1.3832  2.6770
  149OSM     O316486   1.494   1.444   2.028 -0.0362  0.1699  0.6655
  149OSM    HO316487   1.544   1.494   1.964 -0.8252 -1.5390 -1.3959
  149OSM    C4S16488   1.502   1.453   2.274  0.4400  0.9448 -0.4776
  149OSM    H4S16489   1.538   1.396   2.361 -0.7737  0.3742 -0.3259
  149OSM    C5S16490   1.406   1.545   2.297 -0.5896 -0.3632  0.3954
  149OSM    H5S16491   1.372   1.612   2.217  1.9690 -0.1386 -0.6049
  149OSM    C6S16492   1.340   1.556   2.435 -0.1203  0.0535  0.0555
  149OSM    H6S16493   1.347   1.461   2.492  0.6240  1.6323  2.7462
  149OSM    H6T16494   1.232   1.572   2.412  0.6919  2.8481 -2.4747
  149OSM    C7S16495   1.392   1.668   2.525 -0.6190  0.1338 -0.1265
  149OSM    H7S16496   1.502   1.656   2.537 -0.5416 -0.0179 -0.9036
  149OSM    H7T16497   1.342   1.652   2.622 -1.4050  0.8039 -0.4042
  149OSM    C8S16498   1.353   1.802   2.458  0.4710 -0.5016  0.6808
  149OSM    H8S16499   1.247   1.826   2.435  0.2987 -0.3647  1.5896
  149OSM    H8T16500   1.409   1.809   2.362 -0.1874 -0.3049  0.3010
  149OSM    C9S16501   1.409   1.926   2.538 -0.0204 -0.0471 -0.4906
  149OSM    H9S16502   1.419   2.014   2.471  2.0135  0.7157  0.6846
  149OSM    H9T16503   1.519   1.914   2.552 -0.0530 -2.0035 -1.6863
  149OSM   C10S16504   1.338   1.953   2.667 -0.6122 -0.1751 -0.5806
  149OSM   H10S16505   1.340   1.877   2.747 -0.3879 -0.1848 -0.5960
  149OSM   H10T16506   1.231   1.971   2.643 -0.9961 -2.0688 -0.4201
  149OSM   C11S16507   1.403   2.078   2.739  0.7464 -0.4342 -0.7024
  149OSM   H11S16508   1.439   2.154   2.666 -3.2434 -0.4815 -3.0080
  149OSM   H11T16509   1.493   2.028   2.782 -0.5728 -3.8194 -1.5607
  149OSM   C12S16510   1.311   2.151   2.842  0.3690  0.6217 -0.3658
  149OSM   H12S16511   1.246   2.075   2.891  0.4506  0.6776 -0.1699
  149OSM   H12T16512   1.243   2.225   2.794 -2.8566 -1.9548 -0.1391
  149OSM   C13S16513   1.382   2.213   2.965  0.2196 -0.3919 -0.1646
  149OSM   H13S16514   1.436   2.303   2.928  0.7614 -1.2939 -1.6538
  149OSM   H13T16515   1.450   2.145   3.020 -0.0404 -1.0980 -0.6965
  149OSM   C14S16516   1.280   2.277   3.054  0.1247 -0.1357 -0.6057
  149OSM   H14S16517   1.227   2.190   3.097 -0.6216  0.0859 -1.0517
  149OSM   H14T16518   1.210   2.339   2.995  0.9376  1.6527  0.2395
  149OSM   C15S16519   1.344   2.370   3.151 -0.2456 -0.0111 -0.2596
  149OSM   H15S16520   1.370   2.463   3.095  2.3574 -1.4346 -1.6177
  149OSM   H15T16521   1.438   2.322   3.185 -0.6311 -1.5626 -1.2841
  149OSM   C16S16522   1.259   2.398   3.274  0.6259 -0.0686 -0.5592
  149OSM   H16S16523   1.227   2.295   3.301  0.0152 -0.5946 -2.9616
  149OSM   H16T16524   1.178   2.471   3.251  0.0089 -0.5211  0.1307
  149OSM   C17S16525   1.344   2.464   3.384 -0.7285 -0.4305  0.5768
  149OSM   H17S16526   1.397   2.549   3.334 -0.2111 -0.7625  0.5450
  149OSM   H17T16527   1.421   2.392   3.418  1.1059  0.8599 -0.6367
  149OSM   C18S16528   1.264   2.508   3.507 -0.8534 -0.3491 -0.4191
  149OSM   H18S16529   1.176   2.568   3.476  1.4954  3.9272  0.4744
  149OSM   H18T16530   1.328   2.574   3.569 -0.3244  0.7489 -2.0817
  149OSM   H18U16531   1.239   2.418   3.568  0.6593 -1.4874 -1.4071
  149OSM    C1F16532   1.940   1.503   2.273  0.0569 -0.1552  0.1412
  149OSM     OF16533   1.993   1.602   2.227 -0.0373  0.0871 -0.8830
  149OSM    C2F16534   2.010   1.413   2.368  0.4348 -0.2610 -0.6285
  149OSM    H2F16535   2.053   1.326   2.315 -1.0281 -1.7611  0.5267
  149OSM    H2G16536   1.936   1.374   2.441 -0.4156  1.8081 -0.3039
  149OSM    C3F16537   2.125   1.486   2.453  0.3554  0.8069  0.4016
  149OSM    H3F16538   2.191   1.533   2.377  0.1145 -0.2030 -0.4598
  149OSM    H3G16539   2.188   1.415   2.511 -0.0526  0.6292  0.6312
  149OSM    C4F16540   2.064   1.595   2.544 -0.3212  0.1356  0.0141
  149OSM    H4F16541   1.998   1.660   2.483 -1.7273 -1.0198  0.2330
  149OSM    H4G16542   2.150   1.656   2.580 -0.7677  0.9360 -0.2677
  149OSM    C5F16543   1.994   1.539   2.665  0.4313  0.5599 -0.0164
  149OSM    H5F16544   2.031   1.443   2.707 -1.0751 -0.7187 -1.4835
  149OSM    H5G16545   1.899   1.504   2.618  1.9207 -0.5657 -2.4102
  149OSM    C6F16546   1.966   1.639   2.778 -0.2583 -0.1352  0.2867
  149OSM    H6F16547   1.914   1.720   2.721  1.3275  0.5165 -0.2794
  149OSM    H6G16548   2.066   1.677   2.807 -0.4933  0.2295  0.6325
  149OSM    C7F16549   1.892   1.594   2.903  0.0304  0.0194 -0.3620
  149OSM    H7F16550   1.868   1.671   2.980 -2.6585 -1.5278  0.4944
  149OSM    H7G16551   1.967   1.529   2.954  1.2000  2.3616  1.0974
  149OSM    C8F16552   1.762   1.522   2.874 -0.1051  0.6968  0.4549
  149OSM    H8F16553   1.715   1.480   2.965  1.0900  4.1617  2.8764
  149OSM    H8G16554   1.778   1.432   2.810  0.8179  2.4878 -1.9882
  149OSM    C9F16555   1.675   1.620   2.803  0.2670 -0.3509 -0.6874
  149OSM    H9F16556   1.701   1.638   2.698 -1.4717  1.0213 -0.9195
  149OSM   C10F16557   1.567   1.671   2.855  0.1620  0.3009 -0.3226
  149OSM   H10F16558   1.495   1.729   2.794  1.4500  3.3043  0.7798
  149OSM   C11F16559   1.516   1.651   2.992  0.7340 -0.7431  0.9118
  149OSM   H11F16560   1.501   1.542   3.005 -0.5663 -1.3832 -3.9658
  149OSM   H11G16561   1.415   1.697   2.997  1.6765  1.4541  1.4624
  149OSM   C12F16562   1.601   1.716   3.099 -0.5138  0.0407  0.0335
  149OSM   H12F16563   1.696   1.660   3.117 -1.4742 -1.8652 -0.5375
  149OSM   H12G16564   1.547   1.714   3.196  2.2935  0.7809  1.7334
  149OSM   C13F16565   1.646   1.855   3.051  0.1532 -0.2725  0.4010
  149OSM   H13F16566   1.566   1.905   2.991  1.1229 -0.8857 -1.4945
  149OSM   H13G16567   1.742   1.846   2.996 -0.8053 -0.0042 -1.3947
  149OSM   C14F16568   1.667   1.945   3.173 -0.0982 -0.0511 -0.0555
  149OSM   H14F16569   1.742   1.897   3.240  2.3590  1.3104 -1.6865
  149OSM   H14G16570   1.567   1.957   3.221  0.3207  0.6956  0.6690
  149OSM   C15F16571   1.727   2.090   3.136 -0.3417  0.4946 -0.8698
  149OSM   H15F16572   1.654   2.156   3.085 -0.5424  0.3463 -0.7785
  149OSM   H15G16573   1.810   2.078   3.064  0.1782 -1.6078  0.0020
  149OSM   C16F16574   1.800   2.168   3.255  0.4760 -0.1397  0.3644
  149OSM   H16F16575   1.730   2.183   3.341 -1.4568  0.0664 -1.1800
  149OSM   H16G16576   1.839   2.264   3.217  2.1218 -0.6506  0.6773
  149OSM   C17F16577   1.917   2.083   3.307 -0.3417  0.2111 -0.1728
  149OSM   H17F16578   1.990   2.068   3.225  0.8316  1.9942  0.4836
  149OSM   H17G16579   1.867   1.988   3.336  0.0094  0.6797  2.1544
  149OSM   C18F16580   1.992   2.140   3.436  0.2448 -0.1036  0.1576
  149OSM   H18F16581   1.928   2.111   3.522 -0.0388  0.0571  0.0031
  149OSM   H18G16582   2.001   2.250   3.444  0.7443 -0.1917  0.8325
  149OSM   H18H16583   2.092   2.095   3.451  0.1410 -0.8597 -1.1842
  150OSM      N16584   5.027   3.326   2.105 -0.6553  0.4311  0.6606
  150OSM    C1516585   5.077   3.414   2.214 -1.0370 -0.6169  0.1699
  150OSM   H15A16586   5.117   3.504   2.171  2.2545 -2.2637 -0.5370
  150OSM   H15B16587   5.160   3.366   2.262  0.5836  1.6256 -0.2364
  150OSM   H15C16588   5.001   3.434   2.289  0.4715  1.3377  1.2847
  150OSM    C1416589   4.962   3.203   2.164  0.7411  0.0717 -0.8412
  150OSM   H14A16590   4.912   3.148   2.087  0.1541 -0.0203 -0.4037
  150OSM   H14B16591   4.900   3.230   2.249  0.6532 -0.7693 -0.6338
  150OSM   H14C16592   5.042   3.144   2.207  1.2343  1.5847  0.4411
  150OSM    C1316593   4.919   3.405   2.041 -0.4315  0.3269 -0.1511
  150OSM   H13A16594   4.840   3.435   2.108 -0.1250  1.0008 -0.0768
  150OSM   H13B16595   4.883   3.355   1.953 -0.3096  0.6253 -0.3726
  150OSM   H13C16596   4.966   3.493   1.998 -0.0116 -0.1815 -0.7539
  150OSM    C1216597   5.143   3.298   2.010 -0.4538 -0.5874 -0.1745
  150OSM   H12A16598   5.180   3.388   1.962 -0.7667  0.4113  1.3917
  150OSM   H12B16599   5.113   3.233   1.930  1.4527 -0.3184 -1.1777
  150OSM    C1116600   5.262   3.231   2.073 -0.5807  0.5510  0.7088
  150OSM   H11A16601   5.294   3.289   2.162  0.8706  1.5208 -0.3943
  150OSM   H11B16602   5.356   3.232   2.013 -2.0302 -0.5260 -1.7511
  150OSM      P16603   5.258   3.034   2.243 -0.6200  0.6103 -0.2722
  150OSM    O1316604   5.159   2.932   2.253 -0.3351  0.7941 -0.2245
  150OSM    O1416605   5.401   2.993   2.255 -0.3028 -0.6168 -0.1240
  150OSM    O1116606   5.231   3.151   2.346  0.2426  0.0291 -0.7191
  150OSM    O1216607   5.237   3.094   2.097  0.6944 -0.4379 -0.4862
  150OSM    C1S16608   5.151   3.134   2.467  0.3815  0.7146  0.5901
  150OSM    H1S16609   5.088   3.043   2.458  0.9301  0.2136  1.5973
  150OSM    H1T16610   5.076   3.216   2.478 -1.4529 -0.6798 -0.8573
  150OSM     NF16611   5.150   3.094   2.716  0.2082 -0.3376 -0.4422
  150OSM    HNF16612   5.118   3.164   2.779  0.5024 -0.0552 -0.6038
  150OSM    C2S16613   5.236   3.125   2.602 -0.1776  0.1514  0.3599
  150OSM    H2S16614   5.318   3.050   2.593  1.4843  1.8886  0.4670
  150OSM    C3S16615   5.320   3.255   2.619  0.4433 -0.8561 -0.3018
  150OSM    H3S16616   5.246   3.337   2.630  0.6019 -0.4907 -1.7210
  150OSM     O316617   5.383   3.296   2.497  0.6888 -0.0990 -0.3176
  150OSM    HO316618   5.334   3.241   2.436  0.2112 -1.3776  1.1640
  150OSM    C4S16619   5.413   3.252   2.736  0.7243 -0.2190  0.1593
  150OSM    H4S16620   5.459   3.156   2.765 -2.5903 -1.9120  0.2270
  150OSM    C5S16621   5.432   3.360   2.808  0.0275 -0.4268 -0.1653
  150OSM    H5S16622   5.375   3.452   2.785 -0.8848 -0.3190  2.3117
  150OSM    C6S16623   5.502   3.352   2.934  0.7717  0.9833 -0.2828
  150OSM    H6S16624   5.537   3.451   2.970  1.0215  0.8595 -0.1877
  150OSM    H6T16625   5.602   3.305   2.920  0.4834 -0.3463  1.7430
  150OSM    C7S16626   5.420   3.281   3.051  0.4917 -0.2771  0.1784
  150OSM    H7S16627   5.398   3.173   3.037  0.6586 -0.5560  1.8780
  150OSM    H7T16628   5.323   3.334   3.047 -0.4145 -1.8106  1.1447
  150OSM    C8S16629   5.485   3.307   3.193 -0.2427  0.2148  0.1393
  150OSM    H8S16630   5.521   3.412   3.205 -2.3174  0.9008  0.6677
  150OSM    H8T16631   5.579   3.247   3.195  0.9899  2.0159 -0.2404
  150OSM    C9S16632   5.399   3.272   3.308  0.0657 -0.7392  0.0961
  150OSM    H9S16633   5.378   3.163   3.314  0.7581 -0.8607  0.3845
  150OSM    H9T16634   5.304   3.330   3.307  0.1255 -0.6371  0.3103
  150OSM   C10S16635   5.480   3.315   3.438  0.0151  0.6417 -0.0155
  150OSM   H10S16636   5.485   3.424   3.459  0.3011  0.4410  1.0238
  150OSM   H10T16637   5.582   3.274   3.422 -0.4920  0.2135 -2.7101
  150OSM   C11S16638   5.415   3.250   3.562  0.4953 -0.2933 -0.2961
  150OSM   H11S16639   5.407   3.147   3.523  2.9331 -0.2074 -1.1699
  150OSM   H11T16640   5.312   3.289   3.577  0.2577 -1.5980  1.8290
  150OSM   C12S16641   5.502   3.255   3.688 -0.6170 -0.4360 -0.5193
  150OSM   H12S16642   5.531   3.361   3.707 -0.0251 -0.7077  0.1195
  150OSM   H12T16643   5.588   3.186   3.673  0.1348  0.9629 -3.5009
  150OSM   C13S16644   5.438   3.219   3.817 -0.1554  0.2187 -0.3816
  150OSM   H13S16645   5.390   3.120   3.799  0.5415 -0.2901  0.4301
  150OSM   H13T16646   5.358   3.292   3.841 -0.6720  0.1391 -1.7853
  150OSM   C14S16647   5.534   3.190   3.935  0.3258 -0.0312  0.5459
  150OSM   H14S16648   5.572   3.289   3.967 -1.5546  0.0528  2.8154
  150OSM   H14T16649   5.624   3.131   3.909  0.5947  1.3237 -1.9656
  150OSM   C15S16650   5.463   3.133   4.061 -0.3801 -0.6949 -0.1326
  150OSM   H15S16651   5.538   3.096   4.135 -1.0589  0.2588  1.0620
  150OSM   H15T16652   5.399   3.049   4.027 -0.8237  0.9475 -3.7767
  150OSM   C16S16653   5.378   3.234   4.143 -0.4761 -0.8859 -0.2552
  150OSM   H16S16654   5.281   3.252   4.093 -0.1412 -0.9773 -0.9460
  150OSM   H16T16655   5.431   3.330   4.165  0.0104 -1.6114  2.0527
  150OSM   C17S16656   5.364   3.169   4.289 -0.2658 -0.4672 -0.1199
  150OSM   H17S16657   5.467   3.164   4.330 -0.1932  0.0742 -0.2363
  150OSM   H17T16658   5.326   3.065   4.275  1.1091 -1.1414  0.8971
  150OSM   C18S16659   5.275   3.253   4.386 -0.2001  0.6091  0.2269
  150OSM   H18S16660   5.308   3.233   4.490 -0.6033 -0.5331  0.1540
  150OSM   H18T16661   5.178   3.206   4.356  1.0966 -0.4275 -2.7817
  150OSM   H18U16662   5.283   3.361   4.364 -0.6460  0.6800  0.3968
  150OSM    C1F16663   5.085   2.975   2.721 -0.8169 -0.0977  0.4902
  150OSM     OF16664   5.091   2.892   2.636 -0.1519  0.3644  0.4779
  150OSM    C2F16665   4.996   2.942   2.842 -0.6574 -0.1709  0.0953
  150OSM    H2F16666   4.889   2.950   2.813 -1.1659 -0.9253  1.6518
  150OSM    H2G16667   5.022   3.006   2.929  2.2215 -4.4303  2.7066
  150OSM    C3F16668   5.021   2.803   2.894 -0.2665  0.0047  0.4479
  150OSM    H3F16669   5.130   2.784   2.905  0.0692  0.6331 -1.4194
  150OSM    H3G16670   4.986   2.729   2.819 -1.0520  0.2191  0.5994
  150OSM    C4F16671   4.959   2.769   3.030 -0.2085  0.0641  0.3429
  150OSM    H4F16672   5.000   2.671   3.061 -0.6648 -0.9506 -1.9873
  150OSM    H4G16673   4.851   2.751   3.010 -0.3240  2.4974 -1.7596
  150OSM    C5F16674   4.976   2.875   3.142  0.2142  0.1894 -0.4947
  150OSM    H5F16675   4.913   2.839   3.225  2.0338 -0.4952  0.6455
  150OSM    H5G16676   4.943   2.974   3.105  2.0601  1.6814  1.5970
  150OSM    C6F16677   5.113   2.909   3.193  0.0916  0.4228  0.4005
  150OSM    H6F16678   5.103   2.994   3.264  1.4447  0.0417  1.0776
  150OSM    H6G16679   5.181   2.944   3.112  0.5812  2.4183  1.5965
  150OSM    C7F16680   5.178   2.800   3.272  0.8482 -0.1860  0.2220
  150OSM    H7F16681   5.285   2.827   3.284  0.9913 -0.6551  0.0319
  150OSM    H7G16682   5.179   2.709   3.208  0.4911  0.9461 -1.4498
  150OSM    C8F16683   5.099   2.754   3.401  0.5432 -0.5321  0.8042
  150OSM    H8F16684   5.021   2.681   3.368  0.5801 -0.3355  0.2814
  150OSM    H8G16685   5.058   2.845   3.449 -0.2769 -1.0599  1.1386
  150OSM    C9F16686   5.201   2.696   3.495 -0.0653 -0.1942 -0.1028
  150OSM    H9F16687   5.220   2.589   3.478  0.5886 -0.3126  1.2257
  150OSM   C10F16688   5.253   2.763   3.599 -0.3891  0.0903  0.6130
  150OSM   H10F16689   5.313   2.702   3.668 -1.3411 -0.5236  0.9151
  150OSM   C11F16690   5.250   2.909   3.630 -0.5180 -0.3022 -0.6444
  150OSM   H11F16691   5.208   2.973   3.549  1.0711  3.3185  1.1639
  150OSM   H11G16692   5.352   2.950   3.648  0.0382 -2.0716  0.3756
  150OSM   C12F16693   5.168   2.949   3.750 -1.0965  0.3141  0.1559
  150OSM   H12F16694   5.061   2.934   3.725 -0.9699 -2.6744  0.9397
  150OSM   H12G16695   5.185   3.057   3.764 -2.3176  0.6041 -0.4971
  150OSM   C13F16696   5.183   2.860   3.874 -0.4689  0.2277  0.4818
  150OSM   H13F16697   5.291   2.859   3.900 -0.4255 -1.6787  0.4045
  150OSM   H13G16698   5.159   2.753   3.856  1.0236  0.3409 -2.9563
  150OSM   C14F16699   5.114   2.914   3.997 -0.1045 -0.0719  0.0733
  150OSM   H14F16700   5.008   2.879   3.989 -0.1656  0.1420 -0.0743
  150OSM   H14G16701   5.119   3.023   4.016 -1.2329  0.1018 -0.5008
  150OSM   C15F16702   5.158   2.844   4.123  0.7853  0.2497 -0.3620
  150OSM   H15F16703   5.265   2.871   4.139  1.4049 -1.7339 -0.8900
  150OSM   H15G16704   5.145   2.736   4.101  1.3982  0.0152  0.3579
  150OSM   C16F16705   5.066   2.874   4.243  0.1392 -0.1757 -0.3270
  150OSM   H16F16706   4.967   2.829   4.217 -0.6619  1.3929 -0.0901
  150OSM   H16G16707   5.046   2.983   4.245 -0.0144 -0.1073 -2.7875
  150OSM   C17F16708   5.126   2.823   4.379  0.2111 -0.3307  0.4114
  150OSM   H17F16709   5.042   2.845   4.448 -1.6701 -2.0812 -1.1970
  150OSM   H17G16710   5.213   2.889   4.401  1.1206 -0.9447 -1.2078
  150OSM   C18F16711   5.176   2.677   4.379 -0.0178  0.2445  0.4255
  150OSM   H18F16712   5.203   2.648   4.483 -0.3757 -0.9772  0.1902
  150OSM   H18G16713   5.256   2.663   4.304  0.5785  1.4598  0.7992
  150OSM   H18H16714   5.092   2.611   4.349 -0.6135  0.4895  1.5070
  151OSM      N16715   5.936   2.847   1.893 -0.1921 -0.3474 -0.4875
  151OSM    C1516716   5.897   2.968   1.969  0.0386 -0.4614 -0.1623
  151OSM   H15A16717   5.795   2.962   2.005 -0.4782  2.2885 -0.9009
  151OSM   H15B16718   5.894   3.062   1.915 -3.1342  0.5498  1.5034
  151OSM   H15C16719   5.966   2.969   2.052  3.2289 -1.7345 -2.5967
  151OSM    C1416720   5.846   2.826   1.781 -0.4872  0.0429  0.1407
  151OSM   H14A16721   5.871   2.737   1.726  2.3955  1.3999 -0.9781
  151OSM   H14B16722   5.831   2.909   1.714 -0.1033 -0.3409 -0.4311
  151OSM   H14C16723   5.749   2.802   1.821 -0.5679 -0.9800 -0.6516
  151OSM    C1316724   6.080   2.859   1.841  0.8930  0.0485  0.3785
  151OSM   H13A16725   6.145   2.882   1.924  0.9671  0.8764  0.1000
  151OSM   H13B16726   6.100   2.913   1.749  0.9388  1.4072  1.1544
  151OSM   H13C16727   6.124   2.770   1.799 -0.3908  0.7740 -2.8207
  151OSM    C1216728   5.937   2.716   1.978  0.4937 -0.1534  0.2070
  151OSM   H12A16729   6.027   2.721   2.037  1.1310  1.2375 -0.8239
  151OSM   H12B16730   5.955   2.631   1.914 -0.6892 -0.8407  0.7546
  151OSM    C1116731   5.824   2.679   2.074 -0.2203 -0.8260  0.1653
  151OSM   H11A16732   5.805   2.747   2.160  0.8399 -0.8149  0.4046
  151OSM   H11B16733   5.860   2.591   2.130  0.8061  0.1784  1.1456
  151OSM      P16734   5.579   2.584   2.077  0.2272  0.0202 -0.2634
  151OSM    O1316735   5.457   2.642   2.021  0.0518 -0.0917  0.2791
  151OSM    O1416736   5.590   2.437   2.077  0.6391  0.3502 -0.1365
  151OSM    O1116737   5.587   2.646   2.222  0.3780 -0.1096  0.4737
  151OSM    O1216738   5.702   2.652   2.008 -0.1610 -0.5448 -0.2034
  151OSM    C1S16739   5.624   2.555   2.324  0.3628 -0.0590 -0.6324
  151OSM    H1S16740   5.726   2.516   2.307  0.5208  0.3322 -0.5861
  151OSM    H1T16741   5.551   2.472   2.336  0.6868 -0.0768  1.7644
  151OSM     NF16742   5.698   2.563   2.569  0.1806 -0.2437  0.5552
  151OSM    HNF16743   5.635   2.511   2.626 -2.1642  1.1865 -0.5701
  151OSM    C2S16744   5.624   2.628   2.466  0.2478 -0.1652  0.2970
  151OSM    H2S16745   5.663   2.729   2.443 -1.0842  0.7027  1.6676
  151OSM    C3S16746   5.472   2.648   2.511 -0.5352  0.3851 -0.1547
  151OSM    H3S16747   5.432   2.547   2.534 -2.8045  1.2559 -0.0476
  151OSM     O316748   5.387   2.697   2.409 -0.0530  0.2629 -0.9667
  151OSM    HO316749   5.456   2.715   2.344  4.0760 -1.5613  2.4097
  151OSM    C4S16750   5.463   2.743   2.630  0.1109 -0.1081  0.5450
  151OSM    H4S16751   5.503   2.844   2.617 -1.8218  0.6965  0.3991
  151OSM    C5S16752   5.402   2.715   2.747 -0.0710  0.7970  0.1377
  151OSM    H5S16753   5.362   2.614   2.761 -0.8183  1.1843  0.8848
  151OSM    C6S16754   5.410   2.808   2.862  0.7489 -0.2021  0.2239
  151OSM    H6S16755   5.342   2.773   2.942 -0.7355  2.3997  0.2277
  151OSM    H6T16756   5.371   2.911   2.844 -1.3979 -0.9361  0.3905
  151OSM    C7S16757   5.556   2.820   2.917 -0.2270  0.5222 -0.7075
  151OSM    H7S16758   5.549   2.911   2.981  0.0573  0.6694 -0.8822
  151OSM    H7T16759   5.628   2.846   2.836 -0.9135 -0.2553 -1.5880
  151OSM    C8S16760   5.603   2.700   2.994  0.5708  1.0488  0.0749
  151OSM    H8S16761   5.594   2.605   2.937  0.6059 -0.5266  2.5396
  151OSM    H8T16762   5.535   2.687   3.082  3.1376 -2.6671  1.7775
  151OSM    C9S16763   5.746   2.709   3.046  0.3256 -0.0219 -0.2452
  151OSM    H9S16764   5.821   2.742   2.971 -1.1538  0.2993 -1.6471
  151OSM    H9T16765   5.776   2.605   3.071 -2.5109 -0.3607  2.4198
  151OSM   C10S16766   5.746   2.784   3.180 -0.3336  0.2062 -0.1333
  151OSM   H10S16767   5.716   2.890   3.167  1.7110  0.9970  1.2678
  151OSM   H10T16768   5.854   2.800   3.199  0.2795 -2.8986 -0.3869
  151OSM   C11S16769   5.676   2.722   3.297 -0.1715  0.8877  0.0053
  151OSM   H11S16770   5.713   2.618   3.311  2.8346  1.8654  0.1208
  151OSM   H11T16771   5.567   2.713   3.279 -0.1609  0.3177  0.1839
  151OSM   C12S16772   5.697   2.799   3.426  0.4445 -0.3701  1.0782
  151OSM   H12S16773   5.651   2.899   3.420  0.9606 -0.2200 -2.0761
  151OSM   H12T16774   5.806   2.813   3.443 -0.1749  4.2201  2.6280
  151OSM   C13S16775   5.638   2.726   3.542  0.1211  0.1894  0.3744
  151OSM   H13S16776   5.701   2.636   3.560 -0.6744 -0.5108 -0.2458
  151OSM   H13T16777   5.536   2.686   3.524  0.1944  0.5740 -0.9497
  151OSM   C14S16778   5.660   2.802   3.670 -0.4196 -0.3111 -0.8789
  151OSM   H14S16779   5.588   2.886   3.667  0.4010  0.5825  1.7538
  151OSM   H14T16780   5.768   2.830   3.671 -0.6424  0.5984 -1.2595
  151OSM   C15S16781   5.625   2.729   3.804  0.3546  0.4633  0.2139
  151OSM   H15S16782   5.677   2.631   3.809 -0.1230  0.0825 -1.5263
  151OSM   H15T16783   5.516   2.710   3.792 -0.0694  2.4227  0.5919
  151OSM   C16S16784   5.641   2.804   3.936  0.2903  0.9490 -0.2279
  151OSM   H16S16785   5.596   2.906   3.929  2.1232  1.7328 -1.1801
  151OSM   H16T16786   5.748   2.811   3.967  0.7189 -1.1627 -1.1013
  151OSM   C17S16787   5.554   2.729   4.039  0.2505  0.0883  0.0599
  151OSM   H17S16788   5.601   2.631   4.063  0.0250 -0.2553 -0.8626
  151OSM   H17T16789   5.450   2.715   4.002  0.0352 -1.6448  1.1867
  151OSM   C18S16790   5.551   2.790   4.175 -0.6521 -0.7446 -0.6684
  151OSM   H18S16791   5.653   2.816   4.211  0.2604 -3.2847 -1.2164
  151OSM   H18T16792   5.508   2.726   4.254  2.0781  0.0324  1.6330
  151OSM   H18U16793   5.503   2.890   4.177  2.7574  1.0794 -1.0956
  151OSM    C1F16794   5.835   2.546   2.572  0.6268 -0.1330  0.0279
  151OSM     OF16795   5.907   2.618   2.497 -0.1608  0.1377 -0.3886
  151OSM    C2F16796   5.883   2.440   2.667 -0.8501  0.7063 -0.0623
  151OSM    H2F16797   5.993   2.460   2.670 -1.2888  3.3143  1.1171
  151OSM    H2G16798   5.852   2.353   2.606 -0.7563  0.7086 -0.1138
  151OSM    C3F16799   5.816   2.431   2.800  0.5177  0.1146  0.4644
  151OSM    H3F16800   5.707   2.416   2.782  0.1542  2.9617 -0.2277
  151OSM    H3G16801   5.837   2.524   2.858  0.2341  0.4325  0.0709
  151OSM    C4F16802   5.863   2.316   2.882 -0.5126 -0.6238  0.6413
  151OSM    H4F16803   5.968   2.341   2.909 -0.7666  2.3548 -0.6903
  151OSM    H4G16804   5.872   2.224   2.822  0.9884  0.4147 -0.7960
  151OSM    C5F16805   5.784   2.280   3.012  0.5910 -0.0076  0.5440
  151OSM    H5F16806   5.683   2.239   2.987  0.1205  0.6783  1.2917
  151OSM    H5G16807   5.771   2.369   3.076 -2.5305 -1.6667  2.4975
  151OSM    C6F16808   5.857   2.162   3.090  0.0111 -1.2606 -0.0416
  151OSM    H6F16809   5.859   2.069   3.030  0.1556 -1.8880  0.9173
  151OSM    H6G16810   5.799   2.149   3.183  1.8877 -1.6514  1.1301
  151OSM    C7F16811   5.998   2.196   3.145  0.0649  0.1193 -0.3497
  151OSM    H7F16812   5.983   2.292   3.199 -3.1594 -0.1461 -0.5672
  151OSM    H7G16813   6.079   2.212   3.071 -1.3375  1.2453 -1.7287
  151OSM    C8F16814   6.042   2.082   3.242  0.6978  0.1661  0.5788
  151OSM    H8F16815   6.082   2.002   3.177  1.5720  0.8122  0.2913
  151OSM    H8G16816   5.959   2.050   3.308  0.8936 -0.2455  0.6290
  151OSM    C9F16817   6.158   2.130   3.331  0.3278  0.4240 -0.5880
  151OSM    H9F16818   6.174   2.237   3.350  0.3269  0.4308 -0.6254
  151OSM   C10F16819   6.245   2.045   3.389  0.1085 -0.6329 -0.3717
  151OSM   H10F16820   6.319   2.080   3.463 -0.7544  0.8113 -0.1632
  151OSM   C11F16821   6.215   1.894   3.392 -0.2818 -0.5283 -0.2218
  151OSM   H11F16822   6.116   1.857   3.358 -0.1637 -2.7220  1.6090
  151OSM   H11G16823   6.206   1.876   3.501  0.1208 -0.4254 -0.1704
  151OSM   C12F16824   6.333   1.805   3.337  0.3639 -0.2237  0.0049
  151OSM   H12F16825   6.430   1.840   3.377 -0.2757  3.4545 -1.2881
  151OSM   H12G16826   6.323   1.817   3.227 -2.0558  1.7002  0.3464
  151OSM   C13F16827   6.313   1.654   3.365 -0.7791  0.1700  0.2843
  151OSM   H13F16828   6.393   1.598   3.311  0.9623  3.3835 -0.7173
  151OSM   H13G16829   6.215   1.625   3.323  0.0058 -4.0214  0.8661
  151OSM   C14F16830   6.299   1.618   3.515  0.5904 -0.9428 -0.1389
  151OSM   H14F16831   6.200   1.653   3.554 -0.7857 -2.3493 -2.1693
  151OSM   H14G16832   6.382   1.666   3.570 -0.8981  0.1165  1.2922
  151OSM   C15F16833   6.310   1.462   3.542  0.3007 -0.3542  0.1979
  151OSM   H15F16834   6.407   1.415   3.514  0.1269 -0.3026 -0.4968
  151OSM   H15G16835   6.228   1.412   3.486 -0.4532  0.3653  0.6482
  151OSM   C16F16836   6.281   1.428   3.689  0.5255 -0.3915  0.4513
  151OSM   H16F16837   6.209   1.344   3.700 -0.0881  0.1429  0.5768
  151OSM   H16G16838   6.230   1.511   3.743 -1.4683 -1.7097  0.6912
  151OSM   C17F16839   6.415   1.412   3.761 -0.4015 -0.8735 -0.2458
  151OSM   H17F16840   6.491   1.462   3.698  0.7679 -0.6063  1.3064
  151OSM   H17G16841   6.460   1.311   3.768  2.0588 -0.1135 -3.0336
  151OSM   C18F16842   6.425   1.486   3.897 -0.2662  0.0175  0.2725
  151OSM   H18F16843   6.522   1.441   3.929  1.0362  1.1054 -1.8970
  151OSM   H18G16844   6.345   1.464   3.970 -0.3412 -0.8764 -0.0646
  151OSM   H18H16845   6.442   1.596   3.893  2.1064 -0.2856  0.6377
  152OSM      N16846   6.658   3.105   1.918 -0.0076  0.0742  0.4858
  152OSM    C1516847   6.653   3.219   2.010  0.3386 -0.7088  0.1673
  152OSM   H15A16848   6.697   3.309   1.968 -2.5959 -0.1389 -1.9769
  152OSM   H15B16849   6.695   3.197   2.108  0.3617  0.2105  0.3744
  152OSM   H15C16850   6.551   3.247   2.030  1.0646  1.0507  1.8766
  152OSM    C1416851   6.606   3.150   1.783 -0.4279  0.3160  0.8211
  152OSM   H14A16852   6.503   3.183   1.782 -0.0257  1.6436 -0.4223
  152OSM   H14B16853   6.616   3.070   1.712 -1.1109  2.5194 -1.9394
  152OSM   H14C16854   6.670   3.231   1.751  1.1027 -0.9441  0.5697
  152OSM    C1316855   6.802   3.066   1.891  0.8649 -0.3446 -0.5893
  152OSM   H13A16856   6.848   3.013   1.973  0.6612 -0.3517 -0.4799
  152OSM   H13B16857   6.861   3.154   1.872 -1.4820  1.3611 -0.3548
  152OSM   H13C16858   6.811   2.995   1.810 -1.4615  0.2490 -1.4525
  152OSM    C1216859   6.589   2.987   1.975  0.6854 -0.0206 -0.8011
  152OSM   H12A16860   6.634   2.957   2.069 -2.7874  1.6943  1.6374
  152OSM   H12B16861   6.609   2.899   1.916 -1.7483 -1.1743 -0.0359
  152OSM    C1116862   6.435   2.992   2.012  0.0456 -0.9689 -0.4545
  152OSM   H11A16863   6.385   2.900   2.049 -1.2703 -0.2107 -0.2964
  152OSM   H11B16864   6.375   3.029   1.926  0.9796  1.6622 -0.0821
  152OSM      P16865   6.287   3.139   2.160  0.3796  0.0840 -0.0360
  152OSM    O1316866   6.294   3.185   2.301  0.1123 -0.3066  0.0134
  152OSM    O1416867   6.248   3.236   2.056 -0.0362 -0.1614  0.4469
  152OSM    O1116868   6.187   3.019   2.151 -0.4097  0.0864 -0.0062
  152OSM    O1216869   6.426   3.086   2.117  0.1348 -0.2289  0.1399
  152OSM    C1S16870   6.198   2.901   2.237  0.5727  0.0352  0.0547
  152OSM    H1S16871   6.304   2.870   2.252  0.2729 -0.5328  1.0778
  152OSM    H1T16872   6.138   2.816   2.200  1.1453  0.0593 -0.9893
  152OSM     NF16873   6.156   2.797   2.467 -0.1209  0.4369 -0.0068
  152OSM    HNF16874   6.080   2.735   2.484 -1.5308  1.9775 -0.3460
  152OSM    C2S16875   6.130   2.917   2.379 -0.5778  0.7855 -0.2186
  152OSM    H2S16876   6.180   3.001   2.432 -1.9313  1.9707 -0.7753
  152OSM    C3S16877   5.987   2.963   2.358 -1.2740 -0.2017 -0.0595
  152OSM    H3S16878   5.942   2.892   2.285  1.9024  0.0751 -2.5122
  152OSM     O316879   5.982   3.093   2.301 -0.0830  0.3276 -0.0525
  152OSM    HO316880   6.073   3.104   2.272 -0.4871  1.0436 -1.1159
  152OSM    C4S16881   5.898   2.958   2.480  0.4915 -0.1216 -0.1580
  152OSM    H4S16882   5.886   2.851   2.503  0.0550 -0.8347 -3.1979
  152OSM    C5S16883   5.835   3.053   2.558 -0.2921 -0.7518  0.1208
  152OSM    H5S16884   5.856   3.158   2.532 -1.7101 -1.1217 -3.0043
  152OSM    C6S16885   5.752   3.049   2.685  0.4516  0.4848  0.2437
  152OSM    H6S16886   5.765   2.953   2.740 -1.3730  1.5984  2.8082
  152OSM    H6T16887   5.647   3.055   2.649 -0.7239 -1.6821  2.9462
  152OSM    C7S16888   5.790   3.169   2.773 -0.5128 -0.1698  0.1465
  152OSM    H7S16889   5.724   3.171   2.862  0.9627  0.2772  1.2582
  152OSM    H7T16890   5.780   3.260   2.709 -0.6191 -0.3325 -0.0728
  152OSM    C8S16891   5.935   3.179   2.822 -0.9976 -0.4254 -0.0705
  152OSM    H8S16892   5.994   3.189   2.728 -1.5470  0.6771 -0.3121
  152OSM    H8T16893   5.976   3.088   2.870 -0.1066 -0.3433 -0.6516
  152OSM    C9S16894   5.969   3.289   2.923 -0.2715 -0.3838 -0.0401
  152OSM    H9S16895   6.079   3.298   2.939 -0.2743 -0.3115 -0.0591
  152OSM    H9T16896   5.918   3.264   3.018 -0.0455  0.7797  0.4007
  152OSM   C10S16897   5.926   3.429   2.870 -0.3017  0.1558 -0.5278
  152OSM   H10S16898   5.815   3.422   2.880 -0.0646 -1.1705  2.1129
  152OSM   H10T16899   5.953   3.444   2.764 -0.7738  1.5684 -0.4610
  152OSM   C11S16900   5.969   3.547   2.963  0.3200 -0.5336 -0.0811
  152OSM   H11S16901   5.932   3.640   2.914 -1.2359 -0.7240  0.6786
  152OSM   H11T16902   6.080   3.558   2.963  0.4261 -1.3882 -1.2292
  152OSM   C12S16903   5.907   3.535   3.105 -0.2840 -0.0734  0.5023
  152OSM   H12S16904   5.956   3.460   3.171 -0.3092 -0.5061  0.0277
  152OSM   H12T16905   5.803   3.504   3.087 -0.2628  1.5065 -3.0676
  152OSM   C13S16906   5.916   3.669   3.169 -0.5173  0.1177  0.6390
  152OSM   H13S16907   5.880   3.752   3.104 -1.2089 -0.2076  0.6042
  152OSM   H13T16908   6.023   3.699   3.181 -1.5075  3.6989  1.7127
  152OSM   C14S16909   5.846   3.677   3.312 -0.1360 -0.6441 -0.0365
  152OSM   H14S16910   5.740   3.644   3.307 -0.0203 -1.2418  1.1487
  152OSM   H14T16911   5.853   3.781   3.349 -1.5146  0.0873 -1.6947
  152OSM   C15S16912   5.907   3.574   3.411 -0.8498  0.2799  0.6127
  152OSM   H15S16913   6.013   3.602   3.428 -0.4414 -0.1242 -1.1119
  152OSM   H15T16914   5.913   3.471   3.369 -1.7998 -0.4745  2.2334
  152OSM   C16S16915   5.837   3.552   3.536  0.5706 -0.6349 -0.6287
  152OSM   H16S16916   5.899   3.478   3.591  1.0434  1.7616  2.3164
  152OSM   H16T16917   5.736   3.506   3.534 -0.4414  1.0564  2.8448
  152OSM   C17S16918   5.843   3.682   3.620 -0.0995  0.5050 -0.1602
  152OSM   H17S16919   5.789   3.768   3.575  0.1142  2.4258  2.9583
  152OSM   H17T16920   5.951   3.710   3.624 -0.1035  0.4886  0.0793
  152OSM   C18S16921   5.812   3.655   3.762  0.4349  0.5633  0.3386
  152OSM   H18S16922   5.867   3.568   3.802  0.7680 -0.6594 -2.5464
  152OSM   H18T16923   5.704   3.631   3.752  0.7234 -0.6874  0.1151
  152OSM   H18U16924   5.826   3.742   3.830  1.0245  0.1880  0.7124
  152OSM    C1F16925   6.282   2.786   2.519  0.3110 -0.2730  0.2067
  152OSM     OF16926   6.363   2.876   2.507 -0.2434 -0.2032 -0.2673
  152OSM    C2F16927   6.328   2.653   2.581 -0.5037  0.4723 -1.1535
  152OSM    H2F16928   6.438   2.648   2.563 -0.1101  2.4435  0.3853
  152OSM    H2G16929   6.277   2.561   2.544 -0.5576 -1.0114  2.2226
  152OSM    C3F16930   6.315   2.651   2.738  0.0404  0.0290 -0.2939
  152OSM    H3F16931   6.379   2.726   2.789 -1.2991  0.1427  1.2928
  152OSM    H3G16932   6.345   2.549   2.772 -1.6188 -0.3042  0.2733
  152OSM    C4F16933   6.168   2.675   2.773 -0.2521  0.2047 -0.2127
  152OSM    H4F16934   6.104   2.629   2.695 -0.5079  1.0834 -0.5407
  152OSM    H4G16935   6.148   2.784   2.767 -0.0767  0.3013  0.7839
  152OSM    C5F16936   6.133   2.598   2.904  0.9441 -0.0827 -0.0186
  152OSM    H5F16937   6.165   2.493   2.885  0.2376 -0.0445 -1.6270
  152OSM    H5G16938   6.024   2.586   2.921  1.0102 -0.6350  0.0321
  152OSM    C6F16939   6.184   2.655   3.039 -0.4790  0.0574 -0.4596
  152OSM    H6F16940   6.143   2.757   3.052  0.3512  0.6287 -2.0868
  152OSM    H6G16941   6.295   2.660   3.045 -0.5885  3.1571  0.3479
  152OSM    C7F16942   6.137   2.568   3.158  0.2427 -0.1641  0.5777
  152OSM    H7F16943   6.162   2.463   3.133  0.4130  0.1650 -0.7396
  152OSM    H7G16944   6.027   2.576   3.166 -0.0082 -0.8727 -1.6192
  152OSM    C8F16945   6.208   2.607   3.285 -0.5155  0.2754 -0.2614
  152OSM    H8F16946   6.317   2.599   3.269 -0.4551 -1.4231  0.7412
  152OSM    H8G16947   6.178   2.528   3.357 -0.3618 -2.2043 -2.7379
  152OSM    C9F16948   6.197   2.745   3.335  0.5591  0.2048  0.1105
  152OSM    H9F16949   6.247   2.813   3.264  1.2114  0.3829  0.7230
  152OSM   C10F16950   6.159   2.775   3.461 -0.1063  0.1740  0.2372
  152OSM   H10F16951   6.149   2.882   3.486 -0.7307 -0.2678  2.0314
  152OSM   C11F16952   6.112   2.677   3.565 -0.3420 -0.5140 -0.0320
  152OSM   H11F16953   6.164   2.580   3.557  0.1946 -0.1442 -1.2253
  152OSM   H11G16954   6.002   2.663   3.558 -0.5618  0.6272  0.8294
  152OSM   C12F16955   6.138   2.729   3.706  0.1754  1.1453  0.4617
  152OSM   H12F16956   6.109   2.834   3.726 -1.1169  0.3824  3.1859
  152OSM   H12G16957   6.248   2.732   3.723  0.1469  3.6612  0.4520
  152OSM   C13F16958   6.071   2.638   3.813 -0.7585 -0.0170 -0.2277
  152OSM   H13F16959   6.093   2.533   3.784 -1.7233 -0.1724 -0.4419
  152OSM   H13G16960   5.960   2.644   3.807 -0.6919  0.6796 -0.9166
  152OSM   C14F16961   6.116   2.684   3.954 -0.2034 -0.3026 -0.0177
  152OSM   H14F16962   6.132   2.794   3.949  1.4118 -0.5473 -3.0700
  152OSM   H14G16963   6.217   2.644   3.976 -0.4974 -0.4632  1.1294
  152OSM   C15F16964   6.016   2.638   4.062  0.5767 -0.2420 -0.7580
  152OSM   H15F16965   6.000   2.528   4.062 -0.9360 -0.0564  0.4965
  152OSM   H15G16966   5.920   2.681   4.026 -0.6125 -2.2705 -0.1701
  152OSM   C16F16967   6.059   2.694   4.197 -0.3801 -0.4606  0.1621
  152OSM   H16F16968   6.084   2.802   4.193 -0.1724 -0.5401 -1.1782
  152OSM   H16G16969   6.151   2.644   4.233  0.3559 -0.1599 -1.2026
  152OSM   C17F16970   5.956   2.665   4.315 -0.3107  0.0465  0.3127
  152OSM   H17F16971   5.858   2.710   4.288 -0.3351 -0.5824 -0.6850
  152OSM   H17G16972   6.000   2.725   4.398 -0.0874 -0.3469  0.4853
  152OSM   C18F16973   5.938   2.516   4.366  0.0036 -0.5108  0.3824
  152OSM   H18F16974   6.031   2.477   4.413  1.1457 -0.7521 -1.9515
  152OSM   H18G16975   5.924   2.448   4.279  1.8532  0.3791 -0.6713
  152OSM   H18H16976   5.857   2.499   4.440  0.4570 -3.7173  0.2646
  153OSM      N16977   5.156   4.147   2.446 -0.0924  0.3965  0.0896
  153OSM    C1516978   5.116   4.084   2.576  0.1449 -0.3407  0.2519
  153OSM   H15A16979   5.009   4.073   2.584 -0.0296 -1.8327 -2.7658
  153OSM   H15B16980   5.157   4.150   2.651  2.5349 -0.8051 -0.5381
  153OSM   H15C16981   5.158   3.985   2.588  0.1309 -0.3732  0.0442
  153OSM    C1416982   5.090   4.079   2.331 -0.2664 -0.0514  0.4260
  153OSM   H14A16983   5.121   3.979   2.306  2.3165  0.6787  0.3545
  153OSM   H14B16984   5.101   4.140   2.242  3.9529 -1.4029 -0.2052
  153OSM   H14C16985   4.985   4.081   2.353  0.1006 -2.2340  2.7372
  153OSM    C1316986   5.106   4.288   2.441 -0.2127  0.5286  0.4547
  153OSM   H13A16987   5.171   4.334   2.514  3.3758 -2.3807 -0.6143
  153OSM   H13B16988   5.004   4.291   2.477 -0.0442  0.9430  0.9038
  153OSM   H13C16989   5.113   4.328   2.341  0.9430 -0.2024  0.2192
  153OSM    C1216990   5.307   4.135   2.424 -0.5612  0.1081 -0.7767
  153OSM   H12A16991   5.340   4.183   2.334  0.8291  2.4278  0.8453
  153OSM   H12B16992   5.328   4.030   2.411 -0.3681 -0.0726  0.7627
  153OSM    C1116993   5.388   4.188   2.544 -0.1377  0.1174  0.1690
  153OSM   H11A16994   5.490   4.145   2.535 -0.1342 -0.3329  2.0657
  153OSM   H11B16995   5.351   4.146   2.640 -3.4089 -1.0820 -1.4548
  153OSM      P16996   5.511   4.409   2.473 -0.1386  0.1289  0.1568
  153OSM    O1316997   5.564   4.340   2.347 -0.2175  0.6490 -0.0463
  153OSM    O1416998   5.460   4.549   2.463  0.5471  0.0307 -0.0878
  153OSM    O1116999   5.636   4.418   2.574  0.5583  0.1455 -0.4287
  153OSM    O1217000   5.400   4.329   2.542  0.1496 -0.1024 -0.6720
  153OSM    C1S17001   5.631   4.356   2.701  0.2895  0.0208  0.7790
  153OSM    H1S17002   5.648   4.246   2.693 -0.6103 -0.0781  0.1292
  153OSM    H1T17003   5.527   4.360   2.738 -0.2868  0.7069 -0.8332
  153OSM     NF17004   5.737   4.332   2.926  0.3674 -0.2304 -0.4863
  153OSM    HNF17005   5.686   4.350   3.009 -0.4222  1.8715 -1.3524
  153OSM    C2S17006   5.723   4.423   2.810 -0.6271 -0.6479  0.6307
  153OSM    H2S17007   5.826   4.435   2.769 -0.3738 -0.1704  1.3798
  153OSM    C3S17008   5.649   4.559   2.836 -0.5689  0.2509 -0.4672
  153OSM    H3S17009   5.550   4.526   2.874  0.1901 -0.7458  0.6909
  153OSM     O317010   5.612   4.640   2.730 -0.3015  0.0534 -0.7871
  153OSM    HO317011   5.615   4.589   2.648  2.9355 -0.5981 -0.3826
  153OSM    C4S17012   5.721   4.640   2.939  0.3541 -0.8539 -0.3488
  153OSM    H4S17013   5.691   4.603   3.039 -2.1628 -2.6422 -1.6538
  153OSM    C5S17014   5.814   4.738   2.927 -0.3519  0.0785 -0.4100
  153OSM    H5S17015   5.837   4.785   2.830  4.0370 -1.2216 -0.1904
  153OSM    C6S17016   5.882   4.800   3.050  0.5496 -0.1869 -0.1657
  153OSM    H6S17017   5.850   4.906   3.049 -1.7148 -0.7982 -1.9149
  153OSM    H6T17018   5.992   4.812   3.042  0.7442 -0.5653  1.6239
  153OSM    C7S17019   5.838   4.741   3.186 -0.2824 -0.3442  0.0038
  153OSM    H7S17020   5.863   4.634   3.203 -0.1160  0.0017  2.2724
  153OSM    H7T17021   5.729   4.756   3.195 -0.3691 -0.4089 -0.9111
  153OSM    C8S17022   5.911   4.818   3.295 -0.2026  0.1645  0.0667
  153OSM    H8S17023   5.889   4.926   3.287 -1.9324 -0.1775 -0.1146
  153OSM    H8T17024   6.022   4.811   3.286 -0.0285 -0.2727  2.2017
  153OSM    C9S17025   5.891   4.772   3.445  0.1347  0.2638  0.0510
  153OSM    H9S17026   5.884   4.662   3.458 -1.3585  0.4279  0.8601
  153OSM    H9T17027   5.795   4.822   3.468  0.5636  1.3488 -0.4368
  153OSM   C10S17028   5.984   4.834   3.545 -0.0120 -0.1631 -0.4444
  153OSM   H10S17029   5.969   4.943   3.532 -0.8881 -0.0629  1.1280
  153OSM   H10T17030   6.086   4.802   3.517 -0.1464 -1.4895  0.4578
  153OSM   C11S17031   5.939   4.801   3.689 -0.7020  0.4018 -0.1222
  153OSM   H11S17032   5.906   4.695   3.691 -0.0558  0.1494 -1.3661
  153OSM   H11T17033   5.854   4.869   3.710 -0.1272  0.6675  1.4810
  153OSM   C12S17034   6.058   4.811   3.789  0.5436  0.1170 -0.0994
  153OSM   H12S17035   6.125   4.892   3.752  0.3384  0.8115  0.9732
  153OSM   H12T17036   6.106   4.711   3.787 -2.5030 -1.4589 -0.6184
  153OSM   C13S17037   6.016   4.857   3.934 -0.6186 -0.1211 -0.5567
  153OSM   H13S17038   5.964   4.774   3.987  1.9547 -1.7194 -0.3427
  153OSM   H13T17039   5.959   4.952   3.923 -1.6609 -0.8134 -1.3901
  153OSM   C14S17040   6.136   4.876   4.037 -0.4048 -0.2711  0.2411
  153OSM   H14S17041   6.209   4.953   4.003 -2.8680  1.6594 -0.9940
  153OSM   H14T17042   6.181   4.775   4.039 -0.0904 -0.1166  1.8244
  153OSM   C15S17043   6.088   4.903   4.179  0.3212  1.1025 -0.7602
  153OSM   H15S17044   6.018   4.989   4.165 -1.5729 -0.3687 -0.7356
  153OSM   H15T17045   6.168   4.940   4.246  0.4414 -2.9713  1.6719
  153OSM   C16S17046   6.030   4.779   4.254 -0.8926 -0.9295  0.5805
  153OSM   H16S17047   6.068   4.683   4.213 -2.8523 -1.3066 -0.4696
  153OSM   H16T17048   5.920   4.770   4.240 -0.8547  1.4168 -1.6957
  153OSM   C17S17049   6.071   4.776   4.401 -0.5162 -0.2449  0.1889
  153OSM   H17S17050   6.041   4.875   4.442  2.1572  0.8158 -0.1835
  153OSM   H17T17051   6.181   4.783   4.409 -0.5165  0.5526 -0.2783
  153OSM   C18S17052   6.029   4.655   4.488 -0.0844 -1.1713  0.3908
  153OSM   H18S17053   6.109   4.649   4.565 -1.0567 -0.3340  1.5005
  153OSM   H18T17054   6.035   4.554   4.441  2.5562 -0.4012 -1.0734
  153OSM   H18U17055   5.927   4.672   4.529  0.1489  1.3993  0.0246
  153OSM    C1F17056   5.809   4.223   2.912  0.1704  0.4010 -0.6780
  153OSM     OF17057   5.860   4.195   2.807  0.6536 -0.4318  0.7072
  153OSM    C2F17058   5.817   4.133   3.029 -0.5223  0.5966 -0.0180
  153OSM    H2F17059   5.813   4.030   2.990  1.2612  1.3899 -2.5706
  153OSM    H2G17060   5.743   4.149   3.110 -2.0081 -1.5279 -0.8922
  153OSM    C3F17061   5.960   4.130   3.095 -0.6319 -0.3478 -0.4108
  153OSM    H3F17062   5.959   4.220   3.160  0.8692 -0.4334 -0.2401
  153OSM    H3G17063   6.040   4.125   3.017 -1.6616 -3.0081 -1.4147
  153OSM    C4F17064   5.981   4.014   3.192 -0.0989 -0.5357 -0.3702
  153OSM    H4F17065   6.004   3.918   3.140 -1.1587 -0.4411 -1.0332
  153OSM    H4G17066   5.895   4.017   3.262  0.6272 -2.0960  0.6498
  153OSM    C5F17067   6.110   4.040   3.280  0.6744  0.3725  0.7778
  153OSM    H5F17068   6.186   4.094   3.219  3.0883 -2.6625  0.8827
  153OSM    H5G17069   6.164   3.945   3.297 -0.0855  0.4211  4.2030
  153OSM    C6F17070   6.096   4.097   3.421 -0.4473 -0.1892 -0.1914
  153OSM    H6F17071   6.039   4.192   3.413 -1.0263 -0.5562 -0.4628
  153OSM    H6G17072   6.204   4.110   3.445 -0.8701 -0.6420  2.1140
  153OSM    C7F17073   6.026   4.009   3.518 -0.1621  0.3079 -0.3728
  153OSM    H7F17074   6.103   3.942   3.562  0.2201  0.5607 -0.6490
  153OSM    H7G17075   5.953   3.944   3.466  1.4744 -0.8022 -1.3687
  153OSM    C8F17076   5.958   4.094   3.630  0.1317 -0.4700  0.2122
  153OSM    H8F17077   5.888   4.025   3.682  0.6341  0.1739  1.8330
  153OSM    H8G17078   5.888   4.168   3.586  0.4335 -0.5340 -0.3743
  153OSM    C9F17079   6.052   4.150   3.731  0.7579  0.3683  1.6651
  153OSM    H9F17080   6.116   4.233   3.697  1.7472 -1.4190 -1.2302
  153OSM   C10F17081   6.076   4.090   3.849 -0.6127  0.1197  0.2288
  153OSM   H10F17082   6.128   4.142   3.930  0.3135 -0.7366  0.2099
  153OSM   C11F17083   6.014   3.969   3.905  0.2620  1.0989  0.5224
  153OSM   H11F17084   5.969   3.906   3.826  0.5750  1.6853 -0.1395
  153OSM   H11G17085   5.940   3.992   3.985 -0.2729 -1.5552  0.8532
  153OSM   C12F17086   6.116   3.892   3.991 -0.2264 -0.7885  0.0882
  153OSM   H12F17087   6.179   3.958   4.054  0.9481  0.6099 -2.4192
  153OSM   H12G17088   6.188   3.844   3.921 -0.0246  0.2343 -0.4092
  153OSM   C13F17089   6.060   3.779   4.082  0.6307  0.2059  0.2452
  153OSM   H13F17090   6.001   3.707   4.023  0.0790  0.3562  0.6102
  153OSM   H13G17091   5.976   3.820   4.141  1.1955  0.6337  0.7631
  153OSM   C14F17092   6.156   3.699   4.170 -0.0185 -0.0172  1.0543
  153OSM   H14F17093   6.203   3.776   4.234 -1.7488  1.5530  0.5261
  153OSM   H14G17094   6.235   3.657   4.104 -1.8582 -0.6248 -0.8841
  153OSM   C15F17095   6.085   3.583   4.242 -0.6280 -1.0901  0.3235
  153OSM   H15F17096   6.090   3.479   4.204  0.0029 -1.5095  1.4999
  153OSM   H15G17097   5.977   3.601   4.258 -1.4504 -1.5224 -3.6312
  153OSM   C16F17098   6.124   3.579   4.388  0.2412 -0.1978  0.7795
  153OSM   H16F17099   6.232   3.554   4.397  0.2642 -1.4303 -1.7537
  153OSM   H16G17100   6.060   3.495   4.422 -2.1061  1.1478 -0.0391
  153OSM   C17F17101   6.102   3.700   4.473 -0.2641 -0.3619 -0.5225
  153OSM   H17F17102   6.000   3.741   4.458 -0.3120 -0.3165 -0.0763
  153OSM   H17G17103   6.173   3.782   4.448  0.1628 -0.6891 -0.3876
  153OSM   C18F17104   6.134   3.668   4.617  0.3821 -0.6070  0.2486
  153OSM   H18F17105   6.234   3.619   4.607  1.4803  1.5346  0.0838
  153OSM   H18G17106   6.056   3.607   4.666 -1.8831  2.2545  0.4404
  153OSM   H18H17107   6.135   3.762   4.675  0.3666  0.1407 -0.9288
  154OSM      N17108   3.800   4.288   2.089 -0.0037  0.0291  0.9892
  154OSM    C1517109   3.801   4.170   2.003 -0.3481 -0.3871 -0.4769
  154OSM   H15A17110   3.699   4.140   1.982 -0.4594 -0.8964  0.6780
  154OSM   H15B17111   3.849   4.085   2.050  1.3056 -0.1596 -1.6609
  154OSM   H15C17112   3.850   4.192   1.909 -1.4697 -1.7298 -1.4294
  154OSM    C1417113   3.944   4.332   2.129 -0.0376 -0.0405  0.3335
  154OSM   H14A17114   3.979   4.243   2.180  0.7873  0.8565  1.3916
  154OSM   H14B17115   3.937   4.429   2.176 -0.9429  0.4029 -0.6877
  154OSM   H14C17116   4.008   4.352   2.044  0.9535  1.3952  1.3702
  154OSM    C1317117   3.743   4.407   2.024 -0.6882 -0.0005 -0.0432
  154OSM   H13A17118   3.641   4.393   1.990 -1.2541  1.1723  1.0893
  154OSM   H13B17119   3.806   4.444   1.944  0.0021  2.4534  1.5220
  154OSM   H13C17120   3.734   4.488   2.094 -2.1122 -0.2949  0.1557
  154OSM    C1217121   3.728   4.260   2.219 -0.3638  0.8148  1.0976
  154OSM   H12A17122   3.622   4.277   2.214 -0.4047  0.1655 -1.5933
  154OSM   H12B17123   3.768   4.331   2.291  0.2926  0.9468  0.6181
  154OSM    C1117124   3.745   4.117   2.271  0.3728 -0.1281 -0.1233
  154OSM   H11A17125   3.675   4.054   2.212  1.0063 -1.7277  0.7626
  154OSM   H11B17126   3.694   4.127   2.369  0.7967 -0.5031  0.1427
  154OSM      P17127   3.910   3.924   2.259 -0.0320  0.1362  0.3150
  154OSM    O1317128   3.885   3.892   2.115 -0.3481 -0.0148 -1.0911
  154OSM    O1417129   4.039   3.887   2.317 -0.1662 -0.1304 -0.6402
  154OSM    O1117130   3.793   3.862   2.346  1.1945 -0.0872  0.8462
  154OSM    O1217131   3.884   4.080   2.283  0.0277  0.4340  0.1696
  154OSM    C1S17132   3.814   3.794   2.470  0.4485 -0.2058  0.8048
  154OSM    H1S17133   3.917   3.753   2.476  0.1155 -1.1438  0.4243
  154OSM    H1T17134   3.745   3.707   2.474  0.9776 -0.8440 -1.8170
  154OSM     NF17135   3.850   3.843   2.710 -0.1522 -0.1179 -0.0411
  154OSM    HNF17136   3.815   3.757   2.748  1.1502  0.5761  2.9664
  154OSM    C2S17137   3.783   3.882   2.588  0.6089 -0.2584 -0.0397
  154OSM    H2S17138   3.814   3.986   2.564 -2.8655  0.7740 -0.6059
  154OSM    C3S17139   3.631   3.889   2.604 -0.0098  0.0695 -0.1540
  154OSM    H3S17140   3.584   3.788   2.610 -0.4870  0.1031 -2.4359
  154OSM     O317141   3.556   3.939   2.494  0.0534 -0.3025  0.3630
  154OSM    HO317142   3.618   3.951   2.422 -0.3588 -0.5071 -0.0282
  154OSM    C4S17143   3.592   3.965   2.727  0.5568 -0.0997 -0.0571
  154OSM    H4S17144   3.574   3.897   2.812  2.4670  1.2470  1.5310
  154OSM    C5S17145   3.568   4.095   2.744  0.7297  0.4646  0.1377
  154OSM    H5S17146   3.585   4.173   2.669  2.4816  0.3069  0.3228
  154OSM    C6S17147   3.524   4.158   2.870  0.3204 -0.6701  0.7542
  154OSM    H6S17148   3.419   4.188   2.855  0.5936 -0.2869 -0.5122
  154OSM    H6T17149   3.579   4.253   2.887  1.1553 -0.4692 -2.4589
  154OSM    C7S17150   3.521   4.068   3.001 -0.1118 -0.2055 -0.0241
  154OSM    H7S17151   3.623   4.026   3.006 -0.0036  0.0496 -0.0917
  154OSM    H7T17152   3.455   3.981   2.977 -0.4416 -0.8896  3.0425
  154OSM    C8S17153   3.486   4.136   3.133  0.5532  0.3095 -0.8335
  154OSM    H8S17154   3.378   4.158   3.148  0.5670  2.0047 -2.8093
  154OSM    H8T17155   3.535   4.234   3.152 -1.3655  1.2402 -0.3825
  154OSM    C9S17156   3.505   4.045   3.258  0.4971  1.5696  0.1630
  154OSM    H9S17157   3.603   3.994   3.247  0.5036  1.4794  0.5926
  154OSM    H9T17158   3.419   3.975   3.253  2.3518 -0.8303 -0.0234
  154OSM   C10S17159   3.498   4.122   3.391 -0.8036 -0.0020  0.9327
  154OSM   H10S17160   3.391   4.152   3.391 -0.3749  1.7473 -1.1205
  154OSM   H10T17161   3.553   4.217   3.376 -0.0843 -0.7478 -1.5579
  154OSM   C11S17162   3.536   4.035   3.504 -0.4105  0.1353  0.9361
  154OSM   H11S17163   3.642   3.999   3.510 -0.8126 -1.1243  0.8389
  154OSM   H11T17164   3.488   3.936   3.487  1.9185 -0.7692 -1.0724
  154OSM   C12S17165   3.502   4.097   3.639 -0.0888 -0.1117 -0.0207
  154OSM   H12S17166   3.556   4.031   3.710 -1.3804 -1.5171 -0.2934
  154OSM   H12T17167   3.391   4.094   3.640 -0.2984  1.4441 -3.5270
  154OSM   C13S17168   3.545   4.245   3.666 -0.1053 -0.4031  0.0119
  154OSM   H13S17169   3.499   4.308   3.586  0.4907 -1.1649 -0.9492
  154OSM   H13T17170   3.653   4.265   3.647 -0.1831  1.4123  1.2062
  154OSM   C14S17171   3.507   4.311   3.800 -0.2397  0.0243  0.1367
  154OSM   H14S17172   3.397   4.301   3.810 -0.2856  1.4040  1.2212
  154OSM   H14T17173   3.541   4.417   3.799 -1.6018  0.4793 -0.7152
  154OSM   C15S17174   3.572   4.235   3.920  0.2700  0.1534  0.0954
  154OSM   H15S17175   3.680   4.247   3.896 -0.1159  1.6683 -0.9682
  154OSM   H15T17176   3.541   4.128   3.925  1.5064 -0.2840 -0.9268
  154OSM   C16S17177   3.534   4.287   4.057 -0.1509  0.5755  0.0694
  154OSM   H16S17178   3.595   4.239   4.136  1.5515 -0.2293 -1.6502
  154OSM   H16T17179   3.429   4.254   4.076 -0.1080  0.2885 -0.1884
  154OSM   C17S17180   3.562   4.436   4.076 -0.6782  1.0203  0.0109
  154OSM   H17S17181   3.511   4.463   4.171 -1.5367  0.7902 -0.3750
  154OSM   H17T17182   3.517   4.495   3.993  3.7330  1.8722 -2.0386
  154OSM   C18S17183   3.711   4.452   4.080 -0.0609 -0.2776  0.5023
  154OSM   H18S17184   3.742   4.558   4.092  1.0769 -0.7772  2.4472
  154OSM   H18T17185   3.751   4.427   3.980  1.2976 -3.4566  1.6950
  154OSM   H18U17186   3.767   4.389   4.152  2.3123  1.2017  0.0721
  154OSM    C1F17187   3.975   3.867   2.731 -0.2671  0.3481  0.1484
  154OSM     OF17188   4.026   3.961   2.675 -0.2864 -0.3479  0.8589
  154OSM    C2F17189   4.046   3.769   2.819 -0.5209 -0.2338  0.3021
  154OSM    H2F17190   3.977   3.685   2.843  0.6416 -1.0446  0.9590
  154OSM    H2G17191   4.072   3.825   2.912 -0.0586  2.4712 -1.3631
  154OSM    C3F17192   4.170   3.705   2.759 -0.6237 -0.2255  0.1902
  154OSM    H3F17193   4.230   3.787   2.716 -1.8625  0.8980  0.5310
  154OSM    H3G17194   4.138   3.644   2.672 -0.6375  1.1246 -0.7762
  154OSM    C4F17195   4.269   3.641   2.860  0.8736  0.0334  0.8518
  154OSM    H4F17196   4.301   3.728   2.922  0.3574  0.1640  0.9423
  154OSM    H4G17197   4.356   3.616   2.796 -0.3122 -0.3388 -0.6587
  154OSM    C5F17198   4.222   3.527   2.952 -0.1700  0.2039  0.0934
  154OSM    H5F17199   4.187   3.443   2.889  2.0332 -0.6635 -0.0933
  154OSM    H5G17200   4.135   3.564   3.009  0.5288  0.5516  0.9717
  154OSM    C6F17201   4.328   3.472   3.046 -0.4006 -0.4008 -0.0065
  154OSM    H6F17202   4.430   3.457   3.003 -0.5277  0.5280 -0.6610
  154OSM    H6G17203   4.303   3.380   3.103 -1.1167  1.6577  3.2962
  154OSM    C7F17204   4.354   3.569   3.166 -0.4745 -0.5892 -0.1939
  154OSM    H7F17205   4.403   3.660   3.124 -0.3572 -0.5286  0.0699
  154OSM    H7G17206   4.440   3.523   3.220  1.5887  1.4734 -1.5346
  154OSM    C8F17207   4.240   3.594   3.263 -0.3594 -0.9300  0.1131
  154OSM    H8F17208   4.182   3.500   3.279 -1.2613 -0.5480 -0.8520
  154OSM    H8G17209   4.171   3.664   3.212  0.4577 -0.8863 -0.9632
  154OSM    C9F17210   4.274   3.663   3.398 -0.5165  0.4332  0.1534
  154OSM    H9F17211   4.314   3.764   3.379  0.7046 -0.5842 -3.5843
  154OSM   C10F17212   4.269   3.610   3.518 -0.0039  0.0145 -0.0674
  154OSM   H10F17213   4.310   3.676   3.596 -1.0378 -2.0627  2.3693
  154OSM   C11F17214   4.233   3.463   3.548  0.3177  0.0771  0.1302
  154OSM   H11F17215   4.272   3.409   3.460 -1.5173 -3.2389  1.1883
  154OSM   H11G17216   4.124   3.440   3.551  0.6108 -1.6077 -0.9340
  154OSM   C12F17217   4.311   3.430   3.674 -0.0735  0.7024  0.5092
  154OSM   H12F17218   4.412   3.474   3.687 -0.2006  0.4754  2.7494
  154OSM   H12G17219   4.323   3.319   3.679  0.3361  0.6103 -1.7012
  154OSM   C13F17220   4.231   3.471   3.807  0.1008 -0.0953 -0.7317
  154OSM   H13F17221   4.127   3.433   3.795  0.9654 -2.9718  0.0334
  154OSM   H13G17222   4.231   3.582   3.803  2.7012  0.0151  0.5367
  154OSM   C14F17223   4.294   3.431   3.940 -0.6173 -0.2151 -0.6387
  154OSM   H14F17224   4.313   3.323   3.958 -1.8790 -0.3700 -0.1437
  154OSM   H14G17225   4.216   3.456   4.016 -1.4959  2.7835 -2.3769
  154OSM   C15F17226   4.416   3.515   3.984  0.2479 -0.2019  0.0362
  154OSM   H15F17227   4.396   3.622   3.963 -0.8025 -0.3357  0.2710
  154OSM   H15G17228   4.505   3.474   3.931  0.1792 -4.7832  2.9027
  154OSM   C16F17229   4.447   3.484   4.135 -0.0289  0.2966 -0.3018
  154OSM   H16F17230   4.479   3.378   4.143  0.5694  0.5829  1.5634
  154OSM   H16G17231   4.359   3.484   4.203  0.0438 -0.0407 -0.2035
  154OSM   C17F17232   4.570   3.558   4.184  0.7317 -0.2783 -0.2113
  154OSM   H17F17233   4.660   3.532   4.124  1.3633 -2.5614  1.5928
  154OSM   H17G17234   4.591   3.504   4.279  1.0073 -0.1584 -0.2038
  154OSM   C18F17235   4.566   3.705   4.213  0.2020  0.0058  0.0286
  154OSM   H18F17236   4.567   3.752   4.112  2.6077  1.6467  0.7092
  154OSM   H18G17237   4.653   3.737   4.274 -0.4126 -0.7517  1.3494
  154OSM   H18H17238   4.473   3.734   4.266  0.6057 -0.8061  1.2156
  155OSM      N17239   2.012   4.182   2.036 -0.6548 -0.2161 -0.2361
  155OSM    C1517240   1.917   4.265   1.960  0.4702  0.4520  0.3299
  155OSM   H15A17241   1.830   4.208   1.932  0.1273  1.4162 -0.6104
  155OSM   H15B17242   1.958   4.306   1.869  1.0788 -0.4018  0.2045
  155OSM   H15C17243   1.872   4.348   2.012 -1.9560 -0.0951 -0.7507
  155OSM    C1417244   2.129   4.277   2.060  0.8130  0.2689 -0.4569
  155OSM   H14A17245   2.184   4.296   1.969 -0.4647  0.1376 -1.2765
  155OSM   H14B17246   2.200   4.239   2.132  0.5985 -0.3906 -0.5825
  155OSM   H14C17247   2.099   4.372   2.100 -1.3641 -0.5245 -0.0994
  155OSM    C1317248   1.954   4.140   2.164  0.6384 -0.1825 -0.4602
  155OSM   H13A17249   2.021   4.089   2.232 -0.0884  0.3282  0.6813
  155OSM   H13B17250   1.872   4.072   2.151  0.4292 -0.0498  0.1123
  155OSM   H13C17251   1.905   4.220   2.217 -1.8258 -1.7084 -0.2764
  155OSM    C1217252   2.050   4.062   1.957  0.1554 -0.3280 -0.3326
  155OSM   H12A17253   1.963   4.000   1.976  0.6720 -0.7963  0.5669
  155OSM   H12B17254   2.132   4.009   2.002  0.1280  0.0244  0.1371
  155OSM    C1117255   2.077   4.068   1.810 -0.0125  0.4256  0.1367
  155OSM   H11A17256   1.996   4.124   1.758 -1.7264 -0.7010  1.4809
  155OSM   H11B17257   2.065   3.962   1.780 -2.0045  1.0691 -1.6419
  155OSM      P17258   2.336   4.029   1.802 -0.0859 -0.2805  0.1672
  155OSM    O1317259   2.334   3.928   1.696  0.5279  0.3085  0.0398
  155OSM    O1417260   2.462   4.106   1.822  0.6180  0.4978  0.1721
  155OSM    O1117261   2.307   3.951   1.944  0.2716  0.1150 -0.4856
  155OSM    O1217262   2.209   4.119   1.791  0.4650 -0.3056 -0.3438
  155OSM    C1S17263   2.361   4.000   2.068  0.1738 -0.8574 -0.4423
  155OSM    H1S17264   2.324   4.103   2.089 -0.2585 -1.2305  0.6653
  155OSM    H1T17265   2.472   4.006   2.068  0.2032 -1.0617  1.2431
  155OSM     NF17266   2.380   3.974   2.318 -0.1340 -0.1004 -0.4260
  155OSM    HNF17267   2.458   3.919   2.348  0.2814 -0.1757 -1.6222
  155OSM    C2S17268   2.318   3.920   2.199  0.1240 -0.1735  0.7636
  155OSM    H2S17269   2.207   3.919   2.205  0.0364 -1.1123 -0.4515
  155OSM    C3S17270   2.351   3.769   2.179  0.0825  0.5773  0.3334
  155OSM    H3S17271   2.457   3.750   2.153 -0.0874  2.9910 -2.6258
  155OSM     O317272   2.266   3.705   2.087 -0.1157  0.2195  0.3051
  155OSM    HO317273   2.262   3.770   2.017 -1.5024  0.2024  0.3367
  155OSM    C4S17274   2.322   3.701   2.310  0.0897 -0.0545 -0.4290
  155OSM    H4S17275   2.219   3.716   2.347  0.9451  0.5684  1.8771
  155OSM    C5S17276   2.393   3.608   2.379  0.0215 -0.1861  0.0819
  155OSM    H5S17277   2.494   3.588   2.341 -0.3482 -0.0946 -0.9929
  155OSM    C6S17278   2.337   3.523   2.497  0.2214  0.4973  0.6372
  155OSM    H6S17279   2.369   3.417   2.488  0.3807  0.3605  2.5082
  155OSM    H6T17280   2.227   3.525   2.489  0.3427  1.1125 -2.4078
  155OSM    C7S17281   2.378   3.587   2.632  0.2249  0.5377  0.5625
  155OSM    H7S17282   2.372   3.698   2.627  0.2954  0.5010 -0.3477
  155OSM    H7T17283   2.487   3.566   2.634  0.1249 -0.3952 -1.4120
  155OSM    C8S17284   2.319   3.524   2.762 -1.0291 -0.0257 -0.0123
  155OSM    H8S17285   2.324   3.413   2.766  1.4929  0.0726  1.2718
  155OSM    H8T17286   2.212   3.551   2.765 -1.1139 -0.2833 -0.6031
  155OSM    C9S17287   2.405   3.580   2.878 -0.4739 -0.3053 -0.5559
  155OSM    H9S17288   2.388   3.690   2.884  1.2112 -0.0209 -0.6453
  155OSM    H9T17289   2.512   3.561   2.859  0.2008  0.6824  1.8664
  155OSM   C10S17290   2.380   3.511   3.008 -0.9504  0.0828 -0.0464
  155OSM   H10S17291   2.357   3.403   2.994 -1.8551  0.1933  0.5273
  155OSM   H10T17292   2.284   3.560   3.035 -0.0168  3.8550 -2.7338
  155OSM   C11S17293   2.485   3.538   3.112  0.6413  0.1318  0.3198
  155OSM   H11S17294   2.506   3.644   3.134  1.7130 -0.3119  1.5827
  155OSM   H11T17295   2.592   3.508   3.098  1.1142  1.6133  0.6381
  155OSM   C12S17296   2.456   3.450   3.232 -0.7613 -0.3936 -0.1063
  155OSM   H12S17297   2.433   3.346   3.200 -0.6616 -0.2224 -0.7439
  155OSM   H12T17298   2.360   3.483   3.278 -0.3301  2.2887 -0.9998
  155OSM   C13S17299   2.559   3.452   3.353  0.0730 -0.3846  0.0846
  155OSM   H13S17300   2.563   3.559   3.383 -0.1410  0.7380 -3.4681
  155OSM   H13T17301   2.661   3.418   3.325  1.1655  1.3022  1.7245
  155OSM   C14S17302   2.513   3.373   3.471 -0.5380  0.5939 -0.2048
  155OSM   H14S17303   2.530   3.265   3.452  1.7174  0.8249  0.1417
  155OSM   H14T17304   2.411   3.407   3.498 -0.5368  0.9154 -0.6017
  155OSM   C15S17305   2.597   3.394   3.594 -0.3655 -0.2380  0.0933
  155OSM   H15S17306   2.612   3.504   3.596 -0.4366 -0.2312  0.4206
  155OSM   H15T17307   2.695   3.342   3.588 -0.1346  0.2987 -1.0391
  155OSM   C16S17308   2.528   3.349   3.725 -0.7446 -0.2392 -1.2349
  155OSM   H16S17309   2.456   3.267   3.704  0.0001 -1.1865 -0.2140
  155OSM   H16T17310   2.495   3.443   3.772  2.6690  0.4859  0.0015
  155OSM   C17S17311   2.638   3.291   3.829  0.6196  0.3565  0.3489
  155OSM   H17S17312   2.593   3.263   3.926  1.1850 -0.7224  0.3112
  155OSM   H17T17313   2.714   3.370   3.844  0.4010  1.2810 -2.7065
  155OSM   C18S17314   2.708   3.157   3.784  0.2815 -0.4755 -0.7966
  155OSM   H18S17315   2.746   3.152   3.679 -1.6091  0.3644 -1.5468
  155OSM   H18T17316   2.636   3.073   3.795  1.4292 -1.3434  0.5140
  155OSM   H18U17317   2.791   3.128   3.852  0.2625  1.8343  0.2973
  155OSM    C1F17318   2.342   4.089   2.374  0.3122 -0.2237  1.0234
  155OSM     OF17319   2.242   4.147   2.335 -0.0498 -0.3886 -0.6504
  155OSM    C2F17320   2.437   4.140   2.479 -0.1407 -0.2753  0.4826
  155OSM    H2F17321   2.404   4.243   2.505  0.6214  0.7941 -2.4019
  155OSM    H2G17322   2.544   4.136   2.449 -0.2414  2.2201 -0.3779
  155OSM    C3F17323   2.420   4.054   2.606 -0.4973  0.2781 -0.1606
  155OSM    H3F17324   2.433   3.947   2.577  1.4793 -0.2936  2.3756
  155OSM    H3G17325   2.316   4.072   2.641 -0.3930  2.3455 -0.7922
  155OSM    C4F17326   2.527   4.074   2.718  0.1981 -0.1897  0.0162
  155OSM    H4F17327   2.513   4.179   2.749 -0.9092 -0.5806  0.8867
  155OSM    H4G17328   2.627   4.060   2.671  0.6382 -0.7122  1.0637
  155OSM    C5F17329   2.516   3.973   2.828  0.3598  0.1518  0.2674
  155OSM    H5F17330   2.541   3.874   2.786  0.9041  0.4854 -0.2253
  155OSM    H5G17331   2.413   3.963   2.868 -0.8057 -0.6321 -2.6844
  155OSM    C6F17332   2.602   4.019   2.941 -0.2013 -0.0201  0.1512
  155OSM    H6F17333   2.542   4.095   2.994  0.0996  1.1656 -1.1633
  155OSM    H6G17334   2.702   4.061   2.916 -0.8100  0.1312 -2.2949
  155OSM    C7F17335   2.617   3.909   3.044  0.4035 -0.1047  0.2971
  155OSM    H7F17336   2.657   3.819   2.993 -0.1225 -1.2303  1.7944
  155OSM    H7G17337   2.522   3.867   3.085  0.1900  0.7143  0.6715
  155OSM    C8F17338   2.720   3.933   3.154 -0.0781  0.2938 -0.9832
  155OSM    H8F17339   2.808   3.982   3.106 -1.3534  3.8193 -0.0226
  155OSM    H8G17340   2.761   3.841   3.201 -0.7571  2.2470  3.9823
  155OSM    C9F17341   2.674   4.028   3.256 -0.6098 -0.1023 -0.4166
  155OSM    H9F17342   2.675   4.134   3.224 -1.1699  0.2644  0.7016
  155OSM   C10F17343   2.618   4.002   3.376  0.3880  0.0431  0.6560
  155OSM   H10F17344   2.582   4.092   3.428  1.5610  0.4384  0.8140
  155OSM   C11F17345   2.592   3.873   3.447  0.2477  0.0764 -0.3507
  155OSM   H11F17346   2.604   3.781   3.385 -0.2501 -0.5661  0.4940
  155OSM   H11G17347   2.485   3.873   3.479  0.6874  0.9242  1.2170
  155OSM   C12F17348   2.671   3.865   3.577 -0.2920  0.5451  0.2456
  155OSM   H12F17349   2.777   3.890   3.553 -0.6466  1.1023 -0.8301
  155OSM   H12G17350   2.664   3.761   3.614  4.9113 -0.3528 -0.4311
  155OSM   C13F17351   2.620   3.947   3.694 -0.6650  0.4152 -0.2725
  155OSM   H13F17352   2.514   3.916   3.703 -0.8605  1.1417  0.0467
  155OSM   H13G17353   2.633   4.052   3.660  3.2651  0.7871  1.7943
  155OSM   C14F17354   2.701   3.927   3.828 -0.1983  0.4003 -0.8708
  155OSM   H14F17355   2.801   3.908   3.783  0.3854  0.5440  0.3255
  155OSM   H14G17356   2.668   3.833   3.877 -0.0209  1.3716  1.1982
  155OSM   C15F17357   2.689   4.052   3.912  0.2636 -0.2207 -0.1944
  155OSM   H15F17358   2.585   4.062   3.949 -0.3953 -1.3850 -1.6238
  155OSM   H15G17359   2.714   4.153   3.873  0.0694 -0.6508 -1.4615
  155OSM   C16F17360   2.773   4.040   4.041 -0.2560 -0.6747  0.1729
  155OSM   H16F17361   2.879   4.024   4.011  0.1273 -0.2588  1.2522
  155OSM   H16G17362   2.748   3.944   4.091  1.5308 -1.4401 -0.3193
  155OSM   C17F17363   2.770   4.163   4.138  0.4325 -0.3740  0.3494
  155OSM   H17F17364   2.829   4.130   4.227 -0.3206 -2.1313  0.2211
  155OSM   H17G17365   2.666   4.179   4.171  0.0415 -1.0177 -0.5257
  155OSM   C18F17366   2.820   4.300   4.088 -0.1297  0.7735  0.7723
  155OSM   H18F17367   2.773   4.331   3.993  1.5284 -2.4168 -1.2653
  155OSM   H18G17368   2.928   4.289   4.065 -0.0225  0.1981  1.5032
  155OSM   H18H17369   2.806   4.377   4.167 -1.2330  0.6431  0.7209
  156OSM      N17370   1.251   2.619   1.718  0.1070  0.4029 -0.6409
  156OSM    C1517371   1.300   2.748   1.665  0.7026 -0.2903  0.0959
  156OSM   H15A17372   1.407   2.737   1.656  0.8234  0.3831  0.6661
  156OSM   H15B17373   1.274   2.831   1.728  2.6880  1.6525 -1.5120
  156OSM   H15C17374   1.260   2.760   1.565  1.3294  0.5005 -0.0668
  156OSM    C1417375   1.101   2.623   1.739  0.0172  1.2444 -0.6882
  156OSM   H14A17376   1.058   2.691   1.667 -0.2077 -0.6611 -2.4112
  156OSM   H14B17377   1.073   2.659   1.837 -2.5825  1.6518 -1.5085
  156OSM   H14C17378   1.052   2.528   1.726 -0.8734  1.1755  2.3364
  156OSM    C1317379   1.270   2.513   1.610  0.5790 -0.0939 -0.1511
  156OSM   H13A17380   1.205   2.521   1.525  0.1466  0.9305  0.2652
  156OSM   H13B17381   1.250   2.418   1.658 -1.8854  0.4598  0.0197
  156OSM   H13C17382   1.373   2.528   1.580 -0.3998  2.9915 -2.3324
  156OSM    C1217383   1.315   2.574   1.852 -0.0359  0.1906 -0.7129
  156OSM   H12A17384   1.279   2.475   1.877  2.4773 -0.5926  0.0193
  156OSM   H12B17385   1.294   2.644   1.931  0.5157  0.6956 -1.0022
  156OSM    C1117386   1.470   2.554   1.848 -0.8106  0.0262 -0.0936
  156OSM   H11A17387   1.501   2.487   1.765  0.0558 -0.9316  0.9690
  156OSM   H11B17388   1.510   2.500   1.936  0.3924  1.0263 -0.0072
  156OSM      P17389   1.526   2.794   1.947  0.1613 -0.5280  0.0221
  156OSM    O1317390   1.528   2.929   1.886  0.6085 -0.3230 -0.3282
  156OSM    O1417391   1.413   2.764   2.039 -1.0899  0.2152 -0.1170
  156OSM    O1117392   1.662   2.763   2.019 -0.1244  0.1953  0.2096
  156OSM    O1217393   1.530   2.684   1.838 -0.3857  0.2229  0.2813
  156OSM    C1S17394   1.686   2.817   2.145  0.2186  0.5278 -0.1510
  156OSM    H1S17395   1.632   2.914   2.154 -3.3737 -1.4232  1.1224
  156OSM    H1T17396   1.794   2.845   2.140  0.3976  0.2755  1.8145
  156OSM     NF17397   1.709   2.796   2.382 -0.4404  1.0180 -0.1652
  156OSM    HNF17398   1.799   2.774   2.418 -0.7493 -0.6803 -0.3315
  156OSM    C2S17399   1.664   2.722   2.266  0.4047  0.5496  0.5324
  156OSM    H2S17400   1.556   2.696   2.269  0.2559  0.4102 -2.4658
  156OSM    C3S17401   1.727   2.582   2.246 -0.7355 -0.6717 -0.8526
  156OSM    H3S17402   1.836   2.592   2.230 -0.5550 -2.1343 -0.7533
  156OSM     O317403   1.675   2.511   2.130 -0.4800 -0.1283 -0.4002
  156OSM    HO317404   1.623   2.571   2.077 -1.0333 -1.9173 -2.0088
  156OSM    C4S17405   1.719   2.486   2.368  0.3877 -1.1428 -0.5939
  156OSM    H4S17406   1.800   2.504   2.440 -1.3905  2.0619  0.8173
  156OSM    C5S17407   1.622   2.397   2.395  1.1507  0.3180  0.1485
  156OSM    H5S17408   1.531   2.400   2.334  1.0703 -1.6661  0.1116
  156OSM    C6S17409   1.615   2.289   2.501 -0.1886  0.3597 -0.0897
  156OSM    H6S17410   1.621   2.190   2.451 -0.4257  0.5023 -0.3965
  156OSM    H6T17411   1.511   2.287   2.540 -0.6050 -3.2821 -1.0377
  156OSM    C7S17412   1.708   2.300   2.623  0.0027  0.5187 -0.2219
  156OSM    H7S17413   1.809   2.310   2.580  0.3348 -1.6222 -0.0665
  156OSM    H7T17414   1.717   2.193   2.654  0.0661  0.8381  0.9183
  156OSM    C8S17415   1.669   2.390   2.740 -0.3232 -0.5792 -0.3815
  156OSM    H8S17416   1.562   2.372   2.765  0.3045  0.4834  3.6970
  156OSM    H8T17417   1.677   2.493   2.698 -0.1209  0.5354  2.2169
  156OSM    C9S17418   1.740   2.360   2.871 -0.1388 -0.2083 -0.6703
  156OSM    H9S17419   1.747   2.250   2.882  1.4278 -0.1779 -1.1500
  156OSM    H9T17420   1.682   2.410   2.952  0.3068  0.8144 -0.9667
  156OSM   C10S17421   1.877   2.407   2.859 -0.1047  0.0583 -0.3593
  156OSM   H10S17422   1.879   2.514   2.827  2.0098 -0.5136 -2.4055
  156OSM   H10T17423   1.931   2.359   2.775 -0.4201  1.3647 -1.3428
  156OSM   C11S17424   1.955   2.390   2.993  0.1018 -0.3118 -0.0240
  156OSM   H11S17425   1.954   2.284   3.024  0.2868 -0.2089  0.3446
  156OSM   H11T17426   1.895   2.439   3.072  1.1308 -0.5644  0.9458
  156OSM   C12S17427   2.103   2.431   2.987  0.0634 -0.3529  0.2484
  156OSM   H12S17428   2.113   2.527   2.930  0.2695 -0.4664  0.0923
  156OSM   H12T17429   2.148   2.363   2.911 -1.8978 -1.6980  0.2347
  156OSM   C13S17430   2.197   2.437   3.109  0.4264  0.5592  0.4184
  156OSM   H13S17431   2.297   2.471   3.075  0.1449  0.6041 -0.3849
  156OSM   H13T17432   2.208   2.337   3.155  0.3860 -1.0508 -2.7891
  156OSM   C14S17433   2.143   2.534   3.214 -1.3770 -0.1796 -0.5554
  156OSM   H14S17434   2.033   2.524   3.223 -1.2063 -1.6800  0.2126
  156OSM   H14T17435   2.169   2.640   3.191  0.0633 -0.1905  0.8429
  156OSM   C15S17436   2.203   2.501   3.357  0.6616  0.1511  1.1114
  156OSM   H15S17437   2.139   2.416   3.391 -1.6887  0.2573 -2.4267
  156OSM   H15T17438   2.166   2.588   3.415 -0.5330 -0.2134  0.9261
  156OSM   C16S17439   2.353   2.492   3.353  0.5566  0.6034 -0.3511
  156OSM   H16S17440   2.403   2.584   3.318  0.0982  1.1899  0.5124
  156OSM   H16T17441   2.373   2.404   3.288  0.7080  0.3368  0.0516
  156OSM   C17S17442   2.410   2.449   3.487 -0.6751  0.5203 -0.2490
  156OSM   H17S17443   2.389   2.526   3.565  0.4108  0.1446  0.4350
  156OSM   H17T17444   2.519   2.435   3.473  0.1058  3.7468  1.5371
  156OSM   C18S17445   2.362   2.308   3.546  0.2104  0.1857  0.2413
  156OSM   H18S17446   2.434   2.264   3.618  0.1462 -2.1925 -1.0414
  156OSM   H18T17447   2.346   2.233   3.466 -0.2220  1.7292 -1.1655
  156OSM   H18U17448   2.270   2.323   3.606  0.7663  0.4948  1.0415
  156OSM    C1F17449   1.641   2.896   2.433 -0.1696 -0.4656 -1.3424
  156OSM     OF17450   1.526   2.915   2.394  0.7206  0.0404  0.1356
  156OSM    C2F17451   1.707   2.982   2.538  0.3544 -0.0942 -0.0661
  156OSM    H2F17452   1.697   3.082   2.491 -0.9150  0.0255  0.4112
  156OSM    H2G17453   1.817   2.972   2.539  0.3273 -3.2792 -3.6648
  156OSM    C3F17454   1.645   3.001   2.678  0.2881  0.7074 -0.4058
  156OSM    H3F17455   1.547   3.053   2.678 -0.5890 -0.7317  2.6071
  156OSM    H3G17456   1.717   3.063   2.735  1.0209  0.6125 -1.2121
  156OSM    C4F17457   1.633   2.862   2.743 -0.1366  0.4429 -0.2375
  156OSM    H4F17458   1.725   2.801   2.733  0.6689  1.5423  0.2991
  156OSM    H4G17459   1.545   2.806   2.704 -0.4739  1.9444 -1.7864
  156OSM    C5F17460   1.604   2.877   2.892 -0.7353  0.4108  1.1848
  156OSM    H5F17461   1.517   2.945   2.906 -1.1669  0.5464 -1.5824
  156OSM    H5G17462   1.689   2.929   2.940 -1.3089  1.1100  1.4505
  156OSM    C6F17463   1.591   2.742   2.958 -0.4229 -0.4851  0.5815
  156OSM    H6F17464   1.694   2.701   2.949  1.5169  3.3897  2.6205
  156OSM    H6G17465   1.520   2.683   2.895 -1.0944 -1.1770  1.9429
  156OSM    C7F17466   1.553   2.761   3.105  0.3672 -0.4096 -0.2624
  156OSM    H7F17467   1.483   2.678   3.128 -1.4060  0.6009 -1.7400
  156OSM    H7G17468   1.491   2.854   3.108  0.0040 -0.6495 -0.1717
  156OSM    C8F17469   1.680   2.774   3.193  0.5787 -0.1326  0.1922
  156OSM    H8F17470   1.649   2.842   3.276 -2.5553  2.0714 -2.5226
  156OSM    H8G17471   1.752   2.835   3.135  3.1265 -3.2772 -0.2470
  156OSM    C9F17472   1.720   2.636   3.232  0.4672 -0.2492 -0.0938
  156OSM    H9F17473   1.750   2.559   3.158  1.0290 -0.8384  0.7222
  156OSM   C10F17474   1.727   2.588   3.358 -0.2577 -0.0671  0.4554
  156OSM   H10F17475   1.750   2.481   3.371 -1.0967 -0.3190 -0.0306
  156OSM   C11F17476   1.708   2.660   3.488  0.1231  0.4415 -0.1411
  156OSM   H11F17477   1.624   2.608   3.539  0.8584 -1.7350 -1.0337
  156OSM   H11G17478   1.681   2.766   3.471 -0.6101  0.1865 -0.6850
  156OSM   C12F17479   1.843   2.654   3.562 -0.4565  0.0128 -0.0003
  156OSM   H12F17480   1.855   2.732   3.640 -1.3089  0.8512 -0.6844
  156OSM   H12G17481   1.934   2.639   3.500  1.3897 -1.9350  2.8996
  156OSM   C13F17482   1.868   2.521   3.646 -0.1717  0.4117  0.3252
  156OSM   H13F17483   1.892   2.442   3.572 -2.7447 -0.3695  0.2251
  156OSM   H13G17484   1.776   2.498   3.703 -0.5356  2.1446  0.4933
  156OSM   C14F17485   1.983   2.548   3.747  0.4041  0.2047 -0.2929
  156OSM   H14F17486   1.955   2.627   3.820 -2.4395 -0.5544 -0.4783
  156OSM   H14G17487   2.070   2.580   3.685  0.2439 -0.6611 -0.9819
  156OSM   C15F17488   2.009   2.422   3.827  0.2790 -0.4929  0.2270
  156OSM   H15F17489   2.005   2.335   3.758 -1.5469 -0.6063  0.4108
  156OSM   H15G17490   1.926   2.401   3.898  2.5489 -0.5351  3.0840
  156OSM   C16F17491   2.134   2.437   3.906  0.3430 -0.2796 -0.0808
  156OSM   H16F17492   2.131   2.534   3.961  0.8521 -0.9657  1.1942
  156OSM   H16G17493   2.234   2.441   3.859  0.0892  2.9410 -0.5463
  156OSM   C17F17494   2.150   2.311   3.989  0.4187 -0.3812 -0.6001
  156OSM   H17F17495   2.203   2.233   3.929  0.5292  0.7655 -2.0575
  156OSM   H17G17496   2.049   2.271   4.014  1.1429 -2.5991 -1.0452
  156OSM   C18F17497   2.228   2.329   4.123  0.5178  0.1565 -0.2984
  156OSM   H18F17498   2.330   2.369   4.105 -0.5782  3.5627  0.2219
  156OSM   H18G17499   2.240   2.231   4.175 -2.0081  0.5567  1.2470
  156OSM   H18H17500   2.172   2.395   4.194 -1.7004 -2.0284  0.1245
  157OSM      N17501   2.341   0.472   1.899  0.1911  0.6453  0.3853
  157OSM    C1517502   2.213   0.414   1.858 -0.0429 -0.5010 -0.4459
  157OSM   H15A17503   2.149   0.417   1.946  0.7800 -0.7926  0.1722
  157OSM   H15B17504   2.222   0.311   1.827  1.6293 -0.7514  0.7401
  157OSM   H15C17505   2.179   0.470   1.772 -1.7337 -1.0189 -0.1660
  157OSM    C1417506   2.434   0.477   1.784 -0.0896 -0.4290 -0.1003
  157OSM   H14A17507   2.395   0.543   1.708  2.8302  0.5912 -0.8572
  157OSM   H14B17508   2.447   0.378   1.745  0.8480  0.0922 -1.1769
  157OSM   H14C17509   2.532   0.511   1.814 -0.7554  1.7375 -0.1656
  157OSM    C1317510   2.318   0.610   1.945  0.6021  0.0070 -0.2183
  157OSM   H13A17511   2.412   0.663   1.939  0.0993  0.7678 -2.4918
  157OSM   H13B17512   2.270   0.620   2.041 -0.1259 -0.5037 -0.5192
  157OSM   H13C17513   2.252   0.658   1.875 -0.1217  2.8817  2.2588
  157OSM    C1217514   2.394   0.376   2.008 -0.1045  0.0319  0.0074
  157OSM   H12A17515   2.391   0.271   1.982 -0.6501  0.1155 -0.2863
  157OSM   H12B17516   2.331   0.395   2.093  1.1752  0.3761  0.9070
  157OSM    C1117517   2.539   0.389   2.048 -1.0547 -0.7375 -0.5685
  157OSM   H11A17518   2.554   0.330   2.141  0.5609  1.1393  0.4391
  157OSM   H11B17519   2.555   0.492   2.087 -1.2931 -1.0477  0.3911
  157OSM      P17520   2.676   0.218   1.918  0.2009 -0.3829  0.0542
  157OSM    O1317521   2.546   0.140   1.923 -0.7637  0.0938 -0.3852
  157OSM    O1417522   2.757   0.219   1.795  0.9731 -0.0667 -0.1195
  157OSM    O1117523   2.770   0.174   2.040 -0.1695 -0.1930  0.2380
  157OSM    O1217524   2.643   0.364   1.953  0.1621  0.1337  0.4805
  157OSM    C1S17525   2.848   0.257   2.119  0.0462 -0.1658 -0.2441
  157OSM    H1S17526   2.797   0.355   2.130  0.3011 -0.0903  0.2839
  157OSM    H1T17527   2.951   0.266   2.080  0.0781 -0.3022 -0.1943
  157OSM     NF17528   2.908   0.275   2.369 -0.2643  0.1152  0.3856
  157OSM    HNF17529   3.001   0.259   2.400  0.7817  2.7662 -1.0858
  157OSM    C2S17530   2.862   0.185   2.261 -0.2872  0.0082  0.0122
  157OSM    H2S17531   2.759   0.151   2.281 -1.1221  1.3457 -1.8029
  157OSM    C3S17532   2.941   0.053   2.241  0.4104 -0.2329 -0.8330
  157OSM    H3S17533   3.040   0.077   2.199  0.5878  0.6857  0.0756
  157OSM     O317534   2.878  -0.034   2.145  0.3239  0.1645  0.2893
  157OSM    HO317535   2.860   0.027   2.073  2.4717 -0.6591 -1.0012
  157OSM    C4S17536   2.955  -0.014   2.378  0.0905  0.3502  0.5577
  157OSM    H4S17537   3.057  -0.022   2.416  0.1840 -1.3770  0.0167
  157OSM    C5S17538   2.854  -0.073   2.440  0.0322  0.0422 -0.7577
  157OSM    H5S17539   2.756  -0.065   2.390  0.0728 -0.6320 -0.9544
  157OSM    C6S17540   2.849  -0.139   2.577 -0.0119 -0.2143 -0.8837
  157OSM    H6S17541   2.821  -0.246   2.567 -0.7977 -0.1417  0.3006
  157OSM    H6T17542   2.766  -0.098   2.638  0.5725 -3.5346  2.4619
  157OSM    C7S17543   2.964  -0.121   2.675 -0.1275 -0.0545 -0.1977
  157OSM    H7S17544   2.963  -0.013   2.700 -0.5746 -0.1628  0.2859
  157OSM    H7T17545   3.064  -0.158   2.643 -0.8246 -3.2433  0.9037
  157OSM    C8S17546   2.925  -0.195   2.809 -0.0634  0.3055  0.5137
  157OSM    H8S17547   2.935  -0.303   2.786  2.3786  0.4612  0.5606
  157OSM    H8T17548   2.818  -0.175   2.831  0.1418 -0.4995  2.4065
  157OSM    C9S17549   3.020  -0.147   2.922 -0.0958 -0.1915 -0.1102
  157OSM    H9S17550   3.019  -0.036   2.925  0.1148 -0.1930  0.0381
  157OSM    H9T17551   3.123  -0.177   2.895  0.6485  0.0660  2.2053
  157OSM   C10S17552   3.001  -0.212   3.066  0.0841 -0.4622  0.0389
  157OSM   H10S17553   3.035  -0.318   3.069  0.4846 -0.3848 -1.2301
  157OSM   H10T17554   2.895  -0.213   3.099 -0.2644 -1.7701 -1.0331
  157OSM   C11S17555   3.082  -0.133   3.168 -0.5621  0.9437  0.3041
  157OSM   H11S17556   3.061  -0.028   3.136 -0.3755  0.8546 -0.1190
  157OSM   H11T17557   3.186  -0.160   3.140 -0.7007  1.0289 -0.3072
  157OSM   C12S17558   3.051  -0.147   3.311  0.3091 -0.1998 -0.2441
  157OSM   H12S17559   2.950  -0.102   3.321  0.2932  0.5125 -2.9728
  157OSM   H12T17560   3.119  -0.077   3.365 -1.3761  0.8908  0.5398
  157OSM   C13S17561   3.065  -0.290   3.365 -0.6918  0.1656  0.3849
  157OSM   H13S17562   3.167  -0.329   3.346 -1.1282 -1.4352  1.1537
  157OSM   H13T17563   3.004  -0.371   3.320  1.1188 -1.1706  0.2228
  157OSM   C14S17564   3.040  -0.276   3.517 -0.0121  0.1398  0.0467
  157OSM   H14S17565   2.952  -0.209   3.519 -0.3866 -0.1293 -3.1977
  157OSM   H14T17566   3.133  -0.225   3.551 -0.7168  1.4967 -0.0136
  157OSM   C15S17567   3.019  -0.409   3.581  0.0226 -0.3153 -0.1418
  157OSM   H15S17568   3.074  -0.491   3.531  0.9391  0.9519 -1.2784
  157OSM   H15T17569   2.911  -0.429   3.560  0.2198 -1.8192  0.1642
  157OSM   C16S17570   3.037  -0.405   3.730  0.8370  0.4757 -0.4564
  157OSM   H16S17571   2.965  -0.333   3.774  1.2116  0.4017  0.2836
  157OSM   H16T17572   3.141  -0.368   3.746  1.1169  0.4591 -2.0386
  157OSM   C17S17573   3.012  -0.537   3.806 -0.1742  0.7153 -0.5732
  157OSM   H17S17574   3.084  -0.615   3.776 -1.6368  0.0509 -2.5706
  157OSM   H17T17575   2.917  -0.590   3.784 -0.2503  0.4236  0.4081
  157OSM   C18S17576   3.014  -0.512   3.954  0.6765 -0.3511 -0.0199
  157OSM   H18S17577   2.931  -0.448   3.992  0.3967  0.2768 -1.6230
  157OSM   H18T17578   3.111  -0.477   3.996  0.5150 -1.4840  1.3817
  157OSM   H18U17579   3.007  -0.614   3.998 -1.1325 -0.9613 -1.5847
  157OSM    C1F17580   2.849   0.388   2.406  0.1823  0.1502 -0.9189
  157OSM     OF17581   2.730   0.410   2.377 -0.7637  0.5199 -0.1362
  157OSM    C2F17582   2.932   0.496   2.469  0.4373 -0.3565 -0.2583
  157OSM    H2F17583   2.983   0.549   2.387  0.3887 -0.4629 -0.3581
  157OSM    H2G17584   3.010   0.439   2.525  0.2110  1.0362  1.5877
  157OSM    C3F17585   2.842   0.593   2.553  0.5318 -0.3160 -0.4774
  157OSM    H3F17586   2.763   0.637   2.488  1.5678  0.7109 -1.0898
  157OSM    H3G17587   2.904   0.672   2.601 -2.6275  1.7111  0.6066
  157OSM    C4F17588   2.761   0.536   2.669  0.1978  1.2045 -0.2589
  157OSM    H4F17589   2.798   0.435   2.697 -2.4966  0.4964  1.0741
  157OSM    H4G17590   2.663   0.507   2.626  1.6417 -4.1740 -0.6877
  157OSM    C5F17591   2.754   0.622   2.799 -0.0491  0.1488 -0.1948
  157OSM    H5F17592   2.687   0.706   2.771  1.5673  0.8848 -2.0766
  157OSM    H5G17593   2.848   0.675   2.824  0.3136 -1.0565  1.1627
  157OSM    C6F17594   2.695   0.550   2.924 -0.6475  0.2933  0.2456
  157OSM    H6F17595   2.763   0.464   2.944 -0.7354  0.1145 -0.2219
  157OSM    H6G17596   2.595   0.511   2.897 -0.0785 -1.6628  0.8538
  157OSM    C7F17597   2.695   0.629   3.060  0.4661 -0.8855  0.4377
  157OSM    H7F17598   2.616   0.588   3.127 -0.4494  0.0091 -0.0763
  157OSM    H7G17599   2.666   0.733   3.035  0.4688 -1.0182 -0.1234
  157OSM    C8F17600   2.822   0.625   3.142 -0.1723 -0.2764  0.3410
  157OSM    H8F17601   2.905   0.617   3.070  1.6223  0.1276  2.2672
  157OSM    H8G17602   2.818   0.525   3.189  1.4101 -1.8671 -2.6329
  157OSM    C9F17603   2.849   0.739   3.240 -0.4913  0.5747  0.8405
  157OSM    H9F17604   2.886   0.832   3.194 -5.1495  3.2946  1.9357
  157OSM   C10F17605   2.817   0.752   3.372  0.2405 -0.4330  0.0695
  157OSM   H10F17606   2.846   0.846   3.420 -0.1344  0.2249 -0.9626
  157OSM   C11F17607   2.763   0.649   3.463 -0.1613 -0.1342 -0.3216
  157OSM   H11F17608   2.837   0.658   3.546 -0.7580 -1.8517  0.4556
  157OSM   H11G17609   2.767   0.546   3.422  2.3471 -0.3348  0.2116
  157OSM   C12F17610   2.620   0.687   3.518 -0.3968 -0.3149  0.4516
  157OSM   H12F17611   2.542   0.684   3.439 -0.0045  1.0132 -0.0176
  157OSM   H12G17612   2.616   0.795   3.547 -0.4663  0.1981 -1.3635
  157OSM   C13F17613   2.577   0.594   3.626 -0.3450 -0.0833  0.4101
  157OSM   H13F17614   2.584   0.489   3.592  1.6496 -0.1204  0.8229
  157OSM   H13G17615   2.471   0.609   3.658 -0.5121 -2.0970  0.8976
  157OSM   C14F17616   2.659   0.601   3.753  1.0304  0.7317 -0.0152
  157OSM   H14F17617   2.747   0.534   3.745  0.0424 -0.8421  1.4183
  157OSM   H14G17618   2.594   0.556   3.831 -0.6262  1.2353 -1.0290
  157OSM   C15F17619   2.698   0.742   3.805  0.0890  0.1417 -0.1530
  157OSM   H15F17620   2.614   0.815   3.816 -0.3745 -0.0952 -1.9045
  157OSM   H15G17621   2.775   0.783   3.736  0.2624  0.3875  0.1834
  157OSM   C16F17622   2.762   0.744   3.948 -0.1657  0.4881 -0.1673
  157OSM   H16F17623   2.843   0.669   3.950 -2.2355 -1.9097 -0.3530
  157OSM   H16G17624   2.697   0.705   4.030  2.3676 -2.5078  0.5909
  157OSM   C17F17625   2.813   0.884   3.986  0.6349 -0.5443  0.5392
  157OSM   H17F17626   2.896   0.905   3.915  0.1258 -1.6256 -0.4178
  157OSM   H17G17627   2.859   0.878   4.087 -0.3889 -2.3058  0.9281
  157OSM   C18F17628   2.717   0.999   3.971  0.5169  0.4171 -0.5684
  157OSM   H18F17629   2.682   1.014   3.867  0.5892  1.6950 -0.4252
  157OSM   H18G17630   2.752   1.096   4.014  1.8074 -0.1882 -0.2071
  157OSM   H18H17631   2.621   0.974   4.020 -0.1336 -0.0864 -2.0426
  158OSM      N17632   6.054   4.921   1.958 -0.4512  0.3549  0.0246
  158OSM    C1517633   6.192   4.968   1.999 -0.0366 -0.6296  0.7042
  158OSM   H15A17634   6.216   5.068   1.965 -0.7828 -0.9668 -0.9368
  158OSM   H15B17635   6.271   4.899   1.972  0.3379 -0.0649  0.3413
  158OSM   H15C17636   6.198   4.966   2.106 -1.1603 -0.2478  0.7826
  158OSM    C1417637   5.959   4.994   2.037 -0.4196  0.1218  0.0047
  158OSM   H14A17638   5.859   4.954   2.027 -0.3299 -0.0908 -0.0602
  158OSM   H14B17639   5.945   5.092   1.995  0.1627 -0.1029 -0.7473
  158OSM   H14C17640   5.994   4.998   2.139 -1.1475  0.8194  0.2292
  158OSM    C1317641   6.038   4.937   1.809  0.3511  0.0921  0.0222
  158OSM   H13A17642   6.117   4.890   1.753  0.8923  0.7255  0.2475
  158OSM   H13B17643   6.045   5.038   1.772 -1.0127  0.0946 -0.2955
  158OSM   H13C17644   5.950   4.884   1.773  0.1866  0.5025 -0.1891
  158OSM    C1217645   6.039   4.771   1.994  0.6907 -0.0432  0.3940
  158OSM   H12A17646   6.085   4.708   1.920  0.6100  1.1538 -0.6992
  158OSM   H12B17647   5.934   4.748   1.979  0.2865  0.5934  2.0221
  158OSM    C1117648   6.097   4.730   2.134  0.3813  0.1404 -0.3223
  158OSM   H11A17649   6.053   4.632   2.160  0.1589  0.4660  0.5870
  158OSM   H11B17650   6.058   4.794   2.217 -1.1053 -0.6014 -0.4240
  158OSM      P17651   6.313   4.610   2.074 -0.5567  0.0425 -0.0198
  158OSM    O1317652   6.241   4.566   1.949 -0.2227 -0.5609 -0.1221
  158OSM    O1417653   6.457   4.633   2.044 -0.0554 -0.7707  0.2326
  158OSM    O1117654   6.288   4.497   2.175 -0.0555  0.1699  0.0566
  158OSM    O1217655   6.245   4.735   2.131  0.2697 -0.5977 -1.0077
  158OSM    C1S17656   6.388   4.467   2.274  0.3240  0.6994 -0.6046
  158OSM    H1S17657   6.486   4.518   2.256  0.4786  1.6468  2.4405
  158OSM    H1T17658   6.404   4.358   2.284 -0.4006  0.7240  1.1944
  158OSM     NF17659   6.469   4.523   2.510  0.1565 -0.1473 -0.1346
  158OSM    HNF17660   6.486   4.456   2.582  2.4589  1.6486  1.1553
  158OSM    C2S17661   6.349   4.509   2.424  0.0424  0.0199  0.3530
  158OSM    H2S17662   6.311   4.611   2.404  0.1168 -0.0312 -0.0668
  158OSM    C3S17663   6.247   4.417   2.475 -0.1861 -0.0253 -0.4596
  158OSM    H3S17664   6.284   4.313   2.465  2.2634  0.9597 -2.4437
  158OSM     O317665   6.120   4.417   2.405  0.1261  0.5810 -0.2514
  158OSM    HO317666   6.141   4.450   2.317 -2.0369  0.9175 -0.7010
  158OSM    C4S17667   6.205   4.432   2.620 -0.1911 -0.2986  0.3086
  158OSM    H4S17668   6.244   4.347   2.678 -0.7172 -0.5683  0.2758
  158OSM    C5S17669   6.129   4.533   2.675  0.5258 -0.5982 -0.3149
  158OSM    H5S17670   6.096   4.616   2.611  1.7211 -1.5903 -2.3319
  158OSM    C6S17671   6.098   4.536   2.821  0.2638  0.4221 -0.3640
  158OSM    H6S17672   5.994   4.508   2.847  1.1071 -0.6109  2.2616
  158OSM    H6T17673   6.102   4.643   2.850  0.0193  0.0353  1.1851
  158OSM    C7S17674   6.187   4.466   2.926  0.0646 -0.2889 -0.1617
  158OSM    H7S17675   6.287   4.513   2.916 -0.7010  1.4816  0.2365
  158OSM    H7T17676   6.187   4.354   2.930  0.1223 -0.2664  0.6911
  158OSM    C8S17677   6.136   4.497   3.069  0.5482  0.3661 -0.2442
  158OSM    H8S17678   6.034   4.456   3.086  1.1780 -0.9976  0.5314
  158OSM    H8T17679   6.138   4.604   3.097  1.5496 -0.2335  2.3371
  158OSM    C9S17680   6.232   4.441   3.174  0.3905  0.0153 -0.0436
  158OSM    H9S17681   6.322   4.506   3.179  0.1367  0.3981 -0.3547
  158OSM    H9T17682   6.268   4.337   3.162 -0.2253 -0.1231 -0.7387
  158OSM   C10S17683   6.155   4.450   3.313 -0.0744 -0.5927 -0.8678
  158OSM   H10S17684   6.074   4.377   3.332 -1.1735  0.5383 -1.1299
  158OSM   H10T17685   6.115   4.553   3.324 -2.8337 -1.6170 -0.4522
  158OSM   C11S17686   6.262   4.442   3.429 -0.1022 -0.4077 -0.0633
  158OSM   H11S17687   6.357   4.478   3.386  0.1173 -2.0424 -1.0697
  158OSM   H11T17688   6.275   4.333   3.446 -1.6059 -0.4335  1.2169
  158OSM   C12S17689   6.225   4.516   3.555  0.5343  0.0491  0.0350
  158OSM   H12S17690   6.135   4.468   3.597  0.6461 -0.3233 -0.1426
  158OSM   H12T17691   6.205   4.620   3.520  2.2848  0.4558  0.1425
  158OSM   C13S17692   6.341   4.528   3.653 -0.3523  0.2535 -0.2225
  158OSM   H13S17693   6.310   4.599   3.732 -2.3366  0.1046 -0.8215
  158OSM   H13T17694   6.436   4.557   3.602 -0.1688 -1.9205 -1.2493
  158OSM   C14S17695   6.361   4.404   3.742  0.1583  0.2309 -0.1567
  158OSM   H14S17696   6.456   4.418   3.798 -0.5497 -0.3370  1.2259
  158OSM   H14T17697   6.360   4.308   3.685 -1.9170 -0.2706  0.6269
  158OSM   C15S17698   6.257   4.382   3.854  0.0029 -0.4349 -0.2197
  158OSM   H15S17699   6.266   4.274   3.876 -2.8407 -0.7939 -0.4256
  158OSM   H15T17700   6.154   4.393   3.814  1.0826  2.3961 -2.5316
  158OSM   C16S17701   6.290   4.459   3.987 -0.1051  0.2038  0.2034
  158OSM   H16S17702   6.244   4.557   3.963  0.8943  0.4744 -0.6894
  158OSM   H16T17703   6.399   4.461   4.010 -0.5316 -1.2819  2.7797
  158OSM   C17S17704   6.222   4.413   4.117 -0.2564  0.7074 -0.1031
  158OSM   H17S17705   6.245   4.486   4.197 -0.9549  1.3938 -0.5231
  158OSM   H17T17706   6.261   4.315   4.153 -1.6224  0.8117  1.8273
  158OSM   C18S17707   6.074   4.397   4.103 -0.6531  0.4464 -0.2250
  158OSM   H18S17708   6.023   4.487   4.062  0.2400  0.0702 -2.2644
  158OSM   H18T17709   6.037   4.358   4.200 -1.9806  1.3530 -0.3359
  158OSM   H18U17710   6.062   4.316   4.027 -3.0112 -0.7024  1.2451
  158OSM    C1F17711   6.558   4.621   2.504  0.2974  0.4000 -0.8545
  158OSM     OF17712   6.554   4.690   2.409 -0.2212 -0.6012 -0.3853
  158OSM    C2F17713   6.651   4.636   2.618 -0.0664  0.2487 -0.1234
  158OSM    H2F17714   6.602   4.586   2.704  1.0676 -1.1801 -0.2815
  158OSM    H2G17715   6.675   4.742   2.641  0.6601  0.2302 -0.7689
  158OSM    C3F17716   6.796   4.571   2.606  0.1220  0.3447  0.1736
  158OSM    H3F17717   6.842   4.601   2.509 -1.2486 -3.0444 -1.7305
  158OSM    H3G17718   6.772   4.463   2.593 -0.2235  0.4101  0.2700
  158OSM    C4F17719   6.886   4.585   2.727  0.8410 -0.2226 -0.0952
  158OSM    H4F17720   6.965   4.506   2.727  1.6773  0.5943 -0.0758
  158OSM    H4G17721   6.838   4.582   2.826 -1.1921 -2.1626 -1.0500
  158OSM    C5F17722   6.969   4.714   2.716  0.2509  0.1162 -0.7941
  158OSM    H5F17723   6.901   4.797   2.746 -3.4529 -2.3317 -1.7669
  158OSM    H5G17724   7.004   4.719   2.610  1.8865 -1.2056 -0.3665
  158OSM    C6F17725   7.096   4.703   2.795  0.6118 -0.1566 -0.6647
  158OSM    H6F17726   7.161   4.790   2.774  2.0535 -1.3280 -1.1736
  158OSM    H6G17727   7.151   4.618   2.751 -0.3364 -0.6804 -0.8638
  158OSM    C7F17728   7.087   4.671   2.947 -0.2544  0.1874 -0.8913
  158OSM    H7F17729   7.194   4.678   2.977  0.1003 -1.6657 -1.5501
  158OSM    H7G17730   7.039   4.573   2.967 -0.0372  0.5469  1.7380
  158OSM    C8F17731   7.009   4.772   3.025  0.8163  0.2884  0.2175
  158OSM    H8F17732   6.909   4.781   2.979  0.9711  1.8838  0.1453
  158OSM    H8G17733   7.060   4.869   3.007  1.9146 -0.5348 -1.4642
  158OSM    C9F17734   6.997   4.738   3.172 -0.2561  1.1338 -0.0688
  158OSM    H9F17735   7.095   4.720   3.217 -0.6409 -4.1044 -0.7132
  158OSM   C10F17736   6.895   4.760   3.253  1.1442 -0.9751 -0.1386
  158OSM   H10F17737   6.907   4.716   3.353 -0.9743 -0.4412  0.3992
  158OSM   C11F17738   6.754   4.795   3.203 -0.0852 -0.3919  0.0920
  158OSM   H11F17739   6.709   4.698   3.171 -1.0792  0.3035 -0.6703
  158OSM   H11G17740   6.754   4.870   3.121 -1.0637 -1.4261 -0.8921
  158OSM   C12F17741   6.651   4.839   3.317  0.5676  0.0823 -0.3467
  158OSM   H12F17742   6.680   4.923   3.384 -1.0362 -0.1981  0.7734
  158OSM   H12G17743   6.632   4.754   3.386 -1.3930 -0.9521 -2.0324
  158OSM   C13F17744   6.523   4.881   3.252  0.7288 -0.5579  1.1858
  158OSM   H13F17745   6.556   4.937   3.161 -0.1388 -2.8714 -0.6696
  158OSM   H13G17746   6.450   4.948   3.302 -0.4486  1.3723 -2.6424
  158OSM   C14F17747   6.427   4.767   3.204  0.1004 -0.0003  0.0109
  158OSM   H14F17748   6.356   4.740   3.286 -0.7262 -1.0811 -1.0244
  158OSM   H14G17749   6.498   4.684   3.184  0.1384 -0.0811  0.4616
  158OSM   C15F17750   6.349   4.790   3.071  0.1186  0.2299 -0.1115
  158OSM   H15F17751   6.243   4.820   3.089 -0.4253 -1.8212  0.3584
  158OSM   H15G17752   6.319   4.694   3.024  0.0015 -1.2251  2.7111
  158OSM   C16F17753   6.414   4.872   2.964  0.9152  0.0375  0.4904
  158OSM   H16F17754   6.513   4.836   2.930  1.8298 -0.2069  3.1613
  158OSM   H16G17755   6.420   4.981   2.987 -0.6908  0.0504  1.0432
  158OSM   C17F17756   6.331   4.865   2.834  0.0021 -0.3672  0.2527
  158OSM   H17F17757   6.233   4.915   2.848  0.9566  1.7257 -0.1530
  158OSM   H17G17758   6.309   4.761   2.800  2.1974 -0.7359 -0.1458
  158OSM   C18F17759   6.401   4.922   2.704  0.1640  0.0807  0.0148
  158OSM   H18F17760   6.485   4.854   2.682 -0.0737 -0.2609  0.1457
  158OSM   H18G17761   6.448   5.019   2.729 -0.0008 -0.7035  4.0992
  158OSM   H18H17762   6.336   4.943   2.616  1.1964  3.9604  0.0174
  159OSM      N17763   2.632   6.527   1.242 -0.1554 -0.3716  0.6537
  159OSM    C1517764   2.517   6.614   1.279  0.2809  0.1137  0.3993
  159OSM   H15A17765   2.425   6.576   1.237  0.3774  0.5491 -0.2202
  159OSM   H15B17766   2.538   6.712   1.237  1.6696  0.0151  0.8120
  159OSM   H15C17767   2.496   6.620   1.384 -2.6094 -0.9899 -0.0274
  159OSM    C1417768   2.634   6.390   1.307 -0.2276 -0.4131  0.4488
  159OSM   H14A17769   2.535   6.350   1.292 -0.1907 -0.0821 -0.8399
  159OSM   H14B17770   2.651   6.409   1.412 -0.3591  0.6571  0.2900
  159OSM   H14C17771   2.712   6.330   1.264 -0.9999 -0.8409 -0.4064
  159OSM    C1317772   2.617   6.494   1.090 -0.3714  0.3846  0.0388
  159OSM   H13A17773   2.657   6.396   1.069  2.1087  1.2365  0.5357
  159OSM   H13B17774   2.673   6.565   1.032  0.6828 -1.0578 -0.7873
  159OSM   H13C17775   2.515   6.500   1.055  0.4046  1.6898 -2.2642
  159OSM    C1217776   2.774   6.585   1.256 -0.7358  0.4353  0.4473
  159OSM   H12A17777   2.783   6.652   1.172 -0.3844  1.5435  1.3573
  159OSM   H12B17778   2.850   6.513   1.229 -1.2989  0.5397 -1.5817
  159OSM    C1117779   2.805   6.658   1.388 -0.1388 -0.4634  0.3749
  159OSM   H11A17780   2.743   6.750   1.396 -0.7550 -0.9571  1.6278
  159OSM   H11B17781   2.907   6.702   1.375  0.2159 -1.5538 -0.7152
  159OSM      P17782   2.916   6.481   1.557 -0.4839 -0.1902 -0.2622
  159OSM    O1317783   2.852   6.377   1.630 -0.2391  0.4943 -0.6609
  159OSM    O1417784   3.005   6.452   1.445 -0.3842 -0.6864 -0.7439
  159OSM    O1117785   2.986   6.594   1.654  0.4040 -0.1950  0.6539
  159OSM    O1217786   2.800   6.574   1.507 -0.1776  0.2336 -0.3299
  159OSM    C1S17787   2.915   6.671   1.755 -1.1191 -0.0536  0.4487
  159OSM    H1S17788   2.817   6.703   1.712 -0.5809  0.2824 -0.5714
  159OSM    H1T17789   2.974   6.762   1.779 -0.9779 -0.0960  0.2661
  159OSM     NF17790   2.792   6.664   1.980 -1.0583 -0.0339 -0.2031
  159OSM    HNF17791   2.816   6.731   2.050 -1.6463 -0.4250  0.3828
  159OSM    C2S17792   2.898   6.603   1.893  0.3022  0.4657 -0.0055
  159OSM    H2S17793   2.857   6.502   1.872 -1.5393  1.0151  0.7442
  159OSM    C3S17794   3.027   6.595   1.969  0.3533 -0.2468  0.3767
  159OSM    H3S17795   3.062   6.695   2.002 -1.1869  0.5371 -0.2530
  159OSM     O317796   3.133   6.561   1.883  0.5847 -0.3316  0.5865
  159OSM    HO317797   3.094   6.570   1.795 -1.7534 -2.6658  1.2824
  159OSM    C4S17798   3.026   6.511   2.093  0.6501 -0.3472  0.4868
  159OSM    H4S17799   2.979   6.414   2.070 -0.1998  0.5271 -1.7147
  159OSM    C5S17800   3.056   6.539   2.219  0.1577 -0.3464  0.0497
  159OSM    H5S17801   3.089   6.643   2.234 -2.3111  0.3444  1.2881
  159OSM    C6S17802   3.060   6.452   2.341  0.0464 -0.0113  0.0895
  159OSM    H6S17803   3.008   6.499   2.427 -0.7608 -2.0026  0.7426
  159OSM    H6T17804   3.166   6.434   2.371  0.2633  2.2646  0.8615
  159OSM    C7S17805   3.007   6.308   2.318 -0.3980  0.3746  0.2641
  159OSM    H7S17806   3.046   6.260   2.410 -1.4291 -0.1651  0.4343
  159OSM    H7T17807   3.037   6.265   2.220 -2.0937  1.0324 -0.5879
  159OSM    C8S17808   2.855   6.309   2.346 -0.1621  0.0821  0.0780
  159OSM    H8S17809   2.813   6.363   2.259 -0.3702  1.8083  1.1880
  159OSM    H8T17810   2.838   6.365   2.441  0.8746  1.5206 -0.5516
  159OSM    C9S17811   2.792   6.167   2.351  0.3421  0.0720  0.7376
  159OSM    H9S17812   2.823   6.117   2.257 -1.9789  0.1504 -0.1264
  159OSM    H9T17813   2.683   6.179   2.369  0.0058 -1.0913 -0.4072
  159OSM   C10S17814   2.836   6.086   2.473 -0.3408 -0.5280  0.8013
  159OSM   H10S17815   2.946   6.091   2.484 -0.4264  3.5743  1.0068
  159OSM   H10T17816   2.812   5.978   2.459  0.8084 -0.8082  0.9126
  159OSM   C11S17817   2.776   6.139   2.605  0.8372  0.0725  0.3759
  159OSM   H11S17818   2.667   6.117   2.611  0.6552  0.2004 -1.5781
  159OSM   H11T17819   2.786   6.250   2.608  1.1347  0.0311  1.3567
  159OSM   C12S17820   2.847   6.093   2.727 -0.0162 -0.2453  0.3757
  159OSM   H12S17821   2.956   6.071   2.720  0.1664  0.9815 -1.2894
  159OSM   H12T17822   2.804   5.991   2.740 -2.1145  0.2197 -2.1480
  159OSM   C13S17823   2.825   6.186   2.846 -0.3716 -0.3917 -0.2442
  159OSM   H13S17824   2.719   6.218   2.850 -0.5752 -0.4874 -2.8929
  159OSM   H13T17825   2.881   6.281   2.840 -1.2115  0.0848 -0.6594
  159OSM   C14S17826   2.860   6.105   2.977 -0.0698  0.0735 -0.3380
  159OSM   H14S17827   2.970   6.117   2.988  0.1003 -2.3613  1.4358
  159OSM   H14T17828   2.856   5.995   2.968 -0.9214 -0.1511  2.0564
  159OSM   C15S17829   2.812   6.151   3.113 -0.0083 -0.9965 -0.1054
  159OSM   H15S17830   2.708   6.112   3.118  0.2228 -1.6178 -0.1743
  159OSM   H15T17831   2.812   6.262   3.108 -0.3068 -1.0050 -0.3502
  159OSM   C16S17832   2.879   6.097   3.232 -0.6011  0.1191 -0.3157
  159OSM   H16S17833   2.983   6.137   3.242 -0.8677  0.4458  1.5178
  159OSM   H16T17834   2.890   5.986   3.228 -1.7892 -0.2225  2.7175
  159OSM   C17S17835   2.807   6.135   3.359 -0.2063 -0.2068 -0.4252
  159OSM   H17S17836   2.714   6.074   3.359  0.0215 -0.6042  1.2094
  159OSM   H17T17837   2.769   6.240   3.355  2.5704  0.9425  0.8033
  159OSM   C18S17838   2.888   6.117   3.493  0.8361  0.3202  0.2202
  159OSM   H18S17839   2.869   6.015   3.532 -2.3955 -0.3542 -2.6525
  159OSM   H18T17840   2.842   6.192   3.562 -0.9095 -1.1906  0.7765
  159OSM   H18U17841   2.995   6.141   3.478  0.2769  1.5188 -2.3955
  159OSM    C1F17842   2.663   6.671   1.944  0.1278  0.0721 -0.1324
  159OSM     OF17843   2.614   6.618   1.848 -0.1203  0.2179  0.1032
  159OSM    C2F17844   2.569   6.767   2.018  0.3344 -0.8422 -0.0847
  159OSM    H2F17845   2.473   6.780   1.963 -0.6986  1.5435  2.0624
  159OSM    H2G17846   2.625   6.862   2.031 -0.3786 -0.3178 -0.7239
  159OSM    C3F17847   2.547   6.708   2.159 -0.0091  0.1093 -0.8774
  159OSM    H3F17848   2.644   6.686   2.209  0.4355  4.4964  0.6094
  159OSM    H3G17849   2.491   6.612   2.150  2.7361 -1.5352 -1.6817
  159OSM    C4F17850   2.470   6.807   2.251 -0.3899 -0.3434  0.3897
  159OSM    H4F17851   2.367   6.819   2.213  0.0245 -0.6468 -0.8647
  159OSM    H4G17852   2.518   6.908   2.255  1.5790 -1.2275  0.4828
  159OSM    C5F17853   2.452   6.738   2.386 -0.1264 -0.0643  0.0313
  159OSM    H5F17854   2.549   6.707   2.431  0.1380 -0.2863 -0.6910
  159OSM    H5G17855   2.397   6.646   2.360  1.9877 -1.4217  0.1079
  159OSM    C6F17856   2.379   6.825   2.492  0.3803 -0.2439 -0.6559
  159OSM    H6F17857   2.361   6.753   2.575 -3.3002  0.0147 -1.0414
  159OSM    H6G17858   2.284   6.871   2.455 -0.1933 -0.1252  0.8801
  159OSM    C7F17859   2.467   6.942   2.545  0.0768 -0.0976 -0.0837
  159OSM    H7F17860   2.475   7.023   2.469 -0.8133  0.4864  0.4245
  159OSM    H7G17861   2.566   6.898   2.569  0.1115 -0.1002 -0.2291
  159OSM    C8F17862   2.387   7.000   2.663 -0.1078 -0.2159 -0.2298
  159OSM    H8F17863   2.389   6.936   2.754 -1.5487  0.4665  0.3224
  159OSM    H8G17864   2.281   7.012   2.631 -0.0721  0.1367 -0.2164
  159OSM    C9F17865   2.452   7.133   2.696  1.1225 -0.4535 -0.1600
  159OSM    H9F17866   2.424   7.221   2.636 -0.8552  0.9831  2.6917
  159OSM   C10F17867   2.534   7.160   2.791 -0.8559  0.0076  0.1267
  159OSM   H10F17868   2.565   7.265   2.799  0.6655 -0.0751 -3.1484
  159OSM   C11F17869   2.599   7.065   2.886  0.5902  0.9526 -0.0103
  159OSM   H11F17870   2.709   7.073   2.877  0.3662  3.8472 -1.1903
  159OSM   H11G17871   2.559   6.962   2.876  1.9735 -0.0917  3.5442
  159OSM   C12F17872   2.559   7.113   3.029  0.3771  0.4056 -0.7964
  159OSM   H12F17873   2.450   7.136   3.029  0.5248  2.1242  3.4173
  159OSM   H12G17874   2.612   7.209   3.045  0.7161  0.1621 -0.4488
  159OSM   C13F17875   2.620   7.029   3.145  0.0675  0.0794 -0.2319
  159OSM   H13F17876   2.730   7.015   3.141 -0.0715 -1.3974  0.5381
  159OSM   H13G17877   2.592   6.922   3.155  0.2468 -0.1498 -1.9221
  159OSM   C14F17878   2.604   7.107   3.278 -0.8315  0.2384  0.6813
  159OSM   H14F17879   2.496   7.131   3.295 -0.9175 -2.0913  4.8988
  159OSM   H14G17880   2.656   7.205   3.277 -2.3949  1.1145 -0.5920
  159OSM   C15F17881   2.636   7.013   3.402  0.2480  0.2520  0.1173
  159OSM   H15F17882   2.740   6.975   3.399 -0.3763 -1.5971  0.0775
  159OSM   H15G17883   2.573   6.922   3.386 -1.4116  1.4606 -0.5866
  159OSM   C16F17884   2.606   7.054   3.546 -0.8184  0.0824 -0.0005
  159OSM   H16F17885   2.503   7.095   3.553 -1.1690 -0.4040 -1.7901
  159OSM   H16G17886   2.675   7.136   3.574 -1.0529  0.8238 -1.5133
  159OSM   C17F17887   2.629   6.943   3.649  0.2342 -1.0646 -0.0065
  159OSM   H17F17888   2.726   6.894   3.629  0.1750 -1.8060  1.3681
  159OSM   H17G17889   2.541   6.875   3.642 -0.2448 -0.3553 -1.4046
  159OSM   C18F17890   2.634   7.004   3.799  0.5462  0.3703  0.4426
  159OSM   H18F17891   2.623   6.915   3.865  1.9737 -0.9317 -1.0016
  159OSM   H18G17892   2.542   7.065   3.813  0.1196 -0.2662  0.4799
  159OSM   H18H17893   2.723   7.065   3.824  0.4905  0.3257  0.7588
  160OSM      N17894   6.252   6.226   1.739 -0.5343 -0.2118  0.0863
  160OSM    C1517895   6.280   6.131   1.632 -0.3449  0.3217 -0.0225
  160OSM   H15A17896   6.386   6.112   1.619 -0.6191 -1.3891  0.0721
  160OSM   H15B17897   6.237   6.175   1.543 -0.1970  2.3598  0.8516
  160OSM   H15C17898   6.239   6.034   1.655  0.6745  0.0892  0.9115
  160OSM    C1417899   6.109   6.233   1.744  0.2516  0.4931  0.1464
  160OSM   H14A17900   6.071   6.297   1.822 -0.0578  2.1147 -1.2523
  160OSM   H14B17901   6.080   6.133   1.772  3.7371 -0.1040  2.1386
  160OSM   H14C17902   6.062   6.263   1.651  1.0206  3.4445  0.6134
  160OSM    C1317903   6.306   6.184   1.872  0.2246 -0.1317 -0.6001
  160OSM   H13A17904   6.279   6.260   1.944 -3.1233  0.5408 -2.3401
  160OSM   H13B17905   6.413   6.174   1.863 -0.0263 -1.8930 -2.6769
  160OSM   H13C17906   6.271   6.085   1.899 -0.7721 -0.0313 -1.4595
  160OSM    C1217907   6.318   6.354   1.699  0.4225 -0.0281  0.5326
  160OSM   H12A17908   6.276   6.375   1.601 -0.6091 -0.9849  0.7492
  160OSM   H12B17909   6.424   6.351   1.677  0.3335  1.2330 -0.1652
  160OSM    C1117910   6.287   6.469   1.801 -0.2314  0.4954 -0.1903
  160OSM   H11A17911   6.329   6.449   1.903 -0.7234  0.1546 -0.0498
  160OSM   H11B17912   6.177   6.478   1.813 -0.5998  0.1186 -2.6873
  160OSM      P17913   6.385   6.704   1.814  0.1333  0.2926  0.2755
  160OSM    O1317914   6.469   6.794   1.736 -0.0732 -0.0600 -0.6894
  160OSM    O1417915   6.259   6.767   1.861 -0.0674  0.3917 -0.0423
  160OSM    O1117916   6.469   6.651   1.940 -0.0991  0.0324 -0.5579
  160OSM    O1217917   6.341   6.578   1.732 -0.2895 -0.2025 -0.0255
  160OSM    C1S17918   6.544   6.742   2.026 -0.1480  0.1616 -0.1884
  160OSM    H1S17919   6.499   6.843   2.024  0.8408  0.5960 -1.4455
  160OSM    H1T17920   6.642   6.767   1.980 -0.4280  2.6474  0.4040
  160OSM     NF17921   6.641   6.817   2.239  0.0957  0.0226 -0.0244
  160OSM    HNF17922   6.725   6.795   2.289  0.1461 -1.0647 -0.5600
  160OSM    C2S17923   6.572   6.704   2.171 -1.0974  0.5895 -0.0989
  160OSM    H2S17924   6.477   6.682   2.226 -1.3816 -2.2094 -1.5061
  160OSM    C3S17925   6.648   6.570   2.166 -0.2470 -0.2405  0.7789
  160OSM    H3S17926   6.733   6.596   2.099 -1.1873 -1.8786 -1.1519
  160OSM     O317927   6.598   6.462   2.087 -0.3732 -0.1799  0.6093
  160OSM    HO317928   6.545   6.513   2.024  0.9364 -0.5454 -0.8454
  160OSM    C4S17929   6.700   6.523   2.289  0.5704  0.5951 -0.0535
  160OSM    H4S17930   6.810   6.522   2.286  0.5831 -0.2211  0.3932
  160OSM    C5S17931   6.639   6.457   2.383 -0.2244 -0.5947 -0.4086
  160OSM    H5S17932   6.531   6.436   2.375 -0.5559  1.1577 -0.9707
  160OSM    C6S17933   6.702   6.386   2.506  0.7379 -1.2445  0.2751
  160OSM    H6S17934   6.811   6.378   2.488  1.1498 -0.5209  2.2393
  160OSM    H6T17935   6.671   6.279   2.518  0.7282 -1.2544  0.1649
  160OSM    C7S17936   6.693   6.458   2.640  0.4442 -0.7890 -0.3090
  160OSM    H7S17937   6.583   6.464   2.655  0.4181 -1.2285 -0.3363
  160OSM    H7T17938   6.732   6.562   2.638 -0.2505 -0.4355  1.6975
  160OSM    C8S17939   6.763   6.386   2.764  0.2171  0.3565 -0.5179
  160OSM    H8S17940   6.873   6.397   2.753  0.1221  0.8909 -0.9378
  160OSM    H8T17941   6.747   6.279   2.737  1.3287  1.2311 -5.8120
  160OSM    C9S17942   6.724   6.429   2.905 -0.7758  0.8710  0.2792
  160OSM    H9S17943   6.615   6.412   2.912 -1.5430  3.8297 -2.2391
  160OSM    H9T17944   6.745   6.537   2.923 -2.2330  1.0922  0.7772
  160OSM   C10S17945   6.788   6.345   3.016 -0.1511  0.5023  0.3873
  160OSM   H10S17946   6.896   6.363   3.000  0.5692 -2.4436  1.3367
  160OSM   H10T17947   6.752   6.242   2.993  2.6753 -0.7806  1.1899
  160OSM   C11S17948   6.741   6.371   3.159 -0.2534  0.3399  0.0608
  160OSM   H11S17949   6.638   6.343   3.190  1.0325 -0.4096  4.4302
  160OSM   H11T17950   6.734   6.480   3.180 -1.7333  0.4876 -1.0472
  160OSM   C12S17951   6.824   6.302   3.258  0.3797 -0.5965 -0.8608
  160OSM   H12S17952   6.926   6.346   3.258 -0.7691  2.2316  0.1658
  160OSM   H12T17953   6.837   6.196   3.226 -0.2413 -1.0448  0.3365
  160OSM   C13S17954   6.786   6.314   3.407 -0.4812 -0.0491 -0.4098
  160OSM   H13S17955   6.698   6.248   3.427 -1.2003  1.0569  0.1780
  160OSM   H13T17956   6.760   6.421   3.422 -1.1096 -0.1784 -0.5496
  160OSM   C14S17957   6.899   6.276   3.500  0.6234  0.3694 -0.3741
  160OSM   H14S17958   6.979   6.352   3.483  0.5718  0.7750  1.0245
  160OSM   H14T17959   6.927   6.171   3.480  0.3070 -0.1509  1.6927
  160OSM   C15S17960   6.860   6.277   3.651 -0.1993 -0.1746  0.1613
  160OSM   H15S17961   6.951   6.263   3.713  0.3343 -1.7198 -0.8975
  160OSM   H15T17962   6.810   6.181   3.673 -0.6168  0.1349  0.5724
  160OSM   C16S17963   6.773   6.392   3.699  0.5778 -0.4944  0.3711
  160OSM   H16S17964   6.681   6.399   3.637  1.9698 -0.6144 -1.8235
  160OSM   H16T17965   6.827   6.487   3.675 -0.1611  0.0332  0.7806
  160OSM   C17S17966   6.748   6.394   3.846 -0.2405 -0.1851  0.4094
  160OSM   H17S17967   6.678   6.473   3.882 -0.4873  1.1002 -2.6231
  160OSM   H17T17968   6.843   6.396   3.904 -0.1318 -0.2403  0.2333
  160OSM   C18S17969   6.682   6.270   3.899  0.4253 -0.1247  0.0264
  160OSM   H18S17970   6.580   6.253   3.858  0.1826 -0.8373  0.8753
  160OSM   H18T17971   6.676   6.271   4.010  1.6792  0.1464  0.1097
  160OSM   H18U17972   6.736   6.180   3.865 -0.3003 -0.7103  0.3835
  160OSM    C1F17973   6.595   6.939   2.261  0.1663 -0.0592 -0.5877
  160OSM     OF17974   6.487   6.968   2.215 -0.0914 -0.1381  0.4346
  160OSM    C2F17975   6.674   7.045   2.345  0.1934  0.7362  0.0393
  160OSM    H2F17976   6.683   7.138   2.286  3.6692  0.6459  0.2698
  160OSM    H2G17977   6.773   6.996   2.350 -0.1649 -0.0653 -0.3860
  160OSM    C3F17978   6.625   7.078   2.488  0.2043  0.8658  0.0983
  160OSM    H3F17979   6.514   7.077   2.487  0.2093 -0.9074 -0.5725
  160OSM    H3G17980   6.663   7.182   2.505  0.9184  0.7172 -0.5559
  160OSM    C4F17981   6.670   6.984   2.597  0.3392  0.2118 -0.7826
  160OSM    H4F17982   6.774   6.946   2.587  0.8226  0.3597  2.5422
  160OSM    H4G17983   6.598   6.899   2.602 -0.2651  0.7858  3.0077
  160OSM    C5F17984   6.661   7.064   2.730  0.2334 -0.0659  0.4331
  160OSM    H5F17985   6.724   7.155   2.716 -0.2238  0.1596 -0.2095
  160OSM    H5G17986   6.708   7.000   2.807  1.7521  0.0396 -0.3665
  160OSM    C6F17987   6.518   7.110   2.770  0.1344 -0.4887  0.0938
  160OSM    H6F17988   6.460   7.017   2.791 -0.6167 -0.4179 -1.5431
  160OSM    H6G17989   6.461   7.153   2.685  1.1226  0.9511  0.1341
  160OSM    C7F17990   6.500   7.178   2.909  0.3238  0.5725 -0.1736
  160OSM    H7F17991   6.510   7.289   2.905  1.0587  0.6150  1.6586
  160OSM    H7G17992   6.591   7.149   2.966  1.7316 -0.2232 -2.6597
  160OSM    C8F17993   6.370   7.142   2.979  0.1529 -0.4957  0.3867
  160OSM    H8F17994   6.375   7.040   3.023 -1.2049 -1.0692 -0.7258
  160OSM    H8G17995   6.298   7.145   2.895  2.4788  0.2999 -1.6966
  160OSM    C9F17996   6.326   7.245   3.087 -0.1125  0.0435 -0.0673
  160OSM    H9F17997   6.373   7.344   3.080  1.1526 -0.5914 -1.0052
  160OSM   C10F17998   6.254   7.213   3.193 -0.0313 -0.1301 -0.1171
  160OSM   H10F17999   6.245   7.293   3.269  2.4854  0.5172 -0.3924
  160OSM   C11F18000   6.183   7.079   3.226 -1.1148 -0.1416  0.1496
  160OSM   H11F18001   6.262   7.012   3.264 -1.5904 -1.2733 -0.7947
  160OSM   H11G18002   6.135   7.039   3.134  0.6991 -1.3684 -0.3016
  160OSM   C12F18003   6.078   7.101   3.337 -0.4606 -0.7791  0.6625
  160OSM   H12F18004   6.035   7.000   3.355 -1.2458 -0.2396  1.9365
  160OSM   H12G18005   5.998   7.174   3.308 -1.2049 -0.5891  2.9696
  160OSM   C13F18006   6.130   7.140   3.473 -0.4050  0.0122  0.5436
  160OSM   H13F18007   6.159   7.248   3.471 -0.1055 -0.0815 -0.1687
  160OSM   H13G18008   6.221   7.086   3.506 -0.5629 -0.6449 -0.0748
  160OSM   C14F18009   6.023   7.144   3.580 -0.2972 -0.6567 -0.6707
  160OSM   H14F18010   5.957   7.054   3.579  0.5894 -1.3219 -0.1353
  160OSM   H14G18011   5.948   7.225   3.567  1.5266  1.1510 -0.4210
  160OSM   C15F18012   6.097   7.181   3.709  0.6761  0.1675 -0.5827
  160OSM   H15F18013   6.165   7.268   3.693  0.5633  0.2380 -0.6770
  160OSM   H15G18014   6.163   7.094   3.725 -0.1383 -0.3863 -0.1919
  160OSM   C16F18015   5.989   7.206   3.816  0.0526  0.6998 -0.6464
  160OSM   H16F18016   5.934   7.110   3.823  0.3733  0.6114  1.3688
  160OSM   H16G18017   5.922   7.284   3.774  0.2018  1.0031 -0.3277
  160OSM   C17F18018   6.052   7.245   3.951 -0.1034 -0.5032  0.1288
  160OSM   H17F18019   6.121   7.329   3.930  1.9940 -2.4944 -1.5231
  160OSM   H17G18020   6.125   7.170   3.987  2.5126  1.0401 -1.6753
  160OSM   C18F18021   5.962   7.286   4.062 -0.2338  0.4294 -0.1815
  160OSM   H18F18022   5.916   7.384   4.035 -2.3701 -0.2566  0.7489
  160OSM   H18G18023   6.015   7.296   4.160  0.3159 -0.6995 -0.3522
  160OSM   H18H18024   5.879   7.212   4.066  0.4904 -0.4152  3.5241
  161OSM      N18025   2.272   3.281   1.982 -1.0915 -0.0497  0.1410
  161OSM    C1518026   2.364   3.314   1.871  0.6733  0.4593 -0.0353
  161OSM   H15A18027   2.292   3.336   1.793 -0.9428 -2.2618  0.5623
  161OSM   H15B18028   2.435   3.237   1.844  2.2441  0.7948  2.8388
  161OSM   H15C18029   2.426   3.399   1.892  3.1888 -1.3185  0.1661
  161OSM    C1418030   2.170   3.395   2.001 -0.0855  0.4316 -0.0474
  161OSM   H14A18031   2.111   3.410   1.911 -2.3682 -0.6112  1.1790
  161OSM   H14B18032   2.218   3.489   2.022 -0.4158  0.6131 -0.0897
  161OSM   H14C18033   2.102   3.366   2.080  1.3662  1.7092  1.7834
  161OSM    C1318034   2.196   3.157   1.956  0.3441  0.6753 -0.0864
  161OSM   H13A18035   2.110   3.176   1.892  0.4193 -0.0168 -0.4010
  161OSM   H13B18036   2.159   3.116   2.049 -0.2323  2.9801  0.7860
  161OSM   H13C18037   2.254   3.082   1.905 -0.9909  0.5914 -1.5792
  161OSM    C1218038   2.357   3.275   2.106 -0.2460  0.2839  0.1746
  161OSM   H12A18039   2.421   3.189   2.098 -3.1690 -2.0819  0.7090
  161OSM   H12B18040   2.288   3.258   2.187 -0.8178  0.6616 -0.2255
  161OSM    C1118041   2.448   3.395   2.145  0.2338 -0.1580 -0.0078
  161OSM   H11A18042   2.483   3.400   2.250  1.5543  2.2728 -0.4881
  161OSM   H11B18043   2.392   3.489   2.127  0.7256 -0.1814 -1.8935
  161OSM      P18044   2.685   3.298   2.083 -0.3038  0.3630  0.3196
  161OSM    O1318045   2.637   3.164   2.050  0.2105 -0.1308  0.0009
  161OSM    O1418046   2.808   3.336   1.999  0.4136  0.2570 -0.4610
  161OSM    O1118047   2.728   3.300   2.232 -0.2615  0.2130 -0.1925
  161OSM    O1218048   2.565   3.397   2.061 -0.3250 -0.2892  0.0102
  161OSM    C1S18049   2.789   3.421   2.290 -0.2764 -0.4622 -0.6608
  161OSM    H1S18050   2.716   3.500   2.315 -0.8561 -1.8237  2.4629
  161OSM    H1T18051   2.860   3.463   2.215  0.3179  2.9621  1.6386
  161OSM     NF18052   2.927   3.533   2.468 -0.5749 -0.0936  0.2433
  161OSM    HNF18053   3.025   3.547   2.481  0.0219 -2.3519 -1.2480
  161OSM    C2S18054   2.882   3.401   2.420  0.7305 -0.3936 -0.0392
  161OSM    H2S18055   2.819   3.348   2.494 -0.3019  0.1275 -0.5061
  161OSM    C3S18056   2.991   3.296   2.396 -0.3630  0.0617 -0.3394
  161OSM    H3S18057   3.064   3.336   2.323 -0.8894  0.8693 -0.4303
  161OSM     O318058   2.949   3.175   2.340  0.1951  0.4152  0.2310
  161OSM    HO318059   2.880   3.198   2.277  0.3461 -0.6519 -0.3492
  161OSM    C4S18060   3.077   3.274   2.525 -0.4667  0.6167  0.5365
  161OSM    H4S18061   3.136   3.354   2.571 -0.2058 -0.6125  2.4483
  161OSM    C5S18062   3.062   3.169   2.603  0.4602 -0.0031 -0.1056
  161OSM    H5S18063   2.986   3.093   2.579  0.3985 -0.4164  1.2980
  161OSM    C6S18064   3.133   3.150   2.740  0.0847  0.8325  0.2535
  161OSM    H6S18065   3.204   3.233   2.756  0.6722  0.5903 -0.9275
  161OSM    H6T18066   3.198   3.059   2.735 -2.0607 -0.8958  1.9006
  161OSM    C7S18067   3.042   3.143   2.867  0.3843 -1.0867  0.6086
  161OSM    H7S18068   2.963   3.065   2.861  1.6983 -2.4319  0.1809
  161OSM    H7T18069   2.996   3.243   2.854  1.8106 -0.5834 -0.9461
  161OSM    C8S18070   3.115   3.122   3.000 -0.0442  0.0835 -0.2731
  161OSM    H8S18071   3.216   3.166   3.008 -0.3023  0.5407  0.6843
  161OSM    H8T18072   3.146   3.017   3.023  1.7223  1.0650  2.2903
  161OSM    C9S18073   3.026   3.165   3.117  0.7337  0.0868  0.7044
  161OSM    H9S18074   2.956   3.087   3.152  0.3861  0.1235  0.0875
  161OSM    H9T18075   2.958   3.246   3.085  0.2644 -0.1447  1.1067
  161OSM   C10S18076   3.113   3.199   3.234 -0.0108  0.3378  0.1880
  161OSM   H10S18077   3.203   3.252   3.198  0.6055 -0.6802  0.1827
  161OSM   H10T18078   3.152   3.106   3.282  0.8489  0.3072 -0.5618
  161OSM   C11S18079   3.029   3.274   3.337  0.2778  0.0030 -0.0786
  161OSM   H11S18080   2.938   3.214   3.358 -1.1355  2.2589  0.5794
  161OSM   H11T18081   2.998   3.360   3.274  1.7411  0.4733 -0.2020
  161OSM   C12S18082   3.111   3.313   3.456 -0.0725  0.2825 -0.9586
  161OSM   H12S18083   3.185   3.389   3.425 -1.2975  1.4897 -1.0178
  161OSM   H12T18084   3.165   3.228   3.502  1.5196  1.0742 -1.2840
  161OSM   C13S18085   3.024   3.367   3.577 -0.2322  0.1701  1.3139
  161OSM   H13S18086   2.937   3.303   3.605 -0.5536  0.1131  0.2064
  161OSM   H13T18087   2.992   3.469   3.549 -0.7551 -0.1094  0.8882
  161OSM   C14S18088   3.108   3.396   3.699  0.1623 -0.0082  0.4556
  161OSM   H14S18089   3.184   3.472   3.672 -2.4303  2.4261 -0.4727
  161OSM   H14T18090   3.171   3.308   3.724 -1.0772 -0.8758  0.6049
  161OSM   C15S18091   3.024   3.426   3.819  0.0440  1.4578 -0.2235
  161OSM   H15S18092   2.956   3.339   3.836  3.3232 -1.2254  0.0686
  161OSM   H15T18093   2.960   3.514   3.796 -0.7217  0.7821 -0.7811
  161OSM   C16S18094   3.109   3.440   3.943 -0.1906 -0.0103 -0.4205
  161OSM   H16S18095   3.181   3.525   3.941  0.1833 -0.2816  0.9106
  161OSM   H16T18096   3.168   3.348   3.960  2.6146  1.7967  0.4039
  161OSM   C17S18097   3.010   3.469   4.060 -0.6825  0.0128  0.5504
  161OSM   H17S18098   2.945   3.380   4.076 -1.2234  0.3753  0.4243
  161OSM   H17T18099   2.941   3.555   4.046 -1.5202 -0.6255  0.6495
  161OSM   C18S18100   3.089   3.493   4.184 -0.7431 -1.0306 -0.7142
  161OSM   H18S18101   3.101   3.397   4.239  1.8950 -0.3129  0.1429
  161OSM   H18T18102   3.044   3.566   4.254 -0.0640 -2.7971  1.7173
  161OSM   H18U18103   3.196   3.512   4.162 -0.3043 -3.2386 -0.8028
  161OSM    C1F18104   2.845   3.632   2.518 -0.9403 -0.2610 -0.3488
  161OSM     OF18105   2.731   3.645   2.483  0.2158  0.0145  0.2663
  161OSM    C2F18106   2.909   3.723   2.621  0.6725 -0.7267 -0.4198
  161OSM    H2F18107   2.879   3.828   2.601 -1.7199 -0.7663  2.2638
  161OSM    H2G18108   3.019   3.709   2.635  0.5594 -0.6894  0.5561
  161OSM    C3F18109   2.836   3.700   2.755  0.0338 -0.1268 -0.4438
  161OSM    H3F18110   2.727   3.715   2.741 -0.0662 -0.1786  0.2165
  161OSM    H3G18111   2.862   3.772   2.836 -2.1999 -0.9842  1.1545
  161OSM    C4F18112   2.853   3.556   2.818  0.9416 -0.3964 -0.2569
  161OSM    H4F18113   2.823   3.476   2.746  0.0680 -1.5502  1.3353
  161OSM    H4G18114   2.780   3.544   2.900  0.0068  1.7625 -0.7182
  161OSM    C5F18115   2.996   3.524   2.856 -0.0804 -0.0126  0.3867
  161OSM    H5F18116   3.054   3.502   2.764  0.5826  0.8987  0.5630
  161OSM    H5G18117   2.997   3.432   2.918  0.2742  1.0965  2.1101
  161OSM    C6F18118   3.073   3.630   2.928 -0.2034  0.6392 -0.0394
  161OSM    H6F18119   3.102   3.720   2.868 -1.8162  0.6061 -0.9418
  161OSM    H6G18120   3.166   3.578   2.960 -0.4453  0.6227  0.6395
  161OSM    C7F18121   2.991   3.673   3.059 -0.5003  0.0689 -0.2677
  161OSM    H7F18122   2.970   3.587   3.126 -1.6009 -1.5458 -2.5373
  161OSM    H7G18123   2.896   3.714   3.018  0.9904  2.7984 -1.2603
  161OSM    C8F18124   3.054   3.785   3.143 -0.3974  0.0565 -0.2346
  161OSM    H8F18125   2.981   3.842   3.203  0.3239 -0.4463  1.1720
  161OSM    H8G18126   3.097   3.856   3.069  1.4515 -1.3142 -0.5515
  161OSM    C9F18127   3.160   3.739   3.237  0.0505  0.4317 -0.3576
  161OSM    H9F18128   3.253   3.715   3.182  0.6190  1.4372  0.1414
  161OSM   C10F18129   3.151   3.726   3.376  0.3808  0.6393  0.1557
  161OSM   H10F18130   3.238   3.704   3.439 -0.9750  1.3281  2.4046
  161OSM   C11F18131   3.024   3.759   3.450  0.3004  0.3685  0.0309
  161OSM   H11F18132   2.937   3.695   3.423  0.1123  0.7366 -0.2447
  161OSM   H11G18133   2.986   3.859   3.421 -3.0614 -0.9255 -0.4808
  161OSM   C12F18134   3.034   3.769   3.603  0.6707  0.5163  0.4939
  161OSM   H12F18135   3.077   3.676   3.648  2.6133 -0.2419 -2.6336
  161OSM   H12G18136   2.935   3.783   3.651  0.7104  0.5615  0.5633
  161OSM   C13F18137   3.117   3.894   3.644  0.5673  0.1850 -0.2687
  161OSM   H13F18138   3.066   3.973   3.584 -4.1074 -3.1162 -1.2523
  161OSM   H13G18139   3.220   3.888   3.603  1.1560 -1.5072  1.3455
  161OSM   C14F18140   3.115   3.938   3.789  0.6208 -0.2706 -0.1187
  161OSM   H14F18141   3.009   3.946   3.819  0.8053 -0.1871  0.5235
  161OSM   H14G18142   3.150   4.043   3.799 -1.1055  0.6302 -2.5039
  161OSM   C15F18143   3.185   3.834   3.883 -0.8099  0.5235 -0.4503
  161OSM   H15F18144   3.296   3.832   3.872 -0.8706 -0.9169 -1.0302
  161OSM   H15G18145   3.151   3.730   3.862 -0.1440 -0.0529  1.1520
  161OSM   C16F18146   3.149   3.865   4.031 -0.3860 -1.0782  0.0231
  161OSM   H16F18147   3.201   3.788   4.091 -0.8609 -0.3965  1.3418
  161OSM   H16G18148   3.041   3.851   4.053 -0.4676  0.0824  0.4168
  161OSM   C17F18149   3.188   4.004   4.080 -0.3188  0.1013  0.1648
  161OSM   H17F18150   3.122   4.079   4.031  0.0297 -0.4760 -1.2463
  161OSM   H17G18151   3.290   4.036   4.047 -0.0698 -0.1206  0.7122
  161OSM   C18F18152   3.173   4.028   4.232  0.3823 -0.2771  0.1186
  161OSM   H18F18153   3.063   4.016   4.240  0.2659 -2.4902 -3.1389
  161OSM   H18G18154   3.211   4.129   4.258  0.6609 -0.2633 -0.3398
  161OSM   H18H18155   3.229   3.946   4.283 -0.6524  0.1848  2.1199
  162OSM      N18156   4.247   5.066   2.247 -0.6585 -0.5278  0.3742
  162OSM    C1518157   4.390   5.082   2.211 -0.7625 -0.1176  0.7363
  162OSM   H15A18158   4.432   4.989   2.176 -0.7826  0.6665 -1.5692
  162OSM   H15B18159   4.453   5.122   2.288  0.1232  1.4753 -0.7451
  162OSM   H15C18160   4.401   5.153   2.130  1.4961  0.5272  1.5326
  162OSM    C1418161   4.174   5.005   2.135 -0.1562  0.3441 -0.1857
  162OSM   H14A18162   4.079   4.960   2.160 -2.6655  4.3308 -1.4977
  162OSM   H14B18163   4.235   4.930   2.087  0.5638  1.9749 -1.9359
  162OSM   H14C18164   4.162   5.077   2.055 -1.7886  0.8493  0.4604
  162OSM    C1318165   4.241   4.967   2.365 -0.0601  0.2604 -0.4964
  162OSM   H13A18166   4.284   4.999   2.459  1.4601  1.2553 -1.4883
  162OSM   H13B18167   4.291   4.873   2.344 -1.4077 -0.1514 -2.0684
  162OSM   H13C18168   4.139   4.955   2.396  0.0912  0.1628 -0.0210
  162OSM    C1218169   4.191   5.204   2.283 -0.6818  1.2441 -0.7470
  162OSM   H12A18170   4.085   5.200   2.306 -0.4420  1.1083  0.3846
  162OSM   H12B18171   4.195   5.277   2.203  1.0057  1.2895 -0.6454
  162OSM    C1118172   4.251   5.274   2.406  0.0401 -0.6452  0.6073
  162OSM   H11A18173   4.244   5.201   2.489 -1.0636  0.8889  1.9369
  162OSM   H11B18174   4.177   5.353   2.431  1.1911  1.0218 -0.9358
  162OSM      P18175   4.409   5.429   2.261  0.4660  0.3703 -0.5787
  162OSM    O1318176   4.506   5.368   2.169  0.2591 -0.8251 -0.4005
  162OSM    O1418177   4.283   5.488   2.221  0.1777  0.4893  0.2991
  162OSM    O1118178   4.490   5.547   2.334 -0.5355  0.0023  0.8875
  162OSM    O1218179   4.385   5.335   2.388 -0.1529  0.3353 -0.2837
  162OSM    C1S18180   4.428   5.651   2.414 -0.0578  0.2626 -0.0857
  162OSM    H1S18181   4.317   5.649   2.419 -0.2526 -0.5328 -2.7618
  162OSM    H1T18182   4.457   5.748   2.368  4.0791 -2.0910 -3.1730
  162OSM     NF18183   4.405   5.726   2.645 -0.3620  0.5331 -0.1840
  162OSM    HNF18184   4.449   5.812   2.671 -0.5180  0.9683 -1.2935
  162OSM    C2S18185   4.477   5.636   2.564 -1.1957  0.5464  0.0107
  162OSM    H2S18186   4.474   5.530   2.597 -0.8561  1.1441  2.1212
  162OSM    C3S18187   4.629   5.668   2.579 -0.0008 -0.2442  0.0098
  162OSM    H3S18188   4.647   5.770   2.538 -0.1297 -0.9094 -1.8017
  162OSM     O318189   4.704   5.575   2.500 -0.2541  0.1836  0.2707
  162OSM    HO318190   4.627   5.542   2.452  0.8227 -1.0710 -0.6728
  162OSM    C4S18191   4.682   5.655   2.719 -0.2913  0.3400  0.0523
  162OSM    H4S18192   4.675   5.555   2.763 -0.2965  0.0202 -0.6652
  162OSM    C5S18193   4.718   5.761   2.803  0.1287  0.0246 -1.0344
  162OSM    H5S18194   4.710   5.864   2.766 -0.9726  0.1184 -0.5964
  162OSM    C6S18195   4.739   5.736   2.952  0.3485  0.5974  0.3621
  162OSM    H6S18196   4.754   5.628   2.974  0.8654  0.7141  0.6006
  162OSM    H6T18197   4.649   5.758   3.013  1.4437  1.1604  1.8513
  162OSM    C7S18198   4.852   5.825   2.999  0.7320 -0.9924  0.0904
  162OSM    H7S18199   4.837   5.931   2.970  2.2307 -0.2445  1.8991
  162OSM    H7T18200   4.947   5.787   2.958 -0.8356 -2.9398 -2.0065
  162OSM    C8S18201   4.858   5.831   3.159 -0.1395  0.1992  0.2526
  162OSM    H8S18202   4.867   5.726   3.192  2.4841  0.6225  1.1356
  162OSM    H8T18203   4.771   5.883   3.205 -1.2327 -1.7981  0.5783
  162OSM    C9S18204   4.980   5.914   3.202  0.4514  0.2896 -0.2685
  162OSM    H9S18205   4.956   5.983   3.286  1.8517  0.0147  0.3906
  162OSM    H9T18206   5.017   5.983   3.123  1.7738  0.1305  0.1776
  162OSM   C10S18207   5.097   5.831   3.254 -0.0263  0.5907 -0.2505
  162OSM   H10S18208   5.187   5.892   3.275 -0.0414  1.0520 -1.4337
  162OSM   H10T18209   5.119   5.759   3.172  0.3200  1.3178 -0.8050
  162OSM   C11S18210   5.076   5.755   3.391  0.2513 -0.1041  0.0638
  162OSM   H11S18211   5.148   5.674   3.416 -0.7421 -0.6366  1.2891
  162OSM   H11T18212   4.984   5.697   3.370 -0.4003  1.0060 -0.2497
  162OSM   C12S18213   5.051   5.851   3.507  0.3880 -0.3209 -0.4684
  162OSM   H12S18214   5.005   5.949   3.479 -0.6503 -0.7294 -0.2446
  162OSM   H12T18215   5.152   5.885   3.538  0.5533 -0.6096 -0.6821
  162OSM   C13S18216   4.985   5.790   3.631 -0.3118  0.0500  0.0570
  162OSM   H13S18217   5.033   5.691   3.649 -0.3412  0.0436  0.0982
  162OSM   H13T18218   4.879   5.771   3.605 -0.3387 -1.3493  1.0765
  162OSM   C14S18219   5.008   5.871   3.767 -0.3930  0.2578 -0.1978
  162OSM   H14S18220   5.103   5.928   3.763 -1.6085  2.3790 -0.4656
  162OSM   H14T18221   5.016   5.798   3.851 -1.4936 -0.3200 -0.5751
  162OSM   C15S18222   4.894   5.969   3.807 -0.4188  0.2895  0.7040
  162OSM   H15S18223   4.789   5.937   3.791 -0.6970  1.0481  0.9452
  162OSM   H15T18224   4.903   6.041   3.723 -0.0186 -0.0128  0.4880
  162OSM   C16S18225   4.913   6.025   3.940 -0.1242  0.1437 -0.6062
  162OSM   H16S18226   5.019   6.058   3.946 -0.2443  0.3306  0.9687
  162OSM   H16T18227   4.913   5.947   4.019  0.2192  0.9031  0.1634
  162OSM   C17S18228   4.828   6.150   3.991  0.1345  0.8228  0.3501
  162OSM   H17S18229   4.842   6.228   3.914  1.8133  2.1166  1.8828
  162OSM   H17T18230   4.878   6.194   4.080  0.3593  1.0147  0.1293
  162OSM   C18S18231   4.676   6.120   4.024 -0.1835 -0.4765 -0.5353
  162OSM   H18S18232   4.616   6.201   4.069  1.2417  0.1023  0.3782
  162OSM   H18T18233   4.671   6.028   4.086  1.3703 -0.2410 -0.0242
  162OSM   H18U18234   4.637   6.099   3.922  0.5266 -1.5011 -0.6051
  162OSM    C1F18235   4.280   5.691   2.677  0.1222  0.4341  0.0480
  162OSM     OF18236   4.224   5.589   2.640 -0.6310 -0.6959 -0.0782
  162OSM    C2F18237   4.203   5.798   2.759  0.4958 -0.4396 -0.1444
  162OSM    H2F18238   4.100   5.759   2.747  0.7120 -1.6410  1.5424
  162OSM    H2G18239   4.210   5.901   2.719 -0.1051 -0.2912  0.1231
  162OSM    C3F18240   4.220   5.779   2.915  0.8226  0.3981 -0.8261
  162OSM    H3F18241   4.323   5.799   2.953  0.4513  0.4219  0.1981
  162OSM    H3G18242   4.190   5.674   2.933 -0.9220  0.6604 -1.9860
  162OSM    C4F18243   4.120   5.883   2.987  0.1016  0.4187  0.0093
  162OSM    H4F18244   4.039   5.902   2.914  0.9859 -3.8814 -2.4165
  162OSM    H4G18245   4.182   5.975   2.993  1.0191 -0.2661  2.7918
  162OSM    C5F18246   4.057   5.855   3.124  0.3260 -0.4555 -0.4341
  162OSM    H5F18247   3.988   5.768   3.121 -1.1985  0.6884  0.2161
  162OSM    H5G18248   3.998   5.940   3.166  0.7895 -0.1738 -0.3450
  162OSM    C6F18249   4.171   5.816   3.230  0.0892 -0.4597 -0.2142
  162OSM    H6F18250   4.250   5.893   3.222 -0.8460  0.4871 -0.4956
  162OSM    H6G18251   4.220   5.720   3.202 -1.0587 -1.2135  0.3061
  162OSM    C7F18252   4.110   5.818   3.371  0.0453 -0.3824 -0.4468
  162OSM    H7F18253   4.021   5.753   3.386 -0.0732  0.3255  2.7434
  162OSM    H7G18254   4.080   5.924   3.383  0.4330 -0.1203 -1.6874
  162OSM    C8F18255   4.215   5.792   3.480  0.1585 -0.4385  0.0628
  162OSM    H8F18256   4.297   5.864   3.458  0.3230 -0.0960  1.7064
  162OSM    H8G18257   4.261   5.696   3.450  0.6519  0.6676 -3.2211
  162OSM    C9F18258   4.185   5.799   3.627 -0.2123 -0.6546 -0.2784
  162OSM    H9F18259   4.262   5.857   3.680  0.3980  0.5120 -2.3281
  162OSM   C10F18260   4.080   5.745   3.696 -0.1484 -0.0744 -0.1612
  162OSM   H10F18261   4.082   5.758   3.806 -1.4442 -1.3354  0.0567
  162OSM   C11F18262   3.956   5.677   3.652  0.1864  0.2709  0.1278
  162OSM   H11F18263   3.920   5.588   3.708  0.8232  0.8761  1.5422
  162OSM   H11G18264   3.973   5.628   3.554 -0.2733  0.2087  0.0741
  162OSM   C12F18265   3.834   5.774   3.638 -0.1974 -0.0720 -0.0793
  162OSM   H12F18266   3.857   5.867   3.582 -0.0164  1.5516  2.5346
  162OSM   H12G18267   3.789   5.801   3.735  1.8819 -0.2176  0.9810
  162OSM   C13F18268   3.713   5.717   3.562  0.3187  0.1198  0.2241
  162OSM   H13F18269   3.623   5.781   3.571 -0.4346 -1.0191  1.0557
  162OSM   H13G18270   3.685   5.618   3.603 -1.5897  0.0846 -1.0291
  162OSM   C14F18271   3.737   5.704   3.414 -0.5782  0.4590 -0.1475
  162OSM   H14F18272   3.827   5.640   3.398 -0.4371  0.3044  1.2007
  162OSM   H14G18273   3.763   5.800   3.363 -3.9026 -0.0522 -3.1942
  162OSM   C15F18274   3.628   5.638   3.339  0.0636  0.3318 -0.5971
  162OSM   H15F18275   3.538   5.703   3.350 -1.0953 -1.4611  1.0252
  162OSM   H15G18276   3.604   5.537   3.377  0.8850  1.1211  2.2366
  162OSM   C16F18277   3.653   5.643   3.189  0.3016  0.1623  0.3456
  162OSM   H16F18278   3.752   5.598   3.165  0.3175  1.0802 -1.4323
  162OSM   H16G18279   3.658   5.749   3.157 -2.3122  0.2199 -0.0634
  162OSM   C17F18280   3.550   5.567   3.097  0.0519 -0.1439  0.1075
  162OSM   H17F18281   3.458   5.629   3.096 -1.2112 -1.9368 -1.2527
  162OSM   H17G18282   3.530   5.473   3.152 -1.2156 -0.9019 -1.5658
  162OSM   C18F18283   3.594   5.543   2.956  0.5561 -1.1126 -0.4159
  162OSM   H18F18284   3.505   5.512   2.898  0.6609  1.9791 -2.4471
  162OSM   H18G18285   3.671   5.464   2.945  2.2332  0.4384 -0.3775
  162OSM   H18H18286   3.624   5.644   2.920 -2.2790  1.3204  3.2374
  163OSM      N18287   1.389   4.931   2.238  1.2056  0.2247 -0.3227
  163OSM    C1518288   1.428   5.052   2.154  0.0347  0.0838  0.2398
  163OSM   H15A18289   1.518   5.024   2.102  0.0113 -0.0440  0.2690
  163OSM   H15B18290   1.446   5.135   2.221 -0.0158 -0.8610  1.4438
  163OSM   H15C18291   1.354   5.073   2.078  0.9379 -1.5964 -1.1772
  163OSM    C1418292   1.492   4.905   2.345  0.0739 -0.1496  0.1208
  163OSM   H14A18293   1.482   4.807   2.388  2.3445 -0.0388  1.0581
  163OSM   H14B18294   1.495   4.978   2.424 -1.4449 -0.5589  0.6013
  163OSM   H14C18295   1.591   4.907   2.302  0.3385  3.0496  0.6352
  163OSM    C1318296   1.250   4.933   2.302 -0.1592  0.7019  0.0232
  163OSM   H13A18297   1.227   4.860   2.377 -1.7937  0.2787 -0.8532
  163OSM   H13B18298   1.179   4.922   2.221  0.2144 -0.6396 -0.1587
  163OSM   H13C18299   1.239   5.024   2.358 -1.7153 -0.2253  1.3035
  163OSM    C1218300   1.376   4.817   2.148  0.9768  1.0889  1.1179
  163OSM   H12A18301   1.313   4.845   2.065  1.1389 -1.4187  0.0655
  163OSM   H12B18302   1.317   4.738   2.192  2.6055 -0.6887  0.2466
  163OSM    C1118303   1.504   4.750   2.093 -0.9342 -0.3380  0.1738
  163OSM   H11A18304   1.476   4.664   2.029  0.5439  0.4138 -1.5753
  163OSM   H11B18305   1.566   4.717   2.179  1.0402  2.6017  0.0345
  163OSM      P18306   1.738   4.841   2.022  0.0895 -0.0617  0.0883
  163OSM    O1318307   1.788   4.714   1.967  0.2880  0.4805 -0.4794
  163OSM    O1418308   1.777   4.971   1.959  0.2025  0.4322 -0.1939
  163OSM    O1118309   1.780   4.846   2.170  0.6441 -0.0441 -0.4651
  163OSM    O1218310   1.580   4.848   2.018 -0.6291  0.0064  0.1739
  163OSM    C1S18311   1.871   4.942   2.216 -0.4126 -0.1072  0.5646
  163OSM    H1S18312   1.842   5.044   2.182  1.7902  0.4408  0.1609
  163OSM    H1T18313   1.969   4.927   2.166  0.3029  1.2262  1.4838
  163OSM     NF18314   1.995   5.038   2.394  0.4898 -0.1336 -0.4884
  163OSM    HNF18315   2.085   5.003   2.420 -0.6724 -0.8282  3.2364
  163OSM    C2S18316   1.898   4.942   2.369 -0.3518  0.6120  0.9236
  163OSM    H2S18317   1.807   4.964   2.430 -1.1394 -2.4595  1.0705
  163OSM    C3S18318   1.936   4.790   2.402 -0.4319 -0.4712  0.0024
  163OSM    H3S18319   2.027   4.770   2.341  0.5238  0.4177  1.0878
  163OSM     O318320   1.824   4.700   2.377 -0.4985 -0.2361  0.3890
  163OSM    HO318321   1.774   4.746   2.310  0.1106  0.0470  0.1190
  163OSM    C4S18322   1.963   4.773   2.548 -0.1764 -0.4218  0.5378
  163OSM    H4S18323   1.880   4.737   2.610 -0.4869 -0.7495 -0.0526
  163OSM    C5S18324   2.091   4.765   2.597 -0.3173  0.4995 -0.1052
  163OSM    H5S18325   2.178   4.783   2.534 -0.5350  1.3797 -0.1586
  163OSM    C6S18326   2.117   4.740   2.739 -0.2085  0.0737 -0.1830
  163OSM    H6S18327   2.203   4.796   2.781  0.5330  0.3919 -2.0596
  163OSM    H6T18328   2.125   4.629   2.747  1.5188  0.1995  0.2566
  163OSM    C7S18329   2.012   4.775   2.852 -0.5801 -0.4012  0.1152
  163OSM    H7S18330   1.909   4.736   2.838 -1.0883  0.7634  0.4511
  163OSM    H7T18331   1.995   4.885   2.849 -0.5941 -0.4150 -1.1044
  163OSM    C8S18332   2.046   4.741   2.999 -0.2294 -0.0497  0.1127
  163OSM    H8S18333   2.140   4.769   3.050 -1.2273  0.0887  1.9439
  163OSM    H8T18334   2.048   4.630   2.985 -0.4486 -0.4639  2.8865
  163OSM    C9S18335   1.928   4.771   3.095  0.0979  0.2304 -0.3611
  163OSM    H9S18336   1.836   4.730   3.047  0.6614  1.8181 -3.0185
  163OSM    H9T18337   1.926   4.882   3.103  2.0457  0.2349  0.7813
  163OSM   C10S18338   1.942   4.721   3.235  0.1806  0.1900 -0.1287
  163OSM   H10S18339   2.005   4.631   3.249 -1.1802 -0.8066 -0.2588
  163OSM   H10T18340   1.842   4.704   3.279  0.1276 -0.8828 -0.6461
  163OSM   C11S18341   2.014   4.819   3.327  0.1363  0.0437 -0.2424
  163OSM   H11S18342   1.977   4.923   3.315 -0.0426  0.0798  0.5431
  163OSM   H11T18343   2.123   4.804   3.312  0.2542 -2.2001  2.1367
  163OSM   C12S18344   1.997   4.788   3.479  0.2740  0.5199 -0.1045
  163OSM   H12S18345   1.993   4.680   3.505 -0.3615  0.4228 -0.6113
  163OSM   H12T18346   1.902   4.833   3.515 -1.1879 -1.3750 -1.3751
  163OSM   C13S18347   2.113   4.861   3.561  0.9378  0.4943  0.3790
  163OSM   H13S18348   2.145   4.946   3.498 -1.8558  0.0194 -1.8808
  163OSM   H13T18349   2.197   4.789   3.562 -1.2996 -2.3792  2.8629
  163OSM   C14S18350   2.070   4.903   3.698  0.3901  0.4491  0.2333
  163OSM   H14S18351   1.981   4.970   3.696  0.9035  1.1216 -0.9424
  163OSM   H14T18352   2.150   4.956   3.753  0.0265 -0.3319  1.5600
  163OSM   C15S18353   2.030   4.776   3.781 -0.2001  0.1157  0.4245
  163OSM   H15S18354   2.110   4.699   3.788 -1.0107 -0.8763 -0.8346
  163OSM   H15T18355   1.948   4.724   3.726 -0.9469  2.1065 -0.4350
  163OSM   C16S18356   1.973   4.800   3.921  0.8582  0.3867  0.7110
  163OSM   H16S18357   2.034   4.865   3.988 -0.4331 -0.0043  2.3431
  163OSM   H16T18358   1.969   4.708   3.983 -1.5602  0.1106  0.2441
  163OSM   C17S18359   1.828   4.862   3.917  0.0513 -0.6539 -0.3872
  163OSM   H17S18360   1.767   4.792   3.857  1.0533 -0.3997 -1.7464
  163OSM   H17T18361   1.846   4.952   3.855  2.8865 -0.5192  0.4766
  163OSM   C18S18362   1.756   4.897   4.052  0.7025 -0.6281 -0.0953
  163OSM   H18S18363   1.822   4.967   4.107  3.6252 -0.6996 -3.1893
  163OSM   H18T18364   1.754   4.794   4.094 -0.5517 -0.5789 -0.0123
  163OSM   H18U18365   1.659   4.949   4.043  1.7461  1.2475 -0.9589
  163OSM    C1F18366   1.969   5.166   2.401 -0.5276 -0.4360 -0.5774
  163OSM     OF18367   1.855   5.211   2.402 -0.1449  0.4553 -0.4054
  163OSM    C2F18368   2.084   5.256   2.401  0.1352 -0.0006  0.5463
  163OSM    H2F18369   2.064   5.339   2.330 -1.1201  0.0025  0.8797
  163OSM    H2G18370   2.164   5.189   2.362 -0.8888 -0.7210 -0.3751
  163OSM    C3F18371   2.109   5.302   2.539  0.3195  0.0388 -0.2260
  163OSM    H3F18372   2.132   5.215   2.604  0.2144 -0.8614 -1.3537
  163OSM    H3G18373   2.031   5.369   2.582  0.6864  1.0638 -1.0939
  163OSM    C4F18374   2.230   5.392   2.551 -0.3041  0.0952  0.0150
  163OSM    H4F18375   2.222   5.491   2.501  0.2674  0.4643  0.6338
  163OSM    H4G18376   2.320   5.344   2.508  1.8853  3.0580  0.9691
  163OSM    C5F18377   2.264   5.420   2.700 -0.0224  0.0497 -0.4376
  163OSM    H5F18378   2.308   5.335   2.758  0.9972  0.8666  0.0199
  163OSM    H5G18379   2.167   5.455   2.739  0.2999  0.3781  0.0841
  163OSM    C6F18380   2.362   5.534   2.716  0.2512 -0.0472 -0.1109
  163OSM    H6F18381   2.318   5.615   2.654 -2.0562 -0.2369  1.1548
  163OSM    H6G18382   2.460   5.504   2.672  0.8802  1.9995 -0.2205
  163OSM    C7F18383   2.358   5.586   2.870 -0.2625 -0.2003 -0.7096
  163OSM    H7F18384   2.252   5.597   2.902  0.6381  0.9470  2.1976
  163OSM    H7G18385   2.399   5.688   2.880  0.4341 -0.4474 -0.9983
  163OSM    C8F18386   2.430   5.503   2.971 -0.9683 -0.7355 -0.2495
  163OSM    H8F18387   2.533   5.503   2.930 -1.3864  0.7190 -1.3775
  163OSM    H8G18388   2.406   5.394   2.966  1.4567 -1.4618  1.9070
  163OSM    C9F18389   2.417   5.550   3.113 -0.3114  0.3870 -0.4683
  163OSM    H9F18390   2.319   5.537   3.162 -0.3361  2.7061  0.2306
  163OSM   C10F18391   2.515   5.599   3.195 -0.1627  0.0056  0.6273
  163OSM   H10F18392   2.495   5.625   3.299 -0.3651 -3.5117  1.6065
  163OSM   C11F18393   2.656   5.617   3.148 -0.3960 -0.9290 -0.5237
  163OSM   H11F18394   2.664   5.696   3.071 -1.9945  0.1941  0.4230
  163OSM   H11G18395   2.688   5.526   3.093  1.3527 -1.5991  1.4356
  163OSM   C12F18396   2.730   5.666   3.273 -0.5929 -0.1541 -0.1161
  163OSM   H12F18397   2.687   5.747   3.336  0.2389  0.7722 -0.7307
  163OSM   H12G18398   2.827   5.707   3.237 -0.8177  0.6827  0.2087
  163OSM   C13F18399   2.767   5.549   3.361 -0.2393 -0.1675  1.2263
  163OSM   H13F18400   2.830   5.473   3.310 -0.3018 -0.0002  0.8980
  163OSM   H13G18401   2.675   5.494   3.390 -0.1976 -0.2983  1.1110
  163OSM   C14F18402   2.834   5.593   3.492  0.5218 -0.1918  0.6971
  163OSM   H14F18403   2.770   5.667   3.545 -0.4124 -0.8851  0.5718
  163OSM   H14G18404   2.936   5.630   3.471 -0.1404  1.2597 -0.1113
  163OSM   C15F18405   2.832   5.468   3.578 -0.0894 -0.3348 -0.6491
  163OSM   H15F18406   2.770   5.383   3.542 -2.3115  1.8258 -2.3362
  163OSM   H15G18407   2.799   5.500   3.679  1.2725 -0.3701 -0.1782
  163OSM   C16F18408   2.974   5.410   3.594  0.2931 -0.8479  0.0784
  163OSM   H16F18409   3.024   5.418   3.495 -2.5347  2.0081 -1.3004
  163OSM   H16G18410   2.978   5.306   3.631  1.3815 -0.2278  1.8749
  163OSM   C17F18411   3.081   5.484   3.681  1.0262  0.0852 -0.7441
  163OSM   H17F18412   3.097   5.587   3.641 -0.7087  0.4456 -0.6119
  163OSM   H17G18413   3.178   5.431   3.690  1.1762  0.6372  1.7220
  163OSM   C18F18414   3.028   5.506   3.825  0.0891  0.4119  0.1269
  163OSM   H18F18415   2.942   5.575   3.833  0.5725  1.1318 -0.7471
  163OSM   H18G18416   3.107   5.564   3.878  0.6935  1.8032 -2.1589
  163OSM   H18H18417   3.018   5.411   3.882 -1.0070  1.9882  2.7844
  164OSM      N18418   5.671   6.173   2.215  0.5123  0.8590  1.1698
  164OSM    C1518419   5.696   6.303   2.270  0.4292 -1.0147  0.4582
  164OSM   H15A18420   5.610   6.346   2.320 -0.2757  0.6138 -2.0013
  164OSM   H15B18421   5.719   6.381   2.200  2.7010 -1.5235  0.5562
  164OSM   H15C18422   5.777   6.298   2.341  2.0672 -2.8320 -1.4252
  164OSM    C1418423   5.602   6.089   2.318  0.2463  0.6239  0.1008
  164OSM   H14A18424   5.495   6.102   2.324  0.0841 -0.6360  0.3331
  164OSM   H14B18425   5.636   6.106   2.419  0.3626 -1.1869  0.4086
  164OSM   H14C18426   5.625   5.984   2.303 -1.0700  0.2018  0.8933
  164OSM    C1318427   5.580   6.180   2.098  0.4894  0.1267 -0.1984
  164OSM   H13A18428   5.618   6.249   2.024 -2.0935  0.7394 -1.0254
  164OSM   H13B18429   5.484   6.214   2.134  0.3441  1.8688 -2.0709
  164OSM   H13C18430   5.570   6.080   2.057  0.2993  0.1562 -0.2212
  164OSM    C1218431   5.808   6.103   2.168  0.0837 -0.0373  0.5720
  164OSM   H12A18432   5.792   6.006   2.122  1.4819  1.0777 -2.5632
  164OSM   H12B18433   5.874   6.086   2.252  2.3533 -0.6269 -1.2206
  164OSM    C1118434   5.883   6.186   2.057 -0.2156  0.5752 -0.6150
  164OSM   H11A18435   5.807   6.201   1.977 -0.8611 -0.6711 -0.2632
  164OSM   H11B18436   5.961   6.123   2.010  0.0003  1.1862 -1.0904
  164OSM      P18437   6.058   6.320   2.201 -0.1872 -0.1627 -0.1740
  164OSM    O1318438   6.126   6.452   2.186  0.0239 -0.6070 -0.2293
  164OSM    O1418439   5.998   6.301   2.328 -1.0403  0.4852 -0.4965
  164OSM    O1118440   6.159   6.205   2.162 -0.0220 -0.2235 -0.2819
  164OSM    O1218441   5.941   6.312   2.090 -0.7725 -0.0128  0.3499
  164OSM    C1S18442   6.268   6.181   2.252 -0.1408  0.6424 -0.0725
  164OSM    H1S18443   6.310   6.274   2.295 -1.1115  0.7309  0.7121
  164OSM    H1T18444   6.351   6.128   2.199 -0.7730 -0.2848 -0.1633
  164OSM     NF18445   6.311   6.100   2.495  0.5862  0.7060 -0.0379
  164OSM    HNF18446   6.387   6.036   2.501 -0.1066 -0.2574 -0.9273
  164OSM    C2S18447   6.224   6.082   2.372  0.4270 -0.3984  0.4085
  164OSM    H2S18448   6.123   6.120   2.399  1.4001  1.0943  2.1664
  164OSM    C3S18449   6.190   5.935   2.323 -0.1671 -0.2563 -0.5206
  164OSM    H3S18450   6.286   5.888   2.292  1.7688  2.8329  0.3450
  164OSM     O318451   6.138   5.935   2.191  0.2996 -0.7038  0.1809
  164OSM    HO318452   6.138   6.027   2.163 -1.6993 -0.8538 -0.4576
  164OSM    C4S18453   6.099   5.864   2.413 -0.5470  0.1799  0.6634
  164OSM    H4S18454   5.997   5.904   2.403 -0.3680  0.5160  0.1380
  164OSM    C5S18455   6.130   5.756   2.495  0.1836 -0.5512  0.1748
  164OSM    H5S18456   6.235   5.723   2.492  0.6209  0.8222 -1.6903
  164OSM    C6S18457   6.035   5.693   2.594  0.5725 -0.2300 -0.1394
  164OSM    H6S18458   6.057   5.585   2.579  0.2665  0.0378 -3.4617
  164OSM    H6T18459   5.930   5.723   2.573 -1.1556 -3.9575  2.3596
  164OSM    C7S18460   6.070   5.735   2.733 -0.4809 -0.0800 -0.4940
  164OSM    H7S18461   6.075   5.846   2.742 -0.4896 -0.1361  0.2743
  164OSM    H7T18462   6.168   5.688   2.752 -2.8285 -5.1447  0.7744
  164OSM    C8S18463   5.978   5.676   2.836  0.0397  0.1436 -0.0648
  164OSM    H8S18464   5.996   5.566   2.831 -1.3369 -0.0814 -0.3076
  164OSM    H8T18465   5.874   5.699   2.805 -0.0008  0.5581  0.3774
  164OSM    C9S18466   6.002   5.733   2.976  0.4304  0.0604 -0.4608
  164OSM    H9S18467   5.931   5.678   3.042 -0.0529 -1.4551 -2.1623
  164OSM    H9T18468   5.971   5.840   2.980  0.5209  0.0642  0.4142
  164OSM   C10S18469   6.141   5.718   3.039 -0.3279  0.5610 -0.0143
  164OSM   H10S18470   6.216   5.786   2.993  0.0451  0.5343  0.5504
  164OSM   H10T18471   6.168   5.611   3.026 -1.2310  0.3648 -0.3763
  164OSM   C11S18472   6.155   5.757   3.185 -0.3582 -0.0003  1.0730
  164OSM   H11S18473   6.107   5.857   3.190 -0.2031  0.2252 -0.9480
  164OSM   H11T18474   6.259   5.771   3.220 -0.2690 -0.4887  1.0077
  164OSM   C12S18475   6.081   5.667   3.289 -0.5512  0.4653  0.6847
  164OSM   H12S18476   6.133   5.569   3.282  1.7735  1.6705  0.0632
  164OSM   H12T18477   5.972   5.647   3.283 -0.6452  1.0135  0.5542
  164OSM   C13S18478   6.117   5.705   3.433 -0.5028 -0.3310  0.5754
  164OSM   H13S18479   6.075   5.806   3.446 -0.3140 -0.4362  2.1698
  164OSM   H13T18480   6.226   5.720   3.448 -0.5390  1.0341 -0.4330
  164OSM   C14S18481   6.056   5.613   3.540  0.2350  0.0442 -0.1625
  164OSM   H14S18482   6.084   5.508   3.519 -2.4341 -0.2923 -2.6192
  164OSM   H14T18483   5.945   5.612   3.540  0.2307  0.2783  0.3444
  164OSM   C15S18484   6.083   5.655   3.683  0.0374 -0.1803 -0.4087
  164OSM   H15S18485   6.041   5.754   3.711  0.3268  0.1252 -1.0439
  164OSM   H15T18486   6.194   5.663   3.687 -0.0810  1.3632  0.8711
  164OSM   C16S18487   6.057   5.542   3.775 -0.1424  0.1579 -0.1946
  164OSM   H16S18488   6.136   5.464   3.778  0.3310  0.6224 -0.4579
  164OSM   H16T18489   5.960   5.494   3.750  0.2155 -0.7956  0.1964
  164OSM   C17S18490   6.048   5.584   3.923  1.1954  0.8981 -1.0317
  164OSM   H17S18491   5.972   5.665   3.926  0.1857 -0.0080  2.2959
  164OSM   H17T18492   6.145   5.625   3.958  1.8508 -0.1206 -1.6023
  164OSM   C18S18493   6.009   5.466   4.011 -0.0878 -0.2990 -0.6160
  164OSM   H18S18494   6.091   5.392   4.018  0.0065 -0.0829  1.4133
  164OSM   H18T18495   5.919   5.410   3.977 -1.2812  1.1751  0.0209
  164OSM   H18U18496   5.986   5.504   4.113  0.9305 -0.2194 -0.4097
  164OSM    C1F18497   6.305   6.215   2.565  0.3701  0.2925 -0.8082
  164OSM     OF18498   6.221   6.298   2.544 -0.1442  0.0015  0.3343
  164OSM    C2F18499   6.400   6.227   2.677 -0.1403 -0.0978  0.2343
  164OSM    H2F18500   6.419   6.335   2.695 -0.0581 -0.3236  1.6175
  164OSM    H2G18501   6.491   6.167   2.654 -0.4499 -0.1932 -0.8029
  164OSM    C3F18502   6.338   6.170   2.806 -0.2113 -0.0119 -0.6358
  164OSM    H3F18503   6.311   6.064   2.788 -1.0754  0.1827 -0.5007
  164OSM    H3G18504   6.245   6.224   2.834  0.4818  0.5981  0.5962
  164OSM    C4F18505   6.420   6.188   2.932  0.7062  0.3652 -0.2173
  164OSM    H4F18506   6.427   6.296   2.956  0.3608  0.2470  0.4412
  164OSM    H4G18507   6.525   6.154   2.917  0.3459 -0.9504  0.0853
  164OSM    C5F18508   6.370   6.109   3.045  0.0468  0.5978  0.0940
  164OSM    H5F18509   6.388   6.003   3.019 -0.6509  0.3610  0.5453
  164OSM    H5G18510   6.262   6.132   3.063  0.3888  1.3830  1.3435
  164OSM    C6F18511   6.426   6.143   3.182  0.5616  0.0312 -0.6287
  164OSM    H6F18512   6.434   6.249   3.211 -0.2796  0.0692 -0.4912
  164OSM    H6G18513   6.533   6.116   3.186  0.0741 -1.8735  2.3001
  164OSM    C7F18514   6.350   6.068   3.295 -0.0403 -0.1968 -0.3561
  164OSM    H7F18515   6.324   5.965   3.262 -1.4032  0.1919 -0.5324
  164OSM    H7G18516   6.262   6.119   3.338 -0.0464 -0.4017 -0.1174
  164OSM    C8F18517   6.442   6.040   3.423  0.0589 -0.3141 -0.4946
  164OSM    H8F18518   6.542   5.997   3.400 -0.0731 -1.3050  0.6860
  164OSM    H8G18519   6.384   5.968   3.485 -0.9791  1.3478  0.5630
  164OSM    C9F18520   6.457   6.172   3.502  1.3051 -0.1760  0.7865
  164OSM    H9F18521   6.509   6.253   3.449  1.5116  0.2864  1.6848
  164OSM   C10F18522   6.407   6.197   3.625  0.1243 -0.8470  0.0010
  164OSM   H10F18523   6.417   6.300   3.664  0.3192 -1.3523  1.3571
  164OSM   C11F18524   6.325   6.107   3.711 -0.3595  0.5785 -0.0838
  164OSM   H11F18525   6.266   6.043   3.642  0.0184 -0.4135  0.4854
  164OSM   H11G18526   6.257   6.168   3.775  1.8033  1.2413  1.6958
  164OSM   C12F18527   6.409   6.015   3.803  0.3008 -0.3172  0.7060
  164OSM   H12F18528   6.473   6.081   3.864 -0.1999 -1.8150  2.9809
  164OSM   H12G18529   6.472   5.942   3.747  1.2884 -0.0063  1.3776
  164OSM   C13F18530   6.322   5.935   3.902  0.2229 -0.7059  0.1452
  164OSM   H13F18531   6.272   5.847   3.856  0.3759 -1.0328  0.5937
  164OSM   H13G18532   6.245   6.001   3.947 -0.7389 -2.4212  1.1012
  164OSM   C14F18533   6.406   5.896   4.018 -0.3025 -0.0527 -0.3393
  164OSM   H14F18534   6.437   5.990   4.069 -2.7546 -0.0679  1.3313
  164OSM   H14G18535   6.494   5.841   3.979 -0.6259  0.4320 -1.8328
  164OSM   C15F18536   6.347   5.798   4.126 -0.3599 -0.4755  0.3097
  164OSM   H15F18537   6.415   5.775   4.211  1.2254  3.9532  0.5390
  164OSM   H15G18538   6.329   5.705   4.069 -0.9459 -1.3798  1.8951
  164OSM   C16F18539   6.217   5.844   4.186  0.5566  0.1513 -0.1882
  164OSM   H16F18540   6.127   5.826   4.124 -0.2448  2.4380  0.2364
  164OSM   H16G18541   6.210   5.954   4.197 -0.8133  0.3073 -2.1160
  164OSM   C17F18542   6.187   5.785   4.329  0.5424  0.2205 -0.1561
  164OSM   H17F18543   6.279   5.796   4.391  0.8282 -4.1243  0.5517
  164OSM   H17G18544   6.179   5.674   4.328  2.2979  0.0635 -0.7437
  164OSM   C18F18545   6.050   5.824   4.393 -0.9534  0.5594  0.3371
  164OSM   H18F18546   5.968   5.793   4.325 -0.0236 -0.0571 -0.5276
  164OSM   H18G18547   6.047   5.934   4.407  0.0709  0.7387 -0.7204
  164OSM   H18H18548   6.021   5.771   4.487  2.6239 -1.1152  0.6754
  165SAPS     N18549   0.973   1.668   6.466 -0.4689 -0.5731  0.6669
  165SAPS   HN118550   1.014   1.635   6.376 -0.3669  0.3750  0.3508
  165SAPS   HN218551   0.947   1.582   6.517 -1.2954 -1.3126 -0.9425
  165SAPS   HN318552   0.889   1.725   6.445 -0.7247 -1.7541 -1.8630
  165SAPS   C1218553   1.073   1.751   6.541 -0.6071  0.4580  0.0733
  165SAPS  H12A18554   1.079   1.849   6.494 -0.6880  1.5250  2.1555
  165SAPS   C1318555   1.036   1.778   6.690  0.5733 -0.2012  0.0715
  165SAPS  O13A18556   0.932   1.726   6.732  0.0374 -0.2179  0.0004
  165SAPS  O13B18557   1.103   1.858   6.763  0.4505  0.1490 -0.2472
  165SAPS   C1118558   1.214   1.687   6.536 -0.5055 -0.3399 -0.2774
  165SAPS  H11A18559   1.214   1.587   6.585  0.4882  0.4246  1.3676
  165SAPS  H11B18560   1.284   1.755   6.589  1.1897  0.2917 -3.1411
  165SAPS     P18561   1.361   1.735   6.322 -0.0527  0.5535 -0.2917
  165SAPS   O1318562   1.484   1.745   6.406 -0.0310 -0.1419 -0.2823
  165SAPS   O1418563   1.376   1.690   6.186  0.9037 -0.6156  0.0961
  165SAPS   O1218564   1.258   1.654   6.403  0.7632  0.3166 -0.0847
  165SAPS   O1118565   1.289   1.874   6.328 -0.2565 -0.5212  0.5856
  165SAPS    C118566   1.365   1.982   6.269 -0.0374  0.1267 -0.4998
  165SAPS    HA18567   1.433   2.017   6.350 -0.3803  0.4398 -0.3436
  165SAPS    HB18568   1.409   1.953   6.171 -1.5699 -2.8065 -0.4521
  165SAPS    C218569   1.272   2.107   6.243  0.6826  0.1412 -0.1686
  165SAPS    HS18570   1.225   2.129   6.341 -1.7714 -0.3823 -1.1642
  165SAPS   O2118571   1.166   2.071   6.153 -0.1379  0.1401 -0.1768
  165SAPS   C2118572   1.061   2.155   6.162 -0.1018 -0.3400  0.0863
  165SAPS   O2218573   1.061   2.257   6.231 -0.0311  0.6907  0.0792
  165SAPS   C2218574   0.942   2.104   6.079  0.3642  0.5716 -0.0030
  165SAPS   H2R18575   0.879   2.049   6.152 -1.3931  0.9367 -1.1760
  165SAPS   H2S18576   0.874   2.185   6.046 -0.0808  0.7642  1.3331
  165SAPS    C318577   1.364   2.223   6.194  0.2912 -0.1506  0.3934
  165SAPS    HX18578   1.442   2.234   6.272  0.6814 -0.1732  0.0108
  165SAPS    HY18579   1.296   2.310   6.203 -0.2204 -0.6296  1.3605
  165SAPS   O3118580   1.426   2.199   6.064  0.4174 -0.1149  0.0501
  165SAPS   C3118581   1.364   2.260   5.955 -0.2109 -0.0145 -0.4834
  165SAPS   O3218582   1.264   2.334   5.974 -0.3452 -0.0420  0.4387
  165SAPS   C3218583   1.426   2.222   5.826  0.4269  0.1987 -0.3255
  165SAPS   H2X18584   1.463   2.119   5.846 -1.2081 -0.7970 -2.1010
  165SAPS   H2Y18585   1.516   2.285   5.810  0.6234  0.2846  1.0214
  165SAPS   C2318586   0.972   2.022   5.953 -0.3974 -0.1410 -0.1780
  165SAPS   H3R18587   1.077   1.991   5.936  0.2881  2.7585 -1.8702
  165SAPS   H3S18588   0.964   2.086   5.862  1.1296  0.7730  0.3027
  165SAPS   C2418589   0.888   1.894   5.948 -0.2829  0.1455 -0.0694
  165SAPS   H4R18590   0.882   1.846   6.048 -0.5299  1.6579  0.6564
  165SAPS   H4S18591   0.929   1.820   5.876  1.3375  0.7094  0.2470
  165SAPS   C2518592   0.748   1.930   5.903 -0.5327  0.6955 -0.1702
  165SAPS   H5R18593   0.676   1.938   5.986 -2.0788 -1.8585 -1.1029
  165SAPS   C2618594   0.705   1.944   5.776  0.4706  0.5144  0.5936
  165SAPS   H6R18595   0.602   1.967   5.748 -0.0585 -3.1142 -1.0729
  165SAPS   C2718596   0.796   1.910   5.658 -0.5434 -0.3099 -0.0907
  165SAPS   H7R18597   0.900   1.890   5.691 -0.6174 -0.9580 -0.2543
  165SAPS   H7S18598   0.799   1.997   5.589  1.0555  0.0092  0.3392
  165SAPS   C2818599   0.749   1.785   5.596  0.0579  0.6967  0.6755
  165SAPS   H8R18600   0.709   1.715   5.670 -0.8457 -0.1246 -0.5553
  165SAPS   C2918601   0.736   1.765   5.463 -0.4491 -0.0476 -0.1246
  165SAPS   H9R18602   0.704   1.664   5.436 -1.1593 -0.0307  0.6127
  165SAPS  C21018603   0.776   1.857   5.348 -0.5150  0.2576 -0.5298
  165SAPS  H10R18604   0.880   1.833   5.318  0.6613  1.4951  2.1931
  165SAPS  H10S18605   0.791   1.957   5.393 -0.2114  0.4156 -0.9737
  165SAPS  C21118606   0.669   1.855   5.237 -0.2534 -0.7397  0.5110
  165SAPS  H11R18607   0.602   1.942   5.245  2.0727  1.2872 -0.6874
  165SAPS  C21218608   0.672   1.772   5.134  0.1093  1.0306 -0.1052
  165SAPS  H12R18609   0.591   1.775   5.059  1.5163 -0.4539 -1.7773
  165SAPS  C21318610   0.776   1.659   5.108  0.0401  0.1698  0.2027
  165SAPS  H13R18611   0.844   1.637   5.193  2.6877  0.9106 -1.5848
  165SAPS  H13S18612   0.836   1.684   5.018  0.1417  0.8226  0.4492
  165SAPS  C21418613   0.715   1.529   5.063  0.5028  1.2301  0.0103
  165SAPS  H14R18614   0.609   1.521   5.090  0.8191  3.5523  2.2688
  165SAPS  C21518615   0.766   1.423   4.994 -0.5239 -0.1246 -0.4211
  165SAPS  H15R18616   0.708   1.332   4.972  0.1833 -0.6900  0.0271
  165SAPS  C21618617   0.901   1.424   4.932 -0.1727 -0.3228  0.4507
  165SAPS  H16R18618   0.914   1.506   4.859  1.6456 -1.7601 -0.9530
  165SAPS  H16S18619   0.899   1.334   4.866  0.7933 -0.3987  0.5099
  165SAPS  C21718620   1.025   1.433   5.012 -0.9774  0.4960 -0.0419
  165SAPS  H17R18621   1.031   1.533   5.059  3.8299  0.0976  0.7108
  165SAPS  H17S18622   1.108   1.435   4.938 -0.1845  2.6628  0.8523
  165SAPS  C21818623   1.029   1.326   5.121  0.8734  0.1070  0.0806
  165SAPS  H18R18624   1.009   1.221   5.088 -0.1492 -0.7864  3.1677
  165SAPS  H18S18625   0.938   1.334   5.185 -0.0827 -2.0675 -0.8690
  165SAPS  C21918626   1.168   1.320   5.191  0.5974  0.4619 -0.9113
  165SAPS  H19R18627   1.181   1.417   5.243  1.1129 -0.2036  0.2505
  165SAPS  H19S18628   1.241   1.327   5.108  0.0910  1.1308 -1.3074
  165SAPS  C22018629   1.197   1.195   5.277  0.2744  0.3176 -0.2588
  165SAPS  H20R18630   1.177   1.092   5.240 -1.5082 -1.4449  4.7256
  165SAPS  H20S18631   1.133   1.211   5.367 -2.3602 -2.5919 -1.4440
  165SAPS  H20T18632   1.304   1.198   5.308  0.1009  0.4463  0.3466
  165SAPS   C3318633   1.330   2.229   5.705 -0.5982 -1.1511 -0.6050
  165SAPS   H3X18634   1.305   2.338   5.706  2.5317 -0.3195  0.9193
  165SAPS   H3Y18635   1.237   2.171   5.721 -0.6985 -0.6800  0.6834
  165SAPS   C3418636   1.397   2.199   5.572 -0.1067 -0.0651  0.1902
  165SAPS   H4X18637   1.320   2.156   5.504  1.1061 -1.9392 -0.0936
  165SAPS   H4Y18638   1.473   2.118   5.573 -0.6311 -0.7600 -3.3774
  165SAPS   C3518639   1.462   2.330   5.517 -0.2357  0.0399  0.3734
  165SAPS   H5X18640   1.530   2.383   5.587  0.6647  2.7437 -2.3173
  165SAPS   H5Y18641   1.378   2.403   5.511  0.2175  0.7143  1.7332
  165SAPS   C3618642   1.540   2.312   5.384 -0.0360 -0.7054  0.2230
  165SAPS   H6X18643   1.456   2.285   5.317  0.0984 -1.2158  0.2568
  165SAPS   H6Y18644   1.623   2.239   5.392 -0.5217 -1.3761 -0.7614
  165SAPS   C3718645   1.601   2.443   5.340  0.0491 -0.9332 -0.4405
  165SAPS   H7X18646   1.682   2.463   5.413 -0.9468 -0.1148  0.4799
  165SAPS   H7Y18647   1.520   2.519   5.351  0.6016 -0.6760  2.5493
  165SAPS   C3818648   1.648   2.451   5.194  0.3875 -0.3388  0.0609
  165SAPS   H8X18649   1.576   2.414   5.118 -0.9780 -1.0988  1.6566
  165SAPS   H8Y18650   1.736   2.389   5.166  0.1857  0.2573 -2.0592
  165SAPS   C3918651   1.686   2.592   5.159 -0.0999 -0.7822  0.0541
  165SAPS   H9X18652   1.759   2.638   5.229  2.8449 -3.7320 -0.8169
  165SAPS   H9Y18653   1.596   2.657   5.150 -1.3914 -2.5693 -0.2952
  165SAPS  C31018654   1.734   2.598   5.007 -0.5646 -0.0750 -0.2782
  165SAPS  H10X18655   1.673   2.526   4.948  0.5728  0.2116 -1.8542
  165SAPS  H10Y18656   1.832   2.547   5.003 -0.8201 -0.5987 -0.0731
  165SAPS  C31118657   1.742   2.735   4.943  0.2899  0.8265  0.1435
  165SAPS  H11X18658   1.832   2.779   4.990  0.2459  1.4707 -0.3591
  165SAPS  H11Y18659   1.663   2.807   4.976 -0.6240 -0.0690 -0.0340
  165SAPS  C31218660   1.747   2.741   4.791  0.2074  0.7830 -0.7703
  165SAPS  H12X18661   1.720   2.642   4.749 -1.1145  1.0052 -0.4812
  165SAPS  H12Y18662   1.846   2.766   4.747 -0.0665  0.9907 -1.2707
  165SAPS  C31318663   1.651   2.850   4.731 -0.1266 -0.2827 -0.5758
  165SAPS  H13X18664   1.568   2.857   4.804 -1.0485 -2.7045 -1.3093
  165SAPS  H13Y18665   1.613   2.826   4.630 -0.7301  2.2904 -1.0461
  165SAPS  C31418666   1.740   2.979   4.706  0.3807 -0.1028 -0.7483
  165SAPS  H14X18667   1.813   2.982   4.789  0.2399 -0.8560 -0.5928
  165SAPS  H14Y18668   1.679   3.071   4.718  0.2053 -0.4819  1.7321
  165SAPS  C31518669   1.814   2.976   4.571 -0.7629 -0.5091  0.7088
  165SAPS  H15X18670   1.743   2.975   4.485 -0.9735 -0.0265  0.8705
  165SAPS  H15Y18671   1.882   2.889   4.568 -0.0216  0.0818  0.2199
  165SAPS  C31618672   1.905   3.099   4.573  0.2304 -0.3684  0.0418
  165SAPS  H16X18673   1.969   3.080   4.661 -0.5985 -0.2504  0.6825
  165SAPS  H16Y18674   1.834   3.183   4.590 -0.8554 -1.2131 -0.2324
  165SAPS  C31718675   1.996   3.143   4.452  0.8951  0.4643  0.1512
  165SAPS  H17X18676   2.048   3.055   4.409  0.4661  1.7784 -3.4047
  165SAPS  H17Y18677   2.073   3.207   4.499  0.3164 -1.2184  3.6627
  165SAPS  C31818678   1.910   3.206   4.336  0.1089 -0.2863 -0.3912
  165SAPS  H18X18679   1.847   3.288   4.377  2.6843  0.3300  2.6895
  165SAPS  H18Y18680   1.857   3.122   4.286 -0.1248 -0.8603  0.8026
  165SAPS  H18Z18681   1.979   3.251   4.262  0.4646  1.6568  1.0416
  166SAPS     N18682   0.741   0.314   6.903 -0.2305 -0.1618  0.0326
  166SAPS   HN118683   0.806   0.393   6.923 -0.5435  1.4214 -4.1475
  166SAPS   HN218684   0.745   0.232   6.967 -0.7474  0.2726  0.6361
  166SAPS   HN318685   0.764   0.285   6.806  2.1624  0.7627  0.2447
  166SAPS   C1218686   0.595   0.363   6.919 -0.7283  0.3684  0.4451
  166SAPS  H12A18687   0.537   0.272   6.914 -0.7055  0.2435  2.0718
  166SAPS   C1318688   0.564   0.425   7.059 -0.1636  0.7041  0.5286
  166SAPS  O13A18689   0.656   0.425   7.146 -0.0059  0.2442  0.0419
  166SAPS  O13B18690   0.450   0.464   7.079  0.0592  0.3836 -0.6092
  166SAPS   C1118691   0.576   0.469   6.801  0.2614  0.2081  0.5229
  166SAPS  H11A18692   0.622   0.561   6.843 -0.7425 -0.0489  2.2367
  166SAPS  H11B18693   0.468   0.488   6.784  0.2698 -1.7384 -2.5206
  166SAPS     P18694   0.557   0.368   6.567 -0.5246 -0.3233 -0.4502
  166SAPS   O1318695   0.657   0.324   6.467  0.1416 -0.7562 -0.0557
  166SAPS   O1418696   0.470   0.275   6.642 -0.4060  0.0102 -0.3670
  166SAPS   O1218697   0.645   0.437   6.674  0.0810 -0.4055 -0.2690
  166SAPS   O1118698   0.486   0.499   6.512 -0.0264 -0.1034  0.6741
  166SAPS    C118699   0.547   0.625   6.483  0.3244 -0.1732 -0.1998
  166SAPS    HA18700   0.490   0.701   6.540 -0.5545  0.5518 -1.9836
  166SAPS    HB18701   0.650   0.624   6.526  0.6950  0.1582 -1.0421
  166SAPS    C218702   0.555   0.658   6.333 -0.2159 -0.5534  0.5665
  166SAPS    HS18703   0.587   0.764   6.322 -2.0451 -0.0619 -0.3205
  166SAPS   O2118704   0.430   0.648   6.268  0.7957 -0.1356  0.5001
  166SAPS   C2118705   0.350   0.746   6.298  0.3380 -0.3390  0.3608
  166SAPS   O2218706   0.371   0.836   6.379 -0.0024  0.0260  0.0229
  166SAPS   C2218707   0.223   0.741   6.215  0.9341 -0.2039 -0.0332
  166SAPS   H2R18708   0.178   0.640   6.232  1.4807 -0.1755  1.7032
  166SAPS   H2S18709   0.157   0.826   6.243  1.1671 -0.6027  1.8495
  166SAPS    C318710   0.652   0.562   6.260 -0.7698 -0.4713 -0.5517
  166SAPS    HX18711   0.599   0.465   6.265 -0.9398 -0.3307  0.6651
  166SAPS    HY18712   0.753   0.550   6.306 -0.8171 -0.6016 -0.4833
  166SAPS   O3118713   0.656   0.604   6.118  0.2721 -0.5272 -0.5181
  166SAPS   C3118714   0.763   0.645   6.069  0.2251  0.3830  0.6237
  166SAPS   O3218715   0.852   0.706   6.128 -0.1503 -0.3469 -0.5484
  166SAPS   C3218716   0.766   0.602   5.918  0.1816  0.0918 -0.2035
  166SAPS   H2X18717   0.698   0.674   5.867 -0.1092 -1.4500 -2.1277
  166SAPS   H2Y18718   0.716   0.503   5.913  1.3051 -0.4317 -1.3513
  166SAPS   C2318719   0.241   0.746   6.062  0.7862  0.6123  0.4981
  166SAPS   H3R18720   0.285   0.646   6.041  0.8442  0.9224 -0.9235
  166SAPS   H3S18721   0.313   0.826   6.034  1.7459  0.2223  1.7290
  166SAPS   C2418722   0.099   0.758   5.989 -0.3672 -0.5816 -0.0184
  166SAPS   H4R18723   0.083   0.867   6.006 -2.0538 -1.0495  1.7887
  166SAPS   H4S18724   0.027   0.696   6.046  1.3324 -0.0629  2.8964
  166SAPS   C2518725   0.089   0.727   5.838  0.1418  0.0267 -0.6290
  166SAPS   H5R18726   0.132   0.629   5.810  1.0405  0.2143  0.0454
  166SAPS   C2618727   0.046   0.798   5.731  0.3335 -0.4891 -0.0228
  166SAPS   H6R18728   0.044   0.756   5.629  0.9250  2.3966 -1.3176
  166SAPS   C2718729  -0.012   0.938   5.739 -0.5545 -0.0031 -0.0417
  166SAPS   H7R18730  -0.020   0.963   5.847 -0.7259  0.5622 -0.1809
  166SAPS   H7S18731  -0.118   0.937   5.705 -0.7885  0.3096  0.6710
  166SAPS   C2818732   0.076   1.044   5.661 -0.0879 -0.2415 -0.8376
  166SAPS   H8R18733   0.103   1.131   5.723 -2.5077 -0.4632  0.6929
  166SAPS   C2918734   0.132   1.045   5.540  0.2306 -0.3754  0.2436
  166SAPS   H9R18735   0.201   1.128   5.521 -1.1655  1.7896  3.8184
  166SAPS  C21018736   0.105   0.937   5.434 -0.3966 -0.2658  0.0167
  166SAPS  H10R18737   0.109   0.830   5.466  1.6775 -0.3189 -0.3105
  166SAPS  H10S18738   0.191   0.946   5.365 -0.3142  0.2491  0.1817
  166SAPS  C21118739  -0.027   0.960   5.372 -0.3175  0.4271  0.1329
  166SAPS  H11R18740  -0.112   0.925   5.432 -0.8970 -0.0550 -0.9268
  166SAPS  C21218741  -0.050   1.004   5.249  0.4091  0.1625 -0.3194
  166SAPS  H12R18742  -0.155   1.007   5.216  0.6358 -0.4843 -1.1390
  166SAPS  C21318743   0.057   1.047   5.149 -0.5706  0.4279  0.1741
  166SAPS  H13R18744   0.101   0.951   5.112  1.4698  1.3801  0.0166
  166SAPS  H13S18745   0.133   1.115   5.191  0.3027 -0.7945  0.6501
  166SAPS  C21418746  -0.005   1.110   5.030 -0.4767 -0.4745 -0.2431
  166SAPS  H14R18747  -0.010   1.220   5.028  0.7902 -0.4058 -1.5274
  166SAPS  C21518748  -0.038   1.056   4.909 -0.0015 -0.2218 -0.1601
  166SAPS  H15R18749  -0.096   1.122   4.842  0.6628  1.6162  0.9969
  166SAPS  C21618750  -0.024   0.905   4.884  0.0248 -0.0876 -0.7330
  166SAPS  H16R18751  -0.022   0.853   4.982  0.3432  1.6979  0.2563
  166SAPS  H16S18752   0.068   0.872   4.832  0.9137 -1.6051  1.6281
  166SAPS  C21718753  -0.146   0.862   4.795 -0.7112  0.2218  0.0586
  166SAPS  H17R18754  -0.239   0.876   4.854 -1.5655 -0.5351 -1.0798
  166SAPS  H17S18755  -0.131   0.754   4.777  1.4222  0.4100  0.4446
  166SAPS  C21818756  -0.156   0.926   4.653 -0.2308  0.0521 -0.1906
  166SAPS  H18R18757  -0.060   0.918   4.598  0.8647 -0.6921  1.7346
  166SAPS  H18S18758  -0.173   1.035   4.665 -0.9581 -0.3553  4.3356
  166SAPS  C21918759  -0.264   0.858   4.572 -0.1679 -0.0675  0.1543
  166SAPS  H19R18760  -0.361   0.866   4.626  0.1080 -2.1980  1.0730
  166SAPS  H19S18761  -0.250   0.749   4.555  1.1238  0.0576  0.3764
  166SAPS  C22018762  -0.276   0.935   4.438 -0.1136 -0.2750  0.4639
  166SAPS  H20R18763  -0.340   0.875   4.370 -0.3786  0.2180  0.2789
  166SAPS  H20S18764  -0.178   0.944   4.385  0.6560 -0.9752  1.7098
  166SAPS  H20T18765  -0.316   1.037   4.449 -0.9968 -0.4589 -0.8545
  166SAPS   C3318766   0.908   0.582   5.853  0.1416 -0.3898 -0.4191
  166SAPS   H3X18767   0.962   0.500   5.905 -1.7774 -0.8177  1.0417
  166SAPS   H3Y18768   0.957   0.680   5.873  0.8944 -0.6526 -0.9312
  166SAPS   C3418769   0.895   0.578   5.695  0.6606  0.4294  0.7162
  166SAPS   H4X18770   0.999   0.594   5.660  0.7674  3.0584  1.9928
  166SAPS   H4Y18771   0.832   0.661   5.658 -0.4969 -0.0030  1.6054
  166SAPS   C3518772   0.850   0.439   5.654 -0.1411 -0.2012 -0.0056
  166SAPS   H5X18773   0.757   0.410   5.705  0.5614 -1.8238  0.3946
  166SAPS   H5Y18774   0.924   0.360   5.679 -0.3638  0.3824  2.7416
  166SAPS   C3618775   0.814   0.426   5.496  0.0332  0.0648 -0.2097
  166SAPS   H6X18776   0.734   0.496   5.465  0.5796  0.4070 -0.8937
  166SAPS   H6Y18777   0.773   0.323   5.487 -0.7271  0.1899  1.4621
  166SAPS   C3718778   0.929   0.441   5.392  0.0155 -0.3785 -0.3146
  166SAPS   H7X18779   1.018   0.381   5.420  0.6340  1.4408  1.9398
  166SAPS   H7Y18780   0.944   0.551   5.384 -0.7726 -0.2139  0.3562
  166SAPS   C3818781   0.893   0.400   5.248  0.1699 -0.5365  0.7059
  166SAPS   H8X18782   0.786   0.421   5.228  0.5712 -0.4534 -1.6111
  166SAPS   H8Y18783   0.883   0.289   5.239 -1.0232 -0.3965  0.2015
  166SAPS   C3918784   0.982   0.454   5.139 -0.5041  0.1838 -0.0845
  166SAPS   H9X18785   1.084   0.411   5.146 -0.5816 -0.1498 -0.9021
  166SAPS   H9Y18786   0.998   0.561   5.164 -0.0836 -0.2111  1.4111
  166SAPS  C31018787   0.916   0.444   4.995 -0.5082  0.0689 -1.2378
  166SAPS  H10X18788   0.814   0.486   4.991 -0.7654 -0.4195  0.0316
  166SAPS  H10Y18789   0.924   0.337   4.964  0.3820 -0.8411  1.8362
  166SAPS  C31118790   1.007   0.514   4.892 -0.1286  0.4039 -0.2420
  166SAPS  H11X18791   1.114   0.491   4.912  0.1338  2.2913  0.6843
  166SAPS  H11Y18792   1.005   0.624   4.908  1.0215  0.6488 -1.5829
  166SAPS  C31218793   0.982   0.489   4.738  0.1070  0.1862 -0.2533
  166SAPS  H12X18794   0.877   0.479   4.703 -0.0770  0.4274  0.2256
  166SAPS  H12Y18795   1.028   0.392   4.707 -1.2016 -0.8974  1.0227
  166SAPS  C31318796   1.049   0.602   4.650  0.7525  0.0784 -0.3870
  166SAPS  H13X18797   1.155   0.613   4.680  0.8175  1.7147 -1.0959
  166SAPS  H13Y18798   0.999   0.699   4.674 -0.6207  0.0742 -2.9336
  166SAPS  C31418799   1.038   0.589   4.495 -1.2225  0.1378 -0.0719
  166SAPS  H14X18800   0.929   0.569   4.481 -0.8588 -1.5726 -0.6954
  166SAPS  H14Y18801   1.086   0.502   4.446  0.9562  1.8237 -1.0786
  166SAPS  C31518802   1.089   0.714   4.419 -0.0215  0.0465  0.0655
  166SAPS  H15X18803   1.049   0.803   4.471 -1.0200 -1.2085  1.5581
  166SAPS  H15Y18804   1.047   0.711   4.316  0.2209  0.6314 -0.0497
  166SAPS  C31618805   1.240   0.714   4.415 -0.1529 -1.4008  0.1767
  166SAPS  H16X18806   1.280   0.638   4.345  0.8824  0.9374 -1.9577
  166SAPS  H16Y18807   1.290   0.710   4.514  0.0841 -1.6475  0.0466
  166SAPS  C31718808   1.286   0.846   4.357  0.0548  0.1660 -0.2254
  166SAPS  H17X18809   1.251   0.927   4.424  2.6295  1.7944 -0.7029
  166SAPS  H17Y18810   1.244   0.849   4.254 -1.6677  1.8927  0.4512
  166SAPS  C31818811   1.439   0.853   4.354  0.2095 -0.3184  0.4998
  166SAPS  H18X18812   1.477   0.753   4.322 -0.8301 -0.2532 -1.0710
  166SAPS  H18Y18813   1.486   0.861   4.454 -0.4263  0.0009  0.7820
  166SAPS  H18Z18814   1.487   0.927   4.287  1.2512 -0.8300  0.6686
  167SAPS     N18815   2.758   2.360   6.608  0.3303  0.2127 -0.1427
  167SAPS   HN118816   2.769   2.360   6.504  1.2508 -0.9987 -0.0632
  167SAPS   HN218817   2.662   2.384   6.641  0.7071  0.2420  0.9747
  167SAPS   HN318818   2.828   2.432   6.637 -0.0020  0.4976 -0.0354
  167SAPS   C1218819   2.802   2.229   6.655 -0.4523 -0.4734 -0.3789
  167SAPS  H12A18820   2.909   2.238   6.660 -0.4093  0.6004 -2.2630
  167SAPS   C1318821   2.750   2.186   6.797 -0.3689  0.0292 -0.6599
  167SAPS  O13A18822   2.701   2.279   6.872 -0.0864  0.2860  0.4681
  167SAPS  O13B18823   2.799   2.084   6.848  0.0778  0.1624  0.3346
  167SAPS   C1118824   2.758   2.122   6.548  0.2928  0.3717 -0.9035
  167SAPS  H11A18825   2.797   2.153   6.448  3.6748  1.0555  0.4718
  167SAPS  H11B18826   2.648   2.137   6.545  0.1731 -0.2519 -0.0826
  167SAPS     P18827   2.928   1.923   6.544  0.3621 -0.2389 -0.2179
  167SAPS   O1318828   3.039   2.015   6.575  0.4167  0.0380  0.3794
  167SAPS   O1418829   2.939   1.799   6.624 -0.1815 -0.1595  0.3951
  167SAPS   O1218830   2.788   1.987   6.578 -0.1344  0.1684  0.9008
  167SAPS   O1118831   2.926   1.887   6.389  0.1340  0.0257  0.0056
  167SAPS    C118832   2.802   1.844   6.330  0.6166  0.3469 -0.0352
  167SAPS    HA18833   2.819   1.748   6.277  2.0705 -0.6717  2.1300
  167SAPS    HB18834   2.721   1.830   6.405  1.7295  1.1289  1.3768
  167SAPS    C218835   2.745   1.945   6.226 -0.2659 -0.1991 -0.4148
  167SAPS    HS18836   2.707   2.033   6.281 -0.0977 -0.3536 -0.0499
  167SAPS   O2118837   2.635   1.882   6.152  0.2520  0.0562 -0.5983
  167SAPS   C2118838   2.514   1.897   6.208  0.4775  0.0440  0.4442
  167SAPS   O2218839   2.489   1.965   6.311  0.0102  0.4048  0.2252
  167SAPS   C2218840   2.409   1.826   6.123 -0.2596  0.1504  0.9178
  167SAPS   H2R18841   2.456   1.768   6.040 -2.0196  1.2761 -0.9363
  167SAPS   H2S18842   2.345   1.773   6.197 -2.5229  3.2142  1.3444
  167SAPS    C318843   2.859   1.997   6.137 -0.0769 -0.8783  0.3126
  167SAPS    HX18844   2.906   1.916   6.077 -0.2607  1.0215 -2.6210
  167SAPS    HY18845   2.938   2.046   6.198  0.0987 -0.1151 -0.5069
  167SAPS   O3118846   2.810   2.081   6.034 -1.0665  0.3522 -0.5744
  167SAPS   C3118847   2.757   2.196   6.075 -1.0336 -0.7367 -0.4352
  167SAPS   O3218848   2.766   2.235   6.193 -0.4432 -0.6516 -0.2352
  167SAPS   C3218849   2.721   2.278   5.958  0.6110  0.5214  0.0713
  167SAPS   H2X18850   2.662   2.369   5.982  0.8213  0.8303 -0.5678
  167SAPS   H2Y18851   2.657   2.222   5.887 -1.1650 -0.0238  1.9750
  167SAPS   C2318852   2.323   1.928   6.047  0.1876 -0.5101  0.2306
  167SAPS   H3R18853   2.248   1.985   6.107  0.1054 -0.8466  0.4516
  167SAPS   H3S18854   2.261   1.863   5.982  0.2249 -2.8322  2.3547
  167SAPS   C2418855   2.387   2.034   5.960  0.3154 -0.3569  0.5297
  167SAPS   H4R18856   2.479   2.000   5.908 -0.6719 -0.6093 -1.1028
  167SAPS   H4S18857   2.425   2.114   6.028 -0.1895 -1.3520  2.0455
  167SAPS   C2518858   2.286   2.105   5.882  0.1854 -0.0002  0.3106
  167SAPS   H5R18859   2.212   2.146   5.952  1.9343  0.7765  1.8084
  167SAPS   C2618860   2.287   2.118   5.746  0.2334 -0.2157  0.4106
  167SAPS   H6R18861   2.198   2.164   5.701  0.5274 -0.7317 -0.7315
  167SAPS   C2718862   2.389   2.070   5.650 -0.4585  0.6112 -0.2186
  167SAPS   H7R18863   2.343   2.068   5.549 -0.0157 -0.1098 -0.4204
  167SAPS   H7S18864   2.414   1.965   5.677  0.3674  1.1310  1.1989
  167SAPS   C2818865   2.525   2.142   5.644 -0.3787  0.1900  0.4953
  167SAPS   H8R18866   2.585   2.121   5.734 -0.0652 -3.2220 -0.3604
  167SAPS   C2918867   2.582   2.187   5.529  0.0537  0.6112  0.1233
  167SAPS   H9R18868   2.682   2.231   5.529  1.1658 -1.6982  1.4772
  167SAPS  C21018869   2.522   2.174   5.389 -0.4518 -0.7902  0.3165
  167SAPS  H10R18870   2.454   2.089   5.367  0.5184 -1.8328  1.2292
  167SAPS  H10S18871   2.614   2.138   5.338  0.4025  1.2625  0.3032
  167SAPS  C21118872   2.487   2.315   5.338  0.3973 -0.1552 -0.8515
  167SAPS  H11R18873   2.396   2.359   5.381  1.1680 -0.8635  1.7166
  167SAPS  C21218874   2.557   2.397   5.257 -0.4816  0.0515  0.2024
  167SAPS  H12R18875   2.517   2.490   5.214 -2.5026 -1.2561 -0.8962
  167SAPS  C21318876   2.683   2.359   5.185  0.2259  0.3155  0.0389
  167SAPS  H13R18877   2.653   2.279   5.114  0.0343 -0.0568  0.5303
  167SAPS  H13S18878   2.748   2.297   5.250 -1.0334 -1.5744 -0.4161
  167SAPS  C21418879   2.764   2.473   5.124  0.1530  1.2066 -0.1486
  167SAPS  H14R18880   2.815   2.542   5.192  2.2668  0.7148 -1.1643
  167SAPS  C21518881   2.780   2.485   4.987  0.2335  0.1165 -1.0967
  167SAPS  H15R18882   2.852   2.558   4.946 -1.2239  0.7809 -2.5605
  167SAPS  C21618883   2.728   2.399   4.876  0.0906 -0.2555 -0.2947
  167SAPS  H16R18884   2.648   2.454   4.822  1.1312  1.4849 -0.1609
  167SAPS  H16S18885   2.675   2.307   4.908 -0.9364 -0.0426 -1.3274
  167SAPS  C21718886   2.835   2.362   4.774  0.5704  0.4788 -0.1113
  167SAPS  H17R18887   2.793   2.288   4.702 -1.5291 -0.5225  2.0382
  167SAPS  H17S18888   2.924   2.312   4.820  0.2457 -1.6845 -1.6617
  167SAPS  C21818889   2.881   2.485   4.700  0.1784  0.6321 -0.2549
  167SAPS  H18R18890   2.935   2.563   4.759  0.4699 -0.6908  1.2826
  167SAPS  H18S18891   2.790   2.521   4.647  0.7798  0.0285 -1.7493
  167SAPS  C21918892   2.975   2.445   4.587 -0.4388 -0.5996 -0.5986
  167SAPS  H19R18893   2.920   2.373   4.522 -0.7463  0.4547 -1.5519
  167SAPS  H19S18894   3.065   2.400   4.635  1.2163  4.4202  1.7229
  167SAPS  C22018895   3.022   2.568   4.502 -0.0001 -0.3416  0.3729
  167SAPS  H20R18896   2.928   2.604   4.455 -0.0285 -2.2615 -1.1637
  167SAPS  H20S18897   3.104   2.532   4.437 -0.5090  2.3215 -1.9537
  167SAPS  H20T18898   3.068   2.652   4.559  2.8599 -1.5010 -0.0717
  167SAPS   C3318899   2.858   2.324   5.902 -0.0705  0.2524 -0.8582
  167SAPS   H3X18900   2.914   2.232   5.875  1.6471  1.3220 -1.1314
  167SAPS   H3Y18901   2.908   2.380   5.983 -1.8989  1.0878 -0.2483
  167SAPS   C3418902   2.848   2.421   5.782  0.1167  0.1064 -0.5164
  167SAPS   H4X18903   2.845   2.520   5.830  2.2798 -0.9232  2.0241
  167SAPS   H4Y18904   2.751   2.398   5.734  0.4081 -0.1030 -1.0252
  167SAPS   C3518905   2.962   2.397   5.685  0.0295 -0.1157  0.0068
  167SAPS   H5X18906   2.979   2.287   5.679  1.4416 -0.3024  4.1957
  167SAPS   H5Y18907   3.056   2.449   5.711  0.3908  0.2205 -1.8425
  167SAPS   C3618908   2.958   2.456   5.544 -0.7601  0.0163 -0.3520
  167SAPS   H6X18909   2.948   2.567   5.547  1.3807  0.2654 -0.6455
  167SAPS   H6Y18910   2.864   2.422   5.495 -1.2599 -0.3919  0.8449
  167SAPS   C3718911   3.086   2.411   5.466  0.3060  0.5696 -0.3330
  167SAPS   H7X18912   3.116   2.304   5.479 -1.1996 -0.1331 -2.2553
  167SAPS   H7Y18913   3.177   2.459   5.508  0.5118 -1.8436  2.2768
  167SAPS   C3818914   3.072   2.433   5.311  0.6237 -0.0433 -0.1804
  167SAPS   H8X18915   3.039   2.538   5.295 -0.1323 -0.2139  0.2516
  167SAPS   H8Y18916   2.995   2.361   5.277  1.0020 -0.8819  0.7082
  167SAPS   C3918917   3.196   2.397   5.230  0.0008 -0.0221  0.2552
  167SAPS   H9X18918   3.234   2.296   5.257  5.1721  1.5567 -0.0208
  167SAPS   H9Y18919   3.272   2.472   5.259 -1.8653  1.6516  1.0175
  167SAPS  C31018920   3.178   2.408   5.079 -0.4739 -0.2542  0.2404
  167SAPS  H10X18921   3.151   2.511   5.050 -0.9799 -0.7814 -1.2470
  167SAPS  H10Y18922   3.096   2.339   5.048 -1.6950  1.3007 -0.1091
  167SAPS  C31118923   3.299   2.384   4.994 -0.2167 -0.1970  0.3958
  167SAPS  H11X18924   3.318   2.275   4.997 -0.2298 -0.2167  3.9400
  167SAPS  H11Y18925   3.384   2.431   5.049 -1.5717  1.7681  0.9232
  167SAPS  C31218926   3.285   2.433   4.846  0.5998 -0.3346 -0.5096
  167SAPS  H12X18927   3.270   2.543   4.837 -1.4555 -0.5140  0.2795
  167SAPS  H12Y18928   3.190   2.387   4.813 -0.7075  0.9867  1.2777
  167SAPS  C31318929   3.400   2.391   4.753  0.2699  0.4759  0.7487
  167SAPS  H13X18930   3.400   2.280   4.741 -1.6453  0.6332 -1.3877
  167SAPS  H13Y18931   3.493   2.431   4.798 -0.9902  2.5256  1.6694
  167SAPS  C31418932   3.382   2.438   4.612 -0.1870 -0.6558  0.4562
  167SAPS  H14X18933   3.336   2.539   4.608  3.6222  1.3757  2.1770
  167SAPS  H14Y18934   3.328   2.364   4.550  2.4662 -2.6541  0.3714
  167SAPS  C31518935   3.524   2.453   4.556 -0.1952  0.2434  0.1058
  167SAPS  H15X18936   3.566   2.351   4.545  0.0546  0.3171  0.3855
  167SAPS  H15Y18937   3.596   2.504   4.624  0.0677 -0.6716  0.5215
  167SAPS  C31618938   3.522   2.506   4.407  0.1460  0.0864 -0.1505
  167SAPS  H16X18939   3.477   2.607   4.412  0.9662  0.4242  0.8937
  167SAPS  H16Y18940   3.453   2.451   4.340  0.0191 -0.0297  0.0737
  167SAPS  C31718941   3.662   2.498   4.343 -0.2970  0.1790  0.4602
  167SAPS  H17X18942   3.740   2.538   4.411  2.1433  0.7288 -2.4495
  167SAPS  H17Y18943   3.661   2.566   4.255 -1.1457  0.0071  0.3282
  167SAPS  C31818944   3.700   2.360   4.291 -0.5310 -0.5108 -0.3211
  167SAPS  H18X18945   3.630   2.314   4.218 -1.8345  0.4555  0.2833
  167SAPS  H18Y18946   3.705   2.290   4.376 -1.4212 -0.5278 -0.2799
  167SAPS  H18Z18947   3.806   2.363   4.257  0.7710  0.6851  3.3132
  168SAPS     N18948   6.720   3.373   6.598  0.3206 -0.0957  0.1800
  168SAPS   HN118949   6.781   3.392   6.516 -1.0800 -0.1832 -0.9207
  168SAPS   HN218950   6.770   3.384   6.689 -0.6478 -1.2682  0.8955
  168SAPS   HN318951   6.694   3.273   6.588  0.1351 -0.0768  0.4718
  168SAPS   C1218952   6.591   3.452   6.572  0.8906 -0.1594  0.2409
  168SAPS  H12A18953   6.523   3.425   6.652  2.2408 -3.0930  0.5415
  168SAPS   C1318954   6.603   3.602   6.595 -0.3186 -0.4592 -0.0212
  168SAPS  O13A18955   6.707   3.650   6.654  0.6502  0.6043 -0.1306
  168SAPS  O13B18956   6.506   3.675   6.567 -0.2023 -0.3834  0.5496
  168SAPS   C1118957   6.529   3.416   6.431 -0.3371  0.0894 -0.4258
  168SAPS  H11A18958   6.611   3.449   6.364  0.5112 -1.6305 -0.2956
  168SAPS  H11B18959   6.434   3.472   6.420  1.2685  2.8528 -1.1586
  168SAPS     P18960   6.408   3.210   6.329  0.1098 -0.1417 -0.2417
  168SAPS   O1318961   6.372   3.074   6.373  0.1464  0.1867  0.2048
  168SAPS   O1418962   6.298   3.307   6.312  0.1498 -0.1364 -0.0062
  168SAPS   O1218963   6.511   3.275   6.429 -0.0677 -0.2069 -0.2795
  168SAPS   O1118964   6.496   3.204   6.201  0.7119  0.3862 -0.2592
  168SAPS    C118965   6.494   3.301   6.101  0.6178 -0.1012 -0.1723
  168SAPS    HA18966   6.498   3.404   6.142 -0.7332 -0.2051  0.2599
  168SAPS    HB18967   6.586   3.287   6.040 -1.1069  0.2854 -3.0688
  168SAPS    C218968   6.377   3.286   6.002 -0.1139 -0.0056  1.2885
  168SAPS    HS18969   6.280   3.289   6.056 -0.4658 -0.0863  0.6722
  168SAPS   O2118970   6.400   3.152   5.945  0.3818 -0.0879  0.5600
  168SAPS   C2118971   6.299   3.099   5.880  0.6390 -0.1818 -0.5826
  168SAPS   O2218972   6.186   3.148   5.862  0.5858  0.8334  0.4163
  168SAPS   C2218973   6.340   2.955   5.826 -0.3772 -0.5852 -0.0495
  168SAPS   H2R18974   6.442   2.957   5.783  0.4474  2.1468  1.7831
  168SAPS   H2S18975   6.342   2.894   5.918  0.8403  0.5817  0.7204
  168SAPS    C318976   6.379   3.399   5.891 -0.0855 -0.5848 -0.0070
  168SAPS    HX18977   6.342   3.496   5.931  0.4584 -0.3347 -0.1084
  168SAPS    HY18978   6.300   3.371   5.818  0.2392  0.1258 -0.6415
  168SAPS   O3118979   6.507   3.408   5.830 -0.2772 -0.1631  0.4329
  168SAPS   C3118980   6.519   3.351   5.716 -0.2495 -0.6679  0.6633
  168SAPS   O3218981   6.433   3.283   5.656  0.0349 -0.0402 -0.0002
  168SAPS   C3218982   6.647   3.403   5.633 -0.4842  0.8691 -0.6266
  168SAPS   H2X18983   6.740   3.378   5.689 -0.5143  0.9315 -0.5486
  168SAPS   H2Y18984   6.651   3.514   5.637  0.0835  0.8182  0.7324
  168SAPS   C2318985   6.239   2.886   5.734  0.1627  0.1741  0.2606
  168SAPS   H3R18986   6.256   2.922   5.630 -0.4338  0.8610  0.3929
  168SAPS   H3S18987   6.138   2.926   5.755  0.0966 -0.0774  0.4215
  168SAPS   C2418988   6.238   2.735   5.735 -0.1596  0.5073  0.0557
  168SAPS   H4R18989   6.166   2.699   5.659 -1.2707 -0.1600  1.3764
  168SAPS   H4S18990   6.201   2.692   5.830  1.0674 -1.4927 -0.3189
  168SAPS   C2518991   6.374   2.668   5.710  0.0766 -0.9031  0.1174
  168SAPS   H5R18992   6.462   2.710   5.761 -0.7004  0.7144  0.1970
  168SAPS   C2618993   6.402   2.568   5.627  0.8466 -0.5184 -0.0554
  168SAPS   H6R18994   6.502   2.526   5.611  0.6881 -0.8050 -0.3226
  168SAPS   C2718995   6.292   2.492   5.545  0.3559 -0.3754 -0.1824
  168SAPS   H7R18996   6.283   2.534   5.443 -2.2381  0.5675  0.3525
  168SAPS   H7S18997   6.191   2.509   5.590  0.2025  0.0701 -0.6861
  168SAPS   C2818998   6.317   2.343   5.552 -0.5535  0.2267 -0.1727
  168SAPS   H8R18999   6.332   2.308   5.655 -1.6973 -1.3996 -0.5239
  168SAPS   C2919000   6.303   2.248   5.459  0.4984 -0.0020 -0.4239
  168SAPS   H9R19001   6.315   2.142   5.485 -0.9576 -0.2846 -0.8038
  168SAPS  C21019002   6.273   2.265   5.312 -0.3553 -0.8376 -0.1262
  168SAPS  H10R19003   6.291   2.369   5.276  0.7363 -0.9218  0.1465
  168SAPS  H10S19004   6.162   2.261   5.305 -0.4160  1.4151 -1.4139
  168SAPS  C21119005   6.327   2.156   5.221  0.1094  0.1589 -0.0616
  168SAPS  H11R19006   6.391   2.078   5.266  1.1655  1.2907  0.4487
  168SAPS  C21219007   6.309   2.153   5.086 -0.3294  0.3217 -0.7392
  168SAPS  H12R19008   6.357   2.070   5.031  1.1521  0.8962 -0.3493
  168SAPS  C21319009   6.242   2.257   5.002  0.0958 -0.4282  0.1907
  168SAPS  H13R19010   6.282   2.265   4.898  1.7256  2.3434  0.9305
  168SAPS  H13S19011   6.270   2.360   5.032 -0.3768 -0.0056 -0.7446
  168SAPS  C21419012   6.094   2.263   4.988 -0.9827  0.0048  0.0045
  168SAPS  H14R19013   6.046   2.211   5.072  0.9322 -0.2240  0.9921
  168SAPS  C21519014   6.020   2.331   4.900  0.9232 -1.1179 -0.3188
  168SAPS  H15R19015   5.910   2.329   4.906  0.7675 -0.2074 -1.9766
  168SAPS  C21619016   6.057   2.415   4.776 -0.3415  0.0893 -0.0882
  168SAPS  H16R19017   6.011   2.376   4.683 -1.9961  0.8085  0.3924
  168SAPS  H16S19018   6.167   2.403   4.763 -0.3247  2.1351 -2.5385
  168SAPS  C21719019   6.021   2.560   4.801 -0.0496 -0.2175 -0.5818
  168SAPS  H17R19020   5.924   2.567   4.855  0.3128 -0.2866  0.0893
  168SAPS  H17S19021   6.009   2.624   4.711 -2.5424 -0.7138 -0.6816
  168SAPS  C21819022   6.121   2.649   4.883  0.0826 -0.5200  0.0023
  168SAPS  H18R19023   6.129   2.618   4.990 -0.6749 -0.7764 -0.0094
  168SAPS  H18S19024   6.087   2.755   4.890 -0.8278 -0.8985  2.0344
  168SAPS  C21919025   6.256   2.651   4.806 -0.1153  0.0100  0.0961
  168SAPS  H19R19026   6.234   2.665   4.698  0.1622 -0.3001 -0.0018
  168SAPS  H19S19027   6.298   2.549   4.823 -1.0527 -0.8118 -2.1199
  168SAPS  C22019028   6.357   2.752   4.853  0.0292  0.1993 -0.3604
  168SAPS  H20R19029   6.434   2.784   4.779 -0.6322  3.3965  0.1996
  168SAPS  H20S19030   6.414   2.711   4.938 -0.4097  0.9621  0.3146
  168SAPS  H20T19031   6.307   2.843   4.892  0.4258  0.5307 -0.6233
  168SAPS   C3319032   6.642   3.354   5.488  0.7904  0.1683 -0.2260
  168SAPS   H3X19033   6.547   3.395   5.448  2.0103  3.6596  0.0768
  168SAPS   H3Y19034   6.635   3.243   5.486  0.0879  0.1257  1.9706
  168SAPS   C3419035   6.760   3.394   5.401 -0.1136 -1.3135  0.4261
  168SAPS   H4X19036   6.849   3.337   5.435 -0.1207 -0.4161  2.0363
  168SAPS   H4Y19037   6.771   3.504   5.410 -0.9864 -1.1350 -0.4825
  168SAPS   C3519038   6.731   3.359   5.253  0.9653 -0.1532 -0.0990
  168SAPS   H5X19039   6.654   3.432   5.220  0.8156 -0.2815 -0.0338
  168SAPS   H5Y19040   6.696   3.255   5.236 -1.3029  0.7370 -1.2165
  168SAPS   C3619041   6.859   3.361   5.168  0.7171 -0.0503 -0.4375
  168SAPS   H6X19042   6.941   3.295   5.202  0.2394 -0.1618  0.5335
  168SAPS   H6Y19043   6.888   3.468   5.177 -0.9652  0.3700  0.4733
  168SAPS   C3719044   6.844   3.335   5.016  1.0174 -0.1340  0.3545
  168SAPS   H7X19045   6.757   3.394   4.978  0.7503  0.1176  1.3488
  168SAPS   H7Y19046   6.830   3.225   5.013 -2.2248  0.1756  0.9762
  168SAPS   C3819047   6.970   3.382   4.945  0.1534 -0.2054 -0.1850
  168SAPS   H8X19048   7.058   3.326   4.985  1.5026  1.9000 -0.0404
  168SAPS   H8Y19049   6.990   3.490   4.962 -1.5574  0.0005  0.7312
  168SAPS   C3919050   6.966   3.354   4.789  0.1933  0.1877 -0.1135
  168SAPS   H9X19051   7.069   3.375   4.755 -0.7745  0.7383 -3.0271
  168SAPS   H9Y19052   6.897   3.431   4.746  0.7566 -0.2929 -1.9522
  168SAPS  C31019053   6.913   3.222   4.749  0.3778 -0.0465  0.1343
  168SAPS  H10X19054   6.807   3.213   4.780  0.6343 -1.3533  0.7028
  168SAPS  H10Y19055   6.973   3.151   4.810  1.0403  1.8330  1.7858
  168SAPS  C31119056   6.917   3.184   4.596 -0.5312  0.2016 -0.0126
  168SAPS  H11X19057   7.004   3.230   4.545 -0.1483 -0.0781  0.3873
  168SAPS  H11Y19058   6.828   3.237   4.555  1.0597  2.5221 -0.6386
  168SAPS  C31219059   6.894   3.041   4.561  0.4012  0.1242 -0.2849
  168SAPS  H12X19060   6.788   3.023   4.591  0.6802 -2.2480 -0.5262
  168SAPS  H12Y19061   6.964   2.978   4.619  1.6513  1.3559 -0.4080
  168SAPS  C31319062   6.916   3.007   4.408  0.7727 -0.0352 -0.2680
  168SAPS  H13X19063   7.022   3.033   4.386  1.3280 -2.8954 -1.4816
  168SAPS  H13Y19064   6.850   3.071   4.346  0.5825 -1.4525 -1.6075
  168SAPS  C31419065   6.893   2.857   4.360  0.3100 -0.3740  0.3863
  168SAPS  H14X19066   6.794   2.821   4.393  0.1779  0.4624  0.9625
  168SAPS  H14Y19067   6.963   2.798   4.423  1.0202  0.3575  0.3026
  168SAPS  C31519068   6.920   2.826   4.219 -0.5928  0.3316 -0.3613
  168SAPS  H15X19069   7.026   2.853   4.197  0.2262 -0.3134  2.4515
  168SAPS  H15Y19070   6.865   2.899   4.156 -2.0938  0.6611  1.2601
  168SAPS  C31619071   6.872   2.687   4.178 -0.0422  0.1212 -0.4352
  168SAPS  H16X19072   6.763   2.693   4.202  0.1945  0.6049  0.5718
  168SAPS  H16Y19073   6.911   2.607   4.245 -1.2485  0.2788  0.5033
  168SAPS  C31719074   6.903   2.656   4.030 -0.1534  0.6219  0.2965
  168SAPS  H17X19075   7.013   2.670   4.026 -0.3465  2.7893  1.0193
  168SAPS  H17Y19076   6.852   2.725   3.959 -2.7756 -0.9167  0.5285
  168SAPS  C31819077   6.868   2.513   3.983  0.2004  0.5185 -0.3963
  168SAPS  H18X19078   6.757   2.515   3.974  0.0152  2.8704  1.5371
  168SAPS  H18Y19079   6.912   2.441   4.054  0.7815  2.0414  0.8455
  168SAPS  H18Z19080   6.906   2.482   3.883 -1.8832 -0.2411 -1.0098
  169SAPS     N19081   3.328   6.491   6.169 -0.2508  0.2376 -0.4536
  169SAPS   HN119082   3.309   6.427   6.249 -0.8722 -0.6798 -1.3021
  169SAPS   HN219083   3.283   6.455   6.082 -1.3213 -0.9220  0.5315
  169SAPS   HN319084   3.427   6.518   6.158 -1.0024  4.2559  1.1619
  169SAPS   C1219085   3.251   6.609   6.201  1.0365  0.2562  0.3864
  169SAPS  H12A19086   3.264   6.671   6.114 -1.7322 -0.2587 -0.5152
  169SAPS   C1319087   3.100   6.579   6.214  0.2325  0.1766 -0.2526
  169SAPS  O13A19088   3.068   6.463   6.171 -0.5450 -0.1249 -0.3872
  169SAPS  O13B19089   3.012   6.668   6.210 -0.0512 -0.4276 -0.0662
  169SAPS   C1119090   3.305   6.680   6.332 -0.2907  0.8574 -0.0085
  169SAPS  H11A19091   3.307   6.599   6.408 -2.2482 -0.2070 -1.0073
  169SAPS  H11B19092   3.231   6.758   6.359 -0.9483  0.2362  0.0264
  169SAPS     P19093   3.534   6.748   6.435  0.2979  0.4497 -0.0622
  169SAPS   O1319094   3.473   6.820   6.551 -0.0464  0.0258 -0.0163
  169SAPS   O1419095   3.579   6.616   6.471 -0.3506 -0.0490  0.1831
  169SAPS   O1219096   3.432   6.742   6.319  0.0762 -0.2460 -0.0442
  169SAPS   O1119097   3.655   6.829   6.381  0.5748  0.2854  0.7905
  169SAPS    C119098   3.646   6.962   6.341 -0.0786 -0.3860 -0.0162
  169SAPS    HA19099   3.573   7.028   6.394 -0.1486 -0.2931 -0.2285
  169SAPS    HB19100   3.748   7.004   6.350  0.2633 -1.3455  0.6131
  169SAPS    C219101   3.611   6.959   6.193 -0.3295 -0.1958  1.1272
  169SAPS    HS19102   3.506   6.929   6.171  0.5947 -1.7368 -1.7663
  169SAPS   O2119103   3.703   6.871   6.122 -0.7834  0.1160 -0.0763
  169SAPS   C2119104   3.659   6.829   6.006  0.5245  0.5892  0.1246
  169SAPS   O2219105   3.546   6.851   5.955 -0.3475  0.0407 -0.3436
  169SAPS   C2219106   3.756   6.732   5.942  0.0680  0.0338  0.1665
  169SAPS   H2R19107   3.817   6.781   5.863 -1.8011  2.8472  0.3367
  169SAPS   H2S19108   3.811   6.686   6.027 -2.2398 -0.1953  1.6274
  169SAPS    C319109   3.629   7.103   6.136  0.0641 -1.0251 -0.0682
  169SAPS    HX19110   3.724   7.150   6.168 -1.2182  0.8088  1.2662
  169SAPS    HY19111   3.554   7.157   6.197  2.4374  1.0173  1.1938
  169SAPS   O3119112   3.608   7.112   5.994  0.6770  0.6337 -0.4609
  169SAPS   C3119113   3.599   7.235   5.943  0.0406 -0.3334 -0.4196
  169SAPS   O3219114   3.605   7.337   6.007  0.1690  0.5324  0.3059
  169SAPS   C3219115   3.568   7.213   5.796 -0.2629 -0.8616  0.3543
  169SAPS   H2X19116   3.541   7.109   5.772  0.3573 -0.7457 -0.9178
  169SAPS   H2Y19117   3.659   7.246   5.743 -0.2669  1.9691  1.8809
  169SAPS   C2319118   3.674   6.621   5.879 -0.4874  0.6436 -0.7824
  169SAPS   H3R19119   3.649   6.644   5.773 -2.2109  0.2207 -0.4877
  169SAPS   H3S19120   3.581   6.596   5.934  0.2415 -2.8980 -0.9322
  169SAPS   C2419121   3.761   6.494   5.889 -0.1900  0.6033 -0.2000
  169SAPS   H4R19122   3.770   6.452   5.991  1.6213 -1.9143 -1.2908
  169SAPS   H4S19123   3.868   6.515   5.871  0.6274 -2.4232  0.5716
  169SAPS   C2519124   3.717   6.386   5.794  0.0636  0.4077  0.5079
  169SAPS   H5R19125   3.623   6.335   5.820  0.6235 -0.6120  0.6045
  169SAPS   C2619126   3.767   6.355   5.677 -0.5320  0.0092 -0.3747
  169SAPS   H6R19127   3.741   6.264   5.620  2.5887 -0.6963 -0.9021
  169SAPS   C2719128   3.891   6.419   5.619 -0.0507  0.2765  0.1549
  169SAPS   H7R19129   3.948   6.360   5.545  3.0743  1.9215  1.0528
  169SAPS   H7S19130   3.967   6.445   5.696  0.4392 -0.9175  0.0935
  169SAPS   C2819131   3.857   6.548   5.552 -0.0355 -0.0285  0.6121
  169SAPS   H8R19132   3.761   6.594   5.580 -0.2931  1.4912 -2.4069
  169SAPS   C2919133   3.932   6.612   5.460 -0.3050 -0.5309 -0.4536
  169SAPS   H9R19134   3.894   6.703   5.410 -0.8708 -0.6790 -0.2924
  169SAPS  C21019135   4.070   6.578   5.407 -0.0483 -0.1488  0.4973
  169SAPS  H10R19136   4.110   6.481   5.440  0.8765 -0.3027 -1.0046
  169SAPS  H10S19137   4.144   6.651   5.446 -0.2156  1.6813 -2.2380
  169SAPS  C21119138   4.084   6.602   5.258  0.7332 -0.2630  0.3605
  169SAPS  H11R19139   4.088   6.706   5.223 -2.6042 -0.0891  0.2243
  169SAPS  C21219140   4.091   6.520   5.154 -0.7291  0.4920 -0.6807
  169SAPS  H12R19141   4.088   6.559   5.052 -2.5482  0.0549 -0.8173
  169SAPS  C21319142   4.074   6.373   5.163 -0.2159  0.2360 -0.1742
  169SAPS  H13R19143   4.084   6.337   5.268 -1.3972 -1.6965 -0.6674
  169SAPS  H13S19144   4.151   6.329   5.096  0.9969 -0.4269  1.5790
  169SAPS  C21419145   3.940   6.337   5.118 -0.1676 -0.6570 -0.2393
  169SAPS  H14R19146   3.863   6.371   5.190  2.0482  1.3638  1.3753
  169SAPS  C21519147   3.905   6.263   5.010  0.6743 -0.3053 -0.3140
  169SAPS  H15R19148   3.797   6.249   4.995  0.2461  0.7365  1.5347
  169SAPS  C21619149   3.998   6.221   4.898 -0.4509 -0.4959 -0.1090
  169SAPS  H16R19150   3.955   6.131   4.850 -2.5937  0.8964 -0.9445
  169SAPS  H16S19151   4.101   6.198   4.933 -0.3743  1.4189  1.1130
  169SAPS  C21719152   4.032   6.320   4.788  0.4833  0.1477  0.7363
  169SAPS  H17R19153   4.093   6.271   4.709 -2.6494  1.2693 -2.6386
  169SAPS  H17S19154   4.093   6.406   4.823  0.2971  1.9292 -2.8908
  169SAPS  C21819155   3.922   6.396   4.708 -0.0663  0.9140  0.3620
  169SAPS  H18R19156   3.962   6.460   4.626 -0.5935  1.7540  0.7529
  169SAPS  H18S19157   3.863   6.457   4.779  0.1217 -0.2151  1.5147
  169SAPS  C21919158   3.818   6.297   4.650 -0.2409  0.8705 -0.5719
  169SAPS  H19R19159   3.735   6.287   4.723 -1.5280  2.6410 -1.7389
  169SAPS  H19S19160   3.877   6.203   4.637 -0.6045  0.9905 -3.6986
  169SAPS  C22019161   3.759   6.355   4.526  0.4172  0.4057 -0.5478
  169SAPS  H20R19162   3.842   6.395   4.465 -0.7668  2.9733 -0.5955
  169SAPS  H20S19163   3.696   6.441   4.557  0.9330  0.1641  1.3329
  169SAPS  H20T19164   3.684   6.282   4.489 -0.5103  0.5215  1.0320
  169SAPS   C3319165   3.454   7.302   5.755  0.1287 -0.5008  0.5010
  169SAPS   H3X19166   3.470   7.410   5.776 -1.0137 -0.5717  1.9066
  169SAPS   H3Y19167   3.368   7.280   5.822  0.1008 -1.3726  0.1910
  169SAPS   C3419168   3.401   7.274   5.610  0.3975 -0.7771  0.3696
  169SAPS   H4X19169   3.319   7.346   5.589 -0.5567 -1.9223  0.0498
  169SAPS   H4Y19170   3.365   7.169   5.611 -0.9907 -0.3156  1.2074
  169SAPS   C3519171   3.511   7.294   5.502  0.1141 -0.0174  0.9860
  169SAPS   H5X19172   3.585   7.212   5.515 -1.6365 -1.5999  1.4674
  169SAPS   H5Y19173   3.563   7.391   5.514 -1.4327  0.9197  0.4075
  169SAPS   C3619174   3.460   7.290   5.354 -0.8135 -0.1351  0.1093
  169SAPS   H6X19175   3.413   7.388   5.333 -1.2543 -0.0728  1.3302
  169SAPS   H6Y19176   3.382   7.211   5.349 -1.2347  0.2132  1.0678
  169SAPS   C3719177   3.574   7.266   5.257 -0.2139 -0.4194 -0.2263
  169SAPS   H7X19178   3.603   7.159   5.260 -0.7596 -0.6836 -2.3820
  169SAPS   H7Y19179   3.665   7.320   5.291 -0.5655  0.4992 -0.6991
  169SAPS   C3819180   3.537   7.305   5.114 -0.0223 -0.3724  0.2425
  169SAPS   H8X19181   3.502   7.410   5.105 -5.2277 -1.6297  2.2227
  169SAPS   H8Y19182   3.446   7.248   5.085 -0.5373  0.1695  0.7463
  169SAPS   C3919183   3.641   7.270   5.013  0.4807 -1.4276 -0.0367
  169SAPS   H9X19184   3.682   7.168   5.031 -2.1896 -2.2619  1.9162
  169SAPS   H9Y19185   3.724   7.345   5.010  1.1893 -2.2320 -1.5951
  169SAPS  C31019186   3.572   7.260   4.872  0.0191 -0.4663  0.0836
  169SAPS  H10X19187   3.518   7.348   4.830  0.5819  0.6692  1.6382
  169SAPS  H10Y19188   3.485   7.196   4.898 -0.9873  0.7566 -0.1551
  169SAPS  C31119189   3.655   7.205   4.753  0.1098  0.0747  0.2497
  169SAPS  H11X19190   3.692   7.102   4.776 -0.9996 -0.1118  1.3006
  169SAPS  H11Y19191   3.748   7.264   4.737 -0.9933  1.1828 -2.7229
  169SAPS  C31219192   3.575   7.209   4.622 -0.1727 -0.1502 -0.0585
  169SAPS  H12X19193   3.521   7.306   4.618 -0.8365 -0.5421 -1.1990
  169SAPS  H12Y19194   3.503   7.124   4.616 -1.3296  0.8062 -0.0279
  169SAPS  C31319195   3.667   7.193   4.493 -0.2963  0.3203 -0.1221
  169SAPS  H13X19196   3.700   7.088   4.474 -1.3418  0.0673 -0.5920
  169SAPS  H13Y19197   3.759   7.254   4.505  1.8955 -3.0678  2.1670
  169SAPS  C31419198   3.581   7.219   4.368 -0.1380  0.1483  0.5862
  169SAPS  H14X19199   3.549   7.326   4.368 -0.8840 -0.0665  1.7333
  169SAPS  H14Y19200   3.491   7.157   4.382 -0.5315  0.9713  1.9083
  169SAPS  C31519201   3.671   7.183   4.251  0.2166  0.3436 -0.3302
  169SAPS  H15X19202   3.683   7.073   4.265 -2.7495  0.0813  0.7729
  169SAPS  H15Y19203   3.770   7.228   4.277  1.8474 -3.0071 -0.1551
  169SAPS  C31619204   3.638   7.218   4.105  0.3921 -0.0962 -0.1115
  169SAPS  H16X19205   3.564   7.152   4.056  0.2948  1.3590 -2.0220
  169SAPS  H16Y19206   3.732   7.206   4.048  0.1582  2.2152 -1.0704
  169SAPS  C31719207   3.614   7.368   4.079 -0.7292 -0.5158 -0.1711
  169SAPS  H17X19208   3.687   7.397   4.000 -0.0126  1.5740  1.1483
  169SAPS  H17Y19209   3.648   7.433   4.163 -3.2003  0.2493  0.3079
  169SAPS  C31819210   3.469   7.402   4.047 -0.1389  0.2094 -0.3229
  169SAPS  H18X19211   3.425   7.347   3.961 -2.4244  0.1523  0.8012
  169SAPS  H18Y19212   3.459   7.508   4.017 -2.1091  0.3809  0.6922
  169SAPS  H18Z19213   3.410   7.377   4.139 -0.2634  0.5997 -0.2938
  170SAPS     N19214   4.735   2.577   7.050 -0.6297 -0.6834 -0.0346
  170SAPS   HN119215   4.776   2.505   6.987 -0.3561 -0.6472  0.0987
  170SAPS   HN219216   4.795   2.662   7.045  0.0403 -1.1520 -0.0717
  170SAPS   HN319217   4.738   2.530   7.143 -1.4147 -0.5000  0.0955
  170SAPS   C1219218   4.597   2.620   7.015 -0.5139  0.2166 -0.0603
  170SAPS  H12A19219   4.529   2.542   7.045 -1.4547  1.3027  0.7109
  170SAPS   C1319220   4.552   2.733   7.106 -0.3064 -0.2889 -0.8011
  170SAPS  O13A19221   4.627   2.779   7.196  0.4372 -0.1578 -0.0404
  170SAPS  O13B19222   4.429   2.761   7.102  0.6564 -0.0131 -0.2326
  170SAPS   C1119223   4.583   2.668   6.869 -0.0000 -0.6478 -0.5507
  170SAPS  H11A19224   4.658   2.748   6.854 -1.5432  0.8800 -0.4648
  170SAPS  H11B19225   4.483   2.716   6.863  0.3891  0.0555 -1.7934
  170SAPS     P19226   4.505   2.553   6.648 -0.0098 -0.2336 -0.3008
  170SAPS   O1319227   4.546   2.450   6.551 -0.1401  0.4519 -0.6861
  170SAPS   O1419228   4.361   2.557   6.697 -0.3471 -0.3463  0.2401
  170SAPS   O1219229   4.599   2.560   6.778  0.2076  0.4119  0.1913
  170SAPS   O1119230   4.528   2.681   6.574  0.6087 -0.4971  0.4314
  170SAPS    C119231   4.651   2.737   6.532 -0.2705  0.9891 -0.8018
  170SAPS    HA19232   4.676   2.827   6.592  0.5570  1.5058 -1.8897
  170SAPS    HB19233   4.728   2.658   6.541 -1.3946  0.0939  2.4471
  170SAPS    C219234   4.634   2.783   6.383 -0.0291  0.3659  0.0493
  170SAPS    HS19235   4.734   2.807   6.341 -0.2444  0.5497 -0.3644
  170SAPS   O2119236   4.545   2.891   6.381 -0.1774 -0.4694 -0.4016
  170SAPS   C2119237   4.599   3.011   6.387 -0.9528  0.0285  0.5974
  170SAPS   O2219238   4.720   3.038   6.393 -0.0476 -0.3034 -0.2010
  170SAPS   C2219239   4.492   3.114   6.363 -0.2623 -0.0186  0.4660
  170SAPS   H2R19240   4.402   3.065   6.320  0.6727 -0.4301 -1.0842
  170SAPS   H2S19241   4.473   3.167   6.459  1.6078 -0.2800  1.0112
  170SAPS    C319242   4.591   2.662   6.291 -0.5354  0.4236 -1.0616
  170SAPS    HX19243   4.490   2.638   6.329 -0.4789  0.5502 -0.8283
  170SAPS    HY19244   4.651   2.570   6.310 -2.8081 -0.9277 -0.0682
  170SAPS   O3119245   4.601   2.704   6.155 -0.3631 -0.2988  0.1934
  170SAPS   C3119246   4.529   2.633   6.076 -0.5576 -0.0971  0.4940
  170SAPS   O3219247   4.471   2.534   6.096 -0.1419  0.0832 -0.1739
  170SAPS   C3219248   4.528   2.708   5.942 -0.6830  0.2470  0.3297
  170SAPS   H2X19249   4.628   2.752   5.926 -0.8543 -0.2517 -2.5452
  170SAPS   H2Y19250   4.456   2.792   5.950  0.0442  1.0739 -1.3859
  170SAPS   C2319251   4.542   3.218   6.259 -0.0771 -0.0142  0.3400
  170SAPS   H3R19252   4.642   3.257   6.288 -0.0620  0.2615 -0.0713
  170SAPS   H3S19253   4.469   3.302   6.271 -0.8091 -0.6935  0.7163
  170SAPS   C2419254   4.520   3.169   6.115  0.2032  0.0031  0.0994
  170SAPS   H4R19255   4.502   3.251   6.043  1.6634  0.2472 -0.0258
  170SAPS   H4S19256   4.428   3.108   6.125  0.7565 -0.7455  0.8503
  170SAPS   C2519257   4.618   3.068   6.076 -0.3865  0.2600 -0.2990
  170SAPS   H5R19258   4.593   2.966   6.106  0.8628 -0.3944 -1.3857
  170SAPS   C2619259   4.717   3.091   5.990 -0.1898 -0.0890 -0.8146
  170SAPS   H6R19260   4.789   3.013   5.960  0.1568 -0.2762  0.4355
  170SAPS   C2719261   4.758   3.219   5.934 -0.1258 -0.1845  0.7065
  170SAPS   H7R19262   4.670   3.282   5.909  0.9244  0.4882 -1.5795
  170SAPS   H7S19263   4.804   3.206   5.833 -0.0025  3.7473  0.1255
  170SAPS   C2819264   4.849   3.297   6.028  0.1417  0.0646  0.6961
  170SAPS   H8R19265   4.818   3.290   6.133  1.2801 -1.3160  0.9645
  170SAPS   C2919266   4.964   3.361   5.989  0.6421 -0.1256 -0.1105
  170SAPS   H9R19267   5.024   3.402   6.071  0.5594  1.2467 -0.7022
  170SAPS  C21019268   5.032   3.373   5.849  0.8340  0.1181  0.2425
  170SAPS  H10R19269   5.050   3.270   5.812 -0.6632  0.1969 -0.8199
  170SAPS  H10S19270   5.131   3.418   5.869 -0.2338  2.9229 -0.3163
  170SAPS  C21119271   4.959   3.446   5.735  0.3708  0.1512 -0.0383
  170SAPS  H11R19272   4.886   3.376   5.692  2.1261 -1.5465 -0.3982
  170SAPS  C21219273   4.939   3.576   5.699  0.2294  0.9666  1.1900
  170SAPS  H12R19274   4.868   3.599   5.618 -2.2215 -2.0219  2.3064
  170SAPS  C21319275   5.019   3.694   5.748  0.3876 -0.3657 -0.0486
  170SAPS  H13R19276   5.091   3.719   5.668  0.9277 -0.7231  0.3206
  170SAPS  H13S19277   5.079   3.676   5.840 -0.6460 -0.1253  0.7012
  170SAPS  C21419278   4.936   3.816   5.800 -0.1177  0.4569  0.4199
  170SAPS  H14R19279   4.871   3.794   5.886  0.6469  1.5859  1.3239
  170SAPS  C21519280   4.941   3.940   5.744  0.3197  0.3407  0.0859
  170SAPS  H15R19281   4.863   4.006   5.784 -0.1905 -0.3269  0.2086
  170SAPS  C21619282   5.030   3.991   5.634  0.0975 -0.1219  0.1722
  170SAPS  H16R19283   5.113   3.917   5.622  1.0196  0.5961  1.7039
  170SAPS  H16S19284   5.082   4.083   5.667  1.0390 -0.9101  0.9699
  170SAPS  C21719285   4.979   3.997   5.492 -0.2459 -0.5027 -0.7476
  170SAPS  H17R19286   5.069   4.017   5.430 -0.8835  2.1746 -0.9236
  170SAPS  H17S19287   4.910   4.084   5.492 -1.3284 -1.3375 -0.0249
  170SAPS  C21819288   4.907   3.870   5.441 -0.6021  0.0208  0.1608
  170SAPS  H18R19289   4.824   3.841   5.508 -0.2343 -2.9648 -0.4939
  170SAPS  H18S19290   4.980   3.786   5.440 -1.7499 -1.0101  0.1404
  170SAPS  C21919291   4.859   3.893   5.296 -0.1181 -0.0937  0.3562
  170SAPS  H19R19292   4.936   3.941   5.232 -0.4540  0.3894  0.3095
  170SAPS  H19S19293   4.777   3.968   5.288  1.7034  1.8356 -1.4697
  170SAPS  C22019294   4.820   3.773   5.212 -0.6431  0.4810  0.0589
  170SAPS  H20R19295   4.738   3.717   5.262  1.3704 -2.0925  0.6823
  170SAPS  H20S19296   4.913   3.720   5.183  0.7501  3.2059 -0.8559
  170SAPS  H20T19297   4.778   3.801   5.113 -2.5948  0.6915  0.9088
  170SAPS   C3319298   4.497   2.623   5.813 -0.3864  0.0038  0.2713
  170SAPS   H3X19299   4.400   2.575   5.835 -0.1061 -1.7791 -2.0931
  170SAPS   H3Y19300   4.567   2.537   5.808 -0.1942  0.0156  2.0630
  170SAPS   C3419301   4.481   2.695   5.677  0.0862  0.8870  0.6466
  170SAPS   H4X19302   4.581   2.737   5.653  1.2009 -1.2629  1.2666
  170SAPS   H4Y19303   4.406   2.776   5.689  0.3919  0.8543  3.0929
  170SAPS   C3519304   4.442   2.615   5.553  0.0028 -0.2921  0.4712
  170SAPS   H5X19305   4.343   2.565   5.560 -0.8299  1.3462  0.7287
  170SAPS   H5Y19306   4.528   2.549   5.525  0.7312  1.2779 -1.1678
  170SAPS   C3619307   4.426   2.692   5.420 -0.0442 -0.6193  0.1379
  170SAPS   H6X19308   4.346   2.764   5.446  1.1496  0.3342  1.3047
  170SAPS   H6Y19309   4.379   2.619   5.350  0.8167 -1.9743  0.9220
  170SAPS   C3719310   4.551   2.760   5.364  0.2060 -0.3538 -0.4535
  170SAPS   H7X19311   4.628   2.686   5.335 -0.4218 -2.0217  1.8965
  170SAPS   H7Y19312   4.592   2.838   5.432 -1.8435  0.1318  0.3214
  170SAPS   C3819313   4.511   2.851   5.242 -0.5776  0.0246 -0.3975
  170SAPS   H8X19314   4.449   2.938   5.272 -0.5462 -0.6647  1.8496
  170SAPS   H8Y19315   4.459   2.780   5.174  1.5785 -0.0286 -2.1199
  170SAPS   C3919316   4.637   2.905   5.166 -0.4567 -0.2480  0.2989
  170SAPS   H9X19317   4.707   2.820   5.153  0.8268  1.1253 -2.6356
  170SAPS   H9Y19318   4.694   2.982   5.221 -1.0913  1.1974 -1.0001
  170SAPS  C31019319   4.603   2.944   5.021 -0.5001 -0.3832 -0.4491
  170SAPS  H10X19320   4.532   2.872   4.973  0.3626 -0.1476 -2.1745
  170SAPS  H10Y19321   4.698   2.942   4.963  0.8352 -1.2811  1.6427
  170SAPS  C31119322   4.547   3.088   5.014 -0.0496 -0.5459  0.1535
  170SAPS  H11X19323   4.619   3.165   5.052  0.5073 -0.1042 -1.6759
  170SAPS  H11Y19324   4.454   3.090   5.075 -0.6011  1.4265 -0.6565
  170SAPS  C31219325   4.506   3.127   4.868 -0.5279 -0.1876  0.0190
  170SAPS  H12X19326   4.454   3.047   4.812  1.8166 -1.1209 -0.9802
  170SAPS  H12Y19327   4.602   3.144   4.814 -0.6645 -2.4635 -1.0720
  170SAPS  C31319328   4.407   3.251   4.865  0.2892  0.1741  0.8256
  170SAPS  H13X19329   4.435   3.325   4.943  0.3119  0.3767  0.6259
  170SAPS  H13Y19330   4.302   3.220   4.882  0.1110 -0.3567 -0.9847
  170SAPS  C31419331   4.415   3.333   4.739 -1.0607  0.2913 -0.3839
  170SAPS  H14X19332   4.513   3.380   4.714 -1.1222  0.0360 -1.1221
  170SAPS  H14Y19333   4.350   3.424   4.743 -0.2475  0.8342  1.5045
  170SAPS  C31519334   4.370   3.243   4.625 -0.2638  0.0394 -0.3264
  170SAPS  H15X19335   4.265   3.221   4.656  0.0068  1.5565  1.8875
  170SAPS  H15Y19336   4.428   3.149   4.625  1.7153  1.2040  0.8657
  170SAPS  C31619337   4.361   3.314   4.493 -0.2671  0.0763 -0.2261
  170SAPS  H16X19338   4.465   3.340   4.462  0.2578  1.1015  2.1713
  170SAPS  H16Y19339   4.298   3.405   4.493  0.1912  0.4010  0.1031
  170SAPS  C31719340   4.308   3.230   4.377 -0.0584 -1.0014 -0.0896
  170SAPS  H17X19341   4.367   3.136   4.380  0.7616 -0.4905  0.0309
  170SAPS  H17Y19342   4.321   3.279   4.279 -0.5188  2.2114  1.3425
  170SAPS  C31819343   4.160   3.216   4.405 -0.1429 -0.6881 -0.3404
  170SAPS  H18X19344   4.133   3.324   4.408  2.2166 -0.0564  0.4471
  170SAPS  H18Y19345   4.135   3.169   4.503  1.3533  0.0408  0.4457
  170SAPS  H18Z19346   4.111   3.165   4.320  0.4332 -0.1695 -0.9931
  171SAPS     N19347   6.597   1.496   6.579 -0.0939  0.3366 -0.1592
  171SAPS   HN119348   6.643   1.582   6.616 -2.5977  1.8974 -0.4588
  171SAPS   HN219349   6.665   1.424   6.548 -0.0126  0.7464 -0.9540
  171SAPS   HN319350   6.522   1.512   6.509 -0.0014 -1.9979 -0.8627
  171SAPS   C1219351   6.530   1.448   6.706  0.5741 -0.3403  0.0509
  171SAPS  H12A19352   6.524   1.341   6.699  1.4631 -0.5389  1.7458
  171SAPS   C1319353   6.602   1.474   6.836  0.1401  0.6823  0.2140
  171SAPS  O13A19354   6.712   1.532   6.844 -0.2105 -0.0647 -0.1089
  171SAPS  O13B19355   6.549   1.445   6.947 -0.0845 -0.5512 -0.0523
  171SAPS   C1119356   6.382   1.495   6.715 -0.3830  0.1547  0.2620
  171SAPS  H11A19357   6.383   1.606   6.710 -0.6714  0.1135 -0.8216
  171SAPS  H11B19358   6.340   1.454   6.810  0.6469 -1.6708 -0.0298
  171SAPS     P19359   6.237   1.504   6.490 -0.0587  0.1792  0.2292
  171SAPS   O1319360   6.218   1.411   6.373 -0.2829 -0.2391  0.1562
  171SAPS   O1419361   6.115   1.559   6.552  0.2389  0.5520 -0.0612
  171SAPS   O1219362   6.325   1.433   6.602  0.1076 -1.0156  0.1014
  171SAPS   O1119363   6.324   1.621   6.440 -0.0413 -0.1306  0.3097
  171SAPS    C119364   6.292   1.751   6.386  0.5578  0.9269 -0.1133
  171SAPS    HA19365   6.183   1.760   6.372  0.1599 -1.5375  0.9578
  171SAPS    HB19366   6.320   1.829   6.460  1.3224 -1.9027  2.7960
  171SAPS    C219367   6.355   1.785   6.247 -0.0343  0.1707 -0.3160
  171SAPS    HS19368   6.300   1.868   6.197 -1.9990 -1.9615 -1.8954
  171SAPS   O2119369   6.342   1.671   6.163 -0.4839 -0.0491 -0.1021
  171SAPS   C2119370   6.224   1.637   6.114 -0.1571  0.4891 -0.7346
  171SAPS   O2219371   6.123   1.703   6.128  0.0504 -0.4557  0.3847
  171SAPS   C2219372   6.232   1.503   6.036  0.0932  0.8601  0.0964
  171SAPS   H2R19373   6.330   1.500   5.985 -0.8876 -0.7023 -1.8203
  171SAPS   H2S19374   6.230   1.428   6.118 -1.9339  1.0391  0.2816
  171SAPS    C319375   6.507   1.820   6.273  0.1035  0.4961 -0.1131
  171SAPS    HX19376   6.547   1.735   6.332 -1.5524 -0.3162 -0.0954
  171SAPS    HY19377   6.521   1.918   6.322 -1.5442  0.7591 -0.0965
  171SAPS   O3119378   6.575   1.820   6.148 -0.3452 -0.4874 -0.1366
  171SAPS   C3119379   6.628   1.705   6.101 -0.1884 -0.6930  0.4884
  171SAPS   O3219380   6.628   1.598   6.154 -0.3615  0.2935 -0.7257
  171SAPS   C3219381   6.690   1.726   5.962  0.3853  0.3241 -0.2890
  171SAPS   H2X19382   6.788   1.776   5.978  0.1498  0.7863 -0.2610
  171SAPS   H2Y19383   6.627   1.796   5.903 -1.0988 -0.7966 -0.1022
  171SAPS   C2319384   6.122   1.477   5.936  0.1065 -0.6211 -0.3991
  171SAPS   H3R19385   6.023   1.493   5.984  0.5625  0.6900  0.1313
  171SAPS   H3S19386   6.130   1.369   5.908 -0.4800 -0.2911 -1.9405
  171SAPS   C2419387   6.130   1.554   5.811  0.2810 -0.0615  0.1428
  171SAPS   H4R19388   6.046   1.521   5.746 -0.6673 -0.1289  1.3457
  171SAPS   H4S19389   6.226   1.527   5.762  0.4970 -0.0236  0.5380
  171SAPS   C2519390   6.112   1.701   5.834 -0.0235 -0.0337 -0.1426
  171SAPS   H5R19391   6.016   1.732   5.879  0.7959  1.6446  0.5421
  171SAPS   C2619392   6.202   1.798   5.796  0.4359 -0.1434 -1.2950
  171SAPS   H6R19393   6.175   1.903   5.812  0.4529 -0.4458  1.2079
  171SAPS   C2719394   6.346   1.776   5.752  0.3750 -0.0270 -0.2209
  171SAPS   H7R19395   6.371   1.668   5.744 -0.3427 -0.2226  0.0840
  171SAPS   H7S19396   6.408   1.811   5.837 -1.1072  1.3019  0.3571
  171SAPS   C2819397   6.383   1.871   5.638 -0.0894 -0.3424 -0.3462
  171SAPS   H8R19398   6.395   1.974   5.676 -1.6495 -0.2018 -0.1473
  171SAPS   C2919399   6.396   1.842   5.503  0.4763 -0.5571 -0.3446
  171SAPS   H9R19400   6.439   1.921   5.440  0.4671  1.3583  1.8950
  171SAPS  C21019401   6.368   1.708   5.450  0.4033 -0.2300 -0.9660
  171SAPS  H10R19402   6.423   1.630   5.508  0.3452 -0.1510 -0.8052
  171SAPS  H10S19403   6.430   1.700   5.357  0.3273  1.0609 -1.1530
  171SAPS  C21119404   6.226   1.676   5.428 -0.6122 -0.2841  0.1777
  171SAPS  H11R19405   6.179   1.626   5.514 -1.1519 -1.1907 -0.6235
  171SAPS  C21219406   6.153   1.695   5.314  0.5777  0.0033 -0.2376
  171SAPS  H12R19407   6.046   1.674   5.321  0.6509 -0.3173 -0.0591
  171SAPS  C21319408   6.204   1.760   5.189 -0.0054  0.8340  0.9030
  171SAPS  H13R19409   6.283   1.835   5.211  0.3165  1.1681 -1.1905
  171SAPS  H13S19410   6.125   1.820   5.138 -0.2262 -0.2031 -0.0108
  171SAPS  C21419411   6.259   1.649   5.100 -1.0097  0.3839 -0.1234
  171SAPS  H14R19412   6.361   1.616   5.125 -0.8403  1.2909  0.4417
  171SAPS  C21519413   6.215   1.609   4.981  0.0938  0.1008 -0.1403
  171SAPS  H15R19414   6.265   1.523   4.935 -0.0807 -1.6178  2.6526
  171SAPS  C21619415   6.090   1.656   4.905  0.6385  0.2156 -0.5613
  171SAPS  H16R19416   6.031   1.724   4.969  1.7554  1.1947 -0.5318
  171SAPS  H16S19417   6.034   1.563   4.884  0.0583 -0.3035  2.7151
  171SAPS  C21719418   6.121   1.724   4.773  0.2519  0.6818  0.1136
  171SAPS  H17R19419   6.023   1.750   4.728  0.3186  0.2429 -0.2990
  171SAPS  H17S19420   6.172   1.655   4.702  0.2957 -0.6695  1.4146
  171SAPS  C21819421   6.195   1.857   4.800 -0.2495  0.7226 -0.6292
  171SAPS  H18R19422   6.171   1.906   4.896 -3.6476 -1.5877 -0.1391
  171SAPS  H18S19423   6.167   1.926   4.718 -2.7814  1.3481  0.6672
  171SAPS  C21919424   6.350   1.831   4.772  0.5164 -0.5473 -0.9845
  171SAPS  H19R19425   6.364   1.751   4.696 -1.0018 -2.0383  0.2253
  171SAPS  H19S19426   6.402   1.799   4.865  0.3658  0.4928 -0.5310
  171SAPS  C22019427   6.415   1.958   4.723 -0.2531 -0.2298  0.6592
  171SAPS  H20R19428   6.388   2.043   4.788  0.2270 -1.1141  2.0538
  171SAPS  H20S19429   6.393   1.980   4.616 -1.4237  0.5662  1.0390
  171SAPS  H20T19430   6.524   1.974   4.736 -0.1899  1.0215 -1.0612
  171SAPS   C3319431   6.722   1.600   5.880  0.2642  0.0200 -0.1543
  171SAPS   H3X19432   6.631   1.537   5.876  0.9108 -0.8704 -1.2281
  171SAPS   H3Y19433   6.801   1.539   5.929  0.2967 -0.4117 -0.7341
  171SAPS   C3419434   6.744   1.636   5.732  0.1095  0.2909 -0.7001
  171SAPS   H4X19435   6.833   1.702   5.735  1.1263 -0.9409  4.0835
  171SAPS   H4Y19436   6.653   1.692   5.698 -0.2998  0.6113  0.8540
  171SAPS   C3519437   6.760   1.518   5.638 -0.3868  0.3994 -0.1227
  171SAPS   H5X19438   6.677   1.447   5.659  0.2609  0.5336  3.4930
  171SAPS   H5Y19439   6.853   1.461   5.654 -0.2356  0.3052 -1.2805
  171SAPS   C3619440   6.766   1.569   5.494  0.9877 -0.5089 -0.0036
  171SAPS   H6X19441   6.860   1.628   5.487  0.8784 -0.1122  1.4916
  171SAPS   H6Y19442   6.682   1.641   5.488  0.0483 -0.5490  5.9254
  171SAPS   C3719443   6.767   1.465   5.379 -0.6300 -0.2337  0.1384
  171SAPS   H7X19444   6.796   1.368   5.425  2.0754  0.9394  1.1601
  171SAPS   H7Y19445   6.843   1.484   5.300 -0.0132 -1.6555  0.3487
  171SAPS   C3819446   6.638   1.441   5.304 -0.2310 -0.3819  0.0835
  171SAPS   H8X19447   6.601   1.541   5.272 -1.7781 -1.4451 -1.6058
  171SAPS   H8Y19448   6.557   1.393   5.363 -2.3023  2.4347 -0.2417
  171SAPS   C3919449   6.660   1.348   5.177 -0.2868 -0.4686 -0.2504
  171SAPS   H9X19450   6.692   1.250   5.220 -0.6851  0.5151  2.4746
  171SAPS   H9Y19451   6.742   1.384   5.111 -0.1541 -1.1234 -0.4529
  171SAPS  C31019452   6.539   1.322   5.089  0.4436  0.4735  0.0452
  171SAPS  H10X19453   6.498   1.420   5.056 -1.2200 -0.2623 -0.1514
  171SAPS  H10Y19454   6.458   1.275   5.148 -0.6888  3.5442  1.1104
  171SAPS  C31119455   6.554   1.232   4.957  0.4688 -0.5559 -0.4541
  171SAPS  H11X19456   6.603   1.136   4.981  3.2318  0.9478  0.3312
  171SAPS  H11Y19457   6.635   1.284   4.901  1.2361  1.2343  2.1372
  171SAPS  C31219458   6.428   1.224   4.870  0.3865 -0.2838  0.2888
  171SAPS  H12X19459   6.385   1.323   4.843  1.3072  0.0946  0.1619
  171SAPS  H12Y19460   6.347   1.186   4.936 -1.1847  5.4760  2.3434
  171SAPS  C31319461   6.439   1.142   4.740  0.0723  0.6905  0.1736
  171SAPS  H13X19462   6.498   1.053   4.769 -4.5520 -2.3722  1.0540
  171SAPS  H13Y19463   6.500   1.200   4.666  1.1285 -0.5937 -0.0120
  171SAPS  C31419464   6.310   1.112   4.670  0.3091 -0.4422 -0.0750
  171SAPS  H14X19465   6.235   1.082   4.746 -0.5174 -1.2621 -1.1803
  171SAPS  H14Y19466   6.315   1.034   4.591 -3.3160 -1.9279  0.9706
  171SAPS  C31519467   6.253   1.244   4.609  0.3153 -0.3592 -0.5205
  171SAPS  H15X19468   6.318   1.286   4.529  0.1884  0.7154 -0.0755
  171SAPS  H15Y19469   6.240   1.322   4.687 -1.8431 -0.3673 -0.8173
  171SAPS  C31619470   6.114   1.218   4.551  0.2064 -0.5812  0.1759
  171SAPS  H16X19471   6.064   1.132   4.601  0.2877  0.9068  3.0609
  171SAPS  H16Y19472   6.131   1.178   4.449 -2.6756 -0.9570 -0.2338
  171SAPS  C31719473   6.019   1.338   4.535 -0.8032 -0.5807  0.5401
  171SAPS  H17X19474   6.078   1.430   4.515 -1.3241  0.0307  1.7109
  171SAPS  H17Y19475   5.964   1.351   4.631  1.3399 -0.8849  1.8750
  171SAPS  C31819476   5.916   1.317   4.428  0.8383 -0.0875  0.2452
  171SAPS  H18X19477   5.857   1.410   4.415  0.4875 -0.3053  0.2362
  171SAPS  H18Y19478   5.853   1.235   4.469 -0.0213  1.0700  1.3223
  171SAPS  H18Z19479   5.952   1.277   4.331 -0.7245 -0.6495 -0.1366
  172SAPS     N19480   5.687   2.127   6.943 -0.4592  0.8471  0.0059
  172SAPS   HN119481   5.755   2.055   6.911 -0.8024  1.7032 -3.0212
  172SAPS   HN219482   5.713   2.207   6.882  2.7410 -0.9318 -1.2135
  172SAPS   HN319483   5.680   2.145   7.045 -3.0186  2.1507 -0.3208
  172SAPS   C1219484   5.555   2.065   6.909 -1.0404  0.0507 -0.2298
  172SAPS  H12A19485   5.556   1.973   6.966 -2.8124 -0.1798 -0.5203
  172SAPS   C1319486   5.426   2.147   6.956 -0.1403 -1.2060 -0.0199
  172SAPS  O13A19487   5.447   2.257   7.008 -0.5092  0.6044 -0.0887
  172SAPS  O13B19488   5.316   2.099   6.924  0.6809  0.0636 -0.0490
  172SAPS   C1119489   5.541   2.032   6.755 -0.3172  0.0986 -0.3113
  172SAPS  H11A19490   5.573   2.126   6.703  2.5706  0.5784  2.0664
  172SAPS  H11B19491   5.436   2.015   6.724 -0.6160  0.7174  0.3224
  172SAPS     P19492   5.751   1.925   6.642  0.2770  0.4949 -0.1359
  172SAPS   O1319493   5.843   2.006   6.718 -0.8172  0.3929  0.3443
  172SAPS   O1419494   5.799   1.790   6.608  0.2624  0.1938  0.1803
  172SAPS   O1219495   5.618   1.916   6.722 -0.4166 -0.2214  0.3499
  172SAPS   O1119496   5.704   1.999   6.516  0.0339  0.9850 -0.3132
  172SAPS    C119497   5.629   1.929   6.416 -0.4104 -0.1318  0.2399
  172SAPS    HA19498   5.690   1.842   6.382  3.3020  2.1713  0.3831
  172SAPS    HB19499   5.532   1.892   6.455  0.3929 -1.8533  0.7067
  172SAPS    C219500   5.600   2.025   6.297 -0.1946  0.2471  0.0288
  172SAPS    HS19501   5.574   1.961   6.210  1.2919  0.4390 -0.5810
  172SAPS   O2119502   5.712   2.102   6.251 -0.3793 -0.8468 -0.0162
  172SAPS   C2119503   5.812   2.038   6.191  0.3492  0.2594 -0.0442
  172SAPS   O2219504   5.809   1.920   6.162  0.2540 -0.2068 -0.7586
  172SAPS   C2219505   5.918   2.140   6.156  0.2848 -0.8533  0.0449
  172SAPS   H2R19506   5.909   2.154   6.047 -3.9477  1.3686  0.4450
  172SAPS   H2S19507   5.899   2.237   6.206 -0.5330 -0.8964 -0.1656
  172SAPS    C319508   5.479   2.119   6.331 -0.1711 -0.8454  0.9032
  172SAPS    HX19509   5.518   2.180   6.415 -0.6270  1.0851 -0.2198
  172SAPS    HY19510   5.397   2.055   6.370 -3.3873  1.6148 -1.2130
  172SAPS   O3119511   5.434   2.201   6.224  0.3740 -0.1670  0.3238
  172SAPS   C3119512   5.438   2.335   6.253 -0.7242  0.3281  0.1854
  172SAPS   O3219513   5.467   2.394   6.351  0.3858  0.1783 -0.6109
  172SAPS   C3219514   5.410   2.402   6.121  0.2164  1.2197  0.0099
  172SAPS   H2X19515   5.434   2.510   6.129  1.6828  0.9206 -0.0819
  172SAPS   H2Y19516   5.303   2.387   6.098  0.2207  1.5265 -0.2206
  172SAPS   C2319517   6.063   2.101   6.178  0.7792  0.0296 -0.1048
  172SAPS   H3R19518   6.087   2.020   6.105 -0.1886  1.2307 -1.8297
  172SAPS   H3S19519   6.066   2.057   6.280 -2.9354 -0.5670 -0.1250
  172SAPS   C2419520   6.159   2.221   6.171  0.5640 -0.3394  0.2247
  172SAPS   H4R19521   6.137   2.288   6.256  1.8482  0.5042 -0.0788
  172SAPS   H4S19522   6.144   2.273   6.074 -1.3209 -0.2117  0.5460
  172SAPS   C2519523   6.301   2.168   6.183 -0.1307 -0.2841  0.0573
  172SAPS   H5R19524   6.315   2.095   6.264 -0.6235  0.8468  1.1859
  172SAPS   C2619525   6.409   2.202   6.106  0.4866  0.4607  0.2500
  172SAPS   H6R19526   6.501   2.144   6.118  0.6045  0.2789 -1.3103
  172SAPS   C2719527   6.408   2.310   5.998 -0.1270 -0.6551  0.9785
  172SAPS   H7R19528   6.374   2.410   6.032 -0.4084 -0.9283  1.5138
  172SAPS   H7S19529   6.339   2.284   5.915 -1.0317  2.2310  0.7229
  172SAPS   C2819530   6.550   2.336   5.954  0.3709  0.0340 -0.2479
  172SAPS   H8R19531   6.590   2.426   6.002 -0.5206  0.0655  0.4640
  172SAPS   C2919532   6.638   2.263   5.880 -0.1585  0.5934 -1.0701
  172SAPS   H9R19533   6.739   2.302   5.862  0.4312 -0.0664  0.6398
  172SAPS  C21019534   6.604   2.128   5.811 -0.4173  0.8674 -0.2620
  172SAPS  H10R19535   6.551   2.159   5.718 -2.4641  0.5867  0.7337
  172SAPS  H10S19536   6.525   2.071   5.864 -1.2127  1.6383 -0.5774
  172SAPS  C21119537   6.727   2.042   5.785  1.1834  1.2340 -0.3126
  172SAPS  H11R19538   6.788   2.033   5.876 -0.0366  3.7342  0.8319
  172SAPS  C21219539   6.767   1.981   5.665  0.2475  0.0705 -0.5140
  172SAPS  H12R19540   6.872   1.949   5.665  0.7221  1.4316 -2.7445
  172SAPS  C21319541   6.698   1.982   5.526 -0.0114  0.7397 -0.0367
  172SAPS  H13R19542   6.607   2.046   5.523 -1.5596 -1.3289  0.6363
  172SAPS  H13S19543   6.666   1.881   5.494  2.8128 -0.1368 -0.3511
  172SAPS  C21419544   6.805   2.019   5.426  0.0587 -0.7323 -0.4166
  172SAPS  H14R19545   6.868   2.106   5.451 -1.2412  0.5684 -1.4708
  172SAPS  C21519546   6.803   1.990   5.295 -0.3230  0.5405 -0.5790
  172SAPS  H15R19547   6.893   2.025   5.242 -1.1690  1.7965 -1.2214
  172SAPS  C21619548   6.724   1.876   5.223  0.1733 -0.6274  0.2932
  172SAPS  H16R19549   6.655   1.926   5.153 -0.7149 -3.9851 -1.4425
  172SAPS  H16S19550   6.653   1.822   5.289 -1.4494  0.3160 -0.6152
  172SAPS  C21719551   6.800   1.773   5.127 -0.0692  0.0952 -0.2490
  172SAPS  H17R19552   6.835   1.686   5.187 -0.3911  0.0478 -0.1244
  172SAPS  H17S19553   6.888   1.818   5.077  1.5203 -1.9399  0.5608
  172SAPS  C21819554   6.705   1.725   5.014  0.6210 -0.5674 -0.8202
  172SAPS  H18R19555   6.645   1.808   4.971  1.0014 -0.0020 -0.2728
  172SAPS  H18S19556   6.644   1.651   5.070  0.5985 -0.1146 -0.2473
  172SAPS  C21919557   6.773   1.651   4.899 -0.0133 -0.1878 -0.0477
  172SAPS  H19R19558   6.822   1.563   4.946 -0.6315 -1.7846 -2.2318
  172SAPS  H19S19559   6.849   1.722   4.861  0.9569 -1.6708 -0.9673
  172SAPS  C22019560   6.686   1.602   4.779 -0.6450 -0.2857 -0.4197
  172SAPS  H20R19561   6.725   1.666   4.697  3.3471 -1.2493  0.5265
  172SAPS  H20S19562   6.577   1.610   4.797 -0.2522 -0.8807  2.8236
  172SAPS  H20T19563   6.706   1.495   4.756 -2.5680 -1.0050  0.9754
  172SAPS   C3319564   5.493   2.334   6.002 -1.2886 -0.2373 -0.0195
  172SAPS   H3X19565   5.456   2.233   5.976 -0.3279 -1.1092  1.7478
  172SAPS   H3Y19566   5.603   2.327   6.021 -1.1922 -1.4082 -0.9083
  172SAPS   C3419567   5.485   2.425   5.880  1.1662 -0.2712  0.5437
  172SAPS   H4X19568   5.548   2.513   5.903 -1.6264  1.1784  3.4733
  172SAPS   H4Y19569   5.383   2.469   5.877  1.5754  0.6472 -0.2437
  172SAPS   C3519570   5.526   2.352   5.753  0.0555  0.0103  0.3987
  172SAPS   H5X19571   5.461   2.262   5.749  0.7407 -0.4803  0.2553
  172SAPS   H5Y19572   5.631   2.325   5.773 -0.5365 -1.2874  2.0536
  172SAPS   C3619573   5.516   2.435   5.622 -0.5132  0.1395  0.2520
  172SAPS   H6X19574   5.577   2.528   5.627 -1.8342  1.0880 -0.3986
  172SAPS   H6Y19575   5.409   2.466   5.618 -0.8664 -0.7809  1.7559
  172SAPS   C3719576   5.528   2.360   5.486 -0.6075  0.6766 -0.5213
  172SAPS   H7X19577   5.448   2.284   5.472 -0.5596  0.7093 -0.9787
  172SAPS   H7Y19578   5.630   2.316   5.491 -1.2733 -0.8134  2.0802
  172SAPS   C3819579   5.517   2.459   5.373 -0.0273  0.5408 -0.1607
  172SAPS   H8X19580   5.590   2.539   5.396  1.2056 -0.8118  0.8614
  172SAPS   H8Y19581   5.424   2.518   5.380 -0.4985 -0.2854  0.6952
  172SAPS   C3919582   5.550   2.418   5.227 -0.6777  0.1328 -0.4657
  172SAPS   H9X19583   5.462   2.357   5.200 -1.0865  0.9706 -1.0762
  172SAPS   H9Y19584   5.642   2.358   5.213  0.8805  2.4164 -0.6191
  172SAPS  C31019585   5.545   2.541   5.130  0.2906 -0.0323 -0.3090
  172SAPS  H10X19586   5.635   2.602   5.149 -0.4626  0.8692  0.4827
  172SAPS  H10Y19587   5.447   2.584   5.161 -0.1006 -1.2857  0.2765
  172SAPS  C31119588   5.556   2.493   4.978  0.9758 -0.1574  0.0846
  172SAPS  H11X19589   5.489   2.404   4.974  2.4617 -1.2928 -0.5633
  172SAPS  H11Y19590   5.658   2.457   4.953 -0.2001 -3.4720 -0.5696
  172SAPS  C31219591   5.522   2.599   4.878  0.1225  0.6016  0.2396
  172SAPS  H12X19592   5.507   2.700   4.923 -0.6971  0.0692  1.1741
  172SAPS  H12Y19593   5.433   2.562   4.824  1.0589 -0.4796 -0.6141
  172SAPS  C31319594   5.626   2.622   4.764  0.7420  0.2411 -0.4044
  172SAPS  H13X19595   5.644   2.520   4.724  0.1089  0.1431 -0.4385
  172SAPS  H13Y19596   5.720   2.657   4.812  0.4782 -0.1401  0.4095
  172SAPS  C31419597   5.562   2.702   4.649 -0.9274  0.7823 -0.6729
  172SAPS  H14X19598   5.475   2.643   4.611  0.6523 -1.5224 -0.8998
  172SAPS  H14Y19599   5.648   2.707   4.579  0.0247 -1.8035  0.1839
  172SAPS  C31519600   5.520   2.852   4.679 -0.6258  0.5207  0.0157
  172SAPS  H15X19601   5.608   2.894   4.733 -1.7354  0.7781  1.7121
  172SAPS  H15Y19602   5.430   2.856   4.744 -1.9839  1.0344 -1.8133
  172SAPS  C31619603   5.502   2.934   4.551 -0.2237 -0.0191 -0.0455
  172SAPS  H16X19604   5.430   2.884   4.483  0.9246 -1.9522  0.0708
  172SAPS  H16Y19605   5.460   3.033   4.579  2.4927  1.3559 -0.5593
  172SAPS  C31719606   5.633   2.968   4.483 -0.3808 -0.7110 -0.3947
  172SAPS  H17X19607   5.606   3.013   4.385 -0.6616  1.6368  0.7004
  172SAPS  H17Y19608   5.703   2.883   4.466 -0.7862 -1.4091  1.2751
  172SAPS  C31819609   5.717   3.085   4.552  0.3482  0.3628 -0.2080
  172SAPS  H18X19610   5.792   3.120   4.478 -0.4989 -0.2669 -1.3801
  172SAPS  H18Y19611   5.762   3.038   4.643  1.2571  1.2312 -0.1861
  172SAPS  H18Z19612   5.652   3.167   4.588 -0.8862 -0.7760  0.2596
  173SAPS     N19613   1.301   3.510   1.829 -0.0190 -0.1561 -0.4026
  173SAPS   HN119614   1.283   3.477   1.926 -0.8248  1.7801  0.1666
  173SAPS   HN219615   1.298   3.429   1.764  3.5924  0.1808 -1.1661
  173SAPS   HN319616   1.392   3.560   1.822  0.6314 -1.4962 -2.4382
  173SAPS   C1219617   1.187   3.601   1.794 -0.0900  0.5773 -0.8782
  173SAPS  H12A19618   1.183   3.675   1.873  0.2417 -1.7697  1.4699
  173SAPS   C1319619   1.191   3.686   1.665 -0.3859 -0.3699  0.2195
  173SAPS  O13A19620   1.276   3.659   1.577  0.5437  0.0200  0.3497
  173SAPS  O13B19621   1.096   3.760   1.637 -0.1438 -0.0899  0.2010
  173SAPS   C1119622   1.053   3.517   1.810 -0.7675  0.3183  0.1442
  173SAPS  H11A19623   1.048   3.445   1.726  1.2612  0.6405 -0.3223
  173SAPS  H11B19624   0.969   3.589   1.799 -0.8841  0.7989  3.2108
  173SAPS     P19625   0.958   3.478   2.055 -0.4175  0.3355  0.2246
  173SAPS   O1319626   0.836   3.414   2.004  0.7339 -0.4074  0.3296
  173SAPS   O1419627   1.025   3.421   2.173 -0.3970  0.2453  0.2405
  173SAPS   O1219628   1.047   3.444   1.933  0.0093 -0.2917  0.6617
  173SAPS   O1119629   0.948   3.634   2.053  0.4913 -0.0671 -0.4635
  173SAPS    C119630   0.822   3.703   2.055  0.4881  1.0077 -0.0810
  173SAPS    HA19631   0.826   3.779   1.973  1.2398  0.4167 -0.6073
  173SAPS    HB19632   0.736   3.633   2.049  0.1430  1.3825  0.4435
  173SAPS    C219633   0.805   3.784   2.185 -0.4451 -0.1672 -0.3134
  173SAPS    HS19634   0.905   3.829   2.204  0.0525 -1.6696  0.7998
  173SAPS   O2119635   0.772   3.695   2.290 -0.4384  0.0122 -0.4433
  173SAPS   C2119636   0.867   3.657   2.377  0.7517 -0.5815  0.4317
  173SAPS   O2219637   0.984   3.692   2.380 -0.3419  0.8539  0.6551
  173SAPS   C2219638   0.807   3.554   2.470 -0.0711  0.0174 -0.5508
  173SAPS   H2R19639   0.896   3.512   2.522 -1.2979 -0.9601  0.8176
  173SAPS   H2S19640   0.751   3.613   2.545  1.6019  0.5024  0.3684
  173SAPS    C319641   0.696   3.897   2.179 -0.1648 -0.7575  0.2212
  173SAPS    HX19642   0.610   3.838   2.143 -0.9399  1.2181 -1.3431
  173SAPS    HY19643   0.726   3.971   2.102 -1.2561  1.9339  2.2077
  173SAPS   O3119644   0.677   3.967   2.307 -0.1912  0.7711  0.0609
  173SAPS   C3119645   0.781   4.033   2.357 -0.7371  0.1152 -0.9555
  173SAPS   O3219646   0.876   4.080   2.301 -0.4562  0.2566 -0.6264
  173SAPS   C3219647   0.758   4.053   2.510  0.2733 -0.0297 -0.1140
  173SAPS   H2X19648   0.650   4.068   2.529  0.1764 -0.6549 -0.1537
  173SAPS   H2Y19649   0.804   4.151   2.535 -1.2604  1.3514 -2.3487
  173SAPS   C2319650   0.711   3.439   2.409 -0.2677  0.2120 -0.1507
  173SAPS   H3R19651   0.754   3.367   2.336 -1.5740  0.9119 -1.6543
  173SAPS   H3S19652   0.625   3.475   2.349 -0.6049 -1.0159 -0.4391
  173SAPS   C2419653   0.646   3.372   2.530 -1.0691  0.5881  0.9924
  173SAPS   H4R19654   0.568   3.304   2.488  0.7027 -0.1985 -1.2175
  173SAPS   H4S19655   0.587   3.439   2.597 -3.9947  0.1162 -0.9281
  173SAPS   C2519656   0.747   3.297   2.619  0.0534 -0.5000  0.0258
  173SAPS   H5R19657   0.822   3.232   2.571 -0.7726 -1.1550 -0.4089
  173SAPS   C2619658   0.734   3.289   2.755 -0.5560 -0.2840  0.5547
  173SAPS   H6R19659   0.803   3.215   2.798  0.8382  1.1566  0.8817
  173SAPS   C2719660   0.653   3.363   2.861  0.1967  0.5366 -0.0921
  173SAPS   H7R19661   0.570   3.413   2.806 -0.0310  0.3704  0.0968
  173SAPS   H7S19662   0.714   3.436   2.918 -0.2422 -1.6049  3.4222
  173SAPS   C2819663   0.588   3.275   2.964  0.0905  0.5079  0.1081
  173SAPS   H8R19664   0.587   3.165   2.953 -0.1219  0.3952  1.1133
  173SAPS   C2919665   0.506   3.326   3.055 -0.4623  0.1525  0.2455
  173SAPS   H9R19666   0.445   3.263   3.123  0.4507 -1.8295 -0.6890
  173SAPS  C21019667   0.489   3.481   3.067 -0.3677 -0.9265  0.5091
  173SAPS  H10R19668   0.416   3.513   2.990 -0.4538 -1.9620  0.1365
  173SAPS  H10S19669   0.585   3.534   3.053 -0.7629 -0.0603  1.0451
  173SAPS  C21119670   0.424   3.541   3.187 -0.1990 -0.2317 -0.9733
  173SAPS  H11R19671   0.357   3.624   3.161 -0.7554 -0.2853  0.1824
  173SAPS  C21219672   0.428   3.501   3.320 -0.5977 -0.1727  0.1001
  173SAPS  H12R19673   0.357   3.557   3.384  0.2020  1.3291 -0.2785
  173SAPS  C21319674   0.518   3.397   3.384 -0.1112  0.3669  0.2312
  173SAPS  H13R19675   0.580   3.440   3.466 -0.5267 -0.8058  1.1957
  173SAPS  H13S19676   0.596   3.372   3.309  0.7308  0.4308  1.0627
  173SAPS  C21419677   0.441   3.270   3.414 -0.2596  0.4182  0.1956
  173SAPS  H14R19678   0.410   3.210   3.327 -1.6152  1.5004 -0.0992
  173SAPS  C21519679   0.407   3.231   3.535  0.0206  0.0484  0.1180
  173SAPS  H15R19680   0.344   3.142   3.548  1.1056 -0.7270  0.1832
  173SAPS  C21619681   0.440   3.308   3.668  0.4562 -0.3708  0.0044
  173SAPS  H16R19682   0.532   3.370   3.673  0.7645 -0.9169  2.6456
  173SAPS  H16S19683   0.461   3.233   3.747 -1.1263 -0.9896 -0.1276
  173SAPS  C21719684   0.317   3.399   3.716  0.3337  0.6445 -0.3342
  173SAPS  H17R19685   0.298   3.487   3.652  0.1559  0.4087 -0.6094
  173SAPS  H17S19686   0.338   3.439   3.818 -1.4984 -0.6497  0.6226
  173SAPS  C21819687   0.186   3.316   3.734  0.6484  0.0551  0.2875
  173SAPS  H18R19688   0.218   3.225   3.790  1.2842  0.2288  0.2191
  173SAPS  H18S19689   0.131   3.286   3.643 -1.6159  0.0464  1.6027
  173SAPS  C21919690   0.075   3.372   3.826 -0.0450  0.7268 -0.0841
  173SAPS  H19R19691   0.001   3.291   3.846 -2.2034  2.2623 -1.4227
  173SAPS  H19S19692   0.012   3.437   3.763 -2.6121 -1.8466 -0.4017
  173SAPS  C22019693   0.115   3.422   3.963  0.3655 -0.3520 -0.2091
  173SAPS  H20R19694   0.168   3.520   3.961 -1.9572  1.0099  0.8619
  173SAPS  H20S19695   0.181   3.340   4.000  0.2203 -0.2497  0.2856
  173SAPS  H20T19696   0.032   3.438   4.035 -1.7066  1.1991 -2.7597
  173SAPS   C3319697   0.811   3.936   2.588  0.0356 -0.3057  0.4784
  173SAPS   H3X19698   0.774   3.841   2.544 -1.5201  0.2565  0.4970
  173SAPS   H3Y19699   0.779   3.944   2.694 -0.7746  2.7650  0.0931
  173SAPS   C3419700   0.967   3.935   2.607 -0.5771  0.2570 -0.2930
  173SAPS   H4X19701   1.004   3.904   2.507 -2.6862 -1.2055 -0.6882
  173SAPS   H4Y19702   1.004   3.856   2.675 -1.6505 -0.5840 -0.6517
  173SAPS   C3519703   1.023   4.069   2.655 -1.0829 -0.4201  0.6072
  173SAPS   H5X19704   0.958   4.108   2.736  1.5903  1.1479  2.1668
  173SAPS   H5Y19705   1.043   4.138   2.571 -2.0787 -0.3605  0.4148
  173SAPS   C3619706   1.168   4.060   2.721 -0.2827 -0.2160 -0.7400
  173SAPS   H6X19707   1.232   4.029   2.637  0.2978  1.3015 -0.8895
  173SAPS   H6Y19708   1.183   3.979   2.796 -0.2688 -0.4933 -1.0431
  173SAPS   C3719709   1.207   4.192   2.787 -0.3993  0.1343 -0.8477
  173SAPS   H7X19710   1.202   4.279   2.719  1.1199 -1.5281 -3.2566
  173SAPS   H7Y19711   1.314   4.184   2.817 -0.8067  1.1229  1.0419
  173SAPS   C3819712   1.139   4.227   2.924  0.0303  0.6982  0.1918
  173SAPS   H8X19713   1.039   4.257   2.886 -0.2006  0.9238  0.9480
  173SAPS   H8Y19714   1.188   4.314   2.974  1.1706  0.1781  0.0067
  173SAPS   C3919715   1.128   4.101   3.010  0.4848 -0.5474 -0.2806
  173SAPS   H9X19716   1.231   4.060   3.018  1.2885  1.6781  1.8632
  173SAPS   H9Y19717   1.063   4.022   2.966  1.6101 -1.3192 -0.6193
  173SAPS  C31019718   1.068   4.129   3.149 -0.2543  0.0839  0.4842
  173SAPS  H10X19719   0.990   4.055   3.175 -0.9681  0.5162 -0.3443
  173SAPS  H10Y19720   1.019   4.229   3.144  0.0768  0.1969 -2.6418
  173SAPS  C31119721   1.182   4.121   3.245 -0.6243 -0.1165 -0.0449
  173SAPS  H11X19722   1.260   4.186   3.201 -0.4527 -0.5019 -0.3141
  173SAPS  H11Y19723   1.219   4.018   3.263 -0.2743 -0.1324 -0.8398
  173SAPS  C31219724   1.149   4.177   3.384  0.3819  0.2015 -0.1963
  173SAPS  H12X19725   1.044   4.154   3.414  0.7983 -2.3913 -0.4403
  173SAPS  H12Y19726   1.161   4.287   3.382 -0.7173  0.3291 -0.2747
  173SAPS  C31319727   1.237   4.127   3.499 -0.0275  0.7516 -0.1864
  173SAPS  H13X19728   1.345   4.142   3.481  0.1625 -0.2925  0.0652
  173SAPS  H13Y19729   1.204   4.021   3.506  0.9294  0.5605  3.0314
  173SAPS  C31419730   1.187   4.178   3.634 -0.1583 -0.2199 -0.2695
  173SAPS  H14X19731   1.079   4.158   3.651  0.1482 -0.0313  2.2744
  173SAPS  H14Y19732   1.224   4.280   3.654  3.5233 -1.7085  1.4495
  173SAPS  C31519733   1.240   4.099   3.762 -0.6182  0.2474 -0.4547
  173SAPS  H15X19734   1.237   3.991   3.740  1.4862  0.7068 -3.6364
  173SAPS  H15Y19735   1.157   4.117   3.833 -0.8437 -1.6330 -0.1923
  173SAPS  C31619736   1.371   4.151   3.804 -0.2024 -0.0786 -0.6166
  173SAPS  H16X19737   1.371   4.253   3.848 -0.8712  0.3370 -1.5460
  173SAPS  H16Y19738   1.441   4.145   3.717 -0.7243  0.1651 -1.0608
  173SAPS  C31719739   1.428   4.056   3.909 -0.4799  0.1977 -0.7408
  173SAPS  H17X19740   1.533   4.085   3.933  0.5745 -2.0957 -2.1908
  173SAPS  H17Y19741   1.421   3.953   3.867  0.7643 -1.1495  2.0424
  173SAPS  C31819742   1.353   4.034   4.041 -0.3868 -0.6217  0.3026
  173SAPS  H18X19743   1.243   4.036   4.027 -0.5065 -2.1170  0.7815
  173SAPS  H18Y19744   1.375   4.115   4.114 -0.1359  0.1368 -0.5963
  173SAPS  H18Z19745   1.374   3.929   4.071 -2.0269 -1.0247  0.1311
  174SAPS     N19746   4.534   3.805   2.254  0.1026 -0.0637 -0.2193
  174SAPS   HN119747   4.551   3.725   2.319 -1.4202  1.4261  2.1405
  174SAPS   HN219748   4.552   3.892   2.308 -0.5182  1.2876 -2.0796
  174SAPS   HN319749   4.435   3.806   2.223 -0.2699  0.0562  0.9302
  174SAPS   C1219750   4.632   3.795   2.140  0.2144 -0.4707 -0.0331
  174SAPS  H12A19751   4.608   3.715   2.072  1.1950 -2.5501  1.9383
  174SAPS   C1319752   4.629   3.928   2.055 -0.3159 -0.1218  0.6339
  174SAPS  O13A19753   4.536   4.012   2.070 -0.3402 -0.1165  0.3703
  174SAPS  O13B19754   4.717   3.950   1.974  0.3108  0.7625 -0.0289
  174SAPS   C1119755   4.768   3.755   2.206 -0.5849  0.4452  0.3569
  174SAPS  H11A19756   4.802   3.821   2.288  0.6332 -0.4708  0.6265
  174SAPS  H11B19757   4.834   3.774   2.118 -1.2731  0.3798 -0.1827
  174SAPS     P19758   4.752   3.562   2.378 -0.2390  0.4983 -0.2351
  174SAPS   O1319759   4.611   3.579   2.417 -0.0697  0.6169  0.3703
  174SAPS   O1419760   4.803   3.423   2.375 -0.0731  0.5403  0.0967
  174SAPS   O1219761   4.772   3.611   2.235  0.0414  0.4661  0.3914
  174SAPS   O1119762   4.843   3.656   2.466  0.8548 -0.3123  0.1534
  174SAPS    C119763   4.946   3.598   2.553 -0.1832  0.5569 -0.4092
  174SAPS    HA19764   5.005   3.516   2.508  1.5936  1.7505 -0.3365
  174SAPS    HB19765   5.017   3.672   2.596  0.3066  0.2726 -0.7287
  174SAPS    C219766   4.874   3.547   2.679  0.0673  0.2850 -0.1101
  174SAPS    HS19767   4.793   3.476   2.652 -0.5309  0.2573  1.6126
  174SAPS   O2119768   4.824   3.663   2.756  0.3886  0.7334 -0.0125
  174SAPS   C2119769   4.694   3.654   2.799  0.3376 -0.2362 -0.4160
  174SAPS   O2219770   4.615   3.572   2.759 -0.4731  0.5443  0.2543
  174SAPS   C2219771   4.661   3.771   2.884 -0.4283  0.4141  0.0881
  174SAPS   H2R19772   4.665   3.866   2.826 -0.6157  0.6851  0.5168
  174SAPS   H2S19773   4.551   3.774   2.900 -0.6693 -3.1013 -0.2630
  174SAPS    C319774   4.964   3.467   2.772 -0.5528  0.1607 -0.1018
  174SAPS    HX19775   5.066   3.508   2.787  0.4192 -2.5112  1.2101
  174SAPS    HY19776   4.985   3.372   2.719  4.2448 -0.0014  1.5544
  174SAPS   O3119777   4.910   3.443   2.900  0.0660  0.2261  0.5051
  174SAPS   C3119778   4.978   3.355   2.975 -0.4074 -0.6819 -1.0201
  174SAPS   O3219779   5.058   3.274   2.931  0.0016  0.1314 -0.0698
  174SAPS   C3219780   4.944   3.382   3.121  0.3172  0.6412 -0.2929
  174SAPS   H2X19781   4.835   3.400   3.118 -0.2089 -2.1317 -0.7212
  174SAPS   H2Y19782   4.994   3.475   3.155  0.5243  0.2941  0.3760
  174SAPS   C2319783   4.760   3.803   3.003  0.3700  0.4533 -0.4000
  174SAPS   H3R19784   4.757   3.913   3.019 -2.2607  0.2996  0.7342
  174SAPS   H3S19785   4.864   3.773   2.978  0.4549  0.4834 -0.0873
  174SAPS   C2419786   4.711   3.729   3.125  0.4181  0.4369 -0.4441
  174SAPS   H4R19787   4.699   3.620   3.105  0.5787  0.4936 -0.8551
  174SAPS   H4S19788   4.608   3.766   3.142 -0.2885 -0.2846 -2.8092
  174SAPS   C2519789   4.799   3.755   3.246 -0.0146  0.8501  0.2829
  174SAPS   H5R19790   4.877   3.831   3.235  0.6938  0.6240  3.0184
  174SAPS   C2619791   4.779   3.708   3.373  0.0644  0.2596  0.3735
  174SAPS   H6R19792   4.856   3.726   3.450  1.0500 -3.0003  0.3303
  174SAPS   C2719793   4.664   3.621   3.420  0.4324  0.8259 -0.1667
  174SAPS   H7R19794   4.630   3.541   3.350  0.1561  1.2241 -0.4914
  174SAPS   H7S19795   4.575   3.687   3.426  0.5919  1.0333 -0.0967
  174SAPS   C2819796   4.668   3.561   3.558 -0.3563  0.4809  0.0951
  174SAPS   H8R19797   4.660   3.452   3.560 -0.2770  0.4830  0.4771
  174SAPS   C2919798   4.670   3.620   3.678  0.5482 -0.9184  0.2556
  174SAPS   H9R19799   4.657   3.561   3.770 -1.0562 -0.3219  0.4465
  174SAPS  C21019800   4.675   3.770   3.697  0.1050 -0.1677  0.0863
  174SAPS  H10R19801   4.667   3.827   3.602 -1.8133  0.4941  0.6057
  174SAPS  H10S19802   4.762   3.808   3.756  2.0764  1.5353 -3.5389
  174SAPS  C21119803   4.564   3.812   3.784  0.5289 -0.6768  0.5046
  174SAPS  H11R19804   4.586   3.785   3.889  0.0591 -0.8053  0.5723
  174SAPS  C21219805   4.455   3.880   3.766 -0.1973 -0.0100 -0.0885
  174SAPS  H12R19806   4.403   3.897   3.861  0.2384 -1.1751  0.3659
  174SAPS  C21319807   4.408   3.932   3.635 -0.4263 -0.4304  0.6340
  174SAPS  H13R19808   4.311   3.882   3.613  0.7119 -1.7339 -1.7576
  174SAPS  H13S19809   4.473   3.890   3.555 -1.6916 -2.7648  0.7613
  174SAPS  C21419810   4.413   4.085   3.625 -0.2829 -0.4006 -0.2482
  174SAPS  H14R19811   4.345   4.126   3.702  1.2461 -0.3826  1.1335
  174SAPS  C21519812   4.449   4.161   3.520  0.7596 -0.4138  0.0186
  174SAPS  H15R19813   4.458   4.270   3.533 -1.6328  0.1714 -2.3925
  174SAPS  C21619814   4.502   4.112   3.389  0.3355  0.4719  0.2230
  174SAPS  H16R19815   4.559   4.018   3.404 -1.1643 -0.6772 -1.0065
  174SAPS  H16S19816   4.578   4.183   3.351  1.0246 -0.3916 -0.0234
  174SAPS  C21719817   4.385   4.095   3.281 -0.6470 -0.0027 -0.3808
  174SAPS  H17R19818   4.314   4.180   3.294  1.0762  1.6637 -1.3043
  174SAPS  H17S19819   4.325   4.003   3.294 -0.0015 -0.8626 -2.9946
  174SAPS  C21819820   4.433   4.086   3.136 -0.4420 -0.3306 -0.7007
  174SAPS  H18R19821   4.491   3.993   3.113 -0.0041  0.2917 -2.2256
  174SAPS  H18S19822   4.512   4.162   3.120 -0.1971 -0.9731 -3.0381
  174SAPS  C21919823   4.325   4.095   3.035 -0.3134 -0.4512  0.1410
  174SAPS  H19R19824   4.251   4.178   3.038 -0.6869 -0.5800 -2.4967
  174SAPS  H19S19825   4.260   4.007   3.052  0.2763 -1.0910 -0.8224
  174SAPS  C22019826   4.384   4.079   2.890  0.9137 -0.3992 -0.4162
  174SAPS  H20R19827   4.303   4.039   2.826  0.3154 -1.3957  0.9104
  174SAPS  H20S19828   4.456   3.994   2.893  0.9295 -0.3746  2.0266
  174SAPS  H20T19829   4.424   4.174   2.848 -1.1314 -0.1140 -1.8749
  174SAPS   C3319830   4.986   3.275   3.226  0.0350  0.3391  1.3481
  174SAPS   H3X19831   5.091   3.242   3.208  0.3926  1.2446  1.7001
  174SAPS   H3Y19832   4.916   3.189   3.229 -0.6811  0.9306  1.8652
  174SAPS   C3419833   4.989   3.343   3.355  0.8148  0.6562 -0.3376
  174SAPS   H4X19834   4.898   3.405   3.365 -0.4700 -1.1787 -0.2165
  174SAPS   H4Y19835   5.074   3.415   3.355 -0.3472  2.1197  1.3485
  174SAPS   C3519836   5.009   3.257   3.483 -0.3107 -0.2397  0.2104
  174SAPS   H5X19837   5.118   3.236   3.489 -0.0324  1.4052  1.5021
  174SAPS   H5Y19838   4.952   3.162   3.477 -0.9206  0.1681 -0.4595
  174SAPS   C3619839   4.970   3.332   3.615 -0.4386  0.0210  0.1974
  174SAPS   H6X19840   4.866   3.370   3.605 -0.4469 -0.2889 -0.9972
  174SAPS   H6Y19841   5.033   3.423   3.616 -0.4548  0.0358  1.5397
  174SAPS   C3719842   5.001   3.252   3.744  0.1756  0.5178 -0.0576
  174SAPS   H7X19843   5.110   3.238   3.756  0.7038 -0.2230 -4.1374
  174SAPS   H7Y19844   4.941   3.158   3.750 -2.4699  2.1253  0.2343
  174SAPS   C3819845   4.940   3.332   3.859 -0.4466 -0.0823  0.3880
  174SAPS   H8X19846   4.830   3.326   3.847 -0.3800 -0.2115 -0.1859
  174SAPS   H8Y19847   4.979   3.436   3.854 -1.6149  0.4171  1.2558
  174SAPS   C3919848   4.977   3.266   3.993  0.1138  0.6712  0.1535
  174SAPS   H9X19849   5.085   3.275   4.018  0.3793 -2.3364  0.4591
  174SAPS   H9Y19850   4.961   3.157   3.976  1.4626  0.5560 -0.5092
  174SAPS  C31019851   4.893   3.322   4.109 -0.3594  0.6573 -0.0431
  174SAPS  H10X19852   4.785   3.329   4.081 -1.0271  0.5716  2.2971
  174SAPS  H10Y19853   4.938   3.422   4.122  0.9506  0.0979 -0.1290
  174SAPS  C31119854   4.891   3.257   4.247 -0.4106  0.6042 -0.3275
  174SAPS  H11X19855   4.993   3.241   4.288 -0.5630 -0.8392 -0.4697
  174SAPS  H11Y19856   4.852   3.154   4.236 -0.3852  0.5473  0.1161
  174SAPS  C31219857   4.806   3.313   4.361  0.5518  0.2661  0.1523
  174SAPS  H12X19858   4.774   3.241   4.440  1.4802 -0.7624 -0.3803
  174SAPS  H12Y19859   4.709   3.352   4.324  2.3933  2.7800 -2.3660
  174SAPS  C31319860   4.865   3.431   4.436 -0.3705 -0.6065 -0.1907
  174SAPS  H13X19861   4.872   3.521   4.370 -0.6601 -1.3698 -1.2816
  174SAPS  H13Y19862   4.970   3.407   4.465  0.0996  0.5354 -0.8363
  174SAPS  C31419863   4.780   3.477   4.559 -0.4672 -0.2803 -0.3896
  174SAPS  H14X19864   4.758   3.386   4.618 -0.8476  0.0438 -0.0265
  174SAPS  H14Y19865   4.685   3.516   4.517  0.0915  1.9290  0.2816
  174SAPS  C31519866   4.857   3.573   4.649 -0.0054  0.2569  0.2692
  174SAPS  H15X19867   4.855   3.675   4.606  0.0049 -0.1264 -0.6805
  174SAPS  H15Y19868   4.956   3.523   4.652 -0.7747 -1.7147 -2.6884
  174SAPS  C31619869   4.793   3.587   4.786  0.0774 -0.4782 -0.0747
  174SAPS  H16X19870   4.706   3.519   4.794 -0.5596  0.0251 -2.2273
  174SAPS  H16Y19871   4.760   3.693   4.796 -0.1902 -0.6610  1.2364
  174SAPS  C31719872   4.890   3.549   4.897  0.2108  0.1280  0.2269
  174SAPS  H17X19873   4.900   3.438   4.902 -0.0032 -0.1286 -3.0776
  174SAPS  H17Y19874   4.836   3.570   4.992 -1.2446 -1.1167 -0.2734
  174SAPS  C31819875   5.040   3.610   4.898  0.4216  0.4678  0.2146
  174SAPS  H18X19876   5.049   3.720   4.906  0.2979  0.7091 -2.0883
  174SAPS  H18Y19877   5.084   3.579   4.800 -0.3112 -1.5484  0.4694
  174SAPS  H18Z19878   5.104   3.564   4.976  0.8323  0.3738 -0.1673
  175SAPS     N19879   2.659   2.521   1.732 -0.2300 -0.5513 -0.4555
  175SAPS   HN119880   2.762   2.511   1.734 -0.4146 -2.9917 -0.1493
  175SAPS   HN219881   2.629   2.605   1.678 -2.8375 -1.0615  0.0582
  175SAPS   HN319882   2.626   2.519   1.831 -1.4925  3.2157 -0.6548
  175SAPS   C1219883   2.592   2.412   1.662 -0.4320  0.2353 -0.1468
  175SAPS  H12A19884   2.493   2.445   1.635 -0.1312 -0.5024 -2.3228
  175SAPS   C1319885   2.652   2.388   1.517 -1.2062  0.2893 -0.3050
  175SAPS  O13A19886   2.759   2.454   1.479  0.3157  0.2207 -0.4716
  175SAPS  O13B19887   2.582   2.312   1.442 -0.1994  0.1424 -0.8377
  175SAPS   C1119888   2.596   2.279   1.744 -0.1301  0.0943  0.7150
  175SAPS  H11A19889   2.702   2.248   1.757 -0.2090  0.0242  1.2312
  175SAPS  H11B19890   2.560   2.189   1.689  1.6017 -1.1810  1.5799
  175SAPS     P19891   2.372   2.267   1.880 -0.1744  0.3809  0.1293
  175SAPS   O1319892   2.314   2.368   1.791  0.2411 -0.8032  0.2822
  175SAPS   O1419893   2.329   2.122   1.860 -0.1205  0.1508  0.0029
  175SAPS   O1219894   2.530   2.289   1.867  0.2449  0.0691 -0.3659
  175SAPS   O1119895   2.355   2.293   2.031 -0.0552 -0.6461 -0.1219
  175SAPS    C119896   2.444   2.242   2.123  0.5511  0.0898 -0.6084
  175SAPS    HA19897   2.550   2.239   2.089  0.9821 -0.1849  0.7202
  175SAPS    HB19898   2.450   2.303   2.216  1.3595 -1.2255  0.2329
  175SAPS    C219899   2.399   2.105   2.180  0.9140  0.3524 -0.2989
  175SAPS    HS19900   2.371   2.036   2.098 -1.2286  1.4837 -0.6034
  175SAPS   O2119901   2.281   2.118   2.272 -0.2876  1.1449  0.1585
  175SAPS   C2119902   2.189   2.019   2.269 -0.6879 -0.1311  0.7085
  175SAPS   O2219903   2.207   1.916   2.195  0.6619  0.1281 -0.1405
  175SAPS   C2219904   2.099   2.039   2.401 -0.7240 -0.4357  0.4153
  175SAPS   H2R19905   2.038   2.128   2.374  1.2448  0.5053 -1.2702
  175SAPS   H2S19906   2.039   1.950   2.429 -0.0574 -0.7291  0.9457
  175SAPS    C319907   2.516   2.041   2.259  0.7407  0.4558 -0.1990
  175SAPS    HX19908   2.546   2.116   2.335  2.0826 -0.2922  0.0385
  175SAPS    HY19909   2.605   2.024   2.195  2.2130 -1.6143  2.2287
  175SAPS   O3119910   2.481   1.909   2.308  0.1271  0.2361  0.0481
  175SAPS   C3119911   2.467   1.893   2.438  0.0824  0.1193 -0.4831
  175SAPS   O3219912   2.482   1.982   2.517  0.0301 -0.3186  0.1205
  175SAPS   C3219913   2.418   1.751   2.461 -0.1953 -0.1210  0.5107
  175SAPS   H2X19914   2.465   1.681   2.389 -1.8114 -0.5989 -0.1443
  175SAPS   H2Y19915   2.311   1.747   2.430  0.1796  1.6537 -1.2143
  175SAPS   C2319916   2.184   2.077   2.526 -0.1568  0.1811  0.2376
  175SAPS   H3R19917   2.272   2.137   2.494  0.4116 -1.7144 -2.0916
  175SAPS   H3S19918   2.230   1.984   2.565  1.0619  0.6064 -0.1299
  175SAPS   C2419919   2.097   2.140   2.630 -0.4595 -0.0977 -0.1074
  175SAPS   H4R19920   2.055   2.235   2.591  0.8550  0.6550  0.2361
  175SAPS   H4S19921   2.165   2.172   2.712 -0.9157 -3.9410  2.0443
  175SAPS   C2519922   1.989   2.048   2.674  0.2539 -0.0406  0.2204
  175SAPS   H5R19923   1.930   2.004   2.593  1.2661 -1.5528  0.2572
  175SAPS   C2619924   1.979   1.994   2.798  0.6842  0.1846  0.5291
  175SAPS   H6R19925   1.901   1.918   2.807  1.7804 -0.9554  0.6329
  175SAPS   C2719926   2.068   2.024   2.917  0.9681 -0.0852 -0.0306
  175SAPS   H7R19927   2.009   2.005   3.009 -1.4617  0.6946 -1.3339
  175SAPS   H7S19928   2.087   2.133   2.931  2.8363 -0.3212 -0.5157
  175SAPS   C2819929   2.206   1.964   2.910  0.3722  0.0024 -0.3332
  175SAPS   H8R19930   2.249   1.948   2.810  0.2272  0.9749 -0.5624
  175SAPS   C2919931   2.280   1.891   3.004  0.1977  0.2898  0.6043
  175SAPS   H9R19932   2.386   1.873   2.983  0.3713  0.5529  1.2499
  175SAPS  C21019933   2.249   1.875   3.152  0.4618  0.3519 -0.2887
  175SAPS  H10R19934   2.222   1.974   3.194 -1.2677 -0.4947  0.6915
  175SAPS  H10S19935   2.336   1.839   3.211  0.3217  0.7009  0.1398
  175SAPS  C21119936   2.145   1.763   3.178  0.5767 -0.8878 -0.1898
  175SAPS  H11R19937   2.129   1.700   3.089 -1.3037 -0.4561 -0.1878
  175SAPS  C21219938   2.072   1.740   3.289  0.1863 -0.1009 -0.1612
  175SAPS  H12R19939   1.997   1.660   3.280 -0.4790  0.4344  0.5508
  175SAPS  C21319940   2.081   1.803   3.424  0.0847  0.9236 -0.0088
  175SAPS  H13R19941   1.978   1.835   3.452 -0.8794 -0.4223 -1.7876
  175SAPS  H13S19942   2.154   1.887   3.425  2.8853 -1.3452 -0.9834
  175SAPS  C21419943   2.132   1.698   3.517  0.1161 -0.2225 -0.0977
  175SAPS  H14R19944   2.126   1.597   3.474 -2.7121  0.6108 -1.8939
  175SAPS  C21519945   2.163   1.726   3.641 -0.7278  0.0146  0.2365
  175SAPS  H15R19946   2.199   1.639   3.698 -0.0398 -1.8606 -2.8482
  175SAPS  C21619947   2.149   1.852   3.715 -0.6324  0.2349  0.4003
  175SAPS  H16R19948   2.115   1.935   3.649  1.7560  0.7595 -0.2603
  175SAPS  H16S19949   2.243   1.888   3.762 -0.4172 -1.6149  1.4538
  175SAPS  C21719950   2.039   1.831   3.826 -0.2277  0.6013  0.2226
  175SAPS  H17R19951   1.969   1.746   3.811 -0.5821  1.0117 -0.4901
  175SAPS  H17S19952   1.978   1.924   3.824 -1.3320 -0.1157 -1.1548
  175SAPS  C21819953   2.091   1.818   3.975  0.8577 -0.0967 -0.4408
  175SAPS  H18R19954   2.164   1.901   3.992  1.7511 -0.4334 -2.3801
  175SAPS  H18S19955   2.157   1.729   3.979 -0.2369 -0.8999  0.4830
  175SAPS  C21919956   1.990   1.821   4.091  0.3156  0.3882 -0.8108
  175SAPS  H19R19957   2.048   1.801   4.184 -0.5681  1.5180  0.0064
  175SAPS  H19S19958   1.903   1.754   4.074  0.6968 -1.9325  4.3908
  175SAPS  C22019959   1.948   1.958   4.129  0.3648  0.2388 -0.6016
  175SAPS  H20R19960   1.865   1.948   4.202  1.3025 -1.4507  0.2826
  175SAPS  H20S19961   1.922   2.010   4.034  0.2907 -0.3161 -0.8886
  175SAPS  H20T19962   2.035   2.007   4.179 -0.7909  0.7286  1.0164
  175SAPS   C3319963   2.444   1.700   2.603  0.0824  0.4573 -0.0909
  175SAPS   H3X19964   2.356   1.721   2.668 -0.5112 -0.4768 -0.5732
  175SAPS   H3Y19965   2.521   1.761   2.655  0.6339 -0.4857  0.2152
  175SAPS   C3419966   2.491   1.554   2.616 -0.2574 -0.2588 -0.0466
  175SAPS   H4X19967   2.598   1.550   2.584  0.0602 -0.2770  0.9814
  175SAPS   H4Y19968   2.430   1.491   2.548 -0.0511 -2.7723  1.9275
  175SAPS   C3519969   2.495   1.485   2.750 -0.1752  0.1712 -0.9805
  175SAPS   H5X19970   2.540   1.551   2.827 -0.6507  0.5889 -1.0529
  175SAPS   H5Y19971   2.551   1.390   2.749  0.3960  0.4495  1.2146
  175SAPS   C3619972   2.354   1.452   2.797  0.0244  0.6598 -0.2521
  175SAPS   H6X19973   2.300   1.392   2.720 -0.0498  0.5251 -0.0941
  175SAPS   H6Y19974   2.297   1.546   2.816 -1.1152  0.1369 -0.9646
  175SAPS   C3719975   2.354   1.375   2.933 -0.0796 -0.3191  0.4078
  175SAPS   H7X19976   2.443   1.309   2.935  0.2569 -0.0145 -1.9722
  175SAPS   H7Y19977   2.268   1.307   2.914 -0.3087  0.1494 -0.2657
  175SAPS   C3819978   2.345   1.469   3.051  0.3526  0.0236  0.0988
  175SAPS   H8X19979   2.266   1.545   3.035 -1.2956 -1.6402 -0.0759
  175SAPS   H8Y19980   2.445   1.516   3.065  1.0885 -2.1105  3.1546
  175SAPS   C3919981   2.315   1.398   3.181  1.3482 -0.4127  0.4684
  175SAPS   H9X19982   2.359   1.295   3.182  1.8977 -0.2523 -1.6698
  175SAPS   H9Y19983   2.209   1.394   3.213  1.2111  1.7623  0.4388
  175SAPS  C31019984   2.379   1.473   3.302  0.3142  0.2276  0.2787
  175SAPS  H10X19985   2.358   1.582   3.298  1.7263  0.4862 -1.6140
  175SAPS  H10Y19986   2.487   1.462   3.281  0.2176  0.5718 -0.4236
  175SAPS  C31119987   2.337   1.398   3.437 -0.2437  0.0314  0.0570
  175SAPS  H11X19988   2.372   1.292   3.433  0.0137 -0.0376  2.6429
  175SAPS  H11Y19989   2.226   1.392   3.449 -0.3499  0.9324 -0.4213
  175SAPS  C31219990   2.402   1.455   3.569  0.6461  0.3839  0.1478
  175SAPS  H12X19991   2.367   1.556   3.599 -0.9649  0.2662 -1.1593
  175SAPS  H12Y19992   2.508   1.471   3.543  0.5240 -0.6496 -1.1743
  175SAPS  C31319993   2.376   1.368   3.695  0.4108 -0.0373  0.6733
  175SAPS  H13X19994   2.443   1.279   3.688 -0.3749 -0.6150  0.4280
  175SAPS  H13Y19995   2.272   1.329   3.696 -1.4304  4.2745  1.9250
  175SAPS  C31419996   2.394   1.447   3.823  0.4351 -0.7271  0.1197
  175SAPS  H14X19997   2.325   1.534   3.821  0.8052 -0.4446 -0.3533
  175SAPS  H14Y19998   2.492   1.498   3.833 -0.6065  2.4178 -3.2743
  175SAPS  C31519999   2.385   1.352   3.944 -0.0286  0.5008 -0.5537
  175SAPS  H15X20000   2.457   1.268   3.948 -1.6993 -0.9627  0.1744
  175SAPS  H15Y20001   2.289   1.296   3.931  2.0547 -3.2701 -1.0372
  175SAPS  C31620002   2.381   1.408   4.089 -0.2564 -0.4086 -0.8544
  175SAPS  H16X20003   2.313   1.495   4.098 -1.2453 -1.2529  0.0863
  175SAPS  H16Y20004   2.481   1.449   4.115 -0.8940  1.1347 -0.6912
  175SAPS  C31720005   2.340   1.308   4.197 -0.2751 -0.6284 -0.5299
  175SAPS  H17X20006   2.255   1.244   4.164  0.2507 -1.1106 -0.9660
  175SAPS  H17Y20007   2.307   1.358   4.291 -1.7913 -2.0491 -0.2612
  175SAPS  C31820008   2.454   1.206   4.232  0.1504  0.1864  0.6075
  175SAPS  H18X20009   2.484   1.146   4.143 -0.8218 -1.4348  1.3023
  175SAPS  H18Y20010   2.412   1.134   4.306 -1.7741 -0.1237 -0.6875
  175SAPS  H18Z20011   2.531   1.263   4.287  0.8457  0.7552 -0.8882
  176SAPS     N20012   1.480   4.033   1.672  0.2832  0.4839  0.2475
  176SAPS   HN120013   1.498   4.061   1.573 -0.0696  1.6239  0.4847
  176SAPS   HN220014   1.503   3.934   1.692 -0.8389  0.6538  2.8064
  176SAPS   HN320015   1.376   4.038   1.675  0.3469  1.5321  1.7133
  176SAPS   C1220016   1.534   4.139   1.766 -0.3782 -0.1894  0.1467
  176SAPS  H12A20017   1.642   4.131   1.761 -0.3609  0.2797 -0.3945
  176SAPS   C1320018   1.497   4.289   1.733  0.3333  0.4574 -0.2509
  176SAPS  O13A20019   1.448   4.322   1.628 -0.0004 -0.6623 -0.3905
  176SAPS  O13B20020   1.558   4.370   1.810  0.2192  0.2116 -0.4763
  176SAPS   C1120021   1.486   4.108   1.916  0.2519  0.0614  0.0273
  176SAPS  H11A20022   1.376   4.107   1.904  0.2525 -0.5393  0.0260
  176SAPS  H11B20023   1.509   4.195   1.981 -4.0846  1.6950 -0.3314
  176SAPS     P20024   1.650   3.921   2.023  0.4760  0.2004 -0.0235
  176SAPS   O1320025   1.626   3.775   2.045  0.2060  0.2377 -0.4139
  176SAPS   O1420026   1.757   3.957   1.933  0.3487  0.2893 -0.2557
  176SAPS   O1220027   1.511   3.978   1.969 -0.1729  0.0273  0.4447
  176SAPS   O1120028   1.676   3.990   2.153 -0.3069 -0.1495 -0.1455
  176SAPS    C120029   1.611   3.957   2.275  0.6479  0.2443 -0.4780
  176SAPS    HA20030   1.506   3.924   2.260  0.5250  1.2323 -2.0965
  176SAPS    HB20031   1.666   3.874   2.323  2.2430  1.6889  0.3305
  176SAPS    C220032   1.606   4.086   2.366  0.3785  0.2158 -0.1636
  176SAPS    HS20033   1.616   4.181   2.308  1.1780  1.5356  2.0133
  176SAPS   O2120034   1.713   4.090   2.464 -0.0796 -0.0822  0.7063
  176SAPS   C2120035   1.752   4.206   2.510  0.0366  0.3256  0.7184
  176SAPS   O2220036   1.711   4.313   2.476 -0.3157 -0.0936  0.2526
  176SAPS   C2220037   1.861   4.190   2.611  0.6365 -0.3484  0.9234
  176SAPS   H2R20038   1.815   4.130   2.692 -0.4927  0.3217  0.8020
  176SAPS   H2S20039   1.948   4.135   2.569  0.3947 -0.7441  0.9290
  176SAPS    C320040   1.478   4.090   2.446  0.7099 -0.1778 -0.3805
  176SAPS    HX20041   1.387   4.089   2.382  1.1333 -1.1603 -0.9913
  176SAPS    HY20042   1.466   4.181   2.509  0.5933 -1.5533  1.6654
  176SAPS   O3120043   1.474   3.974   2.534  0.1854  0.0370 -0.4491
  176SAPS   C3120044   1.509   3.998   2.662  0.4285  0.0075  0.9516
  176SAPS   O3220045   1.550   4.103   2.706  0.2374 -0.9136  0.7785
  176SAPS   C3220046   1.508   3.868   2.747  0.7448 -0.0443 -0.2922
  176SAPS   H2X20047   1.571   3.805   2.680 -0.8227 -0.4038 -1.4821
  176SAPS   H2Y20048   1.404   3.835   2.764  1.2500 -1.9418 -0.5523
  176SAPS   C2320049   1.898   4.328   2.681 -0.1629  0.7857 -0.2514
  176SAPS   H3R20050   1.819   4.343   2.758  1.6962  0.2327  1.8749
  176SAPS   H3S20051   1.897   4.416   2.614  2.2072 -1.3970 -3.4683
  176SAPS   C2420052   2.033   4.325   2.756  0.1718  0.2149 -0.4827
  176SAPS   H4R20053   2.046   4.224   2.801  1.4430  0.8837  0.7273
  176SAPS   H4S20054   2.036   4.391   2.845  1.0043  0.6811 -0.8492
  176SAPS   C2520055   2.143   4.355   2.659 -0.4934  0.3815 -0.4930
  176SAPS   H5R20056   2.107   4.335   2.557 -4.0336 -0.1633  0.7088
  176SAPS   C2620057   2.268   4.396   2.696 -0.4118  0.3153  0.1899
  176SAPS   H6R20058   2.340   4.425   2.618 -4.4517  2.5772 -3.1599
  176SAPS   C2720059   2.312   4.411   2.843 -0.1081  0.4569 -0.0970
  176SAPS   H7R20060   2.244   4.483   2.893 -0.5508 -1.3689  2.0937
  176SAPS   H7S20061   2.416   4.451   2.844  0.7769 -1.6934  1.2013
  176SAPS   C2820062   2.306   4.287   2.931  0.0781 -0.1893 -0.4025
  176SAPS   H8R20063   2.345   4.194   2.887  1.7780  0.0060  0.5950
  176SAPS   C2920064   2.258   4.280   3.050 -0.1919 -0.7553  0.0482
  176SAPS   H9R20065   2.260   4.184   3.104  1.0328 -1.2123 -0.7482
  176SAPS  C21020066   2.217   4.399   3.137  0.3379 -0.8539  0.2462
  176SAPS  H10R20067   2.230   4.498   3.088 -1.0952 -1.9141 -2.5385
  176SAPS  H10S20068   2.273   4.402   3.232 -0.6509  0.4779  0.8155
  176SAPS  C21120069   2.066   4.383   3.162  0.2521  0.2977 -0.7118
  176SAPS  H11R20070   1.993   4.418   3.088  0.2088 -1.5095 -1.5776
  176SAPS  C21220071   2.012   4.332   3.275  0.8485 -0.2832  0.0248
  176SAPS  H12R20072   1.902   4.333   3.287  0.7660  0.9124 -0.7210
  176SAPS  C21320073   2.080   4.301   3.407 -0.0417  0.2154  0.3548
  176SAPS  H13R20074   2.176   4.248   3.388 -0.9712 -1.9405  1.3217
  176SAPS  H13S20075   2.026   4.223   3.464  3.3498 -1.7887  1.1524
  176SAPS  C21420076   2.118   4.418   3.496  0.1853  0.3601  0.1880
  176SAPS  H14R20077   2.195   4.487   3.457  1.4760 -0.0017  1.9817
  176SAPS  C21520078   2.064   4.430   3.617 -0.0656  0.2838  0.7533
  176SAPS  H15R20079   2.098   4.517   3.674 -0.8564  1.2551 -0.2251
  176SAPS  C21620080   1.979   4.327   3.693 -0.1775 -0.1478  0.2384
  176SAPS  H16R20081   1.901   4.275   3.634 -0.1066 -1.4529  1.2558
  176SAPS  H16S20082   1.912   4.386   3.759 -0.4392 -1.1868  0.9136
  176SAPS  C21720083   2.057   4.223   3.773 -1.0413 -0.0912 -0.5060
  176SAPS  H17R20084   2.100   4.151   3.700  0.4977 -2.8153  2.8036
  176SAPS  H17S20085   1.979   4.180   3.840 -0.9838  1.3213  0.5195
  176SAPS  C21820086   2.172   4.267   3.871  0.8107  0.1734  0.2863
  176SAPS  H18R20087   2.118   4.337   3.938  1.1266  1.5545 -0.8410
  176SAPS  H18S20088   2.250   4.314   3.807  0.7739 -2.5538 -1.9828
  176SAPS  C21920089   2.238   4.167   3.972 -0.0012 -0.4140  0.3572
  176SAPS  H19R20090   2.339   4.201   4.003 -0.7438 -0.1776  2.7691
  176SAPS  H19S20091   2.241   4.066   3.925  0.9191 -0.3288  0.2296
  176SAPS  C22020092   2.150   4.141   4.091  0.2662 -0.0085  0.2665
  176SAPS  H20R20093   2.058   4.089   4.054 -0.0191  1.0181 -0.5065
  176SAPS  H20S20094   2.122   4.236   4.142 -2.2543  0.4552 -1.7707
  176SAPS  H20T20095   2.192   4.070   4.165  0.8278 -0.3317 -0.3597
  176SAPS   C3320096   1.592   3.892   2.875 -0.4434 -0.6126 -1.1007
  176SAPS   H3X20097   1.676   3.957   2.844 -1.2087  0.1220 -1.6773
  176SAPS   H3Y20098   1.624   3.790   2.905 -0.6763  0.0066  1.4649
  176SAPS   C3420099   1.510   3.945   2.994  0.0785 -0.1203 -0.1555
  176SAPS   H4X20100   1.412   3.894   3.007  1.1271 -2.4283 -0.6559
  176SAPS   H4Y20101   1.474   4.049   2.978 -1.4178 -0.3720  1.2495
  176SAPS   C3520102   1.589   3.937   3.130  0.1935 -0.5170 -0.2502
  176SAPS   H5X20103   1.607   3.829   3.151  1.1976 -0.6228 -1.5293
  176SAPS   H5Y20104   1.537   3.994   3.209  2.2852  1.2603 -0.0700
  176SAPS   C3620105   1.732   4.008   3.148  0.2261 -0.3808  0.4913
  176SAPS   H6X20106   1.719   4.118   3.156  1.7885  0.0945 -2.2547
  176SAPS   H6Y20107   1.781   4.000   3.049 -1.5064 -0.7474 -0.3771
  176SAPS   C3720108   1.802   3.959   3.278  0.2625 -0.1720 -0.4619
  176SAPS   H7X20109   1.910   3.985   3.282  0.0085  0.7297  1.4955
  176SAPS   H7Y20110   1.814   3.849   3.267  2.9628 -0.1370  1.2737
  176SAPS   C3820111   1.742   3.990   3.417 -1.1372  0.6691  0.2746
  176SAPS   H8X20112   1.633   3.969   3.420 -1.2705  1.2000 -0.6026
  176SAPS   H8Y20113   1.745   4.101   3.424  1.6622  0.9703 -2.8134
  176SAPS   C3920114   1.827   3.935   3.527  0.1817 -0.0745  0.0479
  176SAPS   H9X20115   1.932   3.970   3.531 -0.1956  1.0542  1.9512
  176SAPS   H9Y20116   1.833   3.824   3.519  0.1455 -0.2197  1.6845
  176SAPS  C31020117   1.765   3.962   3.670  0.4144 -0.1037 -0.1824
  176SAPS  H10X20118   1.666   3.913   3.681 -0.3471  1.6688  1.5124
  176SAPS  H10Y20119   1.755   4.072   3.679  0.0826 -0.0385 -1.2365
  176SAPS  C31120120   1.856   3.909   3.777 -1.1345 -1.0171  0.3042
  176SAPS  H11X20121   1.953   3.962   3.775  0.5345 -3.8120  1.4094
  176SAPS  H11Y20122   1.896   3.808   3.751  1.3329  0.3825 -1.7386
  176SAPS  C31220123   1.803   3.910   3.915  0.7862 -0.2170 -0.1086
  176SAPS  H12X20124   1.693   3.895   3.907  0.7708 -0.7140  0.8966
  176SAPS  H12Y20125   1.817   4.012   3.957  0.2590 -0.3249  0.3396
  176SAPS  C31320126   1.870   3.798   4.003  0.3455 -0.5753 -0.1954
  176SAPS  H13X20127   1.882   3.826   4.110  0.7128 -1.5242  0.0262
  176SAPS  H13Y20128   1.973   3.790   3.962  0.9674 -0.9044  1.3525
  176SAPS  C31420129   1.797   3.654   3.998 -0.6863 -0.4667  0.5752
  176SAPS  H14X20130   1.876   3.575   4.004 -0.6750 -0.5418 -0.4779
  176SAPS  H14Y20131   1.750   3.633   3.900  1.8452 -0.0168 -0.8120
  176SAPS  C31520132   1.687   3.635   4.107  0.2839  0.0399  0.1282
  176SAPS  H15X20133   1.598   3.700   4.092 -0.5429 -1.0659  0.0743
  176SAPS  H15Y20134   1.732   3.661   4.205  0.2906 -1.0419  0.4297
  176SAPS  C31620135   1.637   3.491   4.124  0.1330 -0.2625 -0.0515
  176SAPS  H16X20136   1.713   3.411   4.142  0.4244 -0.1453 -0.7396
  176SAPS  H16Y20137   1.582   3.468   4.031 -1.2830  1.3866  0.3398
  176SAPS  C31720138   1.542   3.482   4.247  0.2542  0.6378 -0.4118
  176SAPS  H17X20139   1.508   3.587   4.256 -0.1679  0.5177 -0.5874
  176SAPS  H17Y20140   1.599   3.446   4.335 -0.0265  0.8584 -0.1387
  176SAPS  C31820141   1.416   3.399   4.223  0.0446 -0.3228 -0.4258
  176SAPS  H18X20142   1.367   3.410   4.124  0.4951  2.4424 -0.4264
  176SAPS  H18Y20143   1.336   3.418   4.298 -0.8517 -1.1244 -1.1660
  176SAPS  H18Z20144   1.444   3.292   4.236 -0.0295 -0.3744 -0.6984
  177SAPS     N20145   3.719   5.632   2.019  0.5533 -0.1876 -0.9910
  177SAPS   HN120146   3.658   5.552   1.995  1.3585  0.0212 -4.1134
  177SAPS   HN220147   3.817   5.596   2.023  1.5361  2.3395  0.5989
  177SAPS   HN320148   3.703   5.664   2.117 -0.8678 -0.9014 -0.9691
  177SAPS   C1220149   3.712   5.732   1.916  0.0214  0.4476 -0.3829
  177SAPS  H12A20150   3.789   5.801   1.947  1.1905 -1.9991  2.6720
  177SAPS   C1320151   3.740   5.672   1.782  0.4938 -0.1506  0.6645
  177SAPS  O13A20152   3.766   5.547   1.766 -0.3164  0.0736 -1.0081
  177SAPS  O13B20153   3.732   5.752   1.684 -0.0588  0.4709 -0.9895
  177SAPS   C1120154   3.572   5.806   1.915 -0.4708  0.4366 -0.2122
  177SAPS  H11A20155   3.489   5.739   1.886 -0.3861  0.8740 -1.5195
  177SAPS  H11B20156   3.569   5.893   1.846  1.5480 -0.5145 -1.6141
  177SAPS     P20157   3.409   5.830   2.127  0.1148  0.5157  0.6578
  177SAPS   O1320158   3.410   5.902   2.253 -0.2488  0.2839  0.1155
  177SAPS   O1420159   3.292   5.847   2.033  0.6725  0.7839 -0.6852
  177SAPS   O1220160   3.539   5.853   2.048 -0.2638 -0.5372 -0.3473
  177SAPS   O1120161   3.424   5.675   2.158  0.8502  0.0405 -0.5321
  177SAPS    C120162   3.316   5.582   2.172  0.4111  0.6815 -0.8245
  177SAPS    HA20163   3.216   5.631   2.168 -0.5746 -1.2724 -1.1120
  177SAPS    HB20164   3.310   5.514   2.084  0.4365 -0.0426 -0.2727
  177SAPS    C220165   3.332   5.497   2.304 -0.1442  0.2518  0.3321
  177SAPS    HS20166   3.245   5.428   2.313 -0.8882  0.5651 -3.0971
  177SAPS   O2120167   3.351   5.579   2.419 -0.2374  0.0691 -0.0582
  177SAPS   C2120168   3.257   5.667   2.441  0.5412  0.8845 -0.3181
  177SAPS   O2220169   3.146   5.663   2.387 -0.0937  0.0703 -0.1410
  177SAPS   C2220170   3.313   5.776   2.535  0.6348  0.3584  0.2852
  177SAPS   H2R20171   3.423   5.759   2.532  0.8425  1.5749 -2.5573
  177SAPS   H2S20172   3.297   5.874   2.484  1.3326  0.3576  0.0510
  177SAPS    C320173   3.459   5.403   2.288 -0.4532  1.0347 -0.3315
  177SAPS    HX20174   3.535   5.459   2.230 -0.8681 -0.6297 -2.6104
  177SAPS    HY20175   3.438   5.308   2.235  0.6330  0.4948  0.1835
  177SAPS   O3120176   3.516   5.377   2.420  0.2368  0.0171  0.2878
  177SAPS   C3120177   3.438   5.302   2.501  0.0333 -1.0196  0.0274
  177SAPS   O3220178   3.335   5.246   2.468 -0.5230  0.2648  0.1820
  177SAPS   C3220179   3.489   5.319   2.647  0.0555  0.1073 -0.8909
  177SAPS   H2X20180   3.448   5.413   2.691 -1.2994  0.2807 -2.4122
  177SAPS   H2Y20181   3.593   5.358   2.654 -1.2114  3.9632 -1.2392
  177SAPS   C2320182   3.252   5.769   2.673  0.5642 -0.7024 -0.1536
  177SAPS   H3R20183   3.236   5.664   2.707 -1.1472 -0.0390  1.2193
  177SAPS   H3S20184   3.150   5.812   2.665  0.7844 -0.5030 -2.6502
  177SAPS   C2420185   3.334   5.844   2.782  0.1079  0.1476 -0.0270
  177SAPS   H4R20186   3.436   5.801   2.789 -0.3064 -1.1437 -1.3185
  177SAPS   H4S20187   3.290   5.814   2.880  1.3182  1.2883  0.9058
  177SAPS   C2520188   3.327   5.991   2.780 -0.5590 -0.2058  0.1528
  177SAPS   H5R20189   3.223   6.027   2.773 -0.6547 -0.5151 -0.0235
  177SAPS   C2620190   3.435   6.072   2.773 -0.1758  0.5342  0.3932
  177SAPS   H6R20191   3.416   6.180   2.776 -1.2589  0.3765 -0.3157
  177SAPS   C2720192   3.581   6.022   2.751 -0.2068 -0.1704  0.4810
  177SAPS   H7R20193   3.617   6.101   2.682 -3.1658 -1.3225 -2.6090
  177SAPS   H7S20194   3.588   5.928   2.691 -1.2134  0.2293 -0.2844
  177SAPS   C2820195   3.665   6.006   2.879 -0.2885  0.2039 -0.0750
  177SAPS   H8R20196   3.685   5.903   2.913  1.3483  1.3605  2.8701
  177SAPS   C2920197   3.742   6.096   2.942 -0.0288 -0.4694  0.5109
  177SAPS   H9R20198   3.788   6.072   3.038 -1.9863 -0.5338  1.4806
  177SAPS  C21020199   3.738   6.246   2.914  0.8354 -0.0669 -0.3036
  177SAPS  H10R20200   3.768   6.310   3.000 -1.5882  0.7561  0.0048
  177SAPS  H10S20201   3.631   6.274   2.898 -0.6139 -3.3025  2.4088
  177SAPS  C21120202   3.817   6.270   2.791 -0.2068 -0.1320 -0.4259
  177SAPS  H11R20203   3.753   6.285   2.702 -1.6804  2.3118  0.9558
  177SAPS  C21220204   3.952   6.289   2.788  0.2988  0.1081  0.4294
  177SAPS  H12R20205   3.991   6.297   2.685 -1.6190  0.7243 -0.2824
  177SAPS  C21320206   4.055   6.264   2.893 -0.2952 -0.1155 -0.6372
  177SAPS  H13R20207   4.153   6.253   2.844  0.1045  0.2447  0.0684
  177SAPS  H13S20208   4.038   6.178   2.962 -0.4375 -0.7598 -1.4516
  177SAPS  C21420209   4.075   6.397   2.969 -0.1463 -0.4199  0.2341
  177SAPS  H14R20210   4.077   6.486   2.904 -1.6139  1.3438  2.4303
  177SAPS  C21520211   4.081   6.415   3.103  0.6421 -0.5598 -0.3780
  177SAPS  H15R20212   4.103   6.518   3.136 -1.2053 -0.0064 -0.7466
  177SAPS  C21620213   4.070   6.304   3.204 -0.0224  0.0654  0.0458
  177SAPS  H16R20214   4.147   6.327   3.281 -0.3053  3.3802 -0.5294
  177SAPS  H16S20215   4.097   6.205   3.161 -1.8214 -0.8946  0.9954
  177SAPS  C21720216   3.938   6.303   3.284  1.1533  0.3117  0.3892
  177SAPS  H17R20217   3.939   6.224   3.362  0.4738 -1.7925 -1.6333
  177SAPS  H17S20218   3.854   6.291   3.213  1.0492 -3.6015  0.9765
  177SAPS  C21820219   3.914   6.439   3.354 -0.0627 -0.2460 -0.2389
  177SAPS  H18R20220   3.810   6.454   3.390  0.2635  0.6961  0.3491
  177SAPS  H18S20221   3.918   6.518   3.276 -0.6233 -1.5161 -1.6072
  177SAPS  C21920222   4.013   6.479   3.467  0.2194  0.1767  0.7824
  177SAPS  H19R20223   4.000   6.588   3.483 -1.1068 -0.0183  1.1676
  177SAPS  H19S20224   4.119   6.459   3.441  0.0649  1.2001 -0.7122
  177SAPS  C22020225   3.979   6.397   3.595  0.3265  0.2215 -0.4852
  177SAPS  H20R20226   4.003   6.290   3.578  1.8929  0.9795 -4.0582
  177SAPS  H20S20227   3.871   6.411   3.617  0.8484 -0.1025  2.6659
  177SAPS  H20T20228   4.043   6.416   3.684 -0.5954  1.9423 -0.1301
  177SAPS   C3320229   3.445   5.202   2.735  0.1940  0.0997 -0.4069
  177SAPS   H3X20230   3.497   5.114   2.691 -2.6018 -1.8149 -0.1927
  177SAPS   H3Y20231   3.338   5.172   2.726  0.1975  0.1075 -0.4735
  177SAPS   C3420232   3.489   5.202   2.884  0.1371 -0.2350  0.3480
  177SAPS   H4X20233   3.436   5.275   2.949  2.2422 -0.7741  2.8425
  177SAPS   H4Y20234   3.596   5.233   2.891 -0.2179  1.0474  0.2657
  177SAPS   C3520235   3.472   5.070   2.962  0.3264 -0.0780  0.1165
  177SAPS   H5X20236   3.527   4.991   2.907 -0.2562 -0.1884 -0.3142
  177SAPS   H5Y20237   3.362   5.055   2.959  0.2875 -0.0287  0.8770
  177SAPS   C3620238   3.532   5.068   3.105  0.4449  0.6022  0.1976
  177SAPS   H6X20239   3.635   5.109   3.096  1.0615 -0.8611  0.3362
  177SAPS   H6Y20240   3.547   4.963   3.136 -1.6387  0.2971  0.2837
  177SAPS   C3720241   3.460   5.146   3.214 -0.3726 -0.5070 -0.2973
  177SAPS   H7X20242   3.364   5.100   3.244  0.1460 -1.3428  0.1081
  177SAPS   H7Y20243   3.425   5.245   3.177  1.1340  1.9649  4.1651
  177SAPS   C3820244   3.535   5.152   3.353  0.4150 -0.4229 -0.2135
  177SAPS   H8X20245   3.627   5.215   3.355 -1.6162  2.7838 -0.6616
  177SAPS   H8Y20246   3.555   5.045   3.375  1.2723  0.0846  1.6588
  177SAPS   C3920247   3.461   5.216   3.472  0.3890 -0.2243  0.6531
  177SAPS   H9X20248   3.365   5.160   3.471 -0.7628  1.5065 -2.8044
  177SAPS   H9Y20249   3.441   5.325   3.457  1.0902 -0.2876 -0.9285
  177SAPS  C31020250   3.542   5.187   3.600  1.1769 -1.1142  0.5277
  177SAPS  H10X20251   3.630   5.253   3.585  0.4765 -0.6895 -2.2662
  177SAPS  H10Y20252   3.572   5.082   3.620 -0.9411 -1.6538  1.1339
  177SAPS  C31120253   3.459   5.242   3.716  0.4504  0.3316  0.9750
  177SAPS  H11X20254   3.386   5.162   3.741  0.7351 -0.2259  0.0551
  177SAPS  H11Y20255   3.391   5.324   3.684  0.2109  1.3761  3.8566
  177SAPS  C31220256   3.526   5.266   3.855 -0.1369  0.8810 -0.2995
  177SAPS  H12X20257   3.595   5.180   3.874 -0.8004  0.2311 -0.7740
  177SAPS  H12Y20258   3.448   5.270   3.934 -0.4248 -0.9197 -0.4426
  177SAPS  C31320259   3.617   5.386   3.863 -0.3505 -0.3238  0.0240
  177SAPS  H13X20260   3.557   5.472   3.825  1.4710  1.1036  0.2397
  177SAPS  H13Y20261   3.712   5.377   3.806  1.2476 -0.4650  2.5462
  177SAPS  C31420262   3.636   5.422   4.011  0.2346 -0.1167  0.3968
  177SAPS  H14X20263   3.689   5.336   4.056  0.8098 -0.0421 -0.1146
  177SAPS  H14Y20264   3.541   5.429   4.068  0.5116 -1.1440  1.0180
  177SAPS  C31520265   3.722   5.541   4.049 -0.4505  0.6810  0.3750
  177SAPS  H15X20266   3.659   5.632   4.038 -1.7138  0.0102  1.6705
  177SAPS  H15Y20267   3.820   5.549   3.998 -1.0889 -0.0292 -0.9860
  177SAPS  C31620268   3.755   5.526   4.202 -0.1846  1.0548 -0.0705
  177SAPS  H16X20269   3.813   5.431   4.200 -0.6072  0.7860 -2.4833
  177SAPS  H16Y20270   3.660   5.496   4.252  0.2449 -1.6698 -0.7143
  177SAPS  C31720271   3.823   5.647   4.260 -0.3289  0.1755 -0.6023
  177SAPS  H17X20272   3.763   5.738   4.238 -1.7323 -0.3375  0.9106
  177SAPS  H17Y20273   3.927   5.658   4.222 -1.1388  1.3400 -2.6335
  177SAPS  C31820274   3.833   5.641   4.420  0.0204  0.5193  0.0141
  177SAPS  H18X20275   3.892   5.727   4.459  0.6699 -0.4621  1.2963
  177SAPS  H18Y20276   3.891   5.553   4.455 -2.1984 -0.6896  0.8366
  177SAPS  H18Z20277   3.730   5.633   4.462  0.2968 -0.9321  0.4847
  178SAPS     N20278   0.519   4.433   1.569  0.1452 -0.6108  0.4980
  178SAPS   HN120279   0.428   4.479   1.548  0.0702 -0.8723  0.2442
  178SAPS   HN220280   0.531   4.440   1.672  1.6827  3.8184  0.1779
  178SAPS   HN320281   0.599   4.484   1.529  0.6652  0.3497  2.6466
  178SAPS   C1220282   0.515   4.291   1.521  0.1147  0.7772  0.0206
  178SAPS  H12A20283   0.412   4.258   1.516  0.3944 -0.5850  2.0718
  178SAPS   C1320284   0.602   4.256   1.399 -0.2283 -0.2254 -0.1413
  178SAPS  O13A20285   0.624   4.350   1.318 -0.3343  0.2813 -0.0939
  178SAPS  O13B20286   0.592   4.134   1.366  0.0683  0.3466  0.2323
  178SAPS   C1120287   0.561   4.202   1.647 -0.2236  0.0079 -0.4896
  178SAPS  H11A20288   0.666   4.235   1.655 -0.1272  0.1942 -2.1651
  178SAPS  H11B20289   0.559   4.092   1.633  2.5300 -0.7582  3.4082
  178SAPS     P20290   0.524   4.178   1.898 -0.1134  0.0526  0.1967
  178SAPS   O1320291   0.671   4.186   1.915 -0.3834  0.9186 -0.2062
  178SAPS   O1420292   0.443   4.233   2.007  0.2627  0.1702  0.6337
  178SAPS   O1220293   0.480   4.233   1.761 -0.1856 -0.0226 -0.2405
  178SAPS   O1120294   0.484   4.022   1.889  0.5842 -0.5790 -0.1903
  178SAPS    C120295   0.352   3.984   1.883  0.3335 -0.8533 -0.3152
  178SAPS    HA20296   0.279   4.068   1.877  0.4332 -0.8324 -1.3956
  178SAPS    HB20297   0.330   3.922   1.793 -0.6327  0.0819 -0.7510
  178SAPS    C220298   0.304   3.909   2.010  0.0089 -0.0750 -0.8193
  178SAPS    HS20299   0.194   3.892   2.020  0.1323 -0.5573 -0.2046
  178SAPS   O2120300   0.365   3.965   2.138  0.0149  0.6783 -0.5120
  178SAPS   C2120301   0.283   4.053   2.194  0.3094 -0.2820  0.1547
  178SAPS   O2220302   0.170   4.072   2.164  0.0157 -0.4607  0.2825
  178SAPS   C2220303   0.355   4.137   2.302 -0.4443  0.1368 -0.5740
  178SAPS   H2R20304   0.432   4.073   2.349 -1.0467  0.9390  1.6177
  178SAPS   H2S20305   0.402   4.217   2.240 -1.3287  0.4824 -0.8200
  178SAPS    C320306   0.362   3.760   1.999  0.1307  0.0824  0.8275
  178SAPS    HX20307   0.470   3.764   2.027 -0.2984  0.1988  2.6290
  178SAPS    HY20308   0.364   3.718   1.897 -0.6471  1.6098  0.1552
  178SAPS   O3120309   0.277   3.668   2.085 -0.5360 -0.4967 -0.3438
  178SAPS   C3120310   0.340   3.561   2.130 -0.3947  0.5516 -0.0292
  178SAPS   O3220311   0.452   3.525   2.100  0.9690 -1.3672 -0.1238
  178SAPS   C3220312   0.244   3.496   2.231  0.0482 -0.0248 -0.0749
  178SAPS   H2X20313   0.283   3.398   2.265  0.9984  1.6162  4.1403
  178SAPS   H2Y20314   0.155   3.482   2.166  0.3954 -1.0903 -0.3358
  178SAPS   C2320315   0.259   4.179   2.413 -0.1879  0.3349  0.3585
  178SAPS   H3R20316   0.225   4.093   2.474  1.9567 -0.4206  0.5824
  178SAPS   H3S20317   0.173   4.233   2.368  0.5434  1.2892  0.0742
  178SAPS   C2420318   0.317   4.284   2.512 -0.9244 -0.0061  0.5812
  178SAPS   H4R20319   0.290   4.377   2.457  0.8090  0.4257  0.3732
  178SAPS   H4S20320   0.428   4.281   2.507 -0.8810  0.3797  1.2009
  178SAPS   C2520321   0.272   4.279   2.656  0.0294  0.1769 -0.3173
  178SAPS   H5R20322   0.170   4.241   2.677  0.2000  0.5189  1.2087
  178SAPS   C2620323   0.334   4.322   2.773  0.3445 -0.4008  0.1937
  178SAPS   H6R20324   0.274   4.315   2.865  1.1837  3.0415  1.1764
  178SAPS   C2720325   0.468   4.388   2.780  0.1399 -0.6846 -0.3055
  178SAPS   H7R20326   0.492   4.432   2.680  0.1993  1.9044  0.7751
  178SAPS   H7S20327   0.548   4.311   2.778 -1.1521 -2.0547 -1.3759
  178SAPS   C2820328   0.510   4.477   2.894  0.0473 -0.7649  0.5277
  178SAPS   H8R20329   0.524   4.582   2.866  0.6780 -1.1730 -0.7741
  178SAPS   C2920330   0.503   4.456   3.022 -0.1105  0.6858 -1.5021
  178SAPS   H9R20331   0.518   4.539   3.093 -1.7537  0.2706 -0.6199
  178SAPS  C21020332   0.460   4.326   3.087 -0.0593 -0.1385  0.0554
  178SAPS  H10R20333   0.539   4.252   3.060 -0.7214 -1.3029  1.2270
  178SAPS  H10S20334   0.374   4.276   3.036 -1.3263 -3.1204  4.5100
  178SAPS  C21120335   0.420   4.329   3.231  0.6066  0.1998 -0.3469
  178SAPS  H11R20336   0.315   4.335   3.262  1.0715  0.3321  1.3014
  178SAPS  C21220337   0.505   4.351   3.330  0.1826 -0.2855  0.1671
  178SAPS  H12R20338   0.468   4.369   3.432  2.1394  3.1050  0.4271
  178SAPS  C21320339   0.651   4.366   3.322 -0.7362  0.4910  0.4499
  178SAPS  H13R20340   0.684   4.467   3.290 -0.4960  0.1880 -0.2809
  178SAPS  H13S20341   0.693   4.302   3.241 -1.1541  0.3473  0.3391
  178SAPS  C21420342   0.709   4.311   3.448 -0.7349 -0.5544 -0.5386
  178SAPS  H14R20343   0.700   4.202   3.462 -3.6075 -0.3280 -0.0700
  178SAPS  C21520344   0.805   4.384   3.520 -0.1487  0.4974  0.2779
  178SAPS  H15R20345   0.854   4.338   3.607 -1.6308 -1.6934  0.0280
  178SAPS  C21620346   0.847   4.527   3.493  0.8200  0.9104 -1.1375
  178SAPS  H16R20347   0.769   4.595   3.534  0.4598  0.4316 -1.0231
  178SAPS  H16S20348   0.853   4.544   3.383  0.5099 -0.6848 -1.4202
  178SAPS  C21720349   0.982   4.569   3.549 -0.1829  0.2330 -0.2750
  178SAPS  H17R20350   1.015   4.674   3.531  0.3165 -0.0789 -1.2794
  178SAPS  H17S20351   1.061   4.503   3.508 -0.9299 -0.8021 -0.0823
  178SAPS  C21820352   0.983   4.550   3.705 -0.1095  0.4638  0.0388
  178SAPS  H18R20353   0.970   4.447   3.745 -2.0806  1.6476  2.7752
  178SAPS  H18S20354   0.900   4.611   3.747  1.4555  1.0817  2.4596
  178SAPS  C21920355   1.122   4.587   3.774 -0.2170 -0.1522  0.7041
  178SAPS  H19R20356   1.150   4.691   3.746 -1.3490 -0.3779 -1.4525
  178SAPS  H19S20357   1.195   4.514   3.734 -0.1985  0.0027  0.4521
  178SAPS  C22020358   1.112   4.575   3.924  0.1729 -0.0216  0.3847
  178SAPS  H20R20359   1.095   4.471   3.960  1.0481 -0.5925 -0.8013
  178SAPS  H20S20360   1.019   4.621   3.965 -1.9467 -1.5086 -2.3914
  178SAPS  H20T20361   1.199   4.615   3.979  1.1952 -1.9442  0.2358
  178SAPS   C3320362   0.223   3.586   2.354 -0.1755  0.1676  0.7396
  178SAPS   H3X20363   0.153   3.528   2.418  0.1714 -2.1793 -0.8951
  178SAPS   H3Y20364   0.170   3.683   2.338  0.7826  0.7883  1.2397
  178SAPS   C3420365   0.353   3.607   2.424 -0.5195 -0.4600 -0.1593
  178SAPS   H4X20366   0.432   3.652   2.360 -1.2747  0.3786 -0.5251
  178SAPS   H4Y20367   0.388   3.510   2.465 -1.3253 -0.5641  0.3123
  178SAPS   C3520368   0.336   3.713   2.540 -0.7123  0.3492  0.0401
  178SAPS   H5X20369   0.250   3.684   2.605 -1.3487  2.1912  0.0690
  178SAPS   H5Y20370   0.310   3.815   2.505 -2.6652 -0.1798 -0.1392
  178SAPS   C3620371   0.461   3.712   2.626  1.0192  0.4196  0.6418
  178SAPS   H6X20372   0.544   3.754   2.566 -0.0948  3.3853  1.0084
  178SAPS   H6Y20373   0.480   3.612   2.671  0.9588 -0.0854 -0.4367
  178SAPS   C3720374   0.433   3.812   2.740  0.1167  0.1496 -0.4178
  178SAPS   H7X20375   0.332   3.816   2.786  0.7911  1.7888  1.0553
  178SAPS   H7Y20376   0.443   3.909   2.687  1.4466 -0.2311 -0.9182
  178SAPS   C3820377   0.540   3.811   2.848 -0.1782 -0.3224 -0.3363
  178SAPS   H8X20378   0.636   3.793   2.796  0.0087  1.6873 -0.7549
  178SAPS   H8Y20379   0.519   3.730   2.921 -0.4457  1.5765  1.8277
  178SAPS   C3920380   0.557   3.936   2.929 -0.1938 -0.6336 -0.6041
  178SAPS   H9X20381   0.474   3.931   3.004 -1.0949  0.4045 -1.4970
  178SAPS   H9Y20382   0.539   4.024   2.863  1.2207  0.7152  0.7260
  178SAPS  C31020383   0.698   3.957   2.987 -0.3964 -0.2800 -0.8818
  178SAPS  H10X20384   0.692   4.057   3.035  0.5686 -0.5815 -0.1049
  178SAPS  H10Y20385   0.774   3.958   2.906 -2.4300 -1.5528 -2.9308
  178SAPS  C31120386   0.752   3.874   3.110 -0.0019  0.9342  0.9815
  178SAPS  H11X20387   0.860   3.894   3.126  0.1705 -0.0016  1.0259
  178SAPS  H11Y20388   0.745   3.767   3.080  2.5128  1.3210 -1.4021
  178SAPS  C31220389   0.672   3.907   3.239  0.6147 -0.4038  0.0859
  178SAPS  H12X20390   0.570   3.878   3.208  0.7744 -0.2725 -0.5882
  178SAPS  H12Y20391   0.679   4.014   3.267 -3.1222  0.1836 -0.6565
  178SAPS  C31320392   0.721   3.814   3.348  0.3261  0.5933  0.3488
  178SAPS  H13X20393   0.733   3.713   3.303  0.2855  1.4054 -1.5759
  178SAPS  H13Y20394   0.643   3.822   3.427 -0.3978  0.4239 -0.3264
  178SAPS  C31420395   0.846   3.866   3.418  0.0534 -0.0634 -0.1358
  178SAPS  H14X20396   0.830   3.975   3.433 -1.0777 -0.4996  2.4303
  178SAPS  H14Y20397   0.934   3.833   3.359 -0.4996 -0.5299 -0.7137
  178SAPS  C31520398   0.854   3.793   3.546  0.1924  0.4939  0.3623
  178SAPS  H15X20399   0.831   3.686   3.528  2.0564  0.3791 -1.6293
  178SAPS  H15Y20400   0.776   3.829   3.617  0.3931 -0.9427  1.3652
  178SAPS  C31620401   0.992   3.812   3.606 -0.6444 -0.3230  0.0513
  178SAPS  H16X20402   1.015   3.919   3.624  0.5663 -0.7550  1.1508
  178SAPS  H16Y20403   1.067   3.780   3.531  1.5477  2.5278  0.8658
  178SAPS  C31720404   1.011   3.734   3.740 -0.4501 -0.8363 -0.4492
  178SAPS  H17X20405   1.022   3.630   3.702 -0.7009  0.2304 -3.7409
  178SAPS  H17Y20406   0.920   3.755   3.800  1.1818  2.3211  1.1836
  178SAPS  C31820407   1.126   3.780   3.836 -0.1278 -0.5362  0.7298
  178SAPS  H18X20408   1.102   3.866   3.900  0.5514 -1.3020  2.0511
  178SAPS  H18Y20409   1.218   3.802   3.778  0.8529 -0.2175  2.3531
  178SAPS  H18Z20410   1.152   3.686   3.890 -0.7942 -0.8200  0.5718
  179SAPS     N20411   4.490   0.158   2.083 -0.1118  0.3392  0.5525
  179SAPS   HN120412   4.472   0.060   2.052 -0.0460  0.5790 -0.2865
  179SAPS   HN220413   4.426   0.203   2.150  1.4898  0.1019  2.3352
  179SAPS   HN320414   4.475   0.220   2.001 -0.9591 -1.0471 -0.3977
  179SAPS   C1220415   4.634   0.186   2.120 -0.2474  0.5786 -0.0335
  179SAPS  H12A20416   4.692   0.189   2.029  1.5582 -1.5417  0.9362
  179SAPS   C1320417   4.642   0.314   2.209 -0.7965  1.2422  0.0676
  179SAPS  O13A20418   4.541   0.368   2.266 -0.2770  0.6208  0.0954
  179SAPS  O13B20419   4.760   0.360   2.230  0.7684 -0.5252  0.2960
  179SAPS   C1120420   4.695   0.064   2.193  0.0085  0.1219  0.2473
  179SAPS  H11A20421   4.648   0.050   2.293 -2.1287 -2.2344 -1.0056
  179SAPS  H11B20422   4.800   0.091   2.220  0.1867 -1.0117  0.7471
  179SAPS     P20423   4.687  -0.195   2.197  0.1078  0.1872 -0.6804
  179SAPS   O1320424   4.594  -0.288   2.124 -0.2458  1.1241 -0.2197
  179SAPS   O1420425   4.829  -0.227   2.214  0.0140  0.1428 -0.6403
  179SAPS   O1220426   4.670  -0.060   2.120  0.6184  0.2433 -0.0408
  179SAPS   O1120427   4.632  -0.156   2.341  0.0577  0.4235  0.2843
  179SAPS    C120428   4.591  -0.268   2.424 -0.4801 -0.3828 -0.3944
  179SAPS    HA20429   4.637  -0.367   2.404 -0.0212 -1.3379  4.2243
  179SAPS    HB20430   4.634  -0.253   2.525  0.1987  1.3279 -0.8943
  179SAPS    C220431   4.441  -0.285   2.435  0.2185  1.3302  0.3911
  179SAPS    HS20432   4.402  -0.314   2.335 -1.3068 -3.7701  2.1255
  179SAPS   O2120433   4.386  -0.159   2.475  0.3378  0.2082 -0.4181
  179SAPS   C2120434   4.255  -0.148   2.449 -0.3537 -0.0131 -0.2084
  179SAPS   O2220435   4.194  -0.234   2.385  0.0872 -0.4743  0.1254
  179SAPS   C2220436   4.198  -0.027   2.518 -0.4811  0.2324  0.3215
  179SAPS   H2R20437   4.269  -0.010   2.602  0.7146 -1.9886 -0.1705
  179SAPS   H2S20438   4.199   0.063   2.453 -0.4309  0.4517  0.6206
  179SAPS    C320439   4.406  -0.411   2.533  0.3137 -0.2913  0.2235
  179SAPS    HX20440   4.467  -0.500   2.504  0.6500  0.1621 -0.5034
  179SAPS    HY20441   4.302  -0.446   2.519  0.6949 -1.5764  0.4628
  179SAPS   O3120442   4.438  -0.381   2.674 -0.0396  0.0900  0.3084
  179SAPS   C3120443   4.337  -0.326   2.730 -0.5339  0.0137 -0.3090
  179SAPS   O3220444   4.219  -0.324   2.702 -0.5282 -0.2092  0.4508
  179SAPS   C3220445   4.390  -0.252   2.865  0.1555  0.4635 -0.3691
  179SAPS   H2X20446   4.498  -0.230   2.856  0.6641 -1.6439 -0.0608
  179SAPS   H2Y20447   4.379  -0.344   2.927  1.5864 -1.3309 -2.5968
  179SAPS   C2320448   4.054  -0.059   2.561  0.2441  0.6672  0.5503
  179SAPS   H3R20449   4.058  -0.144   2.633 -2.9269 -0.7801 -0.8379
  179SAPS   H3S20450   4.001  -0.093   2.470  2.8470  1.6305 -1.4649
  179SAPS   C2420451   3.978   0.057   2.619  0.2707  0.1244 -0.4896
  179SAPS   H4R20452   3.875   0.033   2.652  0.0479 -0.0201 -1.2838
  179SAPS   H4S20453   3.963   0.141   2.548 -0.3497  1.6825  1.3602
  179SAPS   C2520454   4.060   0.103   2.738 -0.2753  0.7398 -0.5506
  179SAPS   H5R20455   4.150   0.164   2.719 -0.3549  0.8045 -0.7210
  179SAPS   C2620456   4.026   0.082   2.867 -0.1243  0.0949 -0.3399
  179SAPS   H6R20457   4.089   0.116   2.950 -0.5480 -3.8889  1.8831
  179SAPS   C2720458   3.905   0.017   2.923 -0.1713  0.1043 -0.4977
  179SAPS   H7R20459   3.813   0.055   2.873 -0.1514 -0.6345 -1.1112
  179SAPS   H7S20460   3.893   0.037   3.031 -0.9067 -2.8314  0.0538
  179SAPS   C2820461   3.900  -0.135   2.901 -0.1417 -0.0872  0.7213
  179SAPS   H8R20462   3.976  -0.173   2.830 -0.7274 -2.9757  1.5066
  179SAPS   C2920463   3.826  -0.230   2.969 -0.5346  0.3211 -0.1420
  179SAPS   H9R20464   3.832  -0.333   2.930  2.0472 -0.2333  1.4666
  179SAPS  C21020465   3.717  -0.203   3.066  0.1216 -0.2913  0.2192
  179SAPS  H10R20466   3.653  -0.124   3.020  1.2046  0.7933  0.5300
  179SAPS  H10S20467   3.762  -0.166   3.161 -0.5995 -0.0009  0.4548
  179SAPS  C21120468   3.612  -0.315   3.091 -0.1040 -0.1071 -0.2086
  179SAPS  H11R20469   3.599  -0.378   3.001  4.6904 -0.9492 -0.6048
  179SAPS  C21220470   3.557  -0.359   3.207 -0.1407 -0.1754  1.3196
  179SAPS  H12R20471   3.481  -0.439   3.209  0.4696 -0.8410 -0.2471
  179SAPS  C21320472   3.580  -0.303   3.339  0.1486 -0.0223 -0.9558
  179SAPS  H13R20473   3.679  -0.253   3.328 -0.9934  1.8988 -3.8249
  179SAPS  H13S20474   3.599  -0.395   3.398 -1.4059 -0.4052 -1.0153
  179SAPS  C21420475   3.471  -0.215   3.397 -1.0200  0.5451  0.7307
  179SAPS  H14R20476   3.426  -0.141   3.330  0.8040 -0.2077 -1.4451
  179SAPS  C21520477   3.421  -0.211   3.525 -0.4589 -0.1760  0.8498
  179SAPS  H15R20478   3.335  -0.147   3.550 -0.2424  0.6124 -0.3325
  179SAPS  C21620479   3.470  -0.295   3.643 -0.1251 -0.0720  0.2057
  179SAPS  H16R20480   3.556  -0.354   3.605  0.1021  1.2421 -1.4097
  179SAPS  H16S20481   3.393  -0.374   3.658  0.6119 -1.3118 -1.9703
  179SAPS  C21720482   3.503  -0.221   3.775 -0.0392 -0.2808 -0.4804
  179SAPS  H17R20483   3.553  -0.123   3.763 -0.3439 -0.0416  0.2014
  179SAPS  H17S20484   3.554  -0.278   3.856 -0.7597  0.6518  0.6422
  179SAPS  C21820485   3.370  -0.196   3.845  0.5032 -0.3726  0.0632
  179SAPS  H18R20486   3.309  -0.286   3.866 -1.2748  0.8968  0.6374
  179SAPS  H18S20487   3.307  -0.133   3.779 -0.7267 -2.9228 -1.3417
  179SAPS  C21920488   3.399  -0.117   3.976 -0.0578  0.5871  0.0924
  179SAPS  H19R20489   3.464  -0.037   3.936 -0.1139  0.3322 -0.5164
  179SAPS  H19S20490   3.457  -0.169   4.056 -0.1156  2.1964  1.2389
  179SAPS  C22020491   3.274  -0.058   4.044 -0.5775 -0.8521 -0.1668
  179SAPS  H20R20492   3.194  -0.035   3.971  1.5218  1.3070 -1.9622
  179SAPS  H20S20493   3.301   0.032   4.104 -2.8176  1.3356 -2.2274
  179SAPS  H20T20494   3.236  -0.129   4.120 -1.7993 -0.1873 -0.1323
  179SAPS   C3320495   4.306  -0.135   2.922  0.2693 -0.0754 -0.0412
  179SAPS   H3X20496   4.199  -0.163   2.905  0.5138 -0.3780 -1.1896
  179SAPS   H3Y20497   4.327  -0.041   2.866  0.5243 -0.3820 -0.4664
  179SAPS   C3420498   4.332  -0.129   3.073  0.4541  0.4802 -0.1100
  179SAPS   H4X20499   4.434  -0.094   3.101  0.9362 -1.1545  0.2589
  179SAPS   H4Y20500   4.328  -0.235   3.106  2.0513 -0.2348 -2.0262
  179SAPS   C3520501   4.209  -0.072   3.149 -0.0986  0.0674  0.0704
  179SAPS   H5X20502   4.116  -0.117   3.108 -0.6664  2.1656 -1.1043
  179SAPS   H5Y20503   4.209   0.035   3.120  1.6539  0.3412  0.9804
  179SAPS   C3620504   4.213  -0.090   3.300  0.1944  0.4268 -0.3845
  179SAPS   H6X20505   4.202  -0.200   3.312  2.1421  0.3877  1.6550
  179SAPS   H6Y20506   4.121  -0.040   3.339  1.5330  0.9615  2.3267
  179SAPS   C3720507   4.351  -0.041   3.360 -0.0132  0.2411  0.7355
  179SAPS   H7X20508   4.376   0.053   3.308 -1.8975 -0.1329 -1.0025
  179SAPS   H7Y20509   4.433  -0.114   3.342 -0.7472  0.0418 -2.5053
  179SAPS   C3820510   4.339   0.008   3.512 -0.0154  0.0375  0.2887
  179SAPS   H8X20511   4.240   0.057   3.517  0.0525  0.1534  0.4872
  179SAPS   H8Y20512   4.414   0.086   3.536  1.1554 -0.9779  0.0572
  179SAPS   C3920513   4.346  -0.115   3.608 -0.0039 -0.7736 -0.4538
  179SAPS   H9X20514   4.440  -0.171   3.588  0.8226  0.3682  0.1081
  179SAPS   H9Y20515   4.259  -0.183   3.593 -1.2818  0.4852  0.9510
  179SAPS  C31020516   4.338  -0.071   3.756 -0.0409  0.0604 -0.3476
  179SAPS  H10X20517   4.438  -0.026   3.774 -0.3805  0.5346  0.4232
  179SAPS  H10Y20518   4.333  -0.161   3.822 -0.1880  0.7905  0.6709
  179SAPS  C31120519   4.226   0.022   3.787  0.2517 -0.2248 -0.7287
  179SAPS  H11X20520   4.215   0.102   3.711 -0.2617 -1.8737 -2.4578
  179SAPS  H11Y20521   4.246   0.075   3.883 -1.4633  0.6891 -0.8473
  179SAPS  C31220522   4.095  -0.055   3.794  0.3079  0.6121  0.1785
  179SAPS  H12X20523   4.075  -0.102   3.892 -1.2206  0.4585 -0.1871
  179SAPS  H12Y20524   4.087  -0.124   3.707 -0.4900  0.2823  0.5102
  179SAPS  C31320525   3.965   0.033   3.790 -0.1941 -0.6153  0.0157
  179SAPS  H13X20526   3.989   0.136   3.825  3.2861 -0.9099 -1.1363
  179SAPS  H13Y20527   3.882  -0.015   3.847 -1.0841 -1.0999 -1.6137
  179SAPS  C31420528   3.911   0.048   3.643 -0.3114  0.0087  0.3164
  179SAPS  H14X20529   3.904  -0.054   3.598 -0.6402 -0.0807  0.5635
  179SAPS  H14Y20530   3.983   0.104   3.580  1.5441 -1.2508  1.2117
  179SAPS  C31520531   3.773   0.114   3.635  0.0478 -0.1900  0.2734
  179SAPS  H15X20532   3.771   0.224   3.653 -0.3726 -0.2659  0.7173
  179SAPS  H15Y20533   3.704   0.073   3.711 -0.7488  1.6157  0.5894
  179SAPS  C31620534   3.702   0.084   3.497  0.0907  0.1190 -0.2828
  179SAPS  H16X20535   3.607   0.140   3.497  0.2120  0.3704 -1.7722
  179SAPS  H16Y20536   3.671  -0.023   3.488  0.6140  0.0510 -1.5028
  179SAPS  C31720537   3.783   0.131   3.373 -0.2270 -0.7613 -0.2379
  179SAPS  H17X20538   3.887   0.092   3.368  0.4735  0.9500  0.1384
  179SAPS  H17Y20539   3.806   0.239   3.389 -0.0063 -0.6755 -1.0827
  179SAPS  C31820540   3.696   0.132   3.247 -0.0726 -0.9507 -0.5252
  179SAPS  H18X20541   3.752   0.120   3.152 -0.9097 -1.0601 -1.0136
  179SAPS  H18Y20542   3.647   0.231   3.235  0.0793 -0.6983  0.7974
  179SAPS  H18Z20543   3.620   0.052   3.241 -1.4136  0.2349  0.0367
  180SAPS     N20544   3.256   5.211   1.576  0.1840  0.9778  0.3812
  180SAPS   HN120545   3.171   5.150   1.578  0.8780  0.0088  1.1348
  180SAPS   HN220546   3.239   5.313   1.562 -1.8657  0.6657  0.1721
  180SAPS   HN320547   3.310   5.176   1.494 -0.6904  1.2703 -0.3467
  180SAPS   C1220548   3.321   5.174   1.699 -0.8553 -0.0318  0.5534
  180SAPS  H12A20549   3.313   5.068   1.721 -0.4170  0.3156  2.6260
  180SAPS   C1320550   3.472   5.201   1.704  0.0335 -0.2722 -0.2089
  180SAPS  O13A20551   3.537   5.246   1.601  0.3675 -0.3807 -0.5390
  180SAPS  O13B20552   3.533   5.156   1.808  0.3614 -0.5534 -0.5400
  180SAPS   C1120553   3.244   5.235   1.817 -0.3320 -0.8763 -0.8876
  180SAPS  H11A20554   3.236   5.345   1.816  0.1729 -0.8380 -0.7226
  180SAPS  H11B20555   3.306   5.217   1.907 -1.3520 -2.3237 -0.4214
  180SAPS     P20556   3.083   5.068   1.935 -0.4584 -0.3701  0.7329
  180SAPS   O1320557   2.939   5.035   1.938 -0.0716  0.1902  0.0690
  180SAPS   O1420558   3.183   4.961   1.929 -0.4386  0.1987  0.5591
  180SAPS   O1220559   3.117   5.165   1.818  0.3610 -0.5039 -0.1754
  180SAPS   O1120560   3.117   5.167   2.050 -0.3300  0.1418 -0.5507
  180SAPS    C120561   3.142   5.133   2.186 -0.1195  0.2212  0.6492
  180SAPS    HA20562   3.181   5.030   2.198  0.7764  0.4397 -0.2370
  180SAPS    HB20563   3.212   5.204   2.235  2.5433 -1.5243 -0.4159
  180SAPS    C220564   3.005   5.137   2.272  0.2356  0.0987  0.2085
  180SAPS    HS20565   2.933   5.066   2.225  0.6411 -0.6864  0.7602
  180SAPS   O2120566   2.958   5.274   2.259  0.0737 -0.5038  0.4397
  180SAPS   C2120567   2.829   5.288   2.268 -0.3580 -0.2479  0.5596
  180SAPS   O2220568   2.751   5.203   2.304  0.5962 -0.1175  0.3750
  180SAPS   C2220569   2.796   5.433   2.226 -0.7122 -0.4133  0.0316
  180SAPS   H2R20570   2.876   5.496   2.270  0.3314 -1.7739  0.1595
  180SAPS   H2S20571   2.803   5.446   2.115 -0.4486 -0.6565  0.0179
  180SAPS    C320572   3.025   5.101   2.418 -0.5237 -0.4719  0.6122
  180SAPS    HX20573   3.084   5.186   2.460  0.9852 -0.5672 -1.2046
  180SAPS    HY20574   3.085   5.008   2.416 -2.5494 -1.8465 -2.0430
  180SAPS   O3120575   2.904   5.092   2.492  0.1117  0.1141  0.0341
  180SAPS   C3120576   2.895   4.995   2.578  0.1693 -0.2459 -0.4461
  180SAPS   O3220577   2.981   4.910   2.607 -0.7166  0.2018 -0.2521
  180SAPS   C3220578   2.763   5.002   2.654 -0.4759 -0.9403 -0.4798
  180SAPS   H2X20579   2.785   4.923   2.729  1.2318  0.8590  1.0277
  180SAPS   H2Y20580   2.682   4.969   2.585 -0.0517 -1.1390 -0.8814
  180SAPS   C2320581   2.660   5.479   2.278 -0.1594 -0.1626 -1.0138
  180SAPS   H3R20582   2.578   5.412   2.242  0.0991 -0.1216 -1.6897
  180SAPS   H3S20583   2.637   5.570   2.218 -1.9849  0.4354  0.4751
  180SAPS   C2420584   2.649   5.527   2.426  0.1958  0.6260  0.8048
  180SAPS   H4R20585   2.677   5.437   2.485 -1.1597 -0.0194  0.5041
  180SAPS   H4S20586   2.541   5.536   2.448 -0.0352  0.1184 -0.0661
  180SAPS   C2520587   2.734   5.649   2.464 -0.9851  0.4850  0.5075
  180SAPS   H5R20588   2.730   5.732   2.392  2.0288  0.5881  0.3180
  180SAPS   C2620589   2.829   5.656   2.561  0.0399  0.0056 -0.1171
  180SAPS   H6R20590   2.893   5.744   2.575 -0.3278  0.6959 -2.3945
  180SAPS   C2720591   2.862   5.548   2.663  0.1277  0.0449 -0.3524
  180SAPS   H7R20592   2.773   5.488   2.691  1.6651 -1.1867  2.2888
  180SAPS   H7S20593   2.881   5.595   2.762 -2.6374  1.1726 -0.2447
  180SAPS   C2820594   2.969   5.462   2.611 -0.7840  0.8166 -0.9449
  180SAPS   H8R20595   2.977   5.455   2.501  1.1226 -0.6803 -0.7555
  180SAPS   C2920596   3.054   5.395   2.684  0.2076 -0.8898  0.4980
  180SAPS   H9R20597   3.129   5.333   2.632  2.0973  0.9025  0.9756
  180SAPS  C21020598   3.064   5.385   2.839  0.7993  0.0621 -0.0984
  180SAPS  H10R20599   3.085   5.279   2.864 -0.8746  0.4241  3.3721
  180SAPS  H10S20600   2.972   5.416   2.894  0.5692 -2.3911  1.0315
  180SAPS  C21120601   3.180   5.458   2.889  0.9541 -0.7541  0.5094
  180SAPS  H11R20602   3.268   5.432   2.828  0.5705 -0.0937 -0.3524
  180SAPS  C21220603   3.193   5.547   2.985  0.3857  0.1696  0.6424
  180SAPS  H12R20604   3.288   5.603   2.986 -0.5348  1.8070  0.8767
  180SAPS  C21320605   3.085   5.601   3.081 -0.5250  0.1270  0.5252
  180SAPS  H13R20606   3.121   5.581   3.184 -0.1645 -0.3391  0.3130
  180SAPS  H13S20607   2.998   5.533   3.067 -0.8997  0.9887 -1.9081
  180SAPS  C21420608   3.058   5.750   3.066  0.1934  0.5670  0.0033
  180SAPS  H14R20609   2.983   5.773   2.989  0.5086 -2.2519 -1.2852
  180SAPS  C21520610   3.130   5.846   3.123 -0.3013  0.2104 -0.2907
  180SAPS  H15R20611   3.105   5.947   3.087 -0.6367 -0.0984 -0.9438
  180SAPS  C21620612   3.244   5.828   3.224 -0.1859  0.5642 -0.3691
  180SAPS  H16R20613   3.322   5.902   3.197  1.1345 -1.1733 -1.5537
  180SAPS  H16S20614   3.288   5.727   3.210 -1.5883 -0.4963  2.2217
  180SAPS  C21720615   3.189   5.856   3.360  0.0806  0.5253 -0.5355
  180SAPS  H17R20616   3.099   5.794   3.383  1.4180 -0.9903  0.9834
  180SAPS  H17S20617   3.169   5.964   3.373 -2.1469  0.2348 -1.1343
  180SAPS  C21820618   3.288   5.814   3.473 -0.1672  0.0492 -0.0627
  180SAPS  H18R20619   3.384   5.870   3.473 -0.1131 -0.0422 -0.1104
  180SAPS  H18S20620   3.322   5.710   3.454  2.6378  0.9511 -0.4001
  180SAPS  C21920621   3.229   5.834   3.612 -0.3385  1.0034  0.1538
  180SAPS  H19R20622   3.131   5.782   3.616 -0.2390  0.6194 -1.6459
  180SAPS  H19S20623   3.218   5.939   3.645 -0.7719  0.4983  1.6767
  180SAPS  C22020624   3.329   5.776   3.712 -0.0902 -0.0630 -0.2009
  180SAPS  H20R20625   3.355   5.670   3.693 -0.4493 -0.0056 -1.0522
  180SAPS  H20S20626   3.428   5.827   3.707 -0.6376  0.9062 -1.8869
  180SAPS  H20T20627   3.297   5.765   3.818 -1.7800 -0.8491 -0.7673
  180SAPS   C3320628   2.745   5.152   2.706 -0.2532 -0.1837  0.1637
  180SAPS   H3X20629   2.726   5.216   2.618 -1.2003 -1.7182 -0.8051
  180SAPS   H3Y20630   2.837   5.183   2.760 -1.0774  1.1473  0.8569
  180SAPS   C3420631   2.625   5.168   2.792  0.4562  0.3991 -0.4207
  180SAPS   H4X20632   2.532   5.123   2.752  0.7822 -0.3307 -0.3809
  180SAPS   H4Y20633   2.605   5.277   2.802  1.7202  0.4799  1.8976
  180SAPS   C3520634   2.639   5.114   2.936  0.5576 -0.0309  0.2638
  180SAPS   H5X20635   2.705   5.025   2.945  0.3050 -0.3882 -1.1229
  180SAPS   H5Y20636   2.542   5.088   2.985  1.1898 -0.3085  1.3824
  180SAPS   C3620637   2.686   5.210   3.041  0.0500  0.5515 -0.0166
  180SAPS   H6X20638   2.600   5.275   3.069  0.6489  0.2509  2.8171
  180SAPS   H6Y20639   2.764   5.283   3.011  1.0819 -0.7736 -0.6684
  180SAPS   C3720640   2.713   5.158   3.184 -0.4269  0.9580  0.1459
  180SAPS   H7X20641   2.618   5.111   3.218  1.6014 -1.1796  3.3837
  180SAPS   H7Y20642   2.753   5.244   3.242  1.3918  1.8028 -2.2119
  180SAPS   C3820643   2.821   5.049   3.201 -0.5003  0.1000  0.1823
  180SAPS   H8X20644   2.798   4.988   3.111  1.7768  0.2555 -0.5736
  180SAPS   H8Y20645   2.794   4.999   3.297 -0.6741  1.4000  0.8313
  180SAPS   C3920646   2.968   5.086   3.202  0.3195  0.1774  0.7453
  180SAPS   H9X20647   3.015   5.098   3.302 -1.2830 -2.7343  1.9630
  180SAPS   H9Y20648   2.969   5.181   3.144 -0.0132 -0.7836 -0.9171
  180SAPS  C31020649   3.054   4.985   3.125  0.0030  0.0477 -0.3974
  180SAPS  H10X20650   3.153   5.036   3.122 -0.7912  1.6069 -2.6398
  180SAPS  H10Y20651   3.022   4.980   3.018 -3.4142  1.5283  0.4545
  180SAPS  C31120652   3.063   4.846   3.191 -0.3399  1.0126  0.5483
  180SAPS  H11X20653   3.155   4.796   3.153 -0.4364  2.2397 -1.4734
  180SAPS  H11Y20654   2.975   4.794   3.147  0.9230  0.3439 -1.3454
  180SAPS  C31220655   3.058   4.831   3.349  0.4740 -0.0032  0.3392
  180SAPS  H12X20656   3.037   4.727   3.382 -2.6356  0.4123 -0.0355
  180SAPS  H12Y20657   2.979   4.898   3.389  1.1414  0.7379  0.4313
  180SAPS  C31320658   3.179   4.886   3.417  0.6364  0.0344 -0.3983
  180SAPS  H13X20659   3.202   4.986   3.375 -0.7773  0.1623 -0.9127
  180SAPS  H13Y20660   3.275   4.830   3.405 -0.1258 -1.1774 -1.0755
  180SAPS  C31420661   3.159   4.891   3.566 -0.1861  0.0057  0.6297
  180SAPS  H14X20662   3.051   4.889   3.591 -0.2956  0.2025  0.1740
  180SAPS  H14Y20663   3.196   4.993   3.592 -1.0233 -0.1633  2.6759
  180SAPS  C31520664   3.247   4.798   3.647  0.2984  0.0913  0.4191
  180SAPS  H15X20665   3.357   4.799   3.628  0.2727 -1.8422 -0.1107
  180SAPS  H15Y20666   3.208   4.695   3.634  0.6325 -0.0781  0.7574
  180SAPS  C31620667   3.223   4.823   3.794 -0.0484  0.5812 -0.3859
  180SAPS  H16X20668   3.119   4.803   3.829  0.7623 -0.7535  1.4075
  180SAPS  H16Y20669   3.241   4.929   3.821 -0.6188  0.8489 -1.0181
  180SAPS  C31720670   3.312   4.738   3.884 -0.3834 -0.6823  0.4431
  180SAPS  H17X20671   3.413   4.741   3.837 -2.3414  1.6999 -4.3833
  180SAPS  H17Y20672   3.285   4.631   3.874 -1.2051 -0.5950  1.5434
  180SAPS  C31820673   3.302   4.777   4.032 -0.2224  0.1212 -0.1104
  180SAPS  H18X20674   3.377   4.728   4.097  0.9499  0.1730 -1.3745
  180SAPS  H18Y20675   3.198   4.768   4.071  0.2911  0.7273  1.4715
  180SAPS  H18Z20676   3.313   4.887   4.038  0.1080  0.1983 -1.5927
  181POPC     N20677   2.650   0.814   6.806  0.6859  0.6517 -0.0817
  181POPC   C1220678   2.724   0.846   6.677 -0.8921  0.0435 -0.1050
  181POPC  H12A20679   2.829   0.828   6.693 -1.2385  0.0955  2.6601
  181POPC  H12B20680   2.701   0.948   6.651 -1.9603 -0.3334 -0.7340
  181POPC   C1320681   2.641   0.929   6.902  0.0735  0.4806  0.0138
  181POPC  H13A20682   2.585   1.015   6.871  0.1206  1.6185  2.7365
  181POPC  H13B20683   2.606   0.902   7.001  2.0535  0.7759  0.8524
  181POPC  H13C20684   2.741   0.969   6.914 -0.6124  2.0109  0.9943
  181POPC   C1420685   2.508   0.762   6.762 -0.3160 -0.0337 -0.0086
  181POPC  H14A20686   2.465   0.702   6.841 -0.5134 -0.8759 -0.7445
  181POPC  H14B20687   2.441   0.841   6.730 -0.2105 -0.2285 -0.7113
  181POPC  H14C20688   2.522   0.685   6.688 -0.0290 -0.1505  0.1633
  181POPC   C1520689   2.717   0.689   6.871 -0.5552 -0.5310 -0.6420
  181POPC  H15A20690   2.820   0.710   6.896 -0.0727  0.0550 -2.9191
  181POPC  H15B20691   2.735   0.621   6.788  4.5662  0.7505 -0.9151
  181POPC  H15C20692   2.663   0.643   6.952 -0.4270 -1.7109 -1.1990
  181POPC   C1120693   2.700   0.765   6.555 -0.8112  0.0512 -0.2070
  181POPC  H11A20694   2.772   0.811   6.484  1.0332  0.0771  1.6017
  181POPC  H11B20695   2.597   0.782   6.518 -0.6027  2.9086  0.3436
  181POPC     P20696   2.670   0.505   6.518 -0.0177 -0.2295  0.3473
  181POPC   O1320697   2.535   0.488   6.582 -0.0455  0.1778 -0.3264
  181POPC   O1420698   2.758   0.387   6.531 -0.3587  0.2041 -0.0167
  181POPC   O1220699   2.737   0.632   6.575 -0.1047  0.5568  0.1383
  181POPC   O1120700   2.646   0.533   6.364 -0.1006  0.1965 -0.1675
  181POPC    C120701   2.748   0.511   6.267 -1.9294  0.0282  0.1224
  181POPC    HA20702   2.798   0.411   6.271  0.7157  1.2305 -0.3882
  181POPC    HB20703   2.822   0.593   6.280  0.0128 -1.8773  1.8684
  181POPC    C220704   2.703   0.534   6.114  0.0772 -0.7920  0.2506
  181POPC    HS20705   2.640   0.625   6.126 -1.1809 -1.8339  2.0947
  181POPC   O2120706   2.623   0.418   6.081 -0.1483  0.1867 -0.0434
  181POPC   C2120707   2.515   0.445   6.008  0.5275  0.1518  0.2804
  181POPC   O2220708   2.482   0.555   5.970 -0.3171 -0.1880 -0.2139
  181POPC   C2220709   2.441   0.318   5.982 -0.0275 -0.0690 -0.2175
  181POPC   H2R20710   2.345   0.318   6.037 -0.3119  0.4017 -0.7008
  181POPC   H2S20711   2.505   0.232   6.011 -0.4117 -0.0564  0.7109
  181POPC    C320712   2.822   0.548   6.015 -0.2310  0.4905 -0.0244
  181POPC    HX20713   2.860   0.444   6.019 -1.7624 -0.0526  2.6435
  181POPC    HY20714   2.901   0.610   6.062  3.4650 -0.6961 -4.0208
  181POPC   O3120715   2.784   0.592   5.882 -0.4672 -0.0720 -0.7279
  181POPC   C3120716   2.776   0.722   5.855 -0.0625  0.5705  0.0244
  181POPC   O3220717   2.814   0.811   5.928 -0.6424 -0.1702  0.5219
  181POPC   C3220718   2.703   0.740   5.719 -0.5310  0.6932  0.3213
  181POPC   H2X20719   2.603   0.692   5.721  0.1148 -0.7036  0.3761
  181POPC   H2Y20720   2.774   0.689   5.650  0.2543  2.2187 -0.0273
  181POPC   C2320721   2.398   0.307   5.827  0.0002 -0.4824 -0.1289
  181POPC   H3R20722   2.312   0.373   5.804 -0.9015 -1.6449 -0.1577
  181POPC   H3S20723   2.386   0.197   5.822  0.3651 -0.5401  0.2164
  181POPC   C2420724   2.506   0.350   5.727 -0.1411  0.3304 -0.0725
  181POPC   H4R20725   2.581   0.271   5.707 -1.3400 -0.8386 -0.0868
  181POPC   H4S20726   2.560   0.444   5.751  0.5632 -0.3109  0.8999
  181POPC   C2520727   2.442   0.373   5.589  0.4568  0.8699  0.2000
  181POPC   H5R20728   2.357   0.442   5.600  0.8301  1.1532  1.5434
  181POPC   H5S20729   2.402   0.273   5.561  2.8623 -0.4354  1.0627
  181POPC   C2620730   2.542   0.421   5.481 -0.7423 -1.1974 -1.1095
  181POPC   H6R20731   2.620   0.346   5.456  1.3391  0.1006  1.0532
  181POPC   H6S20732   2.599   0.501   5.532 -2.7530 -0.2283 -0.2639
  181POPC   C2720733   2.480   0.494   5.357 -0.2441 -0.1993  0.0097
  181POPC   H7R20734   2.431   0.587   5.392 -0.5831 -0.2687 -0.2687
  181POPC   H7S20735   2.408   0.426   5.307  1.0032 -1.2500 -0.4157
  181POPC   C2820736   2.582   0.516   5.236 -0.0680 -0.0690  0.3161
  181POPC   H8R20737   2.521   0.544   5.147 -1.1706 -3.2399 -0.0475
  181POPC   H8S20738   2.605   0.411   5.208 -2.3712 -0.3732 -0.7297
  181POPC   C2920739   2.701   0.603   5.262  0.2412 -0.5760  0.8376
  181POPC   H9120740   2.718   0.628   5.368 -1.9400 -1.8808  1.5572
  181POPC  C21020741   2.774   0.664   5.162  0.4595 -0.2239  0.5465
  181POPC  H10120742   2.859   0.729   5.187  0.5059  0.9024 -2.1325
  181POPC  C21120743   2.755   0.649   5.009 -0.8092  0.3285  0.2696
  181POPC  H11R20744   2.792   0.736   4.951  1.9819  0.0682  1.4986
  181POPC  H11S20745   2.646   0.647   4.986 -0.5528 -2.6407 -1.1109
  181POPC  C21220746   2.827   0.531   4.940 -0.9767  0.3337 -0.9064
  181POPC  H12R20747   2.779   0.432   4.957 -0.1368  0.3153  1.7473
  181POPC  H12S20748   2.931   0.525   4.980 -1.1887  0.0560 -0.3869
  181POPC  C21320749   2.837   0.546   4.788  0.3241 -0.2078 -0.0215
  181POPC  H13R20750   2.898   0.459   4.756 -0.0170  0.2019 -1.9013
  181POPC  H13S20751   2.900   0.634   4.763  1.7051 -1.3157 -0.5929
  181POPC  C21420752   2.706   0.556   4.701  0.0386 -0.1025  0.0644
  181POPC  H14R20753   2.732   0.571   4.594 -0.3250 -0.1904 -0.0380
  181POPC  H14S20754   2.650   0.642   4.742  0.5601  0.1480  0.2592
  181POPC  C21520755   2.625   0.426   4.702  0.0568 -0.3475  0.5921
  181POPC  H15R20756   2.610   0.423   4.812  1.6718 -0.0267  0.8460
  181POPC  H15S20757   2.676   0.333   4.669  0.9279  1.2217 -2.9880
  181POPC  C21620758   2.508   0.428   4.612  0.2373 -0.6539  0.2520
  181POPC  H16R20759   2.546   0.454   4.511  0.0417 -3.2971 -0.5673
  181POPC  H16S20760   2.438   0.510   4.638  0.6211 -0.3842  0.4555
  181POPC  C21720761   2.427   0.292   4.613 -0.2511  0.4807 -0.0684
  181POPC  H17R20762   2.495   0.206   4.596  0.9988  1.3441  0.4003
  181POPC  H17S20763   2.349   0.301   4.534 -0.7448  0.2137  0.3861
  181POPC  C21820764   2.362   0.263   4.745  0.1993  1.1271 -0.5353
  181POPC  H18R20765   2.429   0.255   4.834  0.2538  0.1900 -0.6491
  181POPC  H18S20766   2.301   0.171   4.733  2.0845  0.0270 -2.1411
  181POPC  H18T20767   2.296   0.347   4.778 -0.9159  1.4158 -3.2922
  181POPC   C3320768   2.691   0.891   5.692  0.4079 -0.1893  0.6442
  181POPC   H3X20769   2.795   0.931   5.692  0.3937  0.1608 -2.8740
  181POPC   H3Y20770   2.637   0.936   5.778  0.7812 -1.0184  1.3267
  181POPC   C3420771   2.628   0.922   5.561 -0.8422 -0.0922  0.3579
  181POPC   H4X20772   2.701   0.879   5.489  1.7920  2.3593  1.4036
  181POPC   H4Y20773   2.637   1.032   5.555  1.1906 -0.1619  1.4023
  181POPC   C3520774   2.487   0.864   5.541 -0.2149 -0.2173  0.8443
  181POPC   H5X20775   2.416   0.882   5.624 -1.2753  0.2175 -0.1206
  181POPC   H5Y20776   2.494   0.756   5.516  1.5500  0.1571 -0.5493
  181POPC   C3620777   2.416   0.930   5.425  0.1117  0.3372 -0.4959
  181POPC   H6X20778   2.423   1.040   5.439 -0.2825  0.2678  0.2989
  181POPC   H6Y20779   2.311   0.895   5.434  0.4689 -1.2801 -1.9343
  181POPC   C3720780   2.470   0.893   5.290 -0.5827  0.5132  0.1896
  181POPC   H7X20781   2.457   0.785   5.271  1.1534  0.2264  0.5326
  181POPC   H7Y20782   2.579   0.912   5.289 -0.7813  1.7746 -0.1605
  181POPC   C3820783   2.414   0.970   5.176 -0.1092  0.5367 -0.3408
  181POPC   H8X20784   2.485   1.054   5.167  0.4679  0.0520 -0.4137
  181POPC   H8Y20785   2.310   1.006   5.194 -0.1786  0.8880 -1.3506
  181POPC   C3920786   2.430   0.897   5.041  0.3086 -0.1395  0.8342
  181POPC   H9X20787   2.378   0.799   5.044  1.4680 -0.7425  2.5122
  181POPC   H9Y20788   2.536   0.864   5.044 -0.0147 -1.2713  0.3414
  181POPC  C31020789   2.404   0.985   4.921 -0.5067 -0.4350  0.6141
  181POPC  H10X20790   2.481   1.064   4.910  1.4234 -2.4289 -1.2923
  181POPC  H10Y20791   2.308   1.041   4.921  0.3580  1.0807  0.6651
  181POPC  C31120792   2.413   0.911   4.786  0.4066  0.3676 -0.9498
  181POPC  H11X20793   2.353   0.818   4.796 -1.9950  2.0115  1.0676
  181POPC  H11Y20794   2.509   0.856   4.783 -0.6419 -1.6239  0.2473
  181POPC  C31220795   2.381   0.988   4.656 -0.1897 -0.3581 -0.1591
  181POPC  H12X20796   2.452   1.073   4.652 -0.2753 -0.3241 -0.9623
  181POPC  H12Y20797   2.278   1.026   4.669  0.0695 -0.3446  2.7075
  181POPC  C31320798   2.389   0.911   4.526 -0.4528 -0.8589 -0.0777
  181POPC  H13X20799   2.358   0.973   4.438  2.0477 -0.6917 -0.9293
  181POPC  H13Y20800   2.323   0.822   4.530  0.9771 -1.9399 -0.0377
  181POPC  C31420801   2.525   0.858   4.493  0.3800  0.4110 -0.2919
  181POPC  H14X20802   2.565   0.798   4.578  0.5559 -2.7572 -2.4472
  181POPC  H14Y20803   2.588   0.947   4.475 -1.5208  1.3640 -2.7433
  181POPC  C31520804   2.520   0.758   4.374  0.0321  0.2327 -0.3251
  181POPC  H15X20805   2.497   0.813   4.280  1.4013  1.7490  0.1636
  181POPC  H15Y20806   2.442   0.683   4.397  0.3271  0.6727  2.3651
  181POPC  C31620807   2.652   0.703   4.338 -0.5215 -0.4069 -0.2249
  181POPC  H16X20808   2.629   0.628   4.259 -1.2725  0.0945 -0.4943
  181POPC  H16Y20809   2.699   0.642   4.419 -3.3620 -2.2453  0.1863
  181POPC  H16Z20810   2.719   0.786   4.305 -1.5190  0.7455  0.5798
  182POPC     N20811   5.188   5.253   6.428 -0.3299  0.6542  0.2446
  182POPC   C1220812   5.040   5.220   6.427  0.0993 -0.1137  0.7714
  182POPC  H12A20813   5.034   5.149   6.345 -3.0936  0.3531  0.4861
  182POPC  H12B20814   4.984   5.306   6.394 -0.3276 -0.2601  1.1074
  182POPC   C1320815   5.228   5.325   6.309  0.1903  0.0026 -0.1106
  182POPC  H13A20816   5.190   5.262   6.230  0.7434 -0.1539 -0.2606
  182POPC  H13B20817   5.175   5.419   6.298 -0.1231 -0.1568  0.0294
  182POPC  H13C20818   5.334   5.339   6.293  0.2854 -0.2869  0.2811
  182POPC   C1420819   5.221   5.334   6.554  0.5300 -0.6739 -0.0969
  182POPC  H14A20820   5.187   5.286   6.644  0.4579 -0.8151 -0.1995
  182POPC  H14B20821   5.327   5.357   6.559  0.3903 -0.1544  0.7554
  182POPC  H14C20822   5.168   5.428   6.553  0.9470 -0.2803  3.3781
  182POPC   C1520823   5.269   5.124   6.434 -0.4312 -0.1446  0.0804
  182POPC  H15A20824   5.373   5.142   6.458 -0.2678 -0.2064 -0.5697
  182POPC  H15B20825   5.264   5.064   6.345 -1.4654 -0.4190  0.3147
  182POPC  H15C20826   5.229   5.065   6.515 -0.0448  0.2200  0.5465
  182POPC   C1120827   4.969   5.162   6.556  0.1992 -0.4332  0.3818
  182POPC  H11A20828   4.860   5.166   6.533 -0.1689  3.3371  1.9282
  182POPC  H11B20829   4.974   5.242   6.633 -1.5998  0.4972 -0.3874
  182POPC     P20830   4.970   4.896   6.581  0.5955  0.3586  0.0365
  182POPC   O1320831   4.869   4.868   6.689 -0.3929  0.3987  0.1582
  182POPC   O1420832   5.079   4.805   6.570 -0.7831  0.1312 -0.5626
  182POPC   O1220833   5.026   5.041   6.604  0.2231  0.2561  0.7035
  182POPC   O1120834   4.882   4.906   6.444 -0.3167  0.0078 -0.8939
  182POPC    C120835   4.865   4.791   6.357  0.4206  0.9564 -0.4506
  182POPC    HA20836   4.761   4.786   6.319  0.5703  0.2984 -0.7970
  182POPC    HB20837   4.894   4.701   6.417 -0.6672  0.0638 -1.2266
  182POPC    C220838   4.962   4.793   6.237  0.4026 -0.0385  0.5617
  182POPC    HS20839   5.067   4.819   6.259  0.4158  1.2414 -0.8114
  182POPC   O2120840   4.901   4.878   6.133 -0.1437  0.3418 -0.3812
  182POPC   C2120841   4.949   4.999   6.116  0.5139  0.7629  0.9620
  182POPC   O2220842   5.048   5.043   6.167  0.2635 -0.3093 -0.5187
  182POPC   C2220843   4.869   5.073   6.016 -0.1672  0.0483 -0.7390
  182POPC   H2R20844   4.853   5.175   6.058  0.7227 -0.1293  0.0363
  182POPC   H2S20845   4.771   5.026   5.993 -0.2222  0.6317 -1.8078
  182POPC    C320846   4.962   4.649   6.179 -0.2496 -0.5783 -0.2292
  182POPC    HX20847   4.853   4.634   6.165 -0.3782  0.4177 -0.3418
  182POPC    HY20848   4.977   4.566   6.252 -0.3777  0.6192  1.1982
  182POPC   O3120849   5.029   4.633   6.052 -0.2710  0.0615  0.0581
  182POPC   C3120850   5.150   4.598   6.072  0.9005 -0.1292  0.3016
  182POPC   O3220851   5.205   4.570   6.180 -0.0918 -0.2261 -0.3162
  182POPC   C3220852   5.224   4.582   5.940  0.4369  0.1001  0.3642
  182POPC   H2X20853   5.157   4.562   5.853  1.9135  1.6397 -1.2206
  182POPC   H2Y20854   5.276   4.486   5.955 -1.5255 -1.2097 -0.7898
  182POPC   C2320855   4.944   5.092   5.885 -0.3888  0.2495  0.2029
  182POPC   H3R20856   5.046   5.134   5.891 -0.3975  0.3285 -0.1843
  182POPC   H3S20857   4.896   5.181   5.840  0.8425  1.3497  1.0101
  182POPC   C2420858   4.930   4.970   5.799 -0.5337  0.2961 -0.5104
  182POPC   H4R20859   4.827   4.929   5.800 -0.0737 -1.1395 -3.5034
  182POPC   H4S20860   4.987   4.883   5.837  0.5926  0.7815 -1.0327
  182POPC   C2520861   4.971   5.010   5.660  0.1058  0.4165 -0.1994
  182POPC   H5R20862   5.080   5.026   5.651  0.2049  0.6316  1.1925
  182POPC   H5S20863   4.930   5.107   5.624  0.0789  1.5892  2.7082
  182POPC   C2620864   4.939   4.904   5.559  0.0380  0.0738 -0.3593
  182POPC   H6R20865   4.830   4.884   5.552  0.5000 -2.6323 -1.1373
  182POPC   H6S20866   4.995   4.810   5.578 -1.5099 -0.9263 -0.5051
  182POPC   C2720867   4.973   4.953   5.411 -0.4908  0.2287 -0.4613
  182POPC   H7R20868   5.079   4.986   5.414 -0.4280 -0.0387  1.3215
  182POPC   H7S20869   4.908   5.042   5.398 -0.6451 -0.0933 -2.2890
  182POPC   C2820870   4.940   4.838   5.307 -0.5797 -0.0260 -0.0093
  182POPC   H8R20871   4.831   4.824   5.317 -0.5461 -0.5644 -0.3423
  182POPC   H8S20872   4.990   4.743   5.337 -2.3108 -0.7760  0.5938
  182POPC   C2920873   4.978   4.882   5.166 -0.4543 -0.2794 -0.8365
  182POPC   H9120874   5.055   4.960   5.155 -0.0177 -0.7547 -1.1954
  182POPC  C21020875   4.925   4.825   5.059 -0.4148 -0.4508 -0.3732
  182POPC  H10120876   4.967   4.862   4.964  1.4202 -0.3945  0.3998
  182POPC  C21120877   4.810   4.732   5.053  0.0032  0.1348 -0.0864
  182POPC  H11R20878   4.729   4.753   5.126  0.0646  0.6967 -0.1730
  182POPC  H11S20879   4.843   4.627   5.067  0.3415 -0.1121 -2.3981
  182POPC  C21220880   4.756   4.740   4.908  0.3358 -0.4683 -0.0705
  182POPC  H12R20881   4.835   4.711   4.835  0.8095  1.1321 -0.2210
  182POPC  H12S20882   4.705   4.835   4.885 -0.4453 -0.6543  0.8199
  182POPC  C21320883   4.652   4.626   4.897 -0.0870  0.5244 -0.1842
  182POPC  H13R20884   4.589   4.627   4.989  0.8493 -0.9011  0.5097
  182POPC  H13S20885   4.721   4.540   4.912  1.1608  1.3424 -1.0021
  182POPC  C21420886   4.580   4.618   4.767  0.4853  0.4888  0.0840
  182POPC  H14R20887   4.654   4.644   4.689  0.6761  2.0223  0.7509
  182POPC  H14S20888   4.501   4.696   4.766 -0.4513 -0.4347  0.2194
  182POPC  C21520889   4.521   4.475   4.745 -0.0644 -0.2511  0.5478
  182POPC  H15R20890   4.452   4.459   4.832 -1.2280  0.9424 -0.1132
  182POPC  H15S20891   4.602   4.400   4.739 -1.0188 -1.1785 -2.3539
  182POPC  C21620892   4.442   4.480   4.617  0.4095  0.0870  0.6494
  182POPC  H16R20893   4.511   4.485   4.530  0.7284 -2.4639  0.6626
  182POPC  H16S20894   4.372   4.566   4.624 -0.8879 -0.9501  0.8779
  182POPC  C21720895   4.331   4.373   4.596  0.3619  0.1419 -0.4867
  182POPC  H17R20896   4.251   4.389   4.672  0.6608  2.2880 -0.5755
  182POPC  H17S20897   4.364   4.269   4.620 -2.0413 -1.3880 -3.0657
  182POPC  C21820898   4.274   4.374   4.454 -0.3922  0.1800  0.3762
  182POPC  H18R20899   4.164   4.389   4.456 -0.4663  0.3530 -1.9522
  182POPC  H18S20900   4.288   4.271   4.415 -1.7730  0.7365 -1.7782
  182POPC  H18T20901   4.328   4.436   4.379  0.0521 -0.6124  0.0394
  182POPC   C3320902   5.322   4.695   5.905 -0.3381  0.1960  0.4760
  182POPC   H3X20903   5.411   4.661   5.848 -1.1290 -0.8494 -0.1706
  182POPC   H3Y20904   5.368   4.742   5.995 -2.1962  1.9227  0.6045
  182POPC   C3420905   5.258   4.809   5.823  0.0441 -0.1056  0.8662
  182POPC   H4X20906   5.245   4.896   5.892  0.4006 -0.4862  1.4190
  182POPC   H4Y20907   5.163   4.767   5.784  0.1382 -0.5778  1.1328
  182POPC   C3520908   5.346   4.859   5.711  0.2754  0.5531 -0.6995
  182POPC   H5X20909   5.446   4.878   5.755  0.8435  0.2851 -1.8617
  182POPC   H5Y20910   5.289   4.951   5.687  0.7946  0.5460 -2.0162
  182POPC   C3620911   5.315   4.779   5.582  0.2670  0.1353  1.2079
  182POPC   H6X20912   5.212   4.799   5.545  0.2058 -0.1608  1.2176
  182POPC   H6Y20913   5.320   4.669   5.598 -2.6011 -0.4648 -0.9855
  182POPC   C3720914   5.407   4.808   5.458  1.0909  0.3725 -0.1783
  182POPC   H7X20915   5.379   4.742   5.373  1.3846  0.0903 -0.0587
  182POPC   H7Y20916   5.507   4.773   5.491  0.7569  1.1990  1.9163
  182POPC   C3820917   5.389   4.947   5.398  0.5958  0.6432 -0.0398
  182POPC   H8X20918   5.454   5.012   5.461  1.5357  0.4118 -0.7517
  182POPC   H8Y20919   5.282   4.973   5.388  0.2644 -0.5479  0.2411
  182POPC   C3920920   5.423   4.962   5.249 -0.0904  0.1567  0.2580
  182POPC   H9X20921   5.365   4.894   5.183  0.6415  0.1756 -0.4145
  182POPC   H9Y20922   5.526   4.923   5.235 -0.4048 -0.3183 -0.8689
  182POPC  C31020923   5.402   5.106   5.201  0.1729  0.6840 -0.7218
  182POPC  H10X20924   5.458   5.183   5.258 -1.1941  0.6250  0.7831
  182POPC  H10Y20925   5.295   5.129   5.219 -0.3822 -1.6568 -0.6495
  182POPC  C31120926   5.424   5.120   5.053 -0.4033  0.0744 -0.0609
  182POPC  H11X20927   5.512   5.067   5.010 -0.2116  0.5236 -0.2299
  182POPC  H11Y20928   5.441   5.228   5.037  0.7259  0.3142  2.3510
  182POPC  C31220929   5.297   5.084   4.980  0.3376  0.1125  0.0101
  182POPC  H12X20930   5.210   5.152   4.990  0.5695  1.2021 -3.8973
  182POPC  H12Y20931   5.266   4.982   5.011  2.3592 -0.9300 -1.2054
  182POPC  C31320932   5.325   5.066   4.835 -0.5024 -0.2361 -0.0407
  182POPC  H13X20933   5.406   4.991   4.819 -0.5700 -0.0935 -1.1300
  182POPC  H13Y20934   5.358   5.163   4.791 -2.2720  0.0780 -0.7509
  182POPC  C31420935   5.202   5.020   4.753  0.3889 -0.4583 -0.4713
  182POPC  H14X20936   5.113   5.082   4.778 -0.2545 -0.4216 -2.6251
  182POPC  H14Y20937   5.183   4.912   4.768 -1.4009 -0.1812 -0.5533
  182POPC  C31520938   5.232   5.035   4.597 -0.1725 -0.3714 -0.1053
  182POPC  H15X20939   5.284   5.132   4.587 -0.4430 -0.1625  0.4844
  182POPC  H15Y20940   5.143   5.035   4.530  1.1006 -1.1710 -1.8801
  182POPC  C31620941   5.324   4.921   4.537 -0.4299  0.0431 -0.2816
  182POPC  H16X20942   5.431   4.927   4.564  0.3408 -0.3548 -3.0264
  182POPC  H16Y20943   5.318   4.930   4.426  1.2806  3.2827 -0.2292
  182POPC  H16Z20944   5.288   4.820   4.565 -1.0319 -0.0267 -1.2616
  183POPC     N20945   1.141   5.259   6.505 -0.2223  0.7840 -0.3301
  183POPC   C1220946   1.214   5.226   6.379 -0.8951 -0.4706 -0.8586
  183POPC  H12A20947   1.273   5.137   6.391 -0.7524 -0.6600 -2.6085
  183POPC  H12B20948   1.283   5.307   6.360  0.6845 -1.8993 -1.4512
  183POPC   C1320949   1.243   5.276   6.619 -0.2605 -0.0614  0.5368
  183POPC  H13A20950   1.297   5.370   6.616 -2.7774  1.6022  2.6572
  183POPC  H13B20951   1.186   5.279   6.711 -0.1500  0.6398  0.5924
  183POPC  H13C20952   1.325   5.207   6.629  0.2502  0.4800  0.1581
  183POPC   C1420953   1.074   5.389   6.487 -0.2664 -0.4094 -0.3635
  183POPC  H14A20954   0.990   5.387   6.420 -0.9424 -1.6698  0.4896
  183POPC  H14B20955   1.032   5.426   6.580 -0.0016  1.6596 -1.0158
  183POPC  H14C20956   1.146   5.465   6.458 -1.0436  0.5846  0.2536
  183POPC   C1520957   1.051   5.148   6.546  0.1049 -1.2666  0.5072
  183POPC  H15A20958   1.095   5.050   6.557 -2.7003 -2.6462  0.3425
  183POPC  H15B20959   0.976   5.142   6.469  0.4150  2.2271 -0.2623
  183POPC  H15C20960   0.999   5.173   6.638  1.9645  1.6822  0.9211
  183POPC   C1120961   1.127   5.214   6.254 -0.2930  0.2583 -0.1386
  183POPC  H11A20962   1.195   5.224   6.166 -1.3355 -0.3609 -1.0517
  183POPC  H11B20963   1.052   5.291   6.227  2.0630  2.1094 -1.8144
  183POPC     P20964   1.148   4.950   6.238  0.0929  0.5480 -0.0022
  183POPC   O1320965   1.068   4.849   6.310 -0.0458 -0.6673 -0.5128
  183POPC   O1420966   1.290   4.964   6.286 -0.2610 -0.3974  0.2158
  183POPC   O1220967   1.068   5.085   6.256  0.8163  0.4473  0.1442
  183POPC   O1120968   1.149   4.908   6.087 -0.9971  0.5961  0.2605
  183POPC    C120969   1.076   4.983   5.990  0.3732  0.1627  0.9202
  183POPC    HA20970   1.015   5.065   6.034 -1.2796 -1.6209  2.1675
  183POPC    HB20971   1.015   4.911   5.931  1.3097 -2.4422  2.9103
  183POPC    C220972   1.155   5.045   5.873 -0.0123 -0.4132  0.3483
  183POPC    HS20973   1.196   4.966   5.806 -0.8046 -0.0845 -0.5453
  183POPC   O2120974   1.253   5.128   5.927 -0.8157 -0.0435 -0.9429
  183POPC   C2120975   1.359   5.143   5.845 -0.4044 -0.9818  0.5597
  183POPC   O2220976   1.376   5.085   5.739 -0.1271 -0.5434  0.4412
  183POPC   C2220977   1.450   5.240   5.924  0.3291 -0.1678  0.3037
  183POPC   H2R20978   1.520   5.169   5.974 -0.2212 -2.9523 -2.5048
  183POPC   H2S20979   1.395   5.318   5.980  1.3555  0.8274 -0.0520
  183POPC    C320980   1.057   5.130   5.791 -0.1187 -0.0095  0.1565
  183POPC    HX20981   1.029   5.217   5.856  0.1645  0.5628 -0.4767
  183POPC    HY20982   0.964   5.070   5.789 -0.8220  0.7915  3.0462
  183POPC   O3120983   1.112   5.175   5.667 -0.6687 -0.1623  0.5189
  183POPC   C3120984   1.093   5.094   5.564 -0.2697 -0.3557  0.3683
  183POPC   O3220985   1.023   4.994   5.565  0.5121 -0.2425 -0.8256
  183POPC   C3220986   1.175   5.157   5.447  1.1140  0.3737 -0.0737
  183POPC   H2X20987   1.282   5.146   5.473  0.9907  0.7325  0.6080
  183POPC   H2Y20988   1.166   5.268   5.440  1.4090  0.5153  1.5027
  183POPC   C2320989   1.538   5.316   5.826  0.3590 -0.0418 -0.4769
  183POPC   H3R20990   1.585   5.239   5.761  0.7835  0.5980 -0.9444
  183POPC   H3S20991   1.624   5.373   5.866 -0.1664  0.7961 -0.5143
  183POPC   C2420992   1.451   5.423   5.755 -0.4932 -0.2038 -0.3689
  183POPC   H4R20993   1.506   5.518   5.771  2.1443 -1.7651  0.4000
  183POPC   H4S20994   1.354   5.448   5.802 -0.3023 -1.5511  0.8160
  183POPC   C2520995   1.462   5.409   5.602 -0.6823  1.0229 -0.6334
  183POPC   H5R20996   1.415   5.314   5.568  1.2516 -0.2357  0.0766
  183POPC   H5S20997   1.567   5.402   5.568 -1.0214  2.2835 -2.0664
  183POPC   C2620998   1.388   5.511   5.517  0.2885 -0.4250 -0.2433
  183POPC   H6R20999   1.420   5.617   5.527 -1.3621  0.2170 -1.4166
  183POPC   H6S21000   1.281   5.509   5.546 -0.1370  1.7613 -1.4525
  183POPC   C2721001   1.388   5.476   5.373  0.3109  0.4744  0.1006
  183POPC   H7R21002   1.303   5.533   5.329  0.2557  0.3182  0.0040
  183POPC   H7S21003   1.378   5.365   5.369 -0.1359  0.4445  1.4220
  183POPC   C2821004   1.529   5.514   5.311  0.6873  0.9626 -0.1318
  183POPC   H8R21005   1.610   5.473   5.376  1.3906  1.7510 -0.4879
  183POPC   H8S21006   1.531   5.625   5.317 -1.0368  0.9485  1.6090
  183POPC   C2921007   1.550   5.452   5.167 -0.1126  0.7421  0.2025
  183POPC   H9121008   1.473   5.377   5.141  1.5455 -0.8978 -0.2019
  183POPC  C21021009   1.655   5.468   5.092 -0.1768 -0.7036 -0.1231
  183POPC  H10121010   1.657   5.402   5.004  0.1468  1.3280 -1.7103
  183POPC  C21121011   1.775   5.560   5.106  0.8591  0.0810 -0.1078
  183POPC  H11R21012   1.869   5.507   5.083  0.1063 -0.8503 -1.1339
  183POPC  H11S21013   1.772   5.610   5.205  0.3343  1.0995 -0.6223
  183POPC  C21221014   1.772   5.673   4.991 -0.3058  0.2883  0.2071
  183POPC  H12R21015   1.862   5.737   5.001  0.0111 -0.0603 -0.3829
  183POPC  H12S21016   1.681   5.736   5.001 -0.7862 -0.3854  0.2194
  183POPC  C21321017   1.784   5.612   4.854  0.7479  0.4337  0.6510
  183POPC  H13R21018   1.699   5.544   4.831  0.2678  1.5305 -1.0240
  183POPC  H13S21019   1.875   5.549   4.849  0.3586 -0.0654 -0.6073
  183POPC  C21421020   1.786   5.719   4.744  0.1390  0.2642  0.0936
  183POPC  H14R21021   1.877   5.782   4.753 -0.7785  1.3084  4.2008
  183POPC  H14S21022   1.701   5.791   4.745  0.7496  1.0004  0.0460
  183POPC  C21521023   1.779   5.675   4.594  0.2358  0.5634  0.2442
  183POPC  H15R21024   1.865   5.605   4.591  0.1099  0.1522  2.9961
  183POPC  H15S21025   1.798   5.754   4.519  2.7763 -0.5708 -0.4318
  183POPC  C21621026   1.643   5.595   4.564 -0.2977  0.7937 -0.2155
  183POPC  H16R21027   1.648   5.505   4.628  0.6136  0.7724 -0.3078
  183POPC  H16S21028   1.651   5.552   4.461  0.8422  0.4239  0.0156
  183POPC  C21721029   1.518   5.674   4.575 -0.2215 -0.9689  0.3586
  183POPC  H17R21030   1.513   5.725   4.673 -0.3366  2.1881 -1.1579
  183POPC  H17S21031   1.426   5.611   4.571 -1.1026  0.2975 -0.1050
  183POPC  C21821032   1.498   5.786   4.472  0.2190  0.2608 -0.7969
  183POPC  H18R21033   1.519   5.759   4.366  1.3470 -0.5443 -0.3951
  183POPC  H18S21034   1.560   5.873   4.504  2.2779 -0.9636 -1.2444
  183POPC  H18T21035   1.394   5.821   4.486  0.9620  1.6817  2.0963
  183POPC   C3321036   1.152   5.079   5.312 -0.1246 -0.2968 -0.0998
  183POPC   H3X21037   1.044   5.062   5.293  0.0827 -2.3900  0.2770
  183POPC   H3Y21038   1.185   4.973   5.319  0.2148 -0.1924 -0.1055
  183POPC   C3421039   1.185   5.155   5.188  0.6818  0.0846 -0.3571
  183POPC   H4X21040   1.294   5.177   5.192  1.4085 -2.4456 -2.7045
  183POPC   H4Y21041   1.116   5.241   5.176 -0.2154 -0.5349  0.1869
  183POPC   C3521042   1.162   5.068   5.064  0.8107  0.2435 -0.2342
  183POPC   H5X21043   1.054   5.059   5.039  0.1536  1.4205  1.9940
  183POPC   H5Y21044   1.179   4.962   5.093 -2.5641  0.0680  1.5000
  183POPC   C3621045   1.241   5.094   4.937  0.2091 -0.3379  0.1206
  183POPC   H6X21046   1.212   5.011   4.869 -0.1735 -0.9676  1.0417
  183POPC   H6Y21047   1.352   5.097   4.940  0.4158  2.4366 -3.1769
  183POPC   C3721048   1.199   5.230   4.861  0.1377 -0.0874 -0.6580
  183POPC   H7X21049   1.259   5.312   4.906  2.6067 -2.2478  0.3216
  183POPC   H7Y21050   1.090   5.245   4.866 -0.1256 -1.9188  0.0324
  183POPC   C3821051   1.213   5.220   4.711 -0.4978  0.4860  0.6859
  183POPC   H8X21052   1.166   5.304   4.657  0.4902  1.1373  0.8185
  183POPC   H8Y21053   1.164   5.124   4.684  0.8172 -0.9184  2.9804
  183POPC   C3921054   1.353   5.216   4.659 -0.5861  0.5606  0.0947
  183POPC   H9X21055   1.380   5.109   4.647 -0.9068  0.6247 -1.2739
  183POPC   H9Y21056   1.424   5.264   4.730 -0.2484 -1.1120  0.9305
  183POPC  C31021057   1.366   5.271   4.515  0.2951  0.2154 -0.1653
  183POPC  H10X21058   1.357   5.382   4.516  1.2594  0.3075  0.4689
  183POPC  H10Y21059   1.280   5.237   4.454  0.6038  0.3140 -0.6578
  183POPC  C31121060   1.505   5.232   4.459  0.2165 -0.0923  0.1871
  183POPC  H11X21061   1.523   5.122   4.465  0.2853 -0.2174 -1.7307
  183POPC  H11Y21062   1.586   5.296   4.500  0.1940  0.8536 -1.1864
  183POPC  C31221063   1.508   5.247   4.302 -0.5744  0.4608 -0.9244
  183POPC  H12X21064   1.451   5.175   4.238  0.6353 -0.7039 -0.7353
  183POPC  H12Y21065   1.615   5.228   4.280 -0.2345  0.1800  0.8425
  183POPC  C31321066   1.483   5.397   4.270 -0.5899 -0.1356  0.5250
  183POPC  H13X21067   1.536   5.453   4.351  1.6945 -0.4436 -0.6706
  183POPC  H13Y21068   1.376   5.425   4.270 -0.8604 -1.1195  0.8371
  183POPC  C31421069   1.539   5.447   4.134 -0.1020  0.0672 -0.4486
  183POPC  H14X21070   1.480   5.401   4.052  2.3202 -1.7144 -1.3141
  183POPC  H14Y21071   1.644   5.414   4.118 -0.8524 -1.5752 -2.4137
  183POPC  C31521072   1.522   5.596   4.112 -0.4073 -0.3538 -0.3867
  183POPC  H15X21073   1.554   5.662   4.196 -0.8261  1.4505 -1.5755
  183POPC  H15Y21074   1.413   5.614   4.109 -0.4679 -0.5441  0.3810
  183POPC  C31621075   1.580   5.639   3.981 -0.5135  0.2782  0.0530
  183POPC  H16X21076   1.561   5.746   3.957 -1.5049  0.2168  0.5266
  183POPC  H16Y21077   1.549   5.577   3.893  0.3810 -2.5621  1.6276
  183POPC  H16Z21078   1.688   5.620   3.994 -0.4365 -0.9249 -1.9027
  184POPC     N21079   1.623   6.002   6.673 -0.4064 -0.2801  0.0468
  184POPC   C1221080   1.550   5.943   6.561  0.5146 -0.2438  0.3137
  184POPC  H12A21081   1.446   5.971   6.561  0.2087 -1.3095 -0.2612
  184POPC  H12B21082   1.564   5.836   6.570 -0.0903 -0.4849 -1.3203
  184POPC   C1321083   1.554   5.948   6.799  0.0658 -0.8130  0.5215
  184POPC  H13A21084   1.449   5.972   6.803  0.5643  1.5228  0.9841
  184POPC  H13B21085   1.563   5.840   6.801 -2.1512 -1.0756 -0.5632
  184POPC  H13C21086   1.604   5.984   6.888 -0.4086 -0.6009  0.7048
  184POPC   C1421087   1.760   5.947   6.676 -0.7356 -0.9739 -0.8019
  184POPC  H14A21088   1.803   5.969   6.773 -1.1485  1.7337 -1.1577
  184POPC  H14B21089   1.762   5.841   6.655 -0.1729 -0.9805 -0.7429
  184POPC  H14C21090   1.819   6.000   6.603  0.7185  1.8209  2.1536
  184POPC   C1521091   1.628   6.154   6.675  0.0086 -0.2251  0.1350
  184POPC  H15A21092   1.682   6.188   6.762  1.1001 -1.1865 -0.1301
  184POPC  H15B21093   1.528   6.195   6.670  0.9143  2.0002 -0.8718
  184POPC  H15C21094   1.678   6.184   6.584 -0.3252 -0.8031 -0.2418
  184POPC   C1121095   1.597   5.961   6.414  0.1782 -0.2226  0.1004
  184POPC  H11A21096   1.589   6.070   6.393 -1.5875  0.3657  3.0844
  184POPC  H11B21097   1.521   5.912   6.349  2.4760 -0.3689 -2.6499
  184POPC     P21098   1.748   5.763   6.358  0.0903  0.2388  0.1846
  184POPC   O1321099   1.692   5.679   6.468 -0.3597 -0.4478  0.6413
  184POPC   O1421100   1.887   5.739   6.312  0.2981 -0.0210  0.5862
  184POPC   O1221101   1.729   5.916   6.386  0.5737 -0.5163 -0.4587
  184POPC   O1121102   1.653   5.737   6.236  0.5893  0.0250  0.1175
  184POPC    C121103   1.703   5.755   6.102 -0.1028 -0.4728 -0.4948
  184POPC    HA21104   1.800   5.704   6.085  1.6500  1.2778  3.2006
  184POPC    HB21105   1.724   5.861   6.075 -0.3934 -0.7500 -1.8758
  184POPC    C221106   1.607   5.698   6.001 -0.0433  0.1318  0.9605
  184POPC    HS21107   1.609   5.587   6.015 -1.9692 -0.8700 -4.2478
  184POPC   O2121108   1.654   5.719   5.861  0.3452  0.1704 -0.0814
  184POPC   C2121109   1.762   5.658   5.813 -0.3675 -0.8191 -0.5017
  184POPC   O2221110   1.829   5.577   5.871  0.0595 -0.3634  0.3004
  184POPC   C2221111   1.777   5.685   5.664  0.5874 -0.1910 -0.4615
  184POPC   H2R21112   1.723   5.776   5.629  0.9885 -0.2179 -1.1725
  184POPC   H2S21113   1.733   5.603   5.605  3.1039  0.1191 -3.0053
  184POPC    C321114   1.463   5.765   6.013 -0.2706  0.0210 -0.1404
  184POPC    HX21115   1.469   5.874   5.991 -0.8771  1.1319  4.2405
  184POPC    HY21116   1.436   5.748   6.119 -0.9269 -0.8282 -0.4241
  184POPC   O3121117   1.376   5.698   5.920 -0.4723 -0.0960 -0.1048
  184POPC   C3121118   1.263   5.759   5.895 -0.3250  0.0702  0.2790
  184POPC   O3221119   1.224   5.860   5.945 -0.1488  0.4767  0.5922
  184POPC   C3221120   1.192   5.697   5.778  0.2329 -0.0654  0.5038
  184POPC   H2X21121   1.084   5.707   5.802  0.1048  1.7760 -0.7050
  184POPC   H2Y21122   1.208   5.588   5.760  0.9641  0.3576 -1.7108
  184POPC   C2321123   1.925   5.705   5.630 -0.1311  0.4886 -0.4516
  184POPC   H3R21124   2.000   5.637   5.677  0.9848  1.7222 -0.4127
  184POPC   H3S21125   1.966   5.802   5.662  0.6452  0.7196 -2.0751
  184POPC   C2421126   1.937   5.699   5.478  0.1048  0.4770  0.1201
  184POPC   H4R21127   1.937   5.799   5.430  1.9823  0.9666  1.0372
  184POPC   H4S21128   1.872   5.631   5.419 -0.0818  2.5272 -2.1980
  184POPC   C2521129   2.083   5.655   5.442  0.5167  0.5842  0.3028
  184POPC   H5R21130   2.089   5.551   5.479  0.3054  0.7790  0.9026
  184POPC   H5S21131   2.144   5.731   5.497 -0.3134  1.2124  0.3780
  184POPC   C2621132   2.110   5.645   5.291  0.3220 -0.5648  0.2225
  184POPC   H6R21133   2.090   5.744   5.243  0.0222 -1.3225 -1.2538
  184POPC   H6S21134   2.041   5.575   5.239  0.9593 -0.3821 -0.9006
  184POPC   C2721135   2.253   5.593   5.263  0.1656 -0.1161  0.1248
  184POPC   H7R21136   2.262   5.488   5.297 -0.7705 -0.2917 -0.1318
  184POPC   H7S21137   2.324   5.650   5.326  2.9800 -0.1502 -2.7563
  184POPC   C2821138   2.308   5.604   5.122  0.2349 -0.1590  0.4431
  184POPC   H8R21139   2.419   5.606   5.118  0.3366 -1.7727  1.4138
  184POPC   H8S21140   2.288   5.709   5.091  0.7201 -0.0830  0.3901
  184POPC   C2921141   2.250   5.506   5.024  0.5904 -0.1493  0.0263
  184POPC   H9121142   2.247   5.403   5.063 -0.1104 -0.1745 -0.0957
  184POPC  C21021143   2.201   5.536   4.908 -0.2283  0.5700  0.2657
  184POPC  H10121144   2.149   5.464   4.844  1.6811 -1.4833  0.8958
  184POPC  C21121145   2.201   5.669   4.845 -0.6501 -0.4580 -0.9174
  184POPC  H11R21146   2.300   5.719   4.854 -0.7567 -0.4219  0.1713
  184POPC  H11S21147   2.118   5.731   4.884  0.3883  0.3879  0.0308
  184POPC  C21221148   2.171   5.664   4.692  0.4349  0.2949 -0.1726
  184POPC  H12R21149   2.165   5.774   4.676  1.6513  0.7359  2.0414
  184POPC  H12S21150   2.070   5.631   4.662 -0.3219  1.3545  1.1168
  184POPC  C21321151   2.275   5.593   4.600  0.5667 -0.1312  0.7552
  184POPC  H13R21152   2.260   5.483   4.601  1.9727 -0.4239 -1.8116
  184POPC  H13S21153   2.378   5.617   4.635  0.3199  0.1670  1.2934
  184POPC  C21421154   2.252   5.629   4.449  0.0365  0.4541  0.1808
  184POPC  H14R21155   2.291   5.729   4.420  3.2683 -0.3624  1.3195
  184POPC  H14S21156   2.144   5.615   4.425  0.3527 -0.5101 -0.7678
  184POPC  C21521157   2.327   5.522   4.364  0.1246 -0.0892 -0.4662
  184POPC  H15R21158   2.277   5.427   4.393  1.2179 -1.0970 -1.7544
  184POPC  H15S21159   2.428   5.521   4.409  1.0023 -0.7458 -2.3723
  184POPC  C21621160   2.337   5.541   4.213  0.6633  0.0110  0.0118
  184POPC  H16R21161   2.395   5.633   4.188  0.9821  0.3572  1.8942
  184POPC  H16S21162   2.236   5.527   4.169 -0.1536  0.3141  1.6992
  184POPC  C21721163   2.408   5.421   4.138  0.3242  0.5381  0.3019
  184POPC  H17R21164   2.348   5.329   4.153  0.1793  0.8111  1.4901
  184POPC  H17S21165   2.506   5.405   4.189  0.5379  1.7507  0.2927
  184POPC  C21821166   2.431   5.448   3.992 -0.1649 -0.0793  0.2257
  184POPC  H18R21167   2.507   5.528   3.980  0.3769 -0.7682 -1.1739
  184POPC  H18S21168   2.340   5.499   3.954  0.2955  1.0385  0.5901
  184POPC  H18T21169   2.466   5.355   3.941 -0.4381  0.5134 -1.0975
  184POPC   C3321170   1.216   5.778   5.647 -0.5968  0.6297  0.5051
  184POPC   H3X21171   1.160   5.735   5.561  0.6642  0.5003 -0.2897
  184POPC   H3Y21172   1.325   5.768   5.627 -0.7975  2.2284 -1.8088
  184POPC   C3421173   1.164   5.927   5.654 -0.7461 -0.4675  0.5652
  184POPC   H4X21174   1.228   5.985   5.724  0.4133  0.1671 -0.9779
  184POPC   H4Y21175   1.058   5.932   5.686 -1.5773  0.3161 -2.0572
  184POPC   C3521176   1.182   6.008   5.526  0.5085  0.5096 -0.8508
  184POPC   H5X21177   1.130   6.106   5.524  0.4620  0.6108 -5.7875
  184POPC   H5Y21178   1.136   5.959   5.437  1.0362 -1.5015 -0.0774
  184POPC   C3621179   1.326   6.061   5.498 -0.0559 -0.1557  1.0486
  184POPC   H6X21180   1.392   5.972   5.501  1.0602  0.4239 -2.5808
  184POPC   H6Y21181   1.342   6.141   5.573 -1.4810  0.1773  1.0336
  184POPC   C3721182   1.336   6.130   5.365  0.4536 -0.5706  0.1186
  184POPC   H7X21183   1.436   6.178   5.371 -0.9689  2.6416  0.3110
  184POPC   H7Y21184   1.256   6.206   5.354  1.7260  0.4732 -3.1612
  184POPC   C3821185   1.323   6.049   5.235 -0.4819  0.0827  0.0911
  184POPC   H8X21186   1.369   6.112   5.157 -0.9519  1.8623  1.1873
  184POPC   H8Y21187   1.216   6.029   5.213 -1.0830 -1.3170  3.4914
  184POPC   C3921188   1.402   5.916   5.236  0.3544 -0.3262 -0.6964
  184POPC   H9X21189   1.344   5.848   5.302 -0.6159  0.4866 -0.6838
  184POPC   H9Y21190   1.501   5.939   5.279 -0.6693  0.1005  1.5990
  184POPC  C31021191   1.423   5.848   5.095  0.3115 -0.3520 -0.1316
  184POPC  H10X21192   1.485   5.758   5.112 -1.3503 -1.6113 -0.4455
  184POPC  H10Y21193   1.484   5.919   5.036  0.3761  0.3457  0.7560
  184POPC  C31121194   1.297   5.820   5.020  0.3392  1.0481 -0.0586
  184POPC  H11X21195   1.245   5.911   4.982  0.8729  1.6227  0.5611
  184POPC  H11Y21196   1.222   5.775   5.089 -0.1694 -1.1165 -1.9302
  184POPC  C31221197   1.304   5.720   4.909  0.5150 -0.6330  0.5374
  184POPC  H12X21198   1.273   5.615   4.929 -2.2990  0.4254  2.3788
  184POPC  H12Y21199   1.408   5.709   4.870 -0.2882  0.2380 -2.0302
  184POPC  C31321200   1.223   5.767   4.786  0.0982  0.3458 -0.4491
  184POPC  H13X21201   1.282   5.825   4.712  0.7469  1.9221  1.2410
  184POPC  H13Y21202   1.142   5.832   4.823 -1.7682 -1.6099 -0.9144
  184POPC  C31421203   1.149   5.650   4.717  0.4715  0.0629  0.4472
  184POPC  H14X21204   1.056   5.621   4.770 -2.7158  3.2358 -2.8041
  184POPC  H14Y21205   1.217   5.563   4.702 -0.6504 -0.4514 -2.3314
  184POPC  C31521206   1.087   5.684   4.581  0.0820 -0.5457 -0.8072
  184POPC  H15X21207   1.037   5.595   4.538 -0.9947 -0.3994  0.0732
  184POPC  H15Y21208   1.165   5.708   4.506 -0.9740 -0.9496 -2.0733
  184POPC  C31621209   0.990   5.799   4.585 -0.1991 -0.4648  0.3625
  184POPC  H16X21210   1.009   5.892   4.643 -2.2423  0.4555 -0.3706
  184POPC  H16Y21211   0.900   5.758   4.635 -2.0447  0.4726 -2.0280
  184POPC  H16Z21212   0.975   5.829   4.479 -0.9423  0.0698  0.6068
  185POPC     N21213   0.500   2.363   2.055  0.0357 -0.8113  0.1598
  185POPC   C1221214   0.567   2.247   2.124  0.0836 -0.1554 -0.0550
  185POPC  H12A21215   0.586   2.287   2.223  0.1568 -0.1546 -0.0690
  185POPC  H12B21216   0.660   2.228   2.072  1.3368 -1.7746  2.5230
  185POPC   C1321217   0.473   2.335   1.910  0.4829 -0.5766 -0.2617
  185POPC  H13A21218   0.424   2.421   1.868  2.0553 -0.0527 -1.1411
  185POPC  H13B21219   0.568   2.329   1.857  1.8946 -1.8099  2.2398
  185POPC  H13C21220   0.415   2.245   1.901 -0.3545  0.1605 -3.7414
  185POPC   C1421221   0.376   2.390   2.127  0.1992 -1.1706  0.2336
  185POPC  H14A21222   0.381   2.460   2.208  0.3840  0.2635 -0.9692
  185POPC  H14B21223   0.303   2.428   2.056  0.1192 -2.6194 -0.5016
  185POPC  H14C21224   0.318   2.310   2.170 -0.3793 -0.3369  1.0314
  185POPC   C1521225   0.584   2.489   2.075 -0.2296 -0.2893 -0.1611
  185POPC  H15A21226   0.537   2.560   2.008 -0.3187 -0.0487  0.1537
  185POPC  H15B21227   0.691   2.488   2.060 -0.4725 -0.0227 -2.1655
  185POPC  H15C21228   0.575   2.529   2.175  1.7913  0.9129 -0.4012
  185POPC   C1121229   0.491   2.115   2.136 -0.5142  0.6164  0.2528
  185POPC  H11A21230   0.408   2.134   2.208  0.6325  2.2945  1.1865
  185POPC  H11B21231   0.558   2.045   2.191 -0.4674  0.3329 -0.1618
  185POPC     P21232   0.572   1.981   1.934 -0.0207 -0.3072 -0.0863
  185POPC   O1321233   0.702   2.057   1.933  0.0402  0.2546 -0.1041
  185POPC   O1421234   0.521   1.953   1.798  0.3007 -0.2100  0.3994
  185POPC   O1221235   0.455   2.064   2.008 -0.5233 -0.2997  0.8138
  185POPC   O1121236   0.597   1.847   2.018 -0.1590  0.0889 -1.0171
  185POPC    C121237   0.501   1.779   2.105  1.0367 -0.1644  0.1568
  185POPC    HA21238   0.440   1.703   2.052  1.1850  1.1049 -1.9220
  185POPC    HB21239   0.425   1.847   2.150  0.9957  1.1407 -1.7618
  185POPC    C221240   0.565   1.690   2.207 -0.3658  0.0519 -0.4992
  185POPC    HS21241   0.483   1.655   2.274 -1.9330  0.7512 -1.9799
  185POPC   O2121242   0.666   1.758   2.287 -0.5038  0.2085 -0.0207
  185POPC   C2121243   0.610   1.824   2.387  0.5079  0.2404  0.3873
  185POPC   O2221244   0.490   1.838   2.416  0.3917  0.1296 -0.1485
  185POPC   C2221245   0.719   1.895   2.466  0.2957 -0.2004 -0.8249
  185POPC   H2R21246   0.663   1.932   2.555  1.3939 -0.6104  0.0713
  185POPC   H2S21247   0.757   1.980   2.405  1.3680  0.3108  0.4905
  185POPC    C321248   0.649   1.577   2.148  0.1117 -0.5472 -0.1889
  185POPC    HX21249   0.747   1.617   2.111  0.2539 -0.2103  0.5359
  185POPC    HY21250   0.596   1.539   2.058 -0.3337 -3.3328  1.1499
  185POPC   O3121251   0.653   1.471   2.242  0.1059 -0.3244  0.0638
  185POPC   C3121252   0.776   1.444   2.294  0.6569  0.5126 -0.1830
  185POPC   O3221253   0.882   1.486   2.251 -0.1271  0.4896 -0.4144
  185POPC   C3221254   0.745   1.328   2.394 -0.2859 -0.8326  0.4813
  185POPC   H2X21255   0.809   1.240   2.371  1.1242 -0.1335  1.5574
  185POPC   H2Y21256   0.641   1.291   2.384 -1.1474  1.6456 -0.4191
  185POPC   C2321257   0.828   1.790   2.504 -0.4183 -0.2527 -0.7039
  185POPC   H3R21258   0.869   1.747   2.410 -2.3867 -1.0277 -1.2621
  185POPC   H3S21259   0.783   1.706   2.561 -1.0801  0.8527  0.4663
  185POPC   C2421260   0.953   1.847   2.586 -0.0263  0.6210  0.6574
  185POPC   H4R21261   0.906   1.919   2.657  0.3959  0.6763  0.8788
  185POPC   H4S21262   1.015   1.904   2.514  0.8626  0.6422  1.4272
  185POPC   C2521263   1.036   1.743   2.650 -0.2372  0.4312  0.6885
  185POPC   H5R21264   1.113   1.790   2.715 -0.4087  0.2754  1.0070
  185POPC   H5S21265   1.088   1.681   2.574 -0.9252 -2.6625  2.5390
  185POPC   C2621266   0.975   1.654   2.763  0.7520 -0.3865 -0.2511
  185POPC   H6R21267   1.053   1.585   2.802  1.0939 -0.1067 -0.4410
  185POPC   H6S21268   0.901   1.587   2.714  0.0289  0.6072 -0.5392
  185POPC   C2721269   0.918   1.731   2.879  0.6809 -0.5632 -0.0652
  185POPC   H7R21270   0.815   1.767   2.857  1.0547  1.0543  0.7329
  185POPC   H7S21271   0.980   1.821   2.896  0.3192 -0.3837  0.3415
  185POPC   C2821272   0.901   1.641   3.004  0.0858 -0.6985 -0.7752
  185POPC   H8R21273   0.994   1.589   3.035  0.1630  1.0619  2.3897
  185POPC   H8S21274   0.830   1.557   2.986 -0.5282 -0.5167  0.6932
  185POPC   C2921275   0.866   1.722   3.133  0.2551  0.3478  0.6821
  185POPC   H9121276   0.911   1.823   3.139  1.5834 -0.1166 -0.8113
  185POPC  C21021277   0.770   1.695   3.222 -0.2844  0.5585  0.5820
  185POPC  H10121278   0.763   1.755   3.314  0.7228  2.1180 -0.3110
  185POPC  C21121279   0.680   1.575   3.243 -0.8632 -0.4494 -0.2889
  185POPC  H11R21280   0.696   1.504   3.159 -0.3981 -0.5277 -0.1333
  185POPC  H11S21281   0.576   1.614   3.231 -0.9062 -0.4868 -0.0401
  185POPC  C21221282   0.704   1.506   3.372 -0.3775 -0.7781 -0.0145
  185POPC  H12R21283   0.812   1.489   3.386 -0.0850  1.1467  0.3844
  185POPC  H12S21284   0.658   1.405   3.381  1.1010 -1.5690 -0.9191
  185POPC  C21321285   0.678   1.581   3.498 -0.2838 -0.4538  0.2415
  185POPC  H13R21286   0.568   1.587   3.513 -0.6412 -5.0894  0.9536
  185POPC  H13S21287   0.730   1.679   3.499 -0.3027 -0.3999  2.6642
  185POPC  C21421288   0.735   1.511   3.623  0.5021  0.0032 -0.0303
  185POPC  H14R21289   0.846   1.508   3.624  0.7001  3.2419  2.0663
  185POPC  H14S21290   0.690   1.410   3.617 -1.8370  0.9089  0.8519
  185POPC  C21521291   0.685   1.578   3.753  0.1682  0.3598  0.3786
  185POPC  H15R21292   0.575   1.592   3.753  0.2301  0.8301 -0.1174
  185POPC  H15S21293   0.723   1.682   3.757 -0.1211  0.6844 -3.0270
  185POPC  C21621294   0.716   1.506   3.886 -0.3475  0.1987 -0.4924
  185POPC  H16R21295   0.825   1.490   3.899 -0.5045  0.9488  2.4056
  185POPC  H16S21296   0.671   1.404   3.889 -1.6664  0.7434 -1.1042
  185POPC  C21721297   0.670   1.580   4.009 -0.7008  0.1237 -0.2568
  185POPC  H17R21298   0.564   1.613   4.000 -0.4268  1.3636  0.7301
  185POPC  H17S21299   0.729   1.671   4.030 -0.2423 -0.2584  0.1507
  185POPC  C21821300   0.659   1.505   4.145 -0.1460 -0.2106  0.5966
  185POPC  H18R21301   0.616   1.575   4.220 -0.1102 -0.0527  0.4703
  185POPC  H18S21302   0.763   1.476   4.170  0.5873  0.2593 -1.6711
  185POPC  H18T21303   0.596   1.414   4.134 -0.0031 -0.0669 -2.0478
  185POPC   C3321304   0.764   1.370   2.548  0.4941  0.1218  0.5133
  185POPC   H3X21305   0.861   1.419   2.571  1.3281 -0.6097 -1.2858
  185POPC   H3Y21306   0.777   1.272   2.597  1.8655  0.4835  0.9244
  185POPC   C3421307   0.648   1.441   2.613  0.6409  0.2527  0.0160
  185POPC   H4X21308   0.561   1.375   2.592  0.6137  0.2992 -0.0174
  185POPC   H4Y21309   0.619   1.531   2.555 -1.9875 -0.3983  0.1928
  185POPC   C3521310   0.644   1.463   2.769  0.2591 -0.1216  0.2174
  185POPC   H5X21311   0.727   1.528   2.802 -0.1707  0.8496 -0.5645
  185POPC   H5Y21312   0.641   1.365   2.821  2.3446 -0.7873 -0.8311
  185POPC   C3621313   0.523   1.552   2.811  0.6900  0.1222 -0.3929
  185POPC   H6X21314   0.521   1.644   2.750 -1.6709 -0.9385 -2.1045
  185POPC   H6Y21315   0.547   1.572   2.917  0.5687  2.1409 -0.7032
  185POPC   C3721316   0.388   1.477   2.791  0.6333 -0.2880 -0.2920
  185POPC   H7X21317   0.397   1.368   2.772 -1.0224 -0.6022  0.5581
  185POPC   H7Y21318   0.344   1.524   2.700 -0.2629  3.2026  1.7396
  185POPC   C3821319   0.288   1.513   2.906 -0.6011 -0.1677  0.0254
  185POPC   H8X21320   0.184   1.501   2.869 -0.6376  2.6833 -1.0589
  185POPC   H8Y21321   0.299   1.623   2.917  1.9203 -0.0390 -2.6268
  185POPC   C3921322   0.313   1.435   3.036 -0.1220 -0.2186 -0.1731
  185POPC   H9X21323   0.422   1.440   3.061 -0.1776 -1.0411  0.3050
  185POPC   H9Y21324   0.281   1.329   3.023  0.8626 -0.3787 -1.5127
  185POPC  C31021325   0.259   1.506   3.163 -0.0269 -0.1862 -0.1873
  185POPC  H10X21326   0.151   1.531   3.154  0.6852  2.9816 -1.0719
  185POPC  H10Y21327   0.305   1.607   3.172 -2.5731  1.0719 -0.2524
  185POPC  C31121328   0.287   1.422   3.287 -0.3736  0.8563 -0.7600
  185POPC  H11X21329   0.393   1.387   3.279  0.0459  1.9444 -0.1972
  185POPC  H11Y21330   0.220   1.334   3.294 -1.9493  2.0347 -0.6006
  185POPC  C31221331   0.280   1.505   3.418 -0.1517 -1.0832  0.8861
  185POPC  H12X21332   0.189   1.567   3.403  1.0533  0.0361 -3.1480
  185POPC  H12Y21333   0.372   1.567   3.412 -0.7046 -0.3753 -1.1103
  185POPC  C31321334   0.279   1.433   3.553 -0.0364  0.4101  0.2170
  185POPC  H13X21335   0.182   1.379   3.560 -0.8329  1.2597 -2.7379
  185POPC  H13Y21336   0.286   1.506   3.636  1.3396  0.2574  0.2603
  185POPC  C31421337   0.391   1.324   3.581  0.1951  0.4084  0.3656
  185POPC  H14X21338   0.492   1.367   3.565 -0.0934  0.0427 -3.0620
  185POPC  H14Y21339   0.385   1.235   3.515 -0.8644  0.1356  0.8119
  185POPC  C31521340   0.375   1.276   3.728  0.0199 -0.4849  0.0799
  185POPC  H15X21341   0.285   1.212   3.734 -0.7354  0.4355 -0.9910
  185POPC  H15Y21342   0.361   1.367   3.790  0.8771 -0.8052  0.7627
  185POPC  C31621343   0.497   1.195   3.777  0.1363 -0.0037 -0.4806
  185POPC  H16X21344   0.479   1.178   3.885 -0.9296 -1.8698 -0.9141
  185POPC  H16Y21345   0.591   1.254   3.767 -0.4068  1.0160  0.2999
  185POPC  H16Z21346   0.507   1.097   3.726  0.1217  0.2291 -0.9395
  186POPC     N21347   3.199   3.354   1.920 -0.0322 -0.4278  0.3732
  186POPC   C1221348   3.239   3.300   2.059 -0.0822  0.7848  0.5234
  186POPC  H12A21349   3.315   3.227   2.036 -0.4073 -0.0237  1.8921
  186POPC  H12B21350   3.151   3.259   2.108 -0.7932  2.2732  0.5491
  186POPC   C1321351   3.084   3.448   1.942  0.0543  0.0560  0.5978
  186POPC  H13A21352   3.097   3.533   2.008 -1.5591  1.3687 -0.6660
  186POPC  H13B21353   3.050   3.489   1.848  0.1510 -2.2704 -0.5037
  186POPC  H13C21354   3.005   3.395   1.992  0.5389 -1.7492 -0.4714
  186POPC   C1421355   3.313   3.435   1.862  0.6165  0.1408  0.1294
  186POPC  H14A21356   3.392   3.370   1.827  0.9432  0.6666 -0.1175
  186POPC  H14B21357   3.271   3.488   1.778  0.2436  1.1686  0.9511
  186POPC  H14C21358   3.348   3.507   1.934  0.5024 -0.5948  0.9301
  186POPC   C1521359   3.152   3.247   1.825  0.0419  0.1045  0.0018
  186POPC  H15A21360   3.237   3.188   1.794 -0.4527 -0.2606 -0.6821
  186POPC  H15B21361   3.112   3.299   1.739  0.8475 -0.8568 -0.9647
  186POPC  H15C21362   3.084   3.186   1.883 -0.0827  1.6269  1.5760
  186POPC   C1121363   3.301   3.401   2.158  0.2383 -0.3434  0.0849
  186POPC  H11A21364   3.395   3.444   2.118  0.5666  0.2577  1.4431
  186POPC  H11B21365   3.331   3.348   2.250  1.7431 -0.1918 -0.2945
  186POPC     P21366   3.254   3.624   2.277  0.2584 -0.3686  0.3249
  186POPC   O1321367   3.152   3.732   2.280  0.0332  0.0587  0.1105
  186POPC   O1421368   3.389   3.663   2.226  0.1568  0.0012 -0.0011
  186POPC   O1221369   3.209   3.505   2.191 -0.4603 -0.4591  0.3812
  186POPC   O1121370   3.248   3.565   2.426  0.2995  0.3231 -0.9531
  186POPC    C121371   3.316   3.623   2.537  0.1957  0.1357 -0.4577
  186POPC    HA21372   3.247   3.678   2.605  0.8831  0.3055  0.1124
  186POPC    HB21373   3.401   3.689   2.511  3.0247 -3.3776 -0.8381
  186POPC    C221374   3.388   3.520   2.632  0.6689 -0.1819  0.1644
  186POPC    HS21375   3.307   3.445   2.651  0.5000 -0.2776 -0.8378
  186POPC   O2121376   3.436   3.603   2.739 -0.0258 -0.1477 -0.0109
  186POPC   C2121377   3.457   3.539   2.851 -0.1004 -0.3094  0.3975
  186POPC   O2221378   3.435   3.418   2.862 -0.4138 -0.4986  0.6057
  186POPC   C2221379   3.486   3.637   2.963 -0.7580 -0.1504 -0.1813
  186POPC   H2R21380   3.389   3.680   2.996 -0.1593 -0.2218  1.8500
  186POPC   H2S21381   3.556   3.718   2.933 -2.6167  2.0149  1.0247
  186POPC    C321382   3.503   3.444   2.552  0.2982  0.1366  0.2431
  186POPC    HX21383   3.582   3.521   2.539  0.3526  0.0996  0.3573
  186POPC    HY21384   3.479   3.405   2.451  1.8877  3.1676 -1.4459
  186POPC   O3121385   3.577   3.339   2.625 -0.4417 -0.4298  0.1639
  186POPC   C3121386   3.514   3.228   2.637 -0.1311  0.3607  0.9022
  186POPC   O3221387   3.402   3.203   2.599  0.2435  0.0583 -0.0303
  186POPC   C3221388   3.621   3.126   2.689  0.4760 -0.0302  0.0029
  186POPC   H2X21389   3.673   3.178   2.772 -1.7942  0.4116  1.2508
  186POPC   H2Y21390   3.687   3.094   2.606  0.0707  0.8885 -0.6885
  186POPC   C2321391   3.553   3.568   3.086 -0.3873  0.6868  0.0903
  186POPC   H3R21392   3.510   3.467   3.109  0.1145  0.6083  0.7173
  186POPC   H3S21393   3.529   3.634   3.173  0.6396 -0.7564  1.5283
  186POPC   C2421394   3.703   3.573   3.077 -0.5895 -0.5409 -0.3198
  186POPC   H4R21395   3.736   3.670   3.034 -0.9859 -0.6950 -0.9826
  186POPC   H4S21396   3.734   3.500   2.999  0.3962 -2.7825  2.0322
  186POPC   C2521397   3.782   3.539   3.209  0.3844  0.6941 -0.3901
  186POPC   H5R21398   3.889   3.530   3.180  0.2573  1.8912 -1.3299
  186POPC   H5S21399   3.737   3.452   3.260  0.7365  1.7959  1.9355
  186POPC   C2621400   3.781   3.651   3.310 -0.1675  0.4819 -0.2958
  186POPC   H6R21401   3.680   3.689   3.337 -0.6810 -1.2072  0.3091
  186POPC   H6S21402   3.841   3.738   3.274  0.1743 -0.2343 -1.5413
  186POPC   C2721403   3.818   3.603   3.455 -0.2601  0.6813 -0.8334
  186POPC   H7R21404   3.928   3.606   3.465 -0.3979  0.4228  1.5396
  186POPC   H7S21405   3.802   3.493   3.461 -1.0354  0.8125 -0.2858
  186POPC   C2821406   3.766   3.687   3.578  0.6994  0.1756 -0.0519
  186POPC   H8R21407   3.656   3.697   3.567 -0.1264 -3.4621  2.7875
  186POPC   H8S21408   3.809   3.789   3.566  0.7028  0.1054 -0.6350
  186POPC   C2921409   3.797   3.620   3.713 -0.5302 -0.3087  0.4417
  186POPC   H9121410   3.749   3.523   3.734 -0.1414 -0.6104 -0.0569
  186POPC  C21021411   3.898   3.661   3.790 -0.0655  0.1615  0.8505
  186POPC  H10121412   3.931   3.614   3.884  1.5810 -1.4458 -0.4445
  186POPC  C21121413   3.981   3.783   3.764  0.2853 -0.3657 -1.0562
  186POPC  H11R21414   3.924   3.866   3.717 -1.2430 -1.1140 -0.5993
  186POPC  H11S21415   4.068   3.752   3.703  0.8254  0.7947 -0.9016
  186POPC  C21221416   4.031   3.856   3.895 -0.0549 -0.0280 -0.6228
  186POPC  H12R21417   4.074   3.955   3.870 -0.8038  0.2448 -0.8564
  186POPC  H12S21418   4.116   3.807   3.949 -0.3607  2.2524  2.1505
  186POPC  C21321419   3.909   3.888   3.983  0.7933 -0.1433 -0.6875
  186POPC  H13R21420   3.869   3.791   4.017  3.4842 -1.4418 -0.9516
  186POPC  H13S21421   3.836   3.941   3.918  0.7507  0.1102 -0.4316
  186POPC  C21421422   3.945   3.976   4.106 -0.1284  0.0974 -0.1673
  186POPC  H14R21423   4.008   4.062   4.075  1.2421 -0.5996  0.5709
  186POPC  H14S21424   4.009   3.909   4.166 -0.9187 -0.5048  0.0277
  186POPC  C21521425   3.821   4.018   4.189 -0.8723 -0.4225  0.2323
  186POPC  H15R21426   3.753   3.934   4.213 -0.4963 -1.1606 -1.1802
  186POPC  H15S21427   3.756   4.083   4.127  0.1562 -0.7185 -1.2188
  186POPC  C21621428   3.866   4.097   4.318  0.2704  0.1565  0.1202
  186POPC  H16R21429   3.770   4.140   4.355  0.2916 -0.5622  1.0304
  186POPC  H16S21430   3.934   4.181   4.292 -0.8660  0.6165 -1.5787
  186POPC  C21721431   3.934   4.011   4.425 -0.3293 -0.2853  0.3892
  186POPC  H17R21432   4.028   3.962   4.394  0.6625  0.6649  1.7706
  186POPC  H17S21433   3.864   3.928   4.452  0.7136 -0.9567  1.0937
  186POPC  C21821434   3.962   4.080   4.565  0.0764  0.1661 -0.4257
  186POPC  H18R21435   4.037   4.161   4.555 -0.8250  1.3671  1.7577
  186POPC  H18S21436   3.872   4.138   4.592  0.5335  3.0888 -4.3362
  186POPC  H18T21437   3.996   4.002   4.636  2.3576 -1.0339 -2.6955
  186POPC   C3321438   3.559   2.998   2.751 -0.3843  0.4369  0.5025
  186POPC   H3X21439   3.639   2.923   2.768  0.1616  1.1114  0.9558
  186POPC   H3Y21440   3.481   2.953   2.686  1.6672 -4.0788  0.8257
  186POPC   C3421441   3.483   3.011   2.879 -0.3399  0.3444 -0.3030
  186POPC   H4X21442   3.415   2.926   2.902 -0.7597  1.2144  1.9580
  186POPC   H4Y21443   3.419   3.101   2.864  1.0158  1.3399 -0.3332
  186POPC   C3521444   3.569   3.053   3.001 -0.5147  0.0559 -0.5657
  186POPC   H5X21445   3.601   3.158   2.984  3.2667 -0.9313 -0.4544
  186POPC   H5Y21446   3.660   2.990   2.991 -0.9020 -0.7276  0.6498
  186POPC   C3621447   3.494   3.030   3.132 -1.0514  0.4664 -0.2948
  186POPC   H6X21448   3.493   2.922   3.158  3.0670 -0.0105 -1.5429
  186POPC   H6Y21449   3.392   3.073   3.118 -0.9688  0.5068 -0.7701
  186POPC   C3721450   3.551   3.117   3.246 -0.4210  0.6872  0.1644
  186POPC   H7X21451   3.568   3.216   3.198 -0.2230  0.1191 -0.9575
  186POPC   H7Y21452   3.643   3.059   3.266 -1.4352 -0.5138  1.5722
  186POPC   C3821453   3.470   3.121   3.377 -0.3820  0.0450  0.6222
  186POPC   H8X21454   3.446   3.013   3.391  0.6203 -0.3665 -0.6392
  186POPC   H8Y21455   3.374   3.177   3.372  0.3205  1.4227  1.9048
  186POPC   C3921456   3.551   3.172   3.497 -0.5877 -0.4822 -0.0872
  186POPC   H9X21457   3.604   3.268   3.482  0.7103 -1.0245  0.8661
  186POPC   H9Y21458   3.629   3.096   3.517  0.1329  0.1457 -0.4820
  186POPC  C31021459   3.464   3.195   3.624 -0.0265 -0.5807  0.5490
  186POPC  H10X21460   3.437   3.102   3.677  0.8599 -0.9766  0.3286
  186POPC  H10Y21461   3.369   3.242   3.590 -0.2006 -1.7059 -0.5839
  186POPC  C31121462   3.541   3.289   3.723 -0.4005  0.4881  0.0821
  186POPC  H11X21463   3.596   3.371   3.671 -0.2733 -1.0145 -2.2815
  186POPC  H11Y21464   3.613   3.216   3.765 -2.7148 -0.2187  3.2397
  186POPC  C31221465   3.461   3.341   3.844  0.0569 -0.2603  0.3730
  186POPC  H12X21466   3.424   3.251   3.897 -0.7027  0.7994  1.7149
  186POPC  H12Y21467   3.369   3.395   3.815 -0.0899 -0.9471 -0.4793
  186POPC  C31321468   3.556   3.426   3.917 -0.1313 -0.7369  0.0470
  186POPC  H13X21469   3.594   3.514   3.861 -1.1175  0.0947  0.6384
  186POPC  H13Y21470   3.641   3.355   3.928  0.6052 -0.2265 -2.0147
  186POPC  C31421471   3.520   3.475   4.059 -0.1183 -0.5069 -0.1952
  186POPC  H14X21472   3.507   3.390   4.130  1.0334  1.8734  3.1085
  186POPC  H14Y21473   3.421   3.524   4.063 -0.2047 -0.7002  0.0784
  186POPC  C31521474   3.625   3.573   4.122  0.8808  0.1567 -0.4252
  186POPC  H15X21475   3.638   3.649   4.042  1.3967 -0.6331 -1.1000
  186POPC  H15Y21476   3.725   3.525   4.129  0.8020 -0.0451 -0.6803
  186POPC  C31621477   3.567   3.638   4.242  0.2070  0.0133 -0.2507
  186POPC  H16X21478   3.474   3.685   4.204  0.6661  2.9511  1.9078
  186POPC  H16Y21479   3.622   3.721   4.293 -1.2605  1.4667 -0.9477
  186POPC  H16Z21480   3.532   3.562   4.315 -0.8302 -0.0538 -0.8067
  187POPC     N21481   6.821   0.792   1.738  0.2672 -0.8072 -0.0079
  187POPC   C1221482   6.878   0.853   1.869  0.2181  0.2226 -0.2257
  187POPC  H12A21483   6.845   0.955   1.876  0.6019  0.3376 -0.0392
  187POPC  H12B21484   6.985   0.865   1.859  0.4709  0.1759  2.0044
  187POPC   C1321485   6.833   0.888   1.625 -0.6382  0.1510  0.7400
  187POPC  H13A21486   6.784   0.850   1.537 -0.7065 -1.6288  1.4938
  187POPC  H13B21487   6.771   0.974   1.644 -1.1650  0.3345 -1.5939
  187POPC  H13C21488   6.936   0.912   1.603 -0.3705 -1.3949  0.1523
  187POPC   C1421489   6.893   0.667   1.703  0.5372  0.4001  0.0119
  187POPC  H14A21490   6.830   0.616   1.631  1.9930 -0.6894 -0.5436
  187POPC  H14B21491   6.989   0.685   1.659  0.7072  0.8250  0.5511
  187POPC  H14C21492   6.897   0.600   1.787 -3.7614  0.8574  0.8493
  187POPC   C1521493   6.675   0.757   1.746  0.3872  0.1569  0.0246
  187POPC  H15A21494   6.621   0.839   1.791 -0.0882 -0.8141  1.2648
  187POPC  H15B21495   6.654   0.662   1.792  0.2302 -0.3821 -1.1189
  187POPC  H15C21496   6.640   0.751   1.644 -1.0065 -0.1382  0.5006
  187POPC   C1121497   6.849   0.777   2.001  0.2205 -1.1775  0.4161
  187POPC  H11A21498   6.739   0.767   2.010  0.2736 -0.6000  1.8245
  187POPC  H11B21499   6.877   0.844   2.085 -2.1693 -1.7940  1.8055
  187POPC     P21500   7.071   0.643   2.029  0.2354  0.0305 -0.0806
  187POPC   O1321501   7.138   0.748   1.941 -0.5689  0.0317 -0.1786
  187POPC   O1421502   7.104   0.498   2.001  0.2678 -0.3929 -0.0955
  187POPC   O1221503   6.910   0.650   2.005 -0.6442  0.3640  0.2118
  187POPC   O1121504   7.101   0.672   2.180 -0.1209 -1.1208  0.1499
  187POPC    C121505   7.122   0.813   2.222  0.6294  0.2086 -0.5251
  187POPC    HA21506   7.024   0.861   2.241  0.0493 -0.6515 -1.2405
  187POPC    HB21507   7.177   0.873   2.147  1.3245  0.5173  0.2169
  187POPC    C221508   7.207   0.821   2.355  0.7779  1.0544 -0.4535
  187POPC    HS21509   7.187   0.918   2.403 -0.2138 -0.3735  2.2232
  187POPC   O2121510   7.348   0.788   2.327 -0.2337  0.2556  0.3073
  187POPC   C2121511   7.422   0.893   2.317 -0.1910  0.0979  0.5158
  187POPC   O2221512   7.390   1.013   2.322  0.0224 -0.2243 -0.2815
  187POPC   C2221513   7.563   0.839   2.285 -0.3605  0.4145  0.2967
  187POPC   H2R21514   7.566   0.830   2.174 -0.7195  0.9786  0.2371
  187POPC   H2S21515   7.587   0.738   2.326  2.0749  0.3974 -0.9917
  187POPC    C321516   7.159   0.711   2.452  0.0294  0.2378  0.0819
  187POPC    HX21517   7.201   0.617   2.411  0.5635 -0.2947  1.7822
  187POPC    HY21518   7.048   0.710   2.446 -0.0734  3.0800  0.3563
  187POPC   O3121519   7.216   0.744   2.581  0.2246 -0.4328 -0.4479
  187POPC   C3121520   7.137   0.829   2.648 -0.4215  0.3650 -0.7416
  187POPC   O3221521   7.031   0.887   2.611 -0.2221 -0.3694 -0.4669
  187POPC   C3221522   7.204   0.861   2.776 -0.0374  0.0494 -0.1464
  187POPC   H2X21523   7.229   0.969   2.782 -0.0029  0.0103  0.4467
  187POPC   H2Y21524   7.298   0.802   2.777 -0.5937 -0.8586 -0.2588
  187POPC   C2321525   7.681   0.931   2.322 -0.7327 -0.1300  0.0956
  187POPC   H3R21526   7.662   1.037   2.296  1.1209  0.5465  1.2956
  187POPC   H3S21527   7.763   0.895   2.256  1.0169  0.5414  1.8190
  187POPC   C2421528   7.726   0.928   2.471 -0.6084  0.5463 -0.3079
  187POPC   H4R21529   7.813   0.997   2.478  0.0031 -0.3328  1.4378
  187POPC   H4S21530   7.740   0.825   2.510 -2.6301 -0.3441 -1.7362
  187POPC   C2521531   7.617   0.974   2.563 -0.1275 -0.0342  0.4436
  187POPC   H5R21532   7.527   0.909   2.560 -0.5683  0.5937  0.0326
  187POPC   H5S21533   7.580   1.071   2.525  1.4969  1.2527  2.0221
  187POPC   C2621534   7.648   0.991   2.713  0.7089 -0.4613  0.4365
  187POPC   H6R21535   7.568   1.054   2.758 -0.1778 -1.7118  0.6703
  187POPC   H6S21536   7.742   1.045   2.738  0.9487 -0.4533 -0.4533
  187POPC   C2721537   7.632   0.864   2.799  0.4369 -0.2672  0.4042
  187POPC   H7R21538   7.712   0.791   2.771  1.6022  1.7640 -1.9972
  187POPC   H7S21539   7.530   0.822   2.783  1.7184 -2.9164 -1.8659
  187POPC   C2821540   7.637   0.888   2.951 -0.2319 -0.5718 -0.3344
  187POPC   H8R21541   7.628   0.799   3.017  2.1646 -0.2815  0.4919
  187POPC   H8S21542   7.549   0.950   2.977  0.2225 -1.0841  2.8136
  187POPC   C2921543   7.757   0.968   2.992 -0.4675  0.5344 -0.1704
  187POPC   H9121544   7.850   0.948   2.937  1.0409  2.8081  1.3708
  187POPC  C21021545   7.772   1.039   3.107  0.6242  0.5165  0.4139
  187POPC  H10121546   7.864   1.096   3.126  1.1986 -0.3889  0.3778
  187POPC  C21121547   7.661   1.066   3.215 -0.9890 -0.0090  0.8775
  187POPC  H11R21548   7.562   1.055   3.167 -1.5960 -2.0373  2.4627
  187POPC  H11S21549   7.672   1.175   3.233  0.7065  0.3989 -1.9153
  187POPC  C21221550   7.653   0.975   3.341  0.8148  0.1484 -0.0212
  187POPC  H12R21551   7.671   0.871   3.307 -2.2683 -0.0317 -1.4307
  187POPC  H12S21552   7.553   0.980   3.388  0.4280  2.4365 -0.9772
  187POPC  C21321553   7.758   1.015   3.441 -0.6847 -0.2936 -0.0509
  187POPC  H13R21554   7.858   1.017   3.392 -0.3327 -0.2187  0.6584
  187POPC  H13S21555   7.771   0.932   3.513  0.1047 -1.9813 -2.0306
  187POPC  C21421556   7.727   1.147   3.514 -0.1550  0.2425  0.2707
  187POPC  H14R21557   7.618   1.144   3.537 -0.4493  2.0097 -0.6971
  187POPC  H14S21558   7.741   1.244   3.461  0.2592  1.2778  2.2014
  187POPC  C21521559   7.828   1.186   3.627 -0.3988 -0.1635  0.0365
  187POPC  H15R21560   7.800   1.287   3.662  1.2610 -0.2089  1.6938
  187POPC  H15S21561   7.924   1.198   3.574  1.2360 -0.5011  2.7052
  187POPC  C21621562   7.863   1.086   3.727  0.4664  0.8534 -0.4179
  187POPC  H16R21563   7.913   0.993   3.692 -0.3104  1.0405 -2.1292
  187POPC  H16S21564   7.767   1.056   3.774  0.6816  0.9731  0.1051
  187POPC  C21721565   7.950   1.128   3.852  0.6969  0.3491  0.0814
  187POPC  H17R21566   7.897   1.199   3.919 -0.4021  2.0090 -2.3739
  187POPC  H17S21567   8.033   1.193   3.818  0.8434 -0.2324 -0.6966
  187POPC  C21821568   8.005   1.010   3.936  0.0362  0.0648 -0.0599
  187POPC  H18R21569   8.083   1.043   4.009  0.9978  0.9043 -1.4292
  187POPC  H18S21570   8.053   0.937   3.867 -0.5880 -0.0718 -0.3498
  187POPC  H18T21571   7.928   0.951   3.991  1.8518 -2.2119  0.2162
  187POPC   C3321572   7.116   0.827   2.888  0.1188 -0.0561 -0.3751
  187POPC   H3X21573   7.099   0.717   2.894  1.1222 -0.1674  3.7615
  187POPC   H3Y21574   7.017   0.877   2.878  0.6203  1.5909  1.8861
  187POPC   C3421575   7.176   0.866   3.025  0.0116 -0.4446 -1.2630
  187POPC   H4X21576   7.191   0.976   3.031  0.6017 -0.5940  0.8314
  187POPC   H4Y21577   7.277   0.818   3.035  0.5183  0.8030 -0.0457
  187POPC   C3521578   7.090   0.819   3.142  0.2460 -0.7174  0.6618
  187POPC   H5X21579   7.082   0.710   3.123  0.0560 -0.6994  0.6311
  187POPC   H5Y21580   6.989   0.866   3.133  0.0868 -0.6633  2.4386
  187POPC   C3621581   7.151   0.835   3.281  0.2287 -0.0161  0.4664
  187POPC   H6X21582   7.183   0.937   3.310  0.7808 -0.8080  2.9092
  187POPC   H6Y21583   7.244   0.774   3.282 -1.1325 -2.1889  2.2287
  187POPC   C3721584   7.058   0.795   3.391 -0.1057  0.3302  0.1629
  187POPC   H7X21585   7.042   0.689   3.361  3.1926  0.6667 -3.4986
  187POPC   H7Y21586   6.956   0.839   3.382 -0.2869 -0.3595 -1.6746
  187POPC   C3821587   7.121   0.807   3.528 -0.6371  0.1950  0.0355
  187POPC   H8X21588   7.057   0.752   3.601  0.6327 -1.0457  0.2749
  187POPC   H8Y21589   7.123   0.914   3.557  2.8657  0.0986  0.5760
  187POPC   C3921590   7.269   0.758   3.536 -0.5905 -0.3005 -0.0749
  187POPC   H9X21591   7.341   0.827   3.488  1.1559 -2.0978 -0.1866
  187POPC   H9Y21592   7.301   0.664   3.486  0.7049  0.9679 -1.7301
  187POPC  C31021593   7.312   0.775   3.686  0.7154 -0.1914  0.5688
  187POPC  H10X21594   7.232   0.733   3.751  0.6028 -3.6769 -1.5208
  187POPC  H10Y21595   7.316   0.881   3.716  0.3495  0.0981 -0.3673
  187POPC  C31121596   7.446   0.706   3.719  0.5381 -0.0934  0.1053
  187POPC  H11X21597   7.526   0.771   3.676 -1.9752  1.7582 -2.1024
  187POPC  H11Y21598   7.441   0.611   3.661 -0.2599 -1.0591  1.7043
  187POPC  C31221599   7.443   0.664   3.868 -0.5613  0.9185  0.1143
  187POPC  H12X21600   7.534   0.600   3.866  0.1679  1.9281 -1.5829
  187POPC  H12Y21601   7.359   0.597   3.895 -0.3468  1.3680  2.0869
  187POPC  C31321602   7.467   0.785   3.968 -0.8155  0.4977  0.0292
  187POPC  H13X21603   7.373   0.843   3.957 -2.0885 -1.1308  1.6889
  187POPC  H13Y21604   7.564   0.838   3.953 -1.5981  1.7520 -0.7716
  187POPC  C31421605   7.463   0.739   4.114 -0.0289  0.1609 -0.2828
  187POPC  H14X21606   7.363   0.696   4.138 -0.5913  1.1457 -0.7875
  187POPC  H14Y21607   7.466   0.823   4.187 -0.9809 -1.6211  1.9264
  187POPC  C31521608   7.580   0.642   4.148  0.7976 -0.2843  0.4455
  187POPC  H15X21609   7.680   0.689   4.144  0.9239 -0.4191  1.5932
  187POPC  H15Y21610   7.577   0.565   4.068  0.5351  0.1252  0.0551
  187POPC  C31621611   7.560   0.566   4.280  0.0803 -0.5994  0.6501
  187POPC  H16X21612   7.641   0.499   4.317  0.3447 -0.3729  0.4941
  187POPC  H16Y21613   7.461   0.517   4.275  0.0524 -0.5287  0.4932
  187POPC  H16Z21614   7.548   0.648   4.354  1.4570  0.8239 -0.6128
  188POPC     N21615   4.307   3.308   2.495 -0.1429 -0.6553 -0.5131
  188POPC   C1221616   4.253   3.169   2.517  0.0636  0.2271 -0.0117
  188POPC  H12A21617   4.146   3.173   2.521  0.0698 -0.2253  2.8247
  188POPC  H12B21618   4.280   3.135   2.616 -2.0001 -1.1490  0.1311
  188POPC   C1321619   4.240   3.368   2.375  0.4299  1.0624 -0.0452
  188POPC  H13A21620   4.134   3.384   2.392  0.2681 -0.9497  1.1928
  188POPC  H13B21621   4.277   3.467   2.354  0.9549  0.8252 -0.2657
  188POPC  H13C21622   4.240   3.303   2.288  0.2455 -1.0712  1.4784
  188POPC   C1421623   4.280   3.397   2.603  0.6344  0.0208  0.0975
  188POPC  H14A21624   4.173   3.413   2.605  0.3982 -1.3717 -0.3837
  188POPC  H14B21625   4.326   3.358   2.692 -0.0770  0.9044  0.8820
  188POPC  H14C21626   4.318   3.493   2.570 -0.8741  1.5189  2.4257
  188POPC   C1521627   4.453   3.308   2.468  0.3826 -0.0108  1.2940
  188POPC  H15A21628   4.516   3.255   2.538 -0.8251 -0.3208  2.2010
  188POPC  H15B21629   4.489   3.404   2.436  3.0453 -1.3615 -0.1342
  188POPC  H15C21630   4.464   3.250   2.378 -2.6121 -1.3460  1.6656
  188POPC   C1121631   4.303   3.056   2.432 -1.1861 -0.3593  0.6412
  188POPC  H11A21632   4.242   2.969   2.465 -1.7950  0.3728  1.4897
  188POPC  H11B21633   4.411   3.031   2.444 -1.0688  0.4279  1.3075
  188POPC     P21634   4.164   3.050   2.205 -0.1379 -0.0576  0.0003
  188POPC   O1321635   4.210   2.978   2.088  0.2101  0.2816  0.3340
  188POPC   O1421636   4.087   3.171   2.181  0.1521 -0.4090  0.6423
  188POPC   O1221637   4.288   3.083   2.299  0.1870 -0.5227  0.8290
  188POPC   O1121638   4.076   2.965   2.290  0.9191  0.3855  0.0941
  188POPC    C121639   3.960   2.896   2.243 -0.0948  0.4500  0.5715
  188POPC    HA21640   3.983   2.838   2.151 -0.0632  0.9945  0.2363
  188POPC    HB21641   3.885   2.971   2.211  0.0847  0.2976 -0.2351
  188POPC    C221642   3.905   2.783   2.337 -0.4225  0.7797  0.4715
  188POPC    HS21643   3.794   2.787   2.335 -0.4928 -0.8420 -0.6552
  188POPC   O2121644   3.953   2.792   2.475 -0.2341  0.0088  0.1022
  188POPC   C2121645   3.927   2.912   2.533 -0.7807 -0.1352  0.7516
  188POPC   O2221646   3.857   2.998   2.479 -0.3072 -0.0404  0.4850
  188POPC   C2221647   3.986   2.917   2.678 -0.1257  0.0757 -0.0584
  188POPC   H2R21648   4.074   2.850   2.687  0.0126  0.3067  0.3409
  188POPC   H2S21649   3.902   2.878   2.740  0.4782 -1.0560  0.0679
  188POPC    C321650   3.934   2.644   2.285 -0.5643  0.2499  0.3612
  188POPC    HX21651   4.042   2.618   2.274 -0.9815 -2.0288  1.0836
  188POPC    HY21652   3.901   2.643   2.179  0.0003 -0.2898  0.1798
  188POPC   O3121653   3.872   2.545   2.375 -0.4966 -0.2912 -0.3266
  188POPC   C3121654   3.868   2.420   2.331 -1.0654 -0.1861 -0.6014
  188POPC   O3221655   3.894   2.378   2.220 -0.1251  0.0595  0.0968
  188POPC   C3221656   3.805   2.331   2.439  0.2104 -0.5094 -0.4188
  188POPC   H2X21657   3.701   2.326   2.399  0.8023  2.3755 -2.6957
  188POPC   H2Y21658   3.805   2.388   2.534  0.8600 -1.2284  0.0156
  188POPC   C2321659   4.009   3.056   2.735  0.1028 -0.0290 -0.4752
  188POPC   H3R21660   3.948   3.123   2.671 -0.8446  1.9647  2.3048
  188POPC   H3S21661   4.112   3.092   2.716 -0.0579  0.2076 -0.9157
  188POPC   C2421662   3.980   3.067   2.882  0.2333  0.0980 -0.2176
  188POPC   H4R21663   4.062   3.025   2.944 -1.5630 -1.3559  1.2475
  188POPC   H4S21664   3.885   3.016   2.909 -1.0149  2.1793 -0.4489
  188POPC   C2521665   3.961   3.211   2.929 -0.3599 -0.5021 -0.4839
  188POPC   H5R21666   3.877   3.244   2.864 -0.2450 -0.1763 -0.4657
  188POPC   H5S21667   4.050   3.274   2.909  0.7623 -1.5823  0.9238
  188POPC   C2621668   3.932   3.238   3.075 -0.7717  0.4684 -0.0765
  188POPC   H6R21669   3.838   3.183   3.095  0.1534 -2.2520 -2.4487
  188POPC   H6S21670   3.913   3.347   3.074 -0.4585  0.5251 -0.4364
  188POPC   C2721671   4.046   3.222   3.179 -0.2981  0.6013  0.7625
  188POPC   H7R21672   4.125   3.295   3.151 -1.4295  0.6259 -2.8187
  188POPC   H7S21673   4.092   3.121   3.171  0.3590  0.8451  1.3705
  188POPC   C2821674   4.010   3.247   3.328 -0.1433  0.3457 -0.0694
  188POPC   H8R21675   3.996   3.356   3.345  0.4835  0.4439 -0.1696
  188POPC   H8S21676   4.090   3.224   3.401  1.0789  0.6739 -1.2702
  188POPC   C2921677   3.890   3.164   3.373 -0.1418  0.1543  0.2850
  188POPC   H9121678   3.795   3.218   3.379 -0.8329 -0.7470 -1.5723
  188POPC  C21021679   3.884   3.030   3.404  0.2023 -0.0198  0.4012
  188POPC  H10121680   3.781   2.993   3.418 -1.4882  2.8291 -2.9531
  188POPC  C21121681   3.993   2.928   3.405  0.2586 -0.1096 -0.0019
  188POPC  H11R21682   4.088   2.981   3.384  0.0657  0.3794  0.3618
  188POPC  H11S21683   3.977   2.853   3.324  0.4838 -0.4513  0.2627
  188POPC  C21221684   4.002   2.864   3.546 -0.0203  0.0427 -0.0890
  188POPC  H12R21685   4.093   2.801   3.555 -1.1765 -1.5063  1.6792
  188POPC  H12S21686   3.909   2.803   3.557 -0.8670  1.0504 -1.3402
  188POPC  C21321687   4.024   2.980   3.652 -0.0584  0.5180  0.0204
  188POPC  H13R21688   3.929   3.036   3.664  1.1614  2.6815  0.0824
  188POPC  H13S21689   4.096   3.056   3.615  1.5392  0.0869  2.0306
  188POPC  C21421690   4.066   2.918   3.782 -0.3642 -0.9374  0.0351
  188POPC  H14R21691   4.161   2.865   3.761  0.5501  0.1949  1.1779
  188POPC  H14S21692   3.992   2.843   3.816  0.9451 -2.4677 -0.4139
  188POPC  C21521693   4.090   3.020   3.890  0.0145 -0.0599  0.2089
  188POPC  H15R21694   4.155   3.098   3.845  0.2496  0.2792  1.1067
  188POPC  H15S21695   4.140   2.972   3.978  4.0167 -1.0186 -2.3312
  188POPC  C21621696   3.967   3.094   3.945  0.3602 -0.0057 -0.2451
  188POPC  H16R21697   3.895   3.029   4.000  0.5169  0.6895  0.8140
  188POPC  H16S21698   3.906   3.137   3.863 -0.0447 -0.5836 -0.2496
  188POPC  C21721699   4.009   3.213   4.033 -0.0795 -0.5170 -0.2308
  188POPC  H17R21700   4.085   3.267   3.973  1.2878 -1.1256  0.8963
  188POPC  H17S21701   4.056   3.163   4.120 -1.0392  0.7312  1.0494
  188POPC  C21821702   3.904   3.312   4.081  0.3642  0.2860  0.0628
  188POPC  H18R21703   3.824   3.257   4.135  0.5066 -0.1378 -0.1605
  188POPC  H18S21704   3.857   3.373   4.001  0.5241  1.2312  0.6633
  188POPC  H18T21705   3.946   3.377   4.161  1.1623  0.7851 -0.7456
  188POPC   C3321706   3.842   2.185   2.457  0.0074  0.2749 -0.6691
  188POPC   H3X21707   3.953   2.181   2.450  0.0765 -2.7142  0.5246
  188POPC   H3Y21708   3.807   2.114   2.379 -0.8696 -0.2102  0.1485
  188POPC   C3421709   3.807   2.120   2.594  0.9284 -0.5347  0.5990
  188POPC   H4X21710   3.845   2.016   2.587  1.3215 -0.2906 -1.3917
  188POPC   H4Y21711   3.696   2.128   2.601  0.5206  0.9274 -4.0417
  188POPC   C3521712   3.850   2.187   2.725 -0.0613 -0.0350  0.4626
  188POPC   H5X21713   3.808   2.291   2.722 -0.6736 -0.2936 -1.5301
  188POPC   H5Y21714   3.960   2.190   2.735 -0.0675 -0.7221  0.8091
  188POPC   C3621715   3.794   2.126   2.847 -0.1287 -0.4987  0.5459
  188POPC   H6X21716   3.818   2.018   2.851 -0.7306 -0.6740 -0.3531
  188POPC   H6Y21717   3.683   2.134   2.840  0.0843  0.6756 -3.6271
  188POPC   C3721718   3.835   2.194   2.979 -0.5703  0.1000 -0.8559
  188POPC   H7X21719   3.824   2.305   2.987  0.8235  0.1701  0.4247
  188POPC   H7Y21720   3.946   2.188   2.976 -0.6001 -2.2518  0.7050
  188POPC   C3821721   3.778   2.122   3.102  1.3852 -0.7916  0.1918
  188POPC   H8X21722   3.768   2.013   3.083 -0.4488 -0.9905  2.0408
  188POPC   H8Y21723   3.670   2.145   3.107  1.3375 -0.7455 -0.8525
  188POPC   C3921724   3.854   2.146   3.236 -0.2323 -0.3478  0.0641
  188POPC   H9X21725   3.871   2.256   3.236 -0.1273 -0.3413 -1.6024
  188POPC   H9Y21726   3.953   2.097   3.233 -0.0823 -0.0108 -1.0487
  188POPC  C31021727   3.792   2.104   3.371 -0.0500  0.0794  0.0816
  188POPC  H10X21728   3.794   1.993   3.367  0.7772  0.1025 -2.4098
  188POPC  H10Y21729   3.687   2.137   3.381  0.1649  0.3705  1.6883
  188POPC  C31121730   3.871   2.163   3.492 -0.0074  0.3455  0.6604
  188POPC  H11X21731   3.891   2.272   3.483  2.1280  0.0851  1.4908
  188POPC  H11Y21732   3.970   2.119   3.468 -1.9853 -2.9217 -2.4218
  188POPC  C31221733   3.819   2.115   3.632 -0.3125 -0.7376  0.3920
  188POPC  H12X21734   3.821   2.004   3.637 -2.6996 -0.9611 -1.9088
  188POPC  H12Y21735   3.712   2.138   3.649 -1.0195 -2.3471 -1.4988
  188POPC  C31321736   3.893   2.169   3.750 -0.7451  0.2327  0.3435
  188POPC  H13X21737   3.857   2.274   3.765 -0.9242 -0.1482  3.2724
  188POPC  H13Y21738   4.002   2.175   3.730 -0.4686 -0.4509  1.5631
  188POPC  C31421739   3.856   2.105   3.890 -0.8367  0.2692 -0.0857
  188POPC  H14X21740   3.954   2.094   3.941  0.1993  0.2005 -1.9885
  188POPC  H14Y21741   3.817   2.004   3.868  2.8371 -0.8091 -2.5613
  188POPC  C31521742   3.762   2.183   3.973  0.7915 -0.5160 -0.5034
  188POPC  H15X21743   3.806   2.285   3.984  0.1191 -0.4980  3.6543
  188POPC  H15Y21744   3.779   2.145   4.076  1.2723  0.8121 -0.0706
  188POPC  C31621745   3.614   2.200   3.934  0.2030  0.0898  0.1297
  188POPC  H16X21746   3.560   2.105   3.912  2.5301 -1.2539 -0.0780
  188POPC  H16Y21747   3.595   2.259   3.842 -1.3674 -0.8611 -0.1910
  188POPC  H16Z21748   3.560   2.250   4.018 -0.3352  1.0403 -0.7599
  189SAPI   C1221749   0.470   6.632   6.612 -0.1453 -0.1473  0.3264
  189SAPI    H221750   0.415   6.588   6.526 -1.9459  3.1469 -0.3987
  189SAPI    O221751   0.608   6.651   6.570 -0.0980  0.4222 -0.4798
  189SAPI   HO221752   0.635   6.734   6.531 -0.5174  0.6997 -0.1892
  189SAPI   C1321753   0.393   6.760   6.631 -0.5049 -0.3209 -0.4555
  189SAPI    H321754   0.292   6.740   6.673 -0.3124  1.5915  1.0258
  189SAPI    O321755   0.372   6.831   6.511 -0.1559  0.0805  0.2104
  189SAPI   HO321756   0.459   6.853   6.477  1.4826 -1.9822  2.7469
  189SAPI   C1421757   0.463   6.844   6.737  0.4771 -0.3295 -0.1703
  189SAPI    H421758   0.558   6.886   6.695 -0.6964 -0.3493 -3.1069
  189SAPI    O421759   0.388   6.966   6.768  0.1601  0.3133 -0.2095
  189SAPI   HO421760   0.424   7.027   6.702  3.0413 -1.3788 -0.4060
  189SAPI   C1521761   0.499   6.769   6.865  0.2974 -0.3832  0.2331
  189SAPI    H521762   0.405   6.770   6.923 -0.0992  2.3058 -0.3426
  189SAPI    O521763   0.597   6.846   6.933  0.1439  0.1838  0.8743
  189SAPI   HO521764   0.554   6.897   7.002 -2.5561 -1.5533  0.6111
  189SAPI   C1621765   0.536   6.626   6.848 -0.3821  0.1122 -0.7096
  189SAPI    H621766   0.642   6.618   6.815 -0.5161 -2.6821 -0.6818
  189SAPI    O621767   0.532   6.562   6.975  0.2374  0.4426  0.0187
  189SAPI   HO621768   0.566   6.472   6.966 -0.5625 -0.0787  1.7196
  189SAPI   C1121769   0.459   6.548   6.737 -0.0626  0.8643 -0.6330
  189SAPI    H121770   0.359   6.543   6.785  0.9029  2.3509  1.7601
  189SAPI     P21771   0.428   6.282   6.664 -0.1621  0.4040 -0.3697
  189SAPI   O1321772   0.283   6.320   6.670  0.2471  0.5131 -0.1814
  189SAPI   O1421773   0.478   6.165   6.740 -0.1393 -0.2487  0.2439
  189SAPI   O1221774   0.518   6.416   6.713 -0.6539  0.7175  0.0449
  189SAPI   O1121775   0.474   6.274   6.513  0.2843 -0.0095  0.6615
  189SAPI    C121776   0.593   6.208   6.466 -0.2351  0.0236 -0.0678
  189SAPI    HA21777   0.675   6.264   6.515  0.6447 -0.0821 -1.3759
  189SAPI    HB21778   0.604   6.102   6.498 -0.1156 -0.8641 -2.7715
  189SAPI    C221779   0.615   6.196   6.313 -0.2013 -0.1419  0.0924
  189SAPI    HS21780   0.722   6.172   6.302  0.1144  0.4823  1.5114
  189SAPI   O2121781   0.587   6.321   6.250 -0.2147  0.6545 -0.6443
  189SAPI   C2121782   0.671   6.413   6.274 -0.4565  0.1957 -0.2664
  189SAPI   O2221783   0.781   6.405   6.331  0.6563  0.8035  0.3772
  189SAPI   C2221784   0.618   6.532   6.201 -0.1330 -0.2803  0.7231
  189SAPI   H2R21785   0.578   6.490   6.106  0.4166 -1.0259  0.8133
  189SAPI   H2S21786   0.526   6.572   6.249 -1.2612  2.9971 -3.5343
  189SAPI    C321787   0.528   6.081   6.248  0.7506  1.2698  0.9117
  189SAPI    HX21788   0.419   6.089   6.268  0.8995  0.2029  2.3683
  189SAPI    HY21789   0.548   5.988   6.306 -0.6331  0.2652 -0.1721
  189SAPI   O3121790   0.542   6.069   6.104 -0.8804  0.0242 -0.8311
  189SAPI   C3121791   0.655   6.012   6.063  0.5976  0.6567 -0.0970
  189SAPI   O3221792   0.739   5.969   6.141  0.3755  0.2547 -0.6453
  189SAPI   C3221793   0.656   6.008   5.908  0.1662 -0.4258  0.4511
  189SAPI   H2X21794   0.648   6.112   5.871 -1.3593  0.4437  2.9916
  189SAPI   H2Y21795   0.560   5.961   5.875 -0.5930  2.2035 -1.4422
  189SAPI   C2321796   0.720   6.649   6.203  0.3132 -0.0857 -0.5814
  189SAPI   H3R21797   0.797   6.647   6.283  1.3482  0.0663 -1.5571
  189SAPI   H3S21798   0.659   6.742   6.208 -0.1627 -0.4618  1.1468
  189SAPI   C2421799   0.799   6.656   6.074  0.0445  0.3130  0.5008
  189SAPI   H4R21800   0.840   6.555   6.056 -0.8667  0.3579 -2.1857
  189SAPI   H4S21801   0.884   6.727   6.065 -0.1964  0.7488  1.5214
  189SAPI   C2521802   0.708   6.685   5.959  0.5788 -0.0243 -0.4382
  189SAPI   H5R21803   0.602   6.671   5.983 -0.2172  1.2817 -2.8435
  189SAPI   C2621804   0.747   6.733   5.841  0.1295 -0.4063 -0.0877
  189SAPI   H6R21805   0.666   6.760   5.772  0.1923  0.6944  0.2521
  189SAPI   C2721806   0.893   6.757   5.794  0.8536  0.9514 -1.1506
  189SAPI   H7R21807   0.900   6.679   5.715  0.1388 -0.9979  0.5957
  189SAPI   H7S21808   0.967   6.718   5.867  0.1645 -2.1799 -1.9788
  189SAPI   C2821809   0.918   6.893   5.747 -0.4861 -0.7130 -0.0939
  189SAPI   H8R21810   0.953   6.963   5.824  0.7167 -0.2737 -1.0027
  189SAPI   C2921811   0.918   6.943   5.621  0.9594  0.1243 -0.2594
  189SAPI   H9R21812   0.948   7.046   5.597  0.4065  0.2659 -0.3379
  189SAPI  C21021813   0.862   6.864   5.504  0.5956  0.0424  0.0593
  189SAPI  H10R21814   0.773   6.802   5.531  0.1306  0.7360  0.1692
  189SAPI  H10S21815   0.928   6.787   5.461  0.0725 -0.3155 -0.1157
  189SAPI  C21121816   0.804   6.957   5.403 -0.2704  0.1100  0.6694
  189SAPI  H11R21817   0.722   7.023   5.436  0.5515  1.3405  0.3336
  189SAPI  C21221818   0.826   6.951   5.265  0.3010 -0.7693  0.1868
  189SAPI  H12R21819   0.767   7.017   5.199  0.7968 -3.5443 -3.3279
  189SAPI  C21321820   0.910   6.857   5.187  0.0783  1.0288  0.2316
  189SAPI  H13R21821   0.863   6.823   5.093 -0.2251  0.8239  0.4542
  189SAPI  H13S21822   0.915   6.763   5.246 -0.7562  1.3748  0.8753
  189SAPI  C21421823   1.044   6.922   5.152  0.4263  0.3768  0.1263
  189SAPI  H14R21824   1.093   6.993   5.219  0.5735  0.8678 -0.4964
  189SAPI  C21521825   1.084   6.936   5.021  0.1753  0.5947 -0.5881
  189SAPI  H15R21826   1.165   7.006   4.995  2.3001 -0.4072  2.7276
  189SAPI  C21621827   1.036   6.849   4.906  0.3644 -0.2967  0.4799
  189SAPI  H16R21828   1.009   6.745   4.932  0.1328 -0.3336  0.1088
  189SAPI  H16S21829   1.114   6.839   4.828 -2.3039  0.9801 -2.5890
  189SAPI  C21721830   0.904   6.912   4.833  0.5852  0.1045 -0.0298
  189SAPI  H17R21831   0.846   6.965   4.912  0.9490 -1.8811  1.6854
  189SAPI  H17S21832   0.843   6.826   4.800  1.0110  0.5943 -2.2605
  189SAPI  C21821833   0.943   7.001   4.717 -0.7510 -0.1835  0.0966
  189SAPI  H18R21834   0.988   6.923   4.653  0.0523  1.1095 -0.9650
  189SAPI  H18S21835   1.035   7.056   4.747  1.4751 -2.1326 -2.6306
  189SAPI  C21921836   0.837   7.076   4.646  0.1003 -0.6159 -0.2448
  189SAPI  H19R21837   0.819   7.161   4.716  0.0252  0.8323 -1.9565
  189SAPI  H19S21838   0.751   7.014   4.613  0.2491 -0.3656 -1.1297
  189SAPI  C22021839   0.887   7.141   4.516 -0.0597  0.3828 -0.1715
  189SAPI  H20R21840   0.822   7.223   4.479  0.0439  1.1394  1.2258
  189SAPI  H20S21841   0.887   7.064   4.436  0.2280 -1.3907  1.4450
  189SAPI  H20T21842   0.989   7.183   4.534 -0.4841  1.6197 -0.5537
  189SAPI   C3321843   0.769   5.927   5.835  0.4295 -0.3144 -0.2422
  189SAPI   H3X21844   0.792   5.839   5.899 -3.3381 -1.1391  0.2197
  189SAPI   H3Y21845   0.854   5.998   5.828  1.7127 -1.8899 -1.3112
  189SAPI   C3421846   0.726   5.878   5.694 -1.1407 -0.0412  0.2404
  189SAPI   H4X21847   0.628   5.827   5.694 -1.5839  0.7732  1.5274
  189SAPI   H4Y21848   0.804   5.803   5.667 -0.6993  0.3849  0.3316
  189SAPI   C3521849   0.715   5.980   5.578 -0.0956 -0.5597  0.0389
  189SAPI   H5X21850   0.807   6.042   5.587 -2.1403  3.0783 -1.9083
  189SAPI   H5Y21851   0.633   6.050   5.604  2.0093  1.0504  2.9316
  189SAPI   C3621852   0.705   5.923   5.441  0.6959  0.6170 -0.1117
  189SAPI   H6X21853   0.620   5.853   5.440  0.6470  0.6640  0.5038
  189SAPI   H6Y21854   0.802   5.870   5.427  1.4472  1.3004  2.0255
  189SAPI   C3721855   0.696   6.046   5.346  0.0215  0.9557  0.1982
  189SAPI   H7X21856   0.785   6.109   5.364  0.3820  0.4846  0.1057
  189SAPI   H7Y21857   0.607   6.108   5.368 -0.3574  1.0704 -1.5168
  189SAPI   C3821858   0.693   5.995   5.193 -0.1515  0.1881 -0.3982
  189SAPI   H8X21859   0.586   5.969   5.174 -0.2772 -0.1229  0.7015
  189SAPI   H8Y21860   0.758   5.905   5.184 -0.6571 -0.7976  3.8151
  189SAPI   C3921861   0.744   6.098   5.091 -0.5611  0.9831  0.2473
  189SAPI   H9X21862   0.855   6.101   5.090 -0.4841 -0.8269 -0.3178
  189SAPI   H9Y21863   0.692   6.191   5.119 -1.2585  0.0306  2.3305
  189SAPI  C31021864   0.701   6.042   4.953 -0.1213  0.2628 -0.3434
  189SAPI  H10X21865   0.747   5.941   4.948  0.1092  0.3591 -0.2246
  189SAPI  H10Y21866   0.755   6.104   4.878  0.5780  2.6720  2.0096
  189SAPI  C31121867   0.551   6.044   4.915 -0.1322 -0.0747 -0.6220
  189SAPI  H11X21868   0.492   6.112   4.980  0.3481 -0.2885  0.0416
  189SAPI  H11Y21869   0.512   5.940   4.922 -2.4485  0.8421  1.4670
  189SAPI  C31221870   0.522   6.088   4.769  0.5029 -0.1219  0.3663
  189SAPI  H12X21871   0.595   6.042   4.699  0.0115 -0.7028  0.2263
  189SAPI  H12Y21872   0.539   6.197   4.762 -0.9126  0.3162  2.7399
  189SAPI  C31321873   0.383   6.054   4.718 -0.8280 -0.0742  0.0962
  189SAPI  H13X21874   0.305   6.113   4.772 -0.1018  1.4232 -0.4526
  189SAPI  H13Y21875   0.354   5.950   4.746  0.8306 -0.7142 -0.4221
  189SAPI  C31421876   0.380   6.090   4.567 -0.8498 -0.2987  0.1153
  189SAPI  H14X21877   0.346   6.001   4.509 -2.2491  1.0623 -1.2489
  189SAPI  H14Y21878   0.485   6.114   4.537 -0.9706 -0.5209 -0.5012
  189SAPI  C31521879   0.295   6.212   4.531  0.4882 -0.6428 -0.2492
  189SAPI  H15X21880   0.321   6.292   4.603  0.8066 -1.8003  0.9758
  189SAPI  H15Y21881   0.187   6.187   4.547 -0.0188 -1.3456 -3.8898
  189SAPI  C31621882   0.298   6.253   4.386  0.7430  0.6626  0.0426
  189SAPI  H16X21883   0.251   6.170   4.329 -1.0770 -0.4190  2.8816
  189SAPI  H16Y21884   0.396   6.272   4.338 -0.1414  0.4498 -1.9612
  189SAPI  C31721885   0.193   6.369   4.361 -0.4213 -0.7677 -0.0597
  189SAPI  H17X21886   0.226   6.462   4.412  0.4493 -1.5346  0.8385
  189SAPI  H17Y21887   0.097   6.339   4.409 -1.3260  0.5900 -0.9476
  189SAPI  C31821888   0.179   6.398   4.216 -0.1716 -0.4210 -0.1106
  189SAPI  H18X21889   0.170   6.307   4.154  1.7600 -0.5378 -0.2562
  189SAPI  H18Y21890   0.276   6.442   4.185 -0.2364 -1.1179 -1.3755
  189SAPI  H18Z21891   0.101   6.477   4.208  0.3187  0.3816  2.1119
  190SAPI   C1221892   1.787   4.432   6.461  0.9890  0.7942  0.0375
  190SAPI    H221893   1.791   4.443   6.351 -2.3171  0.6209 -0.1969
  190SAPI    O221894   1.798   4.293   6.480 -0.2444 -0.6184  0.0045
  190SAPI   HO221895   1.830   4.258   6.396 -0.3021  0.1127 -0.3339
  190SAPI   C1321896   1.894   4.513   6.531 -0.3075  0.4405  0.2199
  190SAPI    H321897   1.876   4.619   6.500 -0.6762  1.1284  2.5832
  190SAPI    O321898   2.029   4.470   6.494 -0.3014  0.0900 -0.3536
  190SAPI   HO321899   2.032   4.471   6.398 -0.0863 -0.0632 -0.3480
  190SAPI   C1421900   1.883   4.506   6.677  0.1361  0.3921  0.3149
  190SAPI    H421901   1.920   4.403   6.698  0.9097  0.7625  0.7745
  190SAPI    O421902   1.974   4.586   6.750 -0.0787  0.0199 -0.1260
  190SAPI   HO421903   2.051   4.533   6.770 -1.4127 -1.8193  0.4989
  190SAPI   C1521904   1.736   4.503   6.740 -0.7486  0.7130  0.4187
  190SAPI    H521905   1.731   4.605   6.783  4.5257  1.1236  0.6742
  190SAPI    O521906   1.732   4.412   6.857  0.6503 -0.1064 -0.3144
  190SAPI   HO521907   1.757   4.322   6.834 -0.8704 -1.1267  1.6922
  190SAPI   C1621908   1.619   4.480   6.647 -0.2167  0.2209  0.6218
  190SAPI    H621909   1.578   4.378   6.662 -0.3665  0.1482 -0.2158
  190SAPI    O621910   1.507   4.552   6.681 -0.1224 -0.0799 -0.0106
  190SAPI   HO621911   1.443   4.573   6.612  0.5802  2.8594  0.0906
  190SAPI   C1121912   1.649   4.492   6.493 -0.5705  0.0422  0.0359
  190SAPI    H121913   1.653   4.600   6.470  1.5626 -0.3826 -1.9531
  190SAPI     P21914   1.399   4.480   6.366 -0.5509 -0.2467  0.2138
  190SAPI   O1321915   1.354   4.584   6.457  0.1829 -0.5736  0.3649
  190SAPI   O1421916   1.312   4.366   6.325  0.1403  0.3099  0.6819
  190SAPI   O1221917   1.549   4.414   6.415 -0.7457  0.2674 -0.8025
  190SAPI   O1121918   1.463   4.550   6.238  0.1906 -0.3363  0.9223
  190SAPI    C121919   1.380   4.641   6.163  0.0616  0.7863 -0.3629
  190SAPI    HA21920   1.322   4.710   6.228 -0.8509  0.6632 -1.0397
  190SAPI    HB21921   1.442   4.709   6.101 -1.0992 -0.1355 -2.6223
  190SAPI    C221922   1.303   4.573   6.048  0.2603 -0.1064  0.1276
  190SAPI    HS21923   1.223   4.515   6.099  1.4885 -0.6250  1.5527
  190SAPI   O2121924   1.393   4.491   5.978  0.4266  0.1730 -0.1137
  190SAPI   C2121925   1.336   4.390   5.916  0.1776  0.0484 -0.6096
  190SAPI   O2221926   1.214   4.377   5.903 -0.3270  0.1580 -0.2230
  190SAPI   C2221927   1.440   4.302   5.854  0.2056  0.0122 -0.1657
  190SAPI   H2R21928   1.533   4.362   5.841  0.2207  0.2172  0.8128
  190SAPI   H2S21929   1.473   4.214   5.914 -1.3525 -0.3577  0.1767
  190SAPI    C321930   1.242   4.676   5.952  0.6442  0.1365  0.5607
  190SAPI    HX21931   1.299   4.771   5.960  0.0442  0.4725  0.9156
  190SAPI    HY21932   1.135   4.692   5.975  0.3163 -1.2338  0.0786
  190SAPI   O3121933   1.260   4.655   5.811 -0.4071  0.2750  0.1552
  190SAPI   C3121934   1.160   4.647   5.726 -0.4028 -0.1585 -0.2011
  190SAPI   O3221935   1.044   4.649   5.759  0.8157  0.9296 -0.0469
  190SAPI   C3221936   1.221   4.641   5.581  0.3799  0.0901 -0.4469
  190SAPI   H2X21937   1.278   4.547   5.570 -0.2438 -0.1485 -1.9352
  190SAPI   H2Y21938   1.293   4.725   5.570  0.3569  0.1412 -0.2167
  190SAPI   C2321939   1.402   4.249   5.715  0.2928 -0.4784  0.3573
  190SAPI   H3R21940   1.351   4.329   5.658 -4.3184  0.4195  4.9531
  190SAPI   H3S21941   1.313   4.184   5.729 -0.7056  0.4600 -1.3158
  190SAPI   C2421942   1.514   4.180   5.637  0.0208  0.1414 -0.1376
  190SAPI   H4R21943   1.478   4.148   5.537  0.5129 -3.0358  0.5969
  190SAPI   H4S21944   1.535   4.081   5.682 -0.8077  0.5100  1.1068
  190SAPI   C2521945   1.647   4.253   5.607  0.1271  0.0883 -0.8389
  190SAPI   H5R21946   1.724   4.219   5.677 -2.0393 -2.2313  0.6028
  190SAPI   C2621947   1.666   4.351   5.514  0.1603  0.2013  0.8455
  190SAPI   H6R21948   1.767   4.393   5.496  0.0709  0.0600 -0.0207
  190SAPI   C2721949   1.561   4.399   5.411  0.3207 -0.7574  0.2618
  190SAPI   H7R21950   1.563   4.509   5.400  0.0621 -0.7229  0.5342
  190SAPI   H7S21951   1.459   4.379   5.450 -0.1078  0.1262 -0.3712
  190SAPI   C2821952   1.559   4.324   5.278 -0.7456 -0.1236 -0.3300
  190SAPI   H8R21953   1.545   4.217   5.300 -2.0883 -0.0541 -0.7980
  190SAPI   C2921954   1.593   4.369   5.158 -0.3435 -0.2100 -0.4557
  190SAPI   H9R21955   1.563   4.311   5.069 -0.4904 -0.5059 -0.2166
  190SAPI  C21021956   1.636   4.517   5.125  0.4281  0.1542  1.0290
  190SAPI  H10R21957   1.639   4.570   5.222 -2.3991 -0.1976  1.4101
  190SAPI  H10S21958   1.558   4.562   5.060  0.1772  0.3018  1.4300
  190SAPI  C21121959   1.777   4.515   5.058 -0.0927 -0.5371 -0.1983
  190SAPI  H11R21960   1.778   4.441   4.976 -2.1248 -0.6274 -0.1948
  190SAPI  C21221961   1.885   4.593   5.088  0.5763 -0.2611 -0.4906
  190SAPI  H12R21962   1.974   4.584   5.024  0.0713 -0.6182 -1.1589
  190SAPI  C21321963   1.895   4.682   5.205  0.7293  0.3198 -0.2772
  190SAPI  H13R21964   1.823   4.766   5.190  0.8311  0.0445 -2.8322
  190SAPI  H13S21965   1.998   4.723   5.206  1.3791 -1.1933  1.3393
  190SAPI  C21421966   1.881   4.612   5.339 -0.4604 -0.0215  0.4050
  190SAPI  H14R21967   1.862   4.504   5.347 -0.8021  0.1554  2.5077
  190SAPI  C21521968   1.920   4.672   5.454  0.4923 -0.2072 -0.9068
  190SAPI  H15R21969   1.904   4.619   5.549  0.3188 -0.3027 -0.9881
  190SAPI  C21621970   1.957   4.813   5.480  0.0422  0.1387  0.9873
  190SAPI  H16R21971   1.887   4.855   5.555  1.4654  0.6446  2.0867
  190SAPI  H16S21972   1.955   4.877   5.389 -1.9892  0.0051  0.8917
  190SAPI  C21721973   2.103   4.823   5.538  0.1960  0.2293 -0.1038
  190SAPI  H17R21974   2.094   4.761   5.630 -0.6126  1.9021  0.9919
  190SAPI  H17S21975   2.116   4.929   5.568 -2.9176  0.1252  2.0640
  190SAPI  C21821976   2.221   4.780   5.442 -0.4965  0.3681 -0.0038
  190SAPI  H18R21977   2.212   4.833   5.345  0.5977 -0.3247 -0.5102
  190SAPI  H18S21978   2.211   4.673   5.414  1.5694  0.4754 -1.4296
  190SAPI  C21921979   2.358   4.811   5.504  0.6545 -0.6372 -0.7685
  190SAPI  H19R21980   2.371   4.757   5.600 -1.4701  0.5909  0.2717
  190SAPI  H19S21981   2.349   4.921   5.522 -1.4635 -0.7226 -1.0806
  190SAPI  C22021982   2.470   4.783   5.408  0.5402  0.3744 -0.5326
  190SAPI  H20R21983   2.490   4.862   5.333  2.0977  0.9721  0.4502
  190SAPI  H20S21984   2.445   4.680   5.374 -2.6521  0.2956  1.6634
  190SAPI  H20T21985   2.567   4.771   5.462  1.2244  2.4077 -1.2090
  190SAPI   C3321986   1.115   4.669   5.475 -0.1674  0.6337  1.3116
  190SAPI   H3X21987   1.080   4.773   5.492  0.5165  1.3791 -1.3234
  190SAPI   H3Y21988   1.038   4.589   5.469 -0.1080  0.6898 -1.6089
  190SAPI   C3421989   1.168   4.684   5.329  0.5494  0.9898 -0.6176
  190SAPI   H4X21990   1.241   4.767   5.329  0.8997  0.6872 -1.3363
  190SAPI   H4Y21991   1.083   4.728   5.273  0.2148  2.7913  1.1734
  190SAPI   C3521992   1.198   4.552   5.249 -0.5531 -0.6749 -0.3200
  190SAPI   H5X21993   1.102   4.506   5.216 -0.5834  0.4409 -1.8682
  190SAPI   H5Y21994   1.264   4.479   5.301 -0.8068 -0.6790  0.0003
  190SAPI   C3621995   1.273   4.578   5.118  0.3462  0.5575  0.4851
  190SAPI   H6X21996   1.330   4.487   5.091  1.0855  0.6130  1.7705
  190SAPI   H6Y21997   1.340   4.664   5.141 -1.2281  1.7435  0.8708
  190SAPI   C3721998   1.185   4.606   4.999  0.4497  0.5740  0.5144
  190SAPI   H7X21999   1.096   4.668   5.025  0.5939  0.5773  1.0261
  190SAPI   H7Y22000   1.138   4.507   4.982  0.0881  0.4457  2.0603
  190SAPI   C3822001   1.265   4.678   4.898  0.1489 -0.9912  0.2202
  190SAPI   H8X22002   1.346   4.613   4.858  1.2624 -0.6028  1.7681
  190SAPI   H8Y22003   1.327   4.756   4.946  0.3176  0.2535 -1.8946
  190SAPI   C3922004   1.172   4.728   4.783 -0.3352 -0.3125 -0.5179
  190SAPI   H9X22005   1.093   4.791   4.830 -1.5991 -0.8290 -1.8582
  190SAPI   H9Y22006   1.114   4.641   4.746  1.0455 -2.4442  2.0024
  190SAPI  C31022007   1.249   4.803   4.677  0.3028 -0.5949  0.3576
  190SAPI  H10X22008   1.336   4.745   4.638 -0.1259 -0.1163 -1.4357
  190SAPI  H10Y22009   1.295   4.900   4.703  2.4286 -1.6987  0.9694
  190SAPI  C31122010   1.173   4.836   4.546  0.0776 -0.1910 -0.5635
  190SAPI  H11X22011   1.113   4.930   4.547 -1.0405 -0.8820  0.6192
  190SAPI  H11Y22012   1.110   4.746   4.529  1.2971 -1.0671 -0.5504
  190SAPI  C31222013   1.267   4.846   4.425  0.2305 -0.0445 -0.5104
  190SAPI  H12X22014   1.344   4.766   4.427 -0.7821 -1.0724  2.0938
  190SAPI  H12Y22015   1.332   4.935   4.440  0.7363 -0.3097 -1.0886
  190SAPI  C31322016   1.188   4.880   4.299  0.3544  0.0853  0.3148
  190SAPI  H13X22017   1.129   4.973   4.318  0.6640  0.7717 -1.8006
  190SAPI  H13Y22018   1.110   4.809   4.264 -1.1582  1.5418  0.5738
  190SAPI  C31422019   1.272   4.895   4.170 -0.3732  0.0868 -0.0226
  190SAPI  H14X22020   1.309   4.793   4.144 -0.3219 -0.1103  0.8081
  190SAPI  H14Y22021   1.362   4.954   4.198  0.4950 -2.3116  2.7782
  190SAPI  C31522022   1.185   4.958   4.060  0.8093 -0.0443  0.3362
  190SAPI  H15X22023   1.094   5.001   4.108  0.6678 -0.4481  0.4355
  190SAPI  H15Y22024   1.141   4.873   4.004 -1.8986  1.0750  0.6401
  190SAPI  C31622025   1.256   5.056   3.971  0.3454 -0.4374 -0.3726
  190SAPI  H16X22026   1.288   5.149   4.023  0.7416 -0.5972 -0.3321
  190SAPI  H16Y22027   1.183   5.098   3.899 -1.5161 -1.7144  0.6869
  190SAPI  C31722028   1.357   4.990   3.894  0.0895  0.2318 -0.1770
  190SAPI  H17X22029   1.304   4.926   3.821  1.2807 -2.2347  0.9826
  190SAPI  H17Y22030   1.424   4.925   3.955 -1.7427 -1.9887 -0.4258
  190SAPI  C31822031   1.444   5.092   3.829 -0.3081  0.0308 -0.2965
  190SAPI  H18X22032   1.391   5.171   3.772 -1.3335 -1.1690 -1.0582
  190SAPI  H18Y22033   1.510   5.034   3.760  0.8286  0.9221  0.0171
  190SAPI  H18Z22034   1.506   5.149   3.901 -0.8534 -0.2529  0.4093
  191SAPI   C1222035   0.067   5.529   1.969  0.5214 -0.4512 -0.5214
  191SAPI    H222036   0.153   5.482   2.021  1.4813  0.1360 -1.5419
  191SAPI    O222037   0.063   5.499   1.831 -0.4134 -0.2580  0.0656
  191SAPI   HO222038   0.150   5.462   1.813 -0.5167  0.5745 -2.5837
  191SAPI   C1322039  -0.060   5.473   2.035 -0.0547 -0.1470 -0.5247
  191SAPI    H322040  -0.061   5.521   2.135 -2.4603 -0.3060 -0.4068
  191SAPI    O322041  -0.048   5.330   2.059  0.8265 -0.1905  0.3179
  191SAPI   HO322042  -0.120   5.289   2.009  0.9049  0.5187 -0.4016
  191SAPI   C1422043  -0.191   5.511   1.967  0.3534  0.0370  0.0090
  191SAPI    H422044  -0.198   5.454   1.872 -2.4674  1.9888 -1.0996
  191SAPI    O422045  -0.301   5.468   2.047 -0.2093 -0.3788  0.0761
  191SAPI   HO422046  -0.306   5.372   2.048 -2.1414 -0.4287 -2.6148
  191SAPI   C1522047  -0.190   5.663   1.940 -0.4154 -0.2972  0.2690
  191SAPI    H522048  -0.227   5.700   2.038 -2.0304 -1.7921  0.2898
  191SAPI    O522049  -0.295   5.703   1.859  0.9260  0.3732  0.4187
  191SAPI   HO522050  -0.379   5.693   1.905  0.4293  2.2870 -0.0082
  191SAPI   C1622051  -0.063   5.740   1.907 -0.4358  0.3059 -0.6157
  191SAPI    H622052  -0.043   5.719   1.800 -1.3623 -0.6469 -0.6175
  191SAPI    O622053  -0.073   5.883   1.929 -0.2976  0.6590  0.4837
  191SAPI   HO622054   0.010   5.914   1.967  0.4207 -1.0327  0.3744
  191SAPI   C1122055   0.065   5.680   1.984  0.9419 -0.3287  0.2616
  191SAPI    H122056   0.053   5.702   2.092  2.5224 -0.9174  0.5785
  191SAPI     P22057   0.267   5.865   1.987 -0.0091  0.5482  0.2712
  191SAPI   O1322058   0.172   5.979   1.987 -0.1679 -0.1103  0.3439
  191SAPI   O1422059   0.391   5.887   1.905 -0.5189  0.1387  0.6347
  191SAPI   O1222060   0.187   5.737   1.932  0.3281 -0.2445  0.6382
  191SAPI   O1122061   0.315   5.813   2.134 -0.6728  0.0058 -0.5773
  191SAPI    C122062   0.240   5.857   2.252 -0.2101  0.3348  0.3126
  191SAPI    HA22063   0.131   5.869   2.233  0.0908 -1.5267 -3.6407
  191SAPI    HB22064   0.232   5.766   2.315 -0.9232 -0.2998 -0.6663
  191SAPI    C222065   0.297   5.973   2.338  0.1234  0.1680 -0.1856
  191SAPI    HS22066   0.295   6.062   2.271 -3.4639 -0.8605 -1.7253
  191SAPI   O2122067   0.434   5.933   2.378 -0.1454 -0.7033  0.6303
  191SAPI   C2122068   0.512   6.041   2.393 -0.5384 -0.4809  0.0380
  191SAPI   O2222069   0.479   6.158   2.372  0.0893  0.1872  0.4357
  191SAPI   C2222070   0.644   5.999   2.466  0.3997 -0.4811 -0.1302
  191SAPI   H2R22071   0.663   5.900   2.419 -0.3675 -0.3544 -0.7434
  191SAPI   H2S22072   0.717   6.072   2.426  0.6419 -0.6663 -0.0230
  191SAPI    C322073   0.210   5.993   2.462 -0.3177 -0.5073 -0.8989
  191SAPI    HX22074   0.211   5.899   2.522  2.4508 -0.8938 -1.4108
  191SAPI    HY22075   0.103   6.006   2.435 -0.5931 -0.0112  0.3644
  191SAPI   O3122076   0.262   6.088   2.551 -0.7834  0.2414 -0.2719
  191SAPI   C3122077   0.202   6.201   2.573  0.0510 -0.1052 -0.5161
  191SAPI   O3222078   0.102   6.242   2.526 -0.8909 -0.1605  0.6453
  191SAPI   C3222079   0.283   6.287   2.670  0.3261  0.1836  0.7663
  191SAPI   H2X22080   0.241   6.388   2.647  0.2040 -0.4079 -1.8504
  191SAPI   H2Y22081   0.388   6.286   2.633  0.5421  1.6988  1.2247
  191SAPI   C2322082   0.634   6.000   2.621  0.5367  0.0474  0.0283
  191SAPI   H3R22083   0.590   5.903   2.654  0.9013 -0.5706 -1.2517
  191SAPI   H3S22084   0.568   6.082   2.655  2.4837  0.7374  2.3540
  191SAPI   C2422085   0.770   6.000   2.687  0.5209  0.0761  0.2683
  191SAPI   H4R22086   0.844   6.042   2.616 -1.0448  1.2825 -0.7239
  191SAPI   H4S22087   0.800   5.897   2.716 -0.6698 -0.5916 -0.7598
  191SAPI   C2522088   0.777   6.095   2.809  0.2126  0.3718  0.7969
  191SAPI   H5R22089   0.800   6.197   2.777  0.2148 -0.2157 -1.2177
  191SAPI   C2622090   0.766   6.064   2.945 -0.4599 -0.0216  0.8296
  191SAPI   H6R22091   0.775   6.140   3.024  0.1859  0.2632  0.4901
  191SAPI   C2722092   0.737   5.924   2.998 -1.0146 -0.0751  0.2520
  191SAPI   H7R22093   0.687   5.871   2.914 -0.5811 -0.1501  0.0384
  191SAPI   H7S22094   0.661   5.917   3.079 -0.8151 -1.2121  0.3584
  191SAPI   C2822095   0.865   5.847   3.021 -0.5981 -0.3673  0.4468
  191SAPI   H8R22096   0.942   5.845   2.943  0.8838 -2.0198  1.8552
  191SAPI   C2922097   0.883   5.771   3.125  0.0898 -0.0399 -0.5306
  191SAPI   H9R22098   0.983   5.726   3.135 -0.6826 -1.9807 -1.0818
  191SAPI  C21022099   0.788   5.745   3.242  0.2990  0.3587 -0.2713
  191SAPI  H10R22100   0.750   5.641   3.237 -0.0716  0.4810 -0.1181
  191SAPI  H10S22101   0.689   5.796   3.241 -1.6030 -2.8896  2.2094
  191SAPI  C21122102   0.879   5.762   3.367  0.7574  0.1882 -0.4518
  191SAPI  H11R22103   0.960   5.688   3.380  0.8453  0.2961 -0.3844
  191SAPI  C21222104   0.858   5.849   3.474 -0.3774  0.2278  0.6936
  191SAPI  H12R22105   0.922   5.837   3.562 -0.9704 -0.3071  1.0582
  191SAPI  C21322106   0.744   5.946   3.492  0.0420 -0.5509 -0.0331
  191SAPI  H13R22107   0.715   5.944   3.599 -0.5202  2.3937 -0.0675
  191SAPI  H13S22108   0.653   5.918   3.435  0.7516  0.5593 -1.7784
  191SAPI  C21422109   0.782   6.085   3.444  0.3932  0.4011  0.4327
  191SAPI  H14R22110   0.760   6.094   3.337 -0.0107 -0.0639  0.4716
  191SAPI  C21522111   0.832   6.183   3.512  0.4695 -0.4762 -0.9387
  191SAPI  H15R22112   0.857   6.276   3.459 -1.7672 -0.2506 -1.6904
  191SAPI  C21622113   0.850   6.181   3.667 -0.1098  0.0733 -0.2418
  191SAPI  H16R22114   0.954   6.152   3.692  0.2045  0.8315 -0.6626
  191SAPI  H16S22115   0.780   6.113   3.722  1.3022 -1.2530 -0.0025
  191SAPI  C21722116   0.826   6.326   3.721  0.4952 -0.4905  0.4867
  191SAPI  H17R22117   0.725   6.352   3.684  0.6944  1.4589  1.1698
  191SAPI  H17S22118   0.901   6.397   3.679 -0.2219  0.0807  0.1446
  191SAPI  C21822119   0.821   6.325   3.873 -0.0205  0.1388  0.1380
  191SAPI  H18R22120   0.912   6.272   3.908 -0.9718 -1.0351  0.9278
  191SAPI  H18S22121   0.729   6.271   3.905  0.3888 -0.2332  0.7072
  191SAPI  C21922122   0.807   6.459   3.940 -0.3411  0.0478 -0.8381
  191SAPI  H19R22123   0.745   6.532   3.883  1.9033  1.8151 -1.1919
  191SAPI  H19S22124   0.907   6.509   3.934 -0.7041  0.6591 -2.5513
  191SAPI  C22022125   0.752   6.461   4.084 -0.1556  0.5894  0.0887
  191SAPI  H20R22126   0.787   6.370   4.138 -1.0475 -0.2356 -0.7047
  191SAPI  H20S22127   0.642   6.446   4.082 -0.5567  3.1159  0.0218
  191SAPI  H20T22128   0.771   6.549   4.149 -0.5906 -0.3376  1.5287
  191SAPI   C3322129   0.278   6.252   2.827 -0.0918  0.2174  0.3881
  191SAPI   H3X22130   0.277   6.142   2.835 -0.9163  0.2902  1.6244
  191SAPI   H3Y22131   0.189   6.294   2.878  0.3037 -1.9640  3.0620
  191SAPI   C3422132   0.404   6.305   2.903 -0.3734 -0.3524 -0.3640
  191SAPI   H4X22133   0.394   6.414   2.924 -2.3814 -0.5408 -0.1524
  191SAPI   H4Y22134   0.488   6.307   2.830 -1.1634  0.4558 -1.2785
  191SAPI   C3522135   0.458   6.230   3.019  0.3016  0.4248 -0.5012
  191SAPI   H5X22136   0.565   6.249   3.038  0.3599  0.1301 -0.5299
  191SAPI   H5Y22137   0.441   6.123   2.992 -1.2456  0.9012 -1.5547
  191SAPI   C3622138   0.378   6.261   3.146 -0.5489 -0.2146 -0.8109
  191SAPI   H6X22139   0.268   6.258   3.133 -0.5783 -1.0473 -0.3729
  191SAPI   H6Y22140   0.393   6.371   3.156  1.0830 -0.4355 -0.5696
  191SAPI   C3722141   0.438   6.200   3.275  0.0909  0.1594  0.2857
  191SAPI   H7X22142   0.542   6.238   3.268  0.4202 -0.4682  1.5189
  191SAPI   H7Y22143   0.438   6.089   3.271 -1.7211  0.1370  0.0734
  191SAPI   C3822144   0.369   6.253   3.397 -0.5675  0.8435 -0.2236
  191SAPI   H8X22145   0.268   6.208   3.410 -0.7266  1.2189 -0.1610
  191SAPI   H8Y22146   0.359   6.363   3.382 -1.5529  0.7967  0.0307
  191SAPI   C3922147   0.450   6.224   3.525 -0.6662 -0.4731  0.0929
  191SAPI   H9X22148   0.552   6.268   3.518 -1.7878  2.5012  0.8015
  191SAPI   H9Y22149   0.465   6.115   3.533 -1.3329 -0.6227 -0.5621
  191SAPI  C31022150   0.389   6.281   3.654  0.0973  0.8767  0.0987
  191SAPI  H10X22151   0.282   6.250   3.648 -0.5990  2.0913  3.7754
  191SAPI  H10Y22152   0.404   6.391   3.649 -1.2997  1.1522  1.3248
  191SAPI  C31122153   0.446   6.230   3.780 -0.7292  0.2804  0.5593
  191SAPI  H11X22154   0.392   6.278   3.864 -0.4003  1.4461  0.1211
  191SAPI  H11Y22155   0.555   6.250   3.785 -0.7969  0.6808  0.4290
  191SAPI  C31222156   0.430   6.075   3.791 -0.3928  0.3510 -0.3859
  191SAPI  H12X22157   0.500   6.023   3.722  0.7727  1.0141  0.2587
  191SAPI  H12Y22158   0.328   6.044   3.760 -0.3806  1.9780 -2.2856
  191SAPI  C31322159   0.473   6.026   3.928  0.1089  0.4051 -0.0211
  191SAPI  H13X22160   0.402   6.085   3.990 -0.9021 -1.0697  0.2618
  191SAPI  H13Y22161   0.573   6.074   3.935 -0.2547  1.1041  0.5458
  191SAPI  C31422162   0.462   5.871   3.957  0.2817  0.3905  0.0150
  191SAPI  H14X22163   0.567   5.838   3.937  0.0802 -0.3489  0.1350
  191SAPI  H14Y22164   0.390   5.819   3.889  0.7909 -0.0420 -0.2093
  191SAPI  C31522165   0.432   5.836   4.106 -0.0470 -0.3746 -0.0315
  191SAPI  H15X22166   0.464   5.732   4.127 -0.9449 -0.7864 -0.6477
  191SAPI  H15Y22167   0.322   5.841   4.119 -0.1971 -0.0460 -1.2526
  191SAPI  C31622168   0.486   5.929   4.220  0.2605  0.1799 -0.4829
  191SAPI  H16X22169   0.433   5.912   4.316 -0.5726  2.4967 -0.4827
  191SAPI  H16Y22170   0.447   6.033   4.211  0.0539  0.1590  0.1678
  191SAPI  C31722171   0.635   5.913   4.252  0.0102 -0.6103 -0.3346
  191SAPI  H17X22172   0.661   5.994   4.323  0.0335 -2.3219  1.6946
  191SAPI  H17Y22173   0.701   5.924   4.163  0.2499 -1.1135 -0.2218
  191SAPI  C31822174   0.670   5.780   4.316  0.8100  0.2735 -0.4141
  191SAPI  H18X22175   0.779   5.757   4.312  1.2139  1.6055  1.5287
  191SAPI  H18Y22176   0.603   5.697   4.284  2.6893 -1.6545  0.4366
  191SAPI  H18Z22177   0.645   5.807   4.420  0.9210 -0.5800 -0.1644
  192SAPI   C1222178   6.525   2.543   2.233 -0.2656 -0.5282  0.0414
  192SAPI    H222179   6.533   2.583   2.336  2.7251 -2.5106  0.6920
  192SAPI    O222180   6.518   2.402   2.248  0.0607 -0.5047  0.2160
  192SAPI   HO222181   6.607   2.373   2.269  0.2780 -1.0157 -1.3025
  192SAPI   C1322182   6.390   2.600   2.177 -0.8249 -0.3593 -0.0669
  192SAPI    H322183   6.402   2.711   2.175  0.0834 -0.2740  3.1785
  192SAPI    O322184   6.281   2.566   2.258  0.5728 -0.1498  0.2071
  192SAPI   HO322185   6.268   2.472   2.267 -0.5930 -0.0737 -0.5177
  192SAPI   C1422186   6.363   2.551   2.038 -0.7341 -0.0933 -0.6359
  192SAPI    H422187   6.336   2.444   2.044 -0.9468  0.0499  1.5915
  192SAPI    O422188   6.262   2.622   1.975  0.4297 -0.0716 -0.1920
  192SAPI   HO422189   6.187   2.562   1.967  2.0273 -2.1063 -0.7509
  192SAPI   C1522190   6.481   2.566   1.951 -0.2537  0.1920 -0.6913
  192SAPI    H522191   6.495   2.673   1.923  0.5658 -0.6384 -3.9541
  192SAPI    O522192   6.464   2.498   1.833 -0.1461  0.1595  0.0336
  192SAPI   HO522193   6.392   2.545   1.792  0.1887 -0.5623 -1.4194
  192SAPI   C1622194   6.620   2.525   2.004 -0.4155 -0.0853  0.5870
  192SAPI    H622195   6.614   2.415   2.009  0.0242 -0.2120 -1.1669
  192SAPI    O622196   6.729   2.559   1.924  0.0213  0.0711  0.1517
  192SAPI   HO622197   6.796   2.491   1.936  1.5145  1.3226 -0.5996
  192SAPI   C1122198   6.647   2.581   2.144  0.1476 -0.2771 -0.1982
  192SAPI    H122199   6.657   2.692   2.140 -1.6571 -0.0968 -0.9352
  192SAPI     P22200   6.844   2.590   2.318 -0.2005 -0.0512  0.2615
  192SAPI   O1322201   6.800   2.731   2.344  0.2107  0.1472 -0.4067
  192SAPI   O1422202   6.984   2.574   2.286  0.0696  0.3670  0.1009
  192SAPI   O1222203   6.765   2.527   2.191 -0.2421 -0.4396 -0.4242
  192SAPI   O1122204   6.792   2.504   2.438  0.2276  0.2993 -0.1100
  192SAPI    C122205   6.822   2.364   2.453  0.7401 -0.3179  0.5706
  192SAPI    HA22206   6.727   2.310   2.474  1.5145 -2.1158 -0.3187
  192SAPI    HB22207   6.870   2.326   2.360  0.8748 -0.2412  0.6092
  192SAPI    C222208   6.919   2.340   2.574  0.1994  0.2076 -0.5836
  192SAPI    HS22209   6.902   2.233   2.598  0.5209  0.7475  2.4489
  192SAPI   O2122210   6.877   2.418   2.680  0.2886  0.2768 -0.2866
  192SAPI   C2122211   6.751   2.426   2.724 -0.0035  0.6717 -0.5022
  192SAPI   O2222212   6.666   2.344   2.700  0.6931 -0.1859  0.2193
  192SAPI   C2222213   6.733   2.569   2.780  0.1172  0.0536 -0.4115
  192SAPI   H2R22214   6.824   2.592   2.841  0.2424  1.7300 -1.1664
  192SAPI   H2S22215   6.719   2.632   2.690  1.2657  0.6908 -0.1659
  192SAPI    C322216   7.062   2.367   2.539 -0.7404 -0.0760 -0.3692
  192SAPI    HX22217   7.067   2.478   2.529 -3.4200  0.3289  1.5136
  192SAPI    HY22218   7.084   2.318   2.443  0.3536  0.0605 -0.1995
  192SAPI   O3122219   7.162   2.320   2.637 -0.2383  0.2790 -0.1198
  192SAPI   C3122220   7.226   2.201   2.612  0.3415 -0.2594 -0.1730
  192SAPI   O3222221   7.189   2.118   2.526  0.3501 -0.2315 -0.4397
  192SAPI   C3222222   7.343   2.189   2.714  0.2004 -0.0840  0.1883
  192SAPI   H2X22223   7.326   2.243   2.809 -1.1056 -0.6329  0.2935
  192SAPI   H2Y22224   7.424   2.244   2.662  0.6760  2.1822  3.0912
  192SAPI   C2322225   6.614   2.578   2.873 -0.0549  0.1244 -0.8714
  192SAPI   H3R22226   6.539   2.502   2.841 -1.6348  0.9387  0.7501
  192SAPI   H3S22227   6.569   2.679   2.871 -3.7793 -1.2861  1.0996
  192SAPI   C2422228   6.642   2.542   3.022  0.0307  0.5763  0.2433
  192SAPI   H4R22229   6.669   2.435   3.031 -0.0936  0.6514  1.7742
  192SAPI   H4S22230   6.546   2.554   3.076 -0.6674 -1.5212 -0.4622
  192SAPI   C2522231   6.746   2.634   3.094 -0.1687  0.2026 -0.0778
  192SAPI   H5R22232   6.724   2.742   3.093 -0.8574  0.0675 -0.5342
  192SAPI   C2622233   6.859   2.588   3.155  0.4264 -0.0539 -0.1145
  192SAPI   H6R22234   6.916   2.653   3.222  1.2674 -2.2084  1.3517
  192SAPI   C2722235   6.911   2.446   3.158 -0.3287 -0.1662  0.4140
  192SAPI   H7R22236   6.843   2.383   3.219  0.2240 -1.3353 -0.1445
  192SAPI   H7S22237   6.995   2.447   3.231  1.8781  0.8034 -1.9689
  192SAPI   C2822238   6.957   2.381   3.028 -0.7614  0.3666 -0.1560
  192SAPI   H8R22239   6.879   2.323   2.977 -0.6938 -0.2679  0.4427
  192SAPI   C2922240   7.081   2.391   2.972 -0.6404 -0.1928  0.2429
  192SAPI   H9R22241   7.113   2.352   2.875  0.3296  0.4729  0.2814
  192SAPI  C21022242   7.190   2.472   3.033 -0.5767  0.1962 -0.3115
  192SAPI  H10R22243   7.154   2.513   3.130  0.0986 -0.5990  0.2865
  192SAPI  H10S22244   7.214   2.549   2.957 -1.6847 -0.6497 -1.5655
  192SAPI  C21122245   7.318   2.398   3.054 -0.1806 -0.1174 -0.7392
  192SAPI  H11R22246   7.389   2.411   2.971 -0.1833  3.2926 -0.3388
  192SAPI  C21222247   7.362   2.339   3.167  0.3191 -0.2155 -0.1601
  192SAPI  H12R22248   7.467   2.308   3.176 -0.6439 -3.7771  0.1060
  192SAPI  C21322249   7.274   2.315   3.289 -0.3824  0.1845 -0.3979
  192SAPI  H13R22250   7.183   2.258   3.262 -2.9640  3.2121  1.1319
  192SAPI  H13S22251   7.224   2.408   3.324  0.0642  0.3028 -0.0577
  192SAPI  C21422252   7.341   2.241   3.406 -0.3345  0.2194  0.4451
  192SAPI  H14R22253   7.402   2.154   3.376  0.4953  0.8867  0.1532
  192SAPI  C21522254   7.341   2.270   3.538 -0.8887  0.0341  0.5863
  192SAPI  H15R22255   7.410   2.207   3.596 -0.3288 -0.1940 -0.3086
  192SAPI  C21622256   7.263   2.370   3.622  1.0871  0.0645  0.6830
  192SAPI  H16R22257   7.239   2.454   3.553 -3.4960 -1.1483  0.4516
  192SAPI  H16S22258   7.329   2.414   3.700  0.1352  2.8204  0.0496
  192SAPI  C21722259   7.131   2.320   3.688  0.3718 -0.1028 -0.3253
  192SAPI  H17R22260   7.099   2.411   3.744  1.0479  0.0184 -0.1233
  192SAPI  H17S22261   7.144   2.234   3.757 -0.3801  0.2507  0.2683
  192SAPI  C21822262   7.046   2.265   3.576  0.9111  0.4680 -0.3175
  192SAPI  H18R22263   7.094   2.193   3.507 -1.3856  0.0700 -1.6027
  192SAPI  H18S22264   7.008   2.355   3.522  0.6042 -0.3769 -1.5478
  192SAPI  C21922265   6.923   2.190   3.625 -1.2955 -0.4203  0.2278
  192SAPI  H19R22266   6.858   2.265   3.676 -1.2908 -1.3736  1.7012
  192SAPI  H19S22267   6.942   2.115   3.704  0.3848 -1.6438 -1.2679
  192SAPI  C22022268   6.841   2.129   3.516  0.1567 -0.2171 -0.1003
  192SAPI  H20R22269   6.907   2.069   3.450  0.3506  0.4601 -0.5271
  192SAPI  H20S22270   6.797   2.207   3.450 -2.9834 -2.8598 -1.4071
  192SAPI  H20T22271   6.756   2.068   3.553  0.5630 -0.7953 -0.1026
  192SAPI   C3322272   7.368   2.046   2.740  0.2459  0.4475  0.0999
  192SAPI   H3X22273   7.459   2.051   2.804  2.8434 -0.0291 -3.2581
  192SAPI   H3Y22274   7.398   2.009   2.639  0.7942  0.6580  0.1835
  192SAPI   C3422275   7.264   1.950   2.804 -0.3332  0.3305 -0.2377
  192SAPI   H4X22276   7.300   1.845   2.802  0.5245  0.5905  0.6137
  192SAPI   H4Y22277   7.169   1.950   2.748 -1.5541 -0.2916  1.7400
  192SAPI   C3522278   7.228   1.989   2.957 -0.2640  0.3401  0.7653
  192SAPI   H5X22279   7.128   2.038   2.958  0.0908  1.0804  0.5129
  192SAPI   H5Y22280   7.301   2.066   2.989 -0.1056 -0.3223  2.0702
  192SAPI   C3622281   7.243   1.872   3.059 -0.2057 -0.1601 -0.0690
  192SAPI   H6X22282   7.342   1.833   3.027 -0.7269 -1.0432 -0.6585
  192SAPI   H6Y22283   7.163   1.801   3.030  0.2798 -0.1937 -1.4495
  192SAPI   C3722284   7.260   1.932   3.199 -0.2519  0.0319 -0.4434
  192SAPI   H7X22285   7.180   2.006   3.218 -1.2648 -1.0679 -0.3310
  192SAPI   H7Y22286   7.357   1.987   3.200 -0.3908  0.3585 -1.8527
  192SAPI   C3822287   7.262   1.833   3.317  0.1778 -0.0510  0.4629
  192SAPI   H8X22288   7.329   1.747   3.299  0.1299 -0.1665  0.8329
  192SAPI   H8Y22289   7.160   1.792   3.312 -0.2115  0.8811  0.4578
  192SAPI   C3922290   7.275   1.898   3.457 -0.3063 -0.3438  0.0791
  192SAPI   H9X22291   7.217   1.993   3.465 -0.6645 -0.5737  0.2219
  192SAPI   H9Y22292   7.383   1.921   3.472 -0.4292 -1.0894  2.6276
  192SAPI  C31022293   7.251   1.800   3.573  0.4357 -0.3894 -0.1605
  192SAPI  H10X22294   7.335   1.732   3.598  0.0904 -0.6226  0.3951
  192SAPI  H10Y22295   7.159   1.744   3.544 -1.2787  1.6841  0.9551
  192SAPI  C31122296   7.199   1.873   3.702 -0.2682 -0.3218 -1.1577
  192SAPI  H11X22297   7.155   1.800   3.773  0.6148 -1.7525 -2.0427
  192SAPI  H11Y22298   7.115   1.940   3.674  0.1950  0.7235 -0.1111
  192SAPI  C31222299   7.298   1.968   3.765 -0.0378  0.3246 -0.0575
  192SAPI  H12X22300   7.235   2.028   3.833 -1.4255  0.5352 -1.4719
  192SAPI  H12Y22301   7.318   2.037   3.681  0.6471  0.4307  0.1910
  192SAPI  C31322302   7.419   1.893   3.831  0.3335 -0.0186 -0.5895
  192SAPI  H13X22303   7.482   1.854   3.748 -1.7569 -1.3808 -1.6226
  192SAPI  H13Y22304   7.377   1.798   3.871  1.2621 -1.0316 -1.9103
  192SAPI  C31422305   7.513   1.972   3.929 -0.2976  0.3966  0.3810
  192SAPI  H14X22306   7.555   2.063   3.881  0.5535 -0.0679  0.2251
  192SAPI  H14Y22307   7.594   1.903   3.960 -0.0167  0.3213 -0.5025
  192SAPI  C31522308   7.433   2.031   4.048  0.0769  0.2570 -0.5182
  192SAPI  H15X22309   7.378   1.953   4.105 -0.7312  1.2261  0.0814
  192SAPI  H15Y22310   7.365   2.103   3.997 -0.2516  1.4428  1.4748
  192SAPI  C31622311   7.514   2.124   4.152  0.2632 -0.2081 -0.4937
  192SAPI  H16X22312   7.595   2.061   4.195  0.8462 -0.0261 -1.2883
  192SAPI  H16Y22313   7.443   2.146   4.234  0.6148  0.3826 -0.3382
  192SAPI  C31722314   7.574   2.252   4.088 -0.2246  0.3907 -0.1499
  192SAPI  H17X22315   7.494   2.309   4.035 -1.4062  0.2594  1.4162
  192SAPI  H17Y22316   7.637   2.209   4.007  0.0967  0.5687  0.0039
  192SAPI  C31822317   7.637   2.347   4.189  0.0353  0.1974 -0.0262
  192SAPI  H18X22318   7.710   2.417   4.143 -1.4405  1.7076 -0.1508
  192SAPI  H18Y22319   7.683   2.288   4.272 -0.3761 -0.3034 -0.1492
  192SAPI  H18Z22320   7.564   2.412   4.242  1.7693  2.0476  0.2012
  193SOD    SOD22321   5.355   6.802   8.479  0.6632 -0.5449  0.2336
  194SOD    SOD22322   4.647   2.837   1.031 -0.0398  0.4771 -0.6242
  195SOD    SOD22323   2.491   5.845   7.720 -0.1544 -0.0484  0.5649
  196SOD    SOD22324   5.231   0.581   6.921 -0.2642  0.3293 -0.3801
  197SOD    SOD22325   5.364   4.395   6.523 -0.3202  0.4810  0.2614
  198SOD    SOD22326   3.852   5.927   1.600 -0.0845 -0.4892 -0.4650
  199SOD    SOD22327   3.778   5.167   1.212  0.0658  0.2510 -0.1166
  200SOD    SOD22328   1.904   5.222   1.169 -0.0651 -0.1780  0.2379
  201SOD    SOD22329   1.636   4.296   1.192 -0.2941  0.4479 -0.4748
  202SOD    SOD22330   1.676   4.810   7.225 -0.2448  0.2477  0.1391
  203SOD    SOD22331   2.808   3.968   6.648 -0.2453  0.1131  0.0540
  204SOD    SOD22332   1.480   5.532   1.675 -0.3010 -0.0508 -0.3250
  205SOD    SOD22333   4.531   3.522   7.842  0.1351  0.0462  0.8088
  206SOD    SOD22334   6.601   0.296   1.800 -0.4067  0.2502  0.4152
  207SOD    SOD22335   1.178   1.196   0.823  0.3647  0.4240 -0.0682
  208SOD    SOD22336   1.563   0.161   1.512  0.2123  0.5786 -0.4164
  209SOD    SOD22337   5.897   3.052   7.197 -0.3009 -0.2598  0.2499
  210SOD    SOD22338   0.103   6.581   8.215  0.2038  0.0643 -0.3205
  211SOD    SOD22339   2.392   2.233   1.075 -0.0629  0.7184 -0.1481
  212SOD    SOD22340   5.447   1.100   8.276 -0.8420 -0.7517 -0.1390
  213SOD    SOD22341   4.012   2.328   2.007 -0.3134 -0.1455  0.3934
  214SOD    SOD22342   3.541   1.659   8.273  0.2644 -0.3640  0.0552
  215SOD    SOD22343   5.786   1.471   6.273 -0.2375  0.0334 -0.1235
  216SOD    SOD22344   5.813   3.252   2.225 -0.6542  0.2464  0.0156
  217SOD    SOD22345   6.896   3.440   8.623 -0.4329  0.0359 -0.5553
  218SOD    SOD22346   2.725   2.570   7.662 -0.3697 -0.0948 -0.3822
  219SOD    SOD22347   4.259   5.733   8.341 -0.2109  0.1342  0.0950
  220SOD    SOD22348   6.511   0.303   7.401 -0.2504 -0.2305 -0.1646
  221SOD    SOD22349   5.949   0.627   0.664 -0.4123 -0.2915 -0.0587
  222SOD    SOD22350   0.889   0.837   7.248 -0.2987  0.1652 -0.5910
  223SOD    SOD22351   2.233   4.983   7.690 -0.0617 -0.3858 -0.3550
  224SOD    SOD22352   4.210   6.374   7.720 -0.5470 -0.0594  0.3359
  225SOD    SOD22353   2.781   3.555   8.259  0.1981 -0.5056 -0.2047
  226SOD    SOD22354   1.905   3.584   0.279 -0.1225  0.2750 -0.3841
  227SOD    SOD22355   3.351   6.453   0.226 -0.1297 -0.1783  0.6672
  228SOD    SOD22356   0.849   3.152   1.627 -0.5262 -0.8515  0.0431
  229SOD    SOD22357   0.863   4.910   1.279 -0.0016 -0.1060 -0.3224
  230CLA    CLA22358   1.101   3.827   0.743 -0.2406 -0.2949  0.1309
  231CLA    CLA22359   6.583   1.404   1.563  0.1750  0.1388 -0.3803
  232CLA    CLA22360   5.978   4.138   0.005  0.3059 -0.3851  0.2440
  233CLA    CLA22361   6.274   0.229   8.544  0.2828  0.3591  0.0998
  234CLA    CLA22362   1.907   4.603   7.847  0.0363 -0.0638  0.2568
  235CLA    CLA22363   3.807   6.711   0.708  0.1784  0.4802  0.1778
  236CLA    CLA22364   2.944   5.334   0.816 -0.1959 -0.0885 -0.0655
  237CLA    CLA22365   4.672   6.166   0.601  0.1622  0.1835  0.3627
  238CLA    CLA22366   3.775   4.337   1.659 -0.1906  0.2625 -0.1596
  239CLA    CLA22367   5.713   3.240   7.101 -0.0296  0.1148 -0.4337
  240CLA    CLA22368   5.533   2.813   8.399  0.0706  0.1528  0.0957
  241CLA    CLA22369   3.600   5.593   1.006 -0.0522  0.2648 -0.1124
  242CLA    CLA22370   2.612   3.781   0.631  0.1065 -0.2610 -0.1657
  243CLA    CLA22371   0.542   5.245   1.097  0.2239  0.0082 -0.4173
  244CLA    CLA22372   6.133   3.685   1.232 -0.0811  0.1303  0.0209
  245CLA    CLA22373   3.347   5.577   7.664 -0.4587  0.1844 -0.2186
  246CLA    CLA22374   6.395   6.409   0.264  0.0743  0.1544  0.4277
  247TIP3   OH222375   3.671   0.775   2.002 -0.4051  0.1483  0.3160
  247TIP3    H122376   3.693   0.763   1.910 -0.3184  1.0117  0.2149
  247TIP3    H222377   3.743   0.735   2.050 -0.0254  0.4421 -0.0019
  248TIP3   OH222378   3.281   0.039   1.076  0.1279  0.1289  0.3628
  248TIP3    H122379   3.340  -0.031   1.106 -0.3442 -0.8545 -0.8961
  248TIP3    H222380   3.268   0.021   0.983 -0.5559  1.5197  0.1601
  249TIP3   OH222381   2.265   0.063   7.570  0.1933 -0.1058 -0.1851
  249TIP3    H122382   2.276   0.128   7.501 -1.4883  0.0606 -0.3280
  249TIP3    H222383   2.287   0.109   7.651  2.2443 -0.3208 -0.5572
  250TIP3   OH222384   1.136   3.568   7.663 -0.1024  0.3559  0.2586
  250TIP3    H122385   1.148   3.652   7.619  0.5130  0.1514  0.0290
  250TIP3    H222386   1.042   3.551   7.658 -0.1806  0.8554 -0.0101
  251TIP3   OH222387   3.706   6.306   6.425  0.7001 -0.0838  0.2990
  251TIP3    H122388   3.786   6.309   6.478  0.5452 -1.3211  0.6393
  251TIP3    H222389   3.645   6.253   6.477  0.0570 -0.1213 -0.4747
  252TIP3   OH222390   2.305   0.513   6.280  0.4642  0.5822 -0.6713
  252TIP3    H122391   2.364   0.455   6.329  0.6649 -0.2891 -1.9015
  252TIP3    H222392   2.331   0.601   6.307  0.5041  0.1397  0.8415
  253TIP3   OH222393   1.865   3.327   7.065  0.5039  0.0228 -0.1080
  253TIP3    H122394   1.871   3.398   7.000 -0.6495  1.7961  1.6138
  253TIP3    H222395   1.772   3.321   7.086  0.4858 -2.4452 -0.5767
  254TIP3   OH222396   4.065   0.301   8.151 -0.0316  0.6085  0.2027
  254TIP3    H122397   3.992   0.360   8.171 -0.6689  0.0913 -0.5408
  254TIP3    H222398   4.078   0.251   8.231 -1.5882 -0.4273 -0.1429
  255TIP3   OH222399   6.831   1.755   0.323  0.0157  0.2712 -0.1921
  255TIP3    H122400   6.880   1.806   0.259  1.2014  0.8518  1.1222
  255TIP3    H222401   6.807   1.817   0.392 -0.4102 -0.5065  0.3908
  256TIP3   OH222402   1.172   5.073   1.472  0.0848 -0.3958 -0.3361
  256TIP3    H122403   1.250   5.059   1.525  2.6487  0.2565 -3.5707
  256TIP3    H222404   1.150   4.986   1.438 -0.0729 -0.4493 -0.0983
  257TIP3   OH222405   2.655   5.835   0.204  0.2804 -0.0977  0.5317
  257TIP3    H122406   2.657   5.884   0.286  1.7973 -0.9904  1.0714
  257TIP3    H222407   2.614   5.752   0.227 -2.0234  0.7364 -0.3156
  258TIP3   OH222408   3.216   3.922   8.388  0.1534 -0.1849  0.2257
  258TIP3    H122409   3.162   3.932   8.466 -0.7448  2.1112 -0.6347
  258TIP3    H222410   3.293   3.873   8.419 -1.3285 -1.5497  1.9508
  259TIP3   OH222411   1.719   1.143   0.586 -0.2435  0.0630 -0.4891
  259TIP3    H122412   1.642   1.167   0.638  0.6172  3.3894 -0.5463
  259TIP3    H222413   1.781   1.109   0.649 -0.8550 -0.2934 -0.0676
  260TIP3   OH222414   6.693   2.998   1.548 -0.2587 -0.0574 -0.3081
  260TIP3    H122415   6.743   3.059   1.493 -1.7418  0.1356 -1.5304
  260TIP3    H222416   6.742   2.916   1.544  1.3322  0.8052  0.7020
  261TIP3   OH222417   5.505   1.092   0.177 -0.2707  0.2711  1.1012
  261TIP3    H122418   5.537   1.178   0.152 -1.1573  0.0955 -0.8075
  261TIP3    H222419   5.576   1.032   0.156 -0.6663  0.2407 -0.2782
  262TIP3   OH222420   6.375   0.773   1.335 -0.4796 -0.0809 -0.1315
  262TIP3    H122421   6.437   0.801   1.402 -2.0052 -2.3854  2.4714
  262TIP3    H222422   6.421   0.786   1.252  1.8582  2.0843  1.3633
  263TIP3   OH222423   1.361   0.040   6.886  0.0548 -0.0727 -0.0152
  263TIP3    H122424   1.339   0.060   6.977  0.4143  1.7866 -0.2877
  263TIP3    H222425   1.276   0.040   6.841  0.0018  0.3658  0.0834
  264TIP3   OH222426   6.006   4.546   8.176  0.2866  0.3335 -0.3740
  264TIP3    H122427   6.009   4.457   8.213 -0.7762  0.7161  0.7294
  264TIP3    H222428   5.944   4.539   8.103  0.1066  0.1921 -0.2093
  265TIP3   OH222429   4.873   2.807   8.461  0.1836  0.2967 -0.0750
  265TIP3    H122430   4.906   2.810   8.551  0.8626  0.5731 -0.3303
  265TIP3    H222431   4.837   2.895   8.446  0.8003  0.5069 -0.3430
  266TIP3   OH222432   5.777   0.854   8.305  0.0786 -0.5902  0.8336
  266TIP3    H122433   5.854   0.832   8.251 -1.1791 -0.9684 -0.9044
  266TIP3    H222434   5.809   0.918   8.368  1.4199  0.7634 -1.1028
  267TIP3   OH222435   2.969   3.130   1.538 -0.0819 -0.3336  0.3205
  267TIP3    H122436   2.963   3.120   1.633  1.4995  0.7711  0.5685
  267TIP3    H222437   3.061   3.146   1.521 -0.1159 -1.7868 -1.5688
  268TIP3   OH222438   0.860   2.522   0.049  0.0690 -0.0315  0.3172
  268TIP3    H122439   0.949   2.504   0.080 -0.1650 -1.3407  0.2792
  268TIP3    H222440   0.851   2.469  -0.031 -1.0833 -0.7039  0.8706
  269TIP3   OH222441   6.209   0.548   1.123 -0.2190 -0.4803  0.5139
  269TIP3    H122442   6.195   0.486   1.194 -0.1793  0.9040  1.7873
  269TIP3    H222443   6.299   0.577   1.133 -0.6131  0.7305  0.7623
  270TIP3   OH222444   2.659   1.459   1.340  0.1907 -0.0470 -0.1462
  270TIP3    H122445   2.596   1.493   1.403 -0.8694 -2.3213  0.1376
  270TIP3    H222446   2.613   1.386   1.297  2.2475 -1.0869 -0.7170
  271TIP3   OH222447   6.575   2.816   0.234 -0.1043 -0.8021  0.6320
  271TIP3    H122448   6.601   2.906   0.253 -0.0181 -0.1478 -2.1398
  271TIP3    H222449   6.648   2.780   0.185 -0.9316 -1.7192  0.0392
  272TIP3   OH222450   1.716   0.010   1.513  0.0062  0.2050  0.2451
  272TIP3    H122451   1.697  -0.060   1.576  0.3521 -0.3549 -0.2648
  272TIP3    H222452   1.809   0.000   1.494 -0.0489  0.5151 -0.1880
  273TIP3   OH222453   5.435   6.447   0.580 -0.3482  0.3473 -0.7694
  273TIP3    H122454   5.421   6.385   0.508  2.0194 -1.2627  0.0581
  273TIP3    H222455   5.450   6.531   0.537  0.9400 -0.5615 -2.1923
  274TIP3   OH222456   4.718   5.356   6.782  0.0831  0.2451 -0.0085
  274TIP3    H122457   4.729   5.391   6.694  4.8747 -0.3152  0.0951
  274TIP3    H222458   4.718   5.261   6.770 -0.0568  0.1716  0.5402
  275TIP3   OH222459   0.551   2.410   7.967  0.3170  0.4070  0.0313
  275TIP3    H122460   0.489   2.479   7.993 -0.0541  0.2071 -0.3155
  275TIP3    H222461   0.497   2.345   7.923  0.7544  0.1517 -0.1285
  276TIP3   OH222462   0.835   6.649   8.526  0.0290  0.2706 -0.1144
  276TIP3    H122463   0.763   6.644   8.590  0.0720  0.5179 -0.0489
  276TIP3    H222464   0.850   6.742   8.514  0.9573  0.2233  0.5697
  277TIP3   OH222465   3.822   3.585   0.525 -0.2072 -0.2890 -0.6328
  277TIP3    H122466   3.809   3.499   0.484 -0.2591  0.5950 -2.5818
  277TIP3    H222467   3.909   3.612   0.496  0.3767 -0.2212  1.0695
  278TIP3   OH222468   5.662   2.382   1.410 -0.2695 -0.2863 -0.8027
  278TIP3    H122469   5.707   2.311   1.455 -0.9615 -0.4374 -0.3312
  278TIP3    H222470   5.622   2.433   1.480 -0.9657 -0.2540 -1.2193
  279TIP3   OH222471   0.223   1.155   1.348 -0.7602 -0.2161  0.3634
  279TIP3    H122472   0.254   1.083   1.403  0.5379  0.2685  0.2854
  279TIP3    H222473   0.182   1.216   1.410  1.2322  0.6208  0.9463
  280TIP3   OH222474   0.489   6.126   0.448 -0.1771  0.3387 -0.0797
  280TIP3    H122475   0.434   6.140   0.371  0.1832 -0.1262 -0.4270
  280TIP3    H222476   0.538   6.207   0.459 -0.5454  0.5612 -0.0838
  281TIP3   OH222477   6.884   4.627   1.976 -0.5137 -0.3483 -0.0610
  281TIP3    H122478   6.869   4.545   1.928 -1.6495 -0.2496  0.0885
  281TIP3    H222479   6.978   4.644   1.966 -0.7989  0.0524 -2.8245
  282TIP3   OH222480   1.626   1.590   1.133  0.2108 -0.3900  0.2833
  282TIP3    H122481   1.661   1.576   1.045 -0.3674 -1.6224  0.2334
  282TIP3    H222482   1.569   1.515   1.148 -1.6860  1.0819  0.7202
  283TIP3   OH222483   0.432   2.686   0.219 -0.6919  0.0760  0.6272
  283TIP3    H122484   0.449   2.651   0.132  3.3570 -2.3655  2.0703
  283TIP3    H222485   0.495   2.758   0.228 -1.0666  0.3008  1.5018
  284TIP3   OH222486   0.490   5.842   7.483 -0.1837 -0.5695  0.4359
  284TIP3    H122487   0.459   5.752   7.486  0.8029 -0.9393 -0.2639
  284TIP3    H222488   0.514   5.857   7.391 -1.6849  0.8783  0.2120
  285TIP3   OH222489   2.567   3.260   7.112  0.1608 -0.1541  0.1595
  285TIP3    H122490   2.582   3.168   7.088 -0.4764 -0.2027 -0.0802
  285TIP3    H222491   2.512   3.294   7.042  0.7628  0.5445  0.0164
  286TIP3   OH222492   2.512   4.581   6.943 -0.0799 -0.0883  0.0043
  286TIP3    H122493   2.511   4.549   6.853  0.3927 -0.2701  0.0644
  286TIP3    H222494   2.463   4.515   6.992  1.5586 -1.1556  0.2706
  287TIP3   OH222495   3.305   2.761   2.251  0.2549 -0.4208 -0.4257
  287TIP3    H122496   3.258   2.711   2.184 -0.6169  0.2457 -0.3202
  287TIP3    H222497   3.237   2.803   2.302  0.9124 -0.7695  0.7794
  288TIP3   OH222498   4.031   3.296   1.279 -0.2342  0.0614  0.1780
  288TIP3    H122499   4.046   3.228   1.214  1.5275  0.3028  0.2726
  288TIP3    H222500   4.028   3.377   1.229  0.4611  0.1801  0.3183
  289TIP3   OH222501   4.662   5.722   1.297  0.1358  0.5183  0.6630
  289TIP3    H122502   4.621   5.673   1.225 -0.2427 -0.0886  1.2885
  289TIP3    H222503   4.618   5.807   1.297 -1.4076 -0.2434  1.5591
  290TIP3   OH222504   1.848   5.343   8.469  0.1833 -0.1593 -0.4400
  290TIP3    H122505   1.761   5.375   8.443 -0.3905 -0.3962  1.1082
  290TIP3    H222506   1.843   5.248   8.460  0.0906 -0.2172  0.1701
  291TIP3   OH222507   4.463   2.800   0.902 -0.0123 -0.3275 -0.3430
  291TIP3    H122508   4.481   2.884   0.860  0.5972  0.2261  0.9659
  291TIP3    H222509   4.384   2.768   0.859 -2.1757  2.4444  1.2279
  292TIP3   OH222510   3.638   1.178   7.073 -0.1853  0.5935 -0.2977
  292TIP3    H122511   3.730   1.202   7.062  0.2516  0.1220  1.9068
  292TIP3    H222512   3.593   1.261   7.093  0.2115  0.5092  1.0221
  293TIP3   OH222513   5.946   1.148   6.989 -0.5220 -0.0123 -0.6161
  293TIP3    H122514   5.853   1.125   6.996 -0.2276 -0.8282  0.9518
  293TIP3    H222515   5.979   1.145   7.078  1.3381 -1.1362 -1.2676
  294TIP3   OH222516   5.173   4.570   7.219 -0.1588 -0.5941  0.2826
  294TIP3    H122517   5.214   4.575   7.306  0.3128 -1.8216  0.1575
  294TIP3    H222518   5.127   4.486   7.220  1.5751 -1.6650 -1.3441
  295TIP3   OH222519   6.066   6.289   0.546  0.0146  0.1581  0.4229
  295TIP3    H122520   6.074   6.374   0.590  1.1450 -0.0854  0.7127
  295TIP3    H222521   6.150   6.246   0.561 -0.7275 -1.2577  0.7770
  296TIP3   OH222522   6.071   5.687   7.687 -0.1046  0.1285  0.4653
  296TIP3    H122523   6.119   5.702   7.768  0.6407 -0.3194  0.1148
  296TIP3    H222524   6.124   5.623   7.639  0.4879  1.7706 -1.2048
  297TIP3   OH222525   4.112   2.535   6.487 -1.0941 -0.2033 -0.4471
  297TIP3    H122526   4.151   2.453   6.516 -0.0081 -0.0024 -1.2745
  297TIP3    H222527   4.085   2.518   6.397 -1.3169  0.1967 -0.4557
  298TIP3   OH222528   0.107   5.035   8.170  0.1245  0.2791 -0.6947
  298TIP3    H122529   0.036   5.090   8.136  1.7202  2.0823 -1.2893
  298TIP3    H222530   0.095   5.038   8.265  0.6085  2.4047 -0.6369
  299TIP3   OH222531   6.889   3.471   8.179  0.3773  0.0097 -0.3197
  299TIP3    H122532   6.921   3.502   8.264 -0.7754  0.8619 -0.1858
  299TIP3    H222533   6.968   3.437   8.136  1.2308  0.8288  0.5311
  300TIP3   OH222534   2.304   3.275   7.931  0.4673 -1.4212 -0.5826
  300TIP3    H122535   2.290   3.181   7.923 -2.0044 -1.1550 -0.0438
  300TIP3    H222536   2.315   3.306   7.841  3.5616 -2.4268 -0.6800
  301TIP3   OH222537   0.017   1.019   0.136  0.0476  0.4094 -0.0232
  301TIP3    H122538  -0.073   1.043   0.114  0.4183  1.0638 -0.9065
  301TIP3    H222539   0.063   1.103   0.139  0.2252  0.3052  2.4884
  302TIP3   OH222540   5.715   5.662   1.077 -0.2087  0.2964  0.1264
  302TIP3    H122541   5.654   5.725   1.039 -0.0162  0.2930 -0.1975
  302TIP3    H222542   5.715   5.589   1.015  0.2634  0.3774  0.0272
  303TIP3   OH222543   3.274   2.558   1.969 -0.4170 -0.1751  0.0600
  303TIP3    H122544   3.218   2.499   1.919 -1.2357  0.2996  0.3876
  303TIP3    H222545   3.213   2.621   2.008  0.3158  0.1440  0.7186
  304TIP3   OH222546   6.245   0.326   7.917  0.4357 -0.3175 -0.3347
  304TIP3    H122547   6.336   0.353   7.924 -0.1861  1.8626  0.3702
  304TIP3    H222548   6.227   0.280   7.999  0.8900 -0.7574 -0.4784
  305TIP3   OH222549   4.306   0.782   8.492  0.0764  0.1561 -0.2401
  305TIP3    H122550   4.303   0.686   8.496  2.1061  0.0966  2.3974
  305TIP3    H222551   4.395   0.802   8.463  0.0465  1.2175  0.3679
  306TIP3   OH222552   3.671   1.666   0.992  0.0156 -0.3743 -0.4047
  306TIP3    H122553   3.750   1.623   0.960  0.7198 -0.5342  1.4234
  306TIP3    H222554   3.671   1.649   1.086 -0.8948  1.7247  0.0315
  307TIP3   OH222555   0.285   5.286   2.194 -0.4215  0.2168 -0.4330
  307TIP3    H122556   0.362   5.302   2.141 -0.6293 -1.1438 -1.1932
  307TIP3    H222557   0.243   5.210   2.154  0.2136 -1.8531  2.4839
  308TIP3   OH222558   6.821   0.658   7.906 -0.6753  0.1876  0.8405
  308TIP3    H122559   6.885   0.707   7.956 -1.3468 -0.1233  2.0532
  308TIP3    H222560   6.849   0.566   7.913  0.4469  0.3030 -1.2224
  309TIP3   OH222561   4.822   0.269   0.744 -0.1461  0.1698  0.5923
  309TIP3    H122562   4.785   0.272   0.832  1.0681 -0.4519  1.1509
  309TIP3    H222563   4.786   0.189   0.705  0.1926 -0.1621  0.9471
  310TIP3   OH222564   3.378   1.666   7.900 -0.3297 -0.4648 -0.1401
  310TIP3    H122565   3.371   1.602   7.829 -0.9953  0.0260 -0.5170
  310TIP3    H222566   3.366   1.751   7.857  2.6710  0.1273 -0.0278
  311TIP3   OH222567   0.377   5.869   1.642  0.6577  0.1589 -0.2958
  311TIP3    H122568   0.373   5.881   1.736 -0.9342  0.5526 -0.3745
  311TIP3    H222569   0.328   5.943   1.606  0.0316 -0.7199 -1.3448
  312TIP3   OH222570   0.497   0.071   7.146  0.4793 -0.3405  0.4221
  312TIP3    H122571   0.581   0.067   7.192  1.3266  0.9397 -0.9079
  312TIP3    H222572   0.456   0.151   7.179  1.8221  1.5262 -2.0417
  313TIP3   OH222573   3.376   4.258   6.876 -0.2322 -0.1091 -0.6334
  313TIP3    H122574   3.410   4.323   6.938  1.6013 -1.0749 -0.5491
  313TIP3    H222575   3.446   4.247   6.812 -0.6276 -1.7371 -0.8342
  314TIP3   OH222576   4.116   2.669   1.809  0.3543  1.2096  0.0249
  314TIP3    H122577   4.183   2.649   1.743 -2.0199  2.0546 -2.8440
  314TIP3    H222578   4.090   2.584   1.843  0.9151  0.6579 -0.8739
  315TIP3   OH222579   0.852   2.359   7.855  0.4218  0.6592  0.2086
  315TIP3    H122580   0.824   2.269   7.836  1.1107  0.3844  0.4511
  315TIP3    H222581   0.801   2.384   7.932  0.1792  0.5015  0.1029
  316TIP3   OH222582   1.788   2.362   0.329  0.0201 -0.0961 -0.3791
  316TIP3    H122583   1.819   2.426   0.393  1.6158  0.2931 -1.4691
  316TIP3    H222584   1.721   2.408   0.280  2.6733  1.7126 -2.6435
  317TIP3   OH222585   4.812   1.051   7.229  0.4335 -0.6142  0.1521
  317TIP3    H122586   4.898   1.022   7.198  0.4861  0.7639 -1.1175
  317TIP3    H222587   4.815   1.146   7.221 -2.1206 -0.6212 -2.5575
  318TIP3   OH222588   0.834   2.888   1.165 -0.4678  0.1018  0.0885
  318TIP3    H122589   0.905   2.882   1.102  1.2728  1.5353  1.8050
  318TIP3    H222590   0.817   2.797   1.191  0.2987 -0.3030 -0.7893
  319TIP3   OH222591   4.020   4.145   1.752  0.9754  0.1598 -0.3365
  319TIP3    H122592   4.104   4.182   1.724  0.7615 -0.5640 -2.0768
  319TIP3    H222593   3.955   4.209   1.723  0.8569  0.4384  0.4972
  320TIP3   OH222594   2.968   2.904   7.579 -0.2281 -0.6148  0.0616
  320TIP3    H122595   2.873   2.904   7.566 -0.3155 -1.1905  0.6054
  320TIP3    H222596   2.980   2.862   7.665  0.4044  1.1134  0.8743
  321TIP3   OH222597   4.793   3.577   8.442  0.2607 -0.5197 -0.0689
  321TIP3    H122598   4.706   3.583   8.404  1.1455  1.2088 -1.9693
  321TIP3    H222599   4.797   3.488   8.478 -2.9522 -0.0083  1.9258
  322TIP3   OH222600   5.985   5.845   6.537 -0.0331  0.3282  0.6258
  322TIP3    H122601   5.974   5.787   6.462  1.2608  1.2800 -0.3502
  322TIP3    H222602   6.056   5.805   6.588 -1.2900 -0.6219  1.6856
  323TIP3   OH222603   3.704   0.278   7.441 -0.5376  0.0342  0.6997
  323TIP3    H122604   3.639   0.214   7.472 -0.9760  0.5661  0.8902
  323TIP3    H222605   3.729   0.327   7.519 -0.0138 -0.0598  0.5994
  324TIP3   OH222606   5.282   1.565   7.756  0.2298 -0.3127 -0.4544
  324TIP3    H122607   5.343   1.636   7.735  0.0250 -0.0174 -0.0613
  324TIP3    H222608   5.329   1.485   7.732  0.0249 -0.0024 -1.9761
  325TIP3   OH222609   2.904   4.665   7.284  0.1746 -0.0084 -0.4110
  325TIP3    H122610   2.867   4.652   7.197 -1.7563  0.0113  0.3582
  325TIP3    H222611   2.871   4.592   7.336  2.1054 -0.5792  0.0945
  326TIP3   OH222612   6.464   5.895   8.207 -0.5990 -0.0532 -0.1608
  326TIP3    H122613   6.462   5.937   8.121  0.3036  0.3843  0.0242
  326TIP3    H222614   6.393   5.938   8.255 -2.1162 -1.3426 -1.1293
  327TIP3   OH222615   1.407   1.045   8.527 -0.5241 -0.2739  0.3425
  327TIP3    H122616   1.362   1.129   8.518  0.7736  0.2898 -1.3557
  327TIP3    H222617   1.368   0.990   8.460  2.5772  0.8842 -2.6731
  328TIP3   OH222618   4.132   4.003   1.992  0.5149  0.1929  0.2111
  328TIP3    H122619   4.082   4.048   1.924 -0.4495 -0.8858  0.1796
  328TIP3    H222620   4.105   3.911   1.984  3.4030 -0.6948 -0.6334
  329TIP3   OH222621   2.785   0.874   0.285  0.2387  0.0163  0.4752
  329TIP3    H122622   2.722   0.817   0.242 -0.0369  1.1716 -0.7169
  329TIP3    H222623   2.861   0.818   0.300 -0.5482 -1.0314  0.6707
  330TIP3   OH222624   5.382   0.792   7.243 -0.2314 -0.4257 -0.3467
  330TIP3    H122625   5.432   0.829   7.315 -0.8800 -0.6821  0.2532
  330TIP3    H222626   5.379   0.698   7.261  0.0944 -0.5760 -1.0253
  331TIP3   OH222627   2.538   5.601   0.232  0.1784  0.1086 -0.7442
  331TIP3    H122628   2.605   5.599   0.300  1.1149  0.3535 -1.6156
  331TIP3    H222629   2.569   5.538   0.167 -0.1487  0.6206 -1.4083
  332TIP3   OH222630   6.564   1.543   7.524 -0.1875  0.0251  0.0215
  332TIP3    H122631   6.633   1.522   7.461  1.2393 -0.2845  1.6132
  332TIP3    H222632   6.542   1.460   7.565 -2.0080  0.0126 -0.9026
  333TIP3   OH222633   1.658   6.230   2.007 -0.4371  0.2146  0.0761
  333TIP3    H122634   1.635   6.169   1.937  1.4466 -0.4559 -0.0237
  333TIP3    H222635   1.613   6.196   2.084 -1.8905  0.5072 -0.6048
  334TIP3   OH222636   1.071   4.405   7.954 -0.0532 -0.0090 -0.1819
  334TIP3    H122637   1.152   4.390   8.002 -0.2120 -1.9995 -0.4382
  334TIP3    H222638   1.088   4.483   7.901  1.1140  0.5336  0.9542
  335TIP3   OH222639   2.629   6.164   8.282 -0.3698 -0.3390  0.0192
  335TIP3    H122640   2.664   6.111   8.354  0.8055 -1.4551 -1.2976
  335TIP3    H222641   2.535   6.169   8.299 -0.0159  0.1347  2.0410
  336TIP3   OH222642   5.950   3.628   2.244  0.9201 -0.0075 -0.3183
  336TIP3    H122643   6.034   3.672   2.247  0.7442  0.4167 -1.2734
  336TIP3    H222644   5.885   3.698   2.252  0.6510 -0.3518  0.6560
  337TIP3   OH222645   6.733   2.495   7.379  0.0412  0.4971 -0.1580
  337TIP3    H122646   6.713   2.408   7.415  0.0843  0.8490  0.7379
  337TIP3    H222647   6.663   2.551   7.412 -0.2707  0.7116 -1.1534
  338TIP3   OH222648   3.385   5.668   1.227 -0.2472  0.6562 -0.2410
  338TIP3    H122649   3.432   5.650   1.146 -1.7785  1.1653 -1.2973
  338TIP3    H222650   3.292   5.666   1.202 -0.7970  0.0729  1.6606
  339TIP3   OH222651   3.227   3.932   6.942  0.6646 -0.1334 -0.5969
  339TIP3    H122652   3.321   3.938   6.960  0.8666 -0.0292 -1.6244
  339TIP3    H222653   3.219   3.862   6.878 -0.1659 -1.3153  0.7414
  340TIP3   OH222654   5.952   4.599   7.237 -0.4850  0.1834  0.5156
  340TIP3    H122655   6.041   4.570   7.218 -0.7466  0.1027 -0.6537
  340TIP3    H222656   5.907   4.522   7.271 -0.1194  0.2248  1.1061
  341TIP3   OH222657   5.415   4.310   0.720  0.1489  0.2966 -0.2259
  341TIP3    H122658   5.449   4.364   0.648 -0.6231  0.1072 -0.7410
  341TIP3    H222659   5.321   4.307   0.705  0.0495 -0.2246  0.4770
  342TIP3   OH222660   6.866   5.265   7.295  0.1177 -1.2814  0.2643
  342TIP3    H122661   6.928   5.266   7.222 -0.3274  0.4915 -0.1389
  342TIP3    H222662   6.918   5.286   7.372  0.2701 -1.3041  0.1665
  343TIP3   OH222663   2.626   5.372   0.839  0.1203 -0.1648  0.1991
  343TIP3    H122664   2.598   5.283   0.857 -0.2314  0.0301  0.6169
  343TIP3    H222665   2.721   5.365   0.825  0.2783 -0.4415  1.3199
  344TIP3   OH222666   0.676   2.054   0.472 -0.3894  0.1273 -0.0188
  344TIP3    H122667   0.681   2.001   0.393 -1.4463  1.3279 -0.9358
  344TIP3    H222668   0.608   2.012   0.525  0.5958 -0.9085  0.4632
  345TIP3   OH222669   6.892   5.229   0.164 -0.2349 -0.2379 -0.2923
  345TIP3    H122670   6.871   5.284   0.239 -0.3411 -1.6972  0.7991
  345TIP3    H222671   6.831   5.155   0.171  0.4361 -0.9056 -1.2331
  346TIP3   OH222672   4.702   5.122   0.822 -0.1626 -1.3772 -0.0056
  346TIP3    H122673   4.688   5.195   0.761 -0.1535 -1.6586 -0.3491
  346TIP3    H222674   4.789   5.089   0.799 -0.1460 -1.4630  0.1857
  347TIP3   OH222675   2.496   1.830   8.604 -0.2713  0.0565 -0.1960
  347TIP3    H122676   2.432   1.831   8.533  1.3688  0.3653 -1.7553
  347TIP3    H222677   2.579   1.851   8.561  0.7668  0.4057  1.8601
  348TIP3   OH222678   5.283   3.965   1.557 -0.3017 -0.1023  0.6255
  348TIP3    H122679   5.257   3.936   1.469  2.0706  1.0307 -0.5398
  348TIP3    H222680   5.317   3.886   1.599  1.8101 -0.0344 -0.8237
  349TIP3   OH222681   5.900   6.549   0.366  0.8444 -0.2080  0.2554
  349TIP3    H122682   5.910   6.528   0.459  1.2644 -0.1787  0.2182
  349TIP3    H222683   5.989   6.564   0.335  0.6961 -0.1112 -0.1288
  350TIP3   OH222684   4.276   2.153   0.183 -0.3227 -0.0222 -0.8924
  350TIP3    H122685   4.246   2.235   0.142 -0.2529  0.5547  0.1671
  350TIP3    H222686   4.198   2.117   0.225 -0.7775 -1.4582 -2.8157
  351TIP3   OH222687   0.904   3.898   6.936  0.0830 -0.2637 -0.2452
  351TIP3    H122688   0.832   3.905   6.999 -0.1426 -0.5039 -0.4743
  351TIP3    H222689   0.939   3.987   6.929 -0.2855 -0.1202 -0.2432
  352TIP3   OH222690   2.845   3.366   7.403  0.1366  0.0298 -0.1063
  352TIP3    H122691   2.880   3.389   7.317  1.2976  1.2785  0.6576
  352TIP3    H222692   2.755   3.399   7.402  0.1964  0.1909 -0.7682
  353TIP3   OH222693   2.084   6.040   6.814 -0.4715 -0.3677 -0.1119
  353TIP3    H122694   2.173   6.009   6.831 -0.1044  0.5481 -0.2698
  353TIP3    H222695   2.080   6.050   6.719 -0.1111  1.2927  0.0028
  354TIP3   OH222696   1.103   2.258   1.632 -0.6797  0.6431  0.3705
  354TIP3    H122697   1.111   2.277   1.725  0.0621 -0.9358  0.6667
  354TIP3    H222698   1.019   2.215   1.623  0.0578 -0.9210  0.6616
  355TIP3   OH222699   2.266   4.242   8.297 -0.2434  0.5652 -0.7288
  355TIP3    H122700   2.185   4.207   8.260 -1.3357  2.5144 -0.3188
  355TIP3    H222701   2.280   4.324   8.249  0.4887  1.1429  0.4414
  356TIP3   OH222702   1.397   6.217   8.044  0.0322 -0.0194 -0.4264
  356TIP3    H122703   1.354   6.156   8.104 -0.6277  0.0564 -0.8200
  356TIP3    H222704   1.491   6.196   8.053 -0.0824 -0.2566  0.3501
  357TIP3   OH222705   0.568   1.276   0.378  0.3302 -0.3358  0.1832
  357TIP3    H122706   0.488   1.248   0.423 -1.4981 -0.5240 -2.8528
  357TIP3    H222707   0.576   1.369   0.397 -0.3036 -0.4390  0.9734
  358TIP3   OH222708   3.592   1.671   8.050 -0.1217  0.4464  0.0337
  358TIP3    H122709   3.644   1.738   8.006  0.9836  0.2652  1.0340
  358TIP3    H222710   3.512   1.665   7.998  0.3422  1.5798 -0.8418
  359TIP3   OH222711   3.168   2.091   1.984 -0.3294  0.0840  0.1429
  359TIP3    H122712   3.179   2.107   2.077 -0.5405  2.3848 -0.1644
  359TIP3    H222713   3.232   2.023   1.963  0.6626  0.5033  1.7138
  360TIP3   OH222714   6.357   0.908   7.328 -0.0409  0.3310 -0.2144
  360TIP3    H122715   6.363   0.927   7.235  0.6691 -0.2305 -0.2913
  360TIP3    H222716   6.430   0.848   7.345 -1.1931 -0.9581  0.3505
  361TIP3   OH222717   3.423   1.843   8.326 -0.0212  0.2254  0.3968
  361TIP3    H122718   3.332   1.864   8.303  0.0370  2.3555  1.7972
  361TIP3    H222719   3.443   1.901   8.399  2.2380 -0.7733  0.6564
  362TIP3   OH222720   2.750   4.734   0.077 -0.1184  0.5528 -0.3495
  362TIP3    H122721   2.783   4.743  -0.012 -0.8108 -1.5948 -0.8747
  362TIP3    H222722   2.656   4.718   0.066  0.0622 -1.4222  0.6265
  363TIP3   OH222723   0.022   3.054   0.775  0.5169 -0.4380 -0.0969
  363TIP3    H122724  -0.043   3.001   0.821  0.7006 -0.0699  0.5988
  363TIP3    H222725   0.003   3.144   0.803  0.0568 -0.0959 -1.4473
  364TIP3   OH222726   1.044   6.183   0.705  0.0856 -0.0313  0.4296
  364TIP3    H122727   1.040   6.158   0.797  1.8925 -2.4131 -0.0042
  364TIP3    H222728   1.082   6.106   0.662 -0.3914  1.1271 -2.2558
  365TIP3   OH222729   3.512   6.601   8.167  0.4917 -0.0333 -0.3158
  365TIP3    H122730   3.556   6.670   8.217 -1.3568  0.6274  0.4621
  365TIP3    H222731   3.582   6.538   8.148  1.9947  1.4793 -0.0814
  366TIP3   OH222732   3.921   4.355   7.447 -0.3739 -0.2962  0.0951
  366TIP3    H122733   3.882   4.365   7.534 -1.4500 -0.2792 -0.3682
  366TIP3    H222734   3.995   4.297   7.460 -1.8709 -2.1639  0.6602
  367TIP3   OH222735   5.245   1.899   7.910 -0.7305  0.2985  0.1144
  367TIP3    H122736   5.288   1.914   7.994 -0.2077  2.3261 -0.4696
  367TIP3    H222737   5.305   1.843   7.862  1.3158  2.9327 -0.6196
  368TIP3   OH222738   3.992   2.223   7.197  0.1304 -0.1934 -0.3879
  368TIP3    H122739   3.969   2.175   7.118  0.8037 -4.3077  1.6386
  368TIP3    H222740   4.087   2.217   7.203  0.1662  0.7490  0.3737
  369TIP3   OH222741   2.743   0.271   7.730 -0.1397  0.5821  0.0521
  369TIP3    H122742   2.732   0.268   7.825 -1.2567 -1.0592 -0.0992
  369TIP3    H222743   2.803   0.345   7.715 -2.4721  2.9858  1.7680
  370TIP3   OH222744   0.304   0.352   1.030  0.8683 -0.2965 -0.1593
  370TIP3    H122745   0.358   0.319   0.959  1.6685 -2.7054  1.4590
  370TIP3    H222746   0.235   0.401   0.987  1.1302 -1.9398 -2.6190
  371TIP3   OH222747   6.620   4.140   7.225 -0.3034  0.5031 -0.3512
  371TIP3    H122748   6.556   4.174   7.287  2.6809  1.2405  2.6188
  371TIP3    H222749   6.678   4.213   7.207  0.8229 -0.5988 -1.4001
  372TIP3   OH222750   0.514   1.789   6.881  0.0087  0.9068 -0.3570
  372TIP3    H122751   0.526   1.713   6.824 -1.2868  0.3629  0.0630
  372TIP3    H222752   0.425   1.819   6.862 -1.6792 -1.0694  3.3816
  373TIP3   OH222753   1.828   6.145   6.310 -0.0455 -0.0413 -0.0823
  373TIP3    H122754   1.792   6.061   6.340  1.1224 -0.5285  0.0261
  373TIP3    H222755   1.844   6.132   6.216 -2.2100  0.9428 -0.6347
  374TIP3   OH222756   3.361   2.139   6.878  0.0082 -0.2523 -0.0741
  374TIP3    H122757   3.409   2.071   6.831 -2.7249 -3.5749  1.5328
  374TIP3    H222758   3.309   2.182   6.810  2.6280  1.2148 -1.2965
  375TIP3   OH222759   2.632   5.357   7.898  0.7166 -0.7434 -0.3294
  375TIP3    H122760   2.677   5.297   7.839  1.1576  0.6631 -1.4734
  375TIP3    H222761   2.697   5.424   7.919  0.6305 -1.2966  1.9581
  376TIP3   OH222762   1.736   4.561   1.738 -0.9774  0.4296  0.3764
  376TIP3    H122763   1.668   4.501   1.768 -0.9469  0.2793  0.1519
  376TIP3    H222764   1.742   4.627   1.806 -1.5363  0.5944  0.2695
  377TIP3   OH222765   3.359   0.222   8.528  0.5534 -0.4744 -0.4669
  377TIP3    H122766   3.367   0.289   8.596  1.8927 -2.4897  1.4806
  377TIP3    H222767   3.264   0.212   8.515  0.1473 -1.3666  2.5528
  378TIP3   OH222768   1.795   2.085   6.936 -0.2580 -0.5840 -0.8163
  378TIP3    H122769   1.809   2.143   7.011  0.4042  0.4616 -1.7100
  378TIP3    H222770   1.844   2.006   6.957 -1.5046 -1.0182  0.6035
  379TIP3   OH222771   5.566   2.450   7.163 -0.3747 -0.7489 -0.6562
  379TIP3    H122772   5.539   2.401   7.086  0.6526 -0.4274 -1.2457
  379TIP3    H222773   5.653   2.416   7.184  0.5193  1.0143 -1.2888
  380TIP3   OH222774   3.007   5.684   7.272 -0.7528 -0.1926 -0.3089
  380TIP3    H122775   3.049   5.645   7.196 -0.2761 -0.1340 -0.0798
  380TIP3    H222776   3.080   5.712   7.328 -1.0925 -0.5318  0.3177
  381TIP3   OH222777   3.621   2.336   0.407  0.1496  0.7102 -0.1557
  381TIP3    H122778   3.706   2.291   0.405  0.4687  1.2095  1.0147
  381TIP3    H222779   3.627   2.394   0.483 -1.2467  0.7648 -0.0673
  382TIP3   OH222780   1.359   1.527   1.707 -0.0044  0.9796 -0.0310
  382TIP3    H122781   1.320   1.594   1.650 -0.1913  1.0970  0.2350
  382TIP3    H222782   1.449   1.518   1.675 -1.2122 -2.1216 -3.3292
  383TIP3   OH222783   2.850   1.507   8.544  0.0711  0.2974 -0.9530
  383TIP3    H122784   2.772   1.488   8.491  0.8370 -0.9605 -1.6995
  383TIP3    H222785   2.921   1.511   8.480  1.1014 -1.7520 -0.0204
  384TIP3   OH222786   4.862   3.441   1.429 -0.0707 -0.1030  0.0889
  384TIP3    H122787   4.827   3.458   1.516 -2.1704 -1.4393 -0.4286
  384TIP3    H222788   4.881   3.347   1.429 -0.5708 -0.2186 -1.0485
  385TIP3   OH222789   5.017   5.614   1.682 -0.6610  0.4413  0.1966
  385TIP3    H122790   4.982   5.676   1.619 -0.5037  0.6925  0.3541
  385TIP3    H222791   4.990   5.528   1.650 -0.3587  0.5464 -0.3521
  386TIP3   OH222792   6.447   2.861   0.567  0.5084 -0.5853  0.3243
  386TIP3    H122793   6.542   2.852   0.561  0.9129  2.0661  1.6000
  386TIP3    H222794   6.426   2.932   0.508 -0.3991  0.1657  1.5154
  387TIP3   OH222795   2.520   1.723   7.861 -0.4313 -0.0820 -0.1160
  387TIP3    H122796   2.521   1.764   7.774 -0.1165  1.3484  0.5285
  387TIP3    H222797   2.569   1.642   7.850 -1.2664 -0.4442 -1.4968
  388TIP3   OH222798   0.112   1.554   7.372 -0.3419  0.6221  0.2950
  388TIP3    H122799   0.087   1.539   7.281  1.9992  0.3721 -0.3853
  388TIP3    H222800   0.074   1.639   7.394  0.3992  1.4611 -1.4855
  389TIP3   OH222801   6.213   4.246   7.256  0.5149  0.4245  0.1737
  389TIP3    H122802   6.144   4.217   7.316  1.1356  0.3094  0.8445
  389TIP3    H222803   6.215   4.179   7.188 -0.4753  0.7676 -0.2266
  390TIP3   OH222804   5.642   5.461   0.425  0.0526  0.1454 -0.0873
  390TIP3    H122805   5.555   5.499   0.437 -0.4819 -1.0862  0.1078
  390TIP3    H222806   5.626   5.374   0.390  1.1275 -0.6159  1.1786
  391TIP3   OH222807   4.984   0.323   7.841  0.1138 -0.5222  0.3924
  391TIP3    H122808   4.967   0.307   7.748  2.0664 -0.5599  0.0082
  391TIP3    H222809   4.961   0.241   7.884 -0.0922 -0.7551 -0.1434
  392TIP3   OH222810   0.027   4.940   7.905 -0.1031 -0.0678  0.0028
  392TIP3    H122811   0.053   4.967   7.993  1.1137  1.4362 -0.7837
  392TIP3    H222812  -0.002   4.850   7.916 -0.6309  0.2964  2.0604
  393TIP3   OH222813   3.285   6.805   5.929  0.1626  0.3826  0.5122
  393TIP3    H122814   3.225   6.844   5.993 -0.6283 -0.3540  0.2486
  393TIP3    H222815   3.368   6.849   5.943 -0.5047  1.5994  0.7389
  394TIP3   OH222816   0.909   6.053   8.496 -0.7865 -0.5272  0.3731
  394TIP3    H122817   0.923   6.140   8.461 -0.2050 -0.6952  0.1888
  394TIP3    H222818   0.871   6.003   8.423 -0.1842 -0.7000  0.1771
  395TIP3   OH222819   6.218   3.562   6.329 -0.5600  0.7464 -0.0332
  395TIP3    H122820   6.232   3.467   6.324 -0.2565  0.7897 -0.0237
  395TIP3    H222821   6.149   3.580   6.265 -0.5159  0.5402 -0.1379
  396TIP3   OH222822   2.441   0.472   0.410  0.5390 -0.5691  0.0884
  396TIP3    H122823   2.351   0.446   0.391  1.0874 -1.9851 -0.7156
  396TIP3    H222824   2.433   0.532   0.484 -1.2502  1.2111 -1.4373
  397TIP3   OH222825   0.680   3.324   1.343  0.9302  0.0785 -0.1230
  397TIP3    H122826   0.710   3.338   1.433 -0.4979  0.3132  0.3584
  397TIP3    H222827   0.696   3.408   1.299  0.5183  0.3775  0.2757
  398TIP3   OH222828   5.255   0.294   7.349  0.0760  0.0928  0.2666
  398TIP3    H122829   5.302   0.213   7.371  0.3996 -0.0236 -0.8135
  398TIP3    H222830   5.183   0.265   7.293 -1.2054  0.2895  1.7454
  399TIP3   OH222831   0.351   4.437   8.605  0.0108 -0.0336  0.0153
  399TIP3    H122832   0.376   4.419   8.696 -0.1019  0.7297  0.1990
  399TIP3    H222833   0.348   4.532   8.598  1.4908 -0.0358 -1.1873
  400TIP3   OH222834   4.191   4.866   7.653  0.2703 -0.3882 -0.1976
  400TIP3    H122835   4.108   4.826   7.625 -0.7373  1.7520 -0.4716
  400TIP3    H222836   4.254   4.794   7.650 -1.9213 -2.5923  1.9203
  401TIP3   OH222837   3.551   4.595   0.901 -0.1495 -0.1826 -0.0390
  401TIP3    H122838   3.508   4.637   0.976 -0.5091  3.3664 -2.0457
  401TIP3    H222839   3.641   4.627   0.904  0.3666 -1.5490 -0.1331
  402TIP3   OH222840   0.836   3.021   1.429 -0.8211 -0.7919  0.3028
  402TIP3    H122841   0.872   2.943   1.471 -2.0145 -0.9752  1.0356
  402TIP3    H222842   0.824   2.996   1.338 -0.0406 -1.0428  0.2599
  403TIP3   OH222843   3.040   5.033   1.534  0.6039  0.3280  0.5783
  403TIP3    H122844   3.063   4.943   1.556  0.9740  0.6170  1.4350
  403TIP3    H222845   2.946   5.030   1.512  0.8206 -0.4063 -0.2952
  404TIP3   OH222846   3.008   0.572   1.917 -0.2359 -0.9038 -0.1795
  404TIP3    H122847   3.043   0.513   1.983  1.0890  0.0507  0.0095
  404TIP3    H222848   3.079   0.580   1.852  0.2724  1.6604  0.5849
  405TIP3   OH222849   1.593   6.764   7.995  0.0426  0.1904 -0.2280
  405TIP3    H122850   1.571   6.731   8.082 -0.3732  1.3860  0.1446
  405TIP3    H222851   1.687   6.746   7.986 -0.1409 -0.9251  0.0154
  406TIP3   OH222852   2.599   6.742   7.869  0.2782 -0.1673 -0.7578
  406TIP3    H122853   2.553   6.808   7.817 -0.7122  0.0763  0.3682
  406TIP3    H222854   2.609   6.667   7.810  0.3799  0.5735 -1.6971
  407TIP3   OH222855   4.911   3.598   7.625 -0.2677  0.3144  0.1521
  407TIP3    H122856   4.996   3.558   7.641 -0.2947  0.3721  0.4351
  407TIP3    H222857   4.921   3.689   7.651  0.4774  1.1316 -2.6297
  408TIP3   OH222858   3.410   3.417   0.985  0.4299  0.0618 -0.0901
  408TIP3    H122859   3.335   3.476   0.998 -0.6320 -1.2807  0.1500
  408TIP3    H222860   3.485   3.466   1.018  0.0228  2.2534 -2.1708
  409TIP3   OH222861   2.742   6.401   6.552 -0.5858 -0.1127 -0.1270
  409TIP3    H122862   2.723   6.477   6.606  0.0394  0.0920 -0.1870
  409TIP3    H222863   2.798   6.346   6.608 -1.2145 -0.6406  0.0014
  410TIP3   OH222864   3.675   4.793   1.189  0.3106 -0.1404  0.0568
  410TIP3    H122865   3.692   4.806   1.096 -1.6139  0.5961 -0.2368
  410TIP3    H222866   3.723   4.863   1.232 -0.1242  0.5194 -0.5223
  411TIP3   OH222867   5.598   1.766   2.385  0.0107  0.4728  0.4014
  411TIP3    H122868   5.587   1.826   2.311 -3.0625  0.6044  0.8096
  411TIP3    H222869   5.681   1.791   2.425  0.7182  1.7893 -1.7515
  412TIP3   OH222870   0.104   4.735   2.238  0.3257 -0.2355  0.0739
  412TIP3    H122871   0.101   4.640   2.228 -1.3356 -0.1342 -0.6843
  412TIP3    H222872   0.194   4.753   2.267  0.4971 -2.0656  0.8024
  413TIP3   OH222873   3.252   6.659   8.065  0.4480 -0.1795  0.5344
  413TIP3    H122874   3.318   6.648   8.133  0.8080  0.1875  0.2529
  413TIP3    H222875   3.301   6.694   7.990 -0.1533  0.6174  0.4986
  414TIP3   OH222876   4.008   6.549   0.320  0.2969  1.0030  0.0957
  414TIP3    H122877   4.096   6.526   0.351  0.0913  0.4197  0.2697
  414TIP3    H222878   3.986   6.479   0.259 -0.6118  0.3568  1.1311
  415TIP3   OH222879   1.777   3.010   1.875  0.4302 -0.1194 -0.5244
  415TIP3    H122880   1.706   2.952   1.903  1.0966 -1.0965 -0.7682
  415TIP3    H222881   1.761   3.093   1.919 -1.4783  0.0391 -1.4365
  416TIP3   OH222882   0.767   5.744   0.943  0.5557  0.4100  0.5720
  416TIP3    H122883   0.740   5.702   1.025  0.9275 -2.6497 -0.7295
  416TIP3    H222884   0.695   5.727   0.883  0.8777  1.4060 -0.1103
  417TIP3   OH222885   5.735   4.700   0.640 -0.1538 -0.1944  0.1267
  417TIP3    H122886   5.674   4.650   0.695  2.3650 -1.3693  2.0524
  417TIP3    H222887   5.711   4.792   0.656 -1.2272 -0.6030  1.0597
  418TIP3   OH222888   0.622   6.402   0.432  0.2998  0.1838  0.2137
  418TIP3    H122889   0.694   6.370   0.485 -0.5803  0.2066  1.4700
  418TIP3    H222890   0.566   6.450   0.493 -0.2720  1.0132 -0.9192
  419TIP3   OH222891   2.195   5.963   8.379  0.0318  0.1130 -0.2408
  419TIP3    H122892   2.117   5.941   8.327 -0.2245  1.6459 -0.5524
  419TIP3    H222893   2.166   5.954   8.470  0.4260 -2.3969 -0.2811
  420TIP3   OH222894   5.991   0.865   7.800  0.8337  0.1415  0.1952
  420TIP3    H122895   5.973   0.942   7.748  0.2726 -1.2405 -1.7581
  420TIP3    H222896   6.051   0.896   7.869  2.2086  1.9010 -1.6772
  421TIP3   OH222897   1.835   1.974   7.599  0.0267  0.4941  0.2767
  421TIP3    H122898   1.780   1.903   7.565  2.7045 -1.8213  0.4072
  421TIP3    H222899   1.903   1.985   7.533  0.5537  1.8503  1.0195
  422TIP3   OH222900   6.553   5.272   6.501  0.1194  0.0607  0.3878
  422TIP3    H122901   6.572   5.188   6.459 -0.5661 -0.1158  0.4284
  422TIP3    H222902   6.471   5.300   6.462 -0.9033 -0.4280  2.0775
  423TIP3   OH222903   0.639   3.767   6.547 -0.4657 -0.6319 -0.6065
  423TIP3    H122904   0.620   3.675   6.562 -0.1911 -0.9518 -2.0279
  423TIP3    H222905   0.714   3.767   6.487 -0.9791  0.4826 -1.2998
  424TIP3   OH222906   2.384   3.428   8.512 -0.1042 -0.3372 -0.3815
  424TIP3    H122907   2.357   3.444   8.421  0.3258 -0.9323 -0.6213
  424TIP3    H222908   2.451   3.360   8.505  0.7491  0.4164  0.2894
  425TIP3   OH222909   1.660   5.559   8.039 -0.6169  0.8687 -0.4602
  425TIP3    H122910   1.609   5.625   8.085  2.1255  1.8187  1.5161
  425TIP3    H222911   1.726   5.608   7.991  0.9008 -0.3298  0.2867
  426TIP3   OH222912   1.354   3.229   1.291  0.2465 -0.9666  0.3784
  426TIP3    H122913   1.335   3.289   1.220  0.6259 -0.6832  0.5132
  426TIP3    H222914   1.325   3.275   1.370 -0.6421 -1.4839  0.3719
  427TIP3   OH222915   3.920   1.249   7.065 -0.4499 -0.1138  0.6496
  427TIP3    H122916   3.993   1.293   7.021  1.5706 -2.8195  1.0223
  427TIP3    H222917   3.944   1.252   7.158 -0.5493 -1.4396  0.7313
  428TIP3   OH222918   4.161   1.682   1.024 -0.0143 -0.0512  0.6446
  428TIP3    H122919   4.148   1.675   0.929  0.6911 -1.9858  0.6507
  428TIP3    H222920   4.147   1.593   1.056  0.4810  0.4341  2.2716
  429TIP3   OH222921   5.471   4.894   1.659  0.4425  0.5031  0.7743
  429TIP3    H122922   5.402   4.884   1.594  1.8270 -1.0457 -0.5485
  429TIP3    H222923   5.478   4.808   1.700 -0.5497  1.4927  3.2256
  430TIP3   OH222924   5.562   4.518   1.080 -0.1415 -0.2895  0.0412
  430TIP3    H122925   5.586   4.460   1.152  1.2839  1.3140  0.9253
  430TIP3    H222926   5.638   4.517   1.022  0.9657  2.4188  1.2690
  431TIP3   OH222927   4.449   5.168   7.832 -0.7065 -0.5076  0.0839
  431TIP3    H122928   4.485   5.134   7.914  2.2804 -0.2732 -0.9913
  431TIP3    H222929   4.501   5.125   7.764 -2.0092  0.5012 -1.6224
  432TIP3   OH222930   3.506   3.922   7.008 -0.0945 -0.1094  0.4607
  432TIP3    H122931   3.575   3.860   7.031 -0.0968  0.1462  1.1643
  432TIP3    H222932   3.532   3.955   6.922  0.9203  0.3441  0.9272
  433TIP3   OH222933   3.380   6.518   6.922 -0.6689  0.0141 -0.0488
  433TIP3    H122934   3.327   6.439   6.908 -1.5269  0.8354 -1.7487
  433TIP3    H222935   3.444   6.517   6.851  0.2614  0.1226  0.7680
  434TIP3   OH222936   5.806   4.610   1.294  0.1869 -0.2867 -0.4273
  434TIP3    H122937   5.764   4.641   1.214  1.9435  0.4362 -1.1166
  434TIP3    H222938   5.870   4.677   1.315  0.5769 -1.0463  0.9346
  435TIP3   OH222939   0.252   0.908   0.555 -0.2682  0.4444  0.2221
  435TIP3    H122940   0.247   0.948   0.642 -0.4443  0.2506  0.2998
  435TIP3    H222941   0.162   0.906   0.524 -0.4513 -1.2023  0.8049
  436TIP3   OH222942   2.890   1.955   0.443  0.8711 -0.2018  0.1837
  436TIP3    H122943   2.948   1.961   0.367  0.8206  1.5068  0.2296
  436TIP3    H222944   2.824   2.022   0.428 -0.5826 -1.5017  0.5779
  437TIP3   OH222945   6.531   2.669   6.104 -0.1065  0.6865 -0.0414
  437TIP3    H122946   6.581   2.693   6.026 -0.6526  2.3073  0.0704
  437TIP3    H222947   6.548   2.739   6.166  1.4883 -1.2843  1.9119
  438TIP3   OH222948   2.765   3.178   1.351  0.0163 -0.1213 -0.1037
  438TIP3    H122949   2.811   3.136   1.423  1.4754 -0.3412 -1.1149
  438TIP3    H222950   2.781   3.271   1.362 -0.5127 -0.0850  0.3521
  439TIP3   OH222951   6.551   1.912   8.021 -0.1431  0.3567  0.2528
  439TIP3    H122952   6.563   1.944   7.931 -2.5354 -0.2964 -0.3608
  439TIP3    H222953   6.498   1.832   8.011 -0.2372  0.1260  2.2374
  440TIP3   OH222954   4.382   4.763   8.028  0.2109 -0.1213 -0.5549
  440TIP3    H122955   4.320   4.801   8.090  0.8917  0.7228 -0.3839
  440TIP3    H222956   4.330   4.697   7.981 -0.7288  0.3306 -0.1853
  441TIP3   OH222957   4.661   5.563   6.951 -0.2824  0.4382 -0.4607
  441TIP3    H122958   4.658   5.494   6.884 -1.8359  0.7759 -0.7691
  441TIP3    H222959   4.648   5.516   7.033  0.4423  0.1651 -0.4919
  442TIP3   OH222960   0.234   3.166   7.223  0.5261  0.1305  0.4053
  442TIP3    H122961   0.148   3.148   7.261  0.6554 -1.1019  0.1648
  442TIP3    H222962   0.226   3.252   7.183 -0.8316 -0.2827 -0.2556
  443TIP3   OH222963   5.303   1.337   1.148  0.0781  0.2469  0.2501
  443TIP3    H122964   5.282   1.243   1.155 -0.0604  0.3098  0.6726
  443TIP3    H222965   5.218   1.380   1.138  0.1289  0.3471  0.2519
  444TIP3   OH222966   0.299   5.195   6.490 -0.3605  0.0621  0.1076
  444TIP3    H122967   0.224   5.141   6.467  0.2779 -0.4307 -0.9344
  444TIP3    H222968   0.296   5.268   6.427  0.1019 -0.0375 -0.0342
  445TIP3   OH222969   5.434   2.576   8.631 -0.2578  0.0348 -0.1184
  445TIP3    H122970   5.479   2.626   8.563  0.8826 -0.8234 -0.0129
  445TIP3    H222971   5.442   2.629   8.710 -0.2483  0.3177 -0.3103
  446TIP3   OH222972   0.755   5.587   7.458 -0.0284 -0.1857 -0.1926
  446TIP3    H122973   0.777   5.666   7.507  1.1096 -1.1367  0.8991
  446TIP3    H222974   0.793   5.600   7.371 -0.3082  0.6671 -0.1946
  447TIP3   OH222975   5.357   6.015   6.549  0.2454 -0.3985  0.5009
  447TIP3    H122976   5.352   6.111   6.555 -1.2032 -0.4367  0.3558
  447TIP3    H222977   5.301   5.994   6.474  0.4951 -1.3710  0.5837
  448TIP3   OH222978   5.795   3.878   2.229 -0.1768 -0.5650  0.0964
  448TIP3    H122979   5.754   3.961   2.252 -0.6506 -0.5237 -0.8465
  448TIP3    H222980   5.837   3.895   2.144 -0.1937 -1.2625 -0.0567
  449TIP3   OH222981   3.681   5.485   8.411  0.1415 -0.0297 -0.1742
  449TIP3    H122982   3.768   5.484   8.372  0.6321  1.1032  0.8198
  449TIP3    H222983   3.632   5.549   8.359  0.0467 -0.3232 -0.4454
  450TIP3   OH222984   4.663   1.781   6.938 -0.2932  0.2924  0.1483
  450TIP3    H122985   4.757   1.783   6.923 -0.0181  0.2317  1.6732
  450TIP3    H222986   4.626   1.743   6.858  0.8457  1.4752 -0.9673
  451TIP3   OH222987   3.716   2.644   2.597  0.4805  0.1278  0.6487
  451TIP3    H122988   3.653   2.698   2.549 -0.8318 -1.4579  0.4655
  451TIP3    H222989   3.792   2.639   2.539  0.4762  1.4416  0.5135
  452TIP3   OH222990   0.360   0.214   6.178 -0.1494 -0.1985  0.1311
  452TIP3    H122991   0.339   0.289   6.233 -1.6377 -0.6122  0.1699
  452TIP3    H222992   0.451   0.193   6.199  0.5138  1.9758 -0.3727
  453TIP3   OH222993   5.884   0.382   1.143 -0.3390 -0.0422 -0.6669
  453TIP3    H122994   5.907   0.458   1.090  1.9366 -0.3308 -0.2037
  453TIP3    H222995   5.836   0.324   1.084  0.6077  0.4129 -1.9150
  454TIP3   OH222996   2.407   3.115   8.516 -0.6839 -0.3496  0.0205
  454TIP3    H122997   2.478   3.054   8.533 -0.6191 -0.3902 -0.3898
  454TIP3    H222998   2.371   3.135   8.603  0.8285  0.8874  0.4143
  455TIP3   OH222999   0.544   0.021   0.017 -0.1085 -0.3122  0.2667
  455TIP3    H123000   0.535   0.069  -0.066  3.0513 -1.5385 -0.9084
  455TIP3    H223001   0.495   0.074   0.080 -0.6485  1.9441 -1.8869
  456TIP3   OH223002   6.296   2.355   6.738 -1.1167  0.2061 -0.0394
  456TIP3    H123003   6.229   2.311   6.687 -1.3964  0.7245 -0.1242
  456TIP3    H223004   6.247   2.413   6.797 -0.8187 -0.5534  0.9920
  457TIP3   OH223005   5.156   4.645   1.273 -0.0446  0.4504  0.3165
  457TIP3    H123006   5.143   4.593   1.352 -0.9213  0.6524  0.3133
  457TIP3    H223007   5.103   4.602   1.206 -2.3371  2.3556  0.7771
  458TIP3   OH223008   2.486   1.230   1.532  0.0237  0.0226  0.7384
  458TIP3    H123009   2.477   1.304   1.591  1.4303  0.1236  0.8542
  458TIP3    H223010   2.580   1.223   1.515 -0.2869 -0.3238 -1.0788
  459TIP3   OH223011   5.107   1.279   8.570  0.1630  0.0072  0.4376
  459TIP3    H123012   5.120   1.345   8.501 -2.5916  0.3815  0.1685
  459TIP3    H223013   5.102   1.196   8.523 -0.6093  0.1335  0.2837
  460TIP3   OH223014   5.478   5.748   2.234  0.4765  0.6506 -0.3809
  460TIP3    H123015   5.441   5.664   2.259  1.8968  0.5141  1.5379
  460TIP3    H223016   5.403   5.804   2.216 -0.5009 -0.8450 -1.0949
  461TIP3   OH223017   6.009   0.391   0.305 -0.2463  0.1087 -0.1041
  461TIP3    H123018   5.961   0.452   0.250  0.5648  0.8807  0.0057
  461TIP3    H223019   6.001   0.306   0.262 -0.9435  0.4015 -0.5496
  462TIP3   OH223020   1.096   5.695   6.259  0.7295 -0.7033  0.2740
  462TIP3    H123021   1.149   5.732   6.330  0.4519 -1.0457  0.6650
  462TIP3    H223022   1.006   5.716   6.282  0.7172  0.4242 -0.7092
  463TIP3   OH223023   5.431   3.149   6.752  0.2241  0.1318 -0.0195
  463TIP3    H123024   5.389   3.063   6.749 -0.6805  0.4436  1.8834
  463TIP3    H223025   5.368   3.208   6.711  0.0882  0.1462  0.2083
  464TIP3   OH223026   0.450   1.723   8.394  0.2169 -0.3086 -1.4026
  464TIP3    H123027   0.437   1.674   8.475  2.8525  0.2768 -0.5193
  464TIP3    H223028   0.380   1.789   8.395 -1.9006 -2.3952 -1.4230
  465TIP3   OH223029   4.608   3.528   7.007 -0.7475  0.1333  0.1673
  465TIP3    H123030   4.589   3.462   7.074 -0.6029 -1.3364 -1.1750
  465TIP3    H223031   4.522   3.555   6.975 -0.7872 -0.5443 -0.3197
  466TIP3   OH223032   0.864   1.171   8.327 -0.9405 -0.0748  0.2780
  466TIP3    H123033   0.805   1.239   8.295  1.1496  1.6742 -0.1004
  466TIP3    H223034   0.914   1.214   8.397  1.7997 -0.4962 -1.2745
  467TIP3   OH223035   3.416   0.594   7.455 -0.5426 -0.2901  0.5428
  467TIP3    H123036   3.460   0.542   7.388 -1.2080 -1.7117  1.1681
  467TIP3    H223037   3.403   0.679   7.414  0.9199 -0.4695 -0.3819
  468TIP3   OH223038   0.801   0.852   0.317 -0.3546 -0.1906  0.2076
  468TIP3    H123039   0.723   0.839   0.371  0.0509 -0.4524  0.7431
  468TIP3    H223040   0.776   0.817   0.231 -1.1220  0.5439  0.1122
  469TIP3   OH223041   1.237   3.241   1.795 -0.1590  0.0455  0.5509
  469TIP3    H123042   1.159   3.207   1.838 -0.5856  0.4903  0.1390
  469TIP3    H223043   1.249   3.186   1.718 -0.6867  0.6259  0.0383
  470TIP3   OH223044   3.464   5.319   0.933 -0.3652  0.7778  0.4250
  470TIP3    H123045   3.497   5.402   0.968 -2.2783  0.9059  2.1057
  470TIP3    H223046   3.380   5.342   0.893 -1.3986 -0.4749  1.7917
  471TIP3   OH223047   3.381   2.350   7.997 -0.1361 -0.0854  0.0025
  471TIP3    H123048   3.325   2.398   8.059  1.1095  0.0182  1.1053
  471TIP3    H223049   3.360   2.258   8.013 -0.6573 -0.0187 -0.2664
  472TIP3   OH223050   4.220   5.372   1.606 -0.5407 -0.3406 -0.5334
  472TIP3    H123051   4.192   5.312   1.537 -0.7808 -3.2457  1.8694
  472TIP3    H223052   4.142   5.424   1.626 -0.3635  0.8128 -2.5721
  473TIP3   OH223053   3.717   6.074   1.770  0.4105 -0.0004  0.8010
  473TIP3    H123054   3.757   6.156   1.799  2.0255  0.7290 -2.9601
  473TIP3    H223055   3.636   6.101   1.726  1.7463 -0.0865 -1.8981
  474TIP3   OH223056   0.588   5.837   7.725  0.5568  0.3816  0.0600
  474TIP3    H123057   0.540   5.844   7.643  0.9602  0.0849 -0.2058
  474TIP3    H223058   0.554   5.757   7.766  1.2150 -0.1303 -0.3886
  475TIP3   OH223059   1.204   2.297   1.906 -0.1090  0.4565 -0.2256
  475TIP3    H123060   1.292   2.299   1.944 -1.2372 -1.4616  2.8294
  475TIP3    H223061   1.162   2.222   1.947 -3.4831  1.8052 -0.9002
  476TIP3   OH223062   3.178   3.480   1.568  0.2140  0.4413  0.1216
  476TIP3    H123063   3.272   3.498   1.566  0.1642  0.6791 -1.0102
  476TIP3    H223064   3.170   3.390   1.535  0.0818  0.2373  0.7069
  477TIP3   OH223065   6.314   0.480   6.868 -0.1545 -0.1459  0.2121
  477TIP3    H123066   6.342   0.478   6.777 -1.5091  0.3042 -0.2243
  477TIP3    H223067   6.233   0.430   6.870  0.0555 -0.4827  1.2541
  478TIP3   OH223068   3.562   6.432   7.323  0.3145  0.0432 -0.0599
  478TIP3    H123069   3.547   6.359   7.263 -0.9422  0.7005 -0.5920
  478TIP3    H223070   3.526   6.508   7.278 -1.5912  0.4053  1.9201
  479TIP3   OH223071   0.963   3.202   1.847  0.4345 -0.0560 -0.1921
  479TIP3    H123072   0.929   3.154   1.922 -1.6862 -1.0249 -1.6775
  479TIP3    H223073   0.951   3.294   1.870 -0.1324 -0.3367  0.6750
  480TIP3   OH223074   6.063   5.672   8.018 -0.3000  0.4164 -0.1193
  480TIP3    H123075   6.095   5.639   8.102 -0.5248 -1.5256 -0.7508
  480TIP3    H223076   5.967   5.668   8.026 -0.3368  1.0075 -0.1946
  481TIP3   OH223077   5.540   5.844   7.729  0.1816 -0.0716  0.5518
  481TIP3    H123078   5.482   5.840   7.805  0.3065 -1.2811  0.6133
  481TIP3    H223079   5.587   5.760   7.730 -0.1010 -0.2970 -1.0704
  482TIP3   OH223080   2.816   1.485   7.668 -0.8621 -0.3357  0.3307
  482TIP3    H123081   2.789   1.495   7.760  0.3501  3.1121  0.4596
  482TIP3    H223082   2.911   1.470   7.673 -0.7261  0.2652 -0.3463
  483TIP3   OH223083   0.354   5.858   8.283 -0.1909 -0.6778 -0.3746
  483TIP3    H123084   0.421   5.790   8.290  1.3586  0.8210  0.0821
  483TIP3    H223085   0.337   5.865   8.189 -0.5649 -1.8274 -0.4157
  484TIP3   OH223086   6.370   5.547   7.307 -0.5596  0.0020  0.0144
  484TIP3    H123087   6.462   5.525   7.318 -0.3818  0.7634  0.1607
  484TIP3    H223088   6.369   5.610   7.235 -0.6790  1.6898  1.4196
  485TIP3   OH223089   1.541   1.834   7.211 -0.1197 -0.3084  0.3855
  485TIP3    H123090   1.480   1.760   7.212 -2.6319  1.5587 -1.0665
  485TIP3    H223091   1.489   1.907   7.243  2.3895  0.8394  2.1448
  486TIP3   OH223092   5.565   0.942   6.217 -0.0379  0.3896  0.3717
  486TIP3    H123093   5.531   1.025   6.185  0.2253  0.6115  0.6644
  486TIP3    H223094   5.659   0.947   6.202 -0.1774 -0.4059 -0.8521
  487TIP3   OH223095   1.840   1.783   8.618  0.0879  0.0198 -0.1380
  487TIP3    H123096   1.869   1.805   8.707 -2.1633  0.4897  0.5385
  487TIP3    H223097   1.851   1.865   8.569 -0.8445  0.4294  0.3232
  488TIP3   OH223098   5.183   4.628   6.794  1.1708 -0.3474 -0.5229
  488TIP3    H123099   5.137   4.690   6.738  1.5117  0.1878 -0.2259
  488TIP3    H223100   5.144   4.640   6.881  1.9165  0.1712 -0.2519
  489TIP3   OH223101   0.635   4.097   6.863 -0.5428  0.2479  0.6880
  489TIP3    H123102   0.577   4.034   6.819  0.1262 -0.9481  1.4615
  489TIP3    H223103   0.701   4.120   6.798 -0.4987 -0.2530  0.5551
  490TIP3   OH223104   5.878   2.311   7.448  0.2680  0.1827  0.1712
  490TIP3    H123105   5.868   2.316   7.543 -0.3701 -0.9266  0.1765
  490TIP3    H223106   5.804   2.362   7.414 -0.5299 -0.8544  0.2809
  491TIP3   OH223107   1.732   1.845   6.657 -0.3426  0.1400  0.1260
  491TIP3    H123108   1.821   1.811   6.649  0.1548  1.4987 -0.3240
  491TIP3    H223109   1.705   1.822   6.746  0.2752 -0.6888  0.1087
  492TIP3   OH223110   0.293   0.969   0.848 -0.2119  0.2206 -0.5100
  492TIP3    H123111   0.276   0.952   0.941 -1.3610  2.3837 -0.2654
  492TIP3    H223112   0.388   0.964   0.840  0.0947  1.9932  1.2643
  493TIP3   OH223113   3.652   3.441   7.635  0.0045  0.6864  0.0204
  493TIP3    H123114   3.658   3.449   7.730 -2.5746  1.5753  0.1831
  493TIP3    H223115   3.696   3.519   7.602  1.3049  0.1560  0.4257
  494TIP3   OH223116   3.910   1.686   1.204 -0.5020 -0.0412 -0.1582
  494TIP3    H123117   3.991   1.727   1.173 -0.7301  0.2482 -0.3771
  494TIP3    H223118   3.912   1.697   1.299  0.9581 -2.2912  0.1511
  495TIP3   OH223119   3.133   0.982   7.383  0.5089  0.3376 -0.1963
  495TIP3    H123120   3.041   0.967   7.405  0.6705  1.9743  1.8408
  495TIP3    H223121   3.130   1.033   7.302 -0.3930  0.8984  0.1823
  496TIP3   OH223122   0.095   4.670   0.266  0.1288  0.2361 -0.0253
  496TIP3    H123123   0.149   4.620   0.327  3.1823  2.2368 -0.8251
  496TIP3    H223124   0.072   4.750   0.313  1.7998  1.4177 -1.1061
  497TIP3   OH223125   5.463   3.054   0.212  0.0262  0.8564 -0.2398
  497TIP3    H123126   5.522   2.982   0.236 -0.0811  0.4090 -1.2465
  497TIP3    H223127   5.442   3.037   0.120 -1.1726  1.3679 -0.0767
  498TIP3   OH223128   4.219   1.827   1.353 -0.2212  0.1422 -0.5745
  498TIP3    H123129   4.134   1.829   1.397  0.0985 -1.7038  0.2043
  498TIP3    H223130   4.278   1.786   1.416  1.2979  1.4123 -1.0908
  499TIP3   OH223131   4.905   4.317   8.292 -0.7275  0.4093 -0.2367
  499TIP3    H123132   4.874   4.404   8.313  0.7326  0.3430  2.6001
  499TIP3    H223133   4.960   4.329   8.214 -1.3727  1.7992 -0.5035
  500TIP3   OH223134   4.795   6.604   0.919 -0.7162  0.6272  0.0778
  500TIP3    H123135   4.733   6.596   0.992 -0.1705 -0.2114  0.4671
  500TIP3    H223136   4.792   6.697   0.896 -1.6734  0.7153  0.4745
  501TIP3   OH223137   0.138   0.046   8.392 -0.5572 -0.0082  0.1737
  501TIP3    H123138   0.080   0.085   8.326  0.0619  1.6114  0.5409
  501TIP3    H223139   0.169  -0.035   8.352  0.4275  1.3146 -1.8773
  502TIP3   OH223140   3.924   2.519   0.866  0.0868  0.4071 -0.1178
  502TIP3    H123141   3.829   2.514   0.874 -0.0189  0.6893 -1.0770
  502TIP3    H223142   3.955   2.430   0.886 -0.6317 -0.5366 -2.8555
  503TIP3   OH223143   3.435   4.391   1.100 -0.2726 -0.3048 -0.3026
  503TIP3    H123144   3.455   4.298   1.107 -0.9868 -0.4806 -0.5946
  503TIP3    H223145   3.496   4.433   1.161  1.9470 -0.7058 -2.0976
  504TIP3   OH223146   1.897   5.988   0.750 -0.1870 -0.3418 -0.4952
  504TIP3    H123147   1.919   5.898   0.726 -0.2317 -0.0065 -1.8562
  504TIP3    H223148   1.807   5.983   0.782  0.2710 -0.9819  0.7726
  505TIP3   OH223149   5.041   4.885   2.285 -0.6601  0.0617 -0.1217
  505TIP3    H123150   5.018   4.795   2.307 -1.6472  0.1575 -0.7063
  505TIP3    H223151   5.133   4.893   2.309 -0.0997 -1.5750 -1.4980
  506TIP3   OH223152   0.246   2.579   6.794 -0.6072  0.3267  0.6038
  506TIP3    H123153   0.223   2.547   6.881 -1.9698  0.3633  0.2836
  506TIP3    H223154   0.222   2.508   6.734 -2.8077  1.4984 -0.0264
  507TIP3   OH223155   2.778   1.839   1.996  0.4373 -0.3572 -0.1286
  507TIP3    H123156   2.816   1.783   1.928  1.7351 -0.3580  0.5663
  507TIP3    H223157   2.782   1.927   1.960 -1.7225 -0.6460 -1.2786
  508TIP3   OH223158   1.836   0.308   8.618 -0.1194  0.3872 -0.6862
  508TIP3    H123159   1.868   0.248   8.685 -0.7003  0.8562  0.0326
  508TIP3    H223160   1.901   0.303   8.548 -0.2500 -1.2245 -0.7409
  509TIP3   OH223161   2.903   5.045   0.127 -0.0616 -0.7976  0.2709
  509TIP3    H123162   2.893   5.022   0.034 -0.6891 -1.4581  0.4939
  509TIP3    H223163   2.955   5.126   0.126  0.4285 -1.1032 -0.6284
  510TIP3   OH223164   1.775   2.517   8.164 -0.8496  0.0545  0.0111
  510TIP3    H123165   1.777   2.580   8.092 -0.9977 -0.9325 -0.8816
  510TIP3    H223166   1.703   2.546   8.219 -0.8077  0.7607 -0.2905
  511TIP3   OH223167   1.801   6.804   7.267 -0.1119  0.5516  0.0411
  511TIP3    H123168   1.844   6.876   7.220 -1.5394  0.7635 -1.0035
  511TIP3    H223169   1.717   6.841   7.294  0.0011 -0.0968  1.3541
  512TIP3   OH223170   1.032   2.828   0.998 -0.0963  0.2589  0.1758
  512TIP3    H123171   1.026   2.834   0.902 -1.2135  0.3400  0.2449
  512TIP3    H223172   1.108   2.883   1.020 -0.7680  1.5304 -0.5478
  513TIP3   OH223173   0.184   1.447   7.792 -0.0564 -0.0512 -0.6242
  513TIP3    H123174   0.217   1.532   7.820 -1.3149 -0.0180  0.8941
  513TIP3    H223175   0.095   1.465   7.761 -0.5493 -0.8866  0.2540
  514TIP3   OH223176   0.796   1.709   0.445  0.8087  0.3548  0.1258
  514TIP3    H123177   0.820   1.782   0.389 -1.9542 -0.6196 -2.6689
  514TIP3    H223178   0.835   1.632   0.402  1.7509 -0.1028  1.7196
  515TIP3   OH223179   2.497   4.744   8.208  0.3240 -0.2304  0.2682
  515TIP3    H123180   2.515   4.836   8.187  1.3533 -0.1158  1.5473
  515TIP3    H223181   2.421   4.747   8.265  1.0183 -0.0718  1.1973
  516TIP3   OH223182   6.244   1.651   8.239 -0.0610 -0.5378 -0.4367
  516TIP3    H123183   6.309   1.722   8.240 -0.9037  0.2525  0.8844
  516TIP3    H223184   6.185   1.673   8.167 -0.9184  0.7093  0.5984
  517TIP3   OH223185   0.899   0.344   7.194  0.2755  0.1859  0.4410
  517TIP3    H123186   0.811   0.382   7.192  0.2286  0.1226  0.9962
  517TIP3    H223187   0.938   0.380   7.274  0.1669 -1.0528  1.0763
  518TIP3   OH223188   5.689   3.293   1.592  0.1770  0.0109  0.1030
  518TIP3    H123189   5.612   3.310   1.538  0.6239 -1.6871 -1.1604
  518TIP3    H223190   5.762   3.327   1.541  0.3232  1.3576  1.1687
  519TIP3   OH223191   6.132   3.825   0.407  0.2437  0.5594  0.2329
  519TIP3    H123192   6.141   3.873   0.325  2.4618  1.2055  0.7904
  519TIP3    H223193   6.079   3.748   0.384 -1.7032  2.2092 -1.0924
  520TIP3   OH223194   2.250   2.464   7.384 -0.5516  0.4627  0.5171
  520TIP3    H123195   2.228   2.547   7.341 -0.8980  0.0586 -0.1016
  520TIP3    H223196   2.334   2.439   7.347 -0.7924  0.1765  0.1527
  521TIP3   OH223197   5.489   0.903   1.208 -0.4861 -0.1283 -0.2439
  521TIP3    H123198   5.452   0.847   1.276  1.8598 -0.2664  1.0268
  521TIP3    H223199   5.545   0.845   1.157 -1.0637  0.2969 -1.4061
  522TIP3   OH223200   0.990   6.739   7.043 -0.4119 -0.3296 -0.0232
  522TIP3    H123201   1.040   6.769   7.119  0.5478  0.6787 -1.0049
  522TIP3    H223202   0.904   6.715   7.078 -0.7494  2.1759  1.1087
  523TIP3   OH223203   2.505   3.707   0.924 -0.0175  0.3781  0.0988
  523TIP3    H123204   2.545   3.730   0.840  1.0906 -0.2082  0.4410
  523TIP3    H223205   2.559   3.752   0.989 -0.2037 -0.0420  0.5484
  524TIP3   OH223206   5.696   0.260   0.442 -0.0435 -0.5730 -0.1901
  524TIP3    H123207   5.613   0.294   0.408  0.2584  0.2510 -0.1252
  524TIP3    H223208   5.718   0.188   0.383  0.1510  0.4339 -1.3791
  525TIP3   OH223209   4.549   3.874   0.203  0.3037  0.4745  0.0990
  525TIP3    H123210   4.467   3.867   0.251 -1.0937  0.4479 -2.1187
  525TIP3    H223211   4.547   3.962   0.164  0.9157  0.1726 -0.6451
  526TIP3   OH223212   1.137   4.040   2.290  0.0941  0.3023  0.3218
  526TIP3    H123213   1.166   4.102   2.223 -2.8342 -0.8171 -2.2250
  526TIP3    H223214   1.045   4.062   2.305 -0.4930 -2.1806  0.7483
  527TIP3   OH223215   0.497   2.352   0.060 -0.6377  0.4855 -0.0044
  527TIP3    H123216   0.437   2.426   0.057  0.1023  1.0710 -1.5616
  527TIP3    H223217   0.541   2.353  -0.025  1.0526 -0.3499  0.8011
  528TIP3   OH223218   0.300   3.953   0.963  0.0138 -0.0773  0.2218
  528TIP3    H123219   0.214   3.988   0.987 -0.0973 -0.1199 -0.1125
  528TIP3    H223220   0.286   3.909   0.879  0.8962  2.1582 -1.1650
  529TIP3   OH223221   0.239   1.582   2.400  0.5966 -0.0698  0.1768
  529TIP3    H123222   0.248   1.658   2.458  1.1105 -0.0757  0.1139
  529TIP3    H223223   0.159   1.599   2.349 -1.2025 -1.1624  2.4794
  530TIP3   OH223224   1.983   0.126   1.764 -0.2590  0.8785 -0.1834
  530TIP3    H123225   2.070   0.088   1.752  0.5489  2.6033 -0.2199
  530TIP3    H223226   1.955   0.150   1.676 -2.2026 -2.4171 -0.6133
  531TIP3   OH223227   4.457   0.335   1.880 -0.2314 -0.7115 -0.0228
  531TIP3    H123228   4.462   0.349   1.785 -0.8688 -0.6181 -0.0408
  531TIP3    H223229   4.408   0.410   1.913  2.7215  1.0219  0.8085
  532TIP3   OH223230   6.528   1.172   1.748 -0.5925 -0.3263 -0.1158
  532TIP3    H123231   6.526   1.229   1.671 -1.9308  0.1548  0.2545
  532TIP3    H223232   6.531   1.232   1.823  0.2913 -0.7837  0.2299
  533TIP3   OH223233   1.031   2.707   6.681  0.0194  0.2363  0.2749
  533TIP3    H123234   1.021   2.795   6.719 -0.7799  0.6830 -0.8851
  533TIP3    H223235   1.125   2.700   6.662  0.6347 -0.3973  3.1140
  534TIP3   OH223236   3.085   5.855   8.623 -0.0244  0.3914 -0.5231
  534TIP3    H123237   3.144   5.841   8.697  2.1972 -0.4117 -2.3464
  534TIP3    H223238   3.051   5.943   8.636  1.6584  0.9219  0.5633
  535TIP3   OH223239   6.040   5.063   7.655 -0.3386 -0.5011 -0.0387
  535TIP3    H123240   6.135   5.077   7.648 -0.5786  0.9870 -0.6470
  535TIP3    H223241   6.031   4.971   7.678  1.2594 -0.6774 -0.0230
  536TIP3   OH223242   3.237   0.481   8.635 -0.1330 -0.2054 -0.0236
  536TIP3    H123243   3.148   0.514   8.634 -1.6460 -3.7237  1.6944
  536TIP3    H223244   3.267   0.496   8.725  0.5374 -0.1496 -0.2526
  537TIP3   OH223245   2.700   4.423   0.149 -0.3659 -0.1147  0.2315
  537TIP3    H123246   2.679   4.474   0.070  0.6375  1.0834  0.7087
  537TIP3    H223247   2.638   4.454   0.214 -0.3704 -0.1818  0.2586
  538TIP3   OH223248   3.396   6.450   1.058  0.3089 -0.0024 -0.1513
  538TIP3    H123249   3.417   6.360   1.034 -2.0542 -0.7395  0.2801
  538TIP3    H223250   3.451   6.468   1.134  0.3044 -1.3657  0.2059
  539TIP3   OH223251   3.651   4.684   2.228  0.0470  0.3643 -0.3096
  539TIP3    H123252   3.713   4.642   2.289  0.0649  0.3577 -0.3321
  539TIP3    H223253   3.584   4.617   2.214 -1.1323  1.1121  1.4095
  540TIP3   OH223254   4.522   6.513   8.040  0.1446 -0.1954  0.0610
  540TIP3    H123255   4.567   6.593   8.068 -0.2119 -0.2349  0.7656
  540TIP3    H223256   4.553   6.498   7.951  1.2603 -0.0283  0.4063
  541TIP3   OH223257   1.281   2.467   7.831 -0.5752  0.4046  0.3709
  541TIP3    H123258   1.364   2.496   7.868 -0.8671  0.0388  1.3555
  541TIP3    H223259   1.230   2.438   7.907 -2.1915  2.0338 -0.0196
  542TIP3   OH223260   2.636   1.160   1.262  0.6502 -0.7950  0.0820
  542TIP3    H123261   2.667   1.085   1.211 -0.3337 -0.8354 -0.4770
  542TIP3    H223262   2.555   1.129   1.302 -1.5298  0.8612 -2.6521
  543TIP3   OH223263   2.892   3.463   1.536  0.0180 -0.2302 -0.1449
  543TIP3    H123264   2.987   3.470   1.549 -0.2389  2.9086  1.2421
  543TIP3    H223265   2.870   3.537   1.479 -1.5973 -0.9855 -0.5691
  544TIP3   OH223266   1.934   6.829   0.868 -0.1551  0.1153 -0.2339
  544TIP3    H123267   2.001   6.862   0.927  0.8212 -0.4368 -0.9968
  544TIP3    H223268   1.908   6.905   0.816  0.4445  0.1787 -0.4513
  545TIP3   OH223269   0.731   3.148   1.139 -0.0455  0.2119 -0.3045
  545TIP3    H123270   0.699   3.182   1.223  1.8866  0.7673  0.2502
  545TIP3    H223271   0.728   3.053   1.149  1.9708  0.2456  1.1752
  546TIP3   OH223272   2.545   1.411   6.607  0.0606 -0.3771  0.1859
  546TIP3    H123273   2.480   1.460   6.657  1.0788 -1.4727  2.7764
  546TIP3    H223274   2.623   1.467   6.607  1.2150 -1.7744  3.1204
  547TIP3   OH223275   1.155   2.138   0.558  0.7988  0.5567 -0.3357
  547TIP3    H123276   1.090   2.136   0.487 -0.2123 -0.2572  0.5737
  547TIP3    H223277   1.103   2.127   0.638  1.9890  0.6836  0.4729
  548TIP3   OH223278   4.488   6.335   0.307 -0.0914 -0.2547 -0.4479
  548TIP3    H123279   4.397   6.331   0.336  0.2579 -1.1493  0.5937
  548TIP3    H223280   4.539   6.310   0.384  0.8894 -2.7080 -1.7827
  549TIP3   OH223281   3.539   0.812   7.866  0.1285  0.3217  0.0127
  549TIP3    H123282   3.628   0.821   7.899 -0.2616  0.5552  1.0255
  549TIP3    H223283   3.486   0.793   7.943 -0.6358 -0.2825 -0.6437
  550TIP3   OH223284   0.757   2.769   1.522  0.0942  0.4997 -0.4333
  550TIP3    H123285   0.776   2.745   1.612 -1.6359  0.6584  0.0098
  550TIP3    H223286   0.668   2.804   1.524  0.4354  1.6158 -2.0113
  551TIP3   OH223287   1.516   5.348   1.121  0.3246 -0.6221 -0.0876
  551TIP3    H123288   1.564   5.270   1.092 -2.2137 -2.6079  0.7128
  551TIP3    H223289   1.509   5.338   1.216  1.1936  1.3920  0.2364
  552TIP3   OH223290   1.676   1.752   0.833 -0.0350  0.4924 -0.0361
  552TIP3    H123291   1.589   1.791   0.829 -0.0893  0.3928  0.1785
  552TIP3    H223292   1.661   1.658   0.843  0.0924  0.5455  0.7156
  553TIP3   OH223293   4.737   4.148   1.771 -0.1784 -0.0411 -0.2145
  553TIP3    H123294   4.809   4.134   1.710  0.8828  2.2751  0.3881
  553TIP3    H223295   4.744   4.076   1.834  1.7630  0.2297 -0.0644
  554TIP3   OH223296   2.229   5.625   0.508  0.1556  0.1029 -0.1665
  554TIP3    H123297   2.143   5.664   0.519 -0.6700 -1.8929  1.0428
  554TIP3    H223298   2.219   5.563   0.436 -0.0025 -1.5623  1.2395
  555TIP3   OH223299   1.409   1.226   8.276  0.5256 -0.1283 -0.9567
  555TIP3    H123300   1.359   1.156   8.317  1.1771  0.3230  0.6677
  555TIP3    H223301   1.347   1.264   8.213  0.1573 -2.0920 -1.8611
  556TIP3   OH223302   3.287   3.071   0.594  0.5304  0.1351 -0.7016
  556TIP3    H123303   3.221   3.025   0.646  2.3727 -0.1454  1.5794
  556TIP3    H223304   3.288   3.024   0.511 -1.2971 -0.6021 -0.3493
  557TIP3   OH223305   3.691   3.302   1.692  0.2663  0.1099 -0.1774
  557TIP3    H123306   3.747   3.377   1.714  0.9187 -0.6470  0.8756
  557TIP3    H223307   3.748   3.244   1.641  0.0248 -0.0320 -0.2846
  558TIP3   OH223308   5.408   2.685   1.773  0.1196 -0.4532 -0.2003
  558TIP3    H123309   5.353   2.763   1.781 -1.4626 -1.3936 -1.2601
  558TIP3    H223310   5.433   2.664   1.863  0.0502  0.9118  0.1554
  559TIP3   OH223311   1.204   0.263   1.607  0.2083  0.2022 -0.2944
  559TIP3    H123312   1.231   0.347   1.646  0.0421 -0.0673  0.4198
  559TIP3    H223313   1.113   0.277   1.582 -0.2446 -0.1663  1.0490
  560TIP3   OH223314   4.634   0.673   7.559  0.4593  0.0590 -0.1807
  560TIP3    H123315   4.677   0.753   7.527 -0.0661  0.8694  1.0545
  560TIP3    H223316   4.573   0.649   7.490 -0.0268  1.2574 -0.1864
  561TIP3   OH223317   6.405   3.738   0.605  0.4543 -0.2470  0.8306
  561TIP3    H123318   6.439   3.787   0.680 -0.4225 -2.6098  2.9017
  561TIP3    H223319   6.310   3.755   0.607  0.3757 -0.6476  0.5416
  562TIP3   OH223320   1.710   4.106   1.285  0.0065  0.1219  0.2230
  562TIP3    H123321   1.706   4.105   1.380 -0.8515 -1.5811  0.2093
  562TIP3    H223322   1.759   4.027   1.261  0.5010  0.6971 -0.7471
  563TIP3   OH223323   0.744   5.037   1.138  0.3318  0.0632  0.1823
  563TIP3    H123324   0.687   5.113   1.135  0.0672 -0.1772 -1.3593
  563TIP3    H223325   0.830   5.070   1.111  0.5518  0.0888  0.8898
  564TIP3   OH223326   2.158   6.323   0.074  0.1453 -0.0847 -0.6812
  564TIP3    H123327   2.085   6.289   0.022  0.0899  0.0981 -0.7228
  564TIP3    H223328   2.146   6.418   0.074  0.4780 -0.0411 -0.8260
  565TIP3   OH223329   6.549   1.011   8.450 -0.3068 -0.1136  0.1242
  565TIP3    H123330   6.548   1.071   8.375  0.2872  0.8631  0.8758
  565TIP3    H223331   6.640   1.012   8.480 -0.3797 -1.0777  0.4138
  566TIP3   OH223332   5.072   5.428   8.295 -0.1677 -0.7093  0.0646
  566TIP3    H123333   5.003   5.386   8.346  1.3772 -1.5217  1.6060
  566TIP3    H223334   5.153   5.398   8.336  1.0973  0.6518 -1.3182
  567TIP3   OH223335   4.188   2.517   6.225 -0.2601 -0.2112 -0.0912
  567TIP3    H123336   4.168   2.430   6.191  0.8699 -0.7266  0.5188
  567TIP3    H223337   4.263   2.503   6.283  1.2947  1.4766 -1.5807
  568TIP3   OH223338   0.385   3.623   7.309 -0.2907 -0.2910  0.0123
  568TIP3    H123339   0.438   3.575   7.372  0.1679 -1.1435 -0.9867
  568TIP3    H223340   0.295   3.611   7.338  0.0060  0.8869  1.5381
  569TIP3   OH223341   5.119   2.599   8.511 -0.5771 -0.8434 -0.2591
  569TIP3    H123342   5.136   2.692   8.529 -1.0367 -0.6359 -0.8844
  569TIP3    H223343   5.179   2.578   8.439  0.0463 -1.2301  0.3573
  570TIP3   OH223344   2.095   5.354   7.539  0.3800  0.0827 -0.3539
  570TIP3    H123345   2.009   5.369   7.498  0.4271  0.4714 -0.3060
  570TIP3    H223346   2.151   5.327   7.466  0.1017 -0.6520 -0.3123
  571TIP3   OH223347   2.183   4.566   1.334 -0.4392 -0.2700  0.0025
  571TIP3    H123348   2.140   4.571   1.419 -0.6319 -0.0991 -0.1053
  571TIP3    H223349   2.112   4.565   1.271 -0.2799  0.3196 -0.1938
  572TIP3   OH223350   6.488   0.063   1.384  0.1444  0.2047  0.1619
  572TIP3    H123351   6.456   0.127   1.321  0.1536  1.7065  1.6389
  572TIP3    H223352   6.569   0.030   1.344  1.1750  2.5135  0.1911
  573TIP3   OH223353   2.274   6.270   1.718 -0.0237  0.1855 -0.4377
  573TIP3    H123354   2.340   6.331   1.751  1.9945 -0.5025 -2.8250
  573TIP3    H223355   2.271   6.200   1.783  0.5323  0.9245  0.4086
  574TIP3   OH223356   2.071   5.702   6.505 -0.2151 -0.4654  0.4026
  574TIP3    H123357   2.160   5.698   6.470  0.3635  1.8798  1.4658
  574TIP3    H223358   2.029   5.773   6.456 -0.8109 -0.1434  1.3650
  575TIP3   OH223359   5.604   1.438   0.729  0.8461  0.6300  0.7962
  575TIP3    H123360   5.546   1.419   0.803 -0.5969 -0.4105 -0.5469
  575TIP3    H223361   5.598   1.533   0.718 -1.8739  0.4280 -0.2282
  576TIP3   OH223362   2.470   5.377   6.864  0.0072  0.1328  0.6193
  576TIP3    H123363   2.539   5.312   6.879  0.4141  0.4951  0.3523
  576TIP3    H223364   2.512   5.444   6.810 -0.9436 -0.3355 -0.7538
  577TIP3   OH223365   6.726   3.071   1.039 -0.0492  0.4851  0.0232
  577TIP3    H123366   6.770   3.150   1.072  0.4945  1.0079 -1.8579
  577TIP3    H223367   6.633   3.086   1.057  0.3225 -0.0681  2.8812
  578TIP3   OH223368   4.291   2.328   5.993  0.0883  0.0435 -0.2024
  578TIP3    H123369   4.297   2.259   6.059 -0.6930 -1.6424 -1.8074
  578TIP3    H223370   4.342   2.401   6.030  0.3869 -1.1208  1.8453
  579TIP3   OH223371   6.788   0.091   7.506 -0.6108  0.4777 -0.0966
  579TIP3    H123372   6.852   0.022   7.524 -1.1920 -0.5919 -1.8347
  579TIP3    H223373   6.708   0.044   7.484 -1.4445  1.7538  0.1206
  580TIP3   OH223374   3.031   2.797   7.838  0.1789  0.5237  0.0027
  580TIP3    H123375   2.984   2.765   7.914 -2.1279 -1.3090 -2.0393
  580TIP3    H223376   3.036   2.892   7.851 -0.7094  0.3374  2.0759
  581TIP3   OH223377   1.174   5.498   6.101 -0.3693 -0.0413 -0.1478
  581TIP3    H123378   1.263   5.486   6.068 -0.7082 -2.2458 -0.4580
  581TIP3    H223379   1.175   5.584   6.143  0.8139  1.7249 -3.4423
  582TIP3   OH223380   2.210   0.321   0.675  0.2834 -1.0664  0.4416
  582TIP3    H123381   2.210   0.338   0.581  0.6224  0.1413  0.6328
  582TIP3    H223382   2.194   0.407   0.715  1.2751 -1.3417  1.5031
  583TIP3   OH223383   6.572   4.171   6.109 -0.4117 -0.0608 -0.5577
  583TIP3    H123384   6.642   4.210   6.058 -0.7689 -1.5868 -2.3124
  583TIP3    H223385   6.577   4.077   6.091 -3.2436 -0.1768 -1.2745
  584TIP3   OH223386   4.232   0.146   0.944  0.4370  0.2229 -0.4884
  584TIP3    H123387   4.185   0.184   0.869 -0.0275 -0.8891 -0.7850
  584TIP3    H223388   4.211   0.052   0.941  0.2157  0.1838  1.1744
  585TIP3   OH223389   1.965   3.366   0.323 -0.3062  0.0226 -0.0245
  585TIP3    H123390   1.935   3.281   0.288 -1.4181  0.9050 -1.3282
  585TIP3    H223391   2.046   3.345   0.370 -0.3415 -1.7109 -0.6467
  586TIP3   OH223392   4.906   6.353   0.731  0.3497  0.4921 -0.1402
  586TIP3    H123393   4.923   6.404   0.652 -0.7124  1.0058 -0.0533
  586TIP3    H223394   4.857   6.277   0.700  2.7591 -1.0500 -0.4108
  587TIP3   OH223395   1.506   3.306   8.045  0.0987 -0.1117  0.4314
  587TIP3    H123396   1.560   3.385   8.039 -0.0371 -0.1598 -2.5417
  587TIP3    H223397   1.544   3.246   7.981 -2.2124 -0.9216 -0.2724
  588TIP3   OH223398   6.132   0.279   7.677 -0.4845  0.1305 -0.2111
  588TIP3    H123399   6.204   0.236   7.631 -0.2078  1.9934 -1.6756
  588TIP3    H223400   6.168   0.301   7.762 -0.0424 -0.8750 -0.1323
  589TIP3   OH223401   1.701   3.295   0.597  0.1841 -0.3222  0.2261
  589TIP3    H123402   1.786   3.334   0.617  0.8827  0.5811 -3.6988
  589TIP3    H223403   1.674   3.254   0.679  4.0445 -0.0587  1.8582
  590TIP3   OH223404   0.849   2.445   1.597 -0.2019 -0.0814 -0.2862
  590TIP3    H123405   0.871   2.413   1.684  0.1849 -0.6132 -0.5746
  590TIP3    H223406   0.758   2.475   1.604  0.8943  3.4217  1.2822
  591TIP3   OH223407   5.096   2.953   7.399 -0.5034 -0.0213 -0.2790
  591TIP3    H123408   5.011   2.932   7.360 -0.1502  1.4820 -2.0302
  591TIP3    H223409   5.081   3.034   7.448 -0.2762 -0.2292  0.1331
  592TIP3   OH223410   4.878   4.444   2.555  0.2450  0.3974 -0.3325
  592TIP3    H123411   4.876   4.421   2.648 -1.0213  0.6147 -0.2913
  592TIP3    H223412   4.806   4.396   2.516  0.0283  1.2232 -0.9851
  593TIP3   OH223413   1.680   0.297   1.374 -0.0301 -0.7118  0.3455
  593TIP3    H123414   1.747   0.336   1.319 -1.7127  0.5370 -0.9092
  593TIP3    H223415   1.650   0.369   1.430 -1.7870 -0.6471 -0.6103
  594TIP3   OH223416   3.407   6.560   0.561 -0.1914  0.4270  0.0194
  594TIP3    H123417   3.434   6.646   0.591 -3.5689  1.3778  0.7568
  594TIP3    H223418   3.434   6.500   0.630  1.7522  0.8834 -0.2788
  595TIP3   OH223419   3.734   3.654   1.553 -0.1460 -0.6531  0.2704
  595TIP3    H123420   3.696   3.741   1.557 -0.6138 -0.9024  2.5956
  595TIP3    H223421   3.811   3.658   1.610  1.4091 -1.0946 -1.6621
  596TIP3   OH223422   6.706   5.245   8.487 -0.3462  0.6444 -0.1852
  596TIP3    H123423   6.624   5.264   8.443 -0.6501 -0.0087  0.0790
  596TIP3    H223424   6.722   5.320   8.543 -0.8546  0.6950 -0.1074
  597TIP3   OH223425   1.405   5.536   6.844  0.4734 -0.2158 -0.0632
  597TIP3    H123426   1.469   5.600   6.876  0.7679 -0.9744  0.9173
  597TIP3    H223427   1.448   5.495   6.769 -0.0314  1.2523 -1.1889
  598TIP3   OH223428   2.676   3.743   1.662  0.5059 -0.0500 -0.6065
  598TIP3    H123429   2.639   3.701   1.741  3.2338 -1.1026  0.2186
  598TIP3    H223430   2.715   3.824   1.695 -2.7813  2.2365 -1.8426
  599TIP3   OH223431   4.314   3.883   6.993  0.2563  0.4511 -0.0603
  599TIP3    H123432   4.281   3.835   7.069 -0.1319 -1.1924 -1.2127
  599TIP3    H223433   4.244   3.877   6.929  1.5955 -0.5782 -1.5154
  600TIP3   OH223434   6.518   2.192   0.732 -1.0419 -0.2060  0.2278
  600TIP3    H123435   6.548   2.105   0.761 -2.8763 -1.1003 -0.3998
  600TIP3    H223436   6.425   2.193   0.752 -1.4762  0.8289 -1.6488
  601TIP3   OH223437   3.931   3.264   1.525 -0.2937  0.0572 -0.3251
  601TIP3    H123438   4.003   3.287   1.584 -0.0165 -1.3431 -0.0577
  601TIP3    H223439   3.966   3.280   1.437 -0.0130  0.3491 -0.1623
  602TIP3   OH223440   5.838   2.185   7.834 -0.8800  0.3087  0.6094
  602TIP3    H123441   5.788   2.249   7.782 -0.2603  0.2018 -0.1321
  602TIP3    H223442   5.929   2.199   7.808 -0.8194 -1.5764 -0.3584
  603TIP3   OH223443   5.886   2.053   0.569  0.3197  0.3993 -0.7009
  603TIP3    H123444   5.883   2.108   0.647  0.3009  0.7305 -0.9321
  603TIP3    H223445   5.815   2.086   0.513  0.1291 -0.0389 -0.7243
  604TIP3   OH223446   6.382   1.364   0.540 -0.1438  0.3890 -0.2430
  604TIP3    H123447   6.426   1.375   0.624  1.0227 -0.9524 -0.6487
  604TIP3    H223448   6.295   1.330   0.563 -0.1068  0.7388  0.4429
  605TIP3   OH223449   2.961   6.894   0.677  0.2946 -0.0902  0.5287
  605TIP3    H123450   2.948   6.927   0.766 -1.3749  1.3642 -0.1918
  605TIP3    H223451   2.884   6.925   0.629  2.3493  1.3965 -2.0499
  606TIP3   OH223452   1.577   0.011   7.327  0.0643  0.1999  0.5382
  606TIP3    H123453   1.532   0.050   7.402  0.1068 -0.0770  0.7073
  606TIP3    H223454   1.603   0.086   7.273  0.9940  0.4745  1.3418
  607TIP3   OH223455   3.461   0.151   6.647 -0.2654  0.1670 -0.2647
  607TIP3    H123456   3.390   0.129   6.708 -0.5884  1.0776 -0.2983
  607TIP3    H223457   3.497   0.067   6.621 -1.1592 -0.2962 -0.0331
  608TIP3   OH223458   1.692   1.597   8.304 -0.5890 -0.3155  0.0212
  608TIP3    H123459   1.747   1.530   8.344 -1.0737 -2.6085 -2.8025
  608TIP3    H223460   1.602   1.567   8.320 -0.8800  0.5498  0.0870
  609TIP3   OH223461   2.984   5.179   6.774  0.0144 -0.2675  0.1239
  609TIP3    H123462   3.066   5.162   6.727  0.2542 -0.2807  0.5383
  609TIP3    H223463   2.947   5.093   6.791 -1.6890 -0.2190 -2.7882
  610TIP3   OH223464   2.991   6.284   5.985 -0.4579 -0.3254 -0.1747
  610TIP3    H123465   2.908   6.238   5.994  0.9460 -2.7508  1.6096
  610TIP3    H223466   2.999   6.335   6.066  0.1991 -0.8796  0.1206
  611TIP3   OH223467   2.222   4.135   6.505 -0.0694 -0.4320 -0.1086
  611TIP3    H123468   2.301   4.082   6.489  0.9838  0.8484  0.6536
  611TIP3    H223469   2.217   4.193   6.429  1.1993  1.1841  0.9644
  612TIP3   OH223470   6.000   5.811   7.092 -0.3039 -0.2555 -0.2586
  612TIP3    H123471   5.989   5.729   7.140  1.3102  0.4935  1.5074
  612TIP3    H223472   6.055   5.789   7.017  0.1348 -0.7759  0.2170
  613TIP3   OH223473   5.714   5.776   1.553  0.0391 -0.4732 -0.3900
  613TIP3    H123474   5.669   5.837   1.495  0.0139  1.6372  1.6683
  613TIP3    H223475   5.647   5.713   1.579 -0.2637 -0.6679 -1.5913
  614TIP3   OH223476   5.749   2.662   7.738  0.2062 -0.3794 -0.2086
  614TIP3    H123477   5.810   2.697   7.802 -0.4254 -1.1538  0.8509
  614TIP3    H223478   5.672   2.637   7.789 -0.9956  0.5310 -1.5089
  615TIP3   OH223479   2.021   6.646   1.135 -0.6077  0.2610  0.0872
  615TIP3    H123480   2.034   6.652   1.041 -1.3187  0.5277 -0.0031
  615TIP3    H223481   1.974   6.563   1.147 -1.2598  0.6249  0.1127
  616TIP3   OH223482   6.019   2.651   6.706 -0.1307 -0.4990  0.1934
  616TIP3    H123483   5.927   2.657   6.733  0.2270  0.2980  1.3271
  616TIP3    H223484   6.018   2.663   6.611 -0.9943  2.0167  0.4611
  617TIP3   OH223485   6.716   3.665   0.928  0.2508  0.1957  0.1903
  617TIP3    H123486   6.742   3.753   0.901 -0.1451 -0.2898 -1.8848
  617TIP3    H223487   6.701   3.618   0.847 -0.3846 -1.5621  1.2727
  618TIP3   OH223488   1.734   6.703   2.039  0.1390 -0.2547 -0.0453
  618TIP3    H123489   1.741   6.645   1.963 -0.7769 -0.2863 -0.1133
  618TIP3    H223490   1.785   6.659   2.107 -0.9908 -1.4433  0.0705
  619TIP3   OH223491   5.211   1.671   2.753 -0.2342  0.3785 -0.0193
  619TIP3    H123492   5.150   1.598   2.761 -1.3452  1.3862  1.0507
  619TIP3    H223493   5.258   1.654   2.671  0.2426 -2.0148  0.6700
  620TIP3   OH223494   6.032   3.244   7.840 -0.6306 -0.3915  0.1591
  620TIP3    H123495   6.053   3.256   7.932  0.4397 -2.5924  0.2752
  620TIP3    H223496   6.114   3.265   7.794 -0.1560 -2.2892  0.0319
  621TIP3   OH223497   3.868   2.037   5.957 -0.0292 -0.4614  0.0322
  621TIP3    H123498   3.887   1.952   5.997  0.3510 -0.5275 -0.2804
  621TIP3    H223499   3.949   2.061   5.912 -0.0925  0.1272  0.2201
  622TIP3   OH223500   6.174   0.470   7.268  0.3075 -0.5998  0.0772
  622TIP3    H123501   6.206   0.413   7.198  2.4345  1.4686 -0.7764
  622TIP3    H223502   6.252   0.493   7.318 -0.7499  0.2149  1.4208
  623TIP3   OH223503   3.193   6.830   7.783  0.0015  0.0570  0.2643
  623TIP3    H123504   3.147   6.901   7.827  1.2357  0.5434  0.8214
  623TIP3    H223505   3.190   6.854   7.690  2.0644  1.9109  0.5953
  624TIP3   OH223506   1.209   2.525   6.426 -0.1309  0.7133  0.4153
  624TIP3    H123507   1.269   2.454   6.451 -2.2630 -1.5716 -0.5280
  624TIP3    H223508   1.216   2.530   6.331  0.1040  1.9516  0.4786
  625TIP3   OH223509   3.546   3.275   8.505 -0.3514  0.8079 -0.2888
  625TIP3    H123510   3.637   3.245   8.508 -0.4791  0.4750  0.4222
  625TIP3    H223511   3.495   3.202   8.540 -0.8672  1.0928 -0.4360
  626TIP3   OH223512   4.552   4.019   7.782  0.1353 -0.8800  0.2521
  626TIP3    H123513   4.507   3.988   7.860 -2.7797  0.8420 -0.6160
  626TIP3    H223514   4.626   4.070   7.816 -1.2232  0.0899  1.9427
  627TIP3   OH223515   2.705   2.179   7.122  0.1046  0.5131  0.2933
  627TIP3    H123516   2.702   2.199   7.028 -2.3152  0.6972  0.3371
  627TIP3    H223517   2.790   2.211   7.151  1.0862  0.0984 -1.8969
  628TIP3   OH223518   6.664   1.170   0.998 -0.0786 -0.2990 -0.1658
  628TIP3    H123519   6.573   1.193   1.019 -0.3170  0.0146 -1.4826
  628TIP3    H223520   6.711   1.182   1.080 -1.5778 -2.4747  1.1410
  629TIP3   OH223521   1.378   3.642   7.000  0.4009  0.1224  0.6485
  629TIP3    H123522   1.343   3.609   7.083 -0.6289 -0.3950  0.0249
  629TIP3    H223523   1.331   3.725   6.985  1.8006  1.0868  1.3972
  630TIP3   OH223524   6.293   5.092   6.407  0.2548 -0.2037 -0.1636
  630TIP3    H123525   6.299   5.174   6.358  0.0142 -0.3487 -0.4333
  630TIP3    H223526   6.362   5.037   6.371 -0.4811 -0.6295 -0.9398
  631TIP3   OH223527   3.610   6.795   6.782  0.0656  0.0691  0.0232
  631TIP3    H123528   3.543   6.812   6.716 -0.6276 -0.5788  0.5428
  631TIP3    H223529   3.620   6.878   6.828 -0.4287  0.1553 -0.0155
  632TIP3   OH223530   2.560   0.066   7.718 -0.2557 -0.5243 -0.1950
  632TIP3    H123531   2.475   0.094   7.751  0.1060  0.1506  0.1963
  632TIP3    H223532   2.617   0.142   7.732  0.1403 -0.5597 -1.5211
  633TIP3   OH223533   5.762   2.045   8.478 -0.0689  0.0652  0.3869
  633TIP3    H123534   5.695   1.976   8.472 -0.5722  0.2880  2.5766
  633TIP3    H223535   5.813   2.021   8.555  1.7025  0.5105 -0.6149
  634TIP3   OH223536   2.266   3.106   2.340  0.0439  0.0206 -0.2209
  634TIP3    H123537   2.267   3.013   2.364  0.9396 -0.2763 -1.3037
  634TIP3    H223538   2.174   3.132   2.346  0.0277 -0.3527  2.1725
  635TIP3   OH223539   2.672   1.340   0.055 -0.3901  0.1994 -0.1982
  635TIP3    H123540   2.747   1.382   0.012 -0.3660 -1.2517 -1.6415
  635TIP3    H223541   2.711   1.280   0.118 -0.3967  1.0439  0.6259
  636TIP3   OH223542   2.828   1.329   8.038 -0.8372  0.3565 -0.2697
  636TIP3    H123543   2.908   1.345   7.989  0.0714 -0.2616  0.9401
  636TIP3    H223544   2.858   1.291   8.121 -2.3121  1.1107  0.6580
  637TIP3   OH223545   1.583   6.890   0.832 -0.2561 -0.0821  1.0043
  637TIP3    H123546   1.648   6.828   0.797 -1.4305 -1.2827  0.8541
  637TIP3    H223547   1.499   6.845   0.819 -0.9384  0.4644  3.2172
  638TIP3   OH223548   1.134   5.181   7.930 -0.3171  0.3599 -0.0428
  638TIP3    H123549   1.052   5.164   7.976 -1.1076  0.2029 -1.4436
  638TIP3    H223550   1.184   5.100   7.939  1.3027  1.5547  3.8200
  639TIP3   OH223551   0.708   1.538   1.699  0.1736 -0.3356  0.1881
  639TIP3    H123552   0.778   1.482   1.667 -0.2933 -0.0047 -1.5492
  639TIP3    H223553   0.752   1.610   1.743  0.8536 -0.8621  0.3877
  640TIP3   OH223554   2.528   3.887   7.005 -0.6611  0.9425  0.1463
  640TIP3    H123555   2.575   3.893   7.088  0.6283  0.4245 -0.5196
  640TIP3    H223556   2.436   3.889   7.030 -0.3870  3.8525  1.3902
  641TIP3   OH223557   6.012   3.856   7.587  0.0084 -0.6321 -0.4656
  641TIP3    H123558   5.928   3.837   7.545 -0.7122 -0.4297  0.8453
  641TIP3    H223559   6.055   3.771   7.596  0.8527 -0.5481 -2.9034
  642TIP3   OH223560   4.700   1.950   2.004 -0.6386 -0.2693  0.5693
  642TIP3    H123561   4.678   2.043   1.997 -0.1889 -0.2010 -0.0582
  642TIP3    H223562   4.750   1.943   2.085 -0.9907 -0.0253  0.8066
  643TIP3   OH223563   2.024   3.338   7.762  0.1673  0.1177 -0.4603
  643TIP3    H123564   1.966   3.370   7.693  2.5671  0.3045 -2.5154
  643TIP3    H223565   2.038   3.246   7.742  0.4395  0.0194  0.1446
  644TIP3   OH223566   5.461   3.010   7.151  0.4954 -0.5729  0.6321
  644TIP3    H123567   5.542   3.049   7.119 -0.7567  0.5834 -1.3679
  644TIP3    H223568   5.400   3.084   7.158 -1.1931 -1.7445 -0.7382
  645TIP3   OH223569   4.427   5.513   1.498  0.5500  0.1672  0.8771
  645TIP3    H123570   4.417   5.459   1.420  1.8046  2.6460 -1.1824
  645TIP3    H223571   4.363   5.479   1.560 -0.1462 -2.2585 -1.0346
  646TIP3   OH223572   3.766   0.716   8.051 -0.0676  0.1338  0.1283
  646TIP3    H123573   3.820   0.795   8.059  1.6259 -1.0843  1.2706
  646TIP3    H223574   3.705   0.721   8.124 -0.6146  0.8177 -0.3533
  647TIP3   OH223575   2.734   2.484   7.890  0.3823  0.4572  0.5334
  647TIP3    H123576   2.785   2.408   7.920  0.8510  1.0405  1.2384
  647TIP3    H223577   2.694   2.520   7.969  0.9768  1.5331  0.3661
  648TIP3   OH223578   4.994   0.326   8.515 -0.5512  0.3013 -0.6255
  648TIP3    H123579   5.082   0.322   8.551 -0.2424  1.4561 -1.2107
  648TIP3    H223580   4.992   0.257   8.448  0.7516  1.7945 -2.3276
  649TIP3   OH223581   2.356   3.399   6.970  0.2092 -0.2099  0.0596
  649TIP3    H123582   2.288   3.382   7.035 -1.3899 -0.7632 -1.6688
  649TIP3    H223583   2.308   3.425   6.892  2.0532  0.1797 -0.9890
  650TIP3   OH223584   0.071   1.568   8.489  0.8088  0.2067  0.3408
  650TIP3    H123585   0.048   1.479   8.518  0.9996  0.2798  0.7213
  650TIP3    H223586   0.125   1.555   8.412 -1.0809  0.0274 -1.0414
  651TIP3   OH223587   0.414   6.695   7.969  0.2390  0.1892  0.1712
  651TIP3    H123588   0.432   6.624   8.031 -2.6835 -0.4212  0.4774
  651TIP3    H223589   0.397   6.650   7.886 -3.7497  0.1138  0.8206
  652TIP3   OH223590   5.442   5.440   7.091  0.1339 -0.0993  0.1941
  652TIP3    H123591   5.396   5.471   7.170  0.2477 -0.8702  0.5691
  652TIP3    H223592   5.382   5.378   7.051  0.6011 -0.6715  0.3703
  653TIP3   OH223593   4.309   3.488   6.790  0.0641 -0.4009 -0.8556
  653TIP3    H123594   4.226   3.535   6.788 -0.4369 -0.8350  2.8074
  653TIP3    H223595   4.287   3.399   6.762 -0.9821 -0.7664  1.0032
  654TIP3   OH223596   6.437   2.303   2.538  0.1455  0.3804  0.4030
  654TIP3    H123597   6.500   2.355   2.588  1.0510  0.6327 -0.9506
  654TIP3    H223598   6.458   2.212   2.560  2.3417  0.3352 -1.4800
  655TIP3   OH223599   0.153   1.716   6.212 -0.1305 -0.0152  0.1909
  655TIP3    H123600   0.169   1.624   6.191 -0.4752 -0.5210  1.9970
  655TIP3    H223601   0.233   1.745   6.256 -0.7407 -0.0040  1.3197
  656TIP3   OH223602   0.257   1.932   1.103  0.4774  0.2383  0.1374
  656TIP3    H123603   0.325   1.980   1.149  0.7046  0.1771 -0.1274
  656TIP3    H223604   0.212   1.998   1.050  2.0463 -0.0996 -1.7521
  657TIP3   OH223605   4.508   4.711   1.469  0.3941 -0.6465 -0.5536
  657TIP3    H123606   4.584   4.739   1.520 -0.1610  0.9602 -0.5464
  657TIP3    H223607   4.454   4.661   1.530  0.7755 -0.5845 -0.1689
  658TIP3   OH223608   1.111   1.386   0.697  0.0745  0.5294  0.1775
  658TIP3    H123609   1.164   1.452   0.653 -1.2187  2.5436  1.4652
  658TIP3    H223610   1.034   1.434   0.727 -0.1300 -1.1944  2.6773
  659TIP3   OH223611   0.187   1.428   8.239  0.1382  0.0100 -0.0978
  659TIP3    H123612   0.248   1.414   8.167 -2.3472  0.0752 -2.3589
  659TIP3    H223613   0.123   1.357   8.230 -1.2281  1.0598  0.9347
  660TIP3   OH223614   0.142   1.861   1.776 -0.1241  0.0215 -0.0168
  660TIP3    H123615   0.050   1.878   1.757  0.0796  0.4287 -0.6798
  660TIP3    H223616   0.171   1.935   1.829  0.2552  0.7943 -1.2582
  661TIP3   OH223617   1.081   6.552   1.577  0.0987  0.2438 -0.1212
  661TIP3    H123618   1.121   6.601   1.650 -0.8409 -0.4694  0.8978
  661TIP3    H223619   0.994   6.589   1.568 -0.0078 -0.0875 -0.4768
  662TIP3   OH223620   3.797   3.621   7.857 -0.2425 -0.1103 -0.4270
  662TIP3    H123621   3.783   3.685   7.927  1.3466  1.6703 -1.6445
  662TIP3    H223622   3.753   3.658   7.781  0.6196 -0.4990 -1.1331
  663TIP3   OH223623   5.854   1.426   1.669 -1.0468  0.4476  0.1633
  663TIP3    H123624   5.876   1.353   1.727 -1.2857  1.1352  1.1538
  663TIP3    H223625   5.799   1.387   1.601 -1.5167 -0.2276  0.9104
  664TIP3   OH223626   4.405   2.981   6.719  0.3279 -0.1005  1.0366
  664TIP3    H123627   4.349   3.058   6.713  0.9537  0.2676 -0.2529
  664TIP3    H223628   4.494   3.014   6.710  0.6294 -0.9229  0.8529
  665TIP3   OH223629   5.759   1.638   2.095  0.1430 -0.2761 -0.0609
  665TIP3    H123630   5.677   1.686   2.080  0.0424 -0.1899  0.7187
  665TIP3    H223631   5.732   1.546   2.103  0.4406 -0.6413 -2.5189
  666TIP3   OH223632   6.152   0.504   0.022  0.0835  0.0053 -0.0864
  666TIP3    H123633   6.174   0.411   0.012 -1.0064 -0.1578 -1.1054
  666TIP3    H223634   6.115   0.529  -0.063 -0.1035  1.2446  0.3470
  667TIP3   OH223635   5.524   5.133   7.807  0.4270  0.6498  0.3676
  667TIP3    H123636   5.567   5.120   7.722 -0.1807 -4.1540  0.5315
  667TIP3    H223637   5.596   5.136   7.870  0.7676  1.5932 -0.0410
  668TIP3   OH223638   2.677   3.129   7.422  0.1443  0.3050  0.0991
  668TIP3    H123639   2.723   3.131   7.339 -0.7976 -0.2785 -0.4548
  668TIP3    H223640   2.722   3.194   7.476  0.6084  0.8733 -0.9438
  669TIP3   OH223641   6.738   1.892   2.016  0.0757  0.3948 -0.7017
  669TIP3    H123642   6.748   1.964   2.078 -1.5023 -0.4122  0.5675
  669TIP3    H223643   6.827   1.864   1.996  0.6369  0.1282  1.8793
  670TIP3   OH223644   5.996   1.077   2.007  0.1125 -0.2245 -0.1725
  670TIP3    H123645   5.993   0.991   1.965 -1.7174 -1.1099  1.5771
  670TIP3    H223646   6.049   1.064   2.086  2.3271  1.0543 -1.3660
  671TIP3   OH223647   4.018   2.054   0.297  0.1096 -0.1956  0.1864
  671TIP3    H123648   3.958   2.118   0.259  0.6822  0.1043 -0.2292
  671TIP3    H223649   4.016   1.980   0.236 -1.1345 -0.9110  1.0601
  672TIP3   OH223650   3.836   2.613   0.372  0.4168 -0.6374  0.6090
  672TIP3    H123651   3.753   2.631   0.328  1.7462 -0.2588 -1.9624
  672TIP3    H223652   3.811   2.574   0.456 -2.3125 -2.1208 -0.7559
  673TIP3   OH223653   4.588   3.052   2.639 -0.2520  0.2269  0.6094
  673TIP3    H123654   4.667   3.091   2.602 -0.3532  0.0364  0.1972
  673TIP3    H223655   4.612   2.962   2.658 -0.6033 -0.0538 -0.2489
  674TIP3   OH223656   5.768   2.893   8.186 -0.2183  0.5612 -0.3567
  674TIP3    H123657   5.810   2.974   8.215  1.3160  0.0862 -1.1717
  674TIP3    H223658   5.723   2.861   8.265  0.2796  1.5027  0.3386
  675TIP3   OH223659   0.106   6.455   8.008 -0.0746  0.0604 -0.0674
  675TIP3    H123660   0.181   6.453   7.950  0.6222  2.1018  0.6749
  675TIP3    H223661   0.031   6.433   7.952  0.9208 -1.0158 -1.0237
  676TIP3   OH223662   2.641   2.202   0.699 -0.7600 -0.0494 -0.3325
  676TIP3    H123663   2.696   2.279   0.684 -0.3081 -0.2026  0.4889
  676TIP3    H223664   2.672   2.137   0.636  1.3847 -0.8346  1.4225
  677TIP3   OH223665   4.870   2.062   6.680 -0.4798 -0.1123  0.3696
  677TIP3    H123666   4.896   2.154   6.678 -0.5152 -0.0889  0.8920
  677TIP3    H223667   4.805   2.054   6.610 -0.4655  0.2530  0.3123
  678TIP3   OH223668   6.025   2.220   6.619  0.4890  0.3712 -0.8329
  678TIP3    H123669   5.947   2.230   6.564 -0.6105  1.8643  0.8953
  678TIP3    H223670   5.997   2.164   6.691  0.7239  1.5547  0.2179
  679TIP3   OH223671   1.180   5.867   8.562  0.9481 -0.6299  0.3922
  679TIP3    H123672   1.109   5.929   8.548  0.4722 -1.5069 -1.4820
  679TIP3    H223673   1.136   5.783   8.576  1.5866 -1.1101 -0.3735
  680TIP3   OH223674   1.379   4.770   8.249 -0.4709 -0.3436  0.0214
  680TIP3    H123675   1.292   4.731   8.256 -0.4034 -0.2470  2.5555
  680TIP3    H223676   1.417   4.759   8.337  2.1881 -0.6029 -1.0713
  681TIP3   OH223677   5.421   5.855   0.650 -0.2044 -0.0208 -0.0330
  681TIP3    H123678   5.448   5.943   0.625  0.0698  0.2499  1.1560
  681TIP3    H223679   5.497   5.818   0.695 -0.5860 -0.5680  0.1780
  682TIP3   OH223680   4.633   1.021   1.510 -0.6042 -0.0824  0.4169
  682TIP3    H123681   4.642   0.953   1.442 -0.1878 -0.3540  0.7357
  682TIP3    H223682   4.702   1.000   1.573 -0.0121  1.0630  0.1615
  683TIP3   OH223683   2.548   4.354   6.483  0.0162 -0.6126 -0.6331
  683TIP3    H123684   2.597   4.401   6.416  0.1242 -1.5586 -1.2361
  683TIP3    H223685   2.589   4.267   6.487  0.2075 -0.4846  0.8790
  684TIP3   OH223686   3.629   6.176   6.181  1.1118 -0.9382  0.4429
  684TIP3    H123687   3.627   6.198   6.274  2.1479 -1.6446  0.6457
  684TIP3    H223688   3.717   6.141   6.166  0.9050 -0.9961 -0.7666
  685TIP3   OH223689   4.666   0.170   7.383  0.1079 -0.2473  0.3179
  685TIP3    H123690   4.681   0.224   7.305  0.5456  1.4421  1.4945
  685TIP3    H223691   4.643   0.233   7.451  1.4924 -1.4499  1.9987
  686TIP3   OH223692   4.332   4.475   8.404 -0.3227 -0.0365  0.1711
  686TIP3    H123693   4.406   4.515   8.358 -1.1606  0.2826 -0.9516
  686TIP3    H223694   4.294   4.546   8.456 -0.0614 -0.1071  0.4575
  687TIP3   OH223695   1.451   3.456   1.572 -0.3641  0.5097  0.1389
  687TIP3    H123696   1.372   3.506   1.554 -1.4964 -1.1402  0.2281
  687TIP3    H223697   1.505   3.466   1.494 -1.4543  0.2526 -0.6601
  688TIP3   OH223698   0.008   6.547   1.147 -0.2274  0.7553  0.3006
  688TIP3    H123699   0.072   6.594   1.094 -1.4946  0.8803 -1.1797
  688TIP3    H223700   0.046   6.460   1.159  0.3445  0.9122 -0.3248
  689TIP3   OH223701   1.499   6.449   7.471  0.1482 -0.0911 -0.2462
  689TIP3    H123702   1.425   6.390   7.482  0.1124  0.2022  1.3914
  689TIP3    H223703   1.464   6.536   7.493  1.0564 -0.0134  1.0121
  690TIP3   OH223704   0.025   4.352   1.777  0.0716  0.3639 -0.1524
  690TIP3    H123705   0.022   4.292   1.852 -0.7171 -0.5257 -0.8529
  690TIP3    H223706   0.029   4.294   1.701  0.1671  1.2362 -0.8246
  691TIP3   OH223707   1.431   5.038   1.632 -0.6715  0.3566  0.1873
  691TIP3    H123708   1.415   4.953   1.591  0.6747 -0.4681  1.2674
  691TIP3    H223709   1.420   5.021   1.726  0.9609  1.0095  0.5303
  692TIP3   OH223710   4.027   6.459   2.411 -0.4066  0.1832  0.1098
  692TIP3    H123711   4.076   6.380   2.387 -0.9374  0.3909 -1.8870
  692TIP3    H223712   4.093   6.517   2.449  0.6411 -0.0814 -1.2124
  693TIP3   OH223713   2.092   1.752   7.588  0.2349 -0.4195 -0.2500
  693TIP3    H123714   2.044   1.826   7.550 -0.9444 -1.4491 -0.8851
  693TIP3    H223715   2.096   1.771   7.681 -0.7030  0.1134 -0.2992
  694TIP3   OH223716   4.430   2.475   7.893  0.1684 -0.2061 -0.0062
  694TIP3    H123717   4.335   2.482   7.897  0.2590  1.1366  0.0362
  694TIP3    H223718   4.446   2.381   7.881 -1.1150 -0.5820  0.9756
  695TIP3   OH223719   0.907   2.923   0.753 -0.2297 -0.4686 -0.0307
  695TIP3    H123720   0.822   2.919   0.796 -1.5637  0.2859 -2.3930
  695TIP3    H223721   0.941   3.010   0.774  0.0823 -0.8438  1.0763
  696TIP3   OH223722   3.417   3.780   8.020  0.0181 -0.5763  0.0614
  696TIP3    H123723   3.450   3.794   7.931  0.9008 -3.3048 -0.1308
  696TIP3    H223724   3.409   3.868   8.056 -0.9976  0.7002 -2.9003
  697TIP3   OH223725   6.812   5.583   0.336  0.4351  0.0006 -0.0743
  697TIP3    H123726   6.796   5.616   0.248 -0.7718  1.1181  0.5352
  697TIP3    H223727   6.793   5.657   0.394  3.0450 -0.0974  1.0621
  698TIP3   OH223728   4.702   1.814   7.982 -0.3468 -0.5645  0.2808
  698TIP3    H123729   4.769   1.883   7.988 -0.8085 -0.0732 -0.1017
  698TIP3    H223730   4.691   1.784   8.072  0.2293 -0.4955  0.3803
  699TIP3   OH223731   3.330   4.959   0.170 -0.1973 -0.2573 -0.2732
  699TIP3    H123732   3.253   4.916   0.206 -0.2931  0.8768  0.9420
  699TIP3    H223733   3.389   4.969   0.244 -0.4326  2.2340 -0.3511
  700TIP3   OH223734   6.839   2.883   2.605 -0.1396 -0.3029  0.0948
  700TIP3    H123735   6.806   2.824   2.537 -1.7902 -0.8301  1.3030
  700TIP3    H223736   6.931   2.860   2.614 -0.2919 -1.3458 -0.8196
  701TIP3   OH223737   1.001   2.433   1.351 -0.1372 -0.0233 -0.2267
  701TIP3    H123738   0.967   2.416   1.439  0.6328  2.0759  0.5425
  701TIP3    H223739   0.946   2.504   1.318  0.0077 -0.3501 -1.1755
  702TIP3   OH223740   1.672   5.769   1.015 -0.3239 -0.1230 -0.0410
  702TIP3    H123741   1.644   5.844   0.963 -0.9754  0.6505  1.3768
  702TIP3    H223742   1.767   5.767   1.006 -0.4701 -0.4817 -1.8548
  703TIP3   OH223743   1.625   5.993   0.832  0.4018  0.2210 -0.2871
  703TIP3    H123744   1.579   5.916   0.799  1.3327 -0.4026 -0.1484
  703TIP3    H223745   1.556   6.059   0.844 -0.6114 -0.9882  0.8159
  704TIP3   OH223746   4.144   3.430   0.486  0.9241 -0.3140  0.1875
  704TIP3    H123747   4.143   3.485   0.408  1.6382 -1.1356 -0.4320
  704TIP3    H223748   4.098   3.350   0.460  1.1204 -0.5761  0.6247
  705TIP3   OH223749   6.347   4.557   7.601 -0.9887 -0.2833 -0.0037
  705TIP3    H123750   6.299   4.585   7.523  1.4033 -1.9210 -2.2569
  705TIP3    H223751   6.285   4.503   7.650 -3.3856  2.8699  0.7451
  706TIP3   OH223752   6.629   4.333   7.789  0.0072  0.6225 -0.3092
  706TIP3    H123753   6.712   4.286   7.804 -0.0020  0.5306 -0.5512
  706TIP3    H223754   6.613   4.323   7.695 -0.2934  0.6165 -0.2553
  707TIP3   OH223755   4.538   1.759   6.665  0.7783  0.8602 -0.3973
  707TIP3    H123756   4.559   1.834   6.610 -1.7095  1.7127 -0.3399
  707TIP3    H223757   4.459   1.722   6.625  0.2744  0.0803  1.2421
  708TIP3   OH223758   1.511   0.511   0.176  0.2227  0.4139  0.3477
  708TIP3    H123759   1.493   0.595   0.217 -0.4948  0.0658  0.7493
  708TIP3    H223760   1.426   0.479   0.146  0.5606  0.0769 -0.2932
  709TIP3   OH223761   3.892   1.498   0.991  0.4879 -0.7238 -0.4568
  709TIP3    H123762   3.894   1.550   1.072 -0.2331  0.9151 -1.4242
  709TIP3    H223763   3.946   1.422   1.010  0.3889 -0.3675  1.5458
  710TIP3   OH223764   0.540   6.656   7.359  0.0591 -1.1670 -0.4684
  710TIP3    H123765   0.556   6.748   7.336 -1.0090 -0.6338  0.7659
  710TIP3    H223766   0.597   6.606   7.301  0.1068  0.2468 -1.6980
  711TIP3   OH223767   4.411   1.133   1.617  0.5801  0.5559  0.1028
  711TIP3    H123768   4.417   1.108   1.709 -0.0537  3.0537  0.8971
  711TIP3    H223769   4.483   1.086   1.574 -0.0937 -1.9258  1.5074
  712TIP3   OH223770   3.815   4.960   1.345  0.6979  0.3654 -0.0397
  712TIP3    H123771   3.892   4.949   1.401  0.1242 -0.6492  0.5655
  712TIP3    H223772   3.741   4.937   1.401  0.0508  0.0457 -1.0096
  713TIP3   OH223773   1.774   2.230   8.043 -0.5977 -0.0394  0.0307
  713TIP3    H123774   1.744   2.288   7.974  0.3130 -0.6626 -0.9246
  713TIP3    H223775   1.797   2.288   8.115  2.1453  1.0574 -1.5724
  714TIP3   OH223776   2.239   4.293   6.280 -0.4113 -0.3923  0.1505
  714TIP3    H123777   2.270   4.292   6.190  0.1343 -0.9246  0.3390
  714TIP3    H223778   2.291   4.361   6.323  1.0817 -1.7862  0.6515
  715TIP3   OH223779   5.244   4.353   6.705 -0.1653  0.4220 -0.1341
  715TIP3    H123780   5.194   4.426   6.743 -1.0250 -0.7509  1.0823
  715TIP3    H223781   5.245   4.287   6.774  0.6003 -0.7174 -1.2134
  716TIP3   OH223782   1.792   5.265   7.961  0.5247  0.0066 -0.2461
  716TIP3    H123783   1.832   5.239   7.878  0.6733  1.2346 -0.5776
  716TIP3    H223784   1.723   5.327   7.936  1.2652  1.2101  0.6025
  717TIP3   OH223785   4.562   0.834   1.307 -0.4414 -0.5444 -0.2547
  717TIP3    H123786   4.620   0.879   1.246  0.6011  0.7508  1.5844
  717TIP3    H223787   4.484   0.889   1.310 -0.4376 -0.5349 -0.3272
  718TIP3   OH223788   4.235   5.528   0.965 -0.4674  0.2561 -0.5740
  718TIP3    H123789   4.163   5.579   1.002  1.1803  1.3793  1.3147
  718TIP3    H223790   4.254   5.570   0.882 -0.0524  1.9037  0.3172
  719TIP3   OH223791   0.835   5.761   6.283  0.0966 -0.1058 -0.2712
  719TIP3    H123792   0.795   5.839   6.244  0.8158 -0.3385 -1.5352
  719TIP3    H223793   0.811   5.689   6.225 -0.1279 -0.7490  0.5999
  720TIP3   OH223794   5.133   3.004   1.879 -0.4698 -0.2181  0.4912
  720TIP3    H123795   5.167   3.034   1.963  2.1864 -2.5686  0.3987
  720TIP3    H223796   5.199   3.032   1.815 -1.5730  0.0071 -0.5890
  721TIP3   OH223797   6.305   3.521   7.023 -0.6383  0.2252 -0.4712
  721TIP3    H123798   6.278   3.610   7.001 -0.1260  0.3620 -0.5775
  721TIP3    H223799   6.401   3.527   7.031 -0.5969 -0.3232 -0.5207
  722TIP3   OH223800   1.270   1.002   7.867  0.0956 -0.2151  0.4414
  722TIP3    H123801   1.276   1.077   7.807 -1.3313  0.6091  1.2773
  722TIP3    H223802   1.356   0.960   7.862  0.9283  1.4721 -0.0614
  723TIP3   OH223803   1.212   4.254   2.153  0.2641 -0.5602 -0.4986
  723TIP3    H123804   1.237   4.323   2.214 -0.3478 -0.3835 -0.4494
  723TIP3    H223805   1.200   4.299   2.069  0.8167 -0.7593 -0.6927
  724TIP3   OH223806   4.501   2.018   0.252 -0.3594 -0.6712  0.9093
  724TIP3    H123807   4.558   2.080   0.206 -0.0765 -1.1245  0.6523
  724TIP3    H223808   4.412   2.045   0.228 -0.2164 -0.8779  0.1278
  725TIP3   OH223809   4.896   0.575   7.928 -0.2368 -0.2463 -0.1610
  725TIP3    H123810   4.931   0.491   7.898 -1.0457 -0.1062 -1.5777
  725TIP3    H223811   4.943   0.593   8.009  0.2431 -1.8739 -0.0376
  726TIP3   OH223812   4.435   4.586   6.667 -0.2021  0.0972  0.7961
  726TIP3    H123813   4.525   4.576   6.634 -1.1813 -1.9499 -1.6646
  726TIP3    H223814   4.418   4.504   6.713 -0.8985  0.3478  0.9922
  727TIP3   OH223815   0.551   0.600   7.492 -0.0064 -0.2593 -0.5932
  727TIP3    H123816   0.536   0.687   7.528  1.5828 -0.3890  0.4655
  727TIP3    H223817   0.514   0.540   7.556  2.2580 -0.4664  0.5870
  728TIP3   OH223818   5.496   1.443   0.978 -0.5938  0.8660 -0.3205
  728TIP3    H123819   5.489   1.353   1.009  2.2844  0.5165 -0.3964
  728TIP3    H223820   5.487   1.496   1.058  0.6338  0.2950  0.2374
  729TIP3   OH223821   2.306   0.013   1.248 -0.6319 -0.7097  0.0864
  729TIP3    H123822   2.280  -0.029   1.330  1.2257 -0.9243  0.6107
  729TIP3    H223823   2.399   0.030   1.259  0.0735 -2.2732 -2.6268
  730TIP3   OH223824   2.682   2.559   6.835 -0.0035 -0.3294  0.4658
  730TIP3    H123825   2.689   2.474   6.878  2.0610 -0.4687 -0.0270
  730TIP3    H223826   2.771   2.594   6.836 -0.2870  0.6477 -1.7072
  731TIP3   OH223827   4.334   5.869   1.462  0.5887 -0.3442 -0.2557
  731TIP3    H123828   4.383   5.899   1.539 -2.3887 -1.5754  2.3408
  731TIP3    H223829   4.366   5.780   1.447  0.9481 -0.2242 -0.2085
  732TIP3   OH223830   3.262   2.067   0.754 -0.2573  0.3198 -0.0305
  732TIP3    H123831   3.171   2.083   0.780 -0.1865 -0.3170  0.6316
  732TIP3    H223832   3.312   2.135   0.799 -0.0784 -1.0656  1.9640
  733TIP3   OH223833   1.847   1.267   7.666  0.3636  0.2778 -0.0409
  733TIP3    H123834   1.818   1.255   7.756 -0.5596  0.4071 -0.3069
  733TIP3    H223835   1.858   1.361   7.657 -0.9679  0.4116 -0.4668
  734TIP3   OH223836   0.498   0.121   7.605  0.2615 -0.1705  0.0872
  734TIP3    H123837   0.505   0.165   7.520 -0.0743  3.6186  1.7742
  734TIP3    H223838   0.406   0.099   7.613  0.3119 -0.6228 -0.5655
  735TIP3   OH223839   0.882   4.723   1.147  0.6553 -0.1010  0.4560
  735TIP3    H123840   0.933   4.736   1.068  0.8478  1.5383  0.8163
  735TIP3    H223841   0.843   4.636   1.136 -0.1515  0.4789 -1.9058
  736TIP3   OH223842   4.339   4.637   1.845  0.1715  0.1193 -0.3041
  736TIP3    H123843   4.351   4.585   1.766 -0.2734 -1.2157  0.4810
  736TIP3    H223844   4.259   4.603   1.884  0.2889  0.8799  0.6262
  737TIP3   OH223845   1.141   1.090   8.091  0.5570 -0.0221  0.0968
  737TIP3    H123846   1.204   1.086   8.019  0.1753  1.7814 -0.3715
  737TIP3    H223847   1.130   1.183   8.108 -2.3659 -0.2298 -0.2008
  738TIP3   OH223848   4.818   5.938   7.002 -0.3909  0.2378  0.1500
  738TIP3    H123849   4.755   5.992   7.051 -1.4169  1.6349 -2.4917
  738TIP3    H223850   4.780   5.931   6.915  2.9201  0.8167 -1.4925
  739TIP3   OH223851   2.648   3.237   1.109 -0.2094 -0.2592 -0.0250
  739TIP3    H123852   2.572   3.279   1.150  0.1012  0.2694  0.0242
  739TIP3    H223853   2.692   3.190   1.180 -0.7801 -1.0084 -0.1581
  740TIP3   OH223854   5.503   3.682   1.445 -0.6099  0.1785 -0.2036
  740TIP3    H123855   5.521   3.606   1.500 -1.0794  0.4612  0.3526
  740TIP3    H223856   5.515   3.758   1.503 -2.1332  0.4410 -0.1708
  741TIP3   OH223857   4.704   1.954   7.694  0.4247 -0.0505 -0.0142
  741TIP3    H123858   4.702   2.042   7.656  1.8302  0.3348  0.7223
  741TIP3    H223859   4.796   1.940   7.716  0.0907 -1.3886  0.6251
  742TIP3   OH223860   4.743   3.346   0.404  0.5413  0.2178 -0.1248
  742TIP3    H123861   4.737   3.421   0.345  2.1049  0.9552  0.5816
  742TIP3    H223862   4.659   3.345   0.450 -0.0119  0.7092 -1.1115
  743TIP3   OH223863   3.410   0.476   0.379  0.7863  0.2284  0.1698
  743TIP3    H123864   3.374   0.551   0.330  0.1321 -0.0767  0.1750
  743TIP3    H223865   3.481   0.514   0.430 -0.2417  1.0791  1.0165
  744TIP3   OH223866   1.861   2.714   1.321 -0.1559  0.1699  0.8786
  744TIP3    H123867   1.952   2.687   1.306 -0.1153  1.7995 -2.7014
  744TIP3    H223868   1.848   2.789   1.263 -3.3039  1.1601  2.6455
  745TIP3   OH223869   3.001   0.131   1.846 -0.0382  0.2481  0.2293
  745TIP3    H123870   2.912   0.167   1.845 -0.8687 -1.7173  0.2971
  745TIP3    H223871   3.051   0.194   1.898 -1.6905  0.6968  1.3588
  746TIP3   OH223872   4.564   2.367   0.581  0.3121  0.2246 -0.2222
  746TIP3    H123873   4.626   2.352   0.510 -1.2665 -2.2624 -1.2303
  746TIP3    H223874   4.573   2.459   0.602  2.5578  0.4944 -2.0040
  747TIP3   OH223875   4.283   6.222   0.438 -0.2933  0.0952 -0.5719
  747TIP3    H123876   4.210   6.161   0.430 -0.1086 -0.3726  1.0678
  747TIP3    H223877   4.243   6.305   0.464 -0.5055  0.6345 -2.4566
  748TIP3   OH223878   4.896   2.218   1.816  0.3399  0.0123 -0.4265
  748TIP3    H123879   4.814   2.194   1.859  0.2737 -0.9542 -1.0421
  748TIP3    H223880   4.940   2.134   1.801  2.3683  0.6083  1.6594
  749TIP3   OH223881   2.778   3.764   6.511 -0.0769 -0.2472  0.5538
  749TIP3    H123882   2.850   3.702   6.502  1.1399  1.3018 -0.9840
  749TIP3    H223883   2.732   3.761   6.428  0.4349  1.3860  0.1794
  750TIP3   OH223884   6.038   4.235   1.334 -0.0673  0.4407  0.5706
  750TIP3    H123885   6.126   4.202   1.315  1.2534  2.7965  2.1494
  750TIP3    H223886   6.017   4.292   1.260  0.4052  1.0377  0.8843
  751TIP3   OH223887   4.153   2.494   0.670  0.0341 -0.3915  0.0640
  751TIP3    H123888   4.169   2.425   0.606  1.3105 -0.0117 -0.0505
  751TIP3    H223889   4.064   2.478   0.701 -0.8199 -0.3181 -2.1269
  752TIP3   OH223890   1.380   2.019   7.104 -0.0318 -0.2279 -0.0055
  752TIP3    H123891   1.400   2.029   7.011  2.4705  0.9891  0.5890
  752TIP3    H223892   1.287   1.996   7.105  0.1236 -1.4488 -2.8302
  753TIP3   OH223893   2.737   0.502   1.025 -0.0568 -0.1717  0.0843
  753TIP3    H123894   2.775   0.436   1.083  0.1116 -0.2710 -0.1366
  753TIP3    H223895   2.685   0.558   1.083 -2.0903 -1.8350 -0.0519
  754TIP3   OH223896   2.072   5.188   8.051 -0.0254 -0.4226  0.1980
  754TIP3    H123897   2.091   5.239   8.129  0.2985  0.0453 -0.1849
  754TIP3    H223898   1.982   5.211   8.027  0.4689  0.7891 -0.5817
  755TIP3   OH223899   0.377   1.796   6.328  0.1130 -0.1913 -0.0561
  755TIP3    H123900   0.451   1.761   6.377 -0.3944 -0.9277  0.2214
  755TIP3    H223901   0.321   1.836   6.394  0.3260  0.4823 -0.2805
  756TIP3   OH223902   6.640   3.779   8.390 -0.0040  0.2929  0.4371
  756TIP3    H123903   6.671   3.765   8.479 -1.7313  0.6577  1.1282
  756TIP3    H223904   6.647   3.873   8.376  1.3264  0.1113 -0.2451
  757TIP3   OH223905   3.267   5.148   1.238 -0.3647  0.2411  0.4516
  757TIP3    H123906   3.193   5.200   1.207 -0.5609  0.9795  2.0286
  757TIP3    H223907   3.316   5.125   1.159 -2.2917 -0.3315 -0.6528
  758TIP3   OH223908   4.001   6.736   7.512  0.1923 -0.3905 -0.3238
  758TIP3    H123909   3.939   6.682   7.561  0.6751  1.1984  2.2144
  758TIP3    H223910   3.950   6.812   7.483  0.5751  0.1711  0.4369
  759TIP3   OH223911   2.462   5.187   0.275  0.2748  0.4541 -0.0244
  759TIP3    H123912   2.542   5.239   0.267  1.2807 -1.1948 -1.3507
  759TIP3    H223913   2.487   5.100   0.245 -1.8338 -0.3244  0.3158
  760TIP3   OH223914   2.364   3.969   8.595  0.1446  0.5399  0.4572
  760TIP3    H123915   2.279   3.990   8.633  0.4086 -0.0818  1.4077
  760TIP3    H223916   2.355   3.880   8.562  0.9296 -0.2239  2.1628
  761TIP3   OH223917   5.314   5.885   0.407  0.5969 -0.0174 -0.0033
  761TIP3    H123918   5.329   5.878   0.502  1.3055  0.8147 -0.0396
  761TIP3    H223919   5.221   5.867   0.396  0.4011  0.3575  0.9168
  762TIP3   OH223920   6.382   4.188   1.316  0.5476  0.0475  0.1646
  762TIP3    H123921   6.426   4.176   1.400 -1.6706 -0.4779  1.3133
  762TIP3    H223922   6.396   4.280   1.294 -0.2336  0.6303  1.9675
  763TIP3   OH223923   1.722   3.555   1.495 -0.3204 -0.5142  0.7423
  763TIP3    H123924   1.757   3.598   1.573  0.9553 -0.1914  0.0239
  763TIP3    H223925   1.769   3.471   1.491  1.2319  0.3642 -0.8144
  764TIP3   OH223926   1.157   5.372   7.335  0.0822 -0.2273  0.2367
  764TIP3    H123927   1.107   5.454   7.334  0.5178  0.0619  1.0596
  764TIP3    H223928   1.172   5.355   7.428 -0.3413 -1.4638  0.0993
  765TIP3   OH223929   4.596   4.208   7.338 -0.3254 -0.0779 -0.3108
  765TIP3    H123930   4.600   4.158   7.256  2.0251  0.1382 -0.3955
  765TIP3    H223931   4.669   4.269   7.332 -0.6251  0.5170  1.5943
  766TIP3   OH223932   0.381   3.500   8.599 -0.2816  0.5179 -0.1924
  766TIP3    H123933   0.434   3.563   8.648  1.4628 -0.7252 -0.3890
  766TIP3    H223934   0.384   3.531   8.508 -0.9170  1.0898 -0.0340
  767TIP3   OH223935   5.433   4.517   0.517 -0.1425  0.6402 -0.6444
  767TIP3    H123936   5.485   4.462   0.460  0.9945 -0.6353  1.4753
  767TIP3    H223937   5.421   4.599   0.469  0.8542 -0.3120 -2.5903
  768TIP3   OH223938   4.334   3.193   6.991 -0.1766 -0.3423 -0.6581
  768TIP3    H123939   4.327   3.281   7.028  1.7640 -0.8782  1.2048
  768TIP3    H223940   4.318   3.205   6.897 -0.4549  1.8871 -0.3886
  769TIP3   OH223941   6.746   5.147   8.158 -0.2179  0.5529 -0.2031
  769TIP3    H123942   6.742   5.243   8.154 -0.6996  0.6175  1.1142
  769TIP3    H223943   6.770   5.128   8.249 -1.3118 -0.5771 -0.1120
  770TIP3   OH223944   1.932   2.202   0.744 -0.3367 -0.5595 -0.1486
  770TIP3    H123945   1.989   2.159   0.808 -1.8454 -0.5603  1.2558
  770TIP3    H223946   1.982   2.278   0.714  1.2572 -1.7406 -0.6189
  771TIP3   OH223947   3.592   2.691   7.319 -0.3553  0.3555  0.0957
  771TIP3    H123948   3.651   2.621   7.346 -1.4052 -0.5586  0.0911
  771TIP3    H223949   3.505   2.650   7.316 -0.7163  1.1303 -1.8819
  772TIP3   OH223950   5.798   2.888   0.204 -0.1752 -0.1279  0.6678
  772TIP3    H123951   5.764   2.873   0.293  1.8213  0.3530  1.5545
  772TIP3    H223952   5.875   2.832   0.198  0.0200  0.2466 -0.5861
  773TIP3   OH223953   5.107   1.507   8.349 -0.7163  0.0620  0.1749
  773TIP3    H123954   5.142   1.536   8.265 -0.0762 -0.7827  0.1338
  773TIP3    H223955   5.166   1.547   8.414 -0.4769 -0.2673  0.1637
  774TIP3   OH223956   1.081   5.605   8.561 -0.1571  0.3557  0.4156
  774TIP3    H123957   1.008   5.571   8.509 -0.7216 -1.4290  2.2538
  774TIP3    H223958   1.147   5.536   8.557 -0.9386 -0.7132  3.4384
  775TIP3   OH223959   2.243   5.878   8.054  0.5773  0.6840 -0.1825
  775TIP3    H123960   2.294   5.798   8.068  0.8843  0.6203 -1.5418
  775TIP3    H223961   2.286   5.944   8.110 -0.2737 -0.2889  1.7177
  776TIP3   OH223962   6.436   5.368   7.713 -0.2867  0.0715  0.1129
  776TIP3    H123963   6.529   5.345   7.711 -0.2765  0.0753  0.5221
  776TIP3    H223964   6.421   5.401   7.801 -0.3777  1.3487 -0.3664
  777TIP3   OH223965   4.782   6.481   1.348  0.1757  0.5247 -0.4698
  777TIP3    H123966   4.742   6.567   1.357  0.3502  0.4681  1.1573
  777TIP3    H223967   4.854   6.481   1.411  1.1935 -0.2463 -1.5974
  778TIP3   OH223968   5.002   6.652   0.027 -0.1373  0.1437  0.2961
  778TIP3    H123969   5.002   6.604  -0.056 -0.0104 -1.5876  1.2582
  778TIP3    H223970   4.975   6.740   0.003 -1.6432 -0.7078 -1.3711
  779TIP3   OH223971   4.713   0.939   7.465  0.4263  0.4665 -0.3990
  779TIP3    H123972   4.702   1.006   7.532  1.0091 -0.8419  1.0577
  779TIP3    H223973   4.726   0.988   7.384  2.2446  2.1358  0.8192
  780TIP3   OH223974   3.669   3.494   1.055 -0.0553  0.2205  0.8325
  780TIP3    H123975   3.702   3.516   1.142 -1.5927 -2.0998  2.1042
  780TIP3    H223976   3.743   3.453   1.011  0.2750 -0.1226  1.6739
  781TIP3   OH223977   5.459   4.667   1.824  0.6027 -0.4911 -0.1948
  781TIP3    H123978   5.537   4.640   1.873  0.3820 -0.6641  0.0637
  781TIP3    H223979   5.436   4.590   1.772  2.9178  0.7097 -3.3870
  782TIP3   OH223980   0.878   5.105   1.403 -0.2880  0.0733  0.6130
  782TIP3    H123981   0.956   5.160   1.404  0.4043 -0.8103  3.4383
  782TIP3    H223982   0.818   5.148   1.464 -0.5824 -1.1197  1.1890
  783TIP3   OH223983   0.762   6.059   7.780  0.0062 -0.0759  0.2152
  783TIP3    H123984   0.708   5.982   7.763  1.3704 -1.5557  2.0669
  783TIP3    H223985   0.843   6.042   7.731  0.9673 -0.7180  1.9228
  784TIP3   OH223986   5.198   5.969   6.766 -0.1435 -0.1678 -0.2741
  784TIP3    H123987   5.146   6.043   6.734  0.6033  0.9728  1.0103
  784TIP3    H223988   5.268   5.959   6.702 -0.0587  0.4730 -0.2900
  785TIP3   OH223989   3.126   3.350   6.946 -0.9312  0.1181  0.1007
  785TIP3    H123990   3.104   3.260   6.921 -1.3640 -0.3142  1.9065
  785TIP3    H223991   3.191   3.377   6.881 -1.9079 -0.9308 -1.3894
  786TIP3   OH223992   3.983   5.658   2.535 -0.0680 -0.0509  0.6039
  786TIP3    H123993   4.015   5.650   2.445  1.1041 -0.6044  1.0461
  786TIP3    H223994   4.044   5.605   2.586 -2.3716 -2.1527  1.3610
  787TIP3   OH223995   5.052   0.629   1.901  0.2124 -0.0804  0.1534
  787TIP3    H123996   4.971   0.673   1.928 -1.5329 -1.4213 -2.4517
  787TIP3    H223997   5.042   0.540   1.934  1.2221  0.0419  0.8208
  788TIP3   OH223998   6.391   1.690   7.945 -0.6242  0.0223 -0.0185
  788TIP3    H123999   6.440   1.609   7.963 -1.1111 -0.4429 -0.7106
  788TIP3    H224000   6.306   1.676   7.987 -0.5975  0.3065  0.1272
  789TIP3   OH224001   5.604   1.689   0.583  0.7470  0.1473  0.0973
  789TIP3    H124002   5.677   1.677   0.522  1.0309 -1.5101  0.7089
  789TIP3    H224003   5.606   1.782   0.606  3.0990  0.0137  0.6175
  790TIP3   OH224004   2.279   6.456   7.938 -0.5491 -0.1572  0.4305
  790TIP3    H124005   2.261   6.536   7.890  1.9290  0.6609  0.7444
  790TIP3    H224006   2.275   6.482   8.030 -0.2806 -0.5284  0.5493
  791TIP3   OH224007   6.884   2.341   0.740 -0.2927  0.0630  0.3343
  791TIP3    H124008   6.853   2.254   0.717  0.8541 -0.4813  0.7575
  791TIP3    H224009   6.806   2.390   0.764 -0.8394 -1.1949  1.1965
  792TIP3   OH224010   0.555   2.808   0.892 -0.0344  0.4769 -0.5966
  792TIP3    H124011   0.463   2.834   0.888 -0.5727 -0.0452  3.9600
  792TIP3    H224012   0.603   2.891   0.896 -0.3970  0.7396 -1.4638
  793TIP3   OH224013   2.876   3.210   0.425 -0.3427  0.0083  0.3913
  793TIP3    H124014   2.894   3.254   0.508 -0.8892 -1.9847  1.6458
  793TIP3    H224015   2.804   3.149   0.445  0.7458 -1.8746 -1.0559
  794TIP3   OH224016   1.771   4.828   1.453  0.0931 -0.4419 -0.5709
  794TIP3    H124017   1.755   4.902   1.395 -0.7664  0.7450  1.1248
  794TIP3    H224018   1.857   4.796   1.427 -0.1150  0.2655 -2.2510
  795TIP3   OH224019   1.632   3.176   7.838  0.0620 -0.1670  0.1565
  795TIP3    H124020   1.627   3.261   7.795  1.4843  0.3407  0.9230
  795TIP3    H224021   1.601   3.113   7.773  2.6606  0.4852 -1.8638
  796TIP3   OH224022   6.881   5.111   6.707  0.1846  0.0898  0.5201
  796TIP3    H124023   6.894   5.028   6.751  0.4783 -1.5497 -2.4023
  796TIP3    H224024   6.897   5.092   6.615 -1.1625  3.0641 -0.4541
  797TIP3   OH224025   0.526   1.155   7.292 -1.0730  0.2186  0.4742
  797TIP3    H124026   0.600   1.200   7.335 -0.3168 -1.1087  0.6397
  797TIP3    H224027   0.497   1.215   7.224 -0.7600  1.3780  1.3355
  798TIP3   OH224028   4.316   2.713   0.669 -0.3957 -0.4868 -0.2145
  798TIP3    H124029   4.267   2.632   0.683 -2.3828  0.4304 -1.5083
  798TIP3    H224030   4.284   2.747   0.586  0.1558  1.7978  0.4351
  799TIP3   OH224031   3.392   0.265   7.949 -0.1664 -0.5778  0.0230
  799TIP3    H124032   3.405   0.264   7.854 -1.1260  1.6215 -0.2026
  799TIP3    H224033   3.310   0.218   7.962 -0.5344 -0.0544 -0.3591
  800TIP3   OH224034   4.267   2.598   7.244  0.0657 -0.2142 -0.8023
  800TIP3    H124035   4.332   2.646   7.192 -0.4588 -0.6148 -1.8544
  800TIP3    H224036   4.186   2.648   7.232 -0.5357 -1.4220 -2.0707
  801TIP3   OH224037   5.552   0.836   6.706  0.4020 -0.0023 -0.1014
  801TIP3    H124038   5.580   0.814   6.617  1.4658  1.5145 -0.1746
  801TIP3    H224039   5.585   0.764   6.760 -1.7740 -1.8619 -1.0952
  802TIP3   OH224040   1.841   2.980   8.281 -0.2463 -0.4509 -0.3433
  802TIP3    H124041   1.750   2.951   8.289 -0.5296  0.2822 -0.8281
  802TIP3    H224042   1.888   2.929   8.347 -1.2181  0.0414  0.7641
  803TIP3   OH224043   6.500   1.321   0.811 -0.3891  0.2956  0.7171
  803TIP3    H124044   6.595   1.333   0.806 -0.3016 -0.1910  1.1004
  803TIP3    H224045   6.487   1.264   0.887 -0.8341 -1.4114 -0.5744
  804TIP3   OH224046   2.296   3.885   7.559 -0.1349  0.3983 -0.6712
  804TIP3    H124047   2.330   3.959   7.609 -0.9251  0.1622  0.2268
  804TIP3    H224048   2.323   3.808   7.610 -0.2124  0.1121 -1.0612
  805TIP3   OH224049   2.828   6.418   0.376 -1.0044 -0.1928  0.5452
  805TIP3    H124050   2.840   6.457   0.463 -0.3895  1.2887 -0.1782
  805TIP3    H224051   2.836   6.323   0.391 -0.3287  0.0700  2.0082
  806TIP3   OH224052   0.593   3.627   1.268  0.1302 -0.0125 -0.4388
  806TIP3    H124053   0.609   3.708   1.316  0.0063 -0.7421  0.8832
  806TIP3    H224054   0.671   3.616   1.212  1.6209 -0.5368  1.6348
  807TIP3   OH224055   0.702   3.105   0.546 -0.0636  0.6839  0.5961
  807TIP3    H124056   0.662   3.102   0.459  1.2338  3.7533 -0.2433
  807TIP3    H224057   0.628   3.107   0.607 -0.9969 -0.5003 -0.4452
  808TIP3   OH224058   1.862   3.297   1.415 -0.0365 -0.0876 -0.2866
  808TIP3    H124059   1.783   3.284   1.363  0.1758 -1.1083 -0.3767
  808TIP3    H224060   1.914   3.218   1.400  1.3825  0.9124 -0.9071
  809TIP3   OH224061   4.782   4.599   1.057  0.6660  0.4130 -0.0064
  809TIP3    H124062   4.712   4.582   1.120 -2.2752 -0.5966 -3.3013
  809TIP3    H224063   4.773   4.691   1.035  0.2904  0.2667 -0.4823
  810TIP3   OH224064   1.849   5.625   2.515  0.1430  0.2138  0.4104
  810TIP3    H124065   1.808   5.566   2.451  1.1139  0.7081 -0.7000
  810TIP3    H224066   1.840   5.712   2.476  0.9798  0.4947  0.8286
  811TIP3   OH224067   1.161   0.667   8.626  0.2982 -0.3358 -0.2447
  811TIP3    H124068   1.190   0.733   8.689 -1.6628 -0.0415  0.4185
  811TIP3    H224069   1.139   0.591   8.679 -0.3247 -0.4671 -0.6759
  812TIP3   OH224070   2.845   6.721   0.953  0.1011 -0.4279  0.0582
  812TIP3    H124071   2.754   6.748   0.968  0.2418  0.2138 -0.2108
  812TIP3    H224072   2.896   6.801   0.964  0.9282 -1.1933  2.5990
  813TIP3   OH224073   2.532   1.753   2.079  0.4107 -0.6282  0.4169
  813TIP3    H124074   2.483   1.786   2.154  0.3401  0.6283 -0.1604
  813TIP3    H224075   2.614   1.803   2.079  0.4216 -0.6310 -0.3223
  814TIP3   OH224076   4.751   3.405   1.685 -0.3033 -0.1900 -0.0755
  814TIP3    H124077   4.709   3.343   1.744  0.5671 -1.1113 -0.3990
  814TIP3    H224078   4.681   3.434   1.627 -0.8706 -0.3262  0.5261
  815TIP3   OH224079   1.423   3.336   0.134 -0.1289 -0.1841 -0.2179
  815TIP3    H124080   1.411   3.417   0.084 -0.7365 -0.2210 -0.1411
  815TIP3    H224081   1.458   3.364   0.218 -2.9425  0.3270  0.8891
  816TIP3   OH224082   0.620   6.391   7.984  0.0716 -0.3261 -0.3014
  816TIP3    H124083   0.553   6.423   8.044 -0.3728 -0.1319 -0.9079
  816TIP3    H224084   0.697   6.446   8.003 -1.2923  2.7668 -2.8945
  817TIP3   OH224085   6.736   5.603   8.545  0.1103  0.6902  1.1741
  817TIP3    H124086   6.649   5.573   8.518  0.8496 -1.2834  0.8886
  817TIP3    H224087   6.796   5.567   8.480  1.1700  2.0251  1.3743
  818TIP3   OH224088   3.124   4.838   0.326  0.3986  0.2704 -0.0506
  818TIP3    H124089   3.062   4.779   0.368  1.0447 -0.9726 -0.7759
  818TIP3    H224090   3.076   4.920   0.315 -0.3067  0.1236  1.6004
  819TIP3   OH224091   6.568   6.078   6.639  0.7903 -0.6953 -0.2856
  819TIP3    H124092   6.655   6.042   6.621  0.8330 -0.1136 -1.2908
  819TIP3    H224093   6.555   6.146   6.573  0.4522  0.7238  1.1533
  820TIP3   OH224094   4.363   6.077   1.298 -0.1119  0.1531 -0.3044
  820TIP3    H124095   4.351   6.004   1.359  1.8391  1.1651  1.4311
  820TIP3    H224096   4.362   6.155   1.354  1.2756  1.1668 -1.6108
  821TIP3   OH224097   4.546   4.041   8.622 -0.0470 -0.4335 -0.1557
  821TIP3    H124098   4.571   4.003   8.537 -1.7648  0.9846 -1.3807
  821TIP3    H224099   4.544   4.136   8.606  1.5916  0.0805  2.0919
  822TIP3   OH224100   1.526   4.791   7.407 -0.1773  0.2731  0.3036
  822TIP3    H124101   1.454   4.832   7.455  0.0421  1.2122 -0.1550
  822TIP3    H224102   1.509   4.697   7.415 -1.1142  0.4643  0.7132
  823TIP3   OH224103   5.468   3.132   6.428 -0.2059 -0.2412  0.0448
  823TIP3    H124104   5.541   3.189   6.404  0.8533 -1.6000 -0.1229
  823TIP3    H224105   5.502   3.080   6.501  0.2476 -3.1525 -2.0470
  824TIP3   OH224106   4.430   0.351   6.550 -0.2686 -0.0298 -0.2723
  824TIP3    H124107   4.345   0.325   6.516 -0.9820  1.1033  0.5561
  824TIP3    H224108   4.427   0.330   6.643  1.1907 -1.9414 -0.5870
  825TIP3   OH224109   5.895   6.145   2.524  0.0761  0.4679 -0.4211
  825TIP3    H124110   5.859   6.201   2.593 -1.3370 -0.0444 -0.7157
  825TIP3    H224111   5.949   6.205   2.471 -0.5511  1.3273 -0.1147
  826TIP3   OH224112   6.630   3.892   6.158  0.0274  0.2292 -0.2687
  826TIP3    H124113   6.650   3.862   6.070  1.1305  2.9007 -1.0023
  826TIP3    H224114   6.563   3.831   6.189 -1.4579  0.0289 -3.4711
  827TIP3   OH224115   1.465   2.636   0.571  0.0479  0.1490 -0.3651
  827TIP3    H124116   1.420   2.583   0.506 -0.8027 -0.2939  0.5629
  827TIP3    H224117   1.531   2.577   0.609 -1.0258 -0.3428  0.8015
  828TIP3   OH224118   5.870   0.570   2.476 -0.2043  0.0328 -0.1556
  828TIP3    H124119   5.945   0.510   2.483  0.1910  0.4933 -0.3854
  828TIP3    H224120   5.909   0.657   2.487 -0.8599  0.2139  0.8249
  829TIP3   OH224121   1.227   4.387   0.347  0.1537 -0.3359 -0.6548
  829TIP3    H124122   1.319   4.373   0.367 -0.0530  0.8012  1.3138
  829TIP3    H224123   1.181   4.317   0.393 -0.0880  0.1639 -0.1293
  830TIP3   OH224124   6.797   4.759   7.632  0.0491  0.1906 -0.0860
  830TIP3    H124125   6.799   4.698   7.558 -0.9968 -0.0580  0.0715
  830TIP3    H224126   6.766   4.707   7.706 -2.5793  1.2434 -0.3260
  831TIP3   OH224127   1.841   6.390   8.107 -0.3744 -0.0872  0.2963
  831TIP3    H124128   1.923   6.429   8.137 -0.0894 -1.2520  1.0595
  831TIP3    H224129   1.778   6.463   8.110  0.6299  0.8580 -0.4358
  832TIP3   OH224130   2.005   4.167   7.409  0.5451 -0.3504 -0.0809
  832TIP3    H124131   2.099   4.152   7.419  0.8407  1.8331  0.9696
  832TIP3    H224132   1.965   4.106   7.470  1.3718 -0.3118  0.5233
  833TIP3   OH224133   2.103   4.580   5.810 -0.2507  0.1233 -0.1612
  833TIP3    H124134   2.025   4.549   5.856  0.1416 -2.6875 -1.1493
  833TIP3    H224135   2.079   4.581   5.718  0.6683 -0.1264 -0.4197
  834TIP3   OH224136   4.674   3.347   0.938 -0.1874 -0.2410 -0.8790
  834TIP3    H124137   4.697   3.407   1.009 -0.4588  0.5898 -1.4774
  834TIP3    H224138   4.609   3.395   0.887 -1.4499 -1.5816 -0.5996
  835TIP3   OH224139   2.581   4.508   7.706  0.2919 -0.4892 -0.2651
  835TIP3    H124140   2.663   4.542   7.742  0.0277 -0.7242  0.5749
  835TIP3    H224141   2.596   4.415   7.695  0.3291 -0.4383 -0.6485
  836TIP3   OH224142   3.430   1.124   6.903  0.2416 -0.0838  0.1037
  836TIP3    H124143   3.385   1.202   6.935  0.3829  0.8894 -1.8570
  836TIP3    H224144   3.512   1.121   6.952  0.7425  1.6918 -0.5445
  837TIP3   OH224145   6.413   5.172   7.254 -0.0401 -0.1437 -0.2899
  837TIP3    H124146   6.491   5.117   7.260 -1.6102 -2.4243  0.4287
  837TIP3    H224147   6.437   5.242   7.193  2.4699 -0.8738 -0.2267
  838TIP3   OH224148   1.151   6.096   7.153 -0.2519 -0.0185 -0.3592
  838TIP3    H124149   1.173   6.076   7.244  0.0768 -0.6466 -0.5688
  838TIP3    H224150   1.213   6.164   7.128  0.0300 -0.2436 -0.2819
  839TIP3   OH224151   6.519   6.475   7.692 -0.2002  0.1366 -0.3380
  839TIP3    H124152   6.534   6.441   7.604  1.1020 -0.6024  0.1263
  839TIP3    H224153   6.446   6.423   7.726 -1.1584  0.8930 -1.2060
  840TIP3   OH224154   4.918   3.023   6.946 -0.1091 -0.0538 -0.0282
  840TIP3    H124155   4.918   3.117   6.927  0.5343 -0.0124  0.1330
  840TIP3    H224156   4.867   3.015   7.027 -0.3713  0.1283 -0.1743
  841TIP3   OH224157   1.031   4.842   6.866  0.0025 -0.3941  0.1243
  841TIP3    H124158   1.027   4.850   6.771 -0.3873 -1.4446  0.0412
  841TIP3    H224159   1.105   4.896   6.892  1.2393 -1.5177 -0.9613
  842TIP3   OH224160   1.515   0.316   1.674 -0.0097  0.1523  0.1965
  842TIP3    H124161   1.586   0.368   1.713 -0.0647 -1.0120  1.9888
  842TIP3    H224162   1.435   0.363   1.698 -0.0118 -0.3072  1.1755
  843TIP3   OH224163   3.530   3.134   0.267 -0.4364  0.2890  0.0852
  843TIP3    H124164   3.451   3.153   0.317 -1.8415 -0.3023 -1.8313
  843TIP3    H224165   3.585   3.085   0.328 -3.0037 -2.3805  0.4585
  844TIP3   OH224166   3.464   2.040   1.004  0.3721  0.0401  0.2864
  844TIP3    H124167   3.388   2.085   1.043  1.2661  2.3016 -0.4363
  844TIP3    H224168   3.459   1.951   1.039 -3.6387 -0.4899 -1.1432
  845TIP3   OH224169   5.461   1.507   2.341  0.5224  0.2072 -0.0320
  845TIP3    H124170   5.410   1.536   2.416  2.2959  1.7633  0.6593
  845TIP3    H224171   5.502   1.587   2.308  2.7004 -0.9603 -0.3491
  846TIP3   OH224172   4.876   2.036   0.320  0.0961  0.3153 -0.1576
  846TIP3    H124173   4.832   2.103   0.267  0.4627 -0.4621 -1.4897
  846TIP3    H224174   4.930   2.086   0.381  2.0044  1.3336 -2.4811
  847TIP3   OH224175   0.105   1.197   7.901 -0.3846 -0.0855 -0.8822
  847TIP3    H124176   0.174   1.161   7.956 -1.4490 -1.1059 -0.1531
  847TIP3    H224177   0.143   1.277   7.864  0.9339 -0.2506  0.0288
  848TIP3   OH224178   6.707   4.905   1.617 -0.3637 -0.6273  0.0192
  848TIP3    H124179   6.668   4.863   1.694  0.0449 -0.6345  0.2268
  848TIP3    H224180   6.763   4.838   1.579 -0.1638 -0.4583  0.0145
  849TIP3   OH224181   3.363   4.974   0.684  0.1368 -0.2800 -0.0561
  849TIP3    H124182   3.411   5.057   0.672  0.8392 -0.5471  0.8424
  849TIP3    H224183   3.278   5.001   0.720  0.4914  0.0245  0.5596
  850TIP3   OH224184   6.359   2.464   7.109  0.5488  0.5366  0.4825
  850TIP3    H124185   6.448   2.497   7.117  1.8976 -2.5916 -0.1735
  850TIP3    H224186   6.337   2.477   7.017 -0.2135  2.3879  0.8835
  851TIP3   OH224187   6.523   5.271   6.911  0.1104 -0.4586 -0.3929
  851TIP3    H124188   6.565   5.324   6.843  1.5861  0.3173  1.0479
  851TIP3    H224189   6.521   5.328   6.988 -0.3417 -1.7319  0.5689
  852TIP3   OH224190   0.773   2.467   0.359 -0.2102  0.8444 -0.1342
  852TIP3    H124191   0.853   2.489   0.407 -0.1123 -1.4336  0.8762
  852TIP3    H224192   0.795   2.483   0.267  0.3021  3.2561  0.3361
  853TIP3   OH224193   3.137   6.298   7.101  0.0848 -0.0007 -0.6885
  853TIP3    H124194   3.171   6.261   7.019  1.7042  1.4662 -0.7486
  853TIP3    H224195   3.105   6.385   7.076 -1.6273 -0.4508 -0.1651
  854TIP3   OH224196   1.163   4.094   1.409  0.1792 -0.0877 -0.7460
  854TIP3    H124197   1.174   4.188   1.424 -0.0487 -0.1282 -0.3162
  854TIP3    H224198   1.160   4.056   1.497  2.5260 -0.7672 -0.8713
  855TIP3   OH224199   3.362   2.859   8.099  0.1813 -0.0500 -0.3018
  855TIP3    H124200   3.455   2.868   8.079 -0.0739  0.6127 -1.1992
  855TIP3    H224201   3.330   2.949   8.109 -0.1978 -0.2878  0.8357
  856TIP3   OH224202   1.530   6.604   0.056 -0.5427 -0.2043 -0.3368
  856TIP3    H124203   1.552   6.545  -0.016 -1.1253  0.8120 -1.3967
  856TIP3    H224204   1.443   6.638   0.033 -0.7635  0.1026  0.8815
  857TIP3   OH224205   2.073   5.254   7.130 -0.5357  0.1810  0.1862
  857TIP3    H124206   2.004   5.205   7.086  0.6414 -0.6800 -0.7783
  857TIP3    H224207   2.094   5.325   7.069 -1.7549  1.5331  1.2676
  858TIP3   OH224208   4.671   1.129   8.613 -0.2892  0.1334 -0.0095
  858TIP3    H124209   4.603   1.093   8.670 -0.5663  0.0176 -0.4102
  858TIP3    H224210   4.681   1.220   8.642  0.8640 -0.4056  1.4321
  859TIP3   OH224211   2.679   4.239   7.717 -0.2643  0.2720 -0.2046
  859TIP3    H124212   2.724   4.190   7.787 -0.0450  0.6158 -0.0982
  859TIP3    H224213   2.741   4.239   7.644  0.8950  2.6047  0.6623
  860TIP3   OH224214   2.410   6.154   1.119  0.3990 -0.2494 -0.0689
  860TIP3    H124215   2.406   6.102   1.039  0.6251 -0.1288 -0.1623
  860TIP3    H224216   2.489   6.123   1.164 -0.1115 -0.8064  0.4550
  861TIP3   OH224217   6.787   2.451   0.268 -0.2238  0.4972 -0.8410
  861TIP3    H124218   6.705   2.407   0.247  0.2089 -0.0467 -1.4459
  861TIP3    H224219   6.855   2.387   0.245  0.3292  0.0172  1.7715
  862TIP3   OH224220   1.788   0.058   1.948 -0.5648 -0.6234  0.1658
  862TIP3    H124221   1.849   0.046   1.875  0.5761  0.3646  0.9123
  862TIP3    H224222   1.787  -0.027   1.992 -0.4316 -0.9177 -0.3855
  863TIP3   OH224223   4.021   3.342   7.004 -0.1691 -0.1936  0.1393
  863TIP3    H124224   3.963   3.377   6.935 -1.3646  0.6447  1.5027
  863TIP3    H224225   4.046   3.255   6.972 -2.0490 -0.5206 -0.6215
  864TIP3   OH224226   0.995   5.348   1.388  0.4899  0.6165 -0.2032
  864TIP3    H124227   0.937   5.420   1.411  0.2236  0.2337  0.3433
  864TIP3    H224228   1.069   5.355   1.449 -0.1642 -0.3327  0.7473
  865TIP3   OH224229   5.656   1.417   6.093 -0.5947 -0.4615 -0.7092
  865TIP3    H124230   5.690   1.404   6.005 -1.5772  1.0963 -1.3810
  865TIP3    H224231   5.579   1.361   6.098 -0.3380 -0.8127 -0.7184
  866TIP3   OH224232   6.680   5.776   0.169  0.0124  0.5609  0.2080
  866TIP3    H124233   6.598   5.727   0.162 -0.2832  1.1033 -0.1945
  866TIP3    H224234   6.733   5.744   0.095 -0.6583  1.7191 -0.8038
  867TIP3   OH224235   0.636   0.216   7.836 -0.2722  0.2420 -0.4132
  867TIP3    H124236   0.634   0.138   7.892  0.2794 -0.3617 -1.1937
  867TIP3    H224237   0.601   0.185   7.752 -2.2716  1.4407 -0.0621
  868TIP3   OH224238   3.776   3.508   7.280 -0.0207  0.6119 -0.3431
  868TIP3    H124239   3.830   3.429   7.271 -0.2617  0.4692 -0.5365
  868TIP3    H224240   3.824   3.562   7.343  0.0163  0.2020 -0.0149
  869TIP3   OH224241   2.803   5.103   0.992  0.2240  0.3834  0.1661
  869TIP3    H124242   2.848   5.140   0.916  0.5592 -0.6744 -0.1785
  869TIP3    H224243   2.869   5.050   1.036 -0.3723 -0.2508  0.3217
  870TIP3   OH224244   5.094   3.797   7.479  0.3524 -0.1951 -0.4707
  870TIP3    H124245   5.172   3.811   7.534 -0.2223  0.8449  0.1085
  870TIP3    H224246   5.123   3.820   7.391  0.7085  0.1512 -0.2656
  871TIP3   OH224247   6.056   1.892   1.054 -0.2536 -0.0368  0.8559
  871TIP3    H124248   6.118   1.823   1.077  1.2088  0.2790 -1.7189
  871TIP3    H224249   6.009   1.858   0.978  0.5502  1.7305 -0.5249
  872TIP3   OH224250   6.406   0.298   7.197 -0.3705  0.8313 -0.2679
  872TIP3    H124251   6.333   0.253   7.155 -0.0678 -0.0015  0.0740
  872TIP3    H224252   6.470   0.310   7.127  0.7212 -1.8071  0.1766
  873TIP3   OH224253   1.267   1.796   7.554 -0.0581 -0.0605  0.1341
  873TIP3    H124254   1.266   1.797   7.649 -1.3532 -1.2564  0.1754
  873TIP3    H224255   1.175   1.812   7.529 -0.3115 -2.4609 -0.7910
  874TIP3   OH224256   0.674   0.330   1.162 -0.0549 -0.1757  0.1681
  874TIP3    H124257   0.582   0.357   1.159 -0.0675 -0.2983 -1.5037
  874TIP3    H224258   0.683   0.266   1.092  1.8234  1.6254 -1.4036
  875TIP3   OH224259   5.487   4.811   1.023  0.4482  0.2122  0.5942
  875TIP3    H124260   5.570   4.770   1.049  0.6283 -0.3869 -0.8352
  875TIP3    H224261   5.419   4.752   1.055  0.6196  0.0617  0.6810
  876TIP3   OH224262   4.455   2.175   2.178  0.2989  0.0367 -0.5007
  876TIP3    H124263   4.503   2.103   2.218  0.7228  0.0483 -0.9815
  876TIP3    H224264   4.421   2.225   2.252  0.9855  0.0037 -0.1516
  877TIP3   OH224265   2.851   3.149   7.176 -0.1057  0.6241  0.8166
  877TIP3    H124266   2.824   3.129   7.087 -0.5375 -1.3447  1.3455
  877TIP3    H224267   2.857   3.245   7.178 -1.3724  0.7940 -0.9436
  878TIP3   OH224268   1.930   4.539   7.068 -0.4138 -0.5226 -0.1448
  878TIP3    H124269   1.876   4.555   7.146 -1.2289  0.0441 -0.8096
  878TIP3    H224270   1.874   4.487   7.010 -0.7515  1.1098 -1.3608
  879TIP3   OH224271   0.521   3.733   8.631  0.3500 -0.1683 -0.0723
  879TIP3    H124272   0.476   3.813   8.603 -2.6342 -0.6949  2.6499
  879TIP3    H224273   0.606   3.764   8.664  0.5346  1.4038 -1.8465
  880TIP3   OH224274   6.264   6.835   1.504 -0.5410  0.2660 -0.3685
  880TIP3    H124275   6.234   6.777   1.434  1.5155 -0.8964 -0.3880
  880TIP3    H224276   6.359   6.838   1.492 -0.3615  1.6870  1.1588
  881TIP3   OH224277   5.658   6.177   0.372  0.1430 -0.2278  0.4074
  881TIP3    H124278   5.627   6.120   0.302  0.7493  0.7064 -0.6501
  881TIP3    H224279   5.691   6.117   0.439  1.1995 -1.1390 -0.8777
  882TIP3   OH224280   0.024   0.806   1.008  0.1851  0.0879 -0.2099
  882TIP3    H124281   0.053   0.886   1.051 -1.5966  0.4204  0.4834
  882TIP3    H224282  -0.069   0.821   0.990  0.2123 -1.1824 -1.5992
  883TIP3   OH224283   6.495   1.419   8.075 -0.5698 -0.3189  0.6857
  883TIP3    H124284   6.557   1.388   8.141 -0.3297  2.6569  2.0189
  883TIP3    H224285   6.547   1.429   7.996 -0.1931 -1.1923  0.8058
  884TIP3   OH224286   0.636   5.974   2.096  0.1009  0.1614  0.0730
  884TIP3    H124287   0.701   6.023   2.045  0.7914 -1.1463 -0.3519
  884TIP3    H224288   0.553   6.018   2.079  0.5652  0.6510 -0.9862
  885TIP3   OH224289   0.117   4.348   5.864 -0.2994 -0.0568 -0.3815
  885TIP3    H124290   0.172   4.364   5.940 -0.0592 -0.7850 -0.3854
  885TIP3    H224291   0.149   4.264   5.829 -1.4871 -0.5609 -0.3160
  886TIP3   OH224292   1.400   3.752   0.902 -0.6657 -0.3985  0.2482
  886TIP3    H124293   1.312   3.766   0.867  0.0067  1.0819 -0.9938
  886TIP3    H224294   1.447   3.834   0.883  0.5211 -0.4919  2.3820
  887TIP3   OH224295   2.328   1.007   8.124  0.3006  0.4569  0.1191
  887TIP3    H124296   2.371   0.996   8.209  2.1097 -1.3534 -0.9527
  887TIP3    H224297   2.282   0.925   8.109 -1.8379  1.5531  0.2409
  888TIP3   OH224298   4.671   1.736   8.221  0.1960 -0.1229  0.3081
  888TIP3    H124299   4.730   1.692   8.281  0.8073 -0.8737 -0.8033
  888TIP3    H224300   4.587   1.738   8.266  0.2328 -2.1371  0.5479
  889TIP3   OH224301   6.699   5.089   0.761  0.0491  0.9087  0.4141
  889TIP3    H124302   6.632   5.124   0.819 -0.6903  1.9502 -1.0192
  889TIP3    H224303   6.665   5.005   0.733 -0.0042  0.8079  0.7738
  890TIP3   OH224304   4.288   3.198   0.130 -0.4499 -0.0773  0.1391
  890TIP3    H124305   4.208   3.250   0.132  0.1236  0.9284 -1.3141
  890TIP3    H224306   4.273   3.135   0.059 -0.0232  0.0216 -0.0430
  891TIP3   OH224307   0.670   0.953   1.225  0.1754  0.0653 -0.9403
  891TIP3    H124308   0.730   0.936   1.152 -0.0297 -0.1476 -1.0601
  891TIP3    H224309   0.654   1.047   1.221  0.7305  0.1749 -0.7287
  892TIP3   OH224310   0.808   5.262   8.336 -0.2304 -0.4166  0.4277
  892TIP3    H124311   0.723   5.255   8.293 -1.1843  1.3870  1.8905
  892TIP3    H224312   0.870   5.224   8.273 -1.7882  0.2618 -1.6302
  893TIP3   OH224313   2.489   4.821   1.909  0.7251  0.2501  0.0964
  893TIP3    H124314   2.496   4.752   1.843  0.6064 -1.3104  1.6235
  893TIP3    H224315   2.578   4.857   1.916  0.3136  2.0094 -2.4096
  894TIP3   OH224316   3.387   1.638   6.056  0.5234 -0.4304  0.5646
  894TIP3    H124317   3.394   1.674   6.145 -0.4762 -0.4946  0.6810
  894TIP3    H224318   3.337   1.557   6.067  2.9995 -2.0650  0.3460
  895TIP3   OH224319   1.228   1.344   2.028 -0.1670  0.3296 -0.4550
  895TIP3    H124320   1.313   1.387   2.034 -0.8679  1.6539  0.5209
  895TIP3    H224321   1.224   1.287   2.104 -0.3375  0.6377 -0.2302
  896TIP3   OH224322   2.722   1.903   1.709  0.0102 -0.1364 -0.9443
  896TIP3    H124323   2.797   1.845   1.698 -0.3131 -0.7354 -0.0273
  896TIP3    H224324   2.761   1.991   1.713  0.6267 -0.4077 -0.8651
  897TIP3   OH224325   0.182   2.913   7.454  0.2195 -0.3894  0.2414
  897TIP3    H124326   0.104   2.857   7.457 -0.1392  0.1362  1.0405
  897TIP3    H224327   0.158   2.985   7.396 -0.0920  0.0493  0.9001
  898TIP3   OH224328   6.789   1.033   7.878 -0.3825  0.4095 -0.1999
  898TIP3    H124329   6.834   1.108   7.840 -0.1653  0.0757 -0.6073
  898TIP3    H224330   6.758   0.983   7.803  1.5918 -1.2157 -0.0023
  899TIP3   OH224331   5.998   3.063   0.055  0.8161 -0.2226  0.2537
  899TIP3    H124332   5.945   3.081   0.133  0.8421 -0.0423  0.2288
  899TIP3    H224333   5.935   3.031  -0.010  0.9053 -1.1723  0.6098
  900TIP3   OH224334   4.682   6.522   8.372  0.5664 -0.5485 -0.6246
  900TIP3    H124335   4.704   6.586   8.439 -0.6531  1.1594 -1.7878
  900TIP3    H224336   4.590   6.540   8.351  1.0090 -0.7878 -2.9979
  901TIP3   OH224337   2.663   6.287   7.050  0.0284  0.0923 -0.2130
  901TIP3    H124338   2.716   6.360   7.017  0.7719 -0.0366  0.6408
  901TIP3    H224339   2.660   6.225   6.977 -0.3979  0.8554 -0.8595
  902TIP3   OH224340   4.242   4.438   7.128  0.0574 -0.0724  0.0668
  902TIP3    H124341   4.289   4.477   7.055 -1.5276  0.7576 -0.5768
  902TIP3    H224342   4.169   4.498   7.145 -2.2762 -2.4649 -0.6973
  903TIP3   OH224343   0.987   4.143   6.952 -0.0615 -0.3448 -0.1343
  903TIP3    H124344   0.959   4.225   6.911  0.4169  0.9718  1.9493
  903TIP3    H224345   1.080   4.137   6.932 -0.5081 -1.5693 -2.0735
  904TIP3   OH224346   3.606   6.018   2.411 -0.1039  0.3669 -0.2551
  904TIP3    H124347   3.549   6.061   2.474  0.1280  1.8334 -1.0041
  904TIP3    H224348   3.555   5.944   2.378 -0.3275 -0.2736  1.4287
  905TIP3   OH224349   4.652   5.778   7.302  0.1859  0.2299  0.0892
  905TIP3    H124350   4.579   5.839   7.300 -0.5875 -0.6754  0.1954
  905TIP3    H224351   4.726   5.827   7.265 -0.7341  0.8220 -1.0235
  906TIP3   OH224352   3.095   3.313   6.501 -0.6033  0.0678 -0.2627
  906TIP3    H124353   3.185   3.297   6.473 -0.2561  1.0327  0.2635
  906TIP3    H224354   3.090   3.276   6.590 -0.1368  1.7247  0.4889
  907TIP3   OH224355   1.479   2.270   8.201  0.4630  0.3258 -0.1711
  907TIP3    H124356   1.566   2.302   8.224  0.4101  0.6822 -0.4482
  907TIP3    H224357   1.496   2.193   8.147  0.6098  0.4342 -0.2816
  908TIP3   OH224358   2.876   1.730   1.263 -0.6463 -0.4207 -0.4699
  908TIP3    H124359   2.936   1.660   1.239 -0.0185 -0.4870  1.1488
  908TIP3    H224360   2.830   1.697   1.341  0.0016  1.1208  0.6272
  909TIP3   OH224361   2.324   3.434   6.149  0.4576 -0.0586 -0.3856
  909TIP3    H124362   2.380   3.397   6.080 -0.1663  0.4169 -1.1665
  909TIP3    H224363   2.271   3.360   6.180  0.2950 -0.1479 -0.8654
  910TIP3   OH224364   6.559   0.756   6.635 -0.2074 -0.2815 -0.1114
  910TIP3    H124365   6.548   0.776   6.541  0.4399  0.5506 -0.0221
  910TIP3    H224366   6.499   0.683   6.651 -0.5899 -0.2005 -1.0968
  911TIP3   OH224367   5.238   3.383   0.882 -0.1830  0.1958  0.7371
  911TIP3    H124368   5.255   3.304   0.932  2.3599  0.3950  0.3357
  911TIP3    H224369   5.198   3.352   0.801 -0.7399 -0.5049  1.2713
  912TIP3   OH224370   0.040   4.483   8.116 -0.1772 -0.8293 -0.4307
  912TIP3    H124371   0.062   4.400   8.075  0.2575 -0.6871 -0.4976
  912TIP3    H224372   0.010   4.460   8.203  1.2552 -0.9797  0.0515
  913TIP3   OH224373   3.594   6.006   7.377 -0.1463 -0.0725 -0.0785
  913TIP3    H124374   3.680   6.039   7.352 -0.2668  1.3876  1.2205
  913TIP3    H224375   3.538   6.084   7.378 -0.7408 -0.4528  1.9435
  914TIP3   OH224376   3.602   3.904   7.350 -0.3907 -0.5346  0.5842
  914TIP3    H124377   3.552   3.956   7.288  0.8705 -1.0028 -0.8783
  914TIP3    H224378   3.657   3.969   7.396 -0.7866 -0.2726  0.6921
  915TIP3   OH224379   5.796   4.287   1.690  0.5511 -0.0970  0.0861
  915TIP3    H124380   5.840   4.201   1.688 -0.7437 -0.7973  0.7211
  915TIP3    H224381   5.833   4.334   1.616  2.7708 -0.4486  0.8941
  916TIP3   OH224382   5.064   2.491   1.555  0.2365  0.2207  0.0366
  916TIP3    H124383   4.998   2.463   1.618  0.8466  1.7037  1.4208
  916TIP3    H224384   5.077   2.416   1.498 -2.6803 -0.1308 -0.3615
  917TIP3   OH224385   3.704   5.049   8.104 -0.3509 -0.2612 -0.5953
  917TIP3    H124386   3.654   5.112   8.156  0.5903  1.6727 -1.9361
  917TIP3    H224387   3.794   5.058   8.134 -0.4340 -2.3672  0.4782
  918TIP3   OH224388   4.598   5.292   6.513 -0.6745  0.1354  0.2712
  918TIP3    H124389   4.512   5.333   6.517 -0.7323 -0.0698  1.5845
  918TIP3    H224390   4.660   5.365   6.513 -0.8200  0.2614  0.7395
  919TIP3   OH224391   4.414   1.025   0.062  0.0478  0.3270 -0.8669
  919TIP3    H124392   4.440   1.099   0.116 -2.7914  1.6340 -1.1417
  919TIP3    H224393   4.411   1.059  -0.027 -0.0430 -0.4820 -1.1880
  920TIP3   OH224394   6.388   0.419   1.771 -0.3195  0.3834  0.0137
  920TIP3    H124395   6.296   0.402   1.750 -0.4789 -1.5454  1.9220
  920TIP3    H224396   6.386   0.493   1.831 -0.4894  1.1275 -0.8885
  921TIP3   OH224397   6.237   3.394   1.197 -0.3974  0.0417 -0.8273
  921TIP3    H124398   6.327   3.383   1.165 -0.0799  0.3973 -0.0932
  921TIP3    H224399   6.227   3.489   1.205 -0.9386  0.0149 -1.1680
  922TIP3   OH224400   1.789   4.618   7.287  0.3774  0.2192  0.3430
  922TIP3    H124401   1.736   4.540   7.304 -0.5387  0.9479  0.9122
  922TIP3    H224402   1.873   4.599   7.329  0.6032 -0.9507 -0.5676
  923TIP3   OH224403   1.063   3.023   0.485 -0.2864 -0.2003  0.0556
  923TIP3    H124404   1.004   2.954   0.455 -0.0600 -0.7131  0.7672
  923TIP3    H224405   1.138   2.976   0.521 -0.3624  0.4031  1.0268
  924TIP3   OH224406   1.493   5.058   6.720  0.4043 -0.0937 -0.3871
  924TIP3    H124407   1.585   5.035   6.706  0.4503  0.2777 -0.7370
  924TIP3    H224408   1.447   5.013   6.649  0.2521 -0.6652  0.0657
  925TIP3   OH224409   1.870   0.013   8.170 -0.0213 -0.3834  0.2625
  925TIP3    H124410   1.960   0.044   8.155  0.4900 -1.1530  1.5440
  925TIP3    H224411   1.854  -0.051   8.101 -0.0139  0.5547 -0.6409
  926TIP3   OH224412   5.486   0.127   2.038  0.3045  0.1770  0.7936
  926TIP3    H124413   5.434   0.048   2.057  0.3765  0.4600  2.3585
  926TIP3    H224414   5.575   0.102   2.063  0.6656  0.1796 -0.4566
  927TIP3   OH224415   0.212   1.017   8.514  0.4068  0.0555 -0.0964
  927TIP3    H124416   0.245   0.936   8.554 -4.5880 -1.3161  2.0990
  927TIP3    H224417   0.217   1.082   8.584  0.5822  0.4514 -0.4791
  928TIP3   OH224418   1.439   3.616   7.584  0.5621 -0.4051  0.1886
  928TIP3    H124419   1.387   3.696   7.585  0.4477 -0.4496  1.8415
  928TIP3    H224420   1.378   3.547   7.609  1.3874 -0.3978  2.5653
  929TIP3   OH224421   2.597   0.367   7.410  0.2827  0.5536 -0.2190
  929TIP3    H124422   2.618   0.273   7.406 -0.5161  0.1374  2.8664
  929TIP3    H224423   2.502   0.370   7.408  0.2762  1.1936  0.5634
  930TIP3   OH224424   2.748   0.934   0.554  0.3465  0.1008  0.4460
  930TIP3    H124425   2.744   0.936   0.459 -0.0781  1.5200  0.4621
  930TIP3    H224426   2.826   0.987   0.575 -0.7515  1.6260  0.8978
  931TIP3   OH224427   0.124   0.487   0.834  0.2213  0.2158 -0.1373
  931TIP3    H124428   0.098   0.403   0.797  0.5336 -0.3924  0.9783
  931TIP3    H224429   0.187   0.523   0.772 -0.1726 -0.2024 -0.7908
  932TIP3   OH224430   1.408   2.740   1.101  0.0063  0.2854  0.5069
  932TIP3    H124431   1.483   2.781   1.057  0.3113 -0.4739  0.3072
  932TIP3    H224432   1.366   2.688   1.033  2.1979 -3.3409  1.6478
  933TIP3   OH224433   0.447   2.082   1.312  0.9219 -0.2239  0.6934
  933TIP3    H124434   0.365   2.128   1.296  0.5743 -0.6340  1.2348
  933TIP3    H224435   0.459   2.088   1.407  1.1196 -0.8268  0.7098
  934TIP3   OH224436   4.424   4.738   8.446  1.0006 -0.0399 -0.3318
  934TIP3    H124437   4.393   4.794   8.375 -2.3180 -1.8685 -0.4921
  934TIP3    H224438   4.420   4.793   8.524  1.0768  0.8903 -0.9676
  935TIP3   OH224439   2.230   6.644   7.104  0.5316  0.6945  0.6232
  935TIP3    H124440   2.264   6.633   7.015  0.7094  1.9883  0.5183
  935TIP3    H224441   2.172   6.569   7.117 -1.0125  1.4836 -1.3029
  936TIP3   OH224442   4.916   4.908   8.264 -0.2928 -0.1754  0.4155
  936TIP3    H124443   4.977   4.957   8.209 -0.9497  1.3949  1.0320
  936TIP3    H224444   4.950   4.818   8.264  1.1582  0.3501 -0.4521
  937TIP3   OH224445   6.177   2.909   1.441 -0.1370 -0.3930  0.2489
  937TIP3    H124446   6.100   2.963   1.458 -0.2603 -0.5506  0.1825
  937TIP3    H224447   6.149   2.820   1.458  0.6473 -0.2853  2.5119
  938TIP3   OH224448   5.386   3.027   8.582  0.0780 -0.3207  0.1316
  938TIP3    H124449   5.440   3.106   8.591  0.1459 -0.1922 -1.1868
  938TIP3    H224450   5.425   2.980   8.508 -0.9306 -0.7835 -0.1201
  939TIP3   OH224451   3.321   5.634   6.824  0.7045  0.0873 -0.1460
  939TIP3    H124452   3.391   5.682   6.867  0.6937 -0.5126  0.5509
  939TIP3    H224453   3.347   5.542   6.828  1.1921  0.0743 -2.3297
  940TIP3   OH224454   4.201   3.796   0.887 -0.1046  0.4621 -0.5943
  940TIP3    H124455   4.155   3.866   0.933  0.5969  0.2396  0.4822
  940TIP3    H224456   4.134   3.730   0.871 -0.4947  0.8265 -0.4842
  941TIP3   OH224457   0.149   4.394   8.370 -0.0206  0.0908 -0.8951
  941TIP3    H124458   0.222   4.341   8.339 -0.2120 -0.4175 -0.4779
  941TIP3    H224459   0.160   4.398   8.465 -2.3230 -2.7708 -0.3629
  942TIP3   OH224460   6.370   3.840   1.123 -0.7987  0.4350  0.3727
  942TIP3    H124461   6.445   3.867   1.176 -0.6896 -0.7561  0.8552
  942TIP3    H224462   6.318   3.783   1.180 -0.7129 -0.8434 -0.7438
  943TIP3   OH224463   3.021   1.108   8.074  0.3378 -0.9590 -0.0484
  943TIP3    H124464   3.048   1.071   7.990  1.4501 -2.5438  0.9562
  943TIP3    H224465   2.963   1.042   8.112  1.6571 -1.3519  1.3958
  944TIP3   OH224466   0.297   3.226   6.522 -0.9516 -0.1730  0.4917
  944TIP3    H124467   0.257   3.277   6.452  2.0386 -0.4623 -1.5988
  944TIP3    H224468   0.252   3.141   6.517 -1.2024  0.0069 -0.6911
  945TIP3   OH224469   4.660   2.609   7.770  0.2387  0.1304 -0.3764
  945TIP3    H124470   4.582   2.558   7.794  0.3622  0.5578  1.0051
  945TIP3    H224471   4.734   2.554   7.795  0.3836  0.1591 -0.7344
  946TIP3   OH224472   3.508   2.435   7.588  0.4123 -0.3152 -0.4334
  946TIP3    H124473   3.575   2.426   7.520  1.7001 -1.3094  0.9059
  946TIP3    H224474   3.555   2.474   7.662 -0.9595  0.7475 -0.0974
  947TIP3   OH224475   6.901   2.520   7.171 -0.2013  0.3066  0.6082
  947TIP3    H124476   6.843   2.502   7.245 -2.3327  1.4746 -0.6758
  947TIP3    H224477   6.889   2.445   7.112  1.1443 -0.3998  1.1917
  948TIP3   OH224478   2.095   3.823   6.088  0.6902 -0.8082 -0.1263
  948TIP3    H124479   2.063   3.856   6.004  0.0273 -0.3858  0.2868
  948TIP3    H224480   2.169   3.880   6.109  0.1959 -0.2453  0.0855
  949TIP3   OH224481   5.193   0.241   6.570 -0.4486 -0.7835 -0.3771
  949TIP3    H124482   5.243   0.320   6.552 -1.1389  0.0060  0.9820
  949TIP3    H224483   5.207   0.185   6.494 -1.9924  1.6741 -2.6251
  950TIP3   OH224484   6.399   5.730   2.036 -0.2052 -0.0014 -0.0678
  950TIP3    H124485   6.313   5.769   2.020  0.1976  0.8497 -0.2033
  950TIP3    H224486   6.381   5.658   2.098 -1.1039 -0.2889 -0.6396
  951TIP3   OH224487   1.525   3.569   2.224  0.7057  0.0495 -0.7652
  951TIP3    H124488   1.556   3.645   2.175  1.3988  0.7035  0.6254
  951TIP3    H224489   1.457   3.531   2.169 -1.0049  2.7635 -0.7069
  952TIP3   OH224490   1.584   4.487   2.299 -0.4181 -0.6790  0.1049
  952TIP3    H124491   1.608   4.406   2.343  2.9735 -0.2561 -0.7160
  952TIP3    H224492   1.605   4.473   2.207 -1.1186  0.6568 -0.2959
  953TIP3   OH224493   2.833   4.502   6.559 -0.4559  0.2135 -0.0038
  953TIP3    H124494   2.754   4.552   6.538  0.1124  0.8865 -0.6395
  953TIP3    H224495   2.835   4.432   6.494 -0.8839 -0.2188  0.4439
  954TIP3   OH224496   3.648   6.225   1.289  0.2867  0.0664 -0.6306
  954TIP3    H124497   3.632   6.317   1.268 -2.5020 -0.4049 -0.8951
  954TIP3    H224498   3.628   6.218   1.383  1.0381 -0.1945 -0.4778
  955TIP3   OH224499   1.412   0.307   6.198 -0.6679  0.0400  0.0176
  955TIP3    H124500   1.354   0.328   6.271 -0.5347  1.3670 -0.2441
  955TIP3    H224501   1.356   0.259   6.136 -0.9493 -0.4945  0.6674
  956TIP3   OH224502   0.025   5.888   1.508  0.4858  0.0519  0.2274
  956TIP3    H124503  -0.045   5.866   1.447  0.8869  0.5574 -0.4206
  956TIP3    H224504  -0.020   5.935   1.579  0.3094  1.4562 -0.7633
  957TIP3   OH224505   5.451   4.445   8.297  0.4590 -0.3001  0.0053
  957TIP3    H124506   5.443   4.397   8.380 -1.2139 -1.4155 -0.7423
  957TIP3    H224507   5.440   4.537   8.322 -2.1358 -0.7483  0.8423
  958TIP3   OH224508   4.875   5.988   1.558 -0.0800 -0.1504  0.1782
  958TIP3    H124509   4.792   5.961   1.596  0.1924 -0.9069  0.2648
  958TIP3    H224510   4.923   6.028   1.630 -1.0449  1.9330 -0.2790
  959TIP3   OH224511   4.038   6.045   1.101 -0.1537  0.7696 -0.2116
  959TIP3    H124512   4.132   6.037   1.085  0.0076  1.0397  0.5806
  959TIP3    H224513   4.024   6.137   1.120 -0.5203  0.6576  0.0658
  960TIP3   OH224514   0.608   4.624   8.136  0.4197 -0.4443  0.7209
  960TIP3    H124515   0.586   4.599   8.047 -1.4956 -1.8107  1.5096
  960TIP3    H224516   0.696   4.662   8.129 -0.0174  0.2647 -1.8298
  961TIP3   OH224517   5.869   5.719   7.486  0.2094 -0.1456 -0.5868
  961TIP3    H124518   5.877   5.812   7.465  1.3726 -0.5615 -2.2436
  961TIP3    H224519   5.923   5.707   7.564 -2.1172  0.9936  1.3266
  962TIP3   OH224520   3.759   2.797   0.882 -0.1523  0.0648  0.2463
  962TIP3    H124521   3.841   2.827   0.843  0.3892 -1.2843  0.2641
  962TIP3    H224522   3.754   2.704   0.857 -1.2941 -0.0599  0.8840
  963TIP3   OH224523   0.407   0.809   1.169  0.1721  0.8682  0.3410
  963TIP3    H124524   0.493   0.799   1.127  0.1851 -0.3807  0.6225
  963TIP3    H224525   0.415   0.888   1.222  0.5430  1.8001 -1.0602
  964TIP3   OH224526   4.156   1.093   8.345  0.5364  0.2256  0.3443
  964TIP3    H124527   4.096   1.141   8.402 -0.9782 -0.0469 -0.9438
  964TIP3    H224528   4.240   1.094   8.391  0.2740  3.0328  0.9314
  965TIP3   OH224529   2.735   5.195   7.718  0.4066 -0.2039  0.1399
  965TIP3    H124530   2.800   5.225   7.654 -0.0529  0.4370 -0.0357
  965TIP3    H224531   2.664   5.160   7.664  0.4390 -0.5525  0.3225
  966TIP3   OH224532   2.708   3.978   1.795  0.4544  0.0227  0.0459
  966TIP3    H124533   2.618   4.005   1.810  0.7515  1.9377 -1.2347
  966TIP3    H224534   2.739   3.949   1.881 -1.3404 -0.6568  0.5085
  967TIP3   OH224535   1.663   4.394   7.161 -0.3079  0.0892 -0.1595
  967TIP3    H124536   1.632   4.480   7.133  0.3844 -0.4645 -2.9099
  967TIP3    H224537   1.591   4.334   7.138 -0.3996 -0.2091  0.8597
  968TIP3   OH224538   0.910   0.945   8.170 -0.3115 -0.0110 -0.3008
  968TIP3    H124539   0.971   1.012   8.201  1.1735 -1.7775  0.8391
  968TIP3    H224540   0.835   0.994   8.138  0.9898  2.2082 -0.1743
  969TIP3   OH224541   4.634   2.299   7.622 -0.5639 -0.4399 -0.0205
  969TIP3    H124542   4.593   2.289   7.708  0.1596 -1.4446  0.2341
  969TIP3    H224543   4.725   2.323   7.642 -0.7310  0.6950 -0.5457
  970TIP3   OH224544   5.367   5.756   1.455  0.6011  0.3853  0.1360
  970TIP3    H124545   5.304   5.722   1.392  0.8299 -0.0936  0.1544
  970TIP3    H224546   5.316   5.813   1.513 -0.1178 -1.0603  0.9937
  971TIP3   OH224547   5.085   2.800   0.464 -0.1259  0.5262 -0.0535
  971TIP3    H124548   5.177   2.822   0.449  0.5531 -1.1177  1.2633
  971TIP3    H224549   5.058   2.754   0.384  0.1568  1.0865 -0.4799
  972TIP3   OH224550   5.770   2.147   0.820 -0.4035  0.5765  0.2017
  972TIP3    H124551   5.860   2.153   0.852 -0.2783  1.9346 -0.3591
  972TIP3    H224552   5.754   2.053   0.811  1.3765  0.3308 -0.8203
  973TIP3   OH224553   1.049   4.846   0.318  0.1908  0.3574 -1.2318
  973TIP3    H124554   1.093   4.914   0.267 -1.2582  2.8271  0.5743
  973TIP3    H224555   0.959   4.878   0.327 -0.4215 -1.5884  0.0982
  974TIP3   OH224556   4.505   1.988   7.267  0.0544 -0.1092  0.9710
  974TIP3    H124557   4.538   2.045   7.197  0.5719 -0.7104  0.7070
  974TIP3    H224558   4.583   1.939   7.295 -0.4615 -1.0058  0.8726
  975TIP3   OH224559   5.273   1.761   1.631 -0.3698  0.2759  0.2878
  975TIP3    H124560   5.326   1.765   1.552 -0.1101  1.3478  0.5034
  975TIP3    H224561   5.250   1.668   1.640  0.9992 -0.1164 -0.1045
  976TIP3   OH224562   1.231   5.779   2.043 -0.0714 -0.2665 -0.0521
  976TIP3    H124563   1.200   5.798   2.132 -1.8922 -0.2311 -0.6389
  976TIP3    H224564   1.303   5.717   2.055  0.3656  0.4992  1.4806
  977TIP3   OH224565   3.383   3.187   6.435  0.1175  0.4368 -0.1189
  977TIP3    H124566   3.401   3.100   6.399 -1.5837  0.3402 -0.8099
  977TIP3    H224567   3.357   3.170   6.525  0.4058  0.2982 -0.0586
  978TIP3   OH224568   2.236   5.672   1.439 -0.2099  0.3762 -0.2178
  978TIP3    H124569   2.263   5.729   1.367  0.0185  1.2054  0.5088
  978TIP3    H224570   2.225   5.731   1.513 -0.8518 -0.4095  0.3262
  979TIP3   OH224571   3.254   3.476   8.280  0.1188 -0.2560 -0.5238
  979TIP3    H124572   3.334   3.500   8.326  0.7769 -0.4397 -1.5367
  979TIP3    H224573   3.272   3.390   8.242 -1.4470 -1.4696  1.2707
  980TIP3   OH224574   2.455   5.410   1.354 -0.3692  0.1716  0.1719
  980TIP3    H124575   2.403   5.490   1.357  0.7096  1.0267 -2.1211
  980TIP3    H224576   2.546   5.440   1.348 -0.0266 -1.1130 -2.4114
  981TIP3   OH224577   0.535   2.726   1.842 -0.2582  0.7460  0.6450
  981TIP3    H124578   0.563   2.796   1.901 -0.6168  1.1890  0.2980
  981TIP3    H224579   0.440   2.739   1.834 -0.6252 -0.8101  1.9249
  982TIP3   OH224580   1.860   0.567   1.094 -0.0949  0.0704  0.1377
  982TIP3    H124581   1.766   0.571   1.081 -0.3625  0.6568  1.9559
  982TIP3    H224582   1.897   0.565   1.006 -1.8091 -0.7449 -0.5967
  983TIP3   OH224583   6.804   4.322   0.432  0.0564 -0.6990  0.0154
  983TIP3    H124584   6.763   4.389   0.377  0.9806 -0.5176 -0.4840
  983TIP3    H224585   6.814   4.363   0.517 -1.0623 -0.8548  0.2308
  984TIP3   OH224586   0.075   1.181   2.277  0.6325 -0.0142 -0.7960
  984TIP3    H124587   0.152   1.218   2.234 -0.1588  0.7730 -1.5792
  984TIP3    H224588   0.014   1.164   2.206 -0.1529 -0.0537 -0.1266
  985TIP3   OH224589   4.605   5.006   6.525 -0.9861  0.6142  0.2428
  985TIP3    H124590   4.692   4.966   6.535 -0.8189  0.3485 -1.8371
  985TIP3    H224591   4.623   5.100   6.520 -0.8210  0.5734  0.0181
  986TIP3   OH224592   4.286   1.807   0.063 -0.8112 -0.1120  0.5524
  986TIP3    H124593   4.304   1.715   0.044  1.4097  0.3363  0.1447
  986TIP3    H224594   4.368   1.839   0.101 -1.6453  1.6331  0.9673
  987TIP3   OH224595   2.489   1.547   6.993  0.1755 -0.8970  0.1707
  987TIP3    H124596   2.468   1.523   6.903  0.9936 -0.5380 -0.1257
  987TIP3    H224597   2.570   1.499   7.012 -0.7070 -2.0283  1.1854
  988TIP3   OH224598   3.375   5.002   1.036 -0.1447 -0.4080 -0.0845
  988TIP3    H124599   3.346   4.914   1.060 -1.2723  0.0436  0.3029
  988TIP3    H224600   3.308   5.034   0.976 -1.7292  1.4487  2.4510
  989TIP3   OH224601   4.126   4.674   6.538  0.1931 -0.2403 -0.5996
  989TIP3    H124602   4.220   4.689   6.526  0.0222 -0.4463 -2.4973
  989TIP3    H224603   4.087   4.762   6.534  0.2828 -0.1668  0.0570
  990TIP3   OH224604   3.288   5.754   1.516 -0.3127  0.2775  0.3134
  990TIP3    H124605   3.302   5.739   1.423 -2.1806 -1.9040  0.2934
  990TIP3    H224606   3.372   5.786   1.548  1.3092 -1.7504 -1.5833
  991TIP3   OH224607   5.345   1.875   0.468  0.5314 -0.1320 -0.3619
  991TIP3    H124608   5.364   1.849   0.558  2.1181 -0.2010 -0.6943
  991TIP3    H224609   5.287   1.807   0.435 -1.8378  0.9689  1.2239
  992TIP3   OH224610   1.840   3.773   8.362 -0.0194  0.2492  0.8303
  992TIP3    H124611   1.846   3.678   8.349 -1.0326  0.3203 -0.3243
  992TIP3    H224612   1.931   3.802   8.362  0.2979 -0.6906  1.0141
  993TIP3   OH224613   4.697   6.716   0.215  0.0411  0.0012 -0.0711
  993TIP3    H124614   4.722   6.624   0.201 -0.8797 -0.6927  2.4539
  993TIP3    H224615   4.759   6.747   0.281 -2.0598 -0.0654  2.0586
  994TIP3   OH224616   5.280   1.164   6.661 -0.0896  0.1100  0.0981
  994TIP3    H124617   5.312   1.103   6.728 -1.2607  0.4286  0.9934
  994TIP3    H224618   5.226   1.109   6.604  2.1205 -0.4825 -1.5699
  995TIP3   OH224619   3.802   2.398   8.610  0.0944  0.1017 -0.2811
  995TIP3    H124620   3.736   2.411   8.677 -0.4255 -2.3076 -0.2614
  995TIP3    H224621   3.760   2.427   8.529 -1.6663 -2.7677 -0.5317
  996TIP3   OH224622   4.638   3.727   7.818 -0.7832  0.6255  0.5662
  996TIP3    H124623   4.575   3.798   7.806 -0.5268  0.3677 -3.9807
  996TIP3    H224624   4.723   3.769   7.808 -0.4272  0.1718  1.5673
  997TIP3   OH224625   3.692   6.109   2.072 -0.0482  0.2906  0.0267
  997TIP3    H124626   3.629   6.048   2.110 -0.0103  0.3024  0.1082
  997TIP3    H224627   3.706   6.077   1.983  0.0323  0.1342  0.0964
  998TIP3   OH224628   5.517   5.336   7.476 -0.3310 -0.4061  0.3221
  998TIP3    H124629   5.585   5.275   7.503  0.0235 -0.2475 -0.2008
  998TIP3    H224630   5.534   5.415   7.526  0.8566  0.1929 -0.9585
  999TIP3   OH224631   1.287   3.521   1.117  0.7105  0.2860  0.2498
  999TIP3    H124632   1.315   3.518   1.025 -2.1798 -1.0887 -0.7080
  999TIP3    H224633   1.237   3.603   1.124  1.1464  0.5151  0.6756
 1000TIP3   OH224634   0.263   5.348   0.144  0.1361  0.4641  0.3447
 1000TIP3    H124635   0.273   5.442   0.128  0.3070  0.1320 -1.9640
 1000TIP3    H224636   0.168   5.336   0.154  0.2428  1.0947  2.7965
 1001TIP3   OH224637   2.229   2.250   0.200 -0.2062 -0.3181 -0.2260
 1001TIP3    H124638   2.262   2.317   0.140 -0.3560 -1.2663 -1.4072
 1001TIP3    H224639   2.233   2.168   0.150  1.6643 -1.5421  1.7711
 1002TIP3   OH224640   2.579   2.344   0.322  0.3233 -0.8256 -0.0456
 1002TIP3    H124641   2.494   2.355   0.364  0.7832 -2.1507  1.3193
 1002TIP3    H224642   2.575   2.399   0.243 -0.0576  3.0258  2.4135
 1003TIP3   OH224643   3.493   2.997   1.015  0.6268  0.0919  0.2057
 1003TIP3    H124644   3.547   2.941   1.071 -0.8214  0.0467  1.6337
 1003TIP3    H224645   3.436   3.044   1.076 -0.0761  1.0803 -1.1528
 1004TIP3   OH224646   3.982   0.224   7.613  0.9259  0.4705 -0.6237
 1004TIP3    H124647   3.928   0.172   7.673  0.6974  1.1436 -0.2371
 1004TIP3    H224648   4.043   0.161   7.575 -0.0369 -0.2927 -0.9663
 1005TIP3   OH224649   0.362   0.311   1.958 -0.4621 -0.1691 -0.1486
 1005TIP3    H124650   0.306   0.387   1.975  0.6925  0.6361  0.1498
 1005TIP3    H224651   0.315   0.262   1.890 -1.6388  0.3477  0.2600
 1006TIP3   OH224652   2.784   4.851   0.566 -0.0363  0.2527  0.2359
 1006TIP3    H124653   2.769   4.900   0.485 -0.1042 -0.7655 -0.3869
 1006TIP3    H224654   2.877   4.861   0.583 -0.1569  1.0760  0.4400
 1007TIP3   OH224655   3.478   6.788   1.177 -0.4184 -0.5480 -0.2186
 1007TIP3    H124656   3.565   6.806   1.211 -0.5379  2.7267 -1.3386
 1007TIP3    H224657   3.494   6.740   1.096  0.5372  1.5819 -1.3698
 1008TIP3   OH224658   5.741   0.715   2.085  0.2691 -0.0966  0.8971
 1008TIP3    H124659   5.705   0.802   2.068 -0.7244 -0.3225  1.7325
 1008TIP3    H224660   5.686   0.679   2.155  0.4025 -1.5681  0.2854
 1009TIP3   OH224661   4.496   6.379   2.162 -0.3948  0.2046  0.1664
 1009TIP3    H124662   4.402   6.389   2.176 -0.6645  1.6098 -2.0352
 1009TIP3    H224663   4.528   6.469   2.149  1.3494 -0.2063  1.3254
 1010TIP3   OH224664   3.368   4.869   7.768  0.6899  0.4946  0.1895
 1010TIP3    H124665   3.391   4.787   7.725 -0.9850 -0.8902  1.7700
 1010TIP3    H224666   3.438   4.885   7.831 -0.0505 -1.0090  1.4714
 1011TIP3   OH224667   6.467   2.299   1.206 -0.8277  0.5602 -0.7178
 1011TIP3    H124668   6.430   2.231   1.263  3.3571  0.6651  2.6696
 1011TIP3    H224669   6.423   2.379   1.233 -2.2189 -0.0597 -1.0704
 1012TIP3   OH224670   0.765   6.329   7.731 -0.1386  0.0243  0.6816
 1012TIP3    H124671   0.728   6.366   7.811  1.1083 -2.7917  2.7319
 1012TIP3    H224672   0.770   6.235   7.748  2.9382 -0.3536 -1.5297
 1013TIP3   OH224673   3.804   0.536   2.124  0.4147  0.3332  0.2712
 1013TIP3    H124674   3.828   0.502   2.038 -0.1041 -1.3391  0.7403
 1013TIP3    H224675   3.847   0.477   2.186  0.0400  0.9590  1.1482
 1014TIP3   OH224676   3.490   1.110   1.014 -0.4261  0.2097 -0.1172
 1014TIP3    H124677   3.420   1.051   0.987  0.3162 -0.5288 -0.4810
 1014TIP3    H224678   3.470   1.193   0.971 -0.8232 -0.1291 -0.5908
 1015TIP3   OH224679   5.472   4.178   8.490 -0.5394 -0.2712 -0.0503
 1015TIP3    H124680   5.488   4.231   8.568 -0.8337  1.5339 -1.1546
 1015TIP3    H224681   5.557   4.171   8.447 -0.2943 -1.6050  0.5850
 1016TIP3   OH224682   2.306   3.828   6.777 -0.0379  0.1730 -0.4407
 1016TIP3    H124683   2.366   3.785   6.839 -1.2232  0.5252  0.9913
 1016TIP3    H224684   2.349   3.818   6.692  0.8246 -1.8310  0.1684
 1017TIP3   OH224685   6.790   0.568   0.918  0.0316  0.2035 -0.0741
 1017TIP3    H124686   6.878   0.539   0.892  0.0545 -0.8144  0.9960
 1017TIP3    H224687   6.794   0.663   0.914  0.1476  0.1823 -3.2346
 1018TIP3   OH224688   5.544   0.056   1.770 -0.0326  0.6715  0.0518
 1018TIP3    H124689   5.564   0.100   1.853 -1.1427 -0.1345  0.7729
 1018TIP3    H224690   5.599  -0.022   1.771 -0.5917  0.2706  0.4028
 1019TIP3   OH224691   5.333   3.888   8.138 -0.1373  0.7957 -0.5146
 1019TIP3    H124692   5.311   3.980   8.150 -1.1532  0.6522 -1.1744
 1019TIP3    H224693   5.428   3.884   8.150 -0.2302  1.7242  0.7050
 1020TIP3   OH224694   3.144   5.091   0.483  0.0537  0.2223 -0.6033
 1020TIP3    H124695   3.190   5.163   0.526 -1.8007  0.1155  1.8168
 1020TIP3    H224696   3.193   5.013   0.509  0.0350  0.3338 -0.2111
 1021TIP3   OH224697   2.328   4.795   8.441 -1.0177 -0.7256 -0.0931
 1021TIP3    H124698   2.248   4.840   8.415 -0.5972 -0.7923 -1.5988
 1021TIP3    H224699   2.394   4.864   8.447 -1.2053 -0.6492  1.2953
 1022TIP3   OH224700   4.184   0.804   1.301  1.1810 -0.1875 -0.4923
 1022TIP3    H124701   4.235   0.885   1.298  2.3143 -0.8854 -2.5458
 1022TIP3    H224702   4.161   0.787   1.209 -2.0026 -0.4308  0.2217
 1023TIP3   OH224703   5.468   5.438   1.403  0.3938  0.0766 -0.2951
 1023TIP3    H124704   5.374   5.447   1.420  0.1795  0.3942 -1.5176
 1023TIP3    H224705   5.483   5.490   1.324  1.4266 -0.7399 -0.6637
 1024TIP3   OH224706   0.248   5.224   7.213  0.4749 -0.2495  0.3991
 1024TIP3    H124707   0.251   5.191   7.124  1.1874 -0.9352  0.6636
 1024TIP3    H224708   0.326   5.186   7.255 -1.2327 -2.1317  2.0661
 1025TIP3   OH224709   1.085   2.364   7.674  0.6067 -0.3843  0.5099
 1025TIP3    H124710   1.031   2.325   7.743 -0.7066 -0.6136 -0.5984
 1025TIP3    H224711   1.164   2.394   7.720 -0.3111 -0.3132  2.1475
 1026TIP3   OH224712   3.245   2.397   7.015 -0.2612 -0.1939  0.8574
 1026TIP3    H124713   3.182   2.341   6.971 -1.0258 -0.3314  2.0873
 1026TIP3    H224714   3.329   2.376   6.974 -0.7938 -1.0079  0.1538
 1027TIP3   OH224715   4.117   1.346   1.120 -0.0128  0.3910 -0.4073
 1027TIP3    H124716   4.108   1.367   1.212 -0.1390 -1.0446 -0.0628
 1027TIP3    H224717   4.210   1.327   1.108  0.1634  1.4213 -0.7890
 1028TIP3   OH224718   2.858   4.077   6.195 -0.1219 -0.3499  0.3604
 1028TIP3    H124719   2.775   4.118   6.219 -1.1840 -1.4733 -1.1961
 1028TIP3    H224720   2.903   4.143   6.142 -2.1239 -1.2472 -2.7476
 1029TIP3   OH224721   2.290   4.045   7.155  0.3336 -0.1102  0.1535
 1029TIP3    H124722   2.366   4.079   7.107  0.1180  1.9013  1.0923
 1029TIP3    H224723   2.294   4.091   7.239 -3.6202  2.6281 -0.8671
 1030TIP3   OH224724   5.728   0.653   0.778 -0.3839  0.4993  0.3727
 1030TIP3    H124725   5.656   0.629   0.720  0.0478 -0.6362  0.2686
 1030TIP3    H224726   5.704   0.614   0.863  0.4308 -0.5481  0.1510
 1031TIP3   OH224727   2.548   2.944   7.555 -0.0648 -0.1445 -0.2510
 1031TIP3    H124728   2.524   2.914   7.467 -0.0699  0.8882 -0.6130
 1031TIP3    H224729   2.595   3.026   7.540 -0.5061  0.3053  0.7437
 1032TIP3   OH224730   2.068   4.203   0.340 -0.4773  0.1667  0.2289
 1032TIP3    H124731   2.033   4.248   0.263  0.6278 -0.7456 -0.8354
 1032TIP3    H224732   1.993   4.198   0.400 -1.3451  0.9470 -0.7425
 1033TIP3   OH224733   2.614   5.267   1.625 -0.8113  0.0152  0.0432
 1033TIP3    H124734   2.579   5.222   1.701 -0.6175 -0.3238 -0.0674
 1033TIP3    H224735   2.640   5.353   1.658  3.0316 -1.4261  1.3503
 1034TIP3   OH224736   5.757   4.608   0.346 -0.6273 -0.3075 -0.2427
 1034TIP3    H124737   5.846   4.589   0.375 -0.4261 -0.9999 -1.2965
 1034TIP3    H224738   5.721   4.662   0.417  0.7095  0.2286  0.0746
 1035TIP3   OH224739   1.442   0.829   1.350 -0.2700  0.2767 -0.2028
 1035TIP3    H124740   1.529   0.847   1.386 -1.0637  1.2823  1.3259
 1035TIP3    H224741   1.423   0.739   1.377  0.3097  0.0218 -0.6194
 1036TIP3   OH224742   2.211   5.001   6.151 -0.3457 -0.5507 -0.1524
 1036TIP3    H124743   2.178   5.014   6.062 -0.9401  0.4965  0.1941
 1036TIP3    H224744   2.162   4.926   6.184 -0.0126 -1.0371 -0.7563
 1037TIP3   OH224745   4.007   4.629   7.075 -0.0304  0.5973 -0.2430
 1037TIP3    H124746   3.951   4.697   7.037 -0.5716 -0.4653 -1.4036
 1037TIP3    H224747   3.991   4.552   7.021 -1.6059 -1.3331  2.7441
 1038TIP3   OH224748   4.363   4.168   7.068 -0.2405  0.1727  0.4125
 1038TIP3    H124749   4.354   4.162   6.973 -0.6429  0.9539  0.3955
 1038TIP3    H224750   4.333   4.256   7.089 -0.0947  0.0231  1.2607
 1039TIP3   OH224751   3.045   3.092   7.911  0.1571  0.3311 -0.7729
 1039TIP3    H124752   3.042   3.165   7.974  1.0570  0.9366 -1.4113
 1039TIP3    H224753   2.986   3.120   7.841 -1.8557 -0.8963  0.3107
 1040TIP3   OH224754   0.938   1.690   7.015 -0.1636 -0.2340 -0.3988
 1040TIP3    H124755   0.849   1.696   7.049  0.0713 -1.9563  0.6230
 1040TIP3    H224756   0.931   1.714   6.923 -1.7945 -1.0414 -0.5091
 1041TIP3   OH224757   1.582   1.312   1.619 -0.0382 -0.4132 -0.4695
 1041TIP3    H124758   1.621   1.396   1.643  0.4282  0.2278 -3.1259
 1041TIP3    H224759   1.561   1.270   1.702 -1.4508  2.8376  0.9918
 1042TIP3   OH224760   5.183   1.503   0.784  0.0653 -0.8364  0.4256
 1042TIP3    H124761   5.102   1.517   0.735  0.1407  0.3062  0.5861
 1042TIP3    H224762   5.252   1.532   0.724  0.3354 -1.5514  0.3861
 1043TIP3   OH224763   2.878   2.750   1.070 -0.0139  0.1652 -0.3548
 1043TIP3    H124764   2.906   2.712   1.153 -0.3578  1.3230  0.3135
 1043TIP3    H224765   2.907   2.841   1.074 -3.2030  1.3083  0.1532
 1044TIP3   OH224766   1.774   0.015   6.389  0.9938  0.0025 -0.1945
 1044TIP3    H124767   1.694   0.068   6.396  0.1679 -1.2090 -0.0436
 1044TIP3    H224768   1.797   0.017   6.296  0.5462  0.0432 -0.3074
 1045TIP3   OH224769   3.409   5.157   7.747  0.0511  0.7023 -0.7459
 1045TIP3    H124770   3.481   5.099   7.771 -0.0490  0.5659 -0.7700
 1045TIP3    H224771   3.384   5.128   7.659 -0.7999 -0.0321 -0.2818
 1046TIP3   OH224772   5.135   4.043   1.120  0.1728 -0.1695  0.4005
 1046TIP3    H124773   5.161   3.987   1.047 -0.1476 -0.5540  0.5772
 1046TIP3    H224774   5.039   4.038   1.121  0.1583  0.1237  0.6173
 1047TIP3   OH224775   3.712   1.177   0.446  0.5077 -0.0718  0.2089
 1047TIP3    H124776   3.629   1.146   0.410  0.4874 -0.3042  0.4512
 1047TIP3    H224777   3.777   1.153   0.380  0.2469  1.1272 -0.5091
 1048TIP3   OH224778   4.346   2.414   0.066 -0.1472  0.1513  0.3571
 1048TIP3    H124779   4.372   2.478   0.131 -0.3862  1.9473 -1.2347
 1048TIP3    H224780   4.426   2.394   0.018 -0.2739  0.0859  0.1695
 1049TIP3   OH224781   2.177   6.616   0.029  0.2952  0.2109  0.4012
 1049TIP3    H124782   2.154   6.697   0.075 -0.0214  0.3806 -0.0440
 1049TIP3    H224783   2.272   6.616   0.025  0.3310  0.1469  1.1346
 1050TIP3   OH224784   1.615   0.136   8.212 -0.0455 -0.2517 -0.1188
 1050TIP3    H124785   1.697   0.088   8.202 -0.5361 -0.9984 -0.6472
 1050TIP3    H224786   1.628   0.216   8.160  0.5152 -0.1460  0.1789
 1051TIP3   OH224787   5.028   0.171   1.227 -0.3917  0.6920 -0.2795
 1051TIP3    H124788   5.113   0.131   1.243 -1.2899 -0.7518  1.2662
 1051TIP3    H224789   4.972   0.137   1.297 -2.3816  1.1439 -1.5605
 1052TIP3   OH224790   6.192   0.046   0.364  0.0384  0.9752 -0.5339
 1052TIP3    H124791   6.228  -0.010   0.295 -0.3479 -0.7526  0.6113
 1052TIP3    H224792   6.252   0.120   0.368  1.1919  0.1261 -1.3637
 1053TIP3   OH224793   6.455   1.562   1.801 -0.1323  0.3109 -0.5955
 1053TIP3    H124794   6.487   1.527   1.718  0.8161  0.8228 -0.4612
 1053TIP3    H224795   6.477   1.494   1.866  1.5570  1.0226 -0.3606
 1054TIP3   OH224796   3.257   0.239   0.762 -0.6512  0.5033  0.1216
 1054TIP3    H124797   3.274   0.267   0.852  1.5752 -0.3763  0.0320
 1054TIP3    H224798   3.281   0.146   0.761 -3.1518 -0.2035 -0.7725
 1055TIP3   OH224799   0.958   5.067   8.126 -0.1409  0.3034  0.2688
 1055TIP3    H124800   1.004   4.984   8.117  0.4018  0.6287 -0.0047
 1055TIP3    H224801   0.869   5.048   8.098 -0.1625 -0.3174  0.7346
 1056TIP3   OH224802   6.636   0.622   7.713 -0.0271  0.4408  0.3478
 1056TIP3    H124803   6.671   0.548   7.663  0.6138  0.9318  0.0592
 1056TIP3    H224804   6.706   0.646   7.773 -0.1241  0.9918  0.2458
 1057TIP3   OH224805   4.930   3.781   8.044  0.1263 -0.0179  0.0237
 1057TIP3    H124806   5.014   3.799   8.087  0.9331 -2.1920 -0.5161
 1057TIP3    H224807   4.952   3.723   7.971 -1.6035  1.1235 -1.5128
 1058TIP3   OH224808   3.850   1.784   7.481 -0.6123 -0.1121  0.1289
 1058TIP3    H124809   3.854   1.701   7.530 -1.0873 -0.8120 -0.9737
 1058TIP3    H224810   3.757   1.808   7.483 -0.9739 -1.1177 -1.9223
 1059TIP3   OH224811   4.084   2.337   0.428 -0.0880  0.4647 -0.0803
 1059TIP3    H124812   4.056   2.363   0.340 -0.4967  1.0712  0.2189
 1059TIP3    H224813   4.002   2.322   0.475  0.1326 -0.0302  0.1510
 1060TIP3   OH224814   6.268   1.618   7.477 -0.0421  0.6726  0.4620
 1060TIP3    H124815   6.250   1.705   7.441  1.1728  0.3480 -1.0903
 1060TIP3    H224816   6.340   1.632   7.538 -3.3823  1.5549  4.6578
 1061TIP3   OH224817   5.849   1.567   6.468 -0.5560  0.4363 -0.1644
 1061TIP3    H124818   5.938   1.599   6.479 -0.1831 -0.0475 -1.4886
 1061TIP3    H224819   5.793   1.640   6.492  0.2509  1.8272 -2.2402
 1062TIP3   OH224820   6.645   5.542   0.966  0.0269  0.1249  0.2744
 1062TIP3    H124821   6.600   5.458   0.957  0.1049  0.2035 -1.1288
 1062TIP3    H224822   6.698   5.549   0.886 -0.0968  1.5678  0.2941
 1063TIP3   OH224823   1.999   3.868   7.517  0.2921  0.1553 -0.7163
 1063TIP3    H124824   1.973   3.843   7.428  1.4143 -3.8954 -0.1057
 1063TIP3    H224825   2.094   3.879   7.512  0.2084  1.1913 -0.2308
 1064TIP3   OH224826   4.856   3.866   1.563  0.0902 -0.2955 -0.0216
 1064TIP3    H124827   4.916   3.940   1.574  2.0160 -1.9595  1.3697
 1064TIP3    H224828   4.846   3.830   1.650 -2.1089 -0.7758 -0.4153
 1065TIP3   OH224829   5.976   4.799   1.343  0.3661 -0.1030 -0.2473
 1065TIP3    H124830   5.896   4.833   1.383  0.6919  1.5216 -0.8973
 1065TIP3    H224831   6.046   4.857   1.374  1.0463 -0.5441 -0.9032
 1066TIP3   OH224832   3.433   5.502   8.078 -0.6469 -0.0226 -0.5906
 1066TIP3    H124833   3.390   5.417   8.068  2.9444 -1.9495 -1.6732
 1066TIP3    H224834   3.466   5.522   7.990  1.2995  0.8498  0.2829
 1067TIP3   OH224835   0.003   5.692   7.360 -0.3246  0.4655 -0.4840
 1067TIP3    H124836  -0.031   5.675   7.272 -0.6639  0.8947 -0.4374
 1067TIP3    H224837  -0.044   5.630   7.416 -1.4577  1.4204 -0.3362
 1068TIP3   OH224838   5.791   5.162   7.966  0.1141 -0.3078  0.1042
 1068TIP3    H124839   5.853   5.145   8.037 -1.1150 -1.6378  0.9181
 1068TIP3    H224840   5.773   5.076   7.928  0.2674  0.3014 -1.4353
 1069TIP3   OH224841   0.084   4.087   6.283  0.4304 -0.3241  1.1000
 1069TIP3    H124842   0.130   4.092   6.199 -0.9608  0.7934  0.3777
 1069TIP3    H224843   0.039   4.003   6.281  1.0921 -0.6896  1.1182
 1070TIP3   OH224844   2.898   5.495   6.365 -0.3588 -0.3934 -0.3978
 1070TIP3    H124845   2.873   5.557   6.296 -1.1170 -1.5626 -1.1969
 1070TIP3    H224846   2.892   5.409   6.324  0.3801 -1.0355  0.7834
 1071TIP3   OH224847   6.511   0.407   8.431 -0.3702 -0.0057 -0.2161
 1071TIP3    H124848   6.434   0.356   8.457 -0.8182  0.6703 -0.2149
 1071TIP3    H224849   6.517   0.476   8.497 -0.0904  0.2877 -0.5495
 1072TIP3   OH224850   2.613   5.919   8.132 -0.8177  0.2604  0.1253
 1072TIP3    H124851   2.662   5.941   8.211 -0.7224 -1.5468  0.6046
 1072TIP3    H224852   2.620   5.997   8.078  3.3087 -0.0758 -0.2030
 1073TIP3   OH224853   0.477   3.561   7.668  0.1250 -0.1591  0.1229
 1073TIP3    H124854   0.403   3.504   7.647  1.1303 -1.2703 -0.5027
 1073TIP3    H224855   0.527   3.513   7.734  0.0893  0.7639  0.8433
 1074TIP3   OH224856   2.030   2.433   8.175  0.4148 -0.0166  0.0735
 1074TIP3    H124857   1.939   2.461   8.171  0.9414  1.7794 -0.3399
 1074TIP3    H224858   2.064   2.472   8.255  0.6569 -1.2943  0.6220
 1075TIP3   OH224859   1.205   0.831   0.195 -0.0161 -0.2722  0.0316
 1075TIP3    H124860   1.150   0.831   0.273 -1.5664 -0.5464 -0.9970
 1075TIP3    H224861   1.277   0.891   0.215  0.2228 -1.1434  2.0344
 1076TIP3   OH224862   3.727   4.241   1.049  0.1927  0.5014  0.2398
 1076TIP3    H124863   3.676   4.235   0.969 -1.7704 -0.2043  1.4671
 1076TIP3    H224864   3.738   4.151   1.079 -1.5430  0.8223  2.1320
 1077TIP3   OH224865   6.398   2.513   1.328 -0.0368  0.7886 -0.4741
 1077TIP3    H124866   6.334   2.474   1.388 -0.2545 -2.4683 -2.5640
 1077TIP3    H224867   6.459   2.560   1.385 -1.1596 -0.6669  2.1249
 1078TIP3   OH224868   1.969   3.580   0.054 -0.1237 -0.4398 -0.3270
 1078TIP3    H124869   2.032   3.513   0.027 -1.4415 -1.4348 -1.0425
 1078TIP3    H224870   1.898   3.574  -0.010 -0.8831  0.7620  0.3604
 1079TIP3   OH224871   1.111   5.365   6.991 -0.0459  0.4126  0.2577
 1079TIP3    H124872   1.084   5.417   6.915  0.0675  1.9834  1.2613
 1079TIP3    H224873   1.029   5.341   7.034 -0.0666  0.3519  0.1850
 1080TIP3   OH224874   1.790   5.589   0.384 -0.2107 -0.0107  0.1728
 1080TIP3    H124875   1.782   5.572   0.477  0.6194  0.2349  0.3003
 1080TIP3    H224876   1.798   5.502   0.344  3.4732 -0.1144  0.7654
 1081TIP3   OH224877   0.303   1.369   0.682 -0.3414 -0.2467 -0.0945
 1081TIP3    H124878   0.311   1.293   0.625 -0.1473 -0.2875 -0.0125
 1081TIP3    H224879   0.328   1.443   0.627 -1.8167 -0.0724 -0.5770
 1082TIP3   OH224880   5.035   0.255   6.214 -0.7802 -0.2555  0.3871
 1082TIP3    H124881   5.067   0.325   6.158 -1.5900 -0.8626 -0.8802
 1082TIP3    H224882   5.111   0.199   6.229 -0.6159 -0.2358 -0.3425
 1083TIP3   OH224883   3.789   3.026   1.610  0.2925  0.0752  0.2370
 1083TIP3    H124884   3.844   3.102   1.594  0.9601 -0.3567  0.4457
 1083TIP3    H224885   3.834   2.978   1.680 -0.6566  0.0251  0.8349
 1084TIP3   OH224886   5.166   6.199   1.322  0.3262  0.1349  0.0131
 1084TIP3    H124887   5.181   6.222   1.414 -1.1937  0.3187  0.2374
 1084TIP3    H224888   5.163   6.283   1.276  0.9797  0.0483 -0.2003
 1085TIP3   OH224889   3.625   1.941   0.285  0.0793  0.6829  0.5755
 1085TIP3    H124890   3.561   1.870   0.277  0.9865 -0.2622  1.3631
 1085TIP3    H224891   3.578   2.010   0.332 -1.7259  1.8370 -2.6149
 1086TIP3   OH224892   4.662   6.833   7.879  0.4165  0.5499  0.0995
 1086TIP3    H124893   4.728   6.790   7.824  0.5785 -1.1746  1.5334
 1086TIP3    H224894   4.683   6.803   7.968 -1.2081  1.4376  0.8146
 1087TIP3   OH224895   5.208   6.880   1.567 -0.2037 -0.1095 -0.2008
 1087TIP3    H124896   5.222   6.973   1.555 -1.1937 -0.0499 -1.0377
 1087TIP3    H224897   5.188   6.870   1.660  3.1234  0.0421  0.6426
 1088TIP3   OH224898   4.688   5.372   7.715 -0.1708  0.2596  0.6245
 1088TIP3    H124899   4.627   5.420   7.771  1.1177  0.3061  2.0386
 1088TIP3    H224900   4.729   5.440   7.661 -0.0614  0.4443  0.9411
 1089TIP3   OH224901   4.649   4.895   7.196  0.1369 -0.3320 -0.7679
 1089TIP3    H124902   4.712   4.929   7.132 -0.4742  0.8268 -0.7947
 1089TIP3    H224903   4.637   4.803   7.173  2.3857 -0.8025 -0.2910
 1090TIP3   OH224904   5.999   1.857   0.393  0.1443  0.1818  0.3112
 1090TIP3    H124905   6.031   1.921   0.329  1.4565  0.2326  0.9941
 1090TIP3    H224906   5.955   1.910   0.459 -1.0552  0.1438 -0.4262
 1091TIP3   OH224907   3.970   6.019   8.071 -0.0467  0.1812  0.2743
 1091TIP3    H124908   3.932   5.931   8.079 -0.3117  0.4047  2.0089
 1091TIP3    H224909   3.895   6.076   8.055  0.1344  0.0938 -0.9266
 1092TIP3   OH224910   3.693   4.659   7.861  0.2528 -0.3079  0.0795
 1092TIP3    H124911   3.763   4.610   7.905  0.4710 -0.8770 -0.8704
 1092TIP3    H224912   3.737   4.734   7.821  0.0999  0.0498  0.5662
 1093TIP3   OH224913   4.252   0.335   1.400 -0.7710 -0.2279  0.4198
 1093TIP3    H124914   4.276   0.379   1.318  1.1434 -1.1089  0.4488
 1093TIP3    H224915   4.197   0.262   1.374 -0.8077 -0.0560  0.0107
 1094TIP3   OH224916   3.090   5.618   7.004 -0.4573 -0.6669  0.3560
 1094TIP3    H124917   3.071   5.524   7.003  0.4709 -0.8559  0.1280
 1094TIP3    H224918   3.184   5.624   6.987  0.1994  0.1127  3.5086
 1095TIP3   OH224919   0.132   6.904   7.342  0.2341 -0.1845  0.7034
 1095TIP3    H124920   0.189   6.827   7.350 -0.0805 -0.5070 -0.0214
 1095TIP3    H224921   0.159   6.962   7.413  4.8908  1.9152 -2.2826
 1096TIP3   OH224922   0.490   3.113   1.338 -0.0312 -0.0481  0.3749
 1096TIP3    H124923   0.406   3.129   1.381 -1.0144 -0.1653 -1.4026
 1096TIP3    H224924   0.544   3.187   1.365 -1.3480  1.0883  0.0431
 1097TIP3   OH224925   4.985   6.462   1.086 -0.2438  0.0156 -0.1154
 1097TIP3    H124926   4.945   6.477   1.000 -0.1727  0.9571  0.0047
 1097TIP3    H224927   4.915   6.423   1.138 -1.2426  2.1725  0.2683
 1098TIP3   OH224928   6.043   0.401   6.796 -0.4144  0.8316 -0.7640
 1098TIP3    H124929   6.034   0.323   6.852 -2.2164  0.9132 -0.8870
 1098TIP3    H224930   6.044   0.367   6.707  1.6315  0.7712 -0.7744
 1099TIP3   OH224931   0.034   6.569   6.955  0.1701  0.0435  0.4959
 1099TIP3    H124932   0.071   6.562   6.866 -0.7576 -2.5482  0.2263
 1099TIP3    H224933   0.107   6.545   7.013  0.3547  0.2252  0.3436
 1100TIP3   OH224934   2.364   2.668   8.446  0.5200  0.4686  0.0187
 1100TIP3    H124935   2.313   2.702   8.372  0.7261 -0.0465 -0.3642
 1100TIP3    H224936   2.438   2.622   8.406  0.8072  0.4519  0.5531
 1101TIP3   OH224937   5.282   5.755   0.950  0.0029 -0.4961  0.7142
 1101TIP3    H124938   5.262   5.828   0.891  2.9217  0.9204  1.2959
 1101TIP3    H224939   5.237   5.777   1.031 -1.8432 -1.0993 -0.1003
 1102TIP3   OH224940   2.218   0.578   7.589  0.2182  0.6375  0.1836
 1102TIP3    H124941   2.169   0.649   7.631  2.0574  3.6154 -2.1911
 1102TIP3    H224942   2.158   0.542   7.524 -0.9974 -0.6451  1.9258
 1103TIP3   OH224943   5.564   3.329   7.394 -0.7212  0.3000 -0.3528
 1103TIP3    H124944   5.597   3.318   7.304 -1.5288 -0.0965 -0.6075
 1103TIP3    H224945   5.469   3.340   7.384 -1.4027 -3.3126  0.6494
 1104TIP3   OH224946   3.106   6.267   0.711 -0.4355 -0.1017 -0.3066
 1104TIP3    H124947   3.027   6.310   0.677 -0.6872 -0.5729 -0.3281
 1104TIP3    H224948   3.089   6.258   0.805 -0.3944 -0.1714 -0.3061
 1105TIP3   OH224949   0.142   2.575   7.825 -0.6565  0.3217 -0.5785
 1105TIP3    H124950   0.156   2.486   7.856 -0.9370  0.3320 -0.4135
 1105TIP3    H224951   0.169   2.573   7.733 -2.3226 -0.3888 -1.0917
 1106TIP3   OH224952   4.799   1.229   2.301 -0.2362 -0.4878  0.0173
 1106TIP3    H124953   4.847   1.174   2.364 -0.3268  1.2694  1.7246
 1106TIP3    H224954   4.842   1.314   2.306 -0.7909 -0.0624 -1.7352
 1107TIP3   OH224955   1.350   1.612   8.598 -0.0782 -0.0130  0.8505
 1107TIP3    H124956   1.441   1.632   8.617  0.1297 -1.6328  1.6419
 1107TIP3    H224957   1.302   1.641   8.676  0.0552 -1.2853  1.4150
 1108TIP3   OH224958   0.306   5.169   6.955 -0.2426  0.2443  0.1128
 1108TIP3    H124959   0.343   5.167   6.867 -0.7198  0.2058 -0.0946
 1108TIP3    H224960   0.374   5.207   7.009  0.2266 -0.1510 -0.1919
 1109TIP3   OH224961   5.107   6.428   6.794  0.6215 -0.3933  0.1645
 1109TIP3    H124962   5.034   6.483   6.767 -0.3425 -2.0721 -0.7863
 1109TIP3    H224963   5.098   6.422   6.890 -1.1590 -1.4178 -0.0253
 1110TIP3   OH224964   5.575   3.379   6.867 -0.0646 -0.2431  0.5305
 1110TIP3    H124965   5.618   3.329   6.937  1.0734  1.4543  1.0943
 1110TIP3    H224966   5.505   3.321   6.837  1.6983 -2.5602  0.5509
 1111TIP3   OH224967   1.252   5.895   6.436  0.2534  0.2618 -0.3743
 1111TIP3    H124968   1.212   5.910   6.350  2.2987  1.3881 -1.2109
 1111TIP3    H224969   1.274   5.983   6.467  2.3254 -0.3063 -0.1382
 1112TIP3   OH224970   6.217   0.590   0.290 -0.2200  0.2798 -0.3802
 1112TIP3    H124971   6.226   0.583   0.195 -3.1068  1.1954 -0.8187
 1112TIP3    H224972   6.159   0.518   0.314  0.3497  0.1521  0.6774
 1113TIP3   OH224973   2.611   6.826   1.031 -0.0410 -0.3082  0.0468
 1113TIP3    H124974   2.602   6.908   1.080 -1.7400 -0.7403  0.5507
 1113TIP3    H224975   2.532   6.823   0.976  1.0156 -0.6392 -1.5171
 1114TIP3   OH224976   6.738   6.168   1.131  0.8428 -0.8458 -0.1914
 1114TIP3    H124977   6.761   6.076   1.119  1.5494 -0.7046  0.0411
 1114TIP3    H224978   6.745   6.183   1.225 -1.2783 -1.0603  0.0447
 1115TIP3   OH224979   3.418   3.360   0.517 -0.0270  0.2240 -0.3072
 1115TIP3    H124980   3.386   3.284   0.566  1.7819 -1.6148 -1.8194
 1115TIP3    H224981   3.345   3.384   0.460 -0.5711 -0.4523  0.0844
 1116TIP3   OH224982   6.025   4.576   8.485  0.8245  0.0048  0.0540
 1116TIP3    H124983   6.119   4.555   8.477  0.8938  0.1372  0.4956
 1116TIP3    H224984   5.988   4.549   8.401  1.3452  0.4190 -0.3159
 1117TIP3   OH224985   6.793   3.784   0.670  0.3654  0.1018  0.0367
 1117TIP3    H124986   6.870   3.809   0.619 -0.3396  1.7341 -0.2804
 1117TIP3    H224987   6.740   3.863   0.674 -0.9590 -0.7899  0.8804
 1118TIP3   OH224988   2.902   0.806   1.989  0.0170  0.1239  0.5074
 1118TIP3    H124989   2.956   0.861   1.932 -1.8487 -0.4655 -2.0144
 1118TIP3    H224990   2.933   0.717   1.972 -1.3988 -0.1791 -0.6691
 1119TIP3   OH224991   1.172   2.127   1.367  0.3699  0.1575 -0.0678
 1119TIP3    H124992   1.263   2.157   1.357  0.5048  0.1151  0.8967
 1119TIP3    H224993   1.148   2.154   1.455  0.0234 -1.3314  0.3166
 1120TIP3   OH224994   5.574   2.891   1.304  0.4245 -0.1288 -0.3384
 1120TIP3    H124995   5.534   2.931   1.381 -0.8721  1.7265 -1.8770
 1120TIP3    H224996   5.500   2.868   1.248  1.3410 -1.4300 -1.0714
 1121TIP3   OH224997   5.302   2.117   0.882  0.0091 -0.2172  0.3257
 1121TIP3    H124998   5.352   2.169   0.944 -1.3409  1.8238 -0.1924
 1121TIP3    H224999   5.239   2.070   0.936 -0.5201  0.8005  0.6221
 1122TIP3   OH225000   6.106   4.252   8.363  0.1678 -0.2309 -0.2563
 1122TIP3    H125001   6.151   4.333   8.387 -0.9402  0.7961 -1.5149
 1122TIP3    H225002   6.109   4.199   8.443 -0.9687  1.9339  1.3344
 1123TIP3   OH225003   0.109   1.688   1.999  0.1593  0.1204 -0.2865
 1123TIP3    H125004   0.123   1.720   1.910  2.8936  0.4315  0.1675
 1123TIP3    H225005   0.104   1.593   1.990 -0.1166  0.1833 -0.8311
 1124TIP3   OH225006   2.223   0.292   2.246 -0.4948 -0.7727 -0.5639
 1124TIP3    H125007   2.301   0.334   2.282  0.8449 -2.1231 -1.7331
 1124TIP3    H225008   2.150   0.336   2.289  0.8295  1.7312 -0.6749
 1125TIP3   OH225009   6.814   3.896   0.321  0.0339 -0.7571  0.2417
 1125TIP3    H125010   6.849   3.931   0.239  1.5347 -0.5657  0.9271
 1125TIP3    H225011   6.855   3.950   0.389  0.0351 -1.9140  1.1834
 1126TIP3   OH225012   1.831   2.981   7.848 -0.1391  0.1414 -0.1773
 1126TIP3    H125013   1.908   3.004   7.795  1.7023 -0.1605  2.1900
 1126TIP3    H225014   1.779   3.061   7.851  1.3824  1.1529  0.2305
 1127TIP3   OH225015   6.856   6.486   8.332  0.7026  0.5635  0.4944
 1127TIP3    H125016   6.774   6.534   8.326 -0.0128 -0.6110  0.7118
 1127TIP3    H225017   6.868   6.470   8.425  0.5989 -0.2303  0.3786
 1128TIP3   OH225018   1.178   0.593   7.036 -0.2675 -0.1462 -0.3675
 1128TIP3    H125019   1.208   0.682   7.018 -0.4261  0.1961  0.9962
 1128TIP3    H225020   1.224   0.567   7.115 -1.1605 -0.8059 -0.0528
 1129TIP3   OH225021   2.344   3.606   0.400  0.2495 -0.0925 -1.2085
 1129TIP3    H125022   2.308   3.563   0.322  0.5813 -0.3695 -1.2138
 1129TIP3    H225023   2.436   3.579   0.402 -0.3290 -2.2760  0.7223
 1130TIP3   OH225024   2.751   5.010   0.340 -0.9916  0.3586 -0.0126
 1130TIP3    H125025   2.799   5.002   0.257 -2.9897 -1.4086 -1.0908
 1130TIP3    H225026   2.789   5.088   0.382  2.6721 -0.7836 -0.7948
 1131TIP3   OH225027   2.221   1.861   1.225 -0.2661  0.4417  0.2563
 1131TIP3    H125028   2.180   1.808   1.293 -0.8709  1.9351  1.1084
 1131TIP3    H225029   2.314   1.839   1.230 -0.3816  0.1214  1.2110
 1132TIP3   OH225030   6.290   6.735   7.000 -0.1978  0.8355 -0.5231
 1132TIP3    H125031   6.334   6.696   7.076 -2.4768  1.2043  1.0897
 1132TIP3    H225032   6.295   6.829   7.015  0.1527  0.9541 -1.3410
 1133TIP3   OH225033   6.616   3.979   6.939 -0.2994  0.6098  0.4545
 1133TIP3    H125034   6.669   3.991   7.017  0.8313 -0.8127 -0.0466
 1133TIP3    H225035   6.567   3.898   6.955  1.9802 -1.2633 -1.3066
 1134TIP3   OH225036   0.043   5.093   1.073 -0.3815 -0.3663  0.4094
 1134TIP3    H125037   0.105   5.136   1.133 -0.7674  0.4758  0.2282
 1134TIP3    H225038  -0.043   5.123   1.102 -0.4849  2.0235 -1.9661
 1135TIP3   OH225039   3.100   4.197   1.971 -0.3846  0.3694 -0.0562
 1135TIP3    H125040   3.028   4.134   1.975  1.3905 -1.9020 -1.2142
 1135TIP3    H225041   3.113   4.223   2.062 -1.4645 -0.6020  0.4078
 1136TIP3   OH225042   4.868   2.169   8.516 -0.4569 -0.0047  0.3814
 1136TIP3    H125043   4.960   2.144   8.518  0.1180  1.8626 -0.2140
 1136TIP3    H225044   4.830   2.130   8.594  0.8578 -0.7531  0.6692
 1137TIP3   OH225045   6.892   1.823   6.384  0.1264  0.6216 -0.0497
 1137TIP3    H125046   6.869   1.730   6.373  0.5916  0.4382  0.5080
 1137TIP3    H225047   6.980   1.830   6.347  0.0969  0.8408 -0.0772
 1138TIP3   OH225048   6.189   6.451   0.043  0.2237 -0.2709  0.2871
 1138TIP3    H125049   6.232   6.434   0.127  0.1235  0.0036  0.3965
 1138TIP3    H225050   6.144   6.535   0.056  0.0672 -0.3109  0.0141
 1139TIP3   OH225051   0.949   5.477   5.945  0.2056 -0.2225  0.2347
 1139TIP3    H125052   0.901   5.525   6.011  0.9034  1.5172 -0.4699
 1139TIP3    H225053   1.037   5.467   5.981  0.2993 -0.2009  0.0146
 1140TIP3   OH225054   0.331   1.442   6.859 -0.1409  0.2975 -0.3601
 1140TIP3    H125055   0.253   1.472   6.812 -1.3136  0.4743  1.5799
 1140TIP3    H225056   0.375   1.383   6.798 -0.5219  1.9629 -2.3703
 1141TIP3   OH225057   0.451   4.561   5.815 -0.4188  0.0709  0.2128
 1141TIP3    H125058   0.438   4.486   5.757 -0.9285 -0.3205  0.8152
 1141TIP3    H225059   0.477   4.522   5.898  0.3903  0.6324  0.2299
 1142TIP3   OH225060   0.015   3.080   0.247  0.0499 -0.4556  0.4034
 1142TIP3    H125061   0.076   3.007   0.254 -2.0973 -2.3995  0.0137
 1142TIP3    H225062  -0.022   3.090   0.335 -0.2662 -0.4099  0.2686
 1143TIP3   OH225063   2.622   1.473   7.903 -0.4149  0.2011  0.0818
 1143TIP3    H125064   2.661   1.397   7.946 -0.7892  0.5449  1.0735
 1143TIP3    H225065   2.528   1.454   7.902 -0.6219  1.0245  1.1756
 1144TIP3   OH225066   2.379   6.027   0.888 -0.4626 -0.6979  0.1506
 1144TIP3    H125067   2.430   5.953   0.856  0.0697  0.6787 -2.5086
 1144TIP3    H225068   2.294   6.017   0.846 -0.3467  0.2082 -0.3412
 1145TIP3   OH225069   3.230   3.222   1.534  0.1502 -0.1681  0.0195
 1145TIP3    H125070   3.250   3.249   1.444 -1.7868 -1.7098 -0.9541
 1145TIP3    H225071   3.314   3.195   1.570  0.9915  0.5686 -1.2849
 1146TIP3   OH225072   5.676   5.669   0.622 -0.1666 -0.0128  0.1286
 1146TIP3    H125073   5.727   5.608   0.569  1.0502  0.8586  0.2609
 1146TIP3    H225074   5.596   5.621   0.643  1.4580 -2.2373  1.6892
 1147TIP3   OH225075   2.341   0.792   7.179 -0.0152  0.1795 -0.4239
 1147TIP3    H125076   2.283   0.802   7.255  0.6842 -1.5191  0.3955
 1147TIP3    H225077   2.419   0.842   7.201  0.5736 -1.0539  0.4601
 1148TIP3   OH225078   0.103   1.370   0.897  0.1441  0.3275  0.3827
 1148TIP3    H125079   0.167   1.340   0.962  0.7027  0.9047  0.1177
 1148TIP3    H225080   0.156   1.394   0.821 -0.2182  2.1862  0.6568
 1149TIP3   OH225081   2.131   2.993   8.566  0.4446  0.9951 -0.1497
 1149TIP3    H125082   2.224   2.994   8.587  0.7226  0.1024 -1.2369
 1149TIP3    H225083   2.128   3.001   8.471 -0.4520 -1.5737 -0.3991
 1150TIP3   OH225084   5.684   1.451   8.519 -0.2417 -0.2275 -0.3040
 1150TIP3    H125085   5.606   1.489   8.478 -0.5438 -1.7537 -1.1897
 1150TIP3    H225086   5.745   1.438   8.448 -0.1652 -1.4270 -0.0410
 1151TIP3   OH225087   1.787   1.488   0.209 -0.2547 -0.5311  0.0996
 1151TIP3    H125088   1.874   1.499   0.247  0.1085 -1.1411 -0.5445
 1151TIP3    H225089   1.730   1.472   0.285 -0.2578  2.2256  0.7926
 1152TIP3   OH225090   2.478   5.628   1.037  0.0002  0.9436 -0.4110
 1152TIP3    H125091   2.557   5.593   0.996 -0.2508  1.8712 -1.7793
 1152TIP3    H225092   2.511   5.691   1.101  0.3887  0.0856  0.2532
 1153TIP3   OH225093   6.675   3.489   1.694  0.0029 -0.6763 -0.1311
 1153TIP3    H125094   6.604   3.471   1.632 -0.3251  2.7528 -0.9923
 1153TIP3    H225095   6.632   3.535   1.766  0.8952 -1.6378  1.0565
 1154TIP3   OH225096   5.866   6.061   8.376  0.8949  0.2242 -0.4580
 1154TIP3    H125097   5.908   5.975   8.371 -1.4052 -0.9995 -0.1328
 1154TIP3    H225098   5.784   6.045   8.422  0.7417  2.7679  0.3057
 1155TIP3   OH225099   5.671   4.260   1.256  0.2556 -0.0514 -0.0945
 1155TIP3    H125100   5.748   4.250   1.200  0.2578 -0.7091  0.0194
 1155TIP3    H225101   5.601   4.215   1.208 -0.3932  1.6440 -0.8233
 1156TIP3   OH225102   6.495   3.945   6.544 -0.5252  0.3250 -0.1620
 1156TIP3    H125103   6.583   3.979   6.527 -1.3965  2.8874 -0.0387
 1156TIP3    H225104   6.502   3.851   6.532  2.2090  0.4761 -0.2167
 1157TIP3   OH225105   3.587   0.029   7.240 -0.1533 -0.2765 -0.1304
 1157TIP3    H125106   3.514   0.072   7.286  0.3628  0.5756 -0.0862
 1157TIP3    H225107   3.601  -0.052   7.289 -0.0002  0.3350  0.8831
 1158TIP3   OH225108   1.092   0.208   1.277 -0.2685 -0.1201  0.1712
 1158TIP3    H125109   1.053   0.236   1.360  1.5261 -1.3983  1.5466
 1158TIP3    H225110   1.068   0.115   1.270 -2.0280  0.4216 -1.7953
 1159TIP3   OH225111   2.838   4.634   8.458 -0.0651 -0.0257 -0.7074
 1159TIP3    H125112   2.751   4.596   8.471  0.5099 -1.6629 -1.3471
 1159TIP3    H225113   2.879   4.577   8.393  0.6896  2.0689 -2.1741
 1160TIP3   OH225114   3.768   6.559   7.460  0.6404 -0.4102 -0.1051
 1160TIP3    H125115   3.708   6.499   7.416 -0.5759  0.8299 -0.2296
 1160TIP3    H225116   3.735   6.646   7.438  1.8265  0.3007  0.7727
 1161TIP3   OH225117   0.156   5.497   2.355 -0.0872  0.7363 -0.1746
 1161TIP3    H125118   0.239   5.523   2.396  1.2905  0.0040 -2.3454
 1161TIP3    H225119   0.181   5.433   2.289 -2.3818  0.7124 -1.1055
 1162TIP3   OH225120   5.757   2.926   7.310 -0.1435 -0.1436  0.2352
 1162TIP3    H125121   5.732   2.914   7.401 -1.4251  0.4827 -0.0131
 1162TIP3    H225122   5.711   2.855   7.263  0.2690 -0.2844  0.0388
 1163TIP3   OH225123   5.669   1.884   1.612  0.3125  0.2773 -0.5859
 1163TIP3    H125124   5.753   1.931   1.607 -0.1013  1.0809 -0.1589
 1163TIP3    H225125   5.691   1.801   1.655  0.8670  0.5431 -0.3407
 1164TIP3   OH225126   6.549   2.191   7.914  0.4207  0.0286 -0.2498
 1164TIP3    H125127   6.605   2.191   7.836  0.1623  1.2092 -0.4510
 1164TIP3    H225128   6.490   2.266   7.902  1.9897  1.8200  2.1868
 1165TIP3   OH225129   5.211   5.934   1.186  0.3032  0.3958 -0.0269
 1165TIP3    H125130   5.211   5.881   1.266 -1.1522  0.5099  0.0724
 1165TIP3    H225131   5.207   6.024   1.217 -0.6183  0.4298 -0.2070
 1166TIP3   OH225132   5.254   0.584   6.684  0.3433  0.0635  0.3050
 1166TIP3    H125133   5.227   0.516   6.622 -2.8806  0.2268  1.3208
 1166TIP3    H225134   5.267   0.662   6.630 -1.0000 -0.1529 -0.3827
 1167TIP3   OH225135   5.655   6.694   0.621  0.1928 -0.5135  0.1977
 1167TIP3    H125136   5.720   6.624   0.618  1.9396  1.0326 -0.5185
 1167TIP3    H225137   5.646   6.722   0.529  2.0174  2.2353  0.7215
 1168TIP3   OH225138   6.737   2.229   7.712  0.2122 -0.4173 -0.2386
 1168TIP3    H125139   6.830   2.211   7.721  0.3714  0.8338  1.1800
 1168TIP3    H225140   6.731   2.291   7.639  0.4544 -0.7612 -0.5500
 1169TIP3   OH225141   4.541   1.456   6.796 -1.2431  0.2463  0.8295
 1169TIP3    H125142   4.625   1.500   6.805 -1.3528  0.5728  0.3351
 1169TIP3    H225143   4.533   1.402   6.874 -0.7693  0.5433  1.0878
 1170TIP3   OH225144   0.916   1.400   8.498  0.6438  0.3048 -0.3489
 1170TIP3    H125145   0.840   1.432   8.450  0.9287  1.0760 -0.2971
 1170TIP3    H225146   0.988   1.456   8.470  1.3346 -0.7703 -0.8265
 1171TIP3   OH225147   1.313   5.591   7.138  0.6219  0.2889 -0.0141
 1171TIP3    H125148   1.293   5.572   7.046  0.6372  1.2391 -0.2244
 1171TIP3    H225149   1.231   5.576   7.185 -0.0259  1.9912 -0.5334
 1172TIP3   OH225150   2.727   5.300   7.310 -0.0712  0.3715  0.8247
 1172TIP3    H125151   2.730   5.390   7.279 -0.0889  0.3579  0.7840
 1172TIP3    H225152   2.814   5.286   7.349  0.4325 -0.0416 -0.4135
 1173TIP3   OH225153   0.519   1.133   1.006 -0.0621 -0.4255 -0.2028
 1173TIP3    H125154   0.427   1.152   1.023  0.4050 -0.7651  3.9390
 1173TIP3    H225155   0.566   1.174   1.079  3.0349 -0.9170 -1.7230
 1174TIP3   OH225156   6.362   6.097   0.288  0.0635 -0.0955  0.4509
 1174TIP3    H125157   6.348   6.190   0.273 -0.9252 -0.0960  1.2417
 1174TIP3    H225158   6.456   6.084   0.273  0.2366  1.0440  0.4603
 1175TIP3   OH225159   4.591   0.619   0.789 -0.1752 -0.4153  0.6814
 1175TIP3    H125160   4.611   0.704   0.830  1.0065 -0.6741  0.6815
 1175TIP3    H225161   4.571   0.641   0.698 -0.8970 -0.0377  0.9229
 1176TIP3   OH225162   2.590   3.229   0.684  0.5503  0.0322  0.4064
 1176TIP3    H125163   2.555   3.181   0.759 -0.0093  2.2891  1.6945
 1176TIP3    H225164   2.651   3.292   0.723  1.0877  0.5239 -1.1618
 1177TIP3   OH225165   2.005   5.395   6.533  0.3010 -0.0708  0.1088
 1177TIP3    H125166   1.924   5.406   6.582 -0.5361 -1.4693 -0.9017
 1177TIP3    H225167   2.064   5.349   6.593 -0.9408 -2.3891 -0.3537
 1178TIP3   OH225168   3.198   4.214   1.718 -0.1433  0.1738 -0.0232
 1178TIP3    H125169   3.276   4.162   1.698 -0.2112 -0.2787  0.8326
 1178TIP3    H225170   3.182   4.198   1.811 -0.6034  1.1493  0.0796
 1179TIP3   OH225171   2.129   1.032   6.482  0.4647 -0.5118  0.1975
 1179TIP3    H125172   2.090   0.952   6.517 -0.2293 -0.1110  0.3633
 1179TIP3    H225173   2.057   1.075   6.436  1.0618 -0.4304 -0.6859
 1180TIP3   OH225174   3.382   4.487   7.540  0.2432  0.0622 -0.2992
 1180TIP3    H125175   3.359   4.508   7.631 -2.4145  1.4246 -1.1907
 1180TIP3    H225176   3.416   4.569   7.505  0.2704 -0.1667 -0.8102
 1181TIP3   OH225177   3.856   3.797   8.162 -0.3254 -0.1112 -0.0234
 1181TIP3    H125178   3.867   3.713   8.206 -0.6891 -1.0052 -1.5893
 1181TIP3    H225179   3.940   3.841   8.175 -0.1454 -0.6829  0.8489
 1182TIP3   OH225180   2.292   5.410   7.720  0.0044  0.3768  0.3520
 1182TIP3    H125181   2.214   5.399   7.665 -0.5888  3.5458  0.3662
 1182TIP3    H225182   2.364   5.419   7.658  0.1070 -0.7799  0.2856
 1183TIP3   OH225183   4.648   0.582   8.005  0.0784 -0.1649 -1.1497
 1183TIP3    H125184   4.609   0.650   7.951 -1.0724  1.8121  1.8845
 1183TIP3    H225185   4.742   0.588   7.987 -0.1512  1.2931 -1.9765
 1184TIP3   OH225186   0.406   4.641   6.597  0.3036 -0.4992  0.7530
 1184TIP3    H125187   0.426   4.604   6.511 -1.5165 -0.7961  0.4230
 1184TIP3    H225188   0.435   4.732   6.591 -0.9748 -0.1479 -0.6418
 1185TIP3   OH225189   1.501   4.354   0.392  0.1139 -0.4142  0.7849
 1185TIP3    H125190   1.519   4.379   0.482  1.5441  0.6252  0.2615
 1185TIP3    H225191   1.587   4.354   0.350 -0.6784  0.8947 -0.9921
 1186TIP3   OH225192   4.517   6.264   8.187  0.0097 -0.0613  0.1725
 1186TIP3    H125193   4.473   6.284   8.269 -2.0790 -0.8034 -0.7050
 1186TIP3    H225194   4.535   6.349   8.148  0.4210  0.2765  1.0777
 1187TIP3   OH225195   1.854   0.784   7.354 -0.3775  0.1741 -0.2428
 1187TIP3    H125196   1.949   0.779   7.364 -0.4896 -1.4197  0.4197
 1187TIP3    H225197   1.830   0.870   7.388  0.8123  0.5339 -0.2927
 1188TIP3   OH225198   0.260   2.558   7.283  0.6098  0.4367  0.1570
 1188TIP3    H125199   0.353   2.541   7.268 -0.1032 -1.9381 -2.3937
 1188TIP3    H225200   0.230   2.602   7.204 -0.9393 -1.4982 -0.4193
 1189TIP3   OH225201   2.043   4.300   0.670 -0.2776  0.0469  0.3283
 1189TIP3    H125202   1.986   4.362   0.623 -0.3812  0.0204  0.4187
 1189TIP3    H225203   2.132   4.325   0.644 -0.3972 -1.3494 -1.6584
 1190TIP3   OH225204   6.838   4.194   8.475  0.5004 -0.6115  0.3741
 1190TIP3    H125205   6.843   4.160   8.385  0.2510 -2.2155  0.9312
 1190TIP3    H225206   6.926   4.227   8.493  0.8080 -1.1137 -0.1500
 1191TIP3   OH225207   4.961   1.136   0.561  0.1416 -0.0924  0.0790
 1191TIP3    H125208   4.912   1.156   0.641 -1.6546 -0.4510 -0.8978
 1191TIP3    H225209   5.008   1.217   0.541  0.5185  0.0491  1.3893
 1192TIP3   OH225210   5.723   0.984   0.770  0.0082 -0.1831  0.5406
 1192TIP3    H125211   5.693   0.964   0.681  0.2499 -0.8754  0.6121
 1192TIP3    H225212   5.733   0.899   0.812 -1.0110  0.1591  1.5432
 1193TIP3   OH225213   0.069   3.345   7.458 -0.2104  0.5777 -0.5075
 1193TIP3    H125214   0.021   3.285   7.514  0.2929  0.0054 -0.6745
 1193TIP3    H225215   0.055   3.313   7.369 -0.1084  0.8292 -0.6183
 1194TIP3   OH225216   0.289   6.167   0.246  0.3500  0.2449 -0.0945
 1194TIP3    H125217   0.216   6.159   0.185 -0.7617 -1.7091  1.4054
 1194TIP3    H225218   0.280   6.255   0.282 -0.4858  0.4852 -0.8426
 1195TIP3   OH225219   3.018   5.860   1.201 -0.2012  0.2536  0.3455
 1195TIP3    H125220   3.079   5.930   1.224  1.7100  0.0414 -3.3053
 1195TIP3    H225221   3.069   5.801   1.146 -3.5997 -0.0388 -2.8567
 1196TIP3   OH225222   2.752   2.911   0.734 -0.0298 -0.5040 -0.0413
 1196TIP3    H125223   2.691   2.984   0.726  1.9082  1.0350 -1.7183
 1196TIP3    H225224   2.793   2.922   0.819 -0.6861 -0.4145  0.2636
 1197TIP3   OH225225   3.235   3.297   0.798  0.0053  0.1399 -0.2375
 1197TIP3    H125226   3.300   3.236   0.764  1.0655  1.1644 -0.0944
 1197TIP3    H225227   3.269   3.325   0.882 -0.6876  0.5851 -0.0965
 1198TIP3   OH225228   1.627   6.618   6.328  0.4206 -0.1027  0.2359
 1198TIP3    H125229   1.640   6.568   6.247 -0.3178  0.3881 -0.2032
 1198TIP3    H225230   1.601   6.705   6.298 -1.8381 -0.4577  0.9777
 1199TIP3   OH225231   2.134   4.501   0.387  0.5473  0.1029  0.7713
 1199TIP3    H125232   2.197   4.442   0.345  2.1246  0.6165  2.3064
 1199TIP3    H225233   2.122   4.572   0.324  0.0969 -0.8740 -0.2840
 1200TIP3   OH225234   0.167   4.712   1.651  0.3626 -0.2152  0.3693
 1200TIP3    H125235   0.072   4.705   1.646  0.3614 -0.2429  0.4258
 1200TIP3    H225236   0.187   4.696   1.744  0.5095 -1.1552  0.1835
 1201TIP3   OH225237   3.540   4.409   8.315  0.4371  0.2032  0.8620
 1201TIP3    H125238   3.562   4.497   8.344 -0.6713  0.9218 -0.3987
 1201TIP3    H225239   3.603   4.391   8.245 -0.1860  0.5268  0.2152
 1202TIP3   OH225240   5.172   6.765   1.141 -0.0996 -0.8548  0.4337
 1202TIP3    H125241   5.170   6.706   1.216 -1.5329  1.7294  2.6305
 1202TIP3    H225242   5.206   6.847   1.176  1.6275 -0.2041 -2.4214
 1203TIP3   OH225243   4.202   4.010   0.066 -0.3073 -0.0707 -0.1585
 1203TIP3    H125244   4.204   4.031  -0.028 -0.5535 -1.1368 -0.4192
 1203TIP3    H225245   4.292   3.989   0.088 -0.0640  1.1534  0.0972
 1204TIP3   OH225246   5.703   5.405   2.452  0.0714 -0.2056  0.0783
 1204TIP3    H125247   5.651   5.469   2.501 -0.6463 -0.9025  0.2499
 1204TIP3    H225248   5.792   5.418   2.483  0.0763  1.2567 -0.4811
 1205TIP3   OH225249   0.418   5.571   7.463 -0.3769 -0.1125  0.3468
 1205TIP3    H125250   0.448   5.484   7.488  1.4034  0.2552 -0.4054
 1205TIP3    H225251   0.398   5.564   7.369  0.6293  0.4948  0.0764
 1206TIP3   OH225252   2.827   3.415   7.143 -0.4911 -0.3723  0.3093
 1206TIP3    H125253   2.856   3.468   7.068  0.8664  1.6904  2.1675
 1206TIP3    H225254   2.733   3.431   7.149 -0.3362  0.7468 -0.0239
 1207TIP3   OH225255   4.048   5.820   1.497  0.3051 -0.5725  0.3352
 1207TIP3    H125256   4.056   5.752   1.431 -1.1921  0.3557 -0.8552
 1207TIP3    H225257   4.139   5.846   1.515  0.8706 -2.4066  0.3870
 1208TIP3   OH225258   3.952   3.293   1.979 -0.0886  0.2745  0.0365
 1208TIP3    H125259   3.996   3.264   2.058  0.6625 -1.0590 -0.8379
 1208TIP3    H225260   3.978   3.230   1.912 -0.7236  1.3500 -1.2744
 1209TIP3   OH225261   6.814   4.531   8.488 -0.4036  0.3119 -0.8176
 1209TIP3    H125262   6.877   4.498   8.424  0.2247  0.5667 -0.3416
 1209TIP3    H225263   6.843   4.621   8.506 -0.1399  0.0161  0.3490
 1210TIP3   OH225264   0.081   1.118   0.763  0.6087  0.2132  0.2025
 1210TIP3    H125265   0.161   1.070   0.788  0.0221 -1.6355 -1.2208
 1210TIP3    H225266   0.080   1.194   0.822  2.6673 -0.4419  1.2136
 1211TIP3   OH225267   2.870   2.833   0.038  0.0424 -0.0942  0.0906
 1211TIP3    H125268   2.828   2.819  -0.047  0.6746  3.3654 -0.9160
 1211TIP3    H225269   2.803   2.876   0.091  0.1343 -0.8995  0.8890
 1212TIP3   OH225270   3.431   6.237   0.295  0.1908  0.0389  0.4664
 1212TIP3    H125271   3.372   6.181   0.347 -0.5335  0.6607  0.3357
 1212TIP3    H225272   3.475   6.177   0.235 -3.3744 -0.0750 -2.3884
 1213TIP3   OH225273   0.025   4.023   7.052 -0.0970 -0.1013 -0.0563
 1213TIP3    H125274   0.073   3.968   6.989  0.9474  0.1354  0.5219
 1213TIP3    H225275   0.072   4.106   7.052  0.2427 -0.2679  1.4214
 1214TIP3   OH225276   2.500   4.163   0.298 -0.4135  0.3167 -0.3071
 1214TIP3    H125277   2.538   4.111   0.226  1.6646 -0.9528  1.5770
 1214TIP3    H225278   2.474   4.098   0.363 -2.7993  1.4050 -0.0413
 1215TIP3   OH225279   5.242   3.204   1.088 -0.0925 -0.0649  0.1041
 1215TIP3    H125280   5.243   3.113   1.057  0.7641 -0.0894  0.1885
 1215TIP3    H225281   5.160   3.211   1.137 -0.9679 -0.3255 -1.2509
 1216TIP3   OH225282   1.204   5.071   7.193  0.5439 -0.8830 -0.8405
 1216TIP3    H125283   1.212   5.166   7.201  1.4288 -1.0878  1.4176
 1216TIP3    H225284   1.110   5.055   7.180 -0.2391  0.1574  2.6585
 1217TIP3   OH225285   4.853   2.909   0.105 -0.0939  0.4625 -0.1355
 1217TIP3    H125286   4.815   2.859   0.178 -0.5987  1.5706  0.3801
 1217TIP3    H225287   4.836   3.000   0.127  2.0141  0.9629 -0.3797
 1218TIP3   OH225288   1.808   4.535   0.048  0.2862  0.0676 -0.3472
 1218TIP3    H125289   1.736   4.585   0.086  0.3974 -1.0682  1.5180
 1218TIP3    H225290   1.782   4.520  -0.043 -1.3155  0.6269 -0.0117
 1219TIP3   OH225291   4.719   5.048   0.334  0.4807 -0.1001 -0.1841
 1219TIP3    H125292   4.774   4.992   0.389 -0.2597  0.6572  1.3966
 1219TIP3    H225293   4.631   5.039   0.372  0.2071  1.5442 -0.3609
 1220TIP3   OH225294   1.070   0.399   0.241  0.1613 -0.2229  0.4789
 1220TIP3    H125295   0.982   0.437   0.235 -0.0083 -0.5842  0.6561
 1220TIP3    H225296   1.107   0.437   0.321  0.0377 -0.3370  0.5907
 1221TIP3   OH225297   3.460   2.631   1.125  0.0472 -0.0640  0.2944
 1221TIP3    H125298   3.445   2.593   1.211  2.3401 -0.7267  0.4659
 1221TIP3    H225299   3.375   2.664   1.098 -0.9770 -0.9380  2.2769
 1222TIP3   OH225300   6.431   0.508   0.750 -0.3964 -0.0239  0.1923
 1222TIP3    H125301   6.481   0.513   0.832 -0.7428 -0.7330  0.4581
 1222TIP3    H225302   6.490   0.466   0.688 -0.2941  0.0875  0.2152
 1223TIP3   OH225303   2.271   3.623   8.171  0.1431  0.4570  0.0889
 1223TIP3    H125304   2.216   3.630   8.094 -0.8271 -0.2894  0.6805
 1223TIP3    H225305   2.214   3.584   8.238  1.6739 -1.4035  0.4051
 1224TIP3   OH225306   0.797   2.725   1.799 -0.6075 -0.1344  0.2696
 1224TIP3    H125307   0.705   2.707   1.820 -0.3321 -2.3075 -0.1947
 1224TIP3    H225308   0.847   2.673   1.861  0.2898 -0.1184 -0.4190
 1225TIP3   OH225309   1.532   5.497   6.573 -0.2459  0.1098 -1.0021
 1225TIP3    H125310   1.552   5.419   6.521  1.5809  0.1656 -0.4748
 1225TIP3    H225311   1.599   5.560   6.548  0.6349  0.1806  1.2562
 1226TIP3   OH225312   0.452   6.228   7.768 -0.3284 -0.7540  0.2230
 1226TIP3    H125313   0.512   6.259   7.701 -2.1321 -1.0845 -1.6318
 1226TIP3    H225314   0.491   6.257   7.851  1.0187  1.3122 -1.0567
 1227TIP3   OH225315   6.774   2.815   7.259 -0.4588 -0.2059 -0.9040
 1227TIP3    H125316   6.680   2.818   7.247 -0.6611 -1.1520  0.2391
 1227TIP3    H225317   6.787   2.826   7.353  0.8278  3.6048 -1.3583
 1228TIP3   OH225318   4.742   3.101   8.030  0.1523  0.3018 -0.0732
 1228TIP3    H125319   4.795   3.055   8.097  0.1832  0.6933  0.1743
 1228TIP3    H225320   4.679   3.036   8.001 -2.1199  1.0440  2.7849
 1229TIP3   OH225321   0.145   1.315   7.551  0.5034 -0.2161  0.0945
 1229TIP3    H125322   0.181   1.360   7.627 -0.1359 -0.1414  0.3596
 1229TIP3    H225323   0.116   1.386   7.493 -2.4051 -0.2036  1.4095
 1230TIP3   OH225324   0.724   2.261   8.117  0.2642  0.6607 -0.3868
 1230TIP3    H125325   0.742   2.349   8.150  0.2509  0.5613 -0.1123
 1230TIP3    H225326   0.645   2.270   8.065 -3.0140 -0.1107  3.9263
 1231TIP3   OH225327   6.098   4.799   8.190 -1.0208  0.2224  0.1343
 1231TIP3    H125328   6.037   4.725   8.193 -0.9455  0.1371 -0.2990
 1231TIP3    H225329   6.132   4.798   8.101 -0.8037  0.6089  0.2092
 1232TIP3   OH225330   1.862   5.424   0.767 -0.2794 -0.0172 -0.8618
 1232TIP3    H125331   1.883   5.333   0.747 -1.2811 -0.4149 -0.2181
 1232TIP3    H225332   1.822   5.420   0.854  0.1633  1.1099 -0.5912
 1233TIP3   OH225333   2.201   5.737   5.839  0.2879  0.6371  0.3260
 1233TIP3    H125334   2.272   5.753   5.900 -0.2518 -0.0624  1.1589
 1233TIP3    H225335   2.122   5.766   5.885 -0.0518  0.7257 -0.2941
 1234TIP3   OH225336   6.507   4.678   1.477  0.0507  0.3262  0.0554
 1234TIP3    H125337   6.502   4.694   1.571 -0.3872  0.7821 -0.0421
 1234TIP3    H225338   6.471   4.758   1.437 -1.8902 -0.7465 -0.4591
 1235TIP3   OH225339   0.153   5.165   0.554  0.3946 -0.2402  0.4737
 1235TIP3    H125340   0.095   5.237   0.528  0.2722 -0.6192 -0.3124
 1235TIP3    H225341   0.112   5.130   0.634 -0.7883 -0.8589 -0.3704
 1236TIP3   OH225342   5.457   1.930   0.180  0.1715  0.0949 -0.0064
 1236TIP3    H125343   5.524   1.998   0.165  3.4049 -2.6943  0.6781
 1236TIP3    H225344   5.431   1.943   0.271  0.0688  0.9516 -0.1432
 1237TIP3   OH225345   6.522   6.001   7.967  0.1574 -0.2422  0.0337
 1237TIP3    H125346   6.520   6.041   7.880  0.2311  0.0096  0.1459
 1237TIP3    H225347   6.600   5.946   7.967 -0.3582 -0.9854 -0.3827
 1238TIP3   OH225348   6.205   0.617   1.459 -0.5352 -0.0483 -0.5957
 1238TIP3    H125349   6.254   0.672   1.399 -0.9694 -1.3269 -2.1690
 1238TIP3    H225350   6.256   0.537   1.467 -0.9523 -0.2645  0.0149
 1239TIP3   OH225351   4.903   0.008   7.267 -0.2857 -0.4084 -0.2578
 1239TIP3    H125352   4.913   0.050   7.352  0.9134  1.1954 -1.1328
 1239TIP3    H225353   4.966   0.053   7.211 -1.3589 -1.1089 -2.1104
 1240TIP3   OH225354   5.078   0.685   8.120  0.4665  0.4748  0.2007
 1240TIP3    H125355   5.065   0.644   8.205 -1.0793 -0.0218 -0.2453
 1240TIP3    H225356   5.132   0.762   8.138  0.9560 -0.1448  1.4744
 1241TIP3   OH225357   3.518   6.108   6.496  0.2871 -0.2967  0.3036
 1241TIP3    H125358   3.457   6.097   6.569  0.6843 -0.2558  0.6423
 1241TIP3    H225359   3.525   6.021   6.457  0.2963 -0.3788  0.4888
 1242TIP3   OH225360   0.942   0.480   7.528  0.2338  0.3743 -0.2438
 1242TIP3    H125361   0.982   0.540   7.464  0.7203 -0.5572 -0.8378
 1242TIP3    H225362   0.956   0.522   7.613 -0.4897  1.6741 -0.7415
 1243TIP3   OH225363   1.020   3.267   7.380  0.1793 -0.6375 -0.0475
 1243TIP3    H125364   0.998   3.315   7.460 -0.2447  0.0923 -0.5905
 1243TIP3    H225365   1.045   3.180   7.411  3.8873  0.6936  1.2536
 1244TIP3   OH225366   2.130   0.885   0.919 -0.2799  0.0540 -0.0763
 1244TIP3    H125367   2.201   0.946   0.901 -1.6700  1.0842 -2.6665
 1244TIP3    H225368   2.166   0.799   0.900  0.3219  0.5637 -1.3530
 1245TIP3   OH225369   2.793   4.766   7.511 -0.3046  0.5337 -0.5589
 1245TIP3    H125370   2.753   4.853   7.506 -0.8784  0.3028 -0.1227
 1245TIP3    H225371   2.838   4.755   7.428  0.1961  1.4496 -0.4222
 1246TIP3   OH225372   3.724   4.820   7.474  0.5848 -0.5737  0.7772
 1246TIP3    H125373   3.768   4.744   7.437  0.3856 -1.1106  1.6246
 1246TIP3    H225374   3.698   4.872   7.397  3.0619 -0.0056  0.2514
 1247TIP3   OH225375   3.423   3.000   2.102 -0.3171 -0.9937  0.6741
 1247TIP3    H125376   3.467   3.068   2.051 -1.8717 -1.6704 -1.7255
 1247TIP3    H225377   3.421   3.034   2.191  0.5260  1.2864 -0.1187
 1248TIP3   OH225378   2.981   2.084   0.675 -0.2086 -0.5592  0.3283
 1248TIP3    H125379   3.007   2.146   0.607 -2.8077  0.2420 -0.0407
 1248TIP3    H225380   2.920   2.025   0.631 -2.5334  0.4093  2.0187
 1249TIP3   OH225381   0.056   1.111   6.316  0.7366 -0.4607 -0.2159
 1249TIP3    H125382   0.119   1.062   6.369  1.1188 -0.3518 -0.5689
 1249TIP3    H225383   0.106   1.142   6.241  0.0227 -1.2711 -1.0518
 1250TIP3   OH225384   4.927   2.439   8.611  0.2728  0.3731 -0.0641
 1250TIP3    H125385   4.900   2.383   8.539  0.1447 -0.1434  0.3794
 1250TIP3    H225386   4.989   2.500   8.572 -2.3012  2.3233 -1.3566
 1251TIP3   OH225387   2.169   0.792   1.443  0.1073  0.6715  0.3139
 1251TIP3    H125388   2.217   0.867   1.477 -2.3736  1.5718  2.1217
 1251TIP3    H225389   2.122   0.825   1.366 -1.8078  1.3523  1.7128
 1252TIP3   OH225390   2.647   1.949   8.039  0.5238  0.2833  0.4962
 1252TIP3    H125391   2.554   1.930   8.022  0.9392 -0.0274 -1.7633
 1252TIP3    H225392   2.690   1.863   8.031  1.3712  0.8512 -1.6444
 1253TIP3   OH225393   3.121   1.714   6.820 -0.5249 -0.0950 -0.4186
 1253TIP3    H125394   3.047   1.713   6.759  0.2822  3.3029 -1.6796
 1253TIP3    H225395   3.135   1.807   6.838  2.4594 -0.7233  1.0416
 1254TIP3   OH225396   3.755   4.889   7.101 -0.2666 -0.0900  0.2919
 1254TIP3    H125397   3.820   4.909   7.034  0.4486 -1.2003  0.6384
 1254TIP3    H225398   3.722   4.802   7.079 -1.6415  0.4475  0.1302
 1255TIP3   OH225399   2.481   2.388   7.211  0.6076  0.1556  0.5396
 1255TIP3    H125400   2.570   2.424   7.207  1.2026 -1.3193 -0.0713
 1255TIP3    H225401   2.466   2.351   7.125  0.4818 -2.0699  1.4602
 1256TIP3   OH225402   4.901   6.061   8.593  0.1712  0.1988 -0.0843
 1256TIP3    H125403   4.871   5.971   8.597 -0.2189  0.2951 -0.7239
 1256TIP3    H225404   4.991   6.055   8.560  0.4285  0.0003  0.6242
 1257TIP3   OH225405   3.761   1.099   0.908 -0.0542  0.1594  0.6021
 1257TIP3    H125406   3.837   1.101   0.967 -0.3618  0.0518  1.0034
 1257TIP3    H225407   3.690   1.140   0.958  0.4341  2.9224 -0.7984
 1258TIP3   OH225408   5.065   6.220   7.682 -0.3704  0.3308  0.1139
 1258TIP3    H125409   5.075   6.136   7.728  1.5863  1.6019  2.2044
 1258TIP3    H225410   4.973   6.223   7.659 -1.2650 -0.9615  3.0007
 1259TIP3   OH225411   2.657   5.099   1.226  0.5132 -0.4269 -0.6191
 1259TIP3    H125412   2.708   5.125   1.149  2.1246 -0.4700  0.3897
 1259TIP3    H225413   2.566   5.103   1.196  1.0379  0.3903 -2.2708
 1260TIP3   OH225414   5.572   1.554   1.237 -0.2481 -0.6763  0.0774
 1260TIP3    H125415   5.534   1.476   1.278 -1.6460  0.4735  1.0828
 1260TIP3    H225416   5.538   1.627   1.289  1.9979  0.5595 -0.0881
 1261TIP3   OH225417   0.047   2.225   8.216  0.2960  0.0705  0.1970
 1261TIP3    H125418   0.094   2.268   8.287  0.4914  0.5169 -0.1960
 1261TIP3    H225419   0.071   2.133   8.223 -1.2729 -0.2622  1.9566
 1262TIP3   OH225420   0.526   1.246   1.438  0.9670 -0.1892  0.0829
 1262TIP3    H125421   0.551   1.197   1.516  2.8975  2.6664  1.4205
 1262TIP3    H225422   0.430   1.243   1.437  0.9630 -1.7047  1.5515
 1263TIP3   OH225423   3.149   0.889   8.375 -0.0611 -0.3721 -0.5232
 1263TIP3    H125424   3.188   0.969   8.338 -0.3096 -0.9466 -2.1314
 1263TIP3    H225425   3.214   0.821   8.359 -1.1056 -1.0763 -2.0232
 1264TIP3   OH225426   5.568   2.308   0.715  0.3978  0.0606  0.4600
 1264TIP3    H125427   5.638   2.259   0.757 -0.3723 -0.5333  1.0968
 1264TIP3    H225428   5.503   2.241   0.692  0.0589  0.5910 -0.1668
 1265TIP3   OH225429   1.986   4.836   1.283 -0.2076  0.1013  0.5314
 1265TIP3    H125430   2.038   4.839   1.203 -0.9953  2.1899  0.0182
 1265TIP3    H225431   2.048   4.860   1.352  0.9897 -3.7044  0.9788
 1266TIP3   OH225432   3.431   2.523   0.729  0.2222  0.4756 -0.7735
 1266TIP3    H125433   3.371   2.492   0.662 -0.0173 -1.3698  0.2432
 1266TIP3    H225434   3.390   2.603   0.763 -0.5693  0.4027 -1.5415
 1267TIP3   OH225435   1.876   6.725   6.548 -0.4218  0.2323  0.4223
 1267TIP3    H125436   1.916   6.691   6.468  4.0437  3.2159  1.0463
 1267TIP3    H225437   1.832   6.805   6.520 -2.0212 -0.5866  0.4992
 1268TIP3   OH225438   4.283   4.461   0.929  0.0548  0.6695 -0.3146
 1268TIP3    H125439   4.295   4.556   0.918  0.9769  0.8294  1.6348
 1268TIP3    H225440   4.248   4.452   1.018 -0.5391 -0.8016 -0.6770
 1269TIP3   OH225441   1.703   2.137   6.311  0.1322 -0.1362  0.1566
 1269TIP3    H125442   1.742   2.055   6.282  2.8183  1.5959 -1.6277
 1269TIP3    H225443   1.776   2.186   6.348 -1.0469  2.0301 -0.2231
 1270TIP3   OH225444   0.111   2.785   5.985 -0.6589  0.3062 -0.1436
 1270TIP3    H125445   0.171   2.795   5.912 -0.6250  0.7527 -0.0593
 1270TIP3    H225446   0.124   2.695   6.016  2.0304  1.1961  1.6612
 1271TIP3   OH225447   5.678   4.993   1.876  0.4220 -0.1369  0.1328
 1271TIP3    H125448   5.630   4.953   1.949 -0.7563  0.2763 -0.3849
 1271TIP3    H225449   5.682   4.924   1.809 -0.8259  0.2871 -0.4131
 1272TIP3   OH225450   4.502   2.269   8.311 -0.6187  0.1094  0.1517
 1272TIP3    H125451   4.552   2.277   8.230 -0.3034 -0.4241  0.2880
 1272TIP3    H225452   4.411   2.285   8.284 -0.9213 -2.7158 -0.8543
 1273TIP3   OH225453   2.983   5.076   7.306 -0.1665 -0.3469 -0.1201
 1273TIP3    H125454   2.895   5.049   7.335 -0.2012  0.0073  0.1019
 1273TIP3    H225455   3.037   4.998   7.321 -0.3634 -0.4446  0.0933
 1274TIP3   OH225456   3.473   4.121   1.931 -0.6684  0.6014  0.6069
 1274TIP3    H125457   3.452   4.077   1.848  0.1975 -0.1512  0.7627
 1274TIP3    H225458   3.488   4.049   1.993  3.4737  0.9119  0.2308
 1275TIP3   OH225459   5.487   4.435   2.098 -0.2394  0.4255 -0.4573
 1275TIP3    H125460   5.534   4.395   2.025 -1.1721  0.8252 -1.3045
 1275TIP3    H225461   5.506   4.379   2.173  2.2096  0.9916 -0.5631
 1276TIP3   OH225462   1.950   4.219   8.014  0.7320  0.5143  0.0068
 1276TIP3    H125463   1.960   4.154   8.084 -3.2138 -0.3865 -0.0553
 1276TIP3    H225464   1.993   4.298   8.048  3.0223 -1.1989  1.3587
 1277TIP3   OH225465   6.259   2.097   1.788 -0.1263  0.5684 -0.3525
 1277TIP3    H125466   6.346   2.074   1.754  0.6176  1.1350  1.0563
 1277TIP3    H225467   6.263   2.073   1.881 -1.8334 -0.2817 -0.4675
 1278TIP3   OH225468   2.842   6.151   0.452  0.3537 -0.6767  0.5183
 1278TIP3    H125469   2.810   6.134   0.540  0.8772  0.7988  1.0228
 1278TIP3    H225470   2.764   6.143   0.397 -0.1745 -0.6578  1.2484
 1279TIP3   OH225471   6.860   2.197   1.309 -0.0124 -0.0096 -0.1765
 1279TIP3    H125472   6.811   2.214   1.228  1.4685 -0.4269 -1.1882
 1279TIP3    H225473   6.822   2.258   1.372 -0.3370  1.2597 -1.5308
 1280TIP3   OH225474   1.472   6.835   6.203 -0.0719  0.3498 -0.2829
 1280TIP3    H125475   1.450   6.780   6.128 -1.7750 -0.5801  0.8503
 1280TIP3    H225476   1.484   6.923   6.166 -0.9774 -0.0731 -1.6246
 1281TIP3   OH225477   4.408   3.165   1.659 -0.6424 -0.2692  0.7976
 1281TIP3    H125478   4.466   3.118   1.719 -1.9319 -0.4994  1.9042
 1281TIP3    H225479   4.433   3.257   1.667 -0.1005 -0.4224  0.8803
 1282TIP3   OH225480   2.470   4.901   7.679  0.4972  0.3501 -0.9139
 1282TIP3    H125481   2.532   4.881   7.749 -3.3726  1.9737  3.5443
 1282TIP3    H225482   2.501   4.982   7.640  1.6892  0.5770  0.4672
 1283TIP3   OH225483   3.778   0.992   8.451 -0.0463 -0.1956  0.2938
 1283TIP3    H125484   3.771   1.051   8.526  0.8679 -0.3754  0.5354
 1283TIP3    H225485   3.870   0.965   8.451  0.1277  0.3152 -1.2812
 1284TIP3   OH225486   5.780   4.482   0.921 -0.4143  0.2324 -0.2599
 1284TIP3    H125487   5.763   4.465   0.828 -0.9319 -2.0303  0.1855
 1284TIP3    H225488   5.814   4.399   0.954  0.5994  1.2558  1.4120
 1285TIP3   OH225489   5.470   6.143   8.643  0.2039 -0.2616 -0.7006
 1285TIP3    H125490   5.483   6.196   8.564  0.4012  0.4259 -0.2244
 1285TIP3    H225491   5.397   6.086   8.622 -1.0503  1.2801 -0.7064
 1286TIP3   OH225492   4.406   0.052   1.265 -0.4401 -0.3704  0.4071
 1286TIP3    H125493   4.480   0.042   1.205 -0.4717 -0.5252  0.3935
 1286TIP3    H225494   4.336   0.088   1.212  0.6508  3.2716  1.1186
 1287TIP3   OH225495   5.835   1.807   0.764  0.4051 -0.4648 -0.3815
 1287TIP3    H125496   5.797   1.745   0.826 -0.4289 -2.8370 -3.0321
 1287TIP3    H225497   5.760   1.839   0.713  1.1548  0.5651 -0.8806
 1288TIP3   OH225498   5.340   3.610   0.526 -0.9530 -0.0495  0.0572
 1288TIP3    H125499   5.359   3.701   0.503  1.7778 -0.7405 -0.8432
 1288TIP3    H225500   5.265   3.587   0.471 -0.4946  1.1326 -1.1317
 1289TIP3   OH225501   4.562   1.367   7.834  0.0191 -0.1511 -0.1174
 1289TIP3    H125502   4.567   1.316   7.915  0.7570  1.0093  0.5905
 1289TIP3    H225503   4.635   1.429   7.840 -0.1922  0.2569 -1.4695
 1290TIP3   OH225504   1.218   6.458   1.354  0.3153  0.0351 -0.2333
 1290TIP3    H125505   1.188   6.373   1.387  1.7839 -0.0060  1.1280
 1290TIP3    H225506   1.191   6.520   1.422  1.7450  0.2297  0.1892
 1291TIP3   OH225507   1.551   3.348   2.389  0.3507  0.3161 -0.3793
 1291TIP3    H125508   1.557   3.411   2.316 -1.3720  1.6870  0.5891
 1291TIP3    H225509   1.565   3.401   2.467 -1.1154 -0.4819  0.4722
 1292TIP3   OH225510   5.461   6.672   2.333  0.3745 -0.1047 -0.8556
 1292TIP3    H125511   5.551   6.685   2.301  0.9599 -1.9443 -0.1016
 1292TIP3    H225512   5.472   6.621   2.413 -1.3369  0.0251 -0.5098
 1293TIP3   OH225513   0.491   2.096   6.984 -0.7921  0.0084 -0.4835
 1293TIP3    H125514   0.492   2.008   6.946 -2.5815 -0.0823 -0.4019
 1293TIP3    H225515   0.453   2.152   6.915 -1.9715  0.2403  0.3134
 1294TIP3   OH225516   1.329   4.849   1.448  0.0259 -0.4062 -0.6027
 1294TIP3    H125517   1.285   4.772   1.483  0.0062 -0.0047  0.2892
 1294TIP3    H225518   1.360   4.822   1.362 -0.0556 -1.3845 -0.3365
 1295TIP3   OH225519   4.523   0.406   0.129 -0.2837  0.5099  0.1149
 1295TIP3    H125520   4.478   0.356   0.197 -0.9426 -0.6825 -1.1151
 1295TIP3    H225521   4.487   0.494   0.135 -3.0991 -0.4564 -0.9866
 1296TIP3   OH225522   3.758   4.728   8.181 -0.6113  0.0263 -0.5580
 1296TIP3    H125523   3.670   4.764   8.172 -0.8084 -0.2560  0.1524
 1296TIP3    H225524   3.763   4.701   8.273  0.1709 -0.0777 -0.6254
 1297TIP3   OH225525   6.717   1.006   6.421  0.2841  0.6220  0.2100
 1297TIP3    H125526   6.791   1.019   6.362  1.7294  1.0881  2.0542
 1297TIP3    H225527   6.756   0.999   6.508 -1.7969  0.1825  1.1677
 1298TIP3   OH225528   3.611   0.784   0.206  0.2494 -0.2970  0.2219
 1298TIP3    H125529   3.700   0.798   0.174 -0.0835  0.6473 -0.3308
 1298TIP3    H225530   3.577   0.713   0.152  0.6268 -0.5769  0.3515
 1299TIP3   OH225531   5.222   2.359   7.135  0.6207  0.0776  0.0214
 1299TIP3    H125532   5.225   2.312   7.218 -0.0712 -1.4456 -0.7773
 1299TIP3    H225533   5.276   2.306   7.076 -0.2476  0.2359 -0.9277
 1300TIP3   OH225534   4.650   0.739   1.627 -0.8848  0.2052  0.0883
 1300TIP3    H125535   4.710   0.690   1.683  0.6281  1.1765 -0.6336
 1300TIP3    H225536   4.649   0.690   1.545  0.5111  1.2416 -0.5815
 1301TIP3   OH225537   1.993   2.163   7.814 -0.8043 -0.2522  0.2658
 1301TIP3    H125538   1.973   2.109   7.891 -0.0001 -0.3094  0.4406
 1301TIP3    H225539   1.930   2.134   7.748 -0.4861 -1.3083  0.4069
 1302TIP3   OH225540   0.865   6.338   0.567 -0.3064  0.2957  0.4847
 1302TIP3    H125541   0.933   6.292   0.616  0.1413  0.8289  0.3802
 1302TIP3    H225542   0.912   6.379   0.494 -1.0698 -1.1172 -0.8672
 1303TIP3   OH225543   2.342   1.528   0.663  0.5323 -0.2668  0.2576
 1303TIP3    H125544   2.389   1.517   0.580  0.9868 -1.0574  0.6090
 1303TIP3    H225545   2.394   1.591   0.712 -0.2288  0.9129 -0.4039
 1304TIP3   OH225546   1.641   2.356   6.805  0.2938  0.0499  0.8809
 1304TIP3    H125547   1.553   2.346   6.842  1.2895 -0.7135  3.2597
 1304TIP3    H225548   1.653   2.279   6.750 -0.8946  0.7355 -0.4055
 1305TIP3   OH225549   1.587   1.369   7.047 -0.2832  0.5351 -0.3206
 1305TIP3    H125550   1.613   1.443   6.993 -1.5566  1.1288 -0.1508
 1305TIP3    H225551   1.597   1.293   6.990 -2.1496  1.2011 -1.6567
 1306TIP3   OH225552   1.456   3.558   8.632 -0.4698  0.1827 -0.2378
 1306TIP3    H125553   1.404   3.636   8.614 -0.2639  0.6382  1.0451
 1306TIP3    H225554   1.546   3.591   8.641  0.1838 -0.6290 -2.7764
 1307TIP3   OH225555   2.214   1.533   7.366  0.0800  0.1603 -0.2391
 1307TIP3    H125556   2.253   1.620   7.357  0.6291 -0.1625 -1.2097
 1307TIP3    H225557   2.215   1.515   7.460 -1.6812  1.9177  0.1811
 1308TIP3   OH225558   6.150   4.951   1.477 -0.2685  0.2464 -0.3556
 1308TIP3    H125559   6.231   4.947   1.528  0.4345 -2.1917 -1.5233
 1308TIP3    H225560   6.129   5.044   1.473  1.1491  0.7541  1.9981
 1309TIP3   OH225561   1.983   4.531   1.127  0.1154 -0.4395 -0.2200
 1309TIP3    H125562   1.946   4.619   1.133  1.1644 -0.0222  0.5136
 1309TIP3    H225563   1.908   4.475   1.106 -0.3646  0.7660 -1.9060
 1310TIP3   OH225564   2.682   1.574   8.329  0.4648 -0.3700 -0.7439
 1310TIP3    H125565   2.590   1.550   8.317 -0.2553  2.4160 -1.5448
 1310TIP3    H225566   2.709   1.609   8.244  0.9610  2.6080  0.5177
 1311TIP3   OH225567   5.080   1.379   6.274 -0.0979  0.1890 -0.1727
 1311TIP3    H125568   5.153   1.394   6.214 -0.7591 -0.5562 -1.1927
 1311TIP3    H225569   5.109   1.417   6.357  1.6390 -0.5183 -0.4191
 1312TIP3   OH225570   4.112   4.346   8.236 -0.5067 -0.1345  0.5874
 1312TIP3    H125571   4.204   4.351   8.209 -0.4903 -2.2219  0.0789
 1312TIP3    H225572   4.113   4.364   8.329  0.2244  1.2507  0.3337
 1313TIP3   OH225573   2.314   3.316   6.510  1.0227 -0.1843  0.3154
 1313TIP3    H125574   2.301   3.315   6.415 -0.5203  2.0864  0.4119
 1313TIP3    H225575   2.402   3.351   6.523  0.7135  0.8396 -0.2878
 1314TIP3   OH225576   4.863   6.801   1.180  0.3386  0.0204  0.4501
 1314TIP3    H125577   4.957   6.784   1.176  0.2860 -0.0193 -1.0012
 1314TIP3    H225578   4.856   6.887   1.222  0.9276 -0.5856  1.8564
 1315TIP3   OH225579   6.792   4.156   5.950  0.6437  0.8168 -0.7189
 1315TIP3    H125580   6.824   4.183   5.864  1.4650  1.0022 -0.3620
 1315TIP3    H225581   6.849   4.083   5.975 -1.9269 -1.8367 -1.9621
 1316TIP3   OH225582   3.574   0.343   1.001  0.7308  0.0900 -0.3680
 1316TIP3    H125583   3.645   0.393   0.961  0.8540  0.6550  0.5238
 1316TIP3    H225584   3.499   0.356   0.943  0.7180  1.4423 -0.0767
 1317TIP3   OH225585   3.010   1.737   0.542 -0.6085 -0.5574 -0.2404
 1317TIP3    H125586   2.955   1.685   0.602 -1.4923  2.0824  1.4386
 1317TIP3    H225587   2.958   1.816   0.525  1.0188  0.2206 -1.9283
 1318TIP3   OH225588   1.289   3.664   7.877 -1.2587  0.0467  0.0797
 1318TIP3    H125589   1.270   3.757   7.892  0.6246  0.5462 -0.3047
 1318TIP3    H225590   1.224   3.636   7.813 -0.7605  1.6153 -1.1820
 1319TIP3   OH225591   1.700   6.540   1.100 -0.0293  0.8920 -0.0844
 1319TIP3    H125592   1.676   6.499   1.183 -1.5642 -2.8175 -2.1594
 1319TIP3    H225593   1.643   6.617   1.094 -1.4592  0.0062  1.3637
 1320TIP3   OH225594   3.997   4.260   1.422  0.4434 -0.1531  0.8911
 1320TIP3    H125595   3.998   4.172   1.459 -2.0780 -0.7825 -0.3097
 1320TIP3    H225596   3.925   4.305   1.467  2.2190  1.6363  2.0912
 1321TIP3   OH225597   1.166   1.657   7.156 -0.1784 -0.1764 -0.0489
 1321TIP3    H125598   1.178   1.750   7.175  0.3190 -0.6252  2.1182
 1321TIP3    H225599   1.084   1.653   7.107 -1.2680  1.2334  1.5576
 1322TIP3   OH225600   4.189   6.597   7.842  0.0874  0.0418  0.0814
 1322TIP3    H125601   4.182   6.584   7.936  1.3955  1.8742  0.4747
 1322TIP3    H225602   4.256   6.664   7.831 -0.7315  0.6008 -2.1198
 1323TIP3   OH225603   1.698   5.765   8.434  0.0377  0.3135 -0.2767
 1323TIP3    H125604   1.684   5.814   8.353 -1.2313  0.7355  0.1782
 1323TIP3    H225605   1.791   5.741   8.431  0.6460  2.4227 -0.7068
 1324TIP3   OH225606   5.584   2.495   7.887  0.0775 -0.1077  0.5496
 1324TIP3    H125607   5.553   2.404   7.882  0.8185 -0.3555  0.3244
 1324TIP3    H225608   5.567   2.521   7.977  2.5358 -1.4799  1.5166
 1325TIP3   OH225609   6.729   1.259   0.133 -0.1871 -0.0171 -0.4583
 1325TIP3    H125610   6.693   1.345   0.155 -0.8444 -0.4015 -0.0166
 1325TIP3    H225611   6.695   1.200   0.200  0.2506 -0.6329 -0.7614
 1326TIP3   OH225612   0.798   2.368   8.463  0.4234  0.1430 -0.0842
 1326TIP3    H125613   0.858   2.354   8.390  0.4675 -0.9956  0.1483
 1326TIP3    H225614   0.782   2.280   8.499 -0.5303  0.5427  0.5337
 1327TIP3   OH225615   2.933   6.676   5.917  0.1016 -0.6017  0.0906
 1327TIP3    H125616   2.992   6.618   5.868  0.8612 -0.5767  0.9460
 1327TIP3    H225617   2.958   6.663   6.009 -0.4208  0.3195  0.3714
 1328TIP3   OH225618   3.661   3.702   0.247  0.4214  0.1968  0.0924
 1328TIP3    H125619   3.568   3.703   0.224  0.3477  0.4611  0.3880
 1328TIP3    H225620   3.674   3.784   0.295  1.1849  0.9756 -1.3710
 1329TIP3   OH225621   6.291   2.771   7.072 -0.7241  0.5922 -0.0911
 1329TIP3    H125622   6.226   2.751   7.140 -0.8836  0.5984 -0.2395
 1329TIP3    H225623   6.374   2.742   7.108 -1.2850 -3.4979 -1.5317
 1330TIP3   OH225624   3.798   2.827   8.286  0.1626  0.1611  0.2390
 1330TIP3    H125625   3.834   2.760   8.344  1.7172  0.0189 -0.8262
 1330TIP3    H225626   3.725   2.783   8.241  0.4299 -0.4543  0.4015
 1331TIP3   OH225627   1.434   6.786   7.155 -0.2396 -0.3107 -0.6656
 1331TIP3    H125628   1.482   6.825   7.228 -2.5391 -0.3162  0.9142
 1331TIP3    H225629   1.473   6.699   7.144  0.3606 -0.1786  0.3172
 1332TIP3   OH225630   0.381   6.220   1.107  0.1501  1.1915  0.5046
 1332TIP3    H125631   0.294   6.257   1.092 -0.0844  0.3206 -0.3754
 1332TIP3    H225632   0.407   6.184   1.023  0.5206 -0.3131  1.2339
 1333TIP3   OH225633   5.750   4.047   1.445  0.4654 -0.2702  0.2531
 1333TIP3    H125634   5.752   4.140   1.421 -0.8600 -0.2727  0.0737
 1333TIP3    H225635   5.841   4.018   1.434  1.1837  1.2961  1.5288
 1334TIP3   OH225636   4.984   2.666   0.676  0.0109  0.0978 -0.2161
 1334TIP3    H125637   4.981   2.597   0.610  1.8350 -0.4633  0.2157
 1334TIP3    H225638   4.999   2.746   0.626  0.2410 -0.1602 -0.5640
 1335TIP3   OH225639   6.730   2.297   1.096 -0.2918 -0.5299  0.2806
 1335TIP3    H125640   6.722   2.392   1.108  1.2523 -0.5829  2.4813
 1335TIP3    H225641   6.647   2.263   1.128 -0.6462  0.0526  0.0072
 1336TIP3   OH225642   5.973   0.154   0.646 -0.1104  0.1021  0.3242
 1336TIP3    H125643   5.924   0.124   0.569  0.2276 -0.9066  0.4937
 1336TIP3    H225644   5.978   0.078   0.703  1.4183  0.2526  0.4376
 1337TIP3   OH225645   3.094   0.873   0.067  0.1036  0.4325  0.2790
 1337TIP3    H125646   3.180   0.909   0.047 -0.5501  0.9259 -1.9772
 1337TIP3    H225647   3.079   0.808  -0.002 -1.4291  0.5693  0.4447
 1338TIP3   OH225648   2.340   1.069   0.892  0.0721  0.3166  0.5757
 1338TIP3    H125649   2.380   1.150   0.923  1.8485 -0.1795 -0.2327
 1338TIP3    H225650   2.295   1.093   0.811 -0.2335  0.6726  0.8525
 1339TIP3   OH225651   4.710   3.068   8.413 -0.2256  0.1701  0.2240
 1339TIP3    H125652   4.790   3.063   8.361 -0.2496  1.2706  0.0546
 1339TIP3    H225653   4.641   3.091   8.351 -0.0977  2.4295  0.8112
 1340TIP3   OH225654   6.384   1.209   0.324  0.1477  0.4772  0.0984
 1340TIP3    H125655   6.472   1.176   0.306  0.3508  1.5998 -1.1752
 1340TIP3    H225656   6.397   1.278   0.389  0.0364 -0.1999  0.8530
 1341TIP3   OH225657   2.711   0.403   7.091 -0.3972 -0.1546  0.0537
 1341TIP3    H125658   2.692   0.363   7.006 -0.1395  1.3849 -0.7534
 1341TIP3    H225659   2.626   0.407   7.135 -0.6323 -0.4014 -0.3767
 1342TIP3   OH225660   1.661   4.454   2.053 -0.0886 -0.2539  0.4987
 1342TIP3    H125661   1.623   4.423   1.970 -2.3424 -0.8292  1.6563
 1342TIP3    H225662   1.714   4.529   2.029  0.0809 -0.9768 -1.5754
 1343TIP3   OH225663   2.636   1.869   0.193  0.2443  0.1772  0.3317
 1343TIP3    H125664   2.718   1.848   0.150  0.7033  0.2155  1.1668
 1343TIP3    H225665   2.571   1.868   0.123  0.8411 -0.5132 -0.2275
 1344TIP3   OH225666   1.294   4.641   7.253  0.3696  0.9476  0.1611
 1344TIP3    H125667   1.316   4.581   7.325 -0.8849  0.0438 -0.1652
 1344TIP3    H225668   1.374   4.646   7.200 -0.0830 -2.3413 -1.0821
 1345TIP3   OH225669   3.051   6.428   7.334  0.4018 -0.5442  0.4271
 1345TIP3    H125670   3.039   6.366   7.262  0.5932 -0.3607  0.2396
 1345TIP3    H225671   3.029   6.513   7.297 -0.7391 -0.6039  0.9201
 1346TIP3   OH225672   0.316   1.991   8.319  0.3820  0.0702 -0.3521
 1346TIP3    H125673   0.234   2.001   8.366  1.0276 -0.1285  0.8512
 1346TIP3    H225674   0.332   2.076   8.278  0.2403  0.5272  0.5206
 1347TIP3   OH225675   4.021   3.605   0.872 -0.1637  0.3871  0.7523
 1347TIP3    H125676   3.998   3.513   0.861  0.8323  0.2769 -0.6804
 1347TIP3    H225677   3.940   3.653   0.854 -0.1280 -0.1246 -0.9423
 1348TIP3   OH225678   2.769   4.023   0.725  0.4931  0.7817  0.1531
 1348TIP3    H125679   2.860   4.008   0.702  0.3488  1.4108 -0.8866
 1348TIP3    H225680   2.720   3.955   0.680  0.4455  0.3778  0.7968
 1349TIP3   OH225681   0.576   2.094   0.139 -0.0611 -0.3700  0.0135
 1349TIP3    H125682   0.497   2.075   0.089 -0.1576  1.5358 -0.6321
 1349TIP3    H225683   0.571   2.188   0.157  0.9441 -0.6331  1.9412
 1350TIP3   OH225684   2.900   4.759   1.599 -0.5668 -0.5125 -0.6103
 1350TIP3    H125685   2.906   4.774   1.505  1.1971  0.9065 -0.3201
 1350TIP3    H225686   2.991   4.752   1.629 -1.0330  0.1144  1.1264
 1351TIP3   OH225687   1.432   4.834   8.521  0.3080  0.0364  0.3602
 1351TIP3    H125688   1.468   4.892   8.453  1.0759 -0.4192  0.3720
 1351TIP3    H225689   1.352   4.879   8.550  1.9198  2.1609  1.8153
 1352TIP3   OH225690   5.933   4.171   2.371  0.2605  0.3120  0.2701
 1352TIP3    H125691   6.000   4.229   2.407  0.4233 -0.0159  0.5055
 1352TIP3    H225692   5.928   4.099   2.434  0.2898 -0.0900 -0.1846
 1353TIP3   OH225693   2.751   2.633   0.844 -0.0336 -0.4782  0.8729
 1353TIP3    H125694   2.815   2.631   0.915  1.0124 -1.0747 -0.0486
 1353TIP3    H225695   2.728   2.725   0.834  0.5363 -0.2795  1.3568
 1354TIP3   OH225696   2.711   0.074   0.607 -0.4407 -0.1424 -0.4200
 1354TIP3    H125697   2.653  -0.000   0.594 -1.6569  0.1082  2.7839
 1354TIP3    H225698   2.689   0.134   0.536 -2.8819 -0.8168 -0.3331
 1355TIP3   OH225699   3.078   3.629   6.577  0.7499 -0.1553 -0.1287
 1355TIP3    H125700   3.086   3.545   6.532 -0.5451 -1.3627  1.7610
 1355TIP3    H225701   3.155   3.632   6.635  0.7306 -0.0878 -0.1063
 1356TIP3   OH225702   0.436   3.120   1.077  0.3454 -0.0426 -0.3580
 1356TIP3    H125703   0.382   3.046   1.052  0.8483 -0.1949 -1.0196
 1356TIP3    H225704   0.444   3.114   1.172 -0.7291 -0.0596 -0.2631
 1357TIP3   OH225705   5.623   0.478   0.931  0.6066  0.0900  0.0139
 1357TIP3    H125706   5.659   0.390   0.920 -2.2726 -1.0127 -1.4800
 1357TIP3    H225707   5.537   0.465   0.970  0.7443  2.4151  1.2612
 1358TIP3   OH225708   3.468   3.904   2.195 -0.1186 -0.5437  0.4142
 1358TIP3    H125709   3.414   3.825   2.201  3.0858 -2.8483  2.3879
 1358TIP3    H225710   3.447   3.954   2.274  0.0861 -1.0726  0.8107
 1359TIP3   OH225711   5.337   4.491   7.688 -0.5669  0.7588  0.0849
 1359TIP3    H125712   5.319   4.535   7.605 -2.7546  0.6811  0.4613
 1359TIP3    H225713   5.313   4.556   7.755  0.3818  0.5299  0.6648
 1360TIP3   OH225714   2.883   4.122   6.842  0.2208  0.3460  0.2843
 1360TIP3    H125715   2.942   4.113   6.917  1.4508  0.0579 -0.6808
 1360TIP3    H225716   2.796   4.130   6.880  0.9736  1.8954  1.7991
 1361TIP3   OH225717   0.142   3.613   7.446  0.0515  0.3452  0.3275
 1361TIP3    H125718   0.155   3.636   7.538 -1.7888 -0.3568  0.8161
 1361TIP3    H225719   0.100   3.527   7.449  2.6918 -1.1308 -1.2775
 1362TIP3   OH225720   5.680   3.882   0.400  0.5073  0.0558 -0.2352
 1362TIP3    H125721   5.704   3.830   0.477  0.1501  0.0914 -0.0965
 1362TIP3    H225722   5.745   3.952   0.398  1.3707 -0.7298 -0.7822
 1363TIP3   OH225723   4.683   4.722   2.245 -0.2075  0.4407 -0.2524
 1363TIP3    H125724   4.759   4.677   2.210 -0.3115 -0.7526  0.9689
 1363TIP3    H225725   4.626   4.735   2.169  0.0050 -1.1521 -0.7329
 1364TIP3   OH225726   0.322   6.347   2.287 -0.4308 -0.4738  0.1563
 1364TIP3    H125727   0.374   6.426   2.271 -1.7108  0.5078  0.6524
 1364TIP3    H225728   0.383   6.286   2.327  0.5836  0.2873 -0.1908
 1365TIP3   OH225729   4.960   3.453   0.149  0.2027  0.1920  0.3680
 1365TIP3    H125730   4.865   3.469   0.147  0.3164  1.2223 -3.1627
 1365TIP3    H225731   4.998   3.540   0.136  1.6502 -0.2947  1.1963
 1366TIP3   OH225732   5.238   3.186   6.296  0.2404 -0.0160  0.0910
 1366TIP3    H125733   5.283   3.268   6.273  0.7831 -0.0508  0.9776
 1366TIP3    H225734   5.296   3.144   6.360  0.9478 -2.0559 -1.7544
 1367TIP3   OH225735   4.199   1.704   8.120 -0.3089  0.3753  0.1639
 1367TIP3    H125736   4.227   1.754   8.043  1.5708 -1.6060 -0.5537
 1367TIP3    H225737   4.123   1.654   8.091  1.3067 -1.5523 -1.0109
 1368TIP3   OH225738   4.604   3.694   0.010  0.3150  0.3339 -0.0534
 1368TIP3    H125739   4.609   3.773  -0.044  2.0166  0.1176 -0.2584
 1368TIP3    H225740   4.593   3.727   0.100 -6.0207  0.7381 -0.4748
 1369TIP3   OH225741   1.333   1.816   0.735  0.8922 -0.1262 -0.1486
 1369TIP3    H125742   1.380   1.863   0.803  0.3472  0.8400 -0.4240
 1369TIP3    H225743   1.353   1.864   0.654 -1.0896  0.7441 -0.1717
 1370TIP3   OH225744   2.416   5.467   7.132  0.1538  0.8128  0.0266
 1370TIP3    H125745   2.441   5.410   7.060 -2.9169  2.8691 -2.9784
 1370TIP3    H225746   2.438   5.555   7.101 -1.3111  1.7794  1.5807
 1371TIP3   OH225747   5.035   4.914   1.122  0.8555 -0.1226 -0.2127
 1371TIP3    H125748   5.069   5.003   1.110  1.3092 -0.3071 -0.3219
 1371TIP3    H225749   5.081   4.881   1.199 -0.4159  0.2636  0.7493
 1372TIP3   OH225750   5.175   1.806   2.317 -0.3539  0.3429 -0.4146
 1372TIP3    H125751   5.105   1.871   2.326  1.0549  2.0684 -1.2766
 1372TIP3    H225752   5.133   1.732   2.272 -2.1599  0.3098  1.1947
 1373TIP3   OH225753   0.231   1.896   2.375  0.0673 -0.4590  0.2582
 1373TIP3    H125754   0.220   1.973   2.431 -0.9424 -1.3826  1.3487
 1373TIP3    H225755   0.319   1.865   2.395  0.9286  0.9972 -0.9881
 1374TIP3   OH225756   0.545   5.736   0.103 -0.2187  0.1092 -0.7495
 1374TIP3    H125757   0.607   5.789   0.051 -0.1969  1.6600  0.7556
 1374TIP3    H225758   0.471   5.795   0.117 -0.1094 -0.1732  1.1441
 1375TIP3   OH225759   3.255   0.316   1.041  1.4613  0.5709 -0.2425
 1375TIP3    H125760   3.278   0.225   1.054 -1.0471 -0.0943  0.0986
 1375TIP3    H225761   3.230   0.348   1.127 -1.3193  0.3913 -0.8874
 1376TIP3   OH225762   0.871   5.892   1.560  0.4398 -0.0273  0.5878
 1376TIP3    H125763   0.809   5.963   1.545  1.0024  0.3352 -0.0975
 1376TIP3    H225764   0.832   5.840   1.631  0.1064  1.0665  1.2311
 1377TIP3   OH225765   5.893   5.743   1.825  0.2290 -0.2453  0.1994
 1377TIP3    H125766   5.909   5.757   1.919  1.4396  1.9383 -0.2666
 1377TIP3    H225767   5.818   5.683   1.822  0.2289 -0.4492  2.5529
 1378TIP3   OH225768   0.911   5.812   8.311 -0.2035  0.0342  0.1220
 1378TIP3    H125769   0.927   5.731   8.360 -0.8359 -0.1956 -0.0492
 1378TIP3    H225770   0.816   5.818   8.305 -0.1346 -0.0136 -1.2008
 1379TIP3   OH225771   2.567   3.170   0.424  0.1086 -0.4542  0.8044
 1379TIP3    H125772   2.578   3.202   0.513 -3.4715 -0.8203  1.5134
 1379TIP3    H225773   2.516   3.090   0.432 -2.0311  0.5151 -1.5924
 1380TIP3   OH225774   1.470   3.804   1.203  0.0721 -0.0306 -0.0725
 1380TIP3    H125775   1.379   3.801   1.233 -0.3241 -2.3679 -1.2920
 1380TIP3    H225776   1.469   3.867   1.130 -0.0430  1.6153  1.2728
 1381TIP3   OH225777   2.337   3.211   7.465 -0.2125  0.0045  0.6060
 1381TIP3    H125778   2.427   3.239   7.447 -1.1769  3.2218  0.3241
 1381TIP3    H225779   2.312   3.260   7.544 -1.4404 -1.5816  1.2589
 1382TIP3   OH225780   4.403   6.611   1.336 -0.1084 -0.4235  0.3879
 1382TIP3    H125781   4.397   6.641   1.426  1.7620 -0.2035  0.4849
 1382TIP3    H225782   4.451   6.681   1.291 -0.4263 -0.8362 -0.6149
 1383TIP3   OH225783   2.062   6.505   0.520 -0.2863  0.2595  0.0731
 1383TIP3    H125784   1.977   6.507   0.476 -0.0095  1.0573 -0.4511
 1383TIP3    H225785   2.104   6.425   0.488 -1.2779 -0.7785  1.2307
 1384TIP3   OH225786   2.265   5.516   1.802  0.0639 -0.3136  0.0304
 1384TIP3    H125787   2.207   5.531   1.876 -0.1554  2.1950 -0.5459
 1384TIP3    H225788   2.336   5.580   1.814  1.6090 -1.8733 -0.3929
 1385TIP3   OH225789   4.192   4.862   6.822  0.0254  0.3500 -0.2278
 1385TIP3    H125790   4.244   4.888   6.898 -0.5709  3.9547 -0.8703
 1385TIP3    H225791   4.256   4.828   6.759  0.8738 -0.1435  0.8745
 1386TIP3   OH225792   1.549   1.742   5.955 -0.0915  0.4372 -0.0889
 1386TIP3    H125793   1.518   1.707   6.039  0.2781 -0.6407 -0.3830
 1386TIP3    H225794   1.486   1.708   5.891  0.2928  0.2774 -0.3859
 1387TIP3   OH225795   3.715   3.210   7.477 -0.0141  0.1042  0.1427
 1387TIP3    H125796   3.687   3.285   7.529  0.8775 -0.2130  1.1269
 1387TIP3    H225797   3.636   3.180   7.433 -0.8551  0.2677  1.4728
 1388TIP3   OH225798   5.434   0.895   7.896  0.5414  0.4827 -0.0423
 1388TIP3    H125799   5.426   0.813   7.944  0.6844  0.1274 -0.6180
 1388TIP3    H225800   5.526   0.920   7.904  0.7629 -0.0468 -0.8869
 1389TIP3   OH225801   0.281   1.689   0.024 -0.5724 -0.2943  0.1429
 1389TIP3    H125802   0.212   1.622   0.020 -0.0620 -1.0936  2.8005
 1389TIP3    H225803   0.351   1.648   0.075  1.7627  0.6610 -2.0890
 1390TIP3   OH225804   1.915   2.033   6.575 -0.2770  0.4649  0.6808
 1390TIP3    H125805   1.961   1.975   6.515  3.1373  1.3061  2.2125
 1390TIP3    H225806   1.866   1.974   6.632 -2.0310 -0.4341 -1.5885
 1391TIP3   OH225807   3.220   6.225   7.679 -0.2373 -0.2357 -0.5176
 1391TIP3    H125808   3.140   6.229   7.625 -0.0945 -1.0993 -0.8064
 1391TIP3    H225809   3.189   6.239   7.768 -0.8922 -1.6218 -0.4892
 1392TIP3   OH225810   0.375   2.428   1.307 -0.5335  0.5749 -0.3353
 1392TIP3    H125811   0.312   2.358   1.292  0.5325 -0.8660  1.4533
 1392TIP3    H225812   0.457   2.395   1.268 -0.5794  1.9691 -1.7202
 1393TIP3   OH225813   3.044   1.373   0.331 -0.0710 -0.2313 -0.2913
 1393TIP3    H125814   3.076   1.284   0.316  1.0470  0.1897 -0.5209
 1393TIP3    H225815   3.029   1.377   0.426  1.2290 -0.2527 -0.0657
 1394TIP3   OH225816   2.957   3.206   0.783  0.0342  0.5214  0.5088
 1394TIP3    H125817   3.043   3.247   0.791  0.1990  0.1447  0.6777
 1394TIP3    H225818   2.902   3.273   0.741 -0.3458  1.8339  2.9116
 1395TIP3   OH225819   0.257   2.331   7.035 -0.3243  0.4450  0.4309
 1395TIP3    H125820   0.289   2.298   6.951 -0.9631  0.6554  0.0984
 1395TIP3    H225821   0.178   2.279   7.052  1.2650 -1.5690  2.2635
 1396TIP3   OH225822   3.879   0.786   0.110 -0.2840 -0.3062 -0.2504
 1396TIP3    H125823   3.948   0.843   0.078  0.2312 -0.4969  0.4985
 1396TIP3    H225824   3.883   0.794   0.205 -0.7997 -0.9000 -0.1681
 1397TIP3   OH225825   0.172   0.552   7.000 -0.4298  0.1964  0.7198
 1397TIP3    H125826   0.104   0.491   7.028 -0.3686 -0.3911 -0.3758
 1397TIP3    H225827   0.253   0.517   7.038 -0.4653 -0.1478  0.4797
 1398TIP3   OH225828   0.823   0.638   7.140  0.2637 -0.1426  0.0349
 1398TIP3    H125829   0.870   0.591   7.072 -0.5306 -1.0976  0.1363
 1398TIP3    H225830   0.737   0.596   7.145 -0.7408  1.7540 -0.3477
 1399TIP3   OH225831   6.079   5.244   1.632  0.0604 -0.0207  0.2485
 1399TIP3    H125832   6.071   5.282   1.544 -0.7043 -0.1086  0.2712
 1399TIP3    H225833   5.990   5.215   1.653  0.8609 -3.5719 -0.5703
 1400TIP3   OH225834   4.970   0.716   1.514 -0.3714 -0.4299  0.5875
 1400TIP3    H125835   4.907   0.761   1.571  0.0314  0.8134  0.0832
 1400TIP3    H225836   4.979   0.628   1.552  0.5242  0.6167  2.9732
 1401TIP3   OH225837   2.453   1.888   1.783 -0.5845  0.2169 -0.3949
 1401TIP3    H125838   2.386   1.956   1.778 -1.1228 -0.3863 -1.8007
 1401TIP3    H225839   2.536   1.935   1.774 -0.2201  1.6748  5.8873
 1402TIP3   OH225840   1.634   1.977   2.244 -0.3503 -0.1754  0.1512
 1402TIP3    H125841   1.675   2.052   2.200 -0.3075  0.7137  1.6305
 1402TIP3    H225842   1.695   1.905   2.230 -1.2997 -0.5067 -2.9457
 1403TIP3   OH225843   1.924   2.095   1.536  0.7222  0.2395 -0.1920
 1403TIP3    H125844   2.013   2.097   1.571  0.5880  0.3963  0.1477
 1403TIP3    H225845   1.933   2.054   1.450  1.0299 -0.3697  0.1180
 1404TIP3   OH225846   4.872   1.512   0.248 -0.3753 -0.3357 -0.2225
 1404TIP3    H125847   4.874   1.605   0.268 -1.2245 -0.5752  1.0990
 1404TIP3    H225848   4.958   1.494   0.208  0.7781  0.5396  1.7277
 1405TIP3   OH225849   2.444   2.228   6.940 -0.6416  0.6603 -0.2606
 1405TIP3    H125850   2.408   2.214   6.852  1.4929 -0.1910 -1.0656
 1405TIP3    H225851   2.537   2.246   6.925 -0.0527 -0.3284  1.8619
 1406TIP3   OH225852   0.281   4.760   8.053 -0.3424 -0.3526  0.2163
 1406TIP3    H125853   0.298   4.832   8.115  0.3728  0.3422 -0.7526
 1406TIP3    H225854   0.189   4.737   8.068 -0.7084  1.0460  0.2641
 1407TIP3   OH225855   5.271   6.411   1.087 -0.8329 -0.6196 -0.2095
 1407TIP3    H125856   5.182   6.448   1.091 -0.1230  1.1519  0.2211
 1407TIP3    H225857   5.293   6.411   0.994 -0.3433  1.4381 -0.1418
 1408TIP3   OH225858   4.173   4.247   2.371  0.8459  0.1859  0.1060
 1408TIP3    H125859   4.206   4.245   2.282  0.0439  0.1008 -0.1916
 1408TIP3    H225860   4.202   4.165   2.410  3.2121  1.2032  0.6818
 1409TIP3   OH225861   2.372   3.384   7.683 -0.4140  0.0525 -0.3620
 1409TIP3    H125862   2.439   3.443   7.649 -0.1212  0.2309  0.4881
 1409TIP3    H225863   2.303   3.442   7.714  0.6280  0.1225  2.1058
 1410TIP3   OH225864   6.102   1.771   0.741 -0.0506  0.0636  0.0125
 1410TIP3    H125865   6.131   1.726   0.661 -0.8061 -1.4750  0.5674
 1410TIP3    H225866   6.008   1.785   0.728 -0.2297 -0.4201  0.7173
 1411TIP3   OH225867   0.886   6.679   2.078 -0.0458  0.0643  0.4022
 1411TIP3    H125868   0.850   6.752   2.129 -0.3002 -0.1754  0.5699
 1411TIP3    H225869   0.979   6.698   2.073 -0.3593  1.3599 -1.1340
 1412TIP3   OH225870   4.297   4.915   1.826  0.1606  0.4066 -0.2065
 1412TIP3    H125871   4.309   4.821   1.836 -1.0141  0.2286 -0.3391
 1412TIP3    H225872   4.386   4.951   1.829  1.2280 -1.1048 -5.0377
 1413TIP3   OH225873   4.103   0.105   7.967 -0.3332  0.4344 -0.0828
 1413TIP3    H125874   4.023   0.097   7.915 -1.3195  1.0790  1.2871
 1413TIP3    H225875   4.081   0.168   8.035  0.6869 -0.8429  1.5022
 1414TIP3   OH225876   1.501   2.836   8.531  0.0363 -0.1164  0.3533
 1414TIP3    H125877   1.563   2.905   8.554  0.2295 -0.0432 -0.3822
 1414TIP3    H225878   1.421   2.883   8.507  0.4129 -0.0997 -0.9184
 1415TIP3   OH225879   2.596   1.618   6.351  0.1370  0.5123  0.4951
 1415TIP3    H125880   2.682   1.605   6.392  0.0472  0.6622  0.7373
 1415TIP3    H225881   2.611   1.605   6.258  0.3544  0.1996  0.5730
 1416TIP3   OH225882   2.543   5.242   8.153  0.3993 -0.0139 -0.1533
 1416TIP3    H125883   2.580   5.286   8.229  2.2582 -0.7315 -0.5910
 1416TIP3    H225884   2.557   5.302   8.080 -0.8696  0.4309 -0.0501
 1417TIP3   OH225885   2.310   5.688   7.721  0.1279 -0.2155 -0.1230
 1417TIP3    H125886   2.324   5.627   7.794  0.3997  0.3429  0.3003
 1417TIP3    H225887   2.222   5.668   7.691 -1.1322  1.4158  2.1861
 1418TIP3   OH225888   2.377   1.014   1.192 -0.1261 -0.1778  0.0566
 1418TIP3    H125889   2.366   1.050   1.104  2.2664  1.0301  0.1434
 1418TIP3    H225890   2.373   0.919   1.180  0.0406 -0.0336 -1.3448
 1419TIP3   OH225891   4.679   2.783   8.255 -0.1860  0.1916 -0.4269
 1419TIP3    H125892   4.745   2.768   8.323 -0.6215  0.3280  0.0326
 1419TIP3    H225893   4.643   2.696   8.237 -0.0222  0.1456 -0.5348
 1420TIP3   OH225894   0.310   6.882   5.992  0.1134  0.2147 -0.5887
 1420TIP3    H125895   0.271   6.867   6.078 -2.0028 -1.2453 -1.7277
 1420TIP3    H225896   0.359   6.964   6.002 -2.0195  1.3661  1.3845
 1421TIP3   OH225897   3.942   6.184   7.236  0.0885 -0.0365 -0.0967
 1421TIP3    H125898   4.009   6.194   7.168  0.5351 -1.6775  0.0544
 1421TIP3    H225899   3.947   6.265   7.287  1.5195  0.1542 -0.4871
 1422TIP3   OH225900   1.768   5.174   6.688  0.2420  0.1655  0.0144
 1422TIP3    H125901   1.713   5.194   6.612 -0.5827 -0.3165  0.4642
 1422TIP3    H225902   1.828   5.106   6.657  1.4914  1.5956 -0.8494
 1423TIP3   OH225903   0.482   6.870   0.675  0.3088  0.7038 -0.2352
 1423TIP3    H125904   0.510   6.868   0.766 -1.0399 -1.7260  0.2210
 1423TIP3    H225905   0.563   6.868   0.624  1.1069 -2.2516  0.9761
 1424TIP3   OH225906   3.107   3.104   0.332 -0.2648 -0.2796 -0.3097
 1424TIP3    H125907   3.021   3.129   0.367  0.4080  0.6947  0.7004
 1424TIP3    H225908   3.160   3.183   0.341  0.7723 -0.8941 -0.8634
 1425TIP3   OH225909   6.266   2.948   1.177  0.0358  0.1788 -0.3043
 1425TIP3    H125910   6.187   3.000   1.163 -0.2439 -0.3230 -0.6346
 1425TIP3    H225911   6.274   2.941   1.273  0.4396  1.3619 -0.2458
 1426TIP3   OH225912   0.179   0.102   7.062  0.0709  0.2083  0.0135
 1426TIP3    H125913   0.184   0.126   7.154 -1.5719  1.2849 -0.1264
 1426TIP3    H225914   0.266   0.069   7.040  0.4070 -0.3143  1.9999
 1427TIP3   OH225915   5.308   4.305   7.864 -0.1295 -0.3162  0.3239
 1427TIP3    H125916   5.309   4.340   7.953 -0.7199 -0.4281  0.3777
 1427TIP3    H225917   5.296   4.383   7.809 -2.4082 -0.4693  0.4936
 1428TIP3   OH225918   1.654   2.328   0.629  0.4408 -0.0236 -0.5618
 1428TIP3    H125919   1.741   2.290   0.619  0.3657 -0.3480 -0.0244
 1428TIP3    H225920   1.598   2.254   0.651 -0.0747  0.1043 -1.4163
 1429TIP3   OH225921   3.097   3.036   0.068 -0.0944 -0.2663  0.0061
 1429TIP3    H125922   3.032   2.965   0.072 -1.2737  0.6776 -1.3690
 1429TIP3    H225923   3.094   3.076   0.155 -1.3290 -0.2759 -0.0136
 1430TIP3   OH225924   2.152   3.082   7.303  0.1234 -0.0009  0.1903
 1430TIP3    H125925   2.200   3.145   7.357  1.2205 -0.0707 -0.6650
 1430TIP3    H225926   2.157   2.999   7.352 -1.0206  0.4554  1.1449
 1431TIP3   OH225927   4.850   5.277   7.351  0.4773 -0.4902  0.0846
 1431TIP3    H125928   4.774   5.305   7.401  0.8931 -1.2010  1.1579
 1431TIP3    H225929   4.873   5.191   7.387  0.8152 -1.0237 -1.3156
 1432TIP3   OH225930   0.300   3.816   1.475 -0.2711 -0.0873  0.0930
 1432TIP3    H125931   0.330   3.735   1.515  1.2522  0.9464  1.1989
 1432TIP3    H225932   0.250   3.860   1.544  1.0841  1.0175  0.4441
 1433TIP3   OH225933   0.682   3.120   7.920 -0.1070  0.1801 -0.4379
 1433TIP3    H125934   0.653   3.209   7.942 -0.9324 -0.3644  0.8099
 1433TIP3    H225935   0.601   3.073   7.902 -0.0117 -1.1334  2.1408
 1434TIP3   OH225936   2.536   3.553   7.112 -0.4434 -0.9514  0.5795
 1434TIP3    H125937   2.476   3.628   7.114  0.9922  0.2472  0.3560
 1434TIP3    H225938   2.487   3.485   7.067 -1.2726  0.3553 -0.5947
 1435TIP3   OH225939   0.180   2.796   2.620 -0.3900 -0.1208  0.2374
 1435TIP3    H125940   0.201   2.738   2.692 -1.3131 -0.8730 -0.0732
 1435TIP3    H225941   0.255   2.790   2.561 -0.2684 -0.6270  0.4413
 1436TIP3   OH225942   1.410   0.197   0.737 -0.7566 -0.0413 -1.3555
 1436TIP3    H125943   1.468   0.233   0.804 -1.2186  0.7878 -1.3816
 1436TIP3    H225944   1.346   0.145   0.787 -0.4566 -0.3130 -1.2539
 1437TIP3   OH225945   0.370   4.394   7.201 -0.2609 -0.2759 -0.7622
 1437TIP3    H125946   0.423   4.403   7.122  0.4451  0.4768 -0.2163
 1437TIP3    H225947   0.431   4.364   7.268 -0.5057  0.6394 -0.1134
 1438TIP3   OH225948   5.092   3.539   1.799 -0.2787 -0.4852  0.1759
 1438TIP3    H125949   5.182   3.533   1.829 -0.5558  0.5847  1.3474
 1438TIP3    H225950   5.069   3.632   1.811 -0.8475 -0.2663 -2.2108
 1439TIP3   OH225951   0.142   1.287   7.064 -0.3352  0.5212  0.1757
 1439TIP3    H125952   0.113   1.288   6.973 -0.8200 -0.3487  0.3022
 1439TIP3    H225953   0.110   1.203   7.098 -1.5044  1.4805  1.5716
 1440TIP3   OH225954   6.034   0.007   8.534 -0.0593 -0.0672 -0.2879
 1440TIP3    H125955   6.110   0.065   8.534  0.3164 -0.5380  0.1734
 1440TIP3    H225956   6.061  -0.066   8.590 -1.5483  0.6598  1.4553
 1441TIP3   OH225957   2.870   5.806   6.951  0.1288  0.0626 -0.5099
 1441TIP3    H125958   2.795   5.785   6.895 -0.0059  0.9161 -0.6719
 1441TIP3    H225959   2.918   5.724   6.959  1.6756  0.4171 -4.1755
 1442TIP3   OH225960   5.249   6.323   8.623 -0.3231  0.0512  0.5673
 1442TIP3    H125961   5.227   6.345   8.714  1.0721 -0.0450  0.9605
 1442TIP3    H225962   5.277   6.232   8.626  0.3967  0.2499  0.1726
 1443TIP3   OH225963   0.721   1.339   0.079 -0.2353  0.6538  0.3331
 1443TIP3    H125964   0.715   1.249   0.111 -1.6792 -0.0266 -1.6598
 1443TIP3    H225965   0.796   1.339   0.020  0.1998  0.9746  0.8696
 1444TIP3   OH225966   0.339   2.260   7.325 -0.1496 -0.6096  0.4780
 1444TIP3    H125967   0.282   2.319   7.275 -0.0064 -1.7341 -1.0652
 1444TIP3    H225968   0.420   2.257   7.275  0.3018 -1.1589  1.2189
 1445TIP3   OH225969   1.387   2.583   8.182 -0.2900  0.1203  0.5370
 1445TIP3    H125970   1.389   2.489   8.167  0.8070 -0.0369  1.5248
 1445TIP3    H225971   1.443   2.596   8.258 -0.2114  1.6100  0.2466
 1446TIP3   OH225972   4.300   1.195   6.598  0.6365  0.3832 -0.4740
 1446TIP3    H125973   4.213   1.182   6.637  0.7824  1.6310  0.3252
 1446TIP3    H225974   4.348   1.116   6.621  0.5263  0.8143  1.4551
 1447TIP3   OH225975   2.018   5.111   0.151 -0.6197 -0.6182  0.0787
 1447TIP3    H125976   1.957   5.169   0.196  0.0320 -0.5219  0.8566
 1447TIP3    H225977   2.099   5.162   0.143 -0.1649 -1.2611  0.4171
 1448TIP3   OH225978   1.797   6.500   1.481 -0.0608  0.2773 -0.7493
 1448TIP3    H125979   1.852   6.526   1.554 -0.6306 -0.0319 -0.2032
 1448TIP3    H225980   1.797   6.577   1.423  0.9618  0.2634 -0.7858
 1449TIP3   OH225981   3.238   3.928   0.060  0.6785 -0.4168  0.1815
 1449TIP3    H125982   3.185   4.007   0.055 -0.6411 -1.3444 -2.0994
 1449TIP3    H225983   3.327   3.957   0.043  0.5903  0.8476  1.7057
 1450TIP3   OH225984   3.058   3.053   6.799 -0.2199 -0.1522  0.1972
 1450TIP3    H125985   2.981   3.110   6.801 -0.4287 -0.2591 -2.1006
 1450TIP3    H225986   3.028   2.970   6.836 -1.0690 -0.0254 -0.1833
 1451TIP3   OH225987   6.071   3.167   6.261  0.0047  0.3585  0.1343
 1451TIP3    H125988   5.999   3.229   6.249 -1.3795 -0.9014  1.5413
 1451TIP3    H225989   6.146   3.221   6.286 -0.1686  1.7799 -2.1325
 1452TIP3   OH225990   5.514   5.696   8.527 -0.1416 -0.7408  0.0843
 1452TIP3    H125991   5.593   5.670   8.479  0.1784  0.8909 -0.3072
 1452TIP3    H225992   5.533   5.672   8.618  1.0283  0.0918  0.0819
 1453TIP3   OH225993   5.519   6.364   6.789 -0.6961  0.1005 -0.2437
 1453TIP3    H125994   5.556   6.313   6.861 -2.5609  0.1186  0.8034
 1453TIP3    H225995   5.579   6.438   6.778  1.8204 -1.9586 -1.4841
 1454TIP3   OH225996   6.346   2.778   7.713  0.3497  0.6777  0.0886
 1454TIP3    H125997   6.292   2.799   7.790 -0.1412  2.1580 -0.6323
 1454TIP3    H225998   6.305   2.699   7.677  0.2563  0.2804  1.0194
 1455TIP3   OH225999   4.453   1.775   7.806  0.0109 -0.2837  0.6684
 1455TIP3    H126000   4.540   1.814   7.802 -0.2802  0.6241  2.5212
 1455TIP3    H226001   4.394   1.848   7.824 -1.5281 -0.4596 -2.7718
 1456TIP3   OH226002   0.886   5.553   0.219  0.3392 -0.0056 -0.1944
 1456TIP3    H126003   0.913   5.634   0.263  1.2354  0.6081 -1.8013
 1456TIP3    H226004   0.958   5.532   0.160 -1.0101 -0.5419 -1.7202
 1457TIP3   OH226005   4.182   0.049   7.479  0.5058  0.0295 -0.1287
 1457TIP3    H126006   4.130  -0.026   7.507 -0.4458  1.7202  3.1897
 1457TIP3    H226007   4.270   0.013   7.463 -0.4312 -2.0719 -0.9060
 1458TIP3   OH226008   3.822   2.959   7.292  0.9154  0.8030 -0.1961
 1458TIP3    H126009   3.853   2.989   7.378  0.5978 -0.0695  0.2319
 1458TIP3    H226010   3.731   2.932   7.308  1.0944 -0.0909 -0.6326
 1459TIP3   OH226011   4.457   5.134   7.240 -0.0125 -0.1961 -0.2539
 1459TIP3    H126012   4.420   5.074   7.304  0.7437 -2.0792 -1.4982
 1459TIP3    H226013   4.520   5.081   7.191 -1.4666  0.7428 -3.4194
 1460TIP3   OH226014   5.810   6.435   0.674 -0.2275  0.6613 -0.1998
 1460TIP3    H126015   5.798   6.405   0.764 -0.0291  3.0020  0.6846
 1460TIP3    H226016   5.861   6.366   0.632  0.5195 -0.0409  1.7586
 1461TIP3   OH226017   6.324   1.910   0.824 -0.1462 -0.0106 -0.2240
 1461TIP3    H126018   6.342   1.851   0.897  1.3346 -0.3541 -0.8204
 1461TIP3    H226019   6.230   1.903   0.810 -0.8528  1.6000  2.9073
 1462TIP3   OH226020   5.028   1.968   0.041  0.7981 -0.0028 -0.8776
 1462TIP3    H126021   5.027   2.005   0.129  0.8644  0.5168 -1.0891
 1462TIP3    H226022   5.108   1.915   0.038  1.2179  0.6252 -0.8842
 1463TIP3   OH226023   3.491   4.976   0.403 -0.5552  0.0221  0.1598
 1463TIP3    H126024   3.517   5.052   0.455  0.1264  0.3006 -0.5792
 1463TIP3    H226025   3.487   4.905   0.467 -0.1558  0.4566  0.6809
 1464TIP3   OH226026   2.978   2.155   0.220  0.1681  0.2266  0.2434
 1464TIP3    H126027   2.983   2.100   0.143  0.8224  0.4478  0.1205
 1464TIP3    H226028   3.025   2.235   0.196 -0.9124  0.9152  0.3551
 1465TIP3   OH226029   4.341   3.100   0.780  0.2740 -0.6387  0.4090
 1465TIP3    H126030   4.269   3.043   0.807 -1.1078  0.0256 -1.6079
 1465TIP3    H226031   4.346   3.166   0.850 -0.5368 -1.1650  0.9834
 1466TIP3   OH226032   6.614   3.487   0.662 -0.3279  0.0594  0.3098
 1466TIP3    H126033   6.665   3.437   0.599 -1.7755  1.8231 -2.4739
 1466TIP3    H226034   6.624   3.578   0.634 -2.2808  0.7732  1.7125
 1467TIP3   OH226035   3.553   4.383   7.340  0.6064 -0.1686  0.2332
 1467TIP3    H126036   3.518   4.424   7.419  1.1901 -0.6265  0.7318
 1467TIP3    H226037   3.491   4.313   7.319  0.7968 -0.4670  0.6621
 1468TIP3   OH226038   0.088   1.877   7.210  0.1405 -0.0416 -0.1508
 1468TIP3    H126039   0.091   1.781   7.204 -0.7044 -0.0210 -1.1544
 1468TIP3    H226040   0.178   1.905   7.194  0.8498 -0.7246  2.2016
 1469TIP3   OH226041   5.046   1.130   1.648 -0.7475  0.3054  0.9200
 1469TIP3    H126042   5.089   1.156   1.730 -0.9061  1.6190  0.6115
 1469TIP3    H226043   5.014   1.213   1.610 -0.1239 -0.1920 -0.7853
 1470TIP3   OH226044   4.364   0.103   0.113  0.0031  0.3794 -0.2981
 1470TIP3    H126045   4.458   0.095   0.102 -0.1593 -0.3482 -1.2941
 1470TIP3    H226046   4.328   0.088   0.026 -1.0626 -0.0047  0.1858
 1471TIP3   OH226047   6.247   3.291   6.857 -0.4537 -0.4947  0.2912
 1471TIP3    H126048   6.229   3.329   6.771 -1.2253 -1.7029 -0.1080
 1471TIP3    H226049   6.261   3.366   6.914 -1.2451  0.3732 -0.6148
 1472TIP3   OH226050   3.253   4.372   8.360 -0.5873 -0.1512  0.2591
 1472TIP3    H126051   3.342   4.336   8.355 -0.7030 -0.6019  1.2191
 1472TIP3    H226052   3.264   4.457   8.403 -0.5573  0.0433 -0.1314
 1473TIP3   OH226053   6.905   6.739   0.132 -0.2743 -0.1620 -0.1538
 1473TIP3    H126054   6.887   6.833   0.135 -0.9594 -0.2904  0.0045
 1473TIP3    H226055   6.824   6.698   0.164  0.5782 -0.7562  1.3460
 1474TIP3   OH226056   0.437   3.290   1.703 -0.6707  0.1000 -0.4601
 1474TIP3    H126057   0.496   3.352   1.745 -1.7135  1.6738 -1.2106
 1474TIP3    H226058   0.351   3.310   1.742 -1.0696 -0.7006 -0.9142
 1475TIP3   OH226059   4.755   6.265   1.123  0.0851 -0.0494  0.5457
 1475TIP3    H126060   4.713   6.314   1.194  1.8544  0.1570  1.5203
 1475TIP3    H226061   4.808   6.200   1.169  2.0972  0.7660 -0.5162
 1476TIP3   OH226062   4.146   1.562   0.252 -0.1481 -0.7287 -0.0282
 1476TIP3    H126063   4.208   1.515   0.308  0.6161  0.5204  0.2125
 1476TIP3    H226064   4.128   1.501   0.181  1.8078 -0.9570 -0.4074
 1477TIP3   OH226065   6.820   4.812   8.614  0.3033 -0.4158  0.1768
 1477TIP3    H126066   6.900   4.821   8.666  0.5811 -0.7943 -0.1826
 1477TIP3    H226067   6.749   4.823   8.677  0.6376 -0.6083  0.5916
 1478TIP3   OH226068   2.082   6.834   0.195 -0.1148  0.3081 -0.6892
 1478TIP3    H126069   2.088   6.789   0.279 -0.7699 -0.0289 -0.8206
 1478TIP3    H226070   2.002   6.887   0.201 -1.0743 -0.9765 -1.6915
 1479TIP3   OH226071   5.574   6.697   0.916 -0.0687  0.4528  0.0230
 1479TIP3    H126072   5.656   6.675   0.961  0.3981 -0.7191 -1.3154
 1479TIP3    H226073   5.601   6.718   0.827 -1.1982  0.4498 -0.3358
 1480TIP3   OH226074   1.030   6.317   0.326 -0.7935 -0.0520 -0.0879
 1480TIP3    H126075   1.096   6.253   0.303  0.5347  1.5025 -0.8142
 1480TIP3    H226076   1.017   6.368   0.245 -0.9411  1.3090  0.7659
 1481TIP3   OH226077   3.674   1.656   1.471 -0.7496 -0.3319  0.0158
 1481TIP3    H126078   3.748   1.596   1.464 -1.0334 -0.7910  0.7872
 1481TIP3    H226079   3.693   1.708   1.550 -0.5654  0.5253 -0.5736
 1482TIP3   OH226080   3.839   1.993   0.493  0.0046  0.4203  1.4458
 1482TIP3    H126081   3.759   1.979   0.441 -0.7563 -1.9024  3.0758
 1482TIP3    H226082   3.909   1.994   0.428 -1.1468  0.3228  0.1430
 1483TIP3   OH226083   0.983   2.263   6.787  0.3287 -0.0985 -0.0466
 1483TIP3    H126084   1.007   2.250   6.879  0.5958 -0.8262 -0.2147
 1483TIP3    H226085   1.005   2.355   6.770 -0.2989  0.2223  0.7809
 1484TIP3   OH226086   2.463   2.952   6.665  0.2526 -0.0435  0.1817
 1484TIP3    H126087   2.377   2.922   6.633 -0.4509  2.3780 -0.3761
 1484TIP3    H226088   2.522   2.880   6.642 -1.7490 -2.3042  1.5819
 1485TIP3   OH226089   2.224   2.261   8.463 -0.0039  0.0084  0.2339
 1485TIP3    H126090   2.214   2.317   8.540 -0.3499 -0.6416  0.6754
 1485TIP3    H226091   2.246   2.175   8.499 -1.8010 -0.7089 -0.2859
 1486TIP3   OH226092   4.119   3.574   2.050  0.8203  0.0025  0.2775
 1486TIP3    H126093   4.127   3.543   1.960  0.6054 -1.7631  0.8265
 1486TIP3    H226094   4.025   3.569   2.069  0.7653  1.0987  0.3746
 1487TIP3   OH226095   0.150   0.031   6.211  0.3322 -0.0290  0.0101
 1487TIP3    H126096   0.064   0.073   6.205 -0.0999 -0.6193  1.6175
 1487TIP3    H226097   0.212   0.101   6.189 -0.3793  1.4366  2.2167
 1488TIP3   OH226098   5.459   4.014   6.299  0.2894 -0.2365  0.0217
 1488TIP3    H126099   5.529   4.056   6.250 -0.4239  2.2033  0.9684
 1488TIP3    H226100   5.382   4.024   6.243  0.3034 -1.3200 -0.2205
 1489TIP3   OH226101   2.235   4.760   0.591  0.5905  0.9771  0.0463
 1489TIP3    H126102   2.280   4.704   0.655 -0.6746 -0.6914 -0.4483
 1489TIP3    H226103   2.236   4.709   0.510 -1.2471  1.3337 -0.2352
 1490TIP3   OH226104   4.879   5.625   0.308 -0.4009 -0.2827 -0.1758
 1490TIP3    H126105   4.814   5.692   0.288 -0.6552 -0.1760  0.9006
 1490TIP3    H226106   4.829   5.544   0.312 -0.3801 -0.2816  0.1289
 1491TIP3   OH226107   2.427   4.129   7.599  0.3580  0.2562  0.4184
 1491TIP3    H126108   2.390   4.126   7.687 -0.0746  0.3696  0.2483
 1491TIP3    H226109   2.520   4.147   7.611  0.6712 -1.5788  0.9257
 1492TIP3   OH226110   6.822   6.232   0.870  0.3855 -0.0770 -0.1959
 1492TIP3    H126111   6.810   6.215   0.963  0.5628  1.4843  0.1275
 1492TIP3    H226112   6.851   6.148   0.835  3.2064 -0.0336  1.6875
 1493TIP3   OH226113   6.700   4.478   1.797  0.3629 -1.1240  0.9137
 1493TIP3    H126114   6.689   4.448   1.887  0.7062 -1.9173  0.6979
 1493TIP3    H226115   6.749   4.408   1.754  0.7769 -0.4525  0.2775
 1494TIP3   OH226116   2.252   5.082   2.045  0.0213  0.2548  0.3868
 1494TIP3    H126117   2.249   4.992   2.076  1.6606 -0.7144 -2.0121
 1494TIP3    H226118   2.335   5.117   2.078 -0.6962  0.9936  1.4740
 1495TIP3   OH226119   2.135   4.190   1.071  0.4289 -0.7848 -0.0852
 1495TIP3    H126120   2.230   4.190   1.057  0.6397 -0.8381  1.2478
 1495TIP3    H226121   2.119   4.266   1.126 -0.6515  0.6813 -2.3122
 1496TIP3   OH226122   4.081   3.140   1.025 -0.8807  0.2330 -0.4636
 1496TIP3    H126123   4.017   3.111   0.959  0.3656  0.5019 -1.8577
 1496TIP3    H226124   4.077   3.236   1.022 -2.0374  0.2513  1.1225
 1497TIP3   OH226125   2.439   2.938   0.474 -0.0116  0.7492  0.7168
 1497TIP3    H126126   2.455   2.846   0.452  0.6505  0.8864  0.6196
 1497TIP3    H226127   2.363   2.962   0.422  0.5841  0.6158 -0.2302
 1498TIP3   OH226128   3.183   4.794   6.857  0.1187 -0.5325 -0.1214
 1498TIP3    H126129   3.092   4.776   6.880 -0.3981  1.6809 -0.2275
 1498TIP3    H226130   3.205   4.728   6.791 -1.1988 -1.4654  0.3353
 1499TIP3   OH226131   1.831   1.935   0.640 -0.4635 -0.2875  0.1083
 1499TIP3    H126132   1.776   1.881   0.696  0.3717 -1.9207 -0.5806
 1499TIP3    H226133   1.792   2.022   0.645 -1.4691 -0.7871  1.7715
 1500TIP3   OH226134   2.899   5.790   6.422  0.3823  0.7643  0.2828
 1500TIP3    H126135   2.888   5.880   6.390  2.3559  0.6139 -0.9792
 1500TIP3    H226136   2.943   5.744   6.350  0.5602 -0.8870  1.3984
 1501TIP3   OH226137   0.871   5.396   0.935 -0.2633 -0.3177 -0.4068
 1501TIP3    H126138   0.936   5.407   0.865 -0.4366  0.6209 -0.4335
 1501TIP3    H226139   0.788   5.383   0.889 -0.3767  0.2958 -0.3797
 1502TIP3   OH226140   0.567   5.533   7.081  0.2574 -0.1371 -0.4013
 1502TIP3    H126141   0.645   5.573   7.119  0.1561 -1.3579  1.1955
 1502TIP3    H226142   0.528   5.603   7.028  0.2182  1.8497  2.0231
 1503TIP3   OH226143   0.127   3.792   0.516 -0.3344  0.0500  0.0626
 1503TIP3    H126144   0.198   3.845   0.551  0.6943 -0.5961 -1.0014
 1503TIP3    H226145   0.118   3.821   0.425  0.0854 -1.4069 -0.4665
 1504TIP3   OH226146   5.542   4.859   6.214  0.0177 -0.1914 -0.0017
 1504TIP3    H126147   5.595   4.909   6.152 -0.7909 -1.2411 -1.6066
 1504TIP3    H226148   5.452   4.888   6.197 -0.1352  0.2178  1.3942
 1505TIP3   OH226149   3.015   1.632   0.272  0.5848 -0.3464  0.1059
 1505TIP3    H126150   3.019   1.679   0.355  1.1729  0.0517 -0.1385
 1505TIP3    H226151   3.006   1.540   0.296 -0.7752 -0.0974  0.5913
 1506TIP3   OH226152   0.473   2.208   7.703 -0.1988 -0.0102 -0.0631
 1506TIP3    H126153   0.471   2.295   7.665 -0.1128 -0.2242 -0.5641
 1506TIP3    H226154   0.444   2.150   7.633  0.5219 -0.4702 -0.0002
 1507TIP3   OH226155   2.519   4.958   0.107  0.1511  0.7477  0.6334
 1507TIP3    H126156   2.601   4.919   0.135  0.1612 -1.3822 -1.9942
 1507TIP3    H226157   2.539   4.998   0.022 -1.4737  0.2879 -0.0067
 1508TIP3   OH226158   2.290   2.376   0.457  0.4135 -0.2269  0.2972
 1508TIP3    H126159   2.236   2.447   0.490 -1.5237 -1.0454 -0.9228
 1508TIP3    H226160   2.242   2.343   0.381  0.4527 -3.7243  1.6009
 1509TIP3   OH226161   2.396   1.795   7.421  0.0654 -0.0944 -0.5079
 1509TIP3    H126162   2.358   1.866   7.473 -0.2883  0.3183 -1.3150
 1509TIP3    H226163   2.470   1.764   7.474 -0.1771  0.4332  0.1580
 1510TIP3   OH226164   4.309   2.007   7.871 -0.6745 -0.1817 -0.3004
 1510TIP3    H126165   4.245   2.003   7.800 -0.0753 -0.9499 -0.8092
 1510TIP3    H226166   4.256   2.022   7.950 -1.8318 -3.4660 -0.2862
 1511TIP3   OH226167   2.575   4.449   0.868  0.3332  0.5969 -0.2523
 1511TIP3    H126168   2.582   4.544   0.862 -1.1564  0.7835  0.5920
 1511TIP3    H226169   2.512   4.434   0.938  1.0120 -1.0287  0.0408
 1512TIP3   OH226170   2.855   3.743   1.477 -0.2920 -0.4757 -0.3518
 1512TIP3    H126171   2.912   3.813   1.509 -0.2431  0.1624 -1.7587
 1512TIP3    H226172   2.795   3.726   1.549  0.8842 -0.3012  0.7081
 1513TIP3   OH226173   6.727   3.882   7.183  0.2972 -0.5659  0.2541
 1513TIP3    H126174   6.814   3.909   7.156 -0.2173 -1.1151 -2.1841
 1513TIP3    H226175   6.692   3.957   7.231  0.3139  1.7742 -3.0647
 1514TIP3   OH226176   1.318   3.225   2.297  0.2796 -0.1906 -0.6399
 1514TIP3    H126177   1.390   3.260   2.350  0.4990 -1.7036  0.1572
 1514TIP3    H226178   1.241   3.232   2.354 -0.0677  0.7247 -1.2026
 1515TIP3   OH226179   3.646   2.197   2.126  0.4744  0.7771  0.7842
 1515TIP3    H126180   3.581   2.252   2.081  1.3934  1.5540  0.3747
 1515TIP3    H226181   3.613   2.108   2.116 -0.2284  1.1028  0.0765
 1516TIP3   OH226182   6.643   1.118   0.366 -0.7190 -0.4059 -0.3103
 1516TIP3    H126183   6.669   1.144   0.455  1.5302 -2.2084 -0.3373
 1516TIP3    H226184   6.608   1.030   0.376 -0.5678 -0.5766 -1.1874
 1517TIP3   OH226185   2.033   0.211   6.929  0.4675 -0.2723 -0.4921
 1517TIP3    H126186   2.007   0.177   6.843  2.0728  0.2052 -1.1936
 1517TIP3    H226187   2.114   0.259   6.913  0.7279 -0.0504  1.2784
 1518TIP3   OH226188   6.321   5.360   8.249 -0.0704  0.3158  0.4277
 1518TIP3    H126189   6.239   5.318   8.276 -0.7917  0.3149 -1.5566
 1518TIP3    H226190   6.390   5.303   8.284 -0.9726 -0.7994  0.4492
 1519TIP3   OH226191   4.339   3.855   1.421  0.0879 -0.2006 -1.0617
 1519TIP3    H126192   4.250   3.840   1.453  0.5249 -1.7590 -0.5121
 1519TIP3    H226193   4.326   3.895   1.334 -1.1364 -0.6357 -1.1041
 1520TIP3   OH226194   2.425   1.815   8.149 -0.0068  0.3168  0.1464
 1520TIP3    H126195   2.443   1.733   8.194 -0.7972  1.1358  2.0723
 1520TIP3    H226196   2.355   1.794   8.087  2.7124 -1.3700 -2.6354
 1521TIP3   OH226197   5.865   5.841   0.379  0.5942 -0.2820 -0.1819
 1521TIP3    H126198   5.791   5.854   0.438  0.0247 -1.0048 -0.6946
 1521TIP3    H226199   5.871   5.922   0.329 -0.5629 -0.5760 -0.8652
 1522TIP3   OH226200   4.217   2.193   8.431  0.2516 -0.4168  0.0652
 1522TIP3    H126201   4.231   2.100   8.418  0.3034 -0.5082  0.7450
 1522TIP3    H226202   4.128   2.199   8.467 -0.4010 -0.0680 -1.5261
 1523TIP3   OH226203   0.595   0.306   7.399 -0.1463  0.1031  0.3799
 1523TIP3    H126204   0.590   0.393   7.439  1.6053 -0.0684  1.0774
 1523TIP3    H226205   0.635   0.322   7.313  0.0965 -0.0024  0.4733
 1524TIP3   OH226206   5.229   1.345   1.838  0.1658  0.0986 -0.0156
 1524TIP3    H126207   5.186   1.349   1.923 -1.0656  1.3502 -0.6491
 1524TIP3    H226208   5.240   1.251   1.821  0.0720 -0.1733  1.3361
 1525TIP3   OH226209   2.168   1.221   2.105  0.0776  0.0149  0.6717
 1525TIP3    H126210   2.205   1.147   2.153 -0.7215 -1.1047 -0.3841
 1525TIP3    H226211   2.083   1.190   2.075 -1.2688  2.1075  2.0350
 1526TIP3   OH226212   5.616   5.635   0.157 -0.4919 -1.6434 -0.2509
 1526TIP3    H126213   5.707   5.651   0.133 -0.6844 -1.8267 -1.1446
 1526TIP3    H226214   5.620   5.586   0.238  0.2445 -2.9158 -1.0375
 1527TIP3   OH226215   0.506   2.483   7.607 -0.1770 -0.3776 -0.0376
 1527TIP3    H126216   0.536   2.564   7.648 -0.0391 -0.0852 -0.7016
 1527TIP3    H226217   0.414   2.500   7.585 -0.0203 -0.2222 -0.5969
 1528TIP3   OH226218   2.629   2.350   1.035  0.4705 -0.2222 -0.2389
 1528TIP3    H126219   2.663   2.432   1.069  1.3352 -1.3644  1.8116
 1528TIP3    H226220   2.706   2.305   1.000 -0.0682 -0.0069 -1.7844
 1529TIP3   OH226221   5.925   0.373   8.089 -0.5535 -0.1563 -0.4198
 1529TIP3    H126222   5.883   0.396   8.172 -0.3685 -1.3109  0.0100
 1529TIP3    H226223   5.991   0.442   8.076 -0.9113  0.3023  0.1371
 1530TIP3   OH226224   2.938   5.285   6.210  0.1682 -0.5060 -0.3552
 1530TIP3    H126225   2.875   5.219   6.182  0.5361 -0.5844 -1.0243
 1530TIP3    H226226   3.018   5.263   6.162  0.5737 -0.1427  0.1450
 1531TIP3   OH226227   6.282   0.868   2.472 -0.0112  0.4129  0.1256
 1531TIP3    H126228   6.236   0.868   2.388  1.1273 -0.9923 -0.5425
 1531TIP3    H226229   6.274   0.779   2.504  1.0873  0.4771  0.6400
 1532TIP3   OH226230   4.251   0.784   1.589  0.2004 -0.6972  0.3731
 1532TIP3    H126231   4.216   0.859   1.541  0.7168  1.1488  2.6722
 1532TIP3    H226232   4.309   0.740   1.527  1.5839  2.0917 -0.4785
 1533TIP3   OH226233   6.446   0.788   0.863  0.0757 -0.0688  0.5495
 1533TIP3    H126234   6.414   0.762   0.777 -0.1351  0.4149  0.4796
 1533TIP3    H226235   6.388   0.859   0.890  0.2962 -0.0484  0.9832
 1534TIP3   OH226236   2.484   6.806   0.557 -0.4148  0.3234 -0.2639
 1534TIP3    H126237   2.416   6.822   0.623  0.3294 -0.0813  0.6284
 1534TIP3    H226238   2.520   6.720   0.581  0.6243  0.6801 -0.5145
 1535TIP3   OH226239   4.750   2.645   0.392  0.0117 -0.1480 -0.4007
 1535TIP3    H126240   4.811   2.583   0.433 -0.0640 -0.3600 -0.6051
 1535TIP3    H226241   4.766   2.636   0.298  0.7699  0.9415 -0.3949
 1536TIP3   OH226242   5.449   4.022   0.315 -0.1937 -0.3614 -0.0098
 1536TIP3    H126243   5.438   3.995   0.223 -1.3129 -0.8901  0.2638
 1536TIP3    H226244   5.537   3.994   0.338  0.6239  0.9809 -1.3182
 1537TIP3   OH226245   0.295   4.910   0.096  0.2495 -0.5855 -0.5405
 1537TIP3    H126246   0.358   4.840   0.111  1.0352  0.1979 -0.1536
 1537TIP3    H226247   0.291   4.957   0.178 -0.3231 -0.1970 -0.7826
 1538TIP3   OH226248   4.217   6.459   0.047 -0.1054  0.1425 -0.0085
 1538TIP3    H126249   4.244   6.388   0.106  0.7877  0.0662 -0.4979
 1538TIP3    H226250   4.291   6.520   0.047 -0.6032  0.7575 -0.0960
 1539TIP3   OH226251   3.643   0.562   6.272  0.1792  0.2956 -0.1309
 1539TIP3    H126252   3.603   0.510   6.203  0.0902 -1.3182  1.0835
 1539TIP3    H226253   3.630   0.653   6.244  0.3807 -0.3009 -2.3247
 1540TIP3   OH226254   0.987   3.143   8.126  0.1703 -0.4045 -0.1775
 1540TIP3    H126255   1.011   3.051   8.125  0.5277 -0.3146 -0.3669
 1540TIP3    H226256   1.038   3.181   8.198 -0.3895 -0.4583  0.2510
 1541TIP3   OH226257   3.995   6.426   7.634  0.0157  0.4954  0.7548
 1541TIP3    H126258   3.925   6.362   7.642 -1.6288  2.1188  0.0984
 1541TIP3    H226259   4.018   6.426   7.542  1.2601 -0.3722  1.0464
 1542TIP3   OH226260   3.350   6.155   0.699 -0.0669 -0.5260 -0.2731
 1542TIP3    H126261   3.352   6.129   0.607  0.5029  1.1003 -0.7599
 1542TIP3    H226262   3.270   6.208   0.707  0.5815  0.4562 -0.1790
 1543TIP3   OH226263   5.954   3.112   0.731 -0.0356 -0.2036 -0.0233
 1543TIP3    H126264   6.036   3.078   0.766  0.1579  0.8852  0.6365
 1543TIP3    H226265   5.946   3.200   0.769 -0.2653  0.6921 -2.0032
 1544TIP3   OH226266   1.284   1.680   6.892 -0.2478 -0.0897 -0.7718
 1544TIP3    H126267   1.228   1.750   6.859 -0.3053 -0.8060 -2.3116
 1544TIP3    H226268   1.299   1.702   6.984 -0.9930  1.4442 -0.9825
 1545TIP3   OH226269   1.372   0.868   0.627 -0.2781 -0.7529  0.4663
 1545TIP3    H126270   1.371   0.776   0.656 -0.8811 -1.1661 -0.7867
 1545TIP3    H226271   1.415   0.866   0.541 -3.2933 -0.4407 -1.1970
 1546TIP3   OH226272   1.890   6.049   0.066 -0.5236  0.1732 -0.1507
 1546TIP3    H126273   1.900   6.028  -0.027 -0.2255 -0.2499 -0.0248
 1546TIP3    H226274   1.804   6.015   0.089 -0.0452 -0.9279  0.0502
 1547TIP3   OH226275   1.965   4.314   8.439 -0.1972 -0.0400  0.2033
 1547TIP3    H126276   2.055   4.346   8.447 -0.6048  1.1759  0.1974
 1547TIP3    H226277   1.966   4.254   8.364  0.4389  0.6172 -0.3205
 1548TIP3   OH226278   3.317   3.703   6.805 -0.0780  0.3225 -0.0477
 1548TIP3    H126279   3.315   3.615   6.841 -1.0444 -0.3690 -1.6443
 1548TIP3    H226280   3.405   3.712   6.768  0.3726  0.4422  1.0241
 1549TIP3   OH226281   5.487   1.709   8.086 -0.8112  0.3746  0.8332
 1549TIP3    H126282   5.535   1.767   8.144 -0.5284 -1.3465  2.4286
 1549TIP3    H226283   5.550   1.684   8.019 -0.8100  1.5007  0.3895
 1550TIP3   OH226284   4.868   0.736   7.213  0.3199 -0.4139 -0.2549
 1550TIP3    H126285   4.860   0.790   7.134  1.7606 -0.8778 -0.7541
 1550TIP3    H226286   4.947   0.770   7.256  0.1001 -0.8210  0.4640
 1551TIP3   OH226287   4.471   2.573   0.245  0.2834 -0.3957  0.4337
 1551TIP3    H126288   4.544   2.626   0.213  0.2891 -0.2427  0.6913
 1551TIP3    H226289   4.422   2.633   0.302 -1.6141  0.3622 -1.8391
 1552TIP3   OH226290   4.295   0.763   1.963 -0.4983  0.0500  0.4072
 1552TIP3    H126291   4.273   0.676   1.997  1.7279 -1.4101 -1.6069
 1552TIP3    H226292   4.299   0.819   2.041 -1.6306 -1.7012  1.8007
 1553TIP3   OH226293   3.734   1.127   7.957 -0.0788 -0.3619 -0.7740
 1553TIP3    H126294   3.801   1.136   7.890 -0.7631 -0.7075 -1.5118
 1553TIP3    H226295   3.708   1.217   7.977  2.1486 -0.0345  1.1522
 1554TIP3   OH226296   3.276   6.244   8.160  0.2422  0.0653  0.4975
 1554TIP3    H126297   3.284   6.289   8.075  0.3198  1.4717  1.2128
 1554TIP3    H226298   3.185   6.258   8.186  0.7187  1.4222  1.5557
 1555TIP3   OH226299   4.518   0.222   0.814  0.0725  0.3419  0.3267
 1555TIP3    H126300   4.526   0.261   0.727 -0.3008 -0.9223 -0.2863
 1555TIP3    H226301   4.437   0.172   0.811  0.4685 -0.3718  1.1474
 1556TIP3   OH226302   4.067   3.454   8.049 -0.4140  0.2746  0.1981
 1556TIP3    H126303   4.076   3.542   8.013  2.8840 -0.3385 -0.7002
 1556TIP3    H226304   4.036   3.401   7.976  0.3627  0.1628 -0.0508
 1557TIP3   OH226305   0.835   3.502   0.306 -0.1702  0.4099 -0.0005
 1557TIP3    H126306   0.877   3.515   0.390 -1.5946 -0.2423  0.8547
 1557TIP3    H226307   0.889   3.437   0.261  2.0007  2.5479 -0.6771
 1558TIP3   OH226308   6.310   5.649   1.113  0.6253 -0.4805  0.3810
 1558TIP3    H126309   6.279   5.567   1.152 -1.0930  0.1957  0.5237
 1558TIP3    H226310   6.236   5.709   1.122  1.6480  0.9256 -0.2409
 1559TIP3   OH226311   0.068   0.770   7.136  0.0733  0.1413  0.9318
 1559TIP3    H126312  -0.006   0.722   7.173 -0.6481  0.4309 -0.0815
 1559TIP3    H226313   0.117   0.705   7.087 -0.1755  0.1849  0.6259
 1560TIP3   OH226314   5.003   2.148   0.537  0.2345  0.1353 -0.0595
 1560TIP3    H126315   4.954   2.138   0.619 -1.6856  3.3136 -0.6553
 1560TIP3    H226316   5.077   2.203   0.560  0.0544  0.4902 -0.3177
 1561TIP3   OH226317   5.584   3.694   0.216  0.2336 -0.8004 -0.2411
 1561TIP3    H126318   5.594   3.735   0.130 -0.8002  0.1016  0.0547
 1561TIP3    H226319   5.600   3.764   0.279  3.3237 -1.9235  0.4311
 1562TIP3   OH226320   3.706   0.423   8.495  0.2227  0.6461 -0.2748
 1562TIP3    H126321   3.765   0.498   8.490  0.4628  0.4544 -0.3305
 1562TIP3    H226322   3.737   0.373   8.571 -1.4543  1.8840  1.3150
 1563TIP3   OH226323   5.937   1.091   1.567 -0.5140 -0.2766  0.1869
 1563TIP3    H126324   5.845   1.118   1.569 -0.4289 -0.0155  0.7947
 1563TIP3    H226325   5.948   1.039   1.647  0.2562  1.0045  0.9480
 1564TIP3   OH226326   1.034   2.000   8.242 -0.6718  0.0772  0.3511
 1564TIP3    H126327   1.067   1.981   8.154  0.4049  0.5878  0.6302
 1564TIP3    H226328   1.036   2.095   8.248  0.5574  0.0174  1.3883
 1565TIP3   OH226329   1.001   2.831   8.191  0.4218  0.3834  0.3139
 1565TIP3    H126330   0.985   2.814   8.283 -3.5782 -0.1174 -0.2944
 1565TIP3    H226331   1.060   2.761   8.163  0.8683 -0.0421  2.2327
 1566TIP3   OH226332   4.219   5.059   1.607 -0.1933 -0.9146  0.2612
 1566TIP3    H126333   4.308   5.051   1.574  0.3869 -0.4944  1.6457
 1566TIP3    H226334   4.223   5.023   1.696 -0.8797  1.0935  1.1550
 1567TIP3   OH226335   3.356   1.278   7.908 -0.0093 -0.0604  0.5218
 1567TIP3    H126336   3.371   1.206   7.848 -0.0991  0.6431 -0.3608
 1567TIP3    H226337   3.443   1.315   7.924  0.0060 -0.2025  0.7742
 1568TIP3   OH226338   3.403   2.914   6.368  0.0371  0.8788  0.3458
 1568TIP3    H126339   3.455   2.843   6.407 -2.6810 -0.5360  1.7616
 1568TIP3    H226340   3.334   2.868   6.321 -0.8631  2.6246 -0.0894
 1569TIP3   OH226341   1.521   3.968   7.337 -0.0827 -0.3052  0.0403
 1569TIP3    H126342   1.591   3.986   7.275 -0.1374  0.6537  0.2338
 1569TIP3    H226343   1.563   3.974   7.423 -0.2304 -0.5534  0.1325
 1570TIP3   OH226344   6.871   4.210   7.814 -0.2420 -0.1768  0.1560
 1570TIP3    H126345   6.901   4.191   7.725  0.3456  2.7998 -0.3887
 1570TIP3    H226346   6.952   4.220   7.864 -0.5710 -1.6089  1.0099
 1571TIP3   OH226347   2.061   2.005   7.419  0.2910  0.0286  0.3519
 1571TIP3    H126348   2.108   1.968   7.344 -1.3669 -0.3116 -0.5628
 1571TIP3    H226349   2.122   2.069   7.455  0.8135  0.9079 -1.8739
 1572TIP3   OH226350   0.750   2.920   8.484 -0.3674  0.3055  0.4481
 1572TIP3    H126351   0.728   2.946   8.395 -1.9119 -1.3079  0.3020
 1572TIP3    H226352   0.842   2.895   8.480  0.1406  2.1086 -0.1983
 1573TIP3   OH226353   1.005   2.537   6.937  0.4975  0.2200  0.1713
 1573TIP3    H126354   1.069   2.543   6.865  1.3166  2.2838  0.9877
 1573TIP3    H226355   1.042   2.472   6.996 -0.0400 -1.2889 -1.0825
 1574TIP3   OH226356   5.784   0.049   8.624  0.0695  0.2166  0.4876
 1574TIP3    H126357   5.857  -0.007   8.597 -0.6465 -1.1417  1.2570
 1574TIP3    H226358   5.761   0.098   8.546  1.4248  0.2540  0.0751
 1575TIP3   OH226359   5.291   3.229   7.116  0.5638  0.0113  0.4638
 1575TIP3    H126360   5.234   3.212   7.040  0.4072 -1.3545  0.8596
 1575TIP3    H226361   5.234   3.269   7.181  0.1062 -1.0493  0.7354
 1576TIP3   OH226362   0.034   2.195   7.102  0.1290  0.3480 -0.0730
 1576TIP3    H126363  -0.045   2.225   7.057 -1.1434  0.3714  2.0052
 1576TIP3    H226364   0.015   2.104   7.125  0.1525  0.6911  1.4675
 1577TIP3   OH226365   0.166   3.800   0.248 -0.0839  0.5783 -0.1398
 1577TIP3    H126366   0.242   3.761   0.292 -1.1251 -2.7828 -1.0143
 1577TIP3    H226367   0.203   3.865   0.189  2.3490 -1.7781 -1.4413
 1578TIP3   OH226368   2.030   0.791   6.549 -0.0759 -0.1844 -0.1529
 1578TIP3    H126369   2.020   0.788   6.644  1.3603 -0.8634  0.0158
 1578TIP3    H226370   1.947   0.761   6.514 -0.6967  0.2868  0.8850
 1579TIP3   OH226371   6.327   2.631   8.149  0.0907  0.3252 -0.4505
 1579TIP3    H126372   6.262   2.670   8.206 -0.1431 -0.1969 -0.3464
 1579TIP3    H226373   6.362   2.704   8.098 -1.4066  0.4759 -1.3368
 1580TIP3   OH226374   4.016   1.775   2.010 -0.4861 -0.5942 -0.4110
 1580TIP3    H126375   4.055   1.768   2.097 -0.6254 -2.7413 -0.4638
 1580TIP3    H226376   4.077   1.728   1.952 -1.3219 -0.8273 -1.1227
 1581TIP3   OH226377   6.420   0.546   7.418 -0.0108  0.1530 -0.3843
 1581TIP3    H126378   6.464   0.630   7.405 -1.5456  1.2596  1.1611
 1581TIP3    H226379   6.388   0.549   7.508 -1.8708 -1.2315 -0.9330
 1582TIP3   OH226380   1.045   4.717   7.170 -0.6683 -0.1507  0.0992
 1582TIP3    H126381   1.134   4.697   7.199 -1.3595 -2.3212  0.9163
 1582TIP3    H226382   1.049   4.715   7.075 -0.1785 -2.1364  0.1239
 1583TIP3   OH226383   3.932   5.995   8.551 -0.3805  0.0916  0.0392
 1583TIP3    H126384   3.980   5.974   8.471 -1.0276  1.5103 -0.7648
 1583TIP3    H226385   3.886   5.914   8.573  0.6374 -0.6373 -0.4100
 1584TIP3   OH226386   0.147   4.043   7.345 -0.9502  0.1079 -0.0139
 1584TIP3    H126387   0.076   3.988   7.311 -2.9726  2.4055  0.2479
 1584TIP3    H226388   0.171   4.100   7.272  0.9331 -0.8505 -0.2039
 1585TIP3   OH226389   2.190   0.381   0.426 -0.1142 -0.2407 -0.2477
 1585TIP3    H126390   2.164   0.334   0.347 -1.0891 -0.9044  0.4626
 1585TIP3    H226391   2.143   0.464   0.421 -1.5257 -0.9769  0.4675
 1586TIP3   OH226392   5.979   4.186   6.972  0.3452  0.4399  0.5017
 1586TIP3    H126393   5.914   4.250   7.000 -1.2474 -1.5037  1.5087
 1586TIP3    H226394   5.967   4.180   6.877 -0.2491  0.8226  0.5501
 1587TIP3   OH226395   3.804   1.568   0.077  0.5023 -0.1013  0.3248
 1587TIP3    H126396   3.718   1.529   0.093  0.7845 -1.2724 -0.8493
 1587TIP3    H226397   3.841   1.581   0.164 -0.6815  0.0261  0.8289
 1588TIP3   OH226398   5.926   0.413   0.571  0.1965 -0.0543 -0.1173
 1588TIP3    H126399   5.939   0.323   0.604  0.6441 -0.0632 -0.3050
 1588TIP3    H226400   5.939   0.405   0.476 -0.8917  0.0077 -0.2852
 1589TIP3   OH226401   3.664   0.285   8.076 -0.3003  0.7615 -0.6242
 1589TIP3    H126402   3.579   0.300   8.036 -0.7055 -0.2302 -0.1828
 1589TIP3    H226403   3.644   0.254   8.164  0.5671  2.4724  0.2223
 1590TIP3   OH226404   4.126   0.137   0.689 -0.6572 -0.0468 -0.2767
 1590TIP3    H126405   4.080   0.087   0.621  0.7915 -1.0638 -0.5597
 1590TIP3    H226406   4.218   0.113   0.678  0.2546  3.1429 -0.8080
 1591TIP3   OH226407   0.434   6.726   7.687 -1.1751 -0.1540  0.2651
 1591TIP3    H126408   0.358   6.669   7.672 -0.2730 -1.3605  0.1257
 1591TIP3    H226409   0.452   6.765   7.602 -1.3756 -0.2035  0.1993
 1592TIP3   OH226410   1.654   2.193   6.569 -0.3722  0.1372 -0.3541
 1592TIP3    H126411   1.627   2.174   6.479 -0.2541  1.6054 -0.7159
 1592TIP3    H226412   1.723   2.129   6.586 -1.2085 -0.9442 -0.8656
 1593TIP3   OH226413   1.571   1.726   0.056 -0.8228 -0.0402 -0.1932
 1593TIP3    H126414   1.660   1.724   0.019 -0.9863 -0.5325 -0.5784
 1593TIP3    H226415   1.579   1.778   0.135  0.5694 -2.8551  1.6811
 1594TIP3   OH226416   5.194   3.485   6.520 -0.4274 -0.4062  0.0814
 1594TIP3    H126417   5.128   3.490   6.451  0.9698  2.2409 -1.2189
 1594TIP3    H226418   5.192   3.571   6.562  0.1344 -1.3017  2.0491
 1595TIP3   OH226419   5.683   1.271   6.353 -0.2959  0.2584  0.2449
 1595TIP3    H126420   5.712   1.198   6.408 -0.2685 -0.1402 -0.2863
 1595TIP3    H226421   5.597   1.245   6.321 -1.3476  1.4927  1.9088
 1596TIP3   OH226422   5.186   6.038   8.591 -0.4277 -0.0793  0.1449
 1596TIP3    H126423   5.173   6.026   8.685  1.0356 -0.6306  0.3046
 1596TIP3    H226424   5.188   5.949   8.555 -0.1727  0.0933 -0.2865
 1597TIP3   OH226425   0.713   1.065   8.027  0.4187  0.3377  0.1034
 1597TIP3    H126426   0.759   1.138   7.985 -0.5638  0.8183 -0.1542
 1597TIP3    H226427   0.643   1.042   7.965 -0.7515  0.7284  1.2405
 1598TIP3   OH226428   2.616   1.351   2.007 -0.5819  0.1983 -0.3620
 1598TIP3    H126429   2.532   1.376   2.045  0.1707 -0.1979  1.6864
 1598TIP3    H226430   2.594   1.285   1.941 -1.9330  0.7609 -0.5033
 1599TIP3   OH226431   6.551   1.866   1.564  0.1109  0.0454  0.1606
 1599TIP3    H126432   6.596   1.793   1.521  1.5390  0.6104  0.6437
 1599TIP3    H226433   6.462   1.833   1.580  0.3840 -1.1645 -0.6751
 1600TIP3   OH226434   2.215   4.978   0.392 -0.3192  0.1900  0.3157
 1600TIP3    H126435   2.201   4.935   0.476  1.3054  1.3073  1.2126
 1600TIP3    H226436   2.298   4.942   0.360 -1.0122 -0.3793 -0.9593
 1601TIP3   OH226437   5.459   1.587   8.409 -0.0216  0.1638 -0.3447
 1601TIP3    H126438   5.371   1.622   8.429 -0.4141 -0.5770 -0.7449
 1601TIP3    H226439   5.445   1.530   8.334  0.5181 -1.2115  0.5718
 1602TIP3   OH226440   3.324   4.945   7.069  0.1535 -0.2109  0.4983
 1602TIP3    H126441   3.285   4.877   7.015  1.2689 -1.2299  0.9094
 1602TIP3    H226442   3.258   5.014   7.074 -0.8821 -1.1280 -0.1959
 1603TIP3   OH226443   1.024   3.169   2.299 -0.3007 -0.3461 -0.3103
 1603TIP3    H126444   1.035   3.246   2.244  0.1382  0.5156  0.9270
 1603TIP3    H226445   0.930   3.155   2.303 -0.3734  0.0270 -0.6854
 1604TIP3   OH226446   2.334   0.167   7.838 -0.3486  0.4768  0.2710
 1604TIP3    H126447   2.352   0.233   7.905 -0.0082 -0.0511  0.7079
 1604TIP3    H226448   2.277   0.104   7.880 -0.2609  0.2236  0.0174
 1605TIP3   OH226449   4.326   5.699   7.571 -0.0025  0.1261 -0.4165
 1605TIP3    H126450   4.311   5.660   7.658 -0.0383  3.1980  1.0905
 1605TIP3    H226451   4.337   5.624   7.513 -0.5238 -2.0868  2.1278
 1606TIP3   OH226452   5.006   3.472   8.291  0.5425  0.5393  0.6352
 1606TIP3    H126453   5.071   3.541   8.277  1.0135  0.3329  1.6788
 1606TIP3    H226454   4.930   3.517   8.327 -0.1018  0.8501 -1.0232
 1607TIP3   OH226455   0.578   1.063   1.640  0.3021  0.5066 -0.5867
 1607TIP3    H126456   0.618   1.082   1.725 -1.3407  0.1610  0.3116
 1607TIP3    H226457   0.632   0.994   1.603  1.0532  0.6624  0.1711
 1608TIP3   OH226458   0.225   4.393   1.974  0.2683 -0.1278 -0.5126
 1608TIP3    H126459   0.171   4.377   1.896  0.9944  0.3283 -1.1261
 1608TIP3    H226460   0.300   4.335   1.964  0.0449 -0.5509  0.1933
 1609TIP3   OH226461   1.673   0.577   7.432  0.1136 -0.2382  0.0288
 1609TIP3    H126462   1.638   0.541   7.351  0.7890  0.8433 -0.7635
 1609TIP3    H226463   1.735   0.645   7.404  1.5037 -0.8683  1.4002
 1610TIP3   OH226464   3.188   4.206   1.184  0.7359 -0.2935  0.0681
 1610TIP3    H126465   3.172   4.132   1.243 -1.2713  0.8535  1.0753
 1610TIP3    H226466   3.283   4.215   1.182  0.9199 -0.1547  3.4875
 1611TIP3   OH226467   1.798   2.966   0.527 -1.0498  0.0031  0.3712
 1611TIP3    H126468   1.747   2.935   0.452 -1.3198 -0.9999  0.9463
 1611TIP3    H226469   1.743   2.946   0.603  0.0199 -0.7240  0.9807
 1612TIP3   OH226470   3.761   6.376   2.046 -0.1559 -0.3974 -0.4498
 1612TIP3    H126471   3.717   6.294   2.068  0.7078 -0.6467  0.4353
 1612TIP3    H226472   3.705   6.417   1.980 -1.6967 -0.7104  0.6107
 1613TIP3   OH226473   5.007   2.204   7.743  0.1157 -0.0708  0.1814
 1613TIP3    H126474   4.960   2.121   7.740 -0.7327  0.3238 -4.2648
 1613TIP3    H226475   5.100   2.179   7.747 -0.1282 -1.2856 -1.0249
 1614TIP3   OH226476   4.059   3.088   1.842 -0.3926  0.5625 -0.7817
 1614TIP3    H126477   4.105   3.048   1.916  0.7325  0.4312 -1.5275
 1614TIP3    H226478   4.020   3.014   1.796 -1.8852  0.7199  0.1667
 1615TIP3   OH226479   6.198   3.425   7.665 -0.0012  0.3307  0.2715
 1615TIP3    H126480   6.238   3.380   7.591  0.2801  1.2954 -0.1713
 1615TIP3    H226481   6.116   3.460   7.631  0.7010  1.8433  0.0355
 1616TIP3   OH226482   3.229   4.549   1.276  0.1332 -0.0098  0.2286
 1616TIP3    H126483   3.222   4.478   1.339 -1.9741 -1.8736 -1.8716
 1616TIP3    H226484   3.244   4.505   1.192 -2.1500  1.8523 -1.3160
 1617TIP3   OH226485   3.140   4.851   8.544 -0.9567 -0.1045 -0.7046
 1617TIP3    H126486   3.194   4.830   8.621 -1.8827  2.7875  0.9002
 1617TIP3    H226487   3.050   4.844   8.575 -1.4272 -1.0156 -2.2018
 1618TIP3   OH226488   0.337   4.048   1.324  0.5020 -0.2296 -0.5040
 1618TIP3    H126489   0.426   4.076   1.345 -0.5034  1.3864  1.9742
 1618TIP3    H226490   0.321   3.972   1.380 -0.7760  1.6047  1.8084
 1619TIP3   OH226491   2.017   1.464   1.655  0.2491 -0.0977 -0.2188
 1619TIP3    H126492   2.084   1.454   1.723  0.8012  0.3218 -0.7006
 1619TIP3    H226493   1.957   1.529   1.690  0.4327 -0.0150 -0.0544
 1620TIP3   OH226494   6.713   5.403   8.110 -0.0788  1.0048 -0.2326
 1620TIP3    H126495   6.726   5.471   8.043  0.7381  1.6866  0.5984
 1620TIP3    H226496   6.769   5.430   8.183  1.7461 -1.5584 -0.5671
 1621TIP3   OH226497   1.603   3.007   1.057 -0.6468  0.1883 -0.7477
 1621TIP3    H126498   1.615   3.036   1.148 -0.5729  2.3591 -1.3975
 1621TIP3    H226499   1.654   2.926   1.051  1.5648  1.3700  0.4900
 1622TIP3   OH226500   5.929   5.605   7.260 -0.4086  0.1211  0.2743
 1622TIP3    H126501   5.917   5.639   7.348  0.0700 -2.2213  1.3196
 1622TIP3    H226502   5.843   5.572   7.235 -1.1236  2.7085 -1.1341
 1623TIP3   OH226503   1.787   2.328   1.464 -0.5145  0.4544  0.2747
 1623TIP3    H126504   1.860   2.388   1.449  0.0968 -0.6155 -1.4518
 1623TIP3    H226505   1.829   2.242   1.472 -1.4788  0.0386  1.0077
 1624TIP3   OH226506   0.399   5.270   0.569  0.1393  0.3446  0.1808
 1624TIP3    H126507   0.309   5.278   0.537 -0.1759  0.3370  1.0386
 1624TIP3    H226508   0.395   5.199   0.633  1.1367 -0.9274 -1.0894
 1625TIP3   OH226509   5.214   4.641   2.563  0.0021  0.3552  0.1844
 1625TIP3    H126510   5.230   4.733   2.585 -0.8371  0.8873 -1.2189
 1625TIP3    H226511   5.296   4.610   2.526  0.3128  0.5259  0.7330
 1626TIP3   OH226512   5.554   0.507   6.653  0.4867 -0.0829 -0.4213
 1626TIP3    H126513   5.599   0.497   6.568  1.0201 -0.6977 -0.0773
 1626TIP3    H226514   5.462   0.521   6.630  0.8779  1.4228 -1.1461
 1627TIP3   OH226515   4.350   4.892   0.249 -0.4235  0.3307 -0.7350
 1627TIP3    H126516   4.372   4.801   0.231 -0.1771  0.3353 -0.4664
 1627TIP3    H226517   4.273   4.910   0.194 -1.3234 -0.4475  0.2327
 1628TIP3   OH226518   1.214   6.670   6.902  0.0015  0.0675  0.1537
 1628TIP3    H126519   1.273   6.709   6.966  0.1725 -0.4380  0.3077
 1628TIP3    H226520   1.128   6.707   6.923  0.1557  0.3316  0.3208
 1629TIP3   OH226521   3.355   5.147   8.621  0.0225  0.1392 -0.4596
 1629TIP3    H126522   3.449   5.147   8.603 -0.1184  0.6598 -1.2867
 1629TIP3    H226523   3.344   5.086   8.693  0.9404 -0.2745 -0.6543
 1630TIP3   OH226524   2.035   5.626   2.277  0.3604  0.0690  0.5169
 1630TIP3    H126525   2.042   5.642   2.371 -0.6083  0.5075  0.5214
 1630TIP3    H226526   1.950   5.585   2.266 -0.9847  2.9226 -0.5329
 1631TIP3   OH226527   3.514   1.526   0.429  0.0896  0.0909  0.2027
 1631TIP3    H126528   3.490   1.476   0.507 -0.1429  0.5452  0.4208
 1631TIP3    H226529   3.610   1.535   0.435  0.1859 -0.6871 -0.0553
 1632TIP3   OH226530   1.927   6.399   2.191 -0.0692  0.2918 -0.0336
 1632TIP3    H126531   2.000   6.442   2.148 -1.7654  1.5796 -1.8311
 1632TIP3    H226532   1.929   6.308   2.159  0.5919  0.3848 -0.2593
 1633TIP3   OH226533   2.052   0.893   6.825  0.1655  0.0417 -1.0919
 1633TIP3    H126534   1.994   0.960   6.790 -1.7801 -0.3033  1.2232
 1633TIP3    H226535   2.140   0.932   6.818 -0.3713  0.9732 -3.7823
 1634TIP3   OH226536   3.219   0.423   6.869  0.0009 -0.3458  0.7182
 1634TIP3    H126537   3.124   0.429   6.877  0.0788  0.2293  1.3426
 1634TIP3    H226538   3.240   0.332   6.891 -0.3045 -0.1643  1.8397
 1635TIP3   OH226539   0.818   6.295   1.711 -0.4374  0.2445 -0.1275
 1635TIP3    H126540   0.802   6.334   1.797  1.0024  0.6145  0.0017
 1635TIP3    H226541   0.757   6.340   1.653 -1.6244 -0.1971  0.7186
 1636TIP3   OH226542   0.244   1.943   6.879 -0.2710 -0.0318  0.5291
 1636TIP3    H126543   0.175   1.877   6.890 -0.6525 -0.0858 -1.7523
 1636TIP3    H226544   0.198   2.022   6.854  0.3818  0.4811  0.9149
 1637TIP3   OH226545   4.148   1.472   8.348  0.0883 -0.3002  0.0822
 1637TIP3    H126546   4.059   1.437   8.354  0.2023 -0.4138  1.4765
 1637TIP3    H226547   4.137   1.559   8.311 -1.1038  1.2983  3.7771
 1638TIP3   OH226548   5.364   0.498   1.049 -0.1054 -0.0952  0.2009
 1638TIP3    H126549   5.268   0.494   1.053 -0.4121  3.8851  2.6168
 1638TIP3    H226550   5.393   0.447   1.125 -0.2611 -1.2078 -0.4651
 1639TIP3   OH226551   1.946   5.151   0.710  0.3755 -0.6547  0.3088
 1639TIP3    H126552   1.966   5.059   0.691  1.6649 -0.2795 -0.1743
 1639TIP3    H226553   2.010   5.201   0.660 -1.1331  0.5723 -0.4737
 1640TIP3   OH226554   0.377   2.464   0.378 -0.2888 -0.2699 -0.1743
 1640TIP3    H126555   0.401   2.537   0.321 -0.8994 -0.6139 -0.8878
 1640TIP3    H226556   0.282   2.456   0.369 -0.7182  0.9277  2.4343
 1641TIP3   OH226557   6.455   1.244   7.392  0.5238 -0.1118  0.3453
 1641TIP3    H126558   6.539   1.201   7.408  0.7670  0.5871  0.9837
 1641TIP3    H226559   6.451   1.252   7.296 -0.0536 -2.5617  0.1031
 1642TIP3   OH226560   6.314   5.847   0.565  0.3119  0.9840 -0.5856
 1642TIP3    H126561   6.233   5.861   0.516 -0.0675 -0.6294 -0.4472
 1642TIP3    H226562   6.383   5.846   0.497 -0.1058 -0.3205 -1.0234
 1643TIP3   OH226563   4.276   1.564   8.589  0.4728  0.6538 -0.3942
 1643TIP3    H126564   4.249   1.505   8.660  1.8001  0.8974  0.3677
 1643TIP3    H226565   4.221   1.540   8.515  0.4563 -1.0459  0.1192
 1644TIP3   OH226566   6.234   0.583   6.172  0.2949  0.1527  0.3470
 1644TIP3    H126567   6.187   0.530   6.108 -0.7013  2.3386 -0.8320
 1644TIP3    H226568   6.170   0.598   6.242  0.3176  0.4546  0.3022
 1645TIP3   OH226569   2.833   2.426   0.667 -0.1580  0.1649  0.7857
 1645TIP3    H126570   2.807   2.507   0.710 -0.4342 -1.1373  3.2172
 1645TIP3    H226571   2.928   2.432   0.659 -0.2061  0.8271  0.6766
 1646TIP3   OH226572   4.902   2.487   1.798 -0.4234 -0.4952 -0.0706
 1646TIP3    H126573   4.889   2.392   1.794  1.0532 -0.7739  0.8492
 1646TIP3    H226574   4.923   2.505   1.890 -1.3468  0.8341 -0.0925
 1647TIP3   OH226575   6.466   5.623   0.202  0.1414 -0.3170 -0.1000
 1647TIP3    H126576   6.436   5.533   0.211 -1.4305  0.2314  0.5111
 1647TIP3    H226577   6.394   5.669   0.159 -1.2195  1.6041  3.7123
 1648TIP3   OH226578   5.054   6.849   2.204  0.2520  1.1830  0.0929
 1648TIP3    H126579   4.985   6.783   2.203 -1.2161  2.6435 -1.3571
 1648TIP3    H226580   5.081   6.854   2.296 -1.3794  0.3674  0.6512
 1649TIP3   OH226581   5.752   4.693   8.543  0.5631  0.6418 -0.0227
 1649TIP3    H126582   5.826   4.694   8.482 -0.0857  0.0626 -0.8468
 1649TIP3    H226583   5.767   4.616   8.598 -0.6186 -0.9211 -1.7648
 1650TIP3   OH226584   5.402   0.388   7.894  0.1247  0.2975  0.4415
 1650TIP3    H126585   5.381   0.419   7.807 -0.7114 -0.3856  0.3907
 1650TIP3    H226586   5.481   0.334   7.882 -0.6377 -0.7365 -0.0979
 1651TIP3   OH226587   6.095   2.313   1.744  0.0033 -0.2215 -0.0775
 1651TIP3    H126588   6.013   2.281   1.782  0.1181 -0.7055 -0.2281
 1651TIP3    H226589   6.156   2.240   1.754  0.7559  0.5322  1.0792
 1652TIP3   OH226590   0.122   3.675   0.799  0.1242 -0.0434  0.2816
 1652TIP3    H126591   0.029   3.679   0.777  0.5554 -0.3738 -1.7213
 1652TIP3    H226592   0.166   3.723   0.730  1.5739 -1.1248  0.3957
 1653TIP3   OH226593   3.752   6.296   2.425  0.1654 -0.6526 -0.1803
 1653TIP3    H126594   3.805   6.375   2.413  0.3839 -0.8908 -0.7665
 1653TIP3    H226595   3.669   6.316   2.382  0.1543 -0.6729 -0.1684
 1654TIP3   OH226596   6.616   4.501   6.542 -0.0350 -0.6062  0.1405
 1654TIP3    H126597   6.534   4.530   6.502 -0.2252 -0.4467  0.6397
 1654TIP3    H226598   6.602   4.408   6.560  0.4376 -0.9332 -1.1166
 1655TIP3   OH226599   0.451   3.360   6.240 -0.7304  0.6774  0.0219
 1655TIP3    H126600   0.360   3.370   6.267  0.0078  0.6284  2.7706
 1655TIP3    H226601   0.501   3.404   6.308  1.4583 -2.1274  0.3691
 1656TIP3   OH226602   5.512   5.539   8.091  0.1938  0.2816 -0.2684
 1656TIP3    H126603   5.449   5.488   8.040 -0.0740  0.2505  0.0897
 1656TIP3    H226604   5.549   5.477   8.154  2.5246 -0.3765 -2.1474
 1657TIP3   OH226605   1.765   0.867   1.063 -0.1982  0.2861  0.0186
 1657TIP3    H126606   1.693   0.931   1.069  0.4607  1.2330 -1.6193
 1657TIP3    H226607   1.721   0.782   1.064 -1.3009  0.8313 -0.2853
 1658TIP3   OH226608   5.419   0.542   7.316  0.0474 -0.1187  0.6107
 1658TIP3    H126609   5.367   0.463   7.301 -0.0344  0.1438 -0.5420
 1658TIP3    H226610   5.508   0.509   7.332 -0.0264 -0.4576  0.3442
 1659TIP3   OH226611   3.877   3.194   8.155 -0.1503  0.4247 -0.3139
 1659TIP3    H126612   3.813   3.134   8.194  0.2101 -0.3656 -0.9214
 1659TIP3    H226613   3.830   3.278   8.150 -0.7712  0.1217  0.2437
 1660TIP3   OH226614   1.586   3.357   0.353  0.3877 -0.3231  0.0592
 1660TIP3    H126615   1.632   3.436   0.382 -1.2920  0.7501 -0.1219
 1660TIP3    H226616   1.600   3.294   0.424  0.7902  0.5009  0.7261
 1661TIP3   OH226617   2.092   4.524   0.859  0.0277  0.1344  0.8794
 1661TIP3    H126618   2.089   4.496   0.950 -0.7269 -0.7751  0.5907
 1661TIP3    H226619   2.072   4.444   0.809  0.1290  0.6885 -0.0643
 1662TIP3   OH226620   5.419   2.336   0.119 -0.3400  0.1875 -0.1789
 1662TIP3    H126621   5.421   2.263   0.057 -0.4249 -1.3341  1.5378
 1662TIP3    H226622   5.388   2.411   0.067 -2.6721 -1.5308 -1.4610
 1663TIP3   OH226623   3.168   3.710   7.525 -0.0828 -0.2360 -0.8865
 1663TIP3    H126624   3.123   3.700   7.609  0.2883  0.7289 -0.5589
 1663TIP3    H226625   3.097   3.706   7.460 -0.6457  1.0787 -0.3899
 1664TIP3   OH226626   3.497   6.759   0.756 -0.4440  0.4968  0.3614
 1664TIP3    H126627   3.591   6.774   0.747 -0.3145  1.5908  2.9266
 1664TIP3    H226628   3.490   6.675   0.801 -0.7498  0.0334 -0.5261
 1665TIP3   OH226629   5.697   1.638   0.922 -0.1022 -0.2643  0.0408
 1665TIP3    H126630   5.781   1.615   0.963  0.0864  0.2368 -0.0596
 1665TIP3    H226631   5.645   1.558   0.928  0.7916 -0.9538 -0.9319
 1666TIP3   OH226632   6.441   3.877   0.837 -0.2451 -0.4308 -0.4676
 1666TIP3    H126633   6.359   3.926   0.827  0.2450  0.2215 -1.4563
 1666TIP3    H226634   6.443   3.852   0.929 -0.5290  1.3771  0.0589
 1667TIP3   OH226635   6.758   3.264   7.265  0.0930  0.5427 -0.4058
 1667TIP3    H126636   6.723   3.228   7.183  1.0760  1.0413 -1.0615
 1667TIP3    H226637   6.692   3.240   7.331 -0.3016 -0.6256 -1.1760
 1668TIP3   OH226638   0.428   2.090   1.582 -0.3476  0.3460 -0.0093
 1668TIP3    H126639   0.358   2.148   1.611 -2.2020 -1.9768  0.4398
 1668TIP3    H226640   0.467   2.056   1.662  1.4944  1.7337 -0.2506
 1669TIP3   OH226641   0.704   1.472   7.677 -0.5082 -0.1115 -0.0769
 1669TIP3    H126642   0.630   1.488   7.618 -1.4097 -0.6148  0.8920
 1669TIP3    H226643   0.734   1.560   7.701 -1.2237  0.1119  0.0420
 1670TIP3   OH226644   1.270   5.726   0.903 -0.3224 -0.2450  0.2243
 1670TIP3    H126645   1.241   5.789   0.970  0.3326  1.4201 -0.9913
 1670TIP3    H226646   1.192   5.713   0.848 -0.3120 -0.0492  0.1603
 1671TIP3   OH226647   2.217   2.529   7.652  0.0005  0.4039 -0.3633
 1671TIP3    H126648   2.236   2.494   7.565  1.2932  3.0391 -1.2438
 1671TIP3    H226649   2.141   2.587   7.638 -1.2383 -0.8910  0.7668
 1672TIP3   OH226650   3.744   2.505   7.754 -0.0539  0.7503 -0.3387
 1672TIP3    H126651   3.770   2.513   7.845  0.8592 -0.1339 -0.4977
 1672TIP3    H226652   3.827   2.508   7.705 -0.3202 -0.8427 -0.9619
 1673TIP3   OH226653   1.960   1.942   1.311  0.0239 -0.1749  0.0090
 1673TIP3    H126654   2.030   1.910   1.254 -0.9626 -1.5258 -0.4974
 1673TIP3    H226655   1.889   1.879   1.298 -0.6447  0.1608  1.8544
 1674TIP3   OH226656   5.191   4.394   8.636 -0.3240 -0.4310 -0.2278
 1674TIP3    H126657   5.235   4.321   8.679  1.8755  0.6632 -0.5212
 1674TIP3    H226658   5.244   4.470   8.658 -1.8202  0.8920 -1.0165
 1675TIP3   OH226659   5.985   1.418   6.927  0.0800 -0.2185 -0.8181
 1675TIP3    H126660   5.991   1.323   6.931  0.3793 -0.1692  0.3361
 1675TIP3    H226661   6.026   1.442   6.844 -1.5175 -1.1923 -1.9256
 1676TIP3   OH226662   2.933   1.400   0.611  0.5657 -0.2480 -0.5747
 1676TIP3    H126663   3.008   1.449   0.644 -0.1241  0.3502  0.1300
 1676TIP3    H226664   2.882   1.379   0.689 -0.0816 -0.5138 -1.0627
 1677TIP3   OH226665   3.707   0.874   1.363 -0.2908 -0.6791  0.3512
 1677TIP3    H126666   3.791   0.873   1.408 -0.2016  0.5996  0.2686
 1677TIP3    H226667   3.674   0.963   1.376 -0.1252 -0.1197 -2.3317
 1678TIP3   OH226668   1.715   4.178   7.529 -0.4206  0.1699  0.4856
 1678TIP3    H126669   1.786   4.205   7.471 -2.2956  1.6769 -1.2781
 1678TIP3    H226670   1.714   4.083   7.524  0.9897  0.1581  0.0049
 1679TIP3   OH226671   1.616   2.555   8.377 -0.2800 -0.0698  0.0363
 1679TIP3    H126672   1.635   2.615   8.450  1.1387 -0.9503  0.4296
 1679TIP3    H226673   1.663   2.475   8.399 -1.3808 -1.0227 -0.9414
 1680TIP3   OH226674   3.851   1.216   0.688  0.0497 -0.3186 -0.5703
 1680TIP3    H126675   3.791   1.217   0.614 -1.4890  2.0110  0.5859
 1680TIP3    H226676   3.806   1.163   0.755  0.8340 -1.3161 -0.8069
 1681TIP3   OH226677   3.897   6.114   0.387  0.4235  0.1459 -0.3001
 1681TIP3    H126678   3.827   6.104   0.451  1.2495 -0.1196  0.5973
 1681TIP3    H226679   3.899   6.208   0.367 -0.7284  0.0416 -0.9987
 1682TIP3   OH226680   6.683   6.647   1.023  0.0419  0.3039  0.0187
 1682TIP3    H126681   6.778   6.634   1.030  0.4413  3.0095  0.6389
 1682TIP3    H226682   6.646   6.568   1.063  2.0969  0.4723  2.5621
 1683TIP3   OH226683   6.725   2.379   6.973  0.3009 -0.3125 -0.3904
 1683TIP3    H126684   6.670   2.308   6.941  0.8222 -0.0593 -1.9208
 1683TIP3    H226685   6.793   2.390   6.906  2.8851 -1.3091  1.8836
 1684TIP3   OH226686   6.712   1.195   7.304 -0.0845  0.1314 -0.2143
 1684TIP3    H126687   6.727   1.257   7.232 -1.3946 -0.0149 -0.6300
 1684TIP3    H226688   6.742   1.111   7.269 -4.1599 -0.7616 -2.1489
 1685TIP3   OH226689   3.572   5.921   8.028 -0.2186  0.3048 -0.2060
 1685TIP3    H126690   3.482   5.941   8.003 -0.3330 -1.1217 -1.0382
 1685TIP3    H226691   3.615   5.896   7.946  0.7268  0.2225  0.3013
 1686TIP3   OH226692   6.137   1.428   7.794  0.4080  1.0060  0.7539
 1686TIP3    H126693   6.212   1.406   7.739 -1.4539 -1.6891 -0.9252
 1686TIP3    H226694   6.164   1.405   7.882  1.8031  0.8587  0.3110
 1687TIP3   OH226695   6.126   1.290   2.305  0.0006 -0.4542 -0.0551
 1687TIP3    H126696   6.181   1.277   2.227  0.8335 -0.2599  0.4921
 1687TIP3    H226697   6.118   1.385   2.314 -1.2787 -0.4720 -0.7027
 1688TIP3   OH226698   0.017   0.141   0.730  0.8973 -0.2770 -0.0910
 1688TIP3    H126699   0.041   0.186   0.649 -0.1061  0.6777  0.1225
 1688TIP3    H226700   0.076   0.066   0.734  2.7366  1.0858 -0.3912
 1689TIP3   OH226701   4.450   2.985   1.919  0.3612  0.0897  0.3400
 1689TIP3    H126702   4.508   3.043   1.969 -1.4770  1.7138  0.6648
 1689TIP3    H226703   4.370   2.981   1.971 -0.9638  0.4069 -1.6132
 1690TIP3   OH226704   5.181   0.858   1.315  0.0520 -0.2975 -0.4830
 1690TIP3    H126705   5.141   0.856   1.228  3.2639 -3.4080 -2.1275
 1690TIP3    H226706   5.125   0.801   1.368 -0.4318 -0.5928 -1.2951
 1691TIP3   OH226707   4.910   4.933   2.016 -0.6247  0.6826 -0.9755
 1691TIP3    H126708   4.973   4.989   1.970  1.8033 -0.8173  0.3318
 1691TIP3    H226709   4.963   4.886   2.081 -3.6427  1.8984  2.6875
 1692TIP3   OH226710   1.144   6.821   7.254 -0.0789  0.0964 -0.1428
 1692TIP3    H126711   1.128   6.769   7.333  0.6534 -1.7611 -1.1550
 1692TIP3    H226712   1.235   6.804   7.232 -0.0363  1.2605 -0.9212
 1693TIP3   OH226713   5.203   6.094   0.225 -0.1375 -0.7359  0.1233
 1693TIP3    H126714   5.258   6.052   0.291 -1.7082  0.2449  2.1795
 1693TIP3    H226715   5.224   6.188   0.232 -2.3250 -0.2643  1.3415
 1694TIP3   OH226716   5.392   3.527   8.013  0.5702  0.2451  0.6646
 1694TIP3    H126717   5.316   3.569   8.053 -0.1626  1.2094 -1.5988
 1694TIP3    H226718   5.364   3.436   8.000 -0.4901  0.7425 -0.7459
 1695TIP3   OH226719   1.910   4.055   7.793  0.0077  0.3659  0.5385
 1695TIP3    H126720   1.977   4.122   7.798  2.5063 -1.9091 -0.3795
 1695TIP3    H226721   1.881   4.043   7.884  2.5495 -0.1338  1.3603
 1696TIP3   OH226722   6.791   1.610   0.574 -0.1707  0.8894 -0.0587
 1696TIP3    H126723   6.819   1.640   0.488  0.0597  0.2475 -0.2157
 1696TIP3    H226724   6.703   1.646   0.585 -0.4800  0.3966 -0.8650
 1697TIP3   OH226725   6.723   3.789   5.926 -0.0126  0.5011  0.0063
 1697TIP3    H126726   6.757   3.712   5.881 -2.0501  0.2101 -1.1894
 1697TIP3    H226727   6.800   3.832   5.963  1.1866 -2.1200  0.7834
 1698TIP3   OH226728   4.797   4.032   6.610  0.0278  1.0113 -0.3824
 1698TIP3    H126729   4.849   3.953   6.625  0.1356  0.6967 -2.1523
 1698TIP3    H226730   4.841   4.076   6.537 -1.3984  1.4422 -1.0235
 1699TIP3   OH226731   3.187   3.780   6.232  0.5486  0.7671  0.1153
 1699TIP3    H126732   3.101   3.761   6.195  0.0838 -0.3269  1.6608
 1699TIP3    H226733   3.244   3.791   6.156 -0.7152  0.3494 -0.9292
 1700TIP3   OH226734   1.228   4.079   1.132  0.1187  0.7084  0.3488
 1700TIP3    H126735   1.206   4.095   1.224  0.8815  0.6721  0.5444
 1700TIP3    H226736   1.146   4.094   1.085  0.0310  2.0060  0.8861
 1701TIP3   OH226737   2.677   2.937   1.533  0.0495 -0.2601  0.2062
 1701TIP3    H126738   2.728   2.862   1.502 -0.5439 -0.5857  0.0078
 1701TIP3    H226739   2.720   2.964   1.614  0.8173 -0.2407 -0.2013
 1702TIP3   OH226740   6.083   2.190   0.902  0.0146 -0.6383  0.0432
 1702TIP3    H126741   6.141   2.139   0.959  0.0260 -0.5711  0.0920
 1702TIP3    H226742   6.079   2.276   0.943  3.3878  0.8372 -2.2911
 1703TIP3   OH226743   1.111   5.751   0.517  0.6759  0.6477  0.9260
 1703TIP3    H126744   1.192   5.714   0.481  1.1858  2.7563 -0.2540
 1703TIP3    H226745   1.047   5.681   0.506  1.6654 -0.0735 -0.8639
 1704TIP3   OH226746   6.756   6.374   6.923 -0.0209 -0.2458 -0.0448
 1704TIP3    H126747   6.840   6.415   6.901 -0.8790 -0.2063 -3.8163
 1704TIP3    H226748   6.746   6.303   6.860 -1.7520 -1.8896  1.9265
 1705TIP3   OH226749   6.159   5.973   1.374  0.2007  0.0130 -0.4368
 1705TIP3    H126750   6.077   6.003   1.413  0.6006  1.3772 -0.6020
 1705TIP3    H226751   6.164   5.880   1.397 -0.6149  0.2794  0.9158
 1706TIP3   OH226752   4.584   3.998   8.077 -0.5939 -0.7196 -0.3398
 1706TIP3    H126753   4.590   3.904   8.094 -2.2912 -1.0585 -1.3636
 1706TIP3    H226754   4.668   4.033   8.104 -0.2854 -2.3817  1.0078
 1707TIP3   OH226755   4.346   3.482   8.240  0.3656 -0.0258 -0.3638
 1707TIP3    H126756   4.294   3.404   8.261  1.2619 -0.4018  0.5675
 1707TIP3    H226757   4.419   3.478   8.301 -0.9815  3.0474  1.6847
 1708TIP3   OH226758   0.707   4.399   0.318  0.0436  0.3253  0.1528
 1708TIP3    H126759   0.742   4.453   0.389 -1.3004  0.5573  0.6725
 1708TIP3    H226760   0.779   4.394   0.254  1.0763  0.6041  1.2465
 1709TIP3   OH226761   4.461   2.444   2.033 -0.9209  0.7038  0.1371
 1709TIP3    H126762   4.491   2.453   2.123 -3.9771  0.7305  1.2601
 1709TIP3    H226763   4.399   2.517   2.021 -2.6585 -0.8639 -0.9925
 1710TIP3   OH226764   6.319   4.916   0.459  0.0104  0.5166  0.0160
 1710TIP3    H126765   6.230   4.890   0.484  0.4579  0.6154  1.8502
 1710TIP3    H226766   6.317   4.918   0.363 -2.1679  1.2237  0.0058
 1711TIP3   OH226767   5.307   0.200   6.288 -0.4154  0.2148  0.3604
 1711TIP3    H126768   5.378   0.216   6.225 -1.0999  0.6423 -0.3259
 1711TIP3    H226769   5.324   0.112   6.321  0.4513  0.3220  0.2335
 1712TIP3   OH226770   4.532   3.065   0.150  0.7802 -0.2625  0.1979
 1712TIP3    H126771   4.557   3.013   0.073  3.3571  3.5285 -1.8957
 1712TIP3    H226772   4.454   3.112   0.123  1.6327  1.0046 -0.1294
 1713TIP3   OH226773   5.245   4.061   0.642 -0.3137 -0.2402 -0.0894
 1713TIP3    H126774   5.218   4.147   0.675  2.1364  1.2694 -1.6242
 1713TIP3    H226775   5.300   4.024   0.711 -1.6112 -0.7397  0.6967
 1714TIP3   OH226776   4.212   2.173   2.050  0.1565 -0.2062 -0.1156
 1714TIP3    H126777   4.294   2.209   2.084  0.0496  0.8391 -0.9240
 1714TIP3    H226778   4.240   2.103   1.991  0.4562 -0.0193 -0.1992
 1715TIP3   OH226779   2.257   3.703   8.540 -0.4458 -0.0905  0.4109
 1715TIP3    H126780   2.183   3.649   8.511 -0.0963 -0.5241  0.3137
 1715TIP3    H226781   2.330   3.642   8.547  0.4565  0.6701 -1.5191
 1716TIP3   OH226782   6.778   4.037   6.738 -0.0755  0.4681 -0.1134
 1716TIP3    H126783   6.813   4.121   6.770  0.1381  0.7383 -1.0257
 1716TIP3    H226784   6.713   4.012   6.803 -0.8846  1.8566 -0.3432
 1717TIP3   OH226785   1.089   5.965   8.159 -0.2534 -0.2697 -0.3591
 1717TIP3    H126786   1.160   5.951   8.222 -1.2788  0.4859  1.0226
 1717TIP3    H226787   1.014   5.919   8.197 -0.5614 -0.9248 -1.7212
 1718TIP3   OH226788   6.151   2.773   7.327  0.8321 -0.3131 -0.3898
 1718TIP3    H126789   6.094   2.822   7.387 -3.3396 -1.4778 -2.9629
 1718TIP3    H226790   6.150   2.683   7.361  1.7068 -0.2387 -0.1409
 1719TIP3   OH226791   3.785   1.754   0.653  0.1712  0.0313  0.4231
 1719TIP3    H126792   3.804   1.814   0.581 -0.2959 -1.2267 -0.8021
 1719TIP3    H226793   3.843   1.679   0.637  0.5716  0.0342  1.7826
 1720TIP3   OH226794   1.561   2.541   5.935  0.0722  0.4093 -0.6007
 1720TIP3    H126795   1.501   2.591   5.880 -1.1061  2.2940  2.1674
 1720TIP3    H226796   1.637   2.598   5.946  0.7532 -0.3834 -1.0458
 1721TIP3   OH226797   5.061   6.765   7.731  0.2609 -0.0134 -0.1405
 1721TIP3    H126798   4.973   6.728   7.734  0.2430 -0.0541 -0.8744
 1721TIP3    H226799   5.084   6.764   7.638  1.1878 -0.3684  0.0835
 1722TIP3   OH226800   3.782   0.496   0.896  0.0837 -0.7066  0.2303
 1722TIP3    H126801   3.844   0.470   0.828  1.1495 -0.1495  0.9656
 1722TIP3    H226802   3.793   0.591   0.902 -0.8584 -0.5942  0.3743
 1723TIP3   OH226803   4.905   0.263   2.428 -0.1501 -0.7422  0.1521
 1723TIP3    H126804   4.824   0.287   2.383  0.3683 -1.8229 -1.4285
 1723TIP3    H226805   4.897   0.170   2.444  1.1728 -1.0811 -0.9327
 1724TIP3   OH226806   0.734   2.975   6.790  0.3222 -0.3395 -0.4271
 1724TIP3    H126807   0.697   2.928   6.715 -0.3866 -1.1233  0.4001
 1724TIP3    H226808   0.697   2.932   6.867  1.9901 -0.3538  0.4211
 1725TIP3   OH226809   0.889   6.385   1.297  0.0697 -0.0935  0.3121
 1725TIP3    H126810   0.931   6.449   1.354 -0.4271  1.9563 -1.4976
 1725TIP3    H226811   0.814   6.431   1.260  0.1065 -1.4643 -1.6251
 1726TIP3   OH226812   6.407   4.587   0.156  0.0755  0.6737 -0.1749
 1726TIP3    H126813   6.474   4.520   0.171  0.8155  1.4770  0.1215
 1726TIP3    H226814   6.324   4.540   0.171  0.4756 -0.6680 -1.8210
 1727TIP3   OH226815   5.252   6.049   1.799 -0.0180 -0.5489  0.5480
 1727TIP3    H126816   5.170   6.093   1.777 -1.3942 -2.0384  2.2954
 1727TIP3    H226817   5.238   5.958   1.773  1.4825 -0.6335 -0.0167
 1728TIP3   OH226818   3.008   0.474   7.570 -0.3287  0.2090 -0.4197
 1728TIP3    H126819   2.963   0.445   7.490 -0.7400  1.2246 -0.5683
 1728TIP3    H226820   3.069   0.403   7.590 -0.1237 -0.0059 -1.7138
 1729TIP3   OH226821   2.381   0.268   1.507  0.6288 -0.3440 -0.8967
 1729TIP3    H126822   2.418   0.188   1.544  0.6314  0.0278 -0.0804
 1729TIP3    H226823   2.449   0.300   1.448  1.9378  0.6651  1.0402
 1730TIP3   OH226824   5.099   1.526   1.035  0.3929 -0.1267 -0.0468
 1730TIP3    H126825   5.091   1.526   0.940  0.2434  0.6486 -0.0379
 1730TIP3    H226826   5.168   1.590   1.054  0.2087 -0.0460  0.3774
 1731TIP3   OH226827   3.924   3.163   0.253 -0.2457  0.1727  0.5729
 1731TIP3    H126828   3.990   3.102   0.285 -0.2409 -0.7128 -1.0352
 1731TIP3    H226829   3.965   3.208   0.180 -1.5259 -0.7325 -0.7649
 1732TIP3   OH226830   6.136   3.540   0.273  0.1966 -0.0662 -0.0202
 1732TIP3    H126831   6.073   3.468   0.266  0.3840 -0.2054 -0.2834
 1732TIP3    H226832   6.193   3.515   0.345  0.9321 -0.7069 -0.8106
 1733TIP3   OH226833   4.406   1.814   0.736  0.1893  0.2100 -0.1478
 1733TIP3    H126834   4.319   1.842   0.709 -0.3995 -0.3466  1.0713
 1733TIP3    H226835   4.465   1.881   0.702 -0.7014  0.5238 -1.0999
 1734TIP3   OH226836   3.953   0.012   8.335 -0.2295  0.7419 -0.5743
 1734TIP3    H126837   3.994  -0.074   8.331  1.7901  1.6988 -1.4554
 1734TIP3    H226838   4.004   0.060   8.400 -1.2153  1.3600 -0.2399
 1735TIP3   OH226839   4.835   6.882   0.399  0.4325  0.8044 -0.0995
 1735TIP3    H126840   4.874   6.945   0.339  0.6026 -0.5610 -1.5055
 1735TIP3    H226841   4.904   6.864   0.464  0.6465  1.4802 -0.1392
 1736TIP3   OH226842   5.271   1.873   8.602  0.3591 -0.0531  0.8490
 1736TIP3    H126843   5.284   1.959   8.561  1.0444 -0.5965 -0.1148
 1736TIP3    H226844   5.324   1.876   8.682  0.3134  0.4471  0.8633
 1737TIP3   OH226845   1.930   3.593   1.108  0.2625 -0.3802  0.4128
 1737TIP3    H126846   1.936   3.674   1.059  1.0737 -0.3671  0.5205
 1737TIP3    H226847   1.841   3.592   1.143  0.0728  0.1867 -0.0557
 1738TIP3   OH226848   2.357   0.840   7.560 -0.8387 -0.4368 -0.6504
 1738TIP3    H126849   2.371   0.800   7.646 -0.3796 -1.7749 -1.3263
 1738TIP3    H226850   2.440   0.883   7.540 -2.1228  3.4889  1.2977
 1739TIP3   OH226851   3.418   1.770   6.869 -1.0514 -0.3183 -0.1240
 1739TIP3    H126852   3.481   1.725   6.812  2.0961  1.8319  1.3875
 1739TIP3    H226853   3.370   1.829   6.811  1.4790  1.1974 -0.7829
 1740TIP3   OH226854   5.332   6.297   7.605 -0.1461 -0.0955 -0.2126
 1740TIP3    H126855   5.241   6.267   7.605 -0.4546  0.8114 -0.4597
 1740TIP3    H226856   5.380   6.229   7.557 -0.4818 -1.1595  0.9098
 1741TIP3   OH226857   2.404   3.323   1.195  0.3033  0.0278 -0.5691
 1741TIP3    H126858   2.375   3.314   1.286 -2.2735 -3.0782 -1.5054
 1741TIP3    H226859   2.341   3.383   1.155  1.7070  1.7629 -0.2988
 1742TIP3   OH226860   2.107   3.927   1.105  0.6371 -0.2375  0.2088
 1742TIP3    H126861   2.178   3.877   1.063  0.6901 -0.2008  0.2542
 1742TIP3    H226862   2.128   4.018   1.085  0.3329 -0.2552 -0.1977
 1743TIP3   OH226863   0.171   3.280   1.810  0.2570 -0.0825 -0.1579
 1743TIP3    H126864   0.208   3.225   1.879 -0.7118 -1.1390 -0.4415
 1743TIP3    H226865   0.119   3.345   1.857 -0.3867 -0.7877  0.1290
 1744TIP3   OH226866   0.721   6.480   8.346 -0.0972  0.0692 -0.3241
 1744TIP3    H126867   0.770   6.534   8.408 -2.3712  0.4680  1.2604
 1744TIP3    H226868   0.686   6.409   8.399  1.1303 -1.9014 -1.9909
 1745TIP3   OH226869   5.334   6.588   8.589 -1.1679 -0.5155  0.0943
 1745TIP3    H126870   5.368   6.597   8.678 -2.8467  0.4660  0.6843
 1745TIP3    H226871   5.318   6.494   8.579  2.2705 -1.1523 -0.5029
 1746TIP3   OH226872   2.186   0.024   0.981 -0.1198 -0.2069 -0.1284
 1746TIP3    H126873   2.113   0.085   0.984  1.8424  2.4276 -1.4749
 1746TIP3    H226874   2.195  -0.007   1.072 -1.0016  1.7976  0.7021
 1747TIP3   OH226875   0.318   3.367   0.484  0.0284 -0.2385  0.5140
 1747TIP3    H126876   0.398   3.386   0.434 -0.2061 -0.4749  0.0410
 1747TIP3    H226877   0.274   3.300   0.432 -2.0118  2.0133 -0.8883
 1748TIP3   OH226878   2.158   3.536   7.562  0.3142 -0.3766  0.3020
 1748TIP3    H126879   2.104   3.598   7.609  1.1150  0.1816  0.4990
 1748TIP3    H226880   2.099   3.463   7.541 -0.5704  0.3468  0.2530
 1749TIP3   OH226881   6.807   6.110   7.756  0.3281  0.3737 -0.1660
 1749TIP3    H126882   6.898   6.128   7.782  0.8487 -0.9048 -1.0448
 1749TIP3    H226883   6.808   6.020   7.724 -0.8744  0.9204 -1.8750
 1750TIP3   OH226884   4.116   6.721   0.597  0.0381  0.1689 -0.5475
 1750TIP3    H126885   4.140   6.754   0.683  1.6421 -2.3510  0.0704
 1750TIP3    H226886   4.025   6.694   0.606 -0.8504  2.8328 -0.6646
 1751TIP3   OH226887   1.961   6.806   7.000  0.8400 -0.7201  0.5211
 1751TIP3    H126888   2.015   6.874   7.042 -0.6122  0.0083  1.2693
 1751TIP3    H226889   1.937   6.747   7.072  0.5806 -1.0094  0.2005
 1752TIP3   OH226890   2.377   6.305   7.216  0.2093 -0.1258  0.4657
 1752TIP3    H126891   2.401   6.367   7.147  0.2933 -0.4455  0.2072
 1752TIP3    H226892   2.286   6.282   7.198  0.0228  0.2931  0.8458
 1753TIP3   OH226893   2.510   6.396   8.476  0.0954  0.3050  0.0979
 1753TIP3    H126894   2.556   6.348   8.408  2.0665  0.4388  1.2817
 1753TIP3    H226895   2.490   6.331   8.543  2.6344  0.9953  1.6345
 1754TIP3   OH226896   0.763   5.496   1.157  0.0610  0.0549 -0.1599
 1754TIP3    H126897   0.704   5.421   1.154 -0.0757  0.1455  0.1545
 1754TIP3    H226898   0.822   5.484   1.083 -0.3499 -0.0397 -0.4726
 1755TIP3   OH226899   2.691   0.705   1.461  0.2714 -0.5015  0.3330
 1755TIP3    H126900   2.703   0.635   1.525  0.8432 -0.6339  0.0902
 1755TIP3    H226901   2.673   0.783   1.514  0.9904 -0.5563  0.6821
 1756TIP3   OH226902   2.887   0.394   7.331 -0.1583  0.2337 -0.2033
 1756TIP3    H126903   2.817   0.426   7.274  0.3759  1.8654  0.0042
 1756TIP3    H226904   2.968   0.422   7.288  0.2737  0.6953  0.8708
 1757TIP3   OH226905   6.168   4.441   0.526 -0.2219 -0.3783 -0.4793
 1757TIP3    H126906   6.144   4.403   0.610 -1.2251 -0.6298 -0.8588
 1757TIP3    H226907   6.137   4.532   0.531  0.4149 -0.1709 -0.2918
 1758TIP3   OH226908   5.897   0.478   1.751 -0.0004 -0.2552  0.5630
 1758TIP3    H126909   5.861   0.520   1.673 -0.2234 -0.9373  0.2898
 1758TIP3    H226910   5.846   0.398   1.761 -0.6557  0.3190  2.0201
 1759TIP3   OH226911   4.219   5.145   8.403  0.0049 -0.3282 -0.2527
 1759TIP3    H126912   4.226   5.206   8.329 -2.9321  0.9813  0.4412
 1759TIP3    H226913   4.213   5.201   8.480 -2.0270 -1.4524  0.4835
 1760TIP3   OH226914   6.617   1.943   0.808  0.0176 -0.1911 -0.2828
 1760TIP3    H126915   6.530   1.920   0.843  0.5497 -0.6301  0.8113
 1760TIP3    H226916   6.678   1.899   0.867  0.9850 -0.8542 -1.7165
 1761TIP3   OH226917   5.078   0.901   0.470 -0.3655 -0.0418 -0.1485
 1761TIP3    H126918   5.128   0.888   0.550  0.0590 -0.1692 -0.4296
 1761TIP3    H226919   5.043   0.990   0.477 -0.0964  0.0474  0.0510
 1762TIP3   OH226920   6.540   3.870   1.375 -0.2146  0.6219  0.5008
 1762TIP3    H126921   6.629   3.903   1.371  0.7770 -1.8917 -0.2304
 1762TIP3    H226922   6.547   3.786   1.420 -1.8234 -0.6671 -1.4342
 1763TIP3   OH226923   4.560   6.782   6.765 -0.4198  0.5540 -0.3125
 1763TIP3    H126924   4.508   6.846   6.716 -2.2916  1.3168  2.3861
 1763TIP3    H226925   4.612   6.834   6.826 -0.6449 -0.3946  0.7373
 1764TIP3   OH226926   3.624   5.082   0.050 -0.4734 -0.1644 -0.0291
 1764TIP3    H126927   3.661   5.042  -0.029  1.5675  1.0725  0.2227
 1764TIP3    H226928   3.670   5.039   0.122 -0.3019  0.6197  0.3429
 1765TIP3   OH226929   0.029   2.479   8.517  0.4896  0.4885 -0.1740
 1765TIP3    H126930   0.072   2.557   8.483  0.0167  0.1230 -1.6803
 1765TIP3    H226931  -0.059   2.480   8.478 -0.1453  0.1071  1.1676
 1766TIP3   OH226932   2.041   6.017   6.524  0.6404  0.1837  0.2255
 1766TIP3    H126933   2.125   6.034   6.482  0.3465  0.1403 -0.3851
 1766TIP3    H226934   1.987   6.092   6.500  0.4414  0.1201  0.4659
 1767TIP3   OH226935   0.462   4.472   1.151  0.5668  0.0943  0.2599
 1767TIP3    H126936   0.538   4.477   1.092  1.0578 -0.3944  0.8331
 1767TIP3    H226937   0.492   4.416   1.223 -0.1041  0.4815  0.8500
 1768TIP3   OH226938   0.829   1.945   6.848  0.2954  0.9096 -0.2111
 1768TIP3    H126939   0.886   1.880   6.809  0.8463  1.8881 -1.0673
 1768TIP3    H226940   0.754   1.950   6.789 -1.4664 -1.3969  1.6189
 1769TIP3   OH226941   6.072   4.757   7.644  0.4175  0.0404 -0.0238
 1769TIP3    H126942   6.136   4.712   7.589  0.8796 -0.9421  1.2783
 1769TIP3    H226943   6.121   4.786   7.720 -0.1255  1.7835 -0.2911
 1770TIP3   OH226944   0.207   6.475   1.979 -0.8462  0.2051 -0.3521
 1770TIP3    H126945   0.153   6.397   1.966 -1.3114  0.2951  0.9329
 1770TIP3    H226946   0.145   6.548   1.980 -0.6704  0.3627  0.5963
 1771TIP3   OH226947   0.426   6.643   8.462 -0.2368  0.4013  0.2551
 1771TIP3    H126948   0.368   6.646   8.539  0.8017  0.9104  1.0492
 1771TIP3    H226949   0.503   6.692   8.489  0.1056  0.6987 -1.1765
 1772TIP3   OH226950   0.663   1.248   0.815  0.6085 -0.5416 -0.4607
 1772TIP3    H126951   0.660   1.344   0.824  0.4571 -0.7151  2.0894
 1772TIP3    H226952   0.597   1.216   0.876 -1.0114 -2.2791 -2.9478
 1773TIP3   OH226953   5.269   3.361   8.613  0.0663  0.2601 -0.8683
 1773TIP3    H126954   5.265   3.432   8.678  1.3220  0.3280 -0.8531
 1773TIP3    H226955   5.195   3.305   8.635  1.0274 -0.2696  1.2787
 1774TIP3   OH226956   3.684   0.060   0.987 -0.3254 -0.0717 -0.4115
 1774TIP3    H126957   3.675   0.129   1.052  0.6413  0.2005 -0.5502
 1774TIP3    H226958   3.745   0.096   0.922 -2.1960  0.1741 -2.1468
 1775TIP3   OH226959   2.283   4.035   6.128 -0.0549 -0.1168  0.6193
 1775TIP3    H126960   2.319   4.027   6.216  0.2347  1.0526  0.6220
 1775TIP3    H226961   2.327   4.111   6.091 -0.5435 -0.2953 -0.3551
 1776TIP3   OH226962   5.482   2.355   2.707  0.0135 -0.6527  0.6597
 1776TIP3    H126963   5.472   2.282   2.768 -0.1236 -0.4482  0.8851
 1776TIP3    H226964   5.532   2.319   2.634  1.0436 -0.6526  1.3315
 1777TIP3   OH226965   1.603   4.502   1.099 -0.6944 -0.1928  0.3771
 1777TIP3    H126966   1.593   4.576   1.159  1.1506 -0.2261  0.7669
 1777TIP3    H226967   1.633   4.542   1.017  0.1345 -0.4687  0.5364
 1778TIP3   OH226968   6.271   2.679   6.205 -0.2632  0.3962 -0.5139
 1778TIP3    H126969   6.346   2.643   6.158 -0.7997 -0.6033 -0.6293
 1778TIP3    H226970   6.255   2.764   6.163  0.4904  0.4078 -0.8054
 1779TIP3   OH226971   3.755   4.132   7.419  0.1080 -0.4917  1.1315
 1779TIP3    H126972   3.820   4.069   7.452 -0.7510 -2.2643 -0.3887
 1779TIP3    H226973   3.803   4.215   7.414  1.8658 -1.4454  1.3606
 1780TIP3   OH226974   1.173   5.012   8.513  0.3853 -0.1790 -0.0987
 1780TIP3    H126975   1.143   4.921   8.515 -0.8171  0.1826 -0.3457
 1780TIP3    H226976   1.108   5.059   8.566  1.8831  0.3163  1.4016
 1781TIP3   OH226977   2.459   4.956   7.291  0.1595 -0.2430  0.1955
 1781TIP3    H126978   2.411   5.011   7.228  1.1979  0.0288 -0.3874
 1781TIP3    H226979   2.398   4.886   7.313 -1.4241  1.4050  1.3830
 1782TIP3   OH226980   5.301   4.948   6.146 -0.1336  0.3724 -0.0141
 1782TIP3    H126981   5.326   4.985   6.061  1.5315 -0.8649 -0.1279
 1782TIP3    H226982   5.208   4.965   6.154 -0.1942  1.0673 -1.8128
 1783TIP3   OH226983   2.768   1.684   1.521 -0.0452  0.2836  0.1572
 1783TIP3    H126984   2.676   1.697   1.546  0.0558  0.4497  0.4597
 1783TIP3    H226985   2.797   1.610   1.574  0.5844  1.5553  1.6844
 1784TIP3   OH226986   3.540   0.514   1.663 -0.1927  0.5525 -0.3579
 1784TIP3    H126987   3.569   0.423   1.667 -1.1578  0.2787  1.2458
 1784TIP3    H226988   3.588   0.551   1.589  1.2689 -0.8908 -0.1918
 1785TIP3   OH226989   5.522   4.827   7.616 -0.0825 -0.7326 -0.1018
 1785TIP3    H126990   5.615   4.820   7.641 -0.2860  2.4087  2.1526
 1785TIP3    H226991   5.523   4.859   7.526  0.8920 -3.0098 -0.9773
 1786TIP3   OH226992   5.787   1.659   8.074 -1.0158 -0.0219 -0.2372
 1786TIP3    H126993   5.787   1.662   8.170  0.6595  1.9877 -0.2264
 1786TIP3    H226994   5.788   1.751   8.047  1.0446 -0.5034 -2.1180
 1787TIP3   OH226995   1.344   6.297   7.782  0.1376 -0.6350  0.4471
 1787TIP3    H126996   1.346   6.254   7.868  1.7681 -0.6263  0.4270
 1787TIP3    H226997   1.275   6.363   7.791 -0.5499 -1.4307  1.3438
 1788TIP3   OH226998   0.148   5.855   7.660  0.0397  0.5448 -0.0637
 1788TIP3    H126999   0.053   5.840   7.658 -0.0779  0.6686  1.9809
 1788TIP3    H227000   0.185   5.767   7.669 -0.0696  0.6381  1.6928
 1789TIP3   OH227001   4.752   2.237   2.376 -0.1432  0.4451  0.0734
 1789TIP3    H127002   4.768   2.201   2.463  0.3103 -0.9204 -0.5341
 1789TIP3    H227003   4.831   2.216   2.327  0.5644  3.2113 -0.0937
 1790TIP3   OH227004   0.371   1.720   1.719  0.3371 -0.6300  0.0784
 1790TIP3    H127005   0.289   1.770   1.723  0.6809 -0.0000 -0.4289
 1790TIP3    H227006   0.439   1.786   1.735  0.6897 -1.4580  2.4620
 1791TIP3   OH227007   1.774   2.502   6.979 -0.1311 -0.0018  0.1188
 1791TIP3    H127008   1.732   2.447   6.913 -0.1797  1.0340 -0.7502
 1791TIP3    H227009   1.702   2.549   7.022  0.0349  1.1988 -0.8448
 1792TIP3   OH227010   1.372   5.247   0.378 -0.6900  0.3988  0.6235
 1792TIP3    H127011   1.416   5.188   0.440  0.0202 -2.2335 -2.1748
 1792TIP3    H227012   1.440   5.274   0.317 -2.3047 -1.7363 -2.3393
 1793TIP3   OH227013   3.883   0.838   0.399 -0.6136 -0.1776  0.2201
 1793TIP3    H127014   3.806   0.821   0.453 -0.5749  0.6755  0.5467
 1793TIP3    H227015   3.930   0.908   0.444 -1.0802  1.2456 -1.3943
 1794TIP3   OH227016   5.708   1.906   7.526  0.0292 -0.7387 -0.1507
 1794TIP3    H127017   5.681   1.814   7.532  0.2344 -0.7924 -0.0497
 1794TIP3    H227018   5.802   1.902   7.506  0.0319 -0.5516 -0.1736
 1795TIP3   OH227019   6.768   2.911   1.280  0.2830  0.3637  0.1071
 1795TIP3    H127020   6.690   2.906   1.224  1.5471  0.4233 -1.7666
 1795TIP3    H227021   6.813   2.990   1.251  1.9790 -0.6730 -0.1956
 1796TIP3   OH227022   5.126   4.286   8.119  0.3628 -0.5331  0.0329
 1796TIP3    H127023   5.101   4.211   8.065  1.8738 -0.7726 -0.3861
 1796TIP3    H227024   5.199   4.253   8.172  0.5035  0.4187  0.4416
 1797TIP3   OH227025   3.080   6.613   7.570  0.3888 -0.6356 -0.6686
 1797TIP3    H127026   3.041   6.536   7.528 -2.1558  0.1978 -0.0109
 1797TIP3    H227027   3.045   6.611   7.660  0.3188  1.2146 -0.6156
 1798TIP3   OH227028   0.734   5.525   6.101 -0.1048  0.1658  0.4472
 1798TIP3    H127029   0.674   5.512   6.175  0.4050  0.2292  0.8739
 1798TIP3    H227030   0.697   5.471   6.031 -1.6128  1.4992  0.1449
 1799TIP3   OH227031   3.886   1.072   7.734 -0.7661  0.4667 -0.1128
 1799TIP3    H127032   3.861   0.981   7.752 -0.3288  0.4330  0.3529
 1799TIP3    H227033   3.936   1.067   7.653 -1.3889  0.4008 -0.5036
 1800TIP3   OH227034   4.613   5.726   0.861  0.2048  0.4546  0.1821
 1800TIP3    H127035   4.635   5.645   0.908 -1.7791 -0.0697  0.3203
 1800TIP3    H227036   4.610   5.793   0.928 -1.2770 -0.0278  0.6513
 1801TIP3   OH227037   4.012   3.819   0.123 -0.0704  0.6078  0.0103
 1801TIP3    H127038   4.073   3.890   0.106 -1.6422  1.8443 -0.7906
 1801TIP3    H227039   3.956   3.816   0.045 -1.5725  0.1461  1.0456
 1802TIP3   OH227040   3.978   5.292   8.553  0.1671 -0.2156 -0.1783
 1802TIP3    H127041   3.903   5.336   8.594  0.0890 -0.9072  0.4293
 1802TIP3    H227042   4.055   5.332   8.592  0.1744  1.3355 -1.6506
 1803TIP3   OH227043   5.647   6.179   0.719  0.5279 -0.2306  0.4172
 1803TIP3    H127044   5.680   6.255   0.671 -0.0531 -0.2325 -0.0001
 1803TIP3    H227045   5.593   6.216   0.789  0.9277 -0.2410  0.7335
 1804TIP3   OH227046   4.048   3.628   1.361 -0.3995  0.1374  0.2906
 1804TIP3    H127047   4.073   3.572   1.434 -0.1903  0.2247  0.2853
 1804TIP3    H227048   3.971   3.586   1.323 -1.2132  0.6954  1.2765
 1805TIP3   OH227049   1.272   1.170   7.661 -0.0542  1.0797  0.3599
 1805TIP3    H127050   1.280   1.124   7.578 -1.1009 -1.1604  1.4088
 1805TIP3    H227051   1.316   1.254   7.647 -1.4323  1.3860 -2.8547
 1806TIP3   OH227052   3.630   1.385   7.433 -0.0960  0.4681 -0.7530
 1806TIP3    H127053   3.571   1.327   7.480 -0.1582  0.9536 -0.2268
 1806TIP3    H227054   3.710   1.332   7.421  0.3159  0.6700  0.8256
 1807TIP3   OH227055   5.809   5.048   8.532 -0.1640 -0.3067 -0.0956
 1807TIP3    H127056   5.895   5.078   8.562 -0.4614  0.2696  0.1976
 1807TIP3    H227057   5.797   4.962   8.574  0.4317 -0.5684 -0.4503
 1808TIP3   OH227058   6.265   1.931   7.660  0.0893  0.8458 -0.1513
 1808TIP3    H127059   6.322   2.004   7.635  0.3627  0.7774  0.2637
 1808TIP3    H227060   6.326   1.859   7.678 -0.2148  0.2564 -1.3864
 1809TIP3   OH227061   6.674   0.873   1.349  0.1636  0.1293 -0.3728
 1809TIP3    H127062   6.621   0.847   1.274  0.7754 -0.7367 -0.5253
 1809TIP3    H227063   6.645   0.962   1.370 -0.0027  0.3902 -1.6408
 1810TIP3   OH227064   4.677   2.228   1.973 -0.0575  0.6703  0.0722
 1810TIP3    H127065   4.739   2.280   2.024  0.1159  1.6378 -1.0610
 1810TIP3    H227066   4.591   2.251   2.009  0.1083  0.7927  0.3928
 1811TIP3   OH227067   0.704   1.834   1.651  0.1230 -0.3256 -0.0321
 1811TIP3    H127068   0.787   1.870   1.682 -0.1676  1.1558 -0.9297
 1811TIP3    H227069   0.637   1.884   1.698 -0.2807 -0.0834 -0.8587
 1812TIP3   OH227070   0.495   4.167   0.147  0.6093 -0.2136  0.4200
 1812TIP3    H127071   0.561   4.198   0.084  0.2726 -0.8921 -0.2799
 1812TIP3    H227072   0.471   4.246   0.196 -0.0192  0.6033 -1.1295
 1813TIP3   OH227073   3.829   6.579   7.811  0.3737 -0.1371  0.1995
 1813TIP3    H127074   3.796   6.513   7.871  0.1497  0.4863  0.7677
 1813TIP3    H227075   3.895   6.533   7.759  0.4332 -0.7249  0.7885
 1814TIP3   OH227076   6.066   1.814   8.482  0.6217 -0.2470  0.2873
 1814TIP3    H127077   6.085   1.893   8.431 -0.3622  0.4688  0.9772
 1814TIP3    H227078   6.151   1.776   8.501  1.1079  0.5876 -0.1694
 1815TIP3   OH227079   1.899   3.382   0.936 -0.2382 -0.1235  0.5611
 1815TIP3    H127080   1.860   3.453   0.885  1.1220  0.8279  0.7599
 1815TIP3    H227081   1.919   3.422   1.021 -0.3855 -1.0433  1.0394
 1816TIP3   OH227082   3.537   0.917   8.370  0.3535  0.1827  0.5163
 1816TIP3    H127083   3.556   0.837   8.321 -1.1475 -0.9166  1.6085
 1816TIP3    H227084   3.622   0.948   8.400  1.0078 -0.7514 -0.3120
 1817TIP3   OH227085   2.553   1.899   7.022 -0.2022 -0.2710 -0.3445
 1817TIP3    H127086   2.558   1.916   6.928 -0.6709 -0.4005 -0.3966
 1817TIP3    H227087   2.630   1.943   7.059 -0.8891  1.1811 -0.5875
 1818TIP3   OH227088   3.313   2.329   0.574 -0.2654 -0.2665  0.3233
 1818TIP3    H127089   3.220   2.315   0.591  0.0680 -0.9516  1.8320
 1818TIP3    H227090   3.356   2.257   0.621  1.1069  1.0755  1.2155
 1819TIP3   OH227091   5.938   5.382   1.860  0.7687  0.2638 -0.1723
 1819TIP3    H127092   6.029   5.408   1.848  0.8559  0.2463  0.4535
 1819TIP3    H227093   5.927   5.307   1.801  1.7190 -0.9886  1.1816
 1820TIP3   OH227094   5.678   6.543   6.531 -0.5785  0.4776 -0.0145
 1820TIP3    H127095   5.768   6.571   6.513 -0.6862  0.8407  0.0158
 1820TIP3    H227096   5.671   6.546   6.626 -0.4797  0.0038  0.0100
 1821TIP3   OH227097   3.737   3.688   7.552 -0.0320 -0.2722 -0.6331
 1821TIP3    H127098   3.659   3.710   7.501 -0.8965 -1.3471  0.1820
 1821TIP3    H227099   3.810   3.722   7.500 -1.1293  2.9101 -0.3341
 1822TIP3   OH227100   3.440   3.262   8.256  0.1972 -0.0417 -0.0291
 1822TIP3    H127101   3.514   3.268   8.197 -0.2566  2.4591 -0.4462
 1822TIP3    H227102   3.474   3.291   8.341 -0.0022 -0.2386  0.1231
 1823TIP3   OH227103   5.788   0.013   7.735 -0.4838 -0.2411  0.9043
 1823TIP3    H127104   5.783   0.054   7.822  1.2041 -0.3106  1.0573
 1823TIP3    H227105   5.838  -0.067   7.749  2.8281  1.3635 -0.6363
 1824TIP3   OH227106   1.654   1.446   0.425 -0.0650 -0.5851  0.4078
 1824TIP3    H127107   1.655   1.403   0.510 -0.4523 -0.6778  0.3679
 1824TIP3    H227108   1.585   1.513   0.433 -0.4634 -0.9397  0.0025
 1825TIP3   OH227109   5.820   2.305   7.179 -0.6123  0.2251 -0.0581
 1825TIP3    H127110   5.895   2.334   7.127 -2.1237  1.2059 -1.8332
 1825TIP3    H227111   5.857   2.278   7.263  1.8708 -0.7347 -1.3747
 1826TIP3   OH227112   4.117   6.105   7.026 -0.7896  0.6183 -0.4929
 1826TIP3    H127113   4.211   6.121   7.019 -0.9560  1.8973  0.0034
 1826TIP3    H227114   4.090   6.088   6.936 -0.2482  1.2876 -0.7976
 1827TIP3   OH227115   1.203   4.649   0.451 -0.4576  0.3362  0.1897
 1827TIP3    H127116   1.132   4.685   0.397 -1.1622  0.3181  1.0829
 1827TIP3    H227117   1.214   4.560   0.419 -1.1665  0.1830  0.3394
 1828TIP3   OH227118   0.155   4.225   8.045 -0.0122 -0.1790  0.3470
 1828TIP3    H127119   0.241   4.191   8.020 -0.4540 -2.1034  1.2555
 1828TIP3    H227120   0.130   4.172   8.121 -1.6990  0.8116  0.5207
 1829TIP3   OH227121   5.411   2.296   7.886  0.3920  0.1412  0.1715
 1829TIP3    H127122   5.354   2.234   7.841  0.2013 -0.3920  1.1212
 1829TIP3    H227123   5.351   2.346   7.943  0.6378  0.7314 -0.0857
 1830TIP3   OH227124   0.046   1.993   8.390  0.2360  0.1936  0.3183
 1830TIP3    H127125   0.028   1.904   8.421 -1.4999  0.1638 -0.6636
 1830TIP3    H227126  -0.040   2.030   8.372  1.0253  1.2995 -1.4001
 1831TIP3   OH227127   3.063   2.117   1.271 -0.2373 -0.3421 -0.2567
 1831TIP3    H127128   3.090   2.076   1.353 -1.1330 -0.6090 -0.0890
 1831TIP3    H227129   2.990   2.174   1.295 -0.2099 -0.0768 -0.7942
 1832TIP3   OH227130   0.731   5.072   7.654  0.2709  0.3070 -0.3973
 1832TIP3    H127131   0.682   4.997   7.621  0.9297  0.2061 -1.1833
 1832TIP3    H227132   0.819   5.061   7.619  0.6157  0.9758  0.2227
 1833TIP3   OH227133   6.520   4.221   8.213  0.1383 -0.0580 -0.7315
 1833TIP3    H127134   6.532   4.231   8.307  0.1429 -1.6159 -0.5376
 1833TIP3    H227135   6.586   4.157   8.186 -1.5364 -1.6366 -1.2956
 1834TIP3   OH227136   6.771   6.564   7.683  0.5776  0.3392  0.0149
 1834TIP3    H127137   6.678   6.541   7.687  0.1315  1.9627 -0.1268
 1834TIP3    H227138   6.806   6.537   7.768 -0.2078  0.4232  0.3742
 1835TIP3   OH227139   4.126   5.241   0.697 -0.2634 -0.0112 -0.0740
 1835TIP3    H127140   4.204   5.287   0.665  1.8172 -1.3434  2.7040
 1835TIP3    H227141   4.108   5.177   0.629  2.3135 -0.9578  0.0184
 1836TIP3   OH227142   0.865   5.668   6.876  0.0992 -0.7268  0.3138
 1836TIP3    H127143   0.819   5.687   6.794 -1.2629  0.2873  1.2550
 1836TIP3    H227144   0.952   5.639   6.849 -0.1429  0.0556 -1.4695
 1837TIP3   OH227145   2.628   3.820   1.334 -0.1411 -0.2689  0.0467
 1837TIP3    H127146   2.653   3.807   1.243  0.7491  1.3121  0.0326
 1837TIP3    H227147   2.706   3.797   1.384  0.3463  1.5511  0.2009
 1838TIP3   OH227148   6.344   4.879   1.059 -0.6595  0.4529 -0.4323
 1838TIP3    H127149   6.427   4.832   1.055 -0.7812  0.1904  0.0754
 1838TIP3    H227150   6.369   4.972   1.059 -0.4711  0.4547 -2.7841
 1839TIP3   OH227151   6.239   1.097   8.188  0.3407 -0.2930  0.3537
 1839TIP3    H127152   6.200   1.048   8.261  0.6154 -1.4388 -0.2477
 1839TIP3    H227153   6.224   1.042   8.112 -1.6327  1.7341 -0.8354
 1840TIP3   OH227154   0.919   3.327   6.983 -0.1699  0.0776  0.1735
 1840TIP3    H127155   1.010   3.355   6.989 -0.4934  1.2397 -0.0623
 1840TIP3    H227156   0.916   3.245   7.032  1.3235 -0.7955 -1.1053
 1841TIP3   OH227157   2.683   6.745   7.556  0.8125 -0.1223 -0.1048
 1841TIP3    H127158   2.676   6.746   7.460  0.1152 -1.0830 -0.0771
 1841TIP3    H227159   2.631   6.820   7.584  0.6379 -0.1043 -0.4618
 1842TIP3   OH227160   6.617   0.735   7.334 -0.4887  0.1044  0.7923
 1842TIP3    H127161   6.709   0.716   7.354  0.0009  2.3105  0.8326
 1842TIP3    H227162   6.616   0.756   7.241 -1.1895 -0.9887  0.5238
 1843TIP3   OH227163   0.699   2.047   1.110 -0.2208  0.5221  0.3447
 1843TIP3    H127164   0.619   2.098   1.123 -1.5358 -1.0386 -1.1001
 1843TIP3    H227165   0.696   1.979   1.177 -0.8435 -0.3416 -0.5256
 1844TIP3   OH227166   3.297   5.239   8.197 -0.2139 -0.5883 -0.0079
 1844TIP3    H127167   3.245   5.224   8.276 -0.1496 -1.8269 -0.1881
 1844TIP3    H227168   3.235   5.227   8.125 -0.7411  2.3497 -0.1805
 1845TIP3   OH227169   0.764   0.702   8.245  0.1484 -0.1093 -0.6856
 1845TIP3    H127170   0.804   0.648   8.178  0.4875  0.2402 -0.7664
 1845TIP3    H227171   0.805   0.788   8.236 -1.8687  0.8007 -1.9674
 1846TIP3   OH227172   0.127   1.673   7.936 -0.0921  0.1765 -0.5252
 1846TIP3    H127173   0.059   1.720   7.887 -0.7619 -0.3111 -0.0810
 1846TIP3    H227174   0.098   1.676   8.027  0.1924 -0.5202 -0.4035
 1847TIP3   OH227175   6.247   5.395   0.504  0.0717  0.2321  0.1786
 1847TIP3    H127176   6.223   5.464   0.566 -0.8400  0.0620  0.0287
 1847TIP3    H227177   6.207   5.316   0.539  0.5182 -0.0867 -0.0234
 1848TIP3   OH227178   5.293   1.546   8.034  0.3970 -0.6341 -0.1181
 1848TIP3    H127179   5.353   1.613   8.069  1.5879 -1.1493 -1.1247
 1848TIP3    H227180   5.271   1.578   7.947  0.6359 -1.3514 -0.4395
 1849TIP3   OH227181   6.671   4.306   7.483 -0.5347  0.0707  0.1807
 1849TIP3    H127182   6.584   4.290   7.446 -0.8994 -0.0978  1.0719
 1849TIP3    H227183   6.715   4.221   7.478 -0.3908  0.1759 -0.3458
 1850TIP3   OH227184   6.276   3.689   0.087  0.6350 -0.2689  0.0469
 1850TIP3    H127185   6.238   3.660   0.170  0.5913 -0.4407 -0.0327
 1850TIP3    H227186   6.347   3.747   0.113  0.1298  0.2941  0.1920
 1851TIP3   OH227187   3.031   5.641   7.714 -0.2903  0.1797 -0.5047
 1851TIP3    H127188   3.101   5.576   7.726 -0.0267  0.0765 -2.3598
 1851TIP3    H227189   3.071   5.710   7.662 -1.5359  0.1360 -1.5774
 1852TIP3   OH227190   6.872   3.863   1.916  0.4835  0.0373  0.3068
 1852TIP3    H127191   6.862   3.833   2.006 -1.8055  0.3567  0.2233
 1852TIP3    H227192   6.879   3.783   1.865 -1.6932 -0.3303  0.4789
 1853TIP3   OH227193   5.761   2.252   2.226  0.4634  0.1482  0.5980
 1853TIP3    H127194   5.714   2.293   2.154  0.3326  0.8738  1.0943
 1853TIP3    H227195   5.845   2.298   2.230  0.8047 -0.4368  0.3945
 1854TIP3   OH227196   0.282   1.001   1.829  0.5278 -0.1466  0.5525
 1854TIP3    H127197   0.272   0.913   1.866  0.1283 -0.3120  0.0698
 1854TIP3    H227198   0.332   1.049   1.895  0.3444 -0.6007  1.0358
 1855TIP3   OH227199   2.205   2.056   1.612 -0.2841 -0.4375 -0.1110
 1855TIP3    H127200   2.292   2.049   1.571 -0.2647 -0.6665 -0.0317
 1855TIP3    H227201   2.224   2.072   1.704 -0.3113  1.7140 -0.4190
 1856TIP3   OH227202   5.956   6.422   1.557 -0.0186  0.0054  0.2211
 1856TIP3    H127203   5.871   6.400   1.518  0.3011  1.1360 -1.2433
 1856TIP3    H227204   6.017   6.421   1.483  1.1877 -0.4200  1.1811
 1857TIP3   OH227205   0.121   5.393   8.081  0.5739  0.1026 -0.7163
 1857TIP3    H127206   0.044   5.378   8.026  0.4983 -1.8149 -0.1840
 1857TIP3    H227207   0.184   5.327   8.052 -0.4921 -3.1008  3.2184
 1858TIP3   OH227208   4.563   5.861   7.586  0.7253  0.4693  0.0299
 1858TIP3    H127209   4.571   5.929   7.520  0.0707  0.8442  0.3273
 1858TIP3    H227210   4.493   5.804   7.553  0.5080  0.5687  0.3140
 1859TIP3   OH227211   5.775   4.440   7.961  0.3119  0.7995  0.0528
 1859TIP3    H127212   5.730   4.477   7.885 -0.1395 -1.7193 -1.0100
 1859TIP3    H227213   5.850   4.393   7.925  1.5050  1.5681  1.4303
 1860TIP3   OH227214   0.587   1.876   7.514  0.1502  0.1974  0.2346
 1860TIP3    H127215   0.520   1.936   7.545 -0.4323 -0.1433 -0.3454
 1860TIP3    H227216   0.543   1.822   7.448  1.0779  0.1920 -0.3988
 1861TIP3   OH227217   6.141   2.469   0.892  0.0654 -0.3974 -0.0662
 1861TIP3    H127218   6.178   2.487   0.979  1.6963 -0.3251 -0.7477
 1861TIP3    H227219   6.159   2.548   0.841  0.7451 -1.1311 -0.9878
 1862TIP3   OH227220   1.377   6.798   7.789 -0.7701  0.3893 -0.3301
 1862TIP3    H127221   1.468   6.793   7.819 -0.9115 -1.3783 -0.0806
 1862TIP3    H227222   1.327   6.824   7.866 -0.5798  0.3818 -0.2047
 1863TIP3   OH227223   5.768   2.280   6.494  0.0074 -0.2540  0.3590
 1863TIP3    H127224   5.753   2.355   6.436 -0.4597  0.5357  1.4667
 1863TIP3    H227225   5.722   2.207   6.451 -0.7226  0.4236 -0.0309
 1864TIP3   OH227226   1.896   6.541   0.293  0.5153 -0.6907 -0.4690
 1864TIP3    H127227   1.862   6.475   0.232  0.8482  0.4421 -1.9661
 1864TIP3    H227228   1.829   6.609   0.295  1.7862  0.7176 -2.0406
 1865TIP3   OH227229   4.087   1.547   7.423  0.0734  0.1966  0.2646
 1865TIP3    H127230   4.148   1.533   7.496 -0.0949 -0.6174  0.2616
 1865TIP3    H227231   4.000   1.540   7.463 -0.0197 -0.3754 -0.0318
 1866TIP3   OH227232   1.796   4.691   8.250 -0.4664 -0.4648  0.1053
 1866TIP3    H127233   1.756   4.749   8.315  0.3581  1.3897 -0.9718
 1866TIP3    H227234   1.725   4.668   8.190 -0.5108  0.6044 -0.2638
 1867TIP3   OH227235   4.231   2.321   8.203 -0.4707 -0.0436 -0.3025
 1867TIP3    H127236   4.209   2.259   8.273  0.0250 -0.9361 -0.9114
 1867TIP3    H227237   4.183   2.288   8.127  0.4826 -0.1920 -0.8517
 1868TIP3   OH227238   0.051   4.950   1.526  0.3506 -0.0525 -0.0543
 1868TIP3    H127239   0.096   5.014   1.472  1.0121 -1.4601 -1.2673
 1868TIP3    H227240  -0.023   4.920   1.472 -0.4350  0.2517  0.8171
 1869TIP3   OH227241   4.676   5.637   0.611 -0.5555  0.2145  0.0020
 1869TIP3    H127242   4.613   5.573   0.579 -1.7084  1.3234 -0.0059
 1869TIP3    H227243   4.639   5.669   0.693 -0.5066  1.5896 -0.4935
 1870TIP3   OH227244   6.001   4.820   7.039 -0.5957  0.1706  0.4303
 1870TIP3    H127245   5.957   4.736   7.051  0.5316 -0.1591  2.9137
 1870TIP3    H227246   5.985   4.843   6.947  0.7043 -3.7250 -0.9726
 1871TIP3   OH227247   5.797   3.333   8.622 -0.3810  0.8227  0.4505
 1871TIP3    H127248   5.812   3.406   8.683 -2.6202  2.5282 -0.9205
 1871TIP3    H227249   5.704   3.335   8.604 -0.0995 -0.8695 -1.5502
 1872TIP3   OH227250   1.047   4.300   6.285 -0.2642  0.2653  0.1939
 1872TIP3    H127251   1.138   4.327   6.297 -0.2734  0.4445 -0.1481
 1872TIP3    H227252   1.001   4.380   6.260 -0.2261 -0.1302 -1.1849
 1873TIP3   OH227253   1.618   2.111   7.692  0.2598 -0.6201  0.3229
 1873TIP3    H127254   1.561   2.072   7.626  1.3128  0.3293 -1.2518
 1873TIP3    H227255   1.705   2.076   7.672  0.8713  0.8731  0.1595
 1874TIP3   OH227256   1.070   0.721   7.334  0.0118 -0.1978  0.1755
 1874TIP3    H127257   1.119   0.676   7.266 -0.4818 -0.2721 -0.1337
 1874TIP3    H227258   1.137   0.753   7.394  0.5505  0.9058 -0.9668
 1875TIP3   OH227259   4.069   4.965   6.590  0.0674  0.2309 -0.3054
 1875TIP3    H127260   3.977   4.940   6.577  0.3944 -1.7435  0.7068
 1875TIP3    H227261   4.096   4.918   6.669  2.2366 -0.0895 -1.1577
 1876TIP3   OH227262   2.491   6.518   6.158  0.6897 -0.2659 -0.5664
 1876TIP3    H127263   2.587   6.517   6.164  0.5825 -0.1032  2.5511
 1876TIP3    H227264   2.465   6.429   6.180  0.0856  0.6246  2.8321
 1877TIP3   OH227265   2.642   4.725   0.903 -0.6734 -0.0364  0.1506
 1877TIP3    H127266   2.738   4.726   0.911 -0.7213 -0.6323  0.8914
 1877TIP3    H227267   2.626   4.760   0.815  0.2896 -1.2447 -0.5429
 1878TIP3   OH227268   5.335   6.668   6.854  0.3248  0.1623 -0.2808
 1878TIP3    H127269   5.358   6.648   6.944  3.3308  0.1887 -0.9390
 1878TIP3    H227270   5.297   6.587   6.820 -1.5786  0.3859  1.1369
 1879TIP3   OH227271   3.262   6.267   6.870 -0.2296  0.0565 -0.0883
 1879TIP3    H127272   3.253   6.281   6.775  0.8934 -0.1043 -0.2253
 1879TIP3    H227273   3.312   6.186   6.878 -0.3559  0.0458  0.6519
 1880TIP3   OH227274   6.636   6.510   1.385  0.7966  0.0669 -0.5060
 1880TIP3    H127275   6.722   6.538   1.415  0.3184 -0.3881  1.4416
 1880TIP3    H227276   6.587   6.494   1.466 -0.5139 -1.5114 -1.5600
 1881TIP3   OH227277   3.630   0.903   6.590  0.4250  0.4004 -0.0760
 1881TIP3    H127278   3.683   0.901   6.511  2.4873 -0.7947  1.2513
 1881TIP3    H227279   3.662   0.979   6.639 -0.3189  0.6877 -0.0055
 1882TIP3   OH227280   4.982   4.510   0.904 -0.0036  0.1931  0.2042
 1882TIP3    H127281   5.064   4.494   0.950  0.0960 -1.5800 -0.4832
 1882TIP3    H227282   4.919   4.528   0.974  0.3224 -1.5808  1.0286
 1883TIP3   OH227283   5.989   4.285   7.863  0.2397 -0.4912 -0.0851
 1883TIP3    H127284   6.045   4.263   7.937  0.3136  0.3250  0.1063
 1883TIP3    H227285   6.008   4.218   7.797 -0.2992 -1.6114  0.8670
 1884TIP3   OH227286   0.639   3.824   1.812  0.0786 -0.4767 -0.3611
 1884TIP3    H127287   0.725   3.858   1.788  0.9707 -0.2375  2.7989
 1884TIP3    H227288   0.590   3.901   1.842 -0.7508 -0.8335 -0.7533
 1885TIP3   OH227289   4.980   5.199   0.256 -0.3648  0.3455 -1.0769
 1885TIP3    H127290   5.027   5.263   0.311 -1.5507 -0.2888  0.7711
 1885TIP3    H227291   5.038   5.123   0.253 -0.4989  0.1942 -0.2231
 1886TIP3   OH227292   6.535   4.987   6.291  0.2814  0.1484  0.5027
 1886TIP3    H127293   6.499   4.944   6.213  0.7193  0.0004  0.3782
 1886TIP3    H227294   6.552   4.916   6.352  1.7946  0.0268 -0.0218
 1887TIP3   OH227295   4.941   6.165   0.228 -0.2013 -0.3669 -0.7500
 1887TIP3    H127296   5.026   6.121   0.235  0.3044  0.4485 -1.5451
 1887TIP3    H227297   4.937   6.196   0.138 -0.9441  0.4082 -0.4642
 1888TIP3   OH227298   5.081   4.182   8.465 -0.6659  0.3777  0.0608
 1888TIP3    H127299   5.119   4.263   8.501  0.1463  0.2011 -0.3722
 1888TIP3    H227300   5.045   4.209   8.380 -1.0607  0.4375  0.2461
 1889TIP3   OH227301   6.190   0.272   8.203  0.1699  0.4129  0.4996
 1889TIP3    H127302   6.264   0.231   8.249  0.7462  3.3156  2.4604
 1889TIP3    H227303   6.113   0.227   8.238  0.8398 -0.6931  0.6231
 1890TIP3   OH227304   2.312   4.599   6.425 -0.3065  0.1342  0.0294
 1890TIP3    H127305   2.372   4.614   6.498  1.8265  2.8574 -2.0631
 1890TIP3    H227306   2.369   4.577   6.351 -2.2507 -0.9086 -1.2490
 1891TIP3   OH227307   4.755   2.490   8.279 -0.2253 -0.0471 -0.1978
 1891TIP3    H127308   4.678   2.493   8.224 -0.5715 -0.8074  0.2321
 1891TIP3    H227309   4.815   2.430   8.235  0.5647  1.3178 -1.0626
 1892TIP3   OH227310   1.392   0.156   0.147  0.0695  0.0551  0.6354
 1892TIP3    H127311   1.454   0.212   0.193 -0.6429 -0.7632  2.7065
 1892TIP3    H227312   1.367   0.089   0.211  0.5299 -2.3900 -1.5563
 1893TIP3   OH227313   4.994   4.652   2.385  0.0680  0.4642  0.5979
 1893TIP3    H127314   4.952   4.584   2.437  0.0760 -0.5975 -0.7326
 1893TIP3    H227315   5.083   4.658   2.421  0.9823 -2.2034 -0.9567
 1894TIP3   OH227316   0.937   1.708   7.889  0.1899  0.6805 -0.3617
 1894TIP3    H127317   0.849   1.706   7.851  0.0676 -2.7088 -0.2374
 1894TIP3    H227318   0.922   1.726   7.982 -0.3370  0.5258 -0.4134
 1895TIP3   OH227319   4.165   3.233   8.170  0.3184 -0.5196 -0.0253
 1895TIP3    H127320   4.152   3.323   8.139  0.6764 -0.2684  0.5305
 1895TIP3    H227321   4.076   3.198   8.181  0.1838 -0.5071 -0.9978
 1896TIP3   OH227322   0.249   1.746   7.596  0.1342  0.3675 -0.2029
 1896TIP3    H127323   0.159   1.771   7.572 -0.6824 -1.9066  0.3062
 1896TIP3    H227324   0.271   1.675   7.536  1.6245  0.8730 -0.3027
 1897TIP3   OH227325   1.555   6.138   2.256 -0.4280 -0.3594  0.6628
 1897TIP3    H127326   1.529   6.051   2.229  2.9818 -2.4324  3.1905
 1897TIP3    H227327   1.482   6.170   2.309 -1.5874 -1.8199  0.0013
 1898TIP3   OH227328   3.659   3.615   2.248 -0.0779 -0.2555 -0.0926
 1898TIP3    H127329   3.565   3.627   2.235  0.2720  3.3505 -0.3323
 1898TIP3    H227330   3.683   3.685   2.309  2.3296 -1.7006  0.7348
 1899TIP3   OH227331   0.389   0.268   0.306  0.6906 -0.5444 -0.1516
 1899TIP3    H127332   0.333   0.193   0.284  1.9104 -1.4586 -0.2779
 1899TIP3    H227333   0.474   0.229   0.325  0.3453  0.3414  4.1538
 1900TIP3   OH227334   3.375   1.010   1.261 -0.2321  0.4769  0.2941
 1900TIP3    H127335   3.426   1.072   1.210 -1.0374  1.1895  0.3230
 1900TIP3    H227336   3.375   0.929   1.209  1.4532  0.2486  0.6121
 1901TIP3   OH227337   1.880   5.762   6.969  0.1156  0.3609  0.2063
 1901TIP3    H127338   1.866   5.857   6.962 -0.1679  0.3013 -0.0230
 1901TIP3    H227339   1.863   5.729   6.881  0.0501  0.0712  0.3288
 1902TIP3   OH227340   6.800   1.289   6.519  0.3850  0.1452 -0.3790
 1902TIP3    H127341   6.734   1.268   6.453 -1.5327  0.2013  1.4237
 1902TIP3    H227342   6.798   1.215   6.580  2.1628  0.0486 -0.3707
 1903TIP3   OH227343   6.017   1.478   0.011 -0.2536 -0.4068  0.1389
 1903TIP3    H127344   5.988   1.389   0.029  0.4922 -0.4191  1.3379
 1903TIP3    H227345   6.061   1.472  -0.074  0.4494 -1.3448  0.5540
 1904TIP3   OH227346   3.718   0.457   7.650  0.1951  0.0534  0.1896
 1904TIP3    H127347   3.682   0.546   7.643  1.8545  0.7704  0.1745
 1904TIP3    H227348   3.752   0.453   7.740 -0.7932 -0.9551  0.5330
 1905TIP3   OH227349   5.967   0.943   0.495  0.5368 -0.1495  0.2496
 1905TIP3    H127350   5.882   0.987   0.495  0.0974 -0.9823  1.0875
 1905TIP3    H227351   6.031   1.015   0.501  0.0877  0.7323 -3.1829
 1906TIP3   OH227352   5.023   4.073   1.626 -0.0427  0.0927  0.1782
 1906TIP3    H127353   5.108   4.035   1.648  0.5152  0.3111 -1.4623
 1906TIP3    H227354   5.040   4.126   1.548 -1.4768  1.0245  0.4569
 1907TIP3   OH227355   3.786   3.507   1.333 -0.1638  0.3917 -0.0152
 1907TIP3    H127356   3.771   3.573   1.401  0.2999 -0.3120  0.7806
 1907TIP3    H227357   3.751   3.426   1.369 -0.8438  0.2132 -1.0416
 1908TIP3   OH227358   5.157   3.535   7.724  0.2314  0.0144 -0.1505
 1908TIP3    H127359   5.220   3.512   7.655  1.4543 -0.2640  1.0196
 1908TIP3    H227360   5.188   3.487   7.801  0.1589  1.9907  1.1677
 1909TIP3   OH227361   0.840   2.563   8.099 -0.1410 -0.3305 -0.2411
 1909TIP3    H127362   0.774   2.613   8.051  0.6295  1.6299  0.6402
 1909TIP3    H227363   0.923   2.606   8.079  0.1634  0.9646  3.1445
 1910TIP3   OH227364   0.476   4.470   0.540 -0.2395  0.0401  0.0015
 1910TIP3    H127365   0.494   4.520   0.620  4.1564 -0.1879 -0.6039
 1910TIP3    H227366   0.447   4.536   0.477  1.4221  1.2143  0.3878
 1911TIP3   OH227367   3.806   4.121   0.120  0.1437 -0.0551 -0.1823
 1911TIP3    H127368   3.886   4.155   0.158  1.2822 -0.5194 -2.0230
 1911TIP3    H227369   3.776   4.053   0.181  1.1692  0.0972  0.4999
 1912TIP3   OH227370   6.017   6.909   1.813  0.2244  0.0280 -0.5103
 1912TIP3    H127371   6.113   6.914   1.818  0.1847 -0.4206  2.3964
 1912TIP3    H227372   5.998   6.816   1.806  0.0005  0.0343 -0.0394
 1913TIP3   OH227373   0.673   2.819   6.577 -0.2748  0.2552 -0.2912
 1913TIP3    H127374   0.672   2.724   6.569  2.1931  0.1588 -0.2985
 1913TIP3    H227375   0.743   2.847   6.518  0.5832  1.8556  1.3781
 1914TIP3   OH227376   1.174   2.164   7.409 -0.0737  0.9359 -0.5409
 1914TIP3    H127377   1.080   2.162   7.428 -0.0274 -2.2211 -0.0760
 1914TIP3    H227378   1.207   2.239   7.458 -2.1567  1.2946  0.4003
 1915TIP3   OH227379   4.334   4.683   7.322  0.4346 -0.2022 -0.3068
 1915TIP3    H127380   4.372   4.609   7.369  0.1369  0.1499  0.5052
 1915TIP3    H227381   4.242   4.683   7.347  0.7786  1.5177  1.1760
 1916TIP3   OH227382   1.112   5.307   0.522 -0.4833  0.0614  0.5230
 1916TIP3    H127383   1.041   5.244   0.506 -1.3340  1.4293 -1.4495
 1916TIP3    H227384   1.174   5.290   0.452  1.2322 -1.0955  2.2128
 1917TIP3   OH227385   4.679   0.700   0.297 -0.1188 -0.1959  0.4674
 1917TIP3    H127386   4.608   0.731   0.241 -0.1526 -0.9744  0.0570
 1917TIP3    H227387   4.723   0.632   0.245  1.4466  0.8268  0.3772
 1918TIP3   OH227388   6.735   4.572   0.276  0.6265 -0.1336  0.1349
 1918TIP3    H127389   6.827   4.595   0.264  1.4689 -2.6451  1.2175
 1918TIP3    H227390   6.718   4.506   0.210 -0.6709  0.8735 -0.5765
 1919TIP3   OH227391   4.815   6.495   0.141  0.6099  0.4962  0.1708
 1919TIP3    H127392   4.892   6.550   0.125 -1.2081  2.5557 -2.6049
 1919TIP3    H227393   4.829   6.418   0.087  2.2013 -0.9113  2.4234
 1920TIP3   OH227394   2.565   2.818   8.293 -0.6106 -0.4599  0.4356
 1920TIP3    H127395   2.586   2.894   8.349  0.7871 -0.0727 -0.5548
 1920TIP3    H227396   2.483   2.842   8.250  0.3471  0.9970 -0.6694
 1921TIP3   OH227397   6.641   6.314   1.644 -0.0982  0.1168 -0.0688
 1921TIP3    H127398   6.724   6.361   1.640 -0.2582  0.3413 -0.7199
 1921TIP3    H227399   6.629   6.295   1.737 -0.4413  2.0770  0.3285
 1922TIP3   OH227400   2.195   3.490   1.121  0.1998 -0.4339 -0.4010
 1922TIP3    H127401   2.220   3.578   1.094  1.8224 -0.3480  1.2136
 1922TIP3    H227402   2.100   3.491   1.121  0.1222  1.9936  1.5144
 1923TIP3   OH227403   6.163   6.869   8.169  0.3595 -0.1286  0.2577
 1923TIP3    H127404   6.088   6.917   8.205  0.8190  0.3064  0.6480
 1923TIP3    H227405   6.239   6.905   8.215  0.9463  0.3244 -1.0328
 1924TIP3   OH227406   1.618   0.632   0.999  0.8715 -0.5060 -0.2800
 1924TIP3    H127407   1.523   0.642   1.009  0.9049 -0.9418  0.6406
 1924TIP3    H227408   1.638   0.672   0.915  0.0226  0.5696  0.0078
 1925TIP3   OH227409   4.779   3.742   7.111 -0.0960  0.3566 -0.3892
 1925TIP3    H127410   4.708   3.680   7.096  0.5054 -0.3536 -0.3644
 1925TIP3    H227411   4.826   3.706   7.187  0.8118  0.3291 -0.9515
 1926TIP3   OH227412   4.367   2.900   8.363  0.6379 -0.0451  0.3480
 1926TIP3    H127413   4.399   2.955   8.292 -0.6248  0.9883  0.5417
 1926TIP3    H227414   4.340   2.819   8.320 -0.5139  0.7343 -0.4604
 1927TIP3   OH227415   6.372   1.849   7.135 -0.0627 -0.3096  0.3856
 1927TIP3    H127416   6.339   1.873   7.221  0.0564 -0.7460  0.5544
 1927TIP3    H227417   6.370   1.753   7.133 -0.7897 -0.2942 -0.3811
 1928TIP3   OH227418   6.180   2.442   0.345  0.3490 -0.5014  0.3497
 1928TIP3    H127419   6.236   2.510   0.382  1.1911 -1.0975  0.1953
 1928TIP3    H227420   6.195   2.366   0.400  0.5379 -0.9884 -0.3653
 1929TIP3   OH227421   4.208   4.270   1.611  0.5045 -0.1019 -0.1449
 1929TIP3    H127422   4.289   4.226   1.588 -0.7582 -1.5000 -2.2790
 1929TIP3    H227423   4.165   4.288   1.527 -0.8425  1.7318  0.8451
 1930TIP3   OH227424   5.196   3.816   7.184  0.0802  0.0838 -0.2692
 1930TIP3    H127425   5.279   3.861   7.165  0.0893 -0.1599 -0.8228
 1930TIP3    H227426   5.153   3.808   7.098 -0.1157 -0.5767 -0.1124
 1931TIP3   OH227427   5.622   5.220   0.314  0.3085  0.3894  0.0781
 1931TIP3    H127428   5.703   5.177   0.287  0.0161  1.0975 -2.1156
 1931TIP3    H227429   5.563   5.210   0.238 -1.2288  0.9566  1.1450
 1932TIP3   OH227430   1.306   3.392   2.070 -0.5490 -0.1990  0.1041
 1932TIP3    H127431   1.317   3.309   2.116 -1.3391 -0.9988 -1.1005
 1932TIP3    H227432   1.241   3.440   2.122 -0.7454 -0.7046  0.3295
 1933TIP3   OH227433   6.883   0.673   7.376  0.1137 -0.3664  0.3099
 1933TIP3    H127434   6.939   0.600   7.354  0.2075  0.1036 -1.1151
 1933TIP3    H227435   6.943   0.743   7.402  0.0815 -0.4352  0.5755
 1934TIP3   OH227436   5.590   2.931   7.550  0.2297 -0.6250  0.4152
 1934TIP3    H127437   5.566   2.839   7.560 -0.7101 -0.8287 -2.7413
 1934TIP3    H227438   5.509   2.974   7.524  0.5628  1.2440  2.2115
 1935TIP3   OH227439   1.509   5.275   8.550 -0.4123  0.0788 -0.6516
 1935TIP3    H127440   1.555   5.343   8.501  1.2343 -0.5501 -0.0260
 1935TIP3    H227441   1.476   5.215   8.484  2.3965 -1.1561 -1.0527
 1936TIP3   OH227442   6.203   2.376   1.482  0.3292  0.0717  0.4228
 1936TIP3    H127443   6.181   2.347   1.571  1.4242 -2.1790  0.0503
 1936TIP3    H227444   6.120   2.374   1.435  0.1417 -1.5106  0.7446
 1937TIP3   OH227445   4.124   3.647   2.420  0.0467 -0.2739 -0.0005
 1937TIP3    H127446   4.091   3.727   2.379 -0.5447 -0.7554 -0.4923
 1937TIP3    H227447   4.213   3.669   2.448 -0.1638  0.5998  0.0136
 1938TIP3   OH227448   2.167   3.244   6.246 -0.2225  0.1732  0.4977
 1938TIP3    H127449   2.082   3.243   6.290 -1.0829 -0.3095 -1.0996
 1938TIP3    H227450   2.185   3.152   6.228  1.1238  0.1789  1.6517
 1939TIP3   OH227451   2.227   5.569   2.074  0.4370 -0.0369  0.3998
 1939TIP3    H127452   2.298   5.629   2.094 -0.1331 -0.1536  3.0372
 1939TIP3    H227453   2.155   5.595   2.132 -0.9454 -1.2571 -0.6760
 1940TIP3   OH227454   4.662   6.587   1.870  0.5426  0.2140 -0.0203
 1940TIP3    H127455   4.604   6.575   1.946 -0.0535 -0.2514 -0.5380
 1940TIP3    H227456   4.750   6.591   1.908  0.2856 -0.3421  0.6685
 1941TIP3   OH227457   6.039   6.773   1.287 -0.0326 -0.3074 -0.3497
 1941TIP3    H127458   6.071   6.695   1.240 -1.4832 -0.8263 -0.5436
 1941TIP3    H227459   6.057   6.845   1.227 -2.1300 -0.9942 -1.9496
 1942TIP3   OH227460   4.526   4.644   7.126 -0.0052  0.7195 -0.2760
 1942TIP3    H127461   4.485   4.584   7.065 -0.9692  1.6025 -0.5196
 1942TIP3    H227462   4.457   4.667   7.188  0.9420 -0.1369  1.1580
 1943TIP3   OH227463   0.330   1.203   6.654 -0.4849 -0.3722 -0.3875
 1943TIP3    H127464   0.278   1.144   6.709  1.0121 -2.3627 -0.9730
 1943TIP3    H227465   0.350   1.151   6.576  0.3847  1.1634 -1.2321
 1944TIP3   OH227466   2.287   6.434   1.034  0.4589  0.0835  0.3213
 1944TIP3    H127467   2.248   6.459   1.118  0.0609  0.7111 -0.0350
 1944TIP3    H227468   2.229   6.474   0.969 -0.1364 -1.6772 -0.2961
 1945TIP3   OH227469   2.764   2.310   8.145 -0.4572 -0.4892  0.1578
 1945TIP3    H127470   2.676   2.273   8.140 -1.0037  0.7753  0.0265
 1945TIP3    H227471   2.787   2.303   8.238 -0.7651 -0.6754  0.2214
 1946TIP3   OH227472   2.424   5.710   1.711  0.2778  0.0114 -0.0207
 1946TIP3    H127473   2.475   5.787   1.734  1.2877 -1.0640  1.5943
 1946TIP3    H227474   2.387   5.730   1.625  0.9718  2.0343  0.0993
 1947TIP3   OH227475   0.749   1.246   7.393 -0.2753  0.5288 -0.4003
 1947TIP3    H127476   0.725   1.282   7.479  0.7931  1.0208 -0.2906
 1947TIP3    H227477   0.838   1.278   7.378 -0.5783  0.7236 -1.8514
 1948TIP3   OH227478   6.120   3.449   0.712  0.8181 -0.2740  0.4134
 1948TIP3    H127479   6.036   3.409   0.733  1.2634 -0.5971  1.7288
 1948TIP3    H227480   6.136   3.510   0.784  1.2968  0.4547 -0.2902
 1949TIP3   OH227481   1.026   6.838   7.700  0.1002 -0.1924  0.2019
 1949TIP3    H127482   1.000   6.805   7.786 -0.8214  1.2051  0.5012
 1949TIP3    H227483   0.954   6.896   7.674  0.6342 -0.1405 -1.2531
 1950TIP3   OH227484   0.866   4.588   7.566 -0.1237  0.1993 -0.0329
 1950TIP3    H127485   0.775   4.583   7.593  0.2518 -0.6130  1.1689
 1950TIP3    H227486   0.874   4.527   7.493 -0.0861 -1.5220  1.3294
 1951TIP3   OH227487   0.532   1.006   8.211  0.1339 -0.6556  0.2337
 1951TIP3    H127488   0.569   0.997   8.299  0.4888 -3.2508 -0.1040
 1951TIP3    H227489   0.603   1.042   8.159 -0.3467  1.7720  1.0989
 1952TIP3   OH227490   3.386   3.341   7.603 -0.0273 -0.4769 -0.5529
 1952TIP3    H127491   3.461   3.392   7.630 -0.3779  0.0255 -0.5220
 1952TIP3    H227492   3.378   3.272   7.669 -0.0751 -0.0583 -0.1229
 1953TIP3   OH227493   4.487   4.712   2.055 -0.0150  0.3070 -0.1262
 1953TIP3    H127494   4.532   4.786   2.015 -1.2570  1.3661  0.3701
 1953TIP3    H227495   4.441   4.670   1.983  2.6703 -1.6007 -0.9158
 1954TIP3   OH227496   2.125   1.687   0.404  0.0448 -0.3383 -0.6596
 1954TIP3    H127497   2.150   1.750   0.472 -0.9948  0.9591 -1.4248
 1954TIP3    H227498   2.175   1.714   0.327  0.1932 -0.9548 -0.7848
 1955TIP3   OH227499   6.591   6.238   1.945 -0.3274  0.0570  0.3557
 1955TIP3    H127500   6.608   6.159   1.997 -0.9078 -0.1376  0.2535
 1955TIP3    H227501   6.595   6.310   2.008  1.2979  0.0751  0.2677
 1956TIP3   OH227502   2.571   5.096   0.803  0.4429 -0.3444  0.5035
 1956TIP3    H127503   2.560   5.046   0.884  0.1275 -1.2617 -0.0791
 1956TIP3    H227504   2.631   5.043   0.750 -0.2149 -0.3210 -0.2923
 1957TIP3   OH227505   5.130   4.779   0.884  0.1578 -0.4800 -0.1224
 1957TIP3    H127506   5.190   4.710   0.912  1.0957  0.1869 -0.4055
 1957TIP3    H227507   5.078   4.799   0.961  1.0648 -0.3263  0.4732
 1958TIP3   OH227508   0.208   0.112   7.585 -0.3278 -0.3737 -0.0835
 1958TIP3    H127509   0.164   0.061   7.653 -0.0876  0.9203  1.0884
 1958TIP3    H227510   0.175   0.202   7.598  0.3383  0.0437 -1.1629
 1959TIP3   OH227511   1.730   2.237   2.115 -0.3154 -0.1844 -0.0315
 1959TIP3    H127512   1.718   2.329   2.140  0.1366 -0.2453  0.4089
 1959TIP3    H227513   1.810   2.237   2.063  0.7676 -0.6063  1.5575
 1960TIP3   OH227514   2.524   4.851   0.684  0.2347 -0.1190 -0.2280
 1960TIP3    H127515   2.480   4.929   0.651 -2.9911 -1.8850 -0.5949
 1960TIP3    H227516   2.600   4.839   0.627 -0.6485  1.3314 -1.8015
 1961TIP3   OH227517   6.642   2.426   8.629  0.4491 -0.3080  0.4698
 1961TIP3    H127518   6.657   2.521   8.630 -1.3448  0.0382 -0.7069
 1961TIP3    H227519   6.700   2.394   8.560  0.1926  0.1191  0.0485
 1962TIP3   OH227520   0.389   6.616   1.324  0.3323  0.1612 -0.2467
 1962TIP3    H127521   0.382   6.523   1.302  0.5252  0.0548  0.1172
 1962TIP3    H227522   0.336   6.625   1.403 -1.7665  0.8841 -1.6590
 1963TIP3   OH227523   0.771   4.536   1.516  0.3331 -0.3745 -0.3080
 1963TIP3    H127524   0.769   4.491   1.432  1.1936  3.9394 -2.9144
 1963TIP3    H227525   0.856   4.511   1.554  1.8098  0.6085 -2.7216
 1964TIP3   OH227526   3.986   5.730   0.125  0.6126  0.1176 -0.0214
 1964TIP3    H127527   4.019   5.648   0.162  1.6435 -0.3802 -1.9645
 1964TIP3    H227528   4.034   5.798   0.173 -1.2128 -0.2400  2.5741
 1965TIP3   OH227529   6.100   0.696   7.127  0.2871 -0.8357 -0.4577
 1965TIP3    H127530   6.130   0.609   7.154  0.6353 -1.2190 -1.9781
 1965TIP3    H227531   6.177   0.752   7.138  0.0976 -0.7216  0.4002
 1966TIP3   OH227532   3.134   6.594   1.134  0.4446  0.5632  0.4887
 1966TIP3    H127533   3.228   6.576   1.131  0.3804  0.1913  0.6226
 1966TIP3    H227534   3.095   6.530   1.075  0.3478  1.2548 -0.2134
 1967TIP3   OH227535   5.966   1.055   0.843  0.1360 -0.0685 -0.3308
 1967TIP3    H127536   5.971   1.132   0.900  0.0710 -1.5771  1.8166
 1967TIP3    H227537   5.873   1.041   0.829  0.0952 -0.3935  0.2270
 1968TIP3   OH227538   4.416   1.118   8.433  0.3508 -0.3435  0.2998
 1968TIP3    H127539   4.490   1.094   8.378 -0.6114  0.3738 -1.3615
 1968TIP3    H227540   4.408   1.213   8.424 -0.0130 -0.2395  1.4665
 1969TIP3   OH227541   6.104   0.859   1.194  1.2526 -0.4792 -0.4507
 1969TIP3    H127542   6.143   0.776   1.220  2.3041  0.8844  2.8658
 1969TIP3    H227543   6.009   0.844   1.199  1.3122 -0.6770  3.9193
 1970TIP3   OH227544   6.427   6.116   7.138  0.5626  0.5066 -0.4980
 1970TIP3    H127545   6.374   6.059   7.083  0.8535 -0.5316  0.2701
 1970TIP3    H227546   6.400   6.205   7.114  0.7067  0.0965 -2.3290
 1971TIP3   OH227547   1.800   0.439   7.958 -0.8963 -0.2372  1.0517
 1971TIP3    H127548   1.809   0.472   7.868 -1.9281 -1.0299  0.6383
 1971TIP3    H227549   1.740   0.500   8.000 -1.6371 -0.7291  0.7283
 1972TIP3   OH227550   4.851   5.117   8.422 -0.0480  0.2566 -0.6111
 1972TIP3    H127551   4.905   5.107   8.500 -1.2934  1.6199  0.4924
 1972TIP3    H227552   4.866   5.037   8.372  0.6444 -0.7558  1.1193
 1973TIP3   OH227553   5.470   5.276   0.020 -0.0244 -0.1334  0.2013
 1973TIP3    H127554   5.524   5.319  -0.047  0.9245  0.9094  1.5677
 1973TIP3    H227555   5.434   5.348   0.072 -0.0160 -0.9160  1.3366
 1974TIP3   OH227556   5.069   4.153   7.471  0.2590  0.1110  0.0991
 1974TIP3    H127557   5.164   4.143   7.470  0.4117  1.2687 -1.2054
 1974TIP3    H227558   5.038   4.097   7.399  0.1735  1.1968 -0.7403
 1975TIP3   OH227559   1.233   4.413   0.077 -0.4025  0.6136 -0.0751
 1975TIP3    H127560   1.307   4.474   0.077  1.1127 -1.1361 -0.0182
 1975TIP3    H227561   1.226   4.384   0.168 -1.7366  1.3997  0.0868
 1976TIP3   OH227562   5.970   4.249   0.329 -0.3538 -0.9494  0.2089
 1976TIP3    H127563   5.948   4.181   0.393 -0.3384  0.1815  1.4489
 1976TIP3    H227564   5.970   4.203   0.245 -1.9925 -2.1435  0.8036
 1977TIP3   OH227565   4.105   2.169   8.017 -0.1384 -0.1387 -0.4024
 1977TIP3    H127566   4.087   2.225   7.942  1.5284 -1.4571 -1.8755
 1977TIP3    H227567   4.020   2.130   8.040 -0.8231  0.9708 -1.0109
 1978TIP3   OH227568   1.129   4.636   2.189 -0.0464  0.0485  0.0005
 1978TIP3    H127569   1.080   4.640   2.107 -1.2835 -0.5384  0.6876
 1978TIP3    H227570   1.062   4.623   2.256  1.0924 -1.4587  0.9040
 1979TIP3   OH227571   6.101   4.344   1.984 -0.1428 -0.1022  0.3114
 1979TIP3    H127572   6.155   4.418   1.956  0.3466 -0.8043 -0.6397
 1979TIP3    H227573   6.020   4.385   2.015 -0.0021  0.8222 -0.4784
 1980TIP3   OH227574   3.926   2.957   1.298 -0.4073  0.7357 -0.1539
 1980TIP3    H127575   3.937   2.863   1.308 -0.9783  0.5536 -1.1364
 1980TIP3    H227576   3.985   2.995   1.363  0.4487 -0.2843 -0.3138
 1981TIP3   OH227577   5.727   5.420   8.215  0.2527  0.2646 -0.7205
 1981TIP3    H127578   5.702   5.424   8.307  0.4305  0.1465 -0.6670
 1981TIP3    H227579   5.819   5.394   8.216 -0.3285 -2.1261 -0.9765
 1982TIP3   OH227580   5.766   2.322   6.781  0.7282  0.8218  0.1205
 1982TIP3    H127581   5.781   2.416   6.792 -2.1097  1.3620 -0.0085
 1982TIP3    H227582   5.770   2.309   6.686  0.4010  0.9691  0.0842
 1983TIP3   OH227583   1.311   3.247   7.568  0.0994  0.0510  0.0297
 1983TIP3    H127584   1.302   3.273   7.477 -0.8453  1.4510  0.4851
 1983TIP3    H227585   1.394   3.201   7.573 -0.4365 -1.2147 -1.7859
 1984TIP3   OH227586   3.323   4.524   8.615 -0.1889  0.5040 -0.3634
 1984TIP3    H127587   3.326   4.620   8.610  0.9758  0.4410 -1.6319
 1984TIP3    H227588   3.415   4.497   8.610 -0.3494 -0.6454  1.7703
 1985TIP3   OH227589   6.648   1.779   7.374 -0.3088 -0.2246 -0.6179
 1985TIP3    H127590   6.625   1.758   7.283 -3.3112  3.2153 -0.9104
 1985TIP3    H227591   6.572   1.752   7.425  0.3285  0.0511  0.5173
 1986TIP3   OH227592   1.763   5.775   7.886 -0.3397  0.1755 -0.1794
 1986TIP3    H127593   1.856   5.786   7.867 -0.5256 -1.2592 -2.2599
 1986TIP3    H227594   1.728   5.864   7.892  1.3344  0.7841  1.9323
 1987TIP3   OH227595   4.886   0.114   1.787 -0.0894 -0.1374 -0.1854
 1987TIP3    H127596   4.846   0.173   1.723  1.2407  1.2889  0.2349
 1987TIP3    H227597   4.816   0.053   1.810 -1.2545  0.7072 -1.3250
 1988TIP3   OH227598   3.205   6.454   0.434  0.1974 -0.0455  0.2355
 1988TIP3    H127599   3.282   6.485   0.480  0.7317  2.2378 -1.9685
 1988TIP3    H227600   3.140   6.524   0.443  0.3142  0.5011 -2.2896
 1989TIP3   OH227601   5.594   4.243   6.881  0.0448  0.3315 -0.3404
 1989TIP3    H127602   5.576   4.247   6.974 -1.6907 -0.2151 -0.6278
 1989TIP3    H227603   5.589   4.150   6.859  2.4551  0.2122 -0.6444
 1990TIP3   OH227604   5.640   3.868   1.622 -0.2986 -0.7038 -0.1112
 1990TIP3    H127605   5.683   3.913   1.550  0.7405 -0.5771  0.5691
 1990TIP3    H227606   5.611   3.938   1.680  1.9385 -0.8524  1.2986
 1991TIP3   OH227607   3.594   2.380   0.153  0.0414 -0.5143 -0.0091
 1991TIP3    H127608   3.596   2.376   0.248  0.6258 -3.6918 -0.0231
 1991TIP3    H227609   3.519   2.326   0.127 -0.3072  0.5526 -1.3602
 1992TIP3   OH227610   1.630   5.499   1.848  0.1969  0.2559  0.1532
 1992TIP3    H127611   1.598   5.436   1.913 -0.6477 -0.2136 -0.7003
 1992TIP3    H227612   1.725   5.483   1.844 -0.0530 -1.3161 -0.3823
 1993TIP3   OH227613   4.810   2.961   1.987  0.6295 -0.0050 -0.7606
 1993TIP3    H127614   4.763   2.932   2.065  0.2768  0.3467 -0.8390
 1993TIP3    H227615   4.867   2.888   1.965  1.1009  0.0855  0.1177
 1994TIP3   OH227616   2.016   2.438   1.374 -0.1336 -0.1507  0.2416
 1994TIP3    H127617   2.098   2.410   1.415  0.2015  0.6829  0.1672
 1994TIP3    H227618   2.012   2.390   1.292  1.6463  1.7170 -1.0552
 1995TIP3   OH227619   5.232   5.812   7.244 -0.2148  0.2063 -0.0321
 1995TIP3    H127620   5.266   5.889   7.198 -1.0723  0.0548 -0.9425
 1995TIP3    H227621   5.228   5.839   7.336 -1.9957  1.8357 -0.5135
 1996TIP3   OH227622   4.221   2.916   7.035  0.4130  0.0196 -0.3836
 1996TIP3    H127623   4.301   2.863   7.040 -0.5658 -1.4856  0.1677
 1996TIP3    H227624   4.246   2.992   6.983  1.9268 -0.9414 -1.1597
 1997TIP3   OH227625   1.885   6.766   1.335  0.1488 -0.2345 -0.1300
 1997TIP3    H127626   1.826   6.806   1.271  0.7208 -1.1529 -1.2872
 1997TIP3    H227627   1.957   6.731   1.281  0.7620 -0.8322  1.0522
 1998TIP3   OH227628   0.022   1.716   1.559  0.0544 -0.0386 -0.1072
 1998TIP3    H127629   0.008   1.705   1.653  0.1648 -0.5704 -0.1480
 1998TIP3    H227630   0.089   1.784   1.552 -0.4268  0.4651  0.1777
 1999TIP3   OH227631   5.492   4.693   8.478  0.9851 -1.0049 -0.0423
 1999TIP3    H127632   5.442   4.669   8.557  1.8707 -0.2146  0.7804
 1999TIP3    H227633   5.580   4.713   8.510  1.9322 -2.5696 -1.4957
 2000TIP3   OH227634   5.634   4.068   7.585  0.4603 -0.1948  0.7750
 2000TIP3    H127635   5.614   3.975   7.593 -0.0797  0.0102  2.0686
 2000TIP3    H227636   5.569   4.111   7.640  0.3676  0.9991 -0.2284
 2001TIP3   OH227637   6.530   5.756   7.490 -0.3378  0.2580 -0.5298
 2001TIP3    H127638   6.548   5.849   7.481  0.6218  0.1766  0.3694
 2001TIP3    H227639   6.440   5.746   7.459  0.4012  1.0497 -3.1633
 2002TIP3   OH227640   3.625   5.951   5.882  0.3539 -0.4142 -0.1667
 2002TIP3    H127641   3.554   6.015   5.871  0.6798 -0.0114  0.0421
 2002TIP3    H227642   3.693   5.999   5.930  0.5643 -0.9485  0.0724
 2003TIP3   OH227643   6.647   3.329   8.201  0.6839 -0.0611  0.2826
 2003TIP3    H127644   6.595   3.373   8.268 -0.3507 -1.6762  0.5877
 2003TIP3    H227645   6.714   3.393   8.178 -0.9645  1.8077  0.4157
 2004TIP3   OH227646   5.076   2.585   1.164  0.0902 -0.3034  0.4805
 2004TIP3    H127647   4.995   2.544   1.195  1.2667 -2.4282  0.9217
 2004TIP3    H227648   5.048   2.645   1.095 -1.9464 -0.1673  1.3619
 2005TIP3   OH227649   1.652   4.949   0.874  0.1794 -0.1783 -0.0883
 2005TIP3    H127650   1.698   4.885   0.927  1.5451  0.9463  0.1551
 2005TIP3    H227651   1.681   4.932   0.784  1.2078  0.5749  0.0724
 2006TIP3   OH227652   2.757   6.485   7.294 -0.1574  0.0375 -0.4839
 2006TIP3    H127653   2.759   6.462   7.387 -2.1221 -1.2716 -0.6751
 2006TIP3    H227654   2.807   6.415   7.251  2.2449  1.5722 -0.3397
 2007TIP3   OH227655   2.644   0.918   7.683 -0.1294  0.1523  0.0042
 2007TIP3    H127656   2.711   0.888   7.744 -1.0456 -1.5141  0.2553
 2007TIP3    H227657   2.580   0.964   7.738  0.4434  1.1610 -0.1434
 2008TIP3   OH227658   2.902   1.924   7.453 -0.5379 -0.4583  0.0844
 2008TIP3    H127659   2.894   1.863   7.379  0.7065 -0.5681  0.0260
 2008TIP3    H227660   2.834   1.989   7.437  0.4084  0.1453 -1.7599
 2009TIP3   OH227661   6.365   2.832   1.709  0.1220  0.6744  0.6721
 2009TIP3    H127662   6.311   2.754   1.719  0.9273 -0.1257 -0.8310
 2009TIP3    H227663   6.453   2.804   1.733  0.5404  0.9043 -0.5210
 2010TIP3   OH227664   4.383   1.342   8.248 -0.3928 -0.0617 -0.1781
 2010TIP3    H127665   4.306   1.398   8.252 -0.6543 -0.4425  0.1882
 2010TIP3    H227666   4.452   1.399   8.213 -0.9882  0.1092 -1.1083
 2011TIP3   OH227667   4.084   2.951   0.069  0.3652  0.0973 -0.1824
 2011TIP3    H127668   4.091   2.975  -0.023 -0.1251  0.6607 -0.0781
 2011TIP3    H227669   4.027   2.873   0.070  0.3778  0.0862 -0.3532
 2012TIP3   OH227670   2.193   0.874   7.862 -0.1228 -0.2411 -0.2289
 2012TIP3    H127671   2.241   0.799   7.896  0.9887  0.0358 -1.1369
 2012TIP3    H227672   2.120   0.885   7.923  1.1758 -0.4296  1.4579
 2013TIP3   OH227673   3.438   2.064   7.449  0.3790  0.0305  0.3067
 2013TIP3    H127674   3.443   2.156   7.475  1.5371 -0.4187  1.7996
 2013TIP3    H227675   3.347   2.039   7.466  0.0506  0.8952 -0.1409
 2014TIP3   OH227676   5.668   0.741   1.048 -0.5652  0.3884 -0.1286
 2014TIP3    H127677   5.753   0.764   1.085 -0.6346  0.9138 -0.2865
 2014TIP3    H227678   5.677   0.649   1.022  0.5781  0.9476 -1.8746
 2015TIP3   OH227679   4.122   3.439   1.076  0.1373 -0.1722  0.3026
 2015TIP3    H127680   4.171   3.517   1.100  0.7539 -0.2160 -0.7127
 2015TIP3    H227681   4.063   3.468   1.006  1.4486 -0.8872 -1.1661
 2016TIP3   OH227682   2.412   1.094   0.534  0.1932  0.0479 -0.0478
 2016TIP3    H127683   2.439   1.135   0.452  0.2602 -0.3182 -0.2096
 2016TIP3    H227684   2.319   1.077   0.524  0.2668 -0.2851 -0.1715
 2017TIP3   OH227685   0.619   1.507   0.551  0.3880  0.0043 -0.1133
 2017TIP3    H127686   0.673   1.575   0.511 -0.5445 -0.3181 -2.0391
 2017TIP3    H227687   0.638   1.513   0.645  1.0604  2.2595 -0.3349
 2018TIP3   OH227688   6.812   6.027   7.050  0.2872  0.2281  0.6939
 2018TIP3    H127689   6.875   6.098   7.062  1.5012 -0.8085  0.6724
 2018TIP3    H227690   6.841   5.983   6.970  0.0031 -0.7407  1.1161
 2019TIP3   OH227691   5.453   4.499   7.159 -0.3356 -0.2027 -0.8251
 2019TIP3    H127692   5.444   4.514   7.065 -1.1369  3.5749 -0.3103
 2019TIP3    H227693   5.363   4.496   7.192 -0.0626 -0.2601 -0.0690
 2020TIP3   OH227694   3.735   3.925   0.654  0.1027 -0.0517 -0.4715
 2020TIP3    H127695   3.685   3.905   0.575 -2.5736 -0.9011  1.2805
 2020TIP3    H227696   3.760   3.840   0.689 -0.2023  0.2183  0.4299
 2021TIP3   OH227697   1.433   6.405   0.667  0.1471 -0.4052 -0.5973
 2021TIP3    H127698   1.425   6.310   0.657  0.0458 -0.3629 -0.9535
 2021TIP3    H227699   1.515   6.427   0.621  0.3472 -0.3615 -0.2244
 2022TIP3   OH227700   2.150   3.106   6.579  0.4083  0.1795  0.1242
 2022TIP3    H127701   2.228   3.152   6.549  0.0752  0.8754  0.3142
 2022TIP3    H227702   2.081   3.133   6.519  0.0713  0.4102  0.6121
 2023TIP3   OH227703   5.127   5.778   7.936  0.0864 -0.4069 -0.5426
 2023TIP3    H127704   5.049   5.724   7.922  0.2927 -1.1621  0.9856
 2023TIP3    H227705   5.170   5.738   8.011  1.4118  0.6204 -0.7259
 2024TIP3   OH227706   0.992   0.862   7.026  0.9554 -0.1576 -0.1119
 2024TIP3    H127707   0.990   0.834   6.934 -0.3422 -1.8760  0.3743
 2024TIP3    H227708   1.022   0.952   7.023 -3.2232  1.4702 -2.6850
 2025TIP3   OH227709   1.298   6.885   0.325  0.4097 -0.5927  0.0181
 2025TIP3    H127710   1.374   6.887   0.383  0.5256 -0.1579 -0.1511
 2025TIP3    H227711   1.242   6.816   0.362 -1.2242  2.0079  2.8063
 2026TIP3   OH227712   4.334   5.256   1.825  0.7123  0.7952  0.1925
 2026TIP3    H127713   4.309   5.280   1.735  0.3500 -1.0265 -0.2466
 2026TIP3    H227714   4.254   5.268   1.876  0.0597 -0.8673 -0.3456
 2027TIP3   OH227715   0.180   4.256   6.742 -0.3630 -0.4468 -0.3288
 2027TIP3    H127716   0.116   4.327   6.747 -0.8116 -0.9359  1.7197
 2027TIP3    H227717   0.262   4.300   6.719 -1.0591  0.4216 -1.2495
 2028TIP3   OH227718   5.261   3.480   7.297  0.1424 -0.4978  0.2784
 2028TIP3    H127719   5.260   3.491   7.392  0.2226 -1.0029  0.3361
 2028TIP3    H227720   5.353   3.468   7.275  0.1007 -0.5972  0.1595
 2029TIP3   OH227721   6.174   3.594   0.942 -0.3282 -0.1826 -0.4176
 2029TIP3    H127722   6.263   3.567   0.963 -1.2599 -2.1394  1.4145
 2029TIP3    H227723   6.138   3.623   1.026 -1.4213  0.6089 -1.1338
 2030TIP3   OH227724   1.871   6.358   7.575 -0.2714 -0.0550  0.0184
 2030TIP3    H127725   1.863   6.432   7.515 -0.8134 -2.1402 -2.6499
 2030TIP3    H227726   1.963   6.332   7.569 -0.2048  0.0382  0.5446
 2031TIP3   OH227727   2.878   3.493   7.637 -0.6000 -0.1546 -0.9522
 2031TIP3    H127728   2.879   3.460   7.547  0.9270  0.8126 -1.3337
 2031TIP3    H227729   2.968   3.480   7.667 -1.1519 -0.6991  0.5471
 2032TIP3   OH227730   2.020   5.120   1.883  0.0508  0.0820  0.2987
 2032TIP3    H127731   1.960   5.052   1.913  0.5760 -0.9675 -0.9192
 2032TIP3    H227732   2.079   5.134   1.957 -2.5669  2.2877  2.1194
 2033TIP3   OH227733   0.268   6.654   7.355  0.1897 -0.4168  0.1303
 2033TIP3    H127734   0.257   6.621   7.266  0.2710 -0.9905  0.3244
 2033TIP3    H227735   0.352   6.619   7.383 -0.8243 -2.1316  1.2164
 2034TIP3   OH227736   1.337   5.005   7.474 -0.5960 -0.3666 -0.5906
 2034TIP3    H127737   1.308   5.089   7.511  1.0749 -0.2244  0.5228
 2034TIP3    H227738   1.311   5.009   7.382  0.2743  1.8156 -0.8209
 2035TIP3   OH227739   6.144   5.882   0.351  0.2749 -0.5292  0.0211
 2035TIP3    H127740   6.052   5.883   0.376 -0.0139  0.4257 -0.9903
 2035TIP3    H227741   6.167   5.974   0.340  0.8148 -0.8166 -1.5515
 2036TIP3   OH227742   4.186   0.561   8.235 -0.1518 -0.5129 -0.4613
 2036TIP3    H127743   4.158   0.494   8.173 -0.9425 -0.4731 -0.1576
 2036TIP3    H227744   4.279   0.575   8.215 -1.1720  2.3429 -4.3029
 2037TIP3   OH227745   1.892   0.817   7.967 -0.0975  0.1840  0.3811
 2037TIP3    H127746   1.898   0.899   8.016  0.0141  0.7060 -0.4940
 2037TIP3    H227747   1.899   0.749   8.034  0.5302  0.8817  1.0435
 2038TIP3   OH227748   6.729   6.732   6.859  0.4489 -0.0346  0.5246
 2038TIP3    H127749   6.806   6.704   6.909  0.6483 -0.5193 -0.0437
 2038TIP3    H227750   6.762   6.743   6.769 -0.4481 -1.6539 -0.0294
 2039TIP3   OH227751   3.587   0.486   6.739  0.6511  0.0397 -0.1975
 2039TIP3    H127752   3.492   0.486   6.737  0.5141 -1.9149  2.0874
 2039TIP3    H227753   3.613   0.476   6.647 -1.3263  0.0506 -0.7955
 2040TIP3   OH227754   6.913   2.791   1.790 -0.0199  0.0497  0.0539
 2040TIP3    H127755   6.846   2.725   1.772  0.5395 -0.6689  0.5326
 2040TIP3    H227756   6.903   2.812   1.883  0.5023 -0.1663  0.1634
 2041TIP3   OH227757   4.695   1.018   2.544  0.1615 -0.1292  0.0587
 2041TIP3    H127758   4.723   0.965   2.619  0.7987  0.4665  0.2475
 2041TIP3    H227759   4.776   1.044   2.501 -0.1047  1.1995  0.3252
 2042TIP3   OH227760   5.641   1.998   2.205 -0.2058  0.2727  0.1481
 2042TIP3    H127761   5.697   2.076   2.214 -0.2145  0.3533 -0.5049
 2042TIP3    H227762   5.569   2.026   2.149  0.3220 -0.4852 -0.9336
 2043TIP3   OH227763   3.386   4.650   1.859 -0.0717 -0.3180  0.0520
 2043TIP3    H127764   3.423   4.601   1.785 -2.6784 -1.3369 -0.6969
 2043TIP3    H227765   3.417   4.740   1.846 -0.9996 -0.3072 -2.7327
 2044TIP3   OH227766   2.985   5.702   6.183  0.5868  0.3598  0.2156
 2044TIP3    H127767   2.927   5.759   6.132 -0.8967 -0.7524  0.6204
 2044TIP3    H227768   3.073   5.726   6.153 -0.1959 -0.3939 -3.1081
 2045TIP3   OH227769   0.613   3.138   8.188  0.1780  0.0636  0.6754
 2045TIP3    H127770   0.684   3.102   8.135  0.4649  2.0320 -0.3650
 2045TIP3    H227771   0.541   3.076   8.177  1.0394 -0.8553  0.0172
 2046TIP3   OH227772   1.362   5.464   0.892  0.0736  0.0973 -0.0571
 2046TIP3    H127773   1.415   5.425   0.962 -0.0959  0.6125  0.3628
 2046TIP3    H227774   1.347   5.554   0.921  0.3537  0.4369 -0.9636
 2047TIP3   OH227775   4.721   5.839   0.416  0.1064  0.3514  0.6137
 2047TIP3    H127776   4.701   5.917   0.468  0.2005 -0.0764  1.3023
 2047TIP3    H227777   4.700   5.766   0.473  1.7333 -0.1307  0.6437
 2048TIP3   OH227778   3.097   5.499   1.229  0.0926 -0.3872 -0.3790
 2048TIP3    H127779   3.007   5.531   1.223  0.2582  0.6042  1.6358
 2048TIP3    H227780   3.095   5.414   1.184 -1.7935 -0.2924 -0.5492
 2049TIP3   OH227781   2.940   4.919   7.069  0.3872  0.0943  0.3278
 2049TIP3    H127782   2.984   5.002   7.083  1.0505 -0.2298  0.2326
 2049TIP3    H227783   2.937   4.878   7.155  0.0735  0.2065  0.3721
 2050TIP3   OH227784   4.521   6.368   1.634 -0.3583 -0.3109 -0.6219
 2050TIP3    H127785   4.570   6.449   1.643 -0.8828 -0.0657  0.0542
 2050TIP3    H227786   4.574   6.302   1.679 -1.3141  0.2346  1.3736
 2051TIP3   OH227787   5.691   2.072   0.132 -0.1003 -0.1981 -0.1620
 2051TIP3    H127788   5.768   2.016   0.123  0.5415  0.5804  0.3836
 2051TIP3    H227789   5.724   2.161   0.127 -0.8983  0.1582  0.5265
 2052TIP3   OH227790   4.090   1.156   2.167  0.1262  0.3440 -0.4986
 2052TIP3    H127791   4.139   1.210   2.229 -1.9263  1.8120 -0.0309
 2052TIP3    H227792   4.060   1.081   2.219  1.6705 -0.4946 -0.7563
 2053TIP3   OH227793   2.116   4.773   6.247 -0.1734  0.5141  0.4864
 2053TIP3    H127794   2.085   4.699   6.194  0.2638  0.5082  0.2290
 2053TIP3    H227795   2.148   4.733   6.328  0.1978  0.3987  0.2877
 2054TIP3   OH227796   1.222   3.343   8.046  0.5091  0.1450  0.1275
 2054TIP3    H127797   1.189   3.340   7.957  0.1500  2.2910  0.1327
 2054TIP3    H227798   1.314   3.318   8.039  0.0374 -1.5494 -0.5263
 2055TIP3   OH227799   5.308   6.364   7.940 -0.0936  0.3186  0.4640
 2055TIP3    H127800   5.229   6.311   7.948 -0.2115  0.2605 -0.8299
 2055TIP3    H227801   5.282   6.437   7.884  1.1706 -0.5782 -1.4088
 2056TIP3   OH227802   1.676   5.312   0.524  0.5486  0.3386  0.8354
 2056TIP3    H127803   1.673   5.403   0.551  2.0765 -0.2787  3.4271
 2056TIP3    H227804   1.633   5.264   0.595  0.9644 -1.0713  0.1787
 2057TIP3   OH227805   3.137   3.576   7.117  0.0024  0.4836  0.3712
 2057TIP3    H127806   3.232   3.571   7.128 -0.2249  1.1232  3.5605
 2057TIP3    H227807   3.116   3.505   7.057  2.3416 -0.6411  0.7638
 2058TIP3   OH227808   3.107   6.199   0.422 -0.5190 -0.1843 -0.3781
 2058TIP3    H127809   3.123   6.292   0.437 -0.5566 -0.0212 -1.2770
 2058TIP3    H227810   3.017   6.185   0.453 -0.2636 -0.0857  0.4204
 2059TIP3   OH227811   0.273   2.863   7.083 -0.6314 -0.0701 -0.5998
 2059TIP3    H127812   0.283   2.956   7.104  0.0323 -0.2698  0.0269
 2059TIP3    H227813   0.361   2.834   7.058 -0.6705 -0.6949 -0.0575
 2060TIP3   OH227814   2.439   0.497   0.899 -0.6165  0.2967  0.2298
 2060TIP3    H127815   2.525   0.529   0.869 -0.6505 -0.3240 -0.5642
 2060TIP3    H227816   2.452   0.403   0.912 -1.0533  0.2859  0.5919
 2061TIP3   OH227817   0.348   1.770   1.375 -0.1259 -0.3038 -0.2687
 2061TIP3    H127818   0.322   1.800   1.462  0.0604 -1.1688  0.0945
 2061TIP3    H227819   0.306   1.831   1.315 -1.1670 -0.3496  0.3912
 2062TIP3   OH227820   6.908   4.061   0.498 -0.5244  0.2149  0.3413
 2062TIP3    H127821   6.953   4.055   0.582  1.1871 -0.8493 -0.5871
 2062TIP3    H227822   6.870   4.149   0.497  0.8979  0.8800  1.5195
 2063TIP3   OH227823   5.751   0.018   1.173 -0.2681 -0.3276 -0.1663
 2063TIP3    H127824   5.812   0.010   1.247  0.2797 -3.2322 -0.8407
 2063TIP3    H227825   5.740  -0.071   1.141 -2.5287  0.5271 -2.0019
 2064TIP3   OH227826   2.450   0.372   2.361 -0.2346  0.0726  0.0637
 2064TIP3    H127827   2.532   0.342   2.321 -0.2334 -0.3766  0.3934
 2064TIP3    H227828   2.469   0.460   2.393 -0.2275  0.4371 -0.9007
 2065TIP3   OH227829   1.303   5.530   1.522 -0.0270 -0.4715  0.3194
 2065TIP3    H127830   1.263   5.580   1.451  1.4218  0.1065 -0.1068
 2065TIP3    H227831   1.236   5.465   1.545 -0.6733 -0.4369 -1.3129
 2066TIP3   OH227832   6.814   4.353   6.788  0.0971 -0.1746  0.0097
 2066TIP3    H127833   6.793   4.373   6.697 -0.4184  0.0896  0.1828
 2066TIP3    H227834   6.735   4.312   6.823  0.1026  0.2097  0.4862
 2067TIP3   OH227835   4.317   6.100   8.097 -0.0334  0.2964 -0.6533
 2067TIP3    H127836   4.324   6.084   8.002 -0.1458 -0.2859 -0.5708
 2067TIP3    H227837   4.403   6.131   8.123  1.1156 -2.7861 -0.3680
 2068TIP3   OH227838   2.863   3.784   2.184 -0.1373 -0.2144 -0.4480
 2068TIP3    H127839   2.948   3.779   2.228  0.1716 -0.3843 -1.0529
 2068TIP3    H227840   2.799   3.787   2.256  0.3086 -1.2252  0.0123
 2069TIP3   OH227841   6.605   3.750   7.529 -0.2788 -0.1021 -1.0300
 2069TIP3    H127842   6.544   3.688   7.569  0.0699 -0.3046 -0.8033
 2069TIP3    H227843   6.692   3.713   7.547 -0.1202 -0.2703 -2.1180
 2070TIP3   OH227844   5.353   2.432   1.321  0.4060 -0.0724 -0.0804
 2070TIP3    H127845   5.319   2.450   1.408 -0.1206 -1.1272 -0.0579
 2070TIP3    H227846   5.447   2.417   1.335  0.2152 -0.8619  0.4061
 2071TIP3   OH227847   4.304   2.746   1.196 -0.4787  0.0576 -0.1270
 2071TIP3    H127848   4.286   2.666   1.244  0.7692 -0.1052  0.0874
 2071TIP3    H227849   4.356   2.718   1.120  0.7749  0.7475  0.4414
 2072TIP3   OH227850   2.360   2.110   7.430 -0.3557 -0.2934 -0.6316
 2072TIP3    H127851   2.402   2.194   7.447  0.5438 -0.5664 -1.3937
 2072TIP3    H227852   2.350   2.107   7.335  2.2833 -2.2460 -0.9433
 2073TIP3   OH227853   4.684   3.452   7.665 -0.3920 -0.1171  0.2341
 2073TIP3    H127854   4.704   3.358   7.675 -2.9055 -1.1833 -3.1124
 2073TIP3    H227855   4.768   3.491   7.642  0.6135 -1.6136  1.1498
 2074TIP3   OH227856   1.870   4.179   6.832  0.6159  0.5093 -0.1895
 2074TIP3    H127857   1.959   4.147   6.818  1.5913  2.8615  0.1641
 2074TIP3    H227858   1.853   4.161   6.925  1.1830  1.0248  0.0252
 2075TIP3   OH227859   5.246   0.295   8.642 -1.1382  0.8368  0.6363
 2075TIP3    H127860   5.192   0.286   8.720 -1.1668 -1.1752  0.4425
 2075TIP3    H227861   5.335   0.306   8.675 -0.8437 -2.0522  1.0548
 2076TIP3   OH227862   0.254   1.214   6.077 -0.3634  0.1128  0.1807
 2076TIP3    H127863   0.320   1.144   6.079 -0.3790  0.1142  1.0308
 2076TIP3    H227864   0.302   1.290   6.043 -0.4488 -0.3905 -1.1588
 2077TIP3   OH227865   0.528   6.093   1.790 -0.3158 -0.1770  0.6066
 2077TIP3    H127866   0.528   6.156   1.861 -1.1341 -0.8232  1.1948
 2077TIP3    H227867   0.469   6.024   1.819 -0.2042 -0.7354 -0.4487
 2078TIP3   OH227868   1.454   5.973   7.089  0.1138  0.4887  0.4461
 2078TIP3    H127869   1.459   6.027   7.168 -2.3309 -1.7455  2.3108
 2078TIP3    H227870   1.407   6.027   7.026  1.9194  2.2433  0.4987
 2079TIP3   OH227871   1.967   1.518   7.628  0.2221  0.0262 -1.0658
 2079TIP3    H127872   2.047   1.466   7.620  0.7514  0.7596 -0.5804
 2079TIP3    H227873   1.991   1.605   7.597  0.3864  0.9971  1.5719
 2080TIP3   OH227874   0.713   1.738   1.063 -0.5299  0.0873  0.5075
 2080TIP3    H127875   0.696   1.784   0.981  1.7089 -0.4288 -0.3116
 2080TIP3    H227876   0.676   1.794   1.130 -1.6943  0.9239 -0.7717
 2081TIP3   OH227877   1.662   1.789   6.916  0.5221  0.4190 -0.1184
 2081TIP3    H127878   1.670   1.817   7.007 -0.3021  1.1534 -0.2608
 2081TIP3    H227879   1.568   1.777   6.903  0.6991 -0.5124 -0.6368
 2082TIP3   OH227880   3.577   0.644   8.254 -0.2682 -0.6817 -0.7540
 2082TIP3    H127881   3.568   0.610   8.342  2.6884 -0.6719 -0.3512
 2082TIP3    H227882   3.505   0.605   8.205 -0.8399 -2.2017  1.1971
 2083TIP3   OH227883   6.062   0.207   6.209 -0.0471 -0.1316 -0.7223
 2083TIP3    H127884   6.154   0.218   6.235 -0.9680  1.5106  2.3583
 2083TIP3    H227885   6.049   0.272   6.140  1.3009 -1.1346 -1.9850
 2084TIP3   OH227886   6.365   6.619   1.342  0.0139  0.0626  0.3697
 2084TIP3    H127887   6.458   6.600   1.351 -0.6829 -3.8059  1.4455
 2084TIP3    H227888   6.348   6.612   1.248  0.6085 -0.6559  0.3075
 2085TIP3   OH227889   0.631   4.059   7.152 -0.0585  0.2667 -0.0561
 2085TIP3    H127890   0.636   4.058   7.056  2.8586 -1.9220 -0.0278
 2085TIP3    H227891   0.559   3.999   7.172  0.3236 -0.5087 -0.9108
 2086TIP3   OH227892   6.528   5.895   0.858 -0.2427  0.7103  0.1138
 2086TIP3    H127893   6.612   5.914   0.900 -0.4896 -0.3645  1.1640
 2086TIP3    H227894   6.538   5.807   0.823 -1.4990 -0.2387  1.9321
 2087TIP3   OH227895   6.547   6.842   6.665  0.2922 -0.1052 -0.5707
 2087TIP3    H127896   6.611   6.815   6.730 -0.3549 -2.2139 -0.7352
 2087TIP3    H227897   6.530   6.935   6.684  0.7306 -0.4499  1.7064
 2088TIP3   OH227898   0.110   3.833   1.263  0.2934  0.4278 -0.4598
 2088TIP3    H127899   0.200   3.837   1.296 -0.2337  0.6264  1.0606
 2088TIP3    H227900   0.107   3.755   1.208  1.0103 -0.5146  0.7745
 2089TIP3   OH227901   4.202   4.066   7.827  0.5856 -0.1696  0.0971
 2089TIP3    H127902   4.271   4.132   7.818 -0.6269  1.0348 -0.7916
 2089TIP3    H227903   4.248   3.986   7.853  2.5673  0.0703 -2.3741
 2090TIP3   OH227904   3.309   5.686   8.277  0.0081  0.1347 -0.2862
 2090TIP3    H127905   3.239   5.726   8.226  0.9515  0.0932 -1.6520
 2090TIP3    H227906   3.362   5.638   8.213 -0.6193 -2.6732  1.1732
 2091TIP3   OH227907   5.447   6.365   8.190 -0.0143 -0.0372  0.2405
 2091TIP3    H127908   5.481   6.320   8.113 -0.7755 -0.4812  0.1588
 2091TIP3    H227909   5.358   6.330   8.201 -1.4153  2.7855 -0.9876
 2092TIP3   OH227910   1.629   1.108   0.861  0.1256  0.2801  0.4006
 2092TIP3    H127911   1.722   1.085   0.865 -0.6531 -4.2754 -1.4086
 2092TIP3    H227912   1.600   1.108   0.953  1.5210 -0.4909  0.8671
 2093TIP3   OH227913   1.765   4.826   1.116  0.0898 -0.6196 -0.2873
 2093TIP3    H127914   1.683   4.801   1.158 -0.2768  1.4627  0.3274
 2093TIP3    H227915   1.821   4.854   1.188 -0.4466  2.7346 -1.0169
 2094TIP3   OH227916   6.569   0.019   8.065  0.1990 -0.1191 -0.1566
 2094TIP3    H127917   6.652   0.032   8.111  1.1228 -3.8502 -0.4579
 2094TIP3    H227918   6.502   0.036   8.132  1.3922 -1.5429  1.4810
 2095TIP3   OH227919   3.873   3.505   1.780  0.2607  0.2213  0.5073
 2095TIP3    H127920   3.876   3.585   1.831 -0.0449  0.7088 -0.2118
 2095TIP3    H227921   3.896   3.435   1.841 -1.9798  0.5419  1.8031
 2096TIP3   OH227922   3.041   3.943   2.421  0.4846 -0.3553 -0.1138
 2096TIP3    H127923   3.080   3.880   2.361  1.6106  1.0120 -0.8802
 2096TIP3    H227924   3.115   3.980   2.469 -0.3642 -1.3393  2.1310
 2097TIP3   OH227925   3.819   6.758   0.402 -0.0855 -0.4930 -0.0631
 2097TIP3    H127926   3.803   6.727   0.491 -0.5664 -1.2918 -0.4156
 2097TIP3    H227927   3.883   6.695   0.366  0.5639  0.1651 -0.0963
 2098TIP3   OH227928   2.689   2.172   8.629  0.1845  0.1023  0.0027
 2098TIP3    H127929   2.755   2.114   8.666  0.6887  0.2760 -0.6181
 2098TIP3    H227930   2.611   2.156   8.683  0.3592 -1.0172 -0.0543
 2099TIP3   OH227931   3.593   0.697   7.630  0.0895  0.0723 -0.0101
 2099TIP3    H127932   3.555   0.739   7.707  0.6168  0.4080  0.0739
 2099TIP3    H227933   3.519   0.657   7.585 -0.1235 -0.7640  1.0608
 2100TIP3   OH227934   6.719   4.069   6.403  0.0750 -0.0783  0.0652
 2100TIP3    H127935   6.809   4.101   6.402  0.7380 -1.8160  0.9674
 2100TIP3    H227936   6.694   4.062   6.311  1.6525 -1.6782 -0.2721
 2101TIP3   OH227937   1.791   3.878   0.939  0.0672 -0.3325 -0.1805
 2101TIP3    H127938   1.713   3.931   0.921  0.5765 -0.0646 -1.7139
 2101TIP3    H227939   1.861   3.921   0.890  0.8690 -1.4102 -0.0135
 2102TIP3   OH227940   2.520   1.665   0.822  0.1699  0.1300 -0.2262
 2102TIP3    H127941   2.558   1.620   0.897  1.5521  1.2197 -0.2275
 2102TIP3    H227942   2.521   1.758   0.846 -2.7791  0.2482 -0.1478
 2103TIP3   OH227943   0.535   0.823   6.736 -0.5742  0.3062 -0.4601
 2103TIP3    H127944   0.581   0.894   6.781 -0.1585 -0.0923 -0.2491
 2103TIP3    H227945   0.602   0.783   6.681 -0.5500 -0.5618  0.1874
 2104TIP3   OH227946   4.060   2.805   7.493 -0.1892 -0.2959 -0.4060
 2104TIP3    H127947   4.009   2.877   7.530  0.0224  0.5189 -1.6414
 2104TIP3    H227948   4.037   2.804   7.400  1.7979 -0.0563 -0.9629
 2105TIP3   OH227949   2.339   4.852   2.154  0.4391  0.5104  0.1524
 2105TIP3    H127950   2.373   4.771   2.191  0.2202  0.3992  0.1073
 2105TIP3    H227951   2.400   4.873   2.082  1.6406  1.4195  1.3857
 2106TIP3   OH227952   2.262   1.400   1.219 -0.5170 -0.1248 -0.4291
 2106TIP3    H127953   2.336   1.379   1.162 -0.3172  2.1872 -1.1318
 2106TIP3    H227954   2.295   1.468   1.278 -1.6255 -0.1871  0.3030
 2107TIP3   OH227955   1.026   1.820   0.558 -0.4275  0.3274  0.5727
 2107TIP3    H127956   0.958   1.777   0.609 -0.4599 -0.4435 -0.1129
 2107TIP3    H227957   1.065   1.883   0.619 -0.9300 -0.0864  1.3357
 2108TIP3   OH227958   6.610   6.463   6.324  0.3173  0.0969  0.0654
 2108TIP3    H127959   6.580   6.487   6.412  1.0702 -1.7479  0.8729
 2108TIP3    H227960   6.581   6.372   6.313 -0.9084  0.6897 -2.1495
 2109TIP3   OH227961   4.790   3.161   0.203 -0.0915  0.3355 -0.1662
 2109TIP3    H127962   4.783   3.223   0.276 -0.3645  1.1341 -0.8502
 2109TIP3    H227963   4.700   3.130   0.190  0.1253 -0.5958  0.4972
 2110TIP3   OH227964   4.315   3.244   1.387  0.1599  0.7771 -0.6962
 2110TIP3    H127965   4.302   3.204   1.301  0.7386  1.9034 -1.3222
 2110TIP3    H227966   4.321   3.338   1.370  2.1428  0.8909  0.3269
 2111TIP3   OH227967   0.988   5.807   7.445 -0.1968 -0.1820  0.2631
 2111TIP3    H127968   0.975   5.802   7.539 -0.3504 -1.0787  0.2032
 2111TIP3    H227969   0.923   5.870   7.414  0.6529  1.0359  0.8983
 2112TIP3   OH227970   6.265   3.981   1.824 -0.2935 -0.3696  0.5551
 2112TIP3    H127971   6.359   3.993   1.833 -0.3136 -1.3019  2.3394
 2112TIP3    H227972   6.250   3.890   1.850 -1.6871 -0.2774  0.1583
 2113TIP3   OH227973   0.404   1.185   7.040  0.2468  0.0356  0.3760
 2113TIP3    H127974   0.388   1.094   7.065  0.7065 -0.9637 -2.5290
 2113TIP3    H227975   0.317   1.226   7.040 -0.0832 -0.6499  0.9020
 2114TIP3   OH227976   3.884   1.194   8.230 -0.4044  0.2484  0.2803
 2114TIP3    H127977   3.878   1.109   8.272 -1.3023  0.5869  0.8755
 2114TIP3    H227978   3.814   1.245   8.270 -1.0237  0.7171 -1.3514
 2115TIP3   OH227979   4.322   1.029   7.199  0.5899  0.0784  0.4812
 2115TIP3    H127980   4.277   1.046   7.116 -0.0941 -0.1191  0.8011
 2115TIP3    H227981   4.407   0.994   7.173  1.1939  1.9203 -0.1548
 2116TIP3   OH227982   4.332   1.671   1.544  0.3145  0.0480 -0.3061
 2116TIP3    H127983   4.338   1.579   1.565  0.2559 -0.1376 -1.0544
 2116TIP3    H227984   4.306   1.714   1.626  1.4227 -0.4441  0.3229
 2117TIP3   OH227985   5.850   6.060   1.132 -0.1742 -0.3231  0.0402
 2117TIP3    H127986   5.931   6.109   1.114  0.0367 -0.2495  1.1462
 2117TIP3    H227987   5.878   5.985   1.185 -0.9298  0.1566  1.1461
 2118TIP3   OH227988   0.238   6.358   1.661 -0.0765  0.1150  0.6880
 2118TIP3    H127989   0.214   6.272   1.695 -0.0755 -0.3072 -0.3268
 2118TIP3    H227990   0.312   6.386   1.715 -1.1179  0.2380  2.1091
 2119TIP3   OH227991   4.768   3.691   1.740 -0.4938  0.1828  0.5138
 2119TIP3    H127992   4.799   3.603   1.718 -0.1691  0.1532  1.0627
 2119TIP3    H227993   4.681   3.677   1.776 -1.5093  0.3379 -1.7388
 2120TIP3   OH227994   4.466   5.611   8.271  0.2104 -0.7583 -0.6066
 2120TIP3    H127995   4.517   5.541   8.313 -0.1827  0.4036  2.0240
 2120TIP3    H227996   4.532   5.661   8.222  1.4669 -0.1063  1.5864
 2121TIP3   OH227997   2.897   1.186   7.633 -0.1749 -0.7309 -0.1653
 2121TIP3    H127998   2.981   1.144   7.612 -0.8067 -2.3421  0.3356
 2121TIP3    H227999   2.911   1.226   7.718  0.7829  1.1666 -1.1419
 2122TIP3   OH228000   4.625   3.739   8.168  0.3036  0.5010  0.0741
 2122TIP3    H128001   4.712   3.779   8.164  0.8566 -0.6048  0.7648
 2122TIP3    H228002   4.624   3.677   8.095 -0.6296  1.8363 -1.1248
 2123TIP3   OH228003   5.683   5.481   0.873  0.2672  0.2086  0.3727
 2123TIP3    H128004   5.590   5.504   0.863  0.9307  2.9660 -0.1965
 2123TIP3    H228005   5.690   5.395   0.833 -2.3240 -0.8203  1.8433
 2124TIP3   OH228006   1.725   2.180   0.926  0.1976  0.4914  0.1113
 2124TIP3    H128007   1.637   2.211   0.902 -0.3066 -1.6854 -1.1578
 2124TIP3    H228008   1.777   2.190   0.846  0.6422  0.2198  0.3629
 2125TIP3   OH228009   5.755   5.954   2.678 -0.0403  0.7132  0.2215
 2125TIP3    H128010   5.826   6.009   2.646  1.0950 -0.3192  0.8380
 2125TIP3    H228011   5.735   5.895   2.604  0.4623  0.3395  0.3770
 2126TIP3   OH228012   6.682   4.203   1.366  0.0219 -0.9340  0.4864
 2126TIP3    H128013   6.637   4.194   1.450 -0.5466  0.5449  0.3767
 2126TIP3    H228014   6.719   4.117   1.349 -1.5245 -1.8041  1.2958
 2127TIP3   OH228015   6.561   4.247   8.497 -0.2408 -0.0215  0.3732
 2127TIP3    H128016   6.499   4.178   8.522 -0.2001 -0.6819 -1.2166
 2127TIP3    H228017   6.647   4.209   8.515 -0.2453  0.5219  1.6548
 2128TIP3   OH228018   4.206   5.851   7.325 -0.0734 -0.0540 -0.3394
 2128TIP3    H128019   4.267   5.844   7.398  2.4670  3.0497 -1.9216
 2128TIP3    H228020   4.193   5.761   7.296  0.5632 -1.1655  2.5095
 2129TIP3   OH228021   1.865   6.630   7.724 -0.6049 -0.0961  0.1412
 2129TIP3    H128022   1.852   6.552   7.670 -2.2754  0.2761 -0.0688
 2129TIP3    H228023   1.786   6.683   7.709 -0.2603  0.8786  1.5305
 2130TIP3   OH228024   3.551   6.517   1.274 -0.0352  0.2451  0.0351
 2130TIP3    H128025   3.525   6.542   1.362 -0.6080 -2.8480  0.8560
 2130TIP3    H228026   3.647   6.527   1.273  0.0775 -0.5554  1.3349
 2131TIP3   OH228027   3.814   5.378   7.861  0.1900  0.1465 -0.0604
 2131TIP3    H128028   3.727   5.395   7.825 -0.2161 -1.1553  0.2772
 2131TIP3    H228029   3.869   5.362   7.785  0.4459  2.1398 -0.3594
 2132TIP3   OH228030   1.934   2.019   8.031 -0.0018  0.0412  0.4400
 2132TIP3    H128031   1.917   1.970   8.112 -0.2147 -0.9542 -0.1852
 2132TIP3    H228032   1.859   2.078   8.022  0.1571  0.3499  1.1041
 2133TIP3   OH228033   2.082   2.927   8.032 -0.4450 -0.0074  0.2560
 2133TIP3    H128034   2.057   3.009   8.073 -0.5554  0.2971 -0.4028
 2133TIP3    H228035   1.999   2.881   8.018 -0.3649 -0.3388  0.8308
 2134TIP3   OH228036   0.480   5.251   8.391  0.4176 -0.1373  0.6353
 2134TIP3    H128037   0.448   5.172   8.434  0.2792 -0.0354  0.7220
 2134TIP3    H228038   0.542   5.220   8.325 -1.0364 -0.4540 -0.6351
 2135TIP3   OH228039   3.160   4.816   1.664  0.7295  0.2096 -0.0629
 2135TIP3    H128040   3.182   4.844   1.752  0.9157 -0.4198  0.0971
 2135TIP3    H228041   3.239   4.831   1.612  0.6847  0.3939 -0.0774
 2136TIP3   OH228042   1.967   2.759   7.330 -0.2715 -0.3395  0.2473
 2136TIP3    H128043   2.010   2.814   7.264  1.6104 -0.6147  1.1691
 2136TIP3    H228044   1.958   2.674   7.289  1.7588 -0.7733  0.5854
 2137TIP3   OH228045   1.359   1.235   1.478  0.1787 -0.1970  0.1817
 2137TIP3    H128046   1.442   1.272   1.510  0.4334  0.1229 -0.8297
 2137TIP3    H228047   1.329   1.296   1.411 -0.3381 -0.8724 -0.2126
 2138TIP3   OH228048   6.299   1.018   2.684  0.3219 -0.3260  0.0439
 2138TIP3    H128049   6.268   1.101   2.648 -0.8536 -0.0092  1.6442
 2138TIP3    H228050   6.304   0.959   2.609  1.2656  1.2016 -1.1317
 2139TIP3   OH228051   6.889   5.355   0.474 -0.1014  0.0271  0.2164
 2139TIP3    H128052   6.856   5.434   0.432  2.3275  0.8383 -0.3635
 2139TIP3    H228053   6.812   5.299   0.486 -1.2340  0.4715 -3.6766
 2140TIP3   OH228054   6.569   5.638   8.123  0.4236  0.8653 -0.0563
 2140TIP3    H128055   6.659   5.669   8.136  0.5830 -0.0419  1.2393
 2140TIP3    H228056   6.514   5.712   8.148  0.8083  1.3086 -0.5122
 2141TIP3   OH228057   6.293   3.941   8.352  0.3006  0.0560  0.1789
 2141TIP3    H128058   6.320   3.885   8.279 -0.2839  0.0648 -0.0473
 2141TIP3    H228059   6.243   4.012   8.311 -0.3892 -0.1637  0.6257
 2142TIP3   OH228060   4.273   1.085   0.643 -0.0921  0.4286 -0.0802
 2142TIP3    H128061   4.287   1.179   0.658 -0.6076  0.4940  0.0290
 2142TIP3    H228062   4.240   1.053   0.727 -1.7424  0.5314 -0.6515
 2143TIP3   OH228063   3.025   0.759   6.968 -0.2067  0.7056  0.3519
 2143TIP3    H128064   3.017   0.853   6.953  0.4755  0.8708  0.9464
 2143TIP3    H228065   3.025   0.720   6.881 -2.0687  1.1072  0.1428
 2144TIP3   OH228066   1.826   4.825   7.622 -0.2135 -0.1411 -0.3029
 2144TIP3    H128067   1.739   4.838   7.658  0.6155  0.6352  1.5093
 2144TIP3    H228068   1.848   4.734   7.643  1.2189  0.9298  3.5486
 2145TIP3   OH228069   3.029   3.916   1.255 -0.2418  0.0582  0.0188
 2145TIP3    H128070   2.967   3.961   1.199 -0.5328 -0.3723 -0.0085
 2145TIP3    H228071   2.983   3.905   1.338  0.2403  0.8286  0.3960
 2146TIP3   OH228072   1.623   3.293   1.733  0.3545 -0.0157  0.4473
 2146TIP3    H128073   1.688   3.361   1.749 -0.9133  0.9314  1.8208
 2146TIP3    H228074   1.562   3.332   1.670 -0.4583  0.1964  1.3510
 2147TIP3   OH228075   5.847   6.004   1.728 -0.0605  0.0482 -0.1367
 2147TIP3    H128076   5.852   5.909   1.743  2.4794  0.5128  3.2935
 2147TIP3    H228077   5.780   6.035   1.788 -0.3033  0.5189 -0.6424
 2148TIP3   OH228078   1.823   2.049   8.448 -0.0234 -0.8852  0.0745
 2148TIP3    H128079   1.743   2.037   8.397  0.5843 -2.0805 -0.6338
 2148TIP3    H228080   1.893   2.021   8.390  0.8715 -0.3766  0.8812
 2149TIP3   OH228081   2.837   1.767   7.688  0.0134 -0.1281 -0.6121
 2149TIP3    H128082   2.835   1.730   7.600  0.4875 -0.5200 -0.4616
 2149TIP3    H228083   2.750   1.805   7.700 -0.9946 -2.3100 -0.3103
 2150TIP3   OH228084   2.495   4.448   8.247 -0.0864 -0.5938 -0.5678
 2150TIP3    H128085   2.415   4.436   8.196  0.9382 -0.9496 -2.1807
 2150TIP3    H228086   2.528   4.533   8.218 -0.8602  0.5076  1.5655
 2151TIP3   OH228087   2.065   2.051   0.333 -0.0053 -0.5430 -0.1039
 2151TIP3    H128088   2.113   2.037   0.414  0.7533  1.0827 -0.2383
 2151TIP3    H228089   2.100   2.133   0.298  0.8621 -1.9783 -2.8944
 2152TIP3   OH228090   5.615   6.204   6.994 -0.1340 -0.0605  0.0890
 2152TIP3    H128091   5.700   6.184   6.953 -0.3050 -2.4605  0.7487
 2152TIP3    H228092   5.634   6.206   7.087 -0.1247  3.4495  0.1439
 2153TIP3   OH228093   0.085   2.620   0.722  0.2863 -0.0680 -0.2533
 2153TIP3    H128094   0.014   2.605   0.660 -1.2237  0.4522  1.2597
 2153TIP3    H228095   0.150   2.553   0.702 -1.4907 -1.8112 -0.4850
 2154TIP3   OH228096   0.689   3.515   6.753  0.0074  0.3507  0.2750
 2154TIP3    H128097   0.603   3.474   6.757  0.1644 -0.1065 -0.5818
 2154TIP3    H228098   0.750   3.441   6.762  0.2997  0.5315 -0.1928
 2155TIP3   OH228099   4.252   6.811   8.207  0.4583  0.0212  0.1100
 2155TIP3    H128100   4.301   6.890   8.185  0.4206 -0.1816 -0.7472
 2155TIP3    H228101   4.171   6.818   8.158  0.7260 -0.8349 -0.4845
 2156TIP3   OH228102   6.650   4.013   0.747  0.0635 -0.0485  0.5826
 2156TIP3    H128103   6.631   4.107   0.739  1.0681  0.0929 -0.3926
 2156TIP3    H228104   6.564   3.973   0.763 -0.7000  0.8146 -1.0968
 2157TIP3   OH228105   6.231   1.628   2.194 -0.8138  0.1869 -1.0377
 2157TIP3    H128106   6.209   1.606   2.284 -0.9216 -2.1400 -1.5851
 2157TIP3    H228107   6.317   1.589   2.180  0.1527  2.2705 -1.3921
 2158TIP3   OH228108   0.819   2.613   7.147 -0.1526 -0.0450  0.2014
 2158TIP3    H128109   0.860   2.589   7.064 -1.6556  0.1269 -0.6306
 2158TIP3    H228110   0.888   2.599   7.213  1.8768  2.1256 -1.2986
 2159TIP3   OH228111   1.457   5.450   7.501 -0.1408  0.3458 -0.4137
 2159TIP3    H128112   1.550   5.465   7.517  0.7367 -2.9372 -1.6864
 2159TIP3    H228113   1.443   5.480   7.411 -0.3302  0.8276 -0.2268
 2160TIP3   OH228114   2.517   4.139   8.440 -0.8708  0.8572 -0.4409
 2160TIP3    H128115   2.454   4.189   8.388 -0.5563 -0.4922 -2.2305
 2160TIP3    H228116   2.465   4.073   8.484 -0.6934 -1.6053 -3.5245
 2161TIP3   OH228117   0.336   2.901   8.385 -0.2212 -0.0119 -0.1286
 2161TIP3    H128118   0.322   2.977   8.329  0.0418  0.4014  0.3608
 2161TIP3    H228119   0.340   2.937   8.473  1.7378 -0.3457 -0.0337
 2162TIP3   OH228120   4.252   6.484   0.472 -0.6540  0.4678 -0.0179
 2162TIP3    H128121   4.347   6.486   0.483 -0.8657 -0.2027  2.6717
 2162TIP3    H228122   4.220   6.562   0.517 -1.4566 -0.2944  0.7871
 2163TIP3   OH228123   4.211   3.012   1.509 -0.0528  0.3186 -0.0813
 2163TIP3    H128124   4.226   3.054   1.425 -0.3489 -1.1818 -0.9243
 2163TIP3    H228125   4.258   3.066   1.572 -1.4716  2.6219 -0.8869
 2164TIP3   OH228126   0.312   4.667   0.767  0.0672  0.2264  0.4561
 2164TIP3    H128127   0.377   4.609   0.807  0.4471 -0.4682 -1.0998
 2164TIP3    H228128   0.239   4.667   0.829  0.4658 -1.1290  0.9729
 2165TIP3   OH228129   0.567   6.734   1.962 -0.4095  0.0307 -0.3120
 2165TIP3    H128130   0.500   6.797   1.986  0.4661  0.6877  0.5126
 2165TIP3    H228131   0.650   6.781   1.975  0.2881 -1.4296  0.8353
 2166TIP3   OH228132   5.668   0.025   7.083 -0.0071 -0.5307 -0.3780
 2166TIP3    H128133   5.674  -0.009   6.994 -0.2136 -0.9147 -0.2503
 2166TIP3    H228134   5.725  -0.033   7.134 -1.4600 -1.6148  0.0968
 2167TIP3   OH228135   1.743   1.010   7.551  0.6094  0.3083 -0.3624
 2167TIP3    H128136   1.741   1.065   7.473  0.6405  1.2195  0.2568
 2167TIP3    H228137   1.790   1.063   7.616  0.7903 -0.5285  0.1984
 2168TIP3   OH228138   0.027   3.161   1.555  0.9397  0.4993 -0.1662
 2168TIP3    H128139   0.057   3.218   1.627 -0.6066 -0.2935  1.1696
 2168TIP3    H228140   0.081   3.082   1.565 -1.7659 -1.2181  2.6803
 2169TIP3   OH228141   3.564   6.513   6.725 -0.4752 -0.6129 -0.0033
 2169TIP3    H128142   3.557   6.512   6.629 -1.2233 -1.6116  0.0472
 2169TIP3    H228143   3.608   6.596   6.744  0.9303 -1.0018 -1.2881
 2170TIP3   OH228144   0.186   1.960   1.488  0.1473  0.1806  0.0616
 2170TIP3    H128145   0.249   2.026   1.458  1.4536 -0.8180  0.5037
 2170TIP3    H228146   0.172   1.981   1.581 -0.5636  0.6770 -0.1442
 2171TIP3   OH228147   0.524   4.372   6.972  0.4337 -0.3260  0.5597
 2171TIP3    H128148   0.522   4.379   6.876  0.6315 -0.0768  0.5721
 2171TIP3    H228149   0.561   4.286   6.990 -2.6938 -1.8746  0.3819
 2172TIP3   OH228150   5.122   0.813   6.973  0.2817  0.2216  0.1086
 2172TIP3    H128151   5.146   0.808   7.065 -1.3853 -4.0671  0.5763
 2172TIP3    H228152   5.034   0.850   6.973  1.2796  2.8086 -0.1834
 2173TIP3   OH228153   5.786   4.785   1.671 -0.1066  0.1788 -0.7557
 2173TIP3    H128154   5.735   4.786   1.590 -1.3264 -0.8710 -0.0204
 2173TIP3    H228155   5.781   4.695   1.702 -2.3421  1.1769  2.1414
 2174TIP3   OH228156   4.947   0.125   1.494 -0.3014  0.0549  0.5892
 2174TIP3    H128157   4.932   0.049   1.551 -0.2828 -1.0898 -0.8860
 2174TIP3    H228158   5.039   0.148   1.508 -0.5480  0.4012  1.7279
 2175TIP3   OH228159   3.127   2.112   8.487 -0.1070 -0.0526 -0.3761
 2175TIP3    H128160   3.058   2.063   8.532  1.0374 -0.3979  1.0947
 2175TIP3    H228161   3.109   2.204   8.507 -1.8619  0.1695 -2.5706
 2176TIP3   OH228162   4.517   0.695   7.798 -0.1944  0.1810 -0.2470
 2176TIP3    H128163   4.499   0.789   7.787  0.5783  0.3955  0.2575
 2176TIP3    H228164   4.572   0.672   7.723  0.1733  0.2845 -0.0083
 2177TIP3   OH228165   1.148   4.521   1.021 -0.4250  0.7205  0.1227
 2177TIP3    H128166   1.195   4.468   0.956  0.5809 -1.1210  2.1919
 2177TIP3    H228167   1.070   4.471   1.042 -0.0956  0.6100  1.2032
 2178TIP3   OH228168   2.805   4.314   7.112  0.6633 -0.0217 -0.2121
 2178TIP3    H128169   2.793   4.350   7.200  1.4271  0.9308 -0.4700
 2178TIP3    H228170   2.806   4.219   7.124  0.4068  0.0896  0.7516
 2179TIP3   OH228171   5.073   6.480   0.445  0.6436  0.1366 -0.1195
 2179TIP3    H128172   4.979   6.459   0.442  0.5949  0.3718 -0.2754
 2179TIP3    H228173   5.076   6.570   0.480  0.8174  0.0922 -0.0179
 2180TIP3   OH228174   2.414   1.087   0.250  0.7217  0.3012 -0.3316
 2180TIP3    H128175   2.479   1.033   0.205  0.6609  1.6217 -2.0920
 2180TIP3    H228176   2.423   1.173   0.211 -0.5360  1.0987  1.0282
 2181TIP3   OH228177   6.151   2.930   6.117  0.1767  0.0856 -0.2919
 2181TIP3    H128178   6.153   3.016   6.157 -1.0421 -0.4403  0.9662
 2181TIP3    H228179   6.062   2.921   6.082  0.1252 -0.8441  0.0392
 2182TIP3   OH228180   1.954   0.154   0.711 -0.3819 -0.2962 -0.2944
 2182TIP3    H128181   1.906   0.138   0.630  1.3186 -1.6092 -1.1042
 2182TIP3    H228182   1.984   0.245   0.703  0.8327 -0.7883 -1.7543
 2183TIP3   OH228183   5.225   1.515   6.970 -0.1325  0.2195 -0.2049
 2183TIP3    H128184   5.270   1.512   6.885  0.5202 -0.8143  0.1603
 2183TIP3    H228185   5.188   1.603   6.974 -0.7919  0.0657 -1.8705
 2184TIP3   OH228186   5.872   2.762   0.801  0.3354  0.0326  0.2413
 2184TIP3    H128187   5.814   2.832   0.832 -0.8988 -1.5417  1.7161
 2184TIP3    H228188   5.917   2.732   0.880 -0.6600 -2.1257  0.0688
 2185TIP3   OH228189   1.322   2.815   0.208 -0.1908  0.4569  0.1413
 2185TIP3    H128190   1.230   2.797   0.228 -0.7585  0.0372 -2.4879
 2185TIP3    H228191   1.324   2.906   0.180  0.6743  1.2075  2.4454
 2186TIP3   OH228192   6.314   0.021   7.686  0.4077 -0.3123 -0.2217
 2186TIP3    H128193   6.250   0.007   7.756  0.1983 -0.1068 -0.3683
 2186TIP3    H228194   6.369  -0.057   7.688  1.0109  0.1232  0.8144
 2187TIP3   OH228195   6.129   1.259   0.239  0.1763 -0.8570  0.2717
 2187TIP3    H128196   6.217   1.229   0.260 -0.3430 -2.1983  0.6358
 2187TIP3    H228197   6.136   1.355   0.234  1.7769 -0.9870 -0.3544
 2188TIP3   OH228198   3.131   1.771   0.913 -0.5714 -0.4127  0.7705
 2188TIP3    H128199   3.121   1.865   0.929  0.0765 -0.6894  3.0470
 2188TIP3    H228200   3.044   1.743   0.883 -0.3203  1.1721 -1.7502
 2189TIP3   OH228201   2.945   6.483   7.882 -0.0658 -0.4045 -0.3556
 2189TIP3    H128202   2.864   6.433   7.870 -0.1275 -0.4607  0.2993
 2189TIP3    H228203   2.930   6.534   7.961  0.2741  0.1135 -0.6261
 2190TIP3   OH228204   1.682   3.826   6.860 -0.1886 -0.1072 -0.5775
 2190TIP3    H128205   1.696   3.870   6.945 -1.8533  1.5946 -1.1018
 2190TIP3    H228206   1.667   3.734   6.883 -2.5362  0.6120  1.2610
 2191TIP3   OH228207   1.925   1.819   8.263 -0.2520 -0.1362  0.2542
 2191TIP3    H128208   1.928   1.736   8.215 -1.1173  0.1290 -0.2887
 2191TIP3    H228209   1.836   1.822   8.299 -0.8688  1.3669 -1.2503
 2192TIP3   OH228210   5.701   3.191   2.010  0.0706  0.6134  0.1601
 2192TIP3    H128211   5.654   3.241   1.943  0.9205  0.1116 -0.8377
 2192TIP3    H228212   5.650   3.112   2.022 -0.4682  1.0263  0.6405
 2193TIP3   OH228213   3.617   0.207   8.364 -0.3032  0.2957 -0.4587
 2193TIP3    H128214   3.545   0.217   8.427 -0.3001  1.0374 -0.5595
 2193TIP3    H228215   3.673   0.283   8.379  0.2191 -0.0343 -0.6982
 2194TIP3   OH228216   0.437   5.096   0.827 -0.0777 -0.3889  0.0846
 2194TIP3    H128217   0.449   5.153   0.903  1.9041  1.3521 -1.4243
 2194TIP3    H228218   0.479   5.014   0.853  1.7056  0.5952  0.4621
 2195TIP3   OH228219   1.029   2.910   6.896 -0.4214 -0.2180 -0.3835
 2195TIP3    H128220   0.951   2.949   6.857 -0.4373  0.5812  0.4036
 2195TIP3    H228221   1.089   2.984   6.909 -1.2637  0.0490  3.1550
 2196TIP3   OH228222   6.723   0.008   1.235  0.2843  1.0745 -0.5620
 2196TIP3    H128223   6.775   0.028   1.157  2.9713 -1.5345  0.3840
 2196TIP3    H228224   6.786  -0.026   1.298 -2.3166 -0.3836  1.4438
 2197TIP3   OH228225   6.555   4.254   6.608 -0.1106  0.0028  0.1802
 2197TIP3    H128226   6.576   4.166   6.640  1.2060  0.5591  0.9271
 2197TIP3    H228227   6.463   4.267   6.631 -0.3751 -1.2263 -0.0868
 2198TIP3   OH228228   4.145   0.994   0.149  0.0927 -0.2170 -0.4660
 2198TIP3    H128229   4.124   0.901   0.157  1.8602 -0.6352 -0.3125
 2198TIP3    H228230   4.238   0.996   0.127  0.4561  1.5590  1.0051
 2199TIP3   OH228231   1.356   1.778   8.088 -0.2536 -0.0010 -0.3942
 2199TIP3    H128232   1.356   1.816   8.176 -0.2380 -1.2855  0.1819
 2199TIP3    H228233   1.443   1.740   8.077 -0.4042 -0.2488 -0.7762
 2200TIP3   OH228234   0.415   2.690   0.637  0.1949 -0.2134 -0.5674
 2200TIP3    H128235   0.508   2.686   0.613 -0.0433  0.6164 -1.7359
 2200TIP3    H228236   0.401   2.781   0.663 -0.3410 -0.2814 -0.6070
 2201TIP3   OH228237   0.228   5.568   7.927  0.3202 -0.5725 -0.2671
 2201TIP3    H128238   0.254   5.516   8.003  1.9517 -0.4816 -0.7166
 2201TIP3    H228239   0.133   5.558   7.922  0.4443 -2.5497  0.3507
 2202TIP3   OH228240   2.868   1.736   0.081 -0.1578  0.0101  0.1298
 2202TIP3    H128241   2.856   1.659   0.026 -1.6469 -1.3214  2.1433
 2202TIP3    H228242   2.924   1.706   0.152  0.3454  1.1817  0.2392
 2203TIP3   OH228243   3.305   2.189   1.154 -0.2457 -0.2541  0.3400
 2203TIP3    H128244   3.343   2.274   1.178  0.5589 -0.4562 -0.1660
 2203TIP3    H228245   3.211   2.205   1.148 -0.4530 -0.0562  2.9862
 2204TIP3   OH228246   4.887   3.816   8.573 -0.4073  0.0964 -0.5897
 2204TIP3    H128247   4.849   3.741   8.528 -2.0540 -0.2742  1.2684
 2204TIP3    H228248   4.945   3.778   8.639  0.2063  0.5410 -0.8619
 2205TIP3   OH228249   5.033   6.243   2.024  0.3494  0.7807  0.3596
 2205TIP3    H128250   5.000   6.209   2.107 -1.2339  2.9425  0.7176
 2205TIP3    H228251   5.009   6.336   2.025 -2.4519  0.3659 -3.7346
 2206TIP3   OH228252   1.189   1.395   7.076 -0.0938  0.0008 -0.0831
 2206TIP3    H128253   1.184   1.391   6.980 -2.0764 -1.7702 -0.0067
 2206TIP3    H228254   1.201   1.487   7.096  0.3631  0.4107 -2.0462
 2207TIP3   OH228255   5.612   6.548   1.980 -0.2711 -0.5646 -1.1755
 2207TIP3    H128256   5.639   6.470   1.931  0.6497 -0.2712 -1.1525
 2207TIP3    H228257   5.530   6.575   1.939 -1.5428 -2.5042 -0.1207
 2208TIP3   OH228258   3.682   1.768   7.789 -0.2972  0.3416 -0.2280
 2208TIP3    H128259   3.774   1.753   7.766 -0.3584  2.5324 -2.3739
 2208TIP3    H228260   3.634   1.744   7.710 -1.4964  0.0306  0.5749
 2209TIP3   OH228261   2.784   2.854   6.791 -0.2172  0.2529  0.6386
 2209TIP3    H128262   2.856   2.791   6.790  0.3515  0.8590  1.3869
 2209TIP3    H228263   2.775   2.882   6.700 -0.3769 -0.7742  0.3252
 2210TIP3   OH228264   6.199   6.009   0.061  0.1332 -0.0610  0.1514
 2210TIP3    H128265   6.279   6.044   0.100  0.3107 -0.3817  0.0726
 2210TIP3    H228266   6.187   6.062  -0.019  0.5310 -0.3348 -0.0921
 2211TIP3   OH228267   2.797   4.576   7.038 -0.2362  0.4252 -0.1365
 2211TIP3    H128268   2.819   4.484   7.054 -0.0330  0.0725 -2.2403
 2211TIP3    H228269   2.704   4.574   7.013 -0.0475  0.6882 -0.8767
 2212TIP3   OH228270   3.846   2.211   0.155  0.4242 -0.2412  0.0032
 2212TIP3    H128271   3.787   2.139   0.134  0.7257 -0.8347  1.0624
 2212TIP3    H228272   3.833   2.276   0.086  0.9830 -1.8135 -1.6591
 2213TIP3   OH228273   1.649   5.075   8.092 -0.6515  0.0737 -0.0520
 2213TIP3    H128274   1.699   5.150   8.062 -1.9812  0.2069 -2.0846
 2213TIP3    H228275   1.702   4.999   8.067 -0.0264  0.2557  0.6585
 2214TIP3   OH228276   1.859   5.841   1.322 -0.3549 -1.0778  0.0836
 2214TIP3    H128277   1.902   5.797   1.395  1.2641 -0.3270 -0.3572
 2214TIP3    H228278   1.770   5.856   1.352  0.3486 -0.5071  2.0558
 2215TIP3   OH228279   4.653   3.588   0.584 -0.3345 -0.3756 -0.0052
 2215TIP3    H128280   4.702   3.656   0.538 -0.2950  0.1842  0.8359
 2215TIP3    H228281   4.720   3.529   0.619 -0.1449  0.8567  1.8774
 2216TIP3   OH228282   3.357   2.086   8.126 -0.1061 -0.3250  0.1422
 2216TIP3    H128283   3.291   2.054   8.188  0.8149 -0.5358  1.0240
 2216TIP3    H228284   3.438   2.043   8.153  0.6214  0.7739 -0.2657
 2217TIP3   OH228285   4.278   4.840   2.647 -0.1419  0.2000 -0.0321
 2217TIP3    H128286   4.296   4.752   2.680  0.2141  0.0495 -0.6001
 2217TIP3    H228287   4.214   4.827   2.577  0.6277  0.2678 -0.7725
 2218TIP3   OH228288   1.451   4.211   1.065 -0.2203  0.1403 -0.3841
 2218TIP3    H128289   1.411   4.263   0.995 -0.4689 -0.9617 -1.0714
 2218TIP3    H228290   1.377   4.171   1.111  0.0111 -0.6507 -0.6832
 2219TIP3   OH228291   5.235   5.671   8.182 -0.6435 -0.1266  0.4061
 2219TIP3    H128292   5.161   5.613   8.201 -0.6285 -0.1739  0.3186
 2219TIP3    H228293   5.312   5.616   8.197 -0.6229 -0.0504  0.5919
 2220TIP3   OH228294   6.732   3.095   0.048 -0.3458  0.0170 -0.4199
 2220TIP3    H128295   6.640   3.074   0.030 -0.5713  1.3658 -0.9662
 2220TIP3    H228296   6.733   3.122   0.139 -0.3273 -0.7872 -0.1702
 2221TIP3   OH228297   6.202   5.631   8.271 -0.2837  0.0851 -0.1334
 2221TIP3    H128298   6.247   5.650   8.353  1.0036  0.5482 -0.9137
 2221TIP3    H228299   6.197   5.535   8.268  0.7165  0.0252 -0.0539
 2222TIP3   OH228300   6.732   3.016   2.794 -0.0285  0.2208  0.1935
 2222TIP3    H128301   6.794   3.086   2.815  0.1241  0.1923 -0.1490
 2222TIP3    H228302   6.776   2.964   2.726 -0.2109 -0.1072  0.3227
 2223TIP3   OH228303   1.030   0.609   7.743 -0.2393  0.0961 -0.2880
 2223TIP3    H128304   1.116   0.605   7.702 -0.6601  1.5200 -1.3651
 2223TIP3    H228305   1.022   0.700   7.773 -1.4855  0.0600 -0.4803
 2224TIP3   OH228306   2.173   1.494   7.888 -0.3065 -0.0645  0.2594
 2224TIP3    H128307   2.186   1.588   7.876 -1.5433  0.1168  0.1896
 2224TIP3    H228308   2.136   1.485   7.975  1.5071 -0.6853  1.0166
 2225TIP3   OH228309   1.650   6.440   0.493 -0.0447 -0.1528 -0.9808
 2225TIP3    H128310   1.636   6.429   0.399  0.9290  0.5143 -1.2093
 2225TIP3    H228311   1.708   6.367   0.516 -1.8042 -1.4799 -0.4928
 2226TIP3   OH228312   6.134   3.278   8.118 -0.7956 -0.2837  0.7344
 2226TIP3    H128313   6.142   3.361   8.164  0.1797 -0.8801  1.7008
 2226TIP3    H228314   6.209   3.227   8.148 -0.1482 -0.7405 -1.4826
 2227TIP3   OH228315   6.519   3.339   1.532 -0.9043  0.1383 -0.3865
 2227TIP3    H128316   6.608   3.336   1.497 -0.3277  0.8978  0.9735
 2227TIP3    H228317   6.487   3.249   1.524 -0.0357 -0.1363 -0.8903
 2228TIP3   OH228318   4.064   6.700   6.502 -0.0669 -0.5612 -0.4680
 2228TIP3    H128319   4.006   6.670   6.432  0.2360  1.4304 -1.6715
 2228TIP3    H228320   4.019   6.777   6.538 -0.2151 -1.5522  1.5933
 2229TIP3   OH228321   5.006   6.152   1.785  0.0887  0.2781  0.2178
 2229TIP3    H128322   4.928   6.200   1.755  1.7237  2.1526 -1.3354
 2229TIP3    H228323   5.022   6.185   1.873  0.0607  1.1765 -0.0984
 2230TIP3   OH228324   3.354   6.004   0.429  0.3008  0.0371  0.5513
 2230TIP3    H128325   3.281   5.963   0.476 -0.7695  1.3635  0.1289
 2230TIP3    H228326   3.431   5.957   0.458 -0.9835 -3.4820 -1.2219
 2231TIP3   OH228327   6.032   0.792   0.821  0.2339  0.3676  0.4951
 2231TIP3    H128328   5.994   0.880   0.828  0.6035  0.7668 -1.7551
 2231TIP3    H228329   6.120   0.807   0.787  0.1829 -0.8745 -0.2565
 2232TIP3   OH228330   2.555   3.046   8.085  0.4721  0.3112  0.3641
 2232TIP3    H128331   2.488   3.011   8.025 -0.3712  2.3900 -0.0119
 2232TIP3    H228332   2.513   3.121   8.126  0.7539 -1.4014  4.2197
 2233TIP3   OH228333   1.513   0.128   1.036 -0.6073 -0.6469  0.0023
 2233TIP3    H128334   1.545   0.066   0.970 -0.1503 -1.5699  1.0541
 2233TIP3    H228335   1.560   0.209   1.019  0.5519 -1.2919  0.0434
 2234TIP3   OH228336   4.528   1.053   1.092 -0.1690  0.6824  0.1348
 2234TIP3    H128337   4.495   1.042   1.003 -1.6020 -1.1407  0.8209
 2234TIP3    H228338   4.615   1.092   1.081 -0.1246  0.0927 -2.0733
 2235TIP3   OH228339   0.331   6.114   6.964 -0.1008 -0.3851  0.0203
 2235TIP3    H128340   0.369   6.152   6.885 -1.7561 -0.6297 -0.9557
 2235TIP3    H228341   0.322   6.021   6.944 -0.0247 -0.5444  0.7118
 2236TIP3   OH228342   1.052   5.609   7.243  0.2252  0.1646 -0.2057
 2236TIP3    H128343   0.974   5.624   7.189  1.0459  2.1100 -0.9526
 2236TIP3    H228344   1.044   5.673   7.314  0.6502 -0.3414  0.3124
 2237TIP3   OH228345   6.188   0.985   8.429 -0.0105 -0.2723 -0.2399
 2237TIP3    H128346   6.165   0.894   8.408  0.5603  0.0314 -2.3340
 2237TIP3    H228347   6.249   0.977   8.503  0.5890 -1.6550 -0.8390
 2238TIP3   OH228348   1.333   0.487   8.433 -0.1250 -0.2894  0.0129
 2238TIP3    H128349   1.297   0.509   8.519  0.8102  0.4369  0.2362
 2238TIP3    H228350   1.406   0.427   8.452  0.0449 -0.1761 -0.2767
 2239TIP3   OH228351   3.699   6.395   0.683  0.0549  0.1543 -0.3878
 2239TIP3    H128352   3.616   6.396   0.731 -0.7546 -1.3059 -1.6643
 2239TIP3    H228353   3.729   6.486   0.686 -1.5851  0.7252  0.0917
 2240TIP3   OH228354   2.348   4.452   7.296  0.1759  0.2101 -0.6747
 2240TIP3    H128355   2.276   4.488   7.244 -1.2434 -0.8210  0.5157
 2240TIP3    H228356   2.361   4.515   7.366  1.2171  0.9445 -1.4896
 2241TIP3   OH228357   6.051   6.555   0.637  0.3309 -0.2748 -0.5785
 2241TIP3    H128358   5.995   6.564   0.715  1.7307  0.0964  0.4308
 2241TIP3    H228359   6.101   6.637   0.634  2.2611 -1.3893 -0.2466
 2242TIP3   OH228360   1.152   0.195   6.992  0.4575  0.3809  0.0726
 2242TIP3    H128361   1.110   0.222   6.910 -2.2517 -2.6993  0.2751
 2242TIP3    H228362   1.085   0.206   7.059  2.1551  1.4024  1.7300
 2243TIP3   OH228363   1.324   5.084   0.983  0.7196  0.7615 -0.3229
 2243TIP3    H128364   1.288   5.108   0.897 -0.7553  1.1593  0.3753
 2243TIP3    H228365   1.412   5.123   0.983  0.3281  1.7097 -1.2380
 2244TIP3   OH228366   5.849   1.099   8.527 -0.1574  0.7741 -0.1810
 2244TIP3    H128367   5.830   1.103   8.621 -1.2967  2.2226 -0.4595
 2244TIP3    H228368   5.922   1.160   8.515  1.9471 -1.4705  0.1453
 2245TIP3   OH228369   6.056   4.159   2.610 -0.2501 -0.7877  0.4934
 2245TIP3    H128370   6.046   4.068   2.580 -0.9832 -0.4237 -0.4240
 2245TIP3    H228371   5.979   4.175   2.663  0.0050 -0.7709  0.8634
 2246TIP3   OH228372   2.927   2.980   1.245  0.7624 -0.3598 -0.7430
 2246TIP3    H128373   2.884   3.053   1.288  0.0434 -2.0938  1.7288
 2246TIP3    H228374   3.018   2.986   1.274  0.9518  0.1823 -1.4490
 2247TIP3   OH228375   1.561   1.226   1.860  0.5705 -0.4740 -0.4618
 2247TIP3    H128376   1.513   1.272   1.929  1.5964  1.8121 -1.1540
 2247TIP3    H228377   1.628   1.176   1.907 -1.1846 -2.1167  0.3775
 2248TIP3   OH228378   5.696   0.829   7.031 -0.2545  0.0501 -0.3055
 2248TIP3    H128379   5.726   0.795   7.115 -2.2713 -1.6522 -0.1832
 2248TIP3    H228380   5.719   0.761   6.968 -1.8363 -0.3150 -0.5311
 2249TIP3   OH228381   3.921   1.127   0.266  0.2715  0.4265 -0.6404
 2249TIP3    H128382   3.991   1.107   0.204  0.3045 -2.0102  0.0993
 2249TIP3    H228383   3.964   1.130   0.351 -0.5620 -2.0458 -0.0519
 2250TIP3   OH228384   4.637   4.941   2.006  0.4353 -0.2231  0.0641
 2250TIP3    H128385   4.728   4.971   1.998  0.0748  0.7224 -0.6393
 2250TIP3    H228386   4.591   4.984   1.934 -0.3413 -1.6276 -0.3044
 2251TIP3   OH228387   5.448   0.115   0.224 -0.2108  0.0289 -0.0613
 2251TIP3    H128388   5.525   0.058   0.228  0.1506  0.5871  1.8410
 2251TIP3    H228389   5.399   0.095   0.305  0.0104  2.4849  0.7526
 2252TIP3   OH228390   0.795   0.933   6.585 -0.1492  0.1606  0.5007
 2252TIP3    H128391   0.798   1.029   6.593  2.2349  0.0417  1.6794
 2252TIP3    H228392   0.815   0.916   6.493 -1.2192  0.7642  0.1283
 2253TIP3   OH228393   6.838   3.158   7.625  0.3175 -0.2797 -0.0066
 2253TIP3    H128394   6.811   3.196   7.709 -1.2120  1.2795 -1.1477
 2253TIP3    H228395   6.800   3.070   7.626  1.5473 -0.8527  1.5002
 2254TIP3   OH228396   4.706   3.220   1.903 -0.2094 -0.1396  0.0798
 2254TIP3    H128397   4.648   3.245   1.975 -1.4307  0.0247 -0.9188
 2254TIP3    H228398   4.743   3.136   1.930 -0.3357  0.1103  1.0650
 2255TIP3   OH228399   1.843   3.877   1.670 -0.2634 -0.1264  0.3338
 2255TIP3    H128400   1.838   3.782   1.668  2.7385 -0.3839  0.7527
 2255TIP3    H228401   1.812   3.901   1.758  0.2675 -0.8403  0.7168
 2256TIP3   OH228402   5.517   1.836   0.988 -0.5068  0.6705 -0.0259
 2256TIP3    H128403   5.545   1.910   1.042  0.0454  0.2461  0.2837
 2256TIP3    H228404   5.589   1.773   0.995 -1.0262  0.0531 -0.1826
 2257TIP3   OH228405   2.993   3.423   1.125  0.2681  0.2412 -0.3091
 2257TIP3    H128406   2.908   3.461   1.147 -0.6589 -2.1124  0.5586
 2257TIP3    H228407   2.971   3.345   1.073  1.5963 -2.0779  2.3110
 2258TIP3   OH228408   5.702   4.154   0.174 -0.5502 -0.4039 -0.0880
 2258TIP3    H128409   5.690   4.061   0.153 -0.4578  0.0288 -2.2156
 2258TIP3    H228410   5.765   4.185   0.109 -0.7695  1.2141  0.4348
 2259TIP3   OH228411   3.109   2.709   8.173 -0.4845  0.3815 -0.1536
 2259TIP3    H128412   3.115   2.617   8.146  0.5790 -1.0095  3.9904
 2259TIP3    H228413   3.189   2.749   8.142 -0.1128 -0.6065 -0.5041
 2260TIP3   OH228414   6.153   5.680   1.373  0.5560  0.1952 -0.0565
 2260TIP3    H128415   6.199   5.607   1.331 -1.0738  0.5455 -2.6301
 2260TIP3    H228416   6.107   5.640   1.447 -0.9169 -1.6287 -1.8386
 2261TIP3   OH228417   6.766   2.569   0.520 -0.0668  0.2616  0.7926
 2261TIP3    H128418   6.709   2.515   0.574 -0.2522 -1.6434 -1.1115
 2261TIP3    H228419   6.790   2.511   0.446  1.2034  2.2448 -0.4596
 2262TIP3   OH228420   1.216   6.861   0.020 -0.3291  0.3105 -0.5967
 2262TIP3    H128421   1.265   6.796  -0.030 -0.2878 -0.3017  0.2360
 2262TIP3    H228422   1.280   6.930   0.039  0.0496 -0.1857 -0.0588
 2263TIP3   OH228423   4.461   5.590   7.362  0.2331 -0.1569  0.5917
 2263TIP3    H128424   4.535   5.647   7.339  0.8862 -0.9886  0.5517
 2263TIP3    H228425   4.500   5.521   7.416 -0.6155 -0.3269  1.0020
 2264TIP3   OH228426   3.148   0.476   2.220 -0.1551 -0.1392  0.5744
 2264TIP3    H128427   3.213   0.510   2.282  0.2386 -2.3187  1.4502
 2264TIP3    H228428   3.198   0.420   2.161 -0.7538  0.8243 -0.9284
 2265TIP3   OH228429   3.787   5.341   1.060  0.1611  0.1691  0.0120
 2265TIP3    H128430   3.722   5.411   1.070 -0.7282 -0.6195 -0.1126
 2265TIP3    H228431   3.809   5.343   0.967  1.4945  1.4429  0.3246
 2266TIP3   OH228432   0.108   1.804   0.855  0.3823  0.4297 -0.2644
 2266TIP3    H128433   0.022   1.767   0.873  1.2787 -0.2633  3.6422
 2266TIP3    H228434   0.091   1.898   0.842 -0.9489  0.3973  0.9530
 2267TIP3   OH228435   6.232   5.270   1.914 -0.2584  0.3613  0.2377
 2267TIP3    H128436   6.245   5.362   1.893 -0.6515  0.6860  1.3560
 2267TIP3    H228437   6.317   5.229   1.898 -0.9282  0.1499 -3.8051
 2268TIP3   OH228438   2.169   5.497   7.033 -0.1506  0.1121  0.2559
 2268TIP3    H128439   2.255   5.481   7.072 -0.3155 -0.6910  0.2894
 2268TIP3    H228440   2.187   5.555   6.959  0.4664 -0.3475  0.0386
 2269TIP3   OH228441   5.338   4.614   0.066  0.1093 -0.0658  0.1430
 2269TIP3    H128442   5.430   4.610   0.093 -0.0309  1.3729  0.9432
 2269TIP3    H228443   5.310   4.702   0.092 -1.3709 -0.3359 -0.4920
 2270TIP3   OH228444   0.550   3.453   0.290 -0.3778 -0.0296 -0.2989
 2270TIP3    H128445   0.645   3.444   0.282 -0.0221  2.4072  0.2477
 2270TIP3    H228446   0.536   3.547   0.303 -2.7302 -0.5307  1.5155
 2271TIP3   OH228447   2.921   1.944   8.274 -0.4855  0.5713  0.2973
 2271TIP3    H128448   2.900   2.035   8.256 -0.3388  0.5339 -0.0686
 2271TIP3    H228449   2.861   1.919   8.344  1.3221  1.7685  2.3951
 2272TIP3   OH228450   1.539   1.009   6.826 -0.3106  1.0196  0.6770
 2272TIP3    H128451   1.596   0.960   6.766 -2.4274 -1.3658  0.4312
 2272TIP3    H228452   1.498   1.076   6.771 -0.2877  0.5374  0.0595
 2273TIP3   OH228453   5.145   1.841   0.263 -0.3472 -0.3932 -0.4054
 2273TIP3    H128454   5.152   1.755   0.305  0.5908  0.0056  0.2999
 2273TIP3    H228455   5.055   1.868   0.280  0.0465 -0.1506  1.6210
 2274TIP3   OH228456   1.271   3.997   0.138  0.4431 -0.7218 -0.5688
 2274TIP3    H128457   1.341   4.020   0.199 -0.2408 -0.4562  0.1381
 2274TIP3    H228458   1.224   3.925   0.180  0.0642 -0.6512 -0.8601
 2275TIP3   OH228459   4.404   6.004   1.675  0.1718 -0.3651 -0.3071
 2275TIP3    H128460   4.423   6.082   1.727  1.0803 -0.7053 -0.1052
 2275TIP3    H228461   4.370   5.941   1.738 -0.8608 -0.0399 -0.5235
 2276TIP3   OH228462   4.806   1.864   8.537  0.2716  0.4734  0.3902
 2276TIP3    H128463   4.870   1.913   8.589  1.4284 -0.5963  0.0327
 2276TIP3    H228464   4.784   1.923   8.465 -0.3903  1.4777  1.3844
 2277TIP3   OH228465   1.870   1.858   2.171 -0.0100  0.7436  0.1471
 2277TIP3    H128466   1.896   1.766   2.162 -0.9425  0.5862 -1.2750
 2277TIP3    H228467   1.920   1.903   2.102 -1.1792  0.9262 -0.6011
 2278TIP3   OH228468   6.861   0.990   2.432  0.3954 -0.0685 -0.1376
 2278TIP3    H128469   6.906   0.933   2.495  0.0151 -1.8514 -1.4061
 2278TIP3    H228470   6.918   1.066   2.423  1.0239 -0.3054  1.4726
 2279TIP3   OH228471   5.364   1.974   2.114  0.2267 -0.1632  0.2430
 2279TIP3    H128472   5.331   2.043   2.172  0.7317 -0.8612  1.4171
 2279TIP3    H228473   5.285   1.936   2.075 -0.1409  0.1964  0.6186
 2280TIP3   OH228474   3.375   2.693   8.344  0.3408  0.0471 -0.4753
 2280TIP3    H128475   3.346   2.767   8.397  1.2209  0.5517 -0.6623
 2280TIP3    H228476   3.409   2.733   8.264  0.1179 -0.6192 -0.9102
 2281TIP3   OH228477   6.707   2.334   1.485  0.5941  0.7799  0.1850
 2281TIP3    H128478   6.628   2.282   1.468  0.3986  1.5136 -1.3915
 2281TIP3    H228479   6.750   2.290   1.559 -0.0739 -1.0315 -0.4435
 2282TIP3   OH228480   0.273   5.031   7.801 -0.0709  0.1687 -0.2199
 2282TIP3    H128481   0.278   5.002   7.710 -0.9589 -3.0254  0.6107
 2282TIP3    H228482   0.195   4.987   7.836 -0.4655  2.2767  1.8154
 2283TIP3   OH228483   0.108   4.292   0.001  0.1537 -0.5136  0.6897
 2283TIP3    H128484   0.102   4.282   0.096 -1.4071 -0.7433  0.5856
 2283TIP3    H228485   0.195   4.331  -0.013 -0.1346  0.8652  2.3234
 2284TIP3   OH228486   2.128   1.517   8.446  0.3127  0.2362  0.0647
 2284TIP3    H128487   2.040   1.487   8.469  0.7257 -0.0667  1.3058
 2284TIP3    H228488   2.181   1.438   8.444  0.5420  0.4050 -0.8014
 2285TIP3   OH228489   4.150   2.798   6.338 -0.4279 -0.1026  0.1336
 2285TIP3    H128490   4.098   2.858   6.284 -0.5254 -1.0381 -0.8507
 2285TIP3    H228491   4.146   2.715   6.291  2.6511 -0.0300 -0.4824
 2286TIP3   OH228492   2.413   6.321   7.492 -0.0553 -0.2190  0.0731
 2286TIP3    H128493   2.422   6.302   7.399 -1.2202 -0.2720 -0.0418
 2286TIP3    H228494   2.490   6.281   7.533  0.9846  0.6479 -0.9732
 2287TIP3   OH228495   4.803   1.172   0.784  0.0853  0.7383  0.0664
 2287TIP3    H128496   4.768   1.221   0.709 -0.6842 -0.9142 -0.7195
 2287TIP3    H228497   4.725   1.144   0.832  0.5576  1.3510  1.2267
 2288TIP3   OH228498   6.550   0.110   7.803 -0.0132 -0.3655 -0.3300
 2288TIP3    H128499   6.462   0.091   7.771 -0.5861  0.7679  0.4590
 2288TIP3    H228500   6.548   0.085   7.895  0.8352 -1.3046 -0.5489
 2289TIP3   OH228501   3.104   5.996   2.149 -0.0643 -0.0104  0.6111
 2289TIP3    H128502   3.080   5.927   2.211 -0.0565 -0.4510  0.1379
 2289TIP3    H228503   3.188   5.968   2.114  0.1896  0.5130  0.8008
 2290TIP3   OH228504   4.438   2.289   0.850 -0.1831 -0.1830  0.8994
 2290TIP3    H128505   4.469   2.371   0.888  0.2399 -0.5385  1.3451
 2290TIP3    H228506   4.465   2.292   0.759  0.7699 -0.2770  1.1708
 2291TIP3   OH228507   5.819   5.519   6.951  0.2558  0.0497  0.2746
 2291TIP3    H128508   5.763   5.587   6.988 -0.1768 -0.6580  0.9507
 2291TIP3    H228509   5.873   5.565   6.887 -1.5899  0.6244 -0.9362
 2292TIP3   OH228510   0.059   0.658   8.502  0.3268 -0.0849 -0.1855
 2292TIP3    H128511   0.060   0.563   8.509  0.5558 -0.0152  0.7413
 2292TIP3    H228512  -0.023   0.678   8.457  0.5217 -0.7416 -0.8561
 2293TIP3   OH228513   3.215   6.818   6.631 -0.2781 -1.1188 -0.3772
 2293TIP3    H128514   3.297   6.819   6.581  0.0239 -3.3723 -0.0640
 2293TIP3    H228515   3.146   6.822   6.565  0.0556  0.6676 -0.6523
 2294TIP3   OH228516   2.355   5.352   7.386  0.2885 -0.4101  0.3335
 2294TIP3    H128517   2.373   5.381   7.297 -1.1370 -0.8327 -0.1284
 2294TIP3    H228518   2.433   5.376   7.436  1.5630 -1.0925 -1.2251
 2295TIP3   OH228519   1.203   1.191   6.819  0.1406 -0.3017  0.0901
 2295TIP3    H128520   1.168   1.280   6.813  0.1103 -0.4058 -1.5386
 2295TIP3    H228521   1.292   1.197   6.786  0.2114 -0.8398  0.1748
 2296TIP3   OH228522   6.836   0.477   2.214 -0.2291 -0.4637 -0.2424
 2296TIP3    H128523   6.879   0.395   2.191 -1.3257 -1.2515  0.3882
 2296TIP3    H228524   6.870   0.541   2.152  1.5333 -1.1214  0.0062
 2297TIP3   OH228525   4.588   1.685   1.426 -0.0700 -0.7514 -0.2300
 2297TIP3    H128526   4.517   1.688   1.490  0.8634 -0.2970  0.8151
 2297TIP3    H228527   4.547   1.708   1.343 -1.2395 -1.0092  0.2615
 2298TIP3   OH228528   0.504   4.022   7.531  0.2228 -0.7342 -0.0016
 2298TIP3    H128529   0.485   3.988   7.443  1.1583 -0.3116 -0.3805
 2298TIP3    H228530   0.562   3.957   7.569 -0.3925 -1.0490  0.4182
 2299TIP3   OH228531   6.205   0.552   7.629  0.0630  0.0537  0.0466
 2299TIP3    H128532   6.120   0.594   7.617 -0.6638 -1.0760  0.9360
 2299TIP3    H228533   6.183   0.461   7.650  1.5359 -0.5141 -0.7455
 2300TIP3   OH228534   2.402   3.075   6.921 -0.8531  0.2578  0.3455
 2300TIP3    H128535   2.426   3.053   6.831  1.7915 -1.4617  1.3529
 2300TIP3    H228536   2.334   3.012   6.945 -0.5988 -0.1628 -0.0311
 2301TIP3   OH228537   4.789   5.235   1.945  0.3845 -0.0709 -1.1411
 2301TIP3    H128538   4.701   5.208   1.920  0.1155 -1.2741  0.9027
 2301TIP3    H228539   4.842   5.219   1.867 -1.2224  0.9969 -2.5252
 2302TIP3   OH228540   0.129   6.243   8.510  0.1511 -0.8840 -0.0466
 2302TIP3    H128541   0.120   6.182   8.583 -0.9467 -0.3629  0.2829
 2302TIP3    H228542   0.058   6.307   8.524  0.7438 -0.0315 -0.8452
 2303TIP3   OH228543   3.781   2.877   6.941 -0.5419  0.0345 -0.0585
 2303TIP3    H128544   3.744   2.853   6.856 -2.6173 -1.2873  1.1275
 2303TIP3    H228545   3.828   2.799   6.970  0.8430  0.7475 -0.2992
 2304TIP3   OH228546   1.224   3.813   2.416  0.0888  0.4553  0.0596
 2304TIP3    H128547   1.131   3.792   2.416 -0.4333  2.5554  0.3436
 2304TIP3    H228548   1.229   3.902   2.380  2.0444  0.1676 -0.4976
 2305TIP3   OH228549   0.778   0.052   0.193  0.7289 -0.3455 -0.0987
 2305TIP3    H128550   0.870   0.077   0.186  1.1019 -0.9578  1.9575
 2305TIP3    H228551   0.759   0.007   0.111  1.7291  1.3227 -1.3093
 2306TIP3   OH228552   6.457   0.183   1.939  0.4389 -0.4333 -0.0042
 2306TIP3    H128553   6.370   0.182   1.898  0.4608  2.0090 -0.2641
 2306TIP3    H228554   6.445   0.134   2.020 -1.7294  1.3183  0.8587
 2307TIP3   OH228555   5.943   5.974   0.125  0.8555 -0.2689 -0.2674
 2307TIP3    H128556   6.037   5.984   0.110  0.7984 -0.4993 -0.8372
 2307TIP3    H228557   5.904   6.055   0.093  0.9520  0.3123  1.0314
 2308TIP3   OH228558   5.964   1.310   6.622 -0.0996 -0.2655  0.3485
 2308TIP3    H128559   5.965   1.388   6.566 -2.3789 -0.9613 -0.7599
 2308TIP3    H228560   5.928   1.241   6.567 -0.4481 -1.5042  2.0616
 2309TIP3   OH228561   2.730   1.453   6.994  0.2341  0.4992 -0.1938
 2309TIP3    H128562   2.755   1.407   7.073  0.2823 -0.4058 -0.7255
 2309TIP3    H228563   2.753   1.544   7.011  1.6679  0.0689  0.2416
 2310TIP3   OH228564   0.176   5.591   7.660  0.8554  0.6189 -0.0431
 2310TIP3    H128565   0.212   5.561   7.743  0.4100  0.4750  0.1031
 2310TIP3    H228566   0.220   5.539   7.593  0.9700  0.5006  0.1252
 2311TIP3   OH228567   3.049   6.697   0.511  0.2686 -0.0152 -0.5100
 2311TIP3    H128568   3.105   6.752   0.457 -0.7589  1.5280 -0.0812
 2311TIP3    H228569   3.018   6.755   0.581 -0.6835 -1.1976  0.0987
 2312TIP3   OH228570   5.244   5.747   1.716 -1.1270  0.0499  0.3032
 2312TIP3    H128571   5.162   5.706   1.687 -2.3949  2.8951 -0.4743
 2312TIP3    H228572   5.271   5.694   1.791 -1.2876 -3.6095 -1.9278
 2313TIP3   OH228573   0.289   3.203   1.487 -0.2951 -0.1869 -0.1766
 2313TIP3    H128574   0.252   3.287   1.460  1.2896  1.1299  1.4688
 2313TIP3    H228575   0.307   3.214   1.581  2.4734 -1.3505 -0.4702
 2314TIP3   OH228576   6.521   4.967   1.397  0.0761 -0.3188  0.7345
 2314TIP3    H128577   6.486   5.020   1.469  1.3341  0.7898  0.5870
 2314TIP3    H228578   6.606   4.936   1.429 -0.3605 -1.7564  0.5677
 2315TIP3   OH228579   1.464   3.073   1.679  0.0623  0.3664 -0.3007
 2315TIP3    H128580   1.491   3.007   1.742  2.0561  0.5955 -0.8433
 2315TIP3    H228581   1.532   3.140   1.683  0.1420  0.4977 -2.5120
 2316TIP3   OH228582   6.400   3.078   6.981  0.2554  0.3733  0.0959
 2316TIP3    H128583   6.393   2.988   6.948  2.0724  0.2308 -0.0135
 2316TIP3    H228584   6.346   3.129   6.921 -0.5969 -0.5974  0.0004
 2317TIP3   OH228585   1.006   4.083   8.103  0.2070  0.0672 -0.2419
 2317TIP3    H128586   1.098   4.063   8.085  0.9188  0.9283  2.0824
 2317TIP3    H228587   0.994   4.173   8.073 -0.5337 -0.7240 -2.5125
 2318TIP3   OH228588   6.245   3.887   7.242  0.6265  0.2774 -0.1884
 2318TIP3    H128589   6.269   3.943   7.168  1.2527  2.2644  1.4118
 2318TIP3    H228590   6.328   3.858   7.279  0.3253 -0.6294 -0.2086
 2319TIP3   OH228591   0.923   0.336   6.514  0.1656 -0.7489  0.2158
 2319TIP3    H128592   0.960   0.408   6.463  0.8781 -0.5402  1.0032
 2319TIP3    H228593   0.832   0.331   6.487  0.6723 -1.0683 -1.5496
 2320TIP3   OH228594   0.832   6.075   1.915 -0.9161  0.0876 -0.2386
 2320TIP3    H128595   0.869   6.136   1.979 -2.8156 -0.8230  1.8468
 2320TIP3    H228596   0.829   6.125   1.833 -0.0228  1.8994  0.7725
 2321TIP3   OH228597   1.403   5.728   8.391  0.2127  0.2696 -0.1590
 2321TIP3    H128598   1.473   5.763   8.447  0.5223 -1.2623  0.4663
 2321TIP3    H228599   1.323   5.764   8.429  0.1885 -2.5117  2.8624
 2322TIP3   OH228600   2.810   6.048   1.158 -0.0770  0.0369 -0.3202
 2322TIP3    H128601   2.868   5.973   1.152  0.0136 -0.0245  0.9556
 2322TIP3    H228602   2.803   6.065   1.252  1.0232  2.4926 -0.6042
 2323TIP3   OH228603   5.372   4.753   1.441  0.0314 -0.4242 -0.3212
 2323TIP3    H128604   5.315   4.721   1.372  0.9029  0.3697 -1.4536
 2323TIP3    H228605   5.440   4.686   1.449  0.5755  0.0336 -1.0627
 2324TIP3   OH228606   3.559   1.570   0.715 -0.1254  0.1932 -0.1606
 2324TIP3    H128607   3.486   1.625   0.741  0.2491 -0.1775  1.7759
 2324TIP3    H228608   3.633   1.631   0.705 -0.0467  0.2195  0.5803
 2325TIP3   OH228609   5.873   4.418   1.473 -0.1881 -0.0144 -0.4251
 2325TIP3    H128610   5.857   4.483   1.405 -0.5162 -0.8226 -1.1512
 2325TIP3    H228611   5.946   4.366   1.439 -0.5200 -0.5828 -0.2885
 2326TIP3   OH228612   3.702   3.325   0.408 -1.0344  0.4086 -0.3080
 2326TIP3    H128613   3.615   3.321   0.370 -1.9014  1.0084  1.4847
 2326TIP3    H228614   3.761   3.296   0.338 -2.6770 -0.2138 -1.4821
 2327TIP3   OH228615   2.814   4.416   7.365 -0.3855 -0.6959 -0.2579
 2327TIP3    H128616   2.890   4.378   7.409 -0.9025 -0.7275  0.6207
 2327TIP3    H228617   2.745   4.416   7.431 -0.5391  1.3387 -0.3464
 2328TIP3   OH228618   1.491   3.283   1.016 -0.2781  0.0660 -0.3443
 2328TIP3    H128619   1.546   3.206   1.032 -0.1946  0.4319  1.3257
 2328TIP3    H228620   1.436   3.258   0.942  0.7633 -1.0426 -0.7696
 2329TIP3   OH228621   2.329   0.343   7.480 -0.0374 -0.4068 -0.0355
 2329TIP3    H128622   2.331   0.431   7.517  1.2847  0.0932 -1.1943
 2329TIP3    H228623   2.291   0.354   7.393  1.2019 -0.7503 -0.6519
 2330TIP3   OH228624   4.311   4.516   7.860  0.5895 -0.4287 -0.3450
 2330TIP3    H128625   4.317   4.422   7.845  0.4483 -0.5701  0.4449
 2330TIP3    H228626   4.303   4.554   7.772  1.0322 -1.1196 -0.6885
 2331TIP3   OH228627   5.653   3.477   8.114 -0.0866  0.4909  0.6337
 2331TIP3    H128628   5.587   3.512   8.054  1.0697  0.9455 -0.4096
 2331TIP3    H228629   5.694   3.406   8.065  1.6741  1.6280  0.3806
 2332TIP3   OH228630   4.548   5.981   2.088  0.4660  0.1459 -0.2004
 2332TIP3    H128631   4.461   6.019   2.101  0.4792 -0.6829  2.9531
 2332TIP3    H228632   4.605   6.056   2.073 -0.8645  0.6423 -3.7407
 2333TIP3   OH228633   4.622   1.968   2.352  0.6207 -0.0045  0.0506
 2333TIP3    H128634   4.645   2.036   2.415  2.2431 -1.0710  0.6621
 2333TIP3    H228635   4.706   1.937   2.318 -0.0210 -2.0970  0.2297
 2334TIP3   OH228636   6.561   4.665   7.474 -0.0768  0.5246  0.5976
 2334TIP3    H128637   6.604   4.683   7.557  0.6087 -0.4299  0.4633
 2334TIP3    H228638   6.478   4.624   7.498  0.4814 -0.5185  0.8224
 2335TIP3   OH228639   5.316   4.283   1.907 -0.0711 -0.1577 -0.0521
 2335TIP3    H128640   5.403   4.309   1.938 -0.4545  0.1563  0.7756
 2335TIP3    H228641   5.303   4.195   1.944 -0.2666 -0.0457  0.1433
 2336TIP3   OH228642   5.272   6.220   2.159  0.0083  0.1600 -0.1283
 2336TIP3    H128643   5.188   6.198   2.120 -1.4616  0.5981  2.5385
 2336TIP3    H228644   5.301   6.140   2.201 -0.4669  0.6839  1.2523
 2337TIP3   OH228645   1.629   6.428   6.530 -0.1456  0.4376 -0.2917
 2337TIP3    H128646   1.543   6.387   6.536 -0.3492  0.8565 -0.2989
 2337TIP3    H228647   1.627   6.476   6.448  0.4647 -0.3724 -0.7893
 2338TIP3   OH228648   4.154   0.976   0.866 -0.1025 -0.4031  0.2479
 2338TIP3    H128649   4.084   1.015   0.919 -0.0866 -0.7220  0.5021
 2338TIP3    H228650   4.170   0.891   0.906  1.3692  0.2083  1.0173
 2339TIP3   OH228651   3.361   2.642   7.866 -0.4297 -0.4666  0.0926
 2339TIP3    H128652   3.278   2.658   7.911 -0.5760 -0.0131 -0.3253
 2339TIP3    H228653   3.391   2.558   7.899  0.0847  0.4092  1.9715
 2340TIP3   OH228654   5.570   5.278   0.654  0.0867 -0.2065  0.0668
 2340TIP3    H128655   5.488   5.294   0.701  0.5048  1.3678  0.3352
 2340TIP3    H228656   5.562   5.331   0.574  0.4134 -0.8768 -0.4158
 2341TIP3   OH228657   1.826   3.602   7.320 -0.1793 -0.3595  0.8290
 2341TIP3    H128658   1.738   3.638   7.330 -0.0539 -0.3367  1.9359
 2341TIP3    H228659   1.871   3.662   7.261 -1.3089 -1.1088 -0.8784
 2342TIP3   OH228660   0.220   5.070   7.489 -0.1333  0.0969 -0.5698
 2342TIP3    H128661   0.154   5.127   7.451  0.6916  0.7665 -1.0277
 2342TIP3    H228662   0.302   5.096   7.447  1.0721  1.7422  2.4705
 2343TIP3   OH228663   1.103   4.145   0.384 -0.6295  0.3543  0.5786
 2343TIP3    H128664   1.010   4.142   0.406 -0.8283  0.2669 -0.2484
 2343TIP3    H228665   1.144   4.085   0.446 -0.8484  1.7640  2.1904
 2344TIP3   OH228666   5.189   3.671   8.202 -0.0011  0.5111 -0.2081
 2344TIP3    H128667   5.215   3.650   8.292 -0.0185 -1.2110 -0.5662
 2344TIP3    H228668   5.235   3.753   8.182 -0.2288  1.0654  1.4496
 2345TIP3   OH228669   6.689   1.776   6.662 -0.4869  0.5539 -0.2986
 2345TIP3    H128670   6.658   1.845   6.720  0.1420  1.1734 -0.6797
 2345TIP3    H228671   6.755   1.819   6.607  0.9656 -0.6875  0.4174
 2346TIP3   OH228672   6.097   4.931   6.796  0.0103 -0.4291 -0.1899
 2346TIP3    H128673   6.036   4.988   6.749  1.1202  1.3855  0.4745
 2346TIP3    H228674   6.179   4.980   6.800  0.8239 -1.7765  1.0517
 2347TIP3   OH228675   3.779   5.647   1.274  0.5145 -0.0210 -0.1909
 2347TIP3    H128676   3.710   5.611   1.218 -0.3454 -0.3861  1.0477
 2347TIP3    H228677   3.817   5.719   1.224 -1.3710  0.7572 -0.5726
 2348TIP3   OH228678   0.506   0.017   8.234  0.0182 -0.2466 -0.0952
 2348TIP3    H128679   0.558   0.050   8.308  0.6205  2.0226 -1.4108
 2348TIP3    H228680   0.451   0.091   8.209 -1.1346 -1.4033 -1.1098
 2349TIP3   OH228681   4.477   1.923   8.276 -0.4573 -0.0469  0.1991
 2349TIP3    H128682   4.482   1.949   8.184  0.1293 -0.2389  0.1737
 2349TIP3    H228683   4.558   1.957   8.315 -0.9267  0.4601  0.7564
 2350TIP3   OH228684   5.938   6.098   1.494 -0.2808  0.2359 -0.0260
 2350TIP3    H128685   5.895   6.031   1.547  0.8981 -0.9425 -0.4919
 2350TIP3    H228686   5.869   6.162   1.476 -1.3160 -0.5787  0.8733
 2351TIP3   OH228687   0.287   3.343   7.653  0.1661  0.5743  0.2456
 2351TIP3    H128688   0.239   3.315   7.575  0.4318 -1.8253  0.8619
 2351TIP3    H228689   0.224   3.397   7.702 -1.2978 -0.9280  0.1046
 2352TIP3   OH228690   4.606   3.135   1.447  0.7491  0.4702  0.0353
 2352TIP3    H128691   4.521   3.179   1.458  0.3756  0.2418 -1.5517
 2352TIP3    H228692   4.612   3.075   1.520 -0.4236  0.5747  0.2407
 2353TIP3   OH228693   4.829   4.096   2.723 -0.4863 -0.1003 -0.7533
 2353TIP3    H128694   4.772   4.131   2.654 -2.0530 -2.4905 -0.7880
 2353TIP3    H228695   4.840   4.004   2.701  0.3891 -0.5402  1.2892
 2354TIP3   OH228696   4.050   6.654   8.537  0.5729 -0.0366  0.0455
 2354TIP3    H128697   4.119   6.592   8.562 -0.8938 -1.3908  0.9550
 2354TIP3    H228698   4.019   6.621   8.452  0.3116 -0.0947  0.1626
 2355TIP3   OH228699   2.631   6.084   6.860 -0.2139  0.2017  0.3239
 2355TIP3    H128700   2.625   6.107   6.767 -1.4381 -0.2478  0.2751
 2355TIP3    H228701   2.708   6.027   6.865  1.1726  1.9307 -0.0253
 2356TIP3   OH228702   1.437   6.908   1.657 -0.2228  0.2088  0.0111
 2356TIP3    H128703   1.424   6.843   1.726  0.8746  0.7936  0.7975
 2356TIP3    H228704   1.414   6.862   1.577 -1.4295 -0.5228  0.7434
 2357TIP3   OH228705   4.134   6.263   7.907 -0.8105 -0.3375 -0.3729
 2357TIP3    H128706   4.162   6.192   7.964  1.4934 -0.2152 -1.2247
 2357TIP3    H228707   4.050   6.234   7.871 -0.2237 -2.3564 -0.2436
 2358TIP3   OH228708   3.832   0.415   1.863  0.4155  0.3090  0.4699
 2358TIP3    H128709   3.919   0.390   1.895  0.7381 -0.2617 -0.7662
 2358TIP3    H228710   3.848   0.448   1.774 -0.4172  1.9712  0.9017
 2359TIP3   OH228711   1.163   0.493   0.478  0.4798  0.0692 -0.2996
 2359TIP3    H128712   1.116   0.470   0.557  1.1176 -1.6372 -0.3837
 2359TIP3    H228713   1.215   0.570   0.502  1.6685 -1.1818  1.3677
 2360TIP3   OH228714   2.527   2.171   8.112  0.2529  0.4518  0.3028
 2360TIP3    H128715   2.478   2.186   8.031  1.1968  1.2138 -0.1404
 2360TIP3    H228716   2.577   2.091   8.096  1.3225  1.2230 -0.3171
 2361TIP3   OH228717   4.198   0.315   0.283  0.1847 -0.2828 -0.1385
 2361TIP3    H128718   4.264   0.382   0.299  2.2600 -2.0117 -0.9085
 2361TIP3    H228719   4.234   0.263   0.211 -2.5143 -0.7604 -1.2531
 2362TIP3   OH228720   3.569   5.912   6.286  0.4327  0.8723 -0.3522
 2362TIP3    H128721   3.517   5.843   6.245  3.7682 -1.0858 -1.6501
 2362TIP3    H228722   3.570   5.983   6.221  1.9729 -0.3993 -1.8009
 2363TIP3   OH228723   4.696   6.219   2.038  0.1117  0.6225 -0.0783
 2363TIP3    H128724   4.624   6.280   2.056  0.9649  1.3440  0.9608
 2363TIP3    H228725   4.765   6.244   2.099  0.2207 -1.8974  0.9369
 2364TIP3   OH228726   3.567   6.756   7.442 -0.3246  0.1504  0.2345
 2364TIP3    H128727   3.581   6.761   7.537 -0.3608  2.5746  0.1768
 2364TIP3    H228728   3.495   6.693   7.432  2.3084 -3.3510  1.4265
 2365TIP3   OH228729   3.414   3.722   1.947 -0.0472 -0.6144  0.0438
 2365TIP3    H128730   3.477   3.785   1.981 -2.1794  0.3854  2.5210
 2365TIP3    H228731   3.396   3.664   2.022 -1.8105 -1.0263 -0.6457
 2366TIP3   OH228732   0.435   3.217   6.896  0.3561  0.1436  0.0545
 2366TIP3    H128733   0.444   3.147   6.832  2.5722  1.9172 -1.7371
 2366TIP3    H228734   0.490   3.190   6.970  2.2396  0.4672 -1.1560
 2367TIP3   OH228735   0.785   2.617   6.805  0.2191  0.3444  0.0327
 2367TIP3    H128736   0.824   2.681   6.745 -0.1274 -1.2712 -2.0520
 2367TIP3    H228737   0.859   2.580   6.853  0.8792 -0.0996 -1.2605
 2368TIP3   OH228738   6.374   3.981   0.393 -0.6036 -1.0843  0.6257
 2368TIP3    H128739   6.294   3.929   0.388 -1.5930  0.5066 -1.7622
 2368TIP3    H228740   6.354   4.051   0.455  0.0229 -2.3144  2.2778
 2369TIP3   OH228741   2.892   6.307   6.284 -0.1627 -0.1858 -0.3351
 2369TIP3    H128742   2.957   6.374   6.263 -1.0736  0.4560 -1.2118
 2369TIP3    H228743   2.846   6.341   6.361 -2.6200  1.7388 -2.4850
 2370TIP3   OH228744   0.315   6.066   1.442 -0.5428  0.3122  0.1858
 2370TIP3    H128745   0.221   6.052   1.455 -0.5848 -1.0121 -1.2341
 2370TIP3    H228746   0.347   5.983   1.406  1.0371  0.9847 -0.0644
 2371TIP3   OH228747   1.125   2.407   8.525  0.6703  0.1618 -0.2358
 2371TIP3    H128748   1.081   2.375   8.446 -3.3133 -1.4099  2.3037
 2371TIP3    H228749   1.147   2.498   8.505  1.6808 -0.7079 -3.7383
 2372TIP3   OH228750   6.186   2.050   8.428  0.0406  0.2336 -0.2533
 2372TIP3    H128751   6.119   2.117   8.443 -0.3401 -0.3548  0.7763
 2372TIP3    H228752   6.231   2.042   8.512  1.4672  0.6503 -0.9386
 2373TIP3   OH228753   0.160   5.127   2.018  0.0205  0.2059 -0.1395
 2373TIP3    H128754   0.125   5.085   1.940  1.0977 -0.8538 -0.0772
 2373TIP3    H228755   0.107   5.206   2.028  0.5554  0.9658 -2.5871
 2374TIP3   OH228756   3.153   2.434   0.839 -0.3439 -0.1571  0.0546
 2374TIP3    H128757   3.238   2.392   0.846 -0.6304 -0.7309  0.1192
 2374TIP3    H228758   3.103   2.400   0.913 -1.2383 -1.2411 -1.0098
 2375TIP3   OH228759   4.870   6.482   8.176 -0.2134  0.1771 -0.2019
 2375TIP3    H128760   4.936   6.430   8.221 -1.5669 -0.8369  0.7056
 2375TIP3    H228761   4.799   6.491   8.240 -1.9216 -0.7195 -1.8856
 2376TIP3   OH228762   5.767   5.432   2.075  0.3381 -0.3371  0.0066
 2376TIP3    H128763   5.691   5.374   2.076 -0.4790  0.6811  1.6942
 2376TIP3    H228764   5.817   5.405   1.998 -3.1849  0.8328 -2.9629
 2377TIP3   OH228765   4.762   4.673   1.622 -0.0455  0.7561  0.0313
 2377TIP3    H128766   4.783   4.706   1.709  1.4644  2.0983 -0.7891
 2377TIP3    H228767   4.750   4.579   1.634  2.0486  0.6096  1.3904
 2378TIP3   OH228768   4.295   4.489   7.579 -0.2973 -0.3005 -0.3991
 2378TIP3    H128769   4.334   4.442   7.505  1.3210 -0.1216  0.2850
 2378TIP3    H228770   4.201   4.478   7.568 -0.1366  0.3143 -2.8618
 2379TIP3   OH228771   0.885   0.370   7.838 -1.0538  0.5463 -0.4674
 2379TIP3    H128772   0.802   0.355   7.792 -0.9841 -0.5734 -0.2716
 2379TIP3    H228773   0.912   0.458   7.812 -3.2842  1.7457  0.9840
 2380TIP3   OH228774   3.579   3.747   6.687 -0.2479 -0.2146 -0.0514
 2380TIP3    H128775   3.598   3.841   6.690 -0.2891 -0.2219  0.5121
 2380TIP3    H228776   3.662   3.707   6.659  0.0153 -0.0778  0.5097
 2381TIP3   OH228777   5.729   4.068   7.327 -0.6316 -0.1344  0.1007
 2381TIP3    H128778   5.705   4.097   7.415 -1.2614 -0.5182  0.0584
 2381TIP3    H228779   5.797   4.002   7.341 -0.9398 -0.4071  0.3130
 2382TIP3   OH228780   6.304   6.801   0.613  0.1740 -0.2648 -0.1053
 2382TIP3    H128781   6.300   6.856   0.536  0.6944 -0.3519 -0.2002
 2382TIP3    H228782   6.393   6.764   0.612  0.5375  0.4927  1.0471
 2383TIP3   OH228783   4.023   5.856   7.729  0.1178  0.2434 -0.3507
 2383TIP3    H128784   4.097   5.911   7.703  1.4797 -0.8897  0.9154
 2383TIP3    H228785   3.991   5.819   7.647  1.6497 -0.0323 -0.8625
 2384TIP3   OH228786   5.557   6.240   2.652 -0.2652 -0.5656  0.0005
 2384TIP3    H128787   5.642   6.202   2.674 -0.7509 -1.2096  0.8228
 2384TIP3    H228788   5.496   6.167   2.656 -0.8935 -0.0694 -0.3705
 2385TIP3   OH228789   2.112   5.888   8.633 -0.0379  0.5389 -0.5226
 2385TIP3    H128790   2.182   5.840   8.678 -2.3940 -2.9052 -0.1920
 2385TIP3    H228791   2.060   5.926   8.704 -1.7368 -1.9132 -0.3419
 2386TIP3   OH228792   6.570   0.267   6.986 -0.1178  0.2847  0.2077
 2386TIP3    H128793   6.644   0.209   7.002  0.3911  1.2213  1.4016
 2386TIP3    H228794   6.560   0.268   6.891  0.4145 -1.0382  0.1120
 2387TIP3   OH228795   0.669   3.265   7.566 -0.4978  0.0902 -0.0833
 2387TIP3    H128796   0.698   3.241   7.655 -1.9348  0.4109  0.5004
 2387TIP3    H228797   0.589   3.215   7.553 -0.5739  0.4432 -1.0043
 2388TIP3   OH228798   4.713   5.026   1.268  0.2350 -0.0672 -0.2920
 2388TIP3    H128799   4.783   4.988   1.322  1.4291  1.5508 -0.6397
 2388TIP3    H228800   4.719   4.979   1.185  1.5515  0.6898 -0.6447
 2389TIP3   OH228801   1.751   4.817   0.166  0.1960 -0.3864  0.0303
 2389TIP3    H128802   1.690   4.823   0.092  1.5900  0.9035 -1.1095
 2389TIP3    H228803   1.726   4.889   0.224  0.4267 -0.0201 -0.3101
 2390TIP3   OH228804   3.196   2.290   6.706  0.3765 -0.3250 -0.0015
 2390TIP3    H128805   3.177   2.382   6.723 -0.7496  0.1966 -3.2285
 2390TIP3    H228806   3.147   2.271   6.625  0.7901 -3.6928  0.4095
 2391TIP3   OH228807   4.425   6.631   8.335 -0.4644 -0.1026  0.3128
 2391TIP3    H128808   4.385   6.714   8.310  0.3842  0.4166  0.6464
 2391TIP3    H228809   4.362   6.565   8.307 -1.4799  0.6862  0.6839
 2392TIP3   OH228810   1.460   4.090   0.303  0.0716  0.1386  0.0626
 2392TIP3    H128811   1.520   4.066   0.232 -1.3908 -0.7493 -0.9160
 2392TIP3    H228812   1.435   4.180   0.284  0.5078  0.2615  0.0596
 2393TIP3   OH228813   1.690   6.030   7.482 -0.2925  0.5512  0.5924
 2393TIP3    H128814   1.754   6.101   7.472 -0.4496  0.6417  0.2290
 2393TIP3    H228815   1.687   6.014   7.577  0.3947  0.4262  0.5996
 2394TIP3   OH228816   3.232   4.038   7.992  0.0922  0.1778 -0.6140
 2394TIP3    H128817   3.308   4.041   8.051 -0.0963  1.7198 -0.4281
 2394TIP3    H228818   3.156   4.051   8.049 -0.2359 -0.1814 -0.9590
 2395TIP3   OH228819   1.785   3.231   8.190  0.0715  0.4323 -0.4998
 2395TIP3    H128820   1.811   3.140   8.195  0.2289  0.4511 -0.8869
 2395TIP3    H228821   1.833   3.266   8.115  1.7559  1.4257  0.9708
 2396TIP3   OH228822   6.847   6.711   8.112 -0.0721  0.3407  0.3414
 2396TIP3    H128823   6.792   6.777   8.154 -1.5539  0.2582 -1.3401
 2396TIP3    H228824   6.787   6.662   8.056  1.6610  0.0441 -1.3737
 2397TIP3   OH228825   2.830   3.154   1.807  0.7974  0.0983 -0.2917
 2397TIP3    H128826   2.842   3.187   1.896 -0.2374 -0.1715 -0.0413
 2397TIP3    H228827   2.768   3.216   1.767  3.2010  1.7793 -1.7220
 2398TIP3   OH228828   5.967   0.641   6.287  0.3184  0.6984 -0.6515
 2398TIP3    H128829   5.930   0.725   6.315 -1.2169 -0.0502 -0.2951
 2398TIP3    H228830   5.891   0.586   6.269  1.2802 -0.7518 -0.4962
 2399TIP3   OH228831   5.405   6.095   7.904 -0.0748  0.1511 -0.0187
 2399TIP3    H128832   5.385   6.188   7.919 -0.8298  0.0349 -0.2845
 2399TIP3    H228833   5.492   6.083   7.943  0.8913  1.4155 -1.6462
 2400TIP3   OH228834   5.313   4.337   6.286 -0.5725 -0.5458  0.3231
 2400TIP3    H128835   5.239   4.276   6.276  0.0359 -1.0078 -2.0460
 2400TIP3    H228836   5.282   4.418   6.246  0.2791 -0.8504 -1.0050
 2401TIP3   OH228837   4.983   5.953   8.168 -0.4688 -0.5636  0.6793
 2401TIP3    H128838   5.000   5.860   8.184 -0.7124 -0.9119 -0.8879
 2401TIP3    H228839   4.902   5.971   8.216 -0.7493 -1.3216  0.5175
 2402TIP3   OH228840   3.601   0.268   1.803 -0.1035 -0.1353  0.8766
 2402TIP3    H128841   3.679   0.303   1.846  0.2878  0.1847 -0.0691
 2402TIP3    H228842   3.615   0.173   1.802  0.3555 -0.0667  0.5642
 2403TIP3   OH228843   4.228   4.886   8.311 -0.3640  0.1600 -0.2318
 2403TIP3    H128844   4.151   4.839   8.341 -0.8486 -0.1501 -1.8473
 2403TIP3    H228845   4.219   4.974   8.348 -0.9825 -0.1596  0.3871
 2404TIP3   OH228846   3.880   5.647   7.555 -0.5590 -0.0123  0.2384
 2404TIP3    H128847   3.861   5.665   7.463  0.3967 -0.1124  0.0137
 2404TIP3    H228848   3.799   5.671   7.601 -1.4647 -1.0751 -0.7430
 2405TIP3   OH228849   4.881   4.202   0.802 -0.2213  0.2905 -0.0859
 2405TIP3    H128850   4.790   4.176   0.816  0.3566 -1.7000  0.2306
 2405TIP3    H228851   4.916   4.216   0.890  0.3742 -1.2024 -0.0626
 2406TIP3   OH228852   6.118   5.048   2.344  0.1226 -0.4756  0.0017
 2406TIP3    H128853   6.193   4.993   2.365  0.3252  0.1436  0.9608
 2406TIP3    H228854   6.071   5.057   2.427  1.0272  2.1968  0.3211
 2407TIP3   OH228855   6.392   2.624   8.496  0.4764 -0.1520  0.2463
 2407TIP3    H128856   6.335   2.690   8.456  0.4204  0.1869  0.8720
 2407TIP3    H228857   6.404   2.654   8.586  1.6045 -0.2517  0.1399
 2408TIP3   OH228858   2.419   3.952   1.434  0.2071  0.1676 -0.0250
 2408TIP3    H128859   2.484   3.899   1.387  1.1193  0.9124  0.3453
 2408TIP3    H228860   2.402   3.904   1.514 -0.0431 -0.2611 -0.3366
 2409TIP3   OH228861   5.108   4.942   0.291 -0.0848  0.1720 -0.3929
 2409TIP3    H128862   5.040   4.879   0.317 -0.5470  0.3852 -1.0389
 2409TIP3    H228863   5.165   4.893   0.232 -0.3834  0.3112 -0.8104
 2410TIP3   OH228864   2.252   3.446   0.183  0.2076  0.2103 -0.3423
 2410TIP3    H128865   2.210   3.410   0.105 -1.5108  1.2393  0.0686
 2410TIP3    H228866   2.343   3.416   0.177 -0.0384 -0.2535 -2.4099
 2411TIP3   OH228867   1.912   2.281   6.435 -0.1245  0.1992 -0.2626
 2411TIP3    H128868   1.960   2.353   6.475 -0.3765 -0.0737  0.5500
 2411TIP3    H228869   1.909   2.214   6.502 -3.4118  0.9578  0.5323
 2412TIP3   OH228870   5.684   6.561   6.164  0.1915  0.6059  0.3092
 2412TIP3    H128871   5.778   6.578   6.166  0.3296 -0.0095 -0.5685
 2412TIP3    H228872   5.674   6.478   6.210  0.0901  0.5963  0.2690
 2413TIP3   OH228873   0.615   2.213   0.743 -0.0734  0.3975 -0.5093
 2413TIP3    H128874   0.620   2.204   0.648 -2.4589  1.9318 -0.8777
 2413TIP3    H228875   0.566   2.295   0.757  2.2776  1.5426  2.0996
 2414TIP3   OH228876   2.207   0.025   0.675 -0.2425 -0.2978  0.4333
 2414TIP3    H128877   2.202   0.117   0.650 -1.4941 -0.9864 -2.2152
 2414TIP3    H228878   2.136   0.013   0.738 -1.1973  0.2275 -0.5093
 2415TIP3   OH228879   2.279   2.047   0.022 -0.1437 -0.2052 -0.2670
 2415TIP3    H128880   2.267   1.952   0.028 -1.0268 -0.0183  1.4225
 2415TIP3    H228881   2.372   2.061   0.041 -0.5208 -0.5839  2.1480
 2416TIP3   OH228882   2.347   6.180   8.299  0.2672  0.0667  0.3368
 2416TIP3    H128883   2.308   6.109   8.350 -0.1108  0.4548  0.5971
 2416TIP3    H228884   2.306   6.171   8.212 -0.0126  0.1516  0.4577
 2417TIP3   OH228885   1.961   5.141   1.576  0.0319 -0.7027  0.4724
 2417TIP3    H128886   2.009   5.219   1.604  1.7643 -1.5118 -0.0957
 2417TIP3    H228887   1.985   5.073   1.638 -3.1077 -0.3996  2.2584
 2418TIP3   OH228888   5.580   5.405   6.765  0.1332 -0.7491  0.4988
 2418TIP3    H128889   5.647   5.382   6.700  0.9925  1.6269  0.4542
 2418TIP3    H228890   5.622   5.389   6.849  2.2581  3.8673  0.6023
 2419TIP3   OH228891   0.330   2.014   7.183 -0.3334 -0.0225 -0.4061
 2419TIP3    H128892   0.390   2.047   7.116  0.5432 -0.5310  0.1125
 2419TIP3    H228893   0.328   2.083   7.249  0.8722 -0.6264  0.2929
 2420TIP3   OH228894   4.998   0.153   0.231 -0.4021 -0.0565 -0.4170
 2420TIP3    H128895   4.990   0.238   0.189 -0.0248 -0.1830 -0.7462
 2420TIP3    H228896   5.020   0.092   0.161 -0.1511 -0.3361 -0.1026
 2421TIP3   OH228897   6.675   0.483   1.932 -0.0374 -0.0552  0.4379
 2421TIP3    H128898   6.630   0.507   2.013 -1.6318  0.6905 -0.6039
 2421TIP3    H228899   6.753   0.539   1.930  0.6783 -0.9293  1.9932
 2422TIP3   OH228900   1.444   6.791   1.407 -0.3326 -0.1330 -0.0523
 2422TIP3    H128901   1.522   6.785   1.352 -0.0329  2.4074  0.0049
 2422TIP3    H228902   1.371   6.788   1.345 -0.1330 -0.5129 -0.2770
 2423TIP3   OH228903   4.381   5.663   0.734  0.4655  0.1144  0.2729
 2423TIP3    H128904   4.465   5.689   0.771  0.7432 -0.1250 -0.1886
 2423TIP3    H228905   4.341   5.745   0.704  0.5535  0.2205  0.4427
 2424TIP3   OH228906   0.260   5.633   0.174 -0.4983 -0.0682 -0.2587
 2424TIP3    H128907   0.298   5.716   0.147 -2.0654  0.8832  0.2823
 2424TIP3    H228908   0.227   5.649   0.263  0.0892 -1.5932  0.2675
 2425TIP3   OH228909   2.912   5.337   1.769 -0.3215 -0.1514 -0.2346
 2425TIP3    H128910   2.834   5.290   1.799 -0.4159  0.1917  0.0727
 2425TIP3    H228911   2.979   5.270   1.758 -0.4823 -0.3691  0.1118
 2426TIP3   OH228912   5.018   3.274   0.377 -0.0038 -0.4829 -0.1187
 2426TIP3    H128913   5.042   3.333   0.306 -0.1485 -0.1877  0.0801
 2426TIP3    H228914   4.924   3.286   0.388 -0.2931 -1.7058 -0.9565
 2427TIP3   OH228915   2.667   0.242   0.399 -0.4468 -0.2838 -0.1271
 2427TIP3    H128916   2.727   0.314   0.379  0.1339 -0.7934 -0.2351
 2427TIP3    H228917   2.580   0.282   0.393 -0.0984  1.0502  2.1681
 2428TIP3   OH228918   6.807   6.268   8.142  1.1971 -0.1235  0.6678
 2428TIP3    H128919   6.798   6.209   8.216  1.4663  0.6534  1.3399
 2428TIP3    H228920   6.845   6.348   8.180 -0.6057  1.0619  0.0904
 2429TIP3   OH228921   3.382   1.662   7.378  0.3957  0.0443 -0.1973
 2429TIP3    H128922   3.300   1.703   7.349  0.6843 -0.1117 -1.2571
 2429TIP3    H228923   3.443   1.677   7.306  1.1006 -0.4560  0.2896
 2430TIP3   OH228924   5.345   5.562   2.411  0.1894  0.4597 -0.4256
 2430TIP3    H128925   5.275   5.621   2.382  0.0197  0.2729 -0.4017
 2430TIP3    H228926   5.301   5.499   2.469 -0.1631 -1.3317 -2.5335
 2431TIP3   OH228927   6.172   5.434   1.200  0.0355 -0.2269 -0.2337
 2431TIP3    H128928   6.087   5.390   1.197  0.2438 -0.6486  0.0598
 2431TIP3    H228929   6.234   5.366   1.225  0.2476  0.3917  0.9745
 2432TIP3   OH228930   6.027   4.680   6.305  0.3684  0.0498 -0.2372
 2432TIP3    H128931   6.071   4.619   6.365  0.2338 -0.3525 -0.5386
 2432TIP3    H228932   6.064   4.765   6.326  0.3161 -0.0837  0.4272
 2433TIP3   OH228933   0.805   1.891   6.403  0.1848  0.5302 -0.0982
 2433TIP3    H128934   0.718   1.906   6.367  0.1612  2.2209  0.5654
 2433TIP3    H228935   0.834   1.977   6.434  1.3212 -0.3205  1.3854
 2434TIP3   OH228936   2.348   5.780   0.103  0.2554  0.2400 -0.5690
 2434TIP3    H128937   2.379   5.753   0.016 -0.0564 -0.0584 -0.5867
 2434TIP3    H228938   2.411   5.740   0.164 -0.5365 -1.0517 -0.5571
 2435TIP3   OH228939   6.558   6.475   8.234  0.8050  1.2809  0.1473
 2435TIP3    H128940   6.593   6.487   8.145  0.9310 -0.0618 -0.0067
 2435TIP3    H228941   6.495   6.404   8.225 -0.7318  2.4932  0.7594
 2436TIP3   OH228942   4.178   5.212   1.381  0.6767 -0.2335  0.4567
 2436TIP3    H128943   4.186   5.136   1.439  0.4362 -0.1717  0.5731
 2436TIP3    H228944   4.233   5.191   1.305  0.9444 -0.3404  0.6807
 2437TIP3   OH228945   6.783   6.867   7.242  0.2863 -0.0749  0.2346
 2437TIP3    H128946   6.745   6.794   7.291  1.3511 -1.6576 -1.1508
 2437TIP3    H228947   6.869   6.881   7.281  0.7259 -0.6631 -0.4860
 2438TIP3   OH228948   5.968   3.181   7.418 -0.1359 -0.0974 -0.1027
 2438TIP3    H128949   5.913   3.194   7.495  0.8885 -0.7912  0.7688
 2438TIP3    H228950   6.013   3.265   7.405  0.3038 -0.2271  0.5541
 2439TIP3   OH228951   0.926   0.525   6.918 -0.2015  0.1836  0.2734
 2439TIP3    H128952   0.936   0.612   6.880  1.0097 -0.4914 -1.0688
 2439TIP3    H228953   1.011   0.506   6.958 -0.4576 -0.3868  0.5637
 2440TIP3   OH228954   6.001   3.595   7.532 -0.0151 -0.5772  0.2982
 2440TIP3    H128955   5.906   3.596   7.525 -0.1947 -2.1554  1.8296
 2440TIP3    H228956   6.032   3.575   7.444 -1.1523 -1.0941  0.0004
 2441TIP3   OH228957   5.218   6.397   0.239 -0.3533 -0.1206  0.1217
 2441TIP3    H128958   5.277   6.470   0.221 -1.0222  0.1269 -1.1621
 2441TIP3    H228959   5.150   6.434   0.295 -0.8565  0.3503 -0.7705
 2442TIP3   OH228960   4.231   3.825   7.265  0.0141  0.7968 -0.8401
 2442TIP3    H128961   4.255   3.917   7.271  2.0680  0.3128 -0.5711
 2442TIP3    H228962   4.253   3.789   7.351  0.0093 -0.0951 -1.1988
 2443TIP3   OH228963   6.149   1.213   2.562 -0.0986  0.1930  0.2081
 2443TIP3    H128964   6.140   1.229   2.468 -0.2029 -4.5091 -0.8477
 2443TIP3    H228965   6.061   1.191   2.592  0.3763 -1.3683  0.5869
 2444TIP3   OH228966   5.505   4.766   7.203 -0.3765 -0.9430  0.2280
 2444TIP3    H128967   5.476   4.678   7.181 -2.0616 -0.5223  0.6140
 2444TIP3    H228968   5.594   4.773   7.166 -1.0783 -2.0111 -1.8056
 2445TIP3   OH228969   1.787   6.599   0.851 -0.3870  0.5818  0.0176
 2445TIP3    H128970   1.751   6.600   0.940  1.8086 -0.5524  0.9940
 2445TIP3    H228971   1.848   6.672   0.849 -1.5362  1.5530 -1.1144
 2446TIP3   OH228972   3.981   2.591   8.095  0.6746 -0.3439 -0.2696
 2446TIP3    H128973   3.888   2.607   8.079  0.4011 -2.6441 -1.4958
 2446TIP3    H228974   3.985   2.558   8.184  0.3754  0.2036 -0.0521
 2447TIP3   OH228975   6.415   3.462   2.141 -0.3235 -0.7747  0.2504
 2447TIP3    H128976   6.386   3.553   2.149  0.5169 -0.6393  2.2854
 2447TIP3    H228977   6.352   3.422   2.081 -2.0197  0.6157  1.0164
 2448TIP3   OH228978   5.287   1.049   8.111 -0.1457 -0.4953  0.4743
 2448TIP3    H128979   5.260   1.126   8.062  0.2717  1.5742  3.2487
 2448TIP3    H228980   5.325   0.991   8.046 -1.6187  1.0580 -1.9288
 2449TIP3   OH228981   5.288   5.028   1.424  0.0399  0.1651  0.0701
 2449TIP3    H128982   5.320   4.939   1.438  0.0351  0.3819  1.6260
 2449TIP3    H228983   5.302   5.043   1.330 -0.0770 -1.5039 -0.2579
 2450TIP3   OH228984   0.333   6.551   0.302  0.0801 -0.1345  0.6130
 2450TIP3    H128985   0.400   6.546   0.370  1.2206 -0.5269 -0.4945
 2450TIP3    H228986   0.252   6.530   0.348  0.7177  0.2359  1.9740
 2451TIP3   OH228987   1.053   0.111   0.238 -0.5403 -0.8027  0.1159
 2451TIP3    H128988   1.140   0.072   0.233 -0.1182  0.2008 -0.7281
 2451TIP3    H228989   1.069   0.206   0.234 -1.4663 -0.4242  2.9577
 2452TIP3   OH228990   4.920   5.487   0.587  0.1607  0.3520 -0.2835
 2452TIP3    H128991   4.892   5.401   0.618  0.4746 -0.0066 -0.9815
 2452TIP3    H228992   4.838   5.536   0.576 -0.1474 -0.3658 -1.3500
 2453TIP3   OH228993   1.523   5.798   8.145  0.3250 -0.4572 -0.0856
 2453TIP3    H128994   1.456   5.814   8.078  0.3006  0.0904  0.0662
 2453TIP3    H228995   1.473   5.792   8.227  0.3113 -1.4950 -0.1439
 2454TIP3   OH228996   5.330   3.783   1.197  0.2885  0.7673 -0.3009
 2454TIP3    H128997   5.248   3.824   1.223 -0.6690  0.7979 -3.0612
 2454TIP3    H228998   5.369   3.753   1.280 -3.3612 -0.9334  1.0386
 2455TIP3   OH228999   3.022   4.124   0.152  0.4974  0.3632 -0.3249
 2455TIP3    H129000   2.971   4.086   0.081 -1.2908  0.2564  0.9323
 2455TIP3    H229001   3.035   4.215   0.125  1.5352 -0.1535 -1.6407
 2456TIP3   OH229002   4.623   5.396   7.142 -0.1390  0.1577 -0.1138
 2456TIP3    H129003   4.630   5.396   7.238  2.8352  0.4269 -0.2468
 2456TIP3    H229004   4.654   5.310   7.116  3.0955  1.4275 -0.9165
 2457TIP3   OH229005   5.099   4.441   2.029  0.2343  0.3873 -0.4363
 2457TIP3    H129006   5.147   4.382   1.971 -0.7489 -0.3109 -0.5803
 2457TIP3    H229007   5.163   4.506   2.058  1.7876 -1.7088  1.0705
 2458TIP3   OH229008   1.843   1.219   1.301 -0.1850  0.3052 -0.0861
 2458TIP3    H129009   1.912   1.207   1.236  0.7855 -1.4279  1.1904
 2458TIP3    H229010   1.860   1.306   1.337  0.8272  0.2438 -0.3699
 2459TIP3   OH229011   0.955   4.212   8.456  0.2798 -0.1255  0.0341
 2459TIP3    H129012   0.976   4.190   8.547  0.5630  0.0396  0.0090
 2459TIP3    H229013   0.872   4.259   8.461 -2.8800 -4.8720 -0.2148
 2460TIP3   OH229014   5.337   6.831   2.160  0.6267  0.2876  0.0638
 2460TIP3    H129015   5.373   6.767   2.221  0.3863 -2.9169 -2.8398
 2460TIP3    H229016   5.242   6.827   2.173  0.6759  1.2157  0.8487
 2461TIP3   OH229017   3.180   5.927   6.573 -0.1599  0.0384  0.4726
 2461TIP3    H129018   3.092   5.903   6.601 -0.9503  1.7661 -0.4117
 2461TIP3    H229019   3.229   5.937   6.655 -1.7797  2.5919  1.2599
 2462TIP3   OH229020   3.251   4.339   0.345 -0.6294  0.8166 -0.6565
 2462TIP3    H129021   3.195   4.330   0.268 -0.5444 -0.3362 -0.6000
 2462TIP3    H229022   3.274   4.432   0.347  0.2350  0.7041 -2.6450
 2463TIP3   OH229023   6.383   0.053   8.297  0.0298 -0.1108  0.1481
 2463TIP3    H129024   6.386   0.119   8.366  2.1712  0.1704 -0.1689
 2463TIP3    H229025   6.447  -0.013   8.323  0.2243 -0.4514 -1.1287
 2464TIP3   OH229026   5.617   4.119   0.634 -0.3414  0.2860  0.3697
 2464TIP3    H129027   5.537   4.144   0.679 -1.3835 -1.4359 -0.4298
 2464TIP3    H229028   5.600   4.030   0.601  0.5848  1.1696 -2.8426
 2465TIP3   OH229029   3.747   5.125   7.586 -0.2458 -0.0556  0.1843
 2465TIP3    H129030   3.741   5.219   7.574 -0.1637 -0.2401 -1.5472
 2465TIP3    H229031   3.725   5.088   7.501  1.5177 -1.5346  0.2933
 2466TIP3   OH229032   1.024   6.319   6.237 -0.0578  0.2758  0.0997
 2466TIP3    H129033   0.960   6.388   6.253 -0.4760 -0.0403 -0.1805
 2466TIP3    H229034   1.075   6.314   6.318 -0.4806  0.4348  0.3782
 2467TIP3   OH229035   3.667   4.617   7.033  0.3727  0.3114 -0.0243
 2467TIP3    H129036   3.725   4.560   6.982  0.4555 -0.7222  1.1520
 2467TIP3    H229037   3.579   4.589   7.011  0.3909  0.2910 -0.0697
 2468TIP3   OH229038   6.878   0.139   0.981 -0.0357 -0.2511 -0.4142
 2468TIP3    H129039   6.825   0.219   0.987 -1.4157 -1.1584  0.0662
 2468TIP3    H229040   6.906   0.136   0.889 -1.1010  0.0972 -0.7714
 2469TIP3   OH229041   1.354   0.562   1.354 -0.1233 -0.4102 -0.1305
 2469TIP3    H129042   1.347   0.479   1.307  2.0424 -0.8721  0.2433
 2469TIP3    H229043   1.276   0.565   1.410  0.3445 -2.8271  0.7666
 2470TIP3   OH229044   2.372   3.109   0.157  0.5247 -0.1745  0.4158
 2470TIP3    H129045   2.319   3.087   0.234 -0.4078  0.2067 -0.1096
 2470TIP3    H229046   2.452   3.148   0.194 -0.4495  1.1729  1.1750
 2471TIP3   OH229047   5.000   2.413   0.230 -0.1837 -0.4542 -0.2230
 2471TIP3    H129048   5.061   2.484   0.209  0.9478 -1.2617  0.2782
 2471TIP3    H229049   4.959   2.391   0.146  3.3090 -2.7452 -1.5069
 2472TIP3   OH229050   0.010   5.505   8.317 -0.5350 -0.0581  0.5127
 2472TIP3    H129051   0.080   5.537   8.374  0.5251 -0.2763 -0.6162
 2472TIP3    H229052   0.056   5.463   8.244 -1.8133  0.6159 -0.7439
 2473TIP3   OH229053   4.581   5.786   8.082  0.0121 -0.5833 -0.3973
 2473TIP3    H129054   4.658   5.734   8.061 -0.9629 -1.8078 -1.1141
 2473TIP3    H229055   4.594   5.869   8.034 -0.3997 -1.8648 -2.9288
 2474TIP3   OH229056   1.574   0.770   8.570 -0.1836  0.5140 -0.2291
 2474TIP3    H129057   1.645   0.766   8.634 -0.7689  2.1499  0.5831
 2474TIP3    H229058   1.495   0.784   8.623 -1.6716 -4.0690 -0.8045
 2475TIP3   OH229059   3.323   1.098   0.765 -0.6641  0.2893  0.0928
 2475TIP3    H129060   3.261   1.126   0.833 -0.3563 -0.7533  0.8404
 2475TIP3    H229061   3.286   1.016   0.731 -0.5916  0.5812 -0.6936
 2476TIP3   OH229062   3.483   3.162   0.763  0.1915  0.1443  0.1868
 2476TIP3    H129063   3.421   3.123   0.700  0.4612  0.2710 -0.1624
 2476TIP3    H229064   3.502   3.092   0.825  2.0293 -0.8806 -1.4285
 2477TIP3   OH229065   1.329   0.242   7.384  0.1000 -0.2640  0.1330
 2477TIP3    H129066   1.244   0.259   7.424 -0.4667 -1.1475 -0.6439
 2477TIP3    H229067   1.372   0.181   7.444  0.0999  0.0085  0.4132
 2478TIP3   OH229068   6.211   1.013   2.148  0.0613 -0.3794 -0.3523
 2478TIP3    H129069   6.262   0.939   2.114 -0.9451 -1.4888  0.4774
 2478TIP3    H229070   6.274   1.085   2.152  1.0598 -1.1736 -1.2183
 2479TIP3   OH229071   4.365   1.039   1.303 -0.4769  0.0842 -0.4447
 2479TIP3    H129072   4.360   1.119   1.354  0.2734 -1.0335  1.4550
 2479TIP3    H229073   4.426   1.059   1.232  1.4985  0.5419  1.3104
 2480TIP3   OH229074   0.323   5.253   7.948 -0.2780 -0.0007  0.3229
 2480TIP3    H129075   0.413   5.280   7.930 -0.4168 -0.1772 -0.7109
 2480TIP3    H229076   0.326   5.157   7.950 -0.4591 -0.0130  0.1335
 2481TIP3   OH229077   3.124   3.272   8.481  0.4369 -0.0445  0.1392
 2481TIP3    H129078   3.147   3.190   8.525  1.1336  0.4447  0.7105
 2481TIP3    H229079   3.181   3.337   8.521  1.3709  0.3719 -1.7435
 2482TIP3   OH229080   6.887   6.656   1.400 -0.5794  0.1928  1.0468
 2482TIP3    H129081   6.898   6.618   1.313 -1.4842 -0.3741  1.1713
 2482TIP3    H229082   6.962   6.623   1.450 -0.4744 -0.1023  0.7000
 2483TIP3   OH229083   5.689   6.129   7.952 -0.0889 -0.2980 -0.0184
 2483TIP3    H129084   5.681   6.145   7.858 -1.0001 -4.1905 -0.7448
 2483TIP3    H229085   5.731   6.043   7.959 -1.4687 -0.8543  3.0766
 2484TIP3   OH229086   2.765   1.259   1.623  0.2599 -0.4207  0.1619
 2484TIP3    H129087   2.804   1.345   1.635  1.3374 -0.9924  0.8757
 2484TIP3    H229088   2.834   1.197   1.648 -0.8961 -1.4652  0.8870
 2485TIP3   OH229089   5.552   0.077   8.122  0.0124 -0.1061 -0.9586
 2485TIP3    H129090   5.474   0.022   8.123 -0.5841  0.4735  3.1793
 2485TIP3    H229091   5.624   0.017   8.142  0.0050 -0.0220 -0.6811
 2486TIP3   OH229092   4.787   6.669   7.700 -0.3303  1.3797 -0.0577
 2486TIP3    H129093   4.744   6.591   7.665 -1.5205  1.2751  1.5767
 2486TIP3    H229094   4.755   6.740   7.644 -0.9826  1.0098 -0.1671
 2487TIP3   OH229095   5.914   5.578   2.275 -0.1058 -0.0522 -0.3682
 2487TIP3    H129096   5.838   5.535   2.237 -0.4044 -0.8974  1.1006
 2487TIP3    H229097   5.942   5.519   2.345 -1.9055  3.0114  3.2958
 2488TIP3   OH229098   3.482   3.546   0.758 -0.3234 -0.4966 -0.4540
 2488TIP3    H129099   3.463   3.490   0.832  1.9349 -0.0130  0.5902
 2488TIP3    H229100   3.487   3.487   0.683 -0.0727 -1.3883  0.2509
 2489TIP3   OH229101   1.488   2.307   0.905  0.8190  0.6093 -0.7266
 2489TIP3    H129102   1.424   2.250   0.949  2.7761 -1.3253 -0.2111
 2489TIP3    H229103   1.442   2.338   0.827 -1.0606  0.0946  0.1075
 2490TIP3   OH229104   2.048   5.172   6.401 -0.0890  0.1080 -0.1325
 2490TIP3    H129105   2.048   5.249   6.458  0.6174 -0.9938  1.4307
 2490TIP3    H229106   1.973   5.185   6.343 -0.9553  1.2032  1.1755
 2491TIP3   OH229107   0.165   1.920   2.113 -0.2074 -0.0588 -0.2750
 2491TIP3    H129108   0.215   1.917   2.194 -1.0852  3.1054  0.5080
 2491TIP3    H229109   0.154   1.828   2.088  2.1815 -1.0249  1.8197
 2492TIP3   OH229110   3.942   4.217   8.533  0.1944 -0.0837 -0.2304
 2492TIP3    H129111   3.865   4.197   8.586  1.5653 -0.0356  1.9075
 2492TIP3    H229112   3.965   4.133   8.493  0.0156 -0.4921  0.4959
 2493TIP3   OH229113   1.078   1.009   6.676  0.2922  0.2466  0.2587
 2493TIP3    H129114   1.135   1.076   6.713 -0.1107  1.3011 -0.9803
 2493TIP3    H229115   0.995   1.054   6.660 -0.2317 -0.7453  0.1292
 2494TIP3   OH229116   2.612   5.691   7.560 -0.0343 -0.5854 -0.1859
 2494TIP3    H129117   2.689   5.636   7.552  0.3534  0.0252 -0.7020
 2494TIP3    H229118   2.620   5.756   7.490  0.5728  1.4158  1.6246
 2495TIP3   OH229119   5.816   0.538   8.291 -0.5549  0.3268 -0.0466
 2495TIP3    H129120   5.871   0.603   8.335 -2.0821  0.9723  0.9692
 2495TIP3    H229121   5.767   0.589   8.226 -0.3215 -0.1682 -0.6203
 2496TIP3   OH229122   6.408   6.371   7.011 -0.3010  0.1019 -0.2751
 2496TIP3    H129123   6.387   6.355   6.919 -0.3101 -0.6256 -0.1484
 2496TIP3    H229124   6.499   6.402   7.010 -0.7588  1.5405 -0.6551
 2497TIP3   OH229125   2.558   2.045   1.083  0.6496  0.3286 -0.3151
 2497TIP3    H129126   2.573   2.001   0.999 -0.7107  1.3886 -1.1817
 2497TIP3    H229127   2.643   2.080   1.108  1.0632  0.0911 -1.3276
 2498TIP3   OH229128   3.398   5.982   6.726  0.1964 -0.3542  0.0360
 2498TIP3    H129129   3.469   5.988   6.790  0.4636  0.1919 -0.3071
 2498TIP3    H229130   3.406   5.894   6.689  1.2559  0.0012 -0.6344
 2499TIP3   OH229131   6.687   4.009   7.502 -0.9773 -0.0211 -0.9879
 2499TIP3    H129132   6.602   4.033   7.540 -0.8543  1.3008 -1.4754
 2499TIP3    H229133   6.684   3.914   7.496 -2.0401 -0.0747 -0.1102
 2500TIP3   OH229134   0.426   5.065   7.318 -0.3062  0.1427  0.1495
 2500TIP3    H129135   0.454   4.974   7.327 -0.3813 -0.0320 -1.1988
 2500TIP3    H229136   0.495   5.115   7.360 -0.6310 -0.5651  1.5638
 2501TIP3   OH229137   2.068   5.642   7.618  0.3065 -0.5741 -0.1677
 2501TIP3    H129138   2.094   5.566   7.566 -0.2180 -2.0973  1.6731
 2501TIP3    H229139   1.987   5.673   7.576 -0.5319 -2.2444  0.1235
 2502TIP3   OH229140   6.132   1.306   0.649 -0.5582 -0.3045  0.0562
 2502TIP3    H129141   6.143   1.324   0.743 -0.6329  0.0521 -0.0050
 2502TIP3    H229142   6.055   1.357   0.624 -1.1314 -1.1576  0.0147
 2503TIP3   OH229143   6.897   0.258   1.446 -0.0428 -0.0467 -0.4866
 2503TIP3    H129144   6.891   0.162   1.448  0.0513 -0.0479  0.9313
 2503TIP3    H229145   6.991   0.276   1.452 -0.1618  0.1128  1.9007
 2504TIP3   OH229146   2.183   3.853   7.314  0.0050  0.9240 -0.1888
 2504TIP3    H129147   2.218   3.918   7.253  1.8595 -1.3920 -1.8020
 2504TIP3    H229148   2.242   3.856   7.389 -2.2923  3.7928  1.7351
 2505TIP3   OH229149   3.844   4.411   6.922 -0.0456  0.4001 -0.3123
 2505TIP3    H129150   3.814   4.340   6.865  0.0587  0.5806 -0.5929
 2505TIP3    H229151   3.890   4.471   6.864 -1.8145  1.6961 -0.4510
 2506TIP3   OH229152   1.953   6.617   1.663 -0.1794  0.0594  0.0196
 2506TIP3    H129153   1.891   6.668   1.716 -1.0131 -0.2469 -0.6368
 2506TIP3    H229154   1.994   6.558   1.726  2.5112  2.9893  1.2654
 2507TIP3   OH229155   6.125   3.473   1.809  0.0960  0.3334  0.3008
 2507TIP3    H129156   6.190   3.472   1.740 -1.2335 -0.0779 -1.0034
 2507TIP3    H229157   6.103   3.380   1.823 -1.8636  0.5280 -0.9827
 2508TIP3   OH229158   6.553   5.672   0.670 -0.5715 -0.6347  0.5858
 2508TIP3    H129159   6.503   5.744   0.632 -1.0107 -1.1809  0.1163
 2508TIP3    H229160   6.508   5.593   0.641  0.2452 -1.1222  0.6031
 2509TIP3   OH229161   4.006   2.527   1.177 -0.0184 -0.1732 -0.4502
 2509TIP3    H129162   4.061   2.460   1.134  0.3236 -0.3965  0.3208
 2509TIP3    H229163   3.989   2.591   1.108 -2.0693 -2.0475 -1.8174
 2510TIP3   OH229164   2.224   5.804   1.190 -0.4779 -0.2396 -0.2043
 2510TIP3    H129165   2.309   5.806   1.145 -0.3772 -0.1284 -0.0111
 2510TIP3    H229166   2.165   5.854   1.133 -0.1793  0.5099  0.1309
 2511TIP3   OH229167   0.583   4.495   7.881 -0.4059  0.0497  0.1563
 2511TIP3    H129168   0.506   4.439   7.895 -0.9173  0.9357  1.0640
 2511TIP3    H229169   0.644   4.440   7.833 -0.4566 -1.6885  1.9252
 2512TIP3   OH229170   3.095   2.772   7.362  0.5460 -0.4226 -0.3726
 2512TIP3    H129171   3.130   2.846   7.313 -0.1580  0.0667 -0.1473
 2512TIP3    H229172   3.086   2.804   7.452  1.1534 -1.0904 -0.0534
 2513TIP3   OH229173   4.553   3.688   1.547  0.0469  0.0924  0.4285
 2513TIP3    H129174   4.639   3.729   1.533 -0.4545  1.6529  1.7215
 2513TIP3    H229175   4.490   3.755   1.519 -0.8042 -1.6401 -2.1393
 2514TIP3   OH229176   5.639   6.155   1.311  0.0591 -0.2308 -0.7696
 2514TIP3    H129177   5.712   6.117   1.263 -0.2649 -0.8349 -0.7921
 2514TIP3    H229178   5.581   6.081   1.329 -0.4181  0.1976 -0.5233
 2515TIP3   OH229179   1.482   3.942   8.406 -0.1479  0.4653  0.2427
 2515TIP3    H129180   1.547   4.008   8.385  0.7854 -0.8326 -1.1451
 2515TIP3    H229181   1.415   3.951   8.338 -2.6722  3.1905  2.8019
 2516TIP3   OH229182   3.067   2.022   7.183  1.0746 -0.0289  0.2427
 2516TIP3    H129183   3.018   2.027   7.101 -1.8730 -0.2302  1.8625
 2516TIP3    H229184   3.063   2.110   7.219  1.1658 -0.2487  0.8021
 2517TIP3   OH229185   5.365   0.996   6.848 -0.0847  0.6747 -0.0438
 2517TIP3    H129186   5.441   0.954   6.807 -0.6214  0.0885 -0.4629
 2517TIP3    H229187   5.334   0.931   6.912  0.0389  1.0980  0.4498
 2518TIP3   OH229188   1.650   6.635   6.924  0.0539  0.1361  0.2858
 2518TIP3    H129189   1.738   6.620   6.890 -0.1328  0.5406 -0.3902
 2518TIP3    H229190   1.649   6.727   6.950 -0.3742  0.3093 -0.3331
 2519TIP3   OH229191   4.207   2.140   0.899 -0.2312  0.4001 -0.0739
 2519TIP3    H129192   4.191   2.095   0.816 -0.4137  3.9227 -2.1427
 2519TIP3    H229193   4.291   2.185   0.886 -0.2746  1.0550  1.6515
 2520TIP3   OH229194   4.536   6.653   1.624 -0.4753 -0.6497 -0.4258
 2520TIP3    H129195   4.600   6.686   1.562 -0.0805  0.4703  0.5425
 2520TIP3    H229196   4.585   6.644   1.706 -1.5126  0.0724  0.2936
 2521TIP3   OH229197   4.353   6.808   7.633  0.3207  0.3454 -0.1334
 2521TIP3    H129198   4.448   6.808   7.642  0.5642  0.4867 -2.1683
 2521TIP3    H229199   4.325   6.887   7.680  1.0417 -0.3482  1.5378
 2522TIP3   OH229200   3.411   3.053   0.004 -0.1347  0.0346  0.1804
 2522TIP3    H129201   3.445   3.068   0.093  0.1010 -2.5188  0.6124
 2522TIP3    H229202   3.316   3.055   0.014 -0.1543 -2.0228  0.9422
 2523TIP3   OH229203   2.826   3.626   1.932 -0.0698  0.8071  0.0952
 2523TIP3    H129204   2.845   3.666   2.017  0.6510 -1.1060  0.9003
 2523TIP3    H229205   2.790   3.540   1.953  0.1781  0.2630 -1.5402
 2524TIP3   OH229206   5.695   3.415   0.448  0.2635 -0.8981 -0.1723
 2524TIP3    H129207   5.676   3.413   0.542 -1.4884 -0.1943 -0.4799
 2524TIP3    H229208   5.609   3.421   0.406  1.0892  3.0179 -1.6805
 2525TIP3   OH229209   3.791   5.742   8.530 -0.2115  0.0949 -0.4565
 2525TIP3    H129210   3.812   5.752   8.623  2.8967 -1.0311 -0.9147
 2525TIP3    H229211   3.701   5.708   8.529  0.1936 -1.3428  2.2419
 2526TIP3   OH229212   0.787   3.189   0.095  0.1929  0.0210  0.1137
 2526TIP3    H129213   0.851   3.260   0.087  0.4352 -0.1378  0.5717
 2526TIP3    H229214   0.717   3.213   0.035 -0.0587  1.0115  0.7729
 2527TIP3   OH229215   0.950   0.771   6.775  0.3476 -0.2806  0.1100
 2527TIP3    H129216   1.040   0.762   6.746  0.6470 -1.2721  1.2712
 2527TIP3    H229217   0.914   0.842   6.721  2.2114  1.0630  0.5294
 2528TIP3   OH229218   1.501   1.810   1.075  0.1175  0.2177  0.0815
 2528TIP3    H129219   1.557   1.740   1.107 -1.0393  0.0536  1.9330
 2528TIP3    H229220   1.429   1.813   1.138 -2.0403  0.3244 -2.2329
 2529TIP3   OH229221   1.461   2.242   1.374 -0.2246  0.4996 -0.1032
 2529TIP3    H129222   1.445   2.331   1.341 -1.8935 -0.5718 -2.4999
 2529TIP3    H229223   1.526   2.206   1.313 -0.0558 -0.1348  0.4513
 2530TIP3   OH229224   4.296   3.929   1.169  0.1591 -0.8257  0.3548
 2530TIP3    H129225   4.220   3.978   1.137  0.3156 -0.2855  0.7813
 2530TIP3    H229226   4.367   3.952   1.109  0.6734  0.8591  1.4932
 2531TIP3   OH229227   4.412   5.469   7.807 -0.1310  0.0794  0.3269
 2531TIP3    H129228   4.350   5.509   7.868  0.2715 -1.7162  2.0130
 2531TIP3    H229229   4.406   5.375   7.825  0.1630 -0.5038 -2.3210
 2532TIP3   OH229230   5.726   2.601   0.187 -0.3449  0.7497  0.0565
 2532TIP3    H129231   5.675   2.667   0.140 -0.1654  0.4074 -0.6256
 2532TIP3    H229232   5.813   2.641   0.196  0.5379 -0.3783 -2.6429
 2533TIP3   OH229233   5.982   1.943   7.532  0.0211 -0.5918  0.4042
 2533TIP3    H129234   6.056   1.951   7.592  0.8636 -0.2290 -0.6671
 2533TIP3    H229235   6.010   1.986   7.452 -0.4083 -2.5719 -0.8780
 2534TIP3   OH229236   6.853   1.897   1.203  0.1971  0.7111 -0.1603
 2534TIP3    H129237   6.913   1.823   1.199  0.0541  0.6418 -1.5813
 2534TIP3    H229238   6.899   1.962   1.256  0.5629 -0.1646  0.6278
 2535TIP3   OH229239   3.127   1.733   7.289 -0.2313 -0.0935 -0.1256
 2535TIP3    H129240   3.043   1.689   7.292  0.0642 -0.9861 -2.6579
 2535TIP3    H229241   3.107   1.825   7.307 -1.6468 -0.3966 -0.1005
 2536TIP3   OH229242   4.326   0.499   0.800  0.5848 -0.2212  0.4442
 2536TIP3    H129243   4.399   0.562   0.806  1.9033 -1.7088  0.7524
 2536TIP3    H229244   4.357   0.434   0.737 -1.1867 -0.0483 -0.6580
 2537TIP3   OH229245   1.949   5.022   7.058 -0.7328  0.4071 -0.4820
 2537TIP3    H129246   2.006   5.022   6.981  2.4384  0.9328  1.6546
 2537TIP3    H229247   1.874   4.969   7.032  1.3286 -1.5435 -3.1208
 2538TIP3   OH229248   4.231   3.957   2.464  0.7112 -0.3672 -0.0085
 2538TIP3    H129249   4.182   3.973   2.545  0.9670  1.7055 -0.2260
 2538TIP3    H229250   4.165   3.921   2.404  0.0990 -0.2266  0.5643
 2539TIP3   OH229251   2.059   0.888   1.203  0.4964 -0.4637  0.7136
 2539TIP3    H129252   2.073   0.867   1.111 -0.5262 -0.3520  0.5311
 2539TIP3    H229253   1.965   0.878   1.217  0.7324 -1.2571  1.9382
 2540TIP3   OH229254   4.459   1.543   7.645  0.4253 -0.0552  0.0353
 2540TIP3    H129255   4.424   1.485   7.713 -1.4922 -0.7620 -1.4434
 2540TIP3    H229256   4.451   1.631   7.681 -0.6325 -0.4057  0.6855
 2541TIP3   OH229257   5.321   0.640   0.583  0.0971  0.5949 -0.3256
 2541TIP3    H129258   5.240   0.691   0.590  0.1294  1.0768 -2.6691
 2541TIP3    H229259   5.313   0.594   0.500  1.2263 -1.2437  0.5210
 2542TIP3   OH229260   6.905   2.694   7.515 -0.0640 -0.6607  0.4574
 2542TIP3    H129261   6.855   2.622   7.478 -0.6733 -0.2026  0.3744
 2542TIP3    H229262   6.997   2.670   7.501 -0.2680 -1.3090  0.2346
 2543TIP3   OH229263   5.931   1.949   7.057  0.1941  0.5071  0.4580
 2543TIP3    H129264   5.997   2.006   7.017  0.4292 -0.0394  0.0505
 2543TIP3    H229265   5.980   1.871   7.083  0.1530  1.0507  2.2976
 2544TIP3   OH229266   5.066   0.429   0.184 -0.1691 -0.5613 -0.0184
 2544TIP3    H129267   4.976   0.462   0.188 -0.4175 -0.9950 -1.2858
 2544TIP3    H229268   5.120   0.500   0.218 -0.8358  0.5232 -1.1350
 2545TIP3   OH229269   1.955   4.521   6.199  0.8106  0.2915  0.3453
 2545TIP3    H129270   1.861   4.503   6.190  0.7604  1.5257 -3.0561
 2545TIP3    H229271   1.998   4.452   6.149  1.7705 -0.1461  1.7097
 2546TIP3   OH229272   2.755   4.507   1.678  0.1658  0.2173  0.1244
 2546TIP3    H129273   2.796   4.593   1.666  0.5744  0.0233  0.0837
 2546TIP3    H229274   2.676   4.524   1.728 -0.9448  0.9064 -1.7557
 2547TIP3   OH229275   5.295   5.214   0.420  0.6541  0.0671 -0.5390
 2547TIP3    H129276   5.308   5.171   0.505  0.3327 -1.0762 -1.0392
 2547TIP3    H229277   5.224   5.277   0.435  1.4362  0.7569  0.3204
 2548TIP3   OH229278   0.448   6.218   2.058  0.8540 -0.4348  0.0754
 2548TIP3    H129279   0.374   6.264   2.100  2.0327  0.8791  0.8041
 2548TIP3    H229280   0.523   6.274   2.076  2.0073 -1.6575 -0.8182
 2549TIP3   OH229281   5.048   5.314   2.323  0.2815  0.0643  0.4046
 2549TIP3    H129282   4.965   5.345   2.288  0.6089  1.0040  0.4445
 2549TIP3    H229283   5.113   5.337   2.256  0.2710 -2.6704 -0.7153
 2550TIP3   OH229284   4.596   6.105   0.937 -0.9607 -0.2186  0.5409
 2550TIP3    H129285   4.627   6.104   0.847 -1.5164 -0.2041  0.3429
 2550TIP3    H229286   4.629   6.187   0.974 -0.3920 -0.4153  0.4777
 2551TIP3   OH229287   4.571   2.898   7.617  0.1760 -0.5083 -0.2285
 2551TIP3    H129288   4.613   2.821   7.655  0.3803 -0.6173 -0.6717
 2551TIP3    H229289   4.610   2.973   7.663  0.4827 -0.6338 -0.2865
 2552TIP3   OH229290   4.270   4.652   2.248 -0.1758 -0.5692  0.5997
 2552TIP3    H129291   4.259   4.657   2.343 -0.0337 -1.4187  0.6700
 2552TIP3    H229292   4.361   4.676   2.233 -0.6937  1.5502  0.4724
 2553TIP3   OH229293   4.686   1.854   7.412 -0.2832 -0.3494  0.1805
 2553TIP3    H129294   4.672   1.860   7.507 -0.2614 -0.7259  0.2089
 2553TIP3    H229295   4.677   1.761   7.393  0.4883 -0.3752 -0.0710
 2554TIP3   OH229296   3.417   1.040   7.774  0.3394 -0.3822 -0.0114
 2554TIP3    H129297   3.336   0.992   7.758  0.0153  0.5080 -1.2570
 2554TIP3    H229298   3.467   0.986   7.835 -1.8193 -0.2682  1.9772
 2555TIP3   OH229299   5.199   0.686   1.688 -0.2464  0.1023 -0.1385
 2555TIP3    H129300   5.210   0.780   1.695  0.3249  0.0056  0.3235
 2555TIP3    H229301   5.138   0.663   1.759  1.0581 -0.1083  0.9614
 2556TIP3   OH229302   6.508   3.261   7.830 -0.0836  0.7806 -0.2642
 2556TIP3    H129303   6.430   3.303   7.864 -1.2369  0.2440 -2.1361
 2556TIP3    H229304   6.476   3.183   7.785  1.8361 -1.3189  1.7496
 2557TIP3   OH229305   5.481   0.385   0.158  0.0601 -0.4044 -0.5929
 2557TIP3    H129306   5.463   0.300   0.197 -1.8462 -0.4233 -1.3805
 2557TIP3    H229307   5.559   0.372   0.106  0.0892 -1.5324 -0.2920
 2558TIP3   OH229308   0.133   6.314   1.190 -0.5416  0.3910 -0.2753
 2558TIP3    H129309   0.112   6.220   1.190 -0.9871  0.4855 -0.6123
 2558TIP3    H229310   0.192   6.326   1.264 -2.3134  0.2532  1.2083
 2559TIP3   OH229311   6.105   2.760   6.465 -0.6410 -0.0416  0.4877
 2559TIP3    H129312   6.176   2.741   6.403 -1.4294 -2.3978  0.1982
 2559TIP3    H229313   6.033   2.790   6.410 -1.8884 -3.6639 -0.1139
 2560TIP3   OH229314   3.220   5.863   7.769  0.1011 -0.1198 -0.6929
 2560TIP3    H129315   3.222   5.899   7.681 -1.3895  1.7625 -0.0421
 2560TIP3    H229316   3.250   5.773   7.759 -1.5697 -0.4996 -3.3918
 2561TIP3   OH229317   6.448   0.736   6.067 -0.4798  0.4284  0.2499
 2561TIP3    H129318   6.371   0.689   6.099  0.0319  0.2963  1.3267
 2561TIP3    H229319   6.419   0.827   6.058 -0.9551  0.2517 -0.0397
 2562TIP3   OH229320   4.961   3.977   0.438  0.1966 -0.2514 -0.0693
 2562TIP3    H129321   4.943   4.071   0.449  0.0427 -0.3595  0.6050
 2562TIP3    H229322   5.050   3.974   0.403  0.6968  0.1040  1.1449
 2563TIP3   OH229323   6.262   2.811   6.805 -0.2532 -0.7725 -0.4405
 2563TIP3    H129324   6.190   2.760   6.768 -0.8824 -1.7980  1.9848
 2563TIP3    H229325   6.292   2.759   6.880  1.0254  1.0755  0.4030
 2564TIP3   OH229326   2.741   0.976   8.107 -0.0502 -0.1104  0.0219
 2564TIP3    H129327   2.651   0.977   8.072  0.5083  1.6453 -1.5547
 2564TIP3    H229328   2.786   0.910   8.053 -0.1246 -0.1909  0.0580
 2565TIP3   OH229329   6.644   2.002   8.403 -0.2545 -0.1884  0.0627
 2565TIP3    H129330   6.602   2.064   8.463 -0.2076  1.0548 -1.1532
 2565TIP3    H229331   6.604   2.020   8.318  0.0075 -1.6122 -0.3834
 2566TIP3   OH229332   1.474   5.797   0.717 -0.1439  0.2464  0.3519
 2566TIP3    H129333   1.434   5.827   0.636  1.1732  0.5058 -0.2391
 2566TIP3    H229334   1.402   5.791   0.779 -1.0614  0.7796 -0.6296
 2567TIP3   OH229335   5.856   0.214   1.786  0.1714  0.6186 -0.0395
 2567TIP3    H129336   5.902   0.132   1.767 -1.4058 -0.0382 -1.1644
 2567TIP3    H229337   5.865   0.224   1.881  0.1993 -0.9881  0.1544
 2568TIP3   OH229338   2.063   1.355   7.203  0.0930  0.2023 -0.3963
 2568TIP3    H129339   2.079   1.265   7.230 -0.4265  0.0589 -0.5551
 2568TIP3    H229340   2.117   1.408   7.261  1.1641 -0.2631 -0.9468
 2569TIP3   OH229341   6.880   0.393   8.528 -0.5269  0.0233  0.6577
 2569TIP3    H129342   6.953   0.382   8.589 -1.2048  1.0611  1.6889
 2569TIP3    H229343   6.805   0.417   8.583 -1.0106  1.6381 -0.6109
 2570TIP3   OH229344   4.918   3.182   1.109  1.0389  0.2478 -0.2677
 2570TIP3    H129345   4.898   3.276   1.117 -1.5811 -0.2549  0.1075
 2570TIP3    H229346   4.898   3.161   1.018 -1.5360 -0.5063  0.3945
 2571TIP3   OH229347   0.858   5.931   7.196 -0.0142 -0.3350 -0.7287
 2571TIP3    H129348   0.944   5.960   7.165  0.1646 -0.0149  0.0427
 2571TIP3    H229349   0.847   5.975   7.280 -0.5867 -1.0016 -0.4470
 2572TIP3   OH229350   5.978   0.886   1.830  0.5702  0.0900 -0.4741
 2572TIP3    H129351   5.906   0.824   1.815 -0.2513  0.9904 -0.3236
 2572TIP3    H229352   6.054   0.844   1.790  0.2768 -1.5086  0.5529
 2573TIP3   OH229353   1.581   4.596   8.095 -0.0049 -0.2709  0.1479
 2573TIP3    H129354   1.530   4.657   8.149  2.2261  0.3809  1.6601
 2573TIP3    H229355   1.526   4.519   8.087 -0.9432  0.0843  2.3791
 2574TIP3   OH229356   3.958   5.470   6.788 -0.8936 -0.4886  0.5017
 2574TIP3    H129357   4.026   5.494   6.724 -0.2758 -0.4369  1.1595
 2574TIP3    H229358   3.890   5.535   6.777 -0.2821  0.1945  0.6671
 2575TIP3   OH229359   4.166   2.817   8.204  0.2757  0.2893  0.9332
 2575TIP3    H129360   4.208   2.872   8.138 -1.2242  0.9059  0.4323
 2575TIP3    H229361   4.197   2.728   8.184  0.9186  0.6496  0.2711
 2576TIP3   OH229362   1.312   3.778   8.598  0.5301 -0.1330 -0.3287
 2576TIP3    H129363   1.377   3.818   8.541 -0.8935  0.6539 -1.4738
 2576TIP3    H229364   1.251   3.849   8.619 -0.8426 -1.1798 -0.6124
 2577TIP3   OH229365   3.375   2.239   6.494  0.1056 -0.2281  0.6136
 2577TIP3    H129366   3.352   2.157   6.449  1.7202 -1.0166  1.1504
 2577TIP3    H229367   3.347   2.226   6.584  0.4843 -0.2551  0.7299
 2578TIP3   OH229368   5.234   1.810   8.335  0.3257 -0.0339  0.0120
 2578TIP3    H129369   5.254   1.797   8.428 -0.1074  0.0217  0.1132
 2578TIP3    H229370   5.300   1.873   8.305  0.6606 -0.2916  0.2040
 2579TIP3   OH229371   5.310   1.502   1.621 -0.1433 -0.0980  0.1273
 2579TIP3    H129372   5.257   1.438   1.668 -0.2565 -1.3379 -1.6031
 2579TIP3    H229373   5.392   1.456   1.603 -0.0793  0.3813 -0.8288
 2580TIP3   OH229374   5.497   3.752   7.333 -0.0130  0.2630 -0.1730
 2580TIP3    H129375   5.466   3.685   7.272 -0.0416  0.1915 -0.0803
 2580TIP3    H229376   5.498   3.709   7.418 -0.1165  0.4078 -0.0983
 2581TIP3   OH229377   0.547   1.813   0.296  0.4294 -0.4135 -0.0676
 2581TIP3    H129378   0.616   1.816   0.362  0.9802 -2.1672 -0.5120
 2581TIP3    H229379   0.578   1.872   0.227  1.0427 -0.4772  0.1428
 2582TIP3   OH229380   6.052   1.108   1.312 -0.1332 -0.4856  0.4863
 2582TIP3    H129381   6.018   1.104   1.401 -0.9356 -1.6073  0.1502
 2582TIP3    H229382   6.054   1.017   1.282 -0.8689 -0.0562 -0.9961
 2583TIP3   OH229383   3.931   4.913   6.898  0.0731  0.4764  0.0967
 2583TIP3    H129384   4.016   4.878   6.870 -0.0762 -0.7737  1.1109
 2583TIP3    H229385   3.942   5.008   6.896  2.1096  0.3710  1.9389
 2584TIP3   OH229386   1.693   5.590   1.571  0.2211  1.0665  0.1870
 2584TIP3    H129387   1.710   5.546   1.488  0.1281  0.1867  0.6263
 2584TIP3    H229388   1.774   5.638   1.590  1.5503 -1.4530  1.2675
 2585TIP3   OH229389   5.907   4.034   7.754  0.3179 -0.1037  0.5182
 2585TIP3    H129390   5.812   4.024   7.747  0.2684  0.9500 -1.0865
 2585TIP3    H229391   5.942   3.970   7.692  0.4878  1.3100 -0.9228
 2586TIP3   OH229392   5.067   5.349   1.380 -0.2500  0.2449  0.0242
 2586TIP3    H129393   4.982   5.388   1.401  0.4785  1.4961  0.7841
 2586TIP3    H229394   5.101   5.318   1.464  0.5514  0.8413 -0.0671
 2587TIP3   OH229395   6.683   5.154   1.187  0.2283 -0.1496  0.2683
 2587TIP3    H129396   6.625   5.081   1.209 -1.3589  1.4420  1.6240
 2587TIP3    H229397   6.742   5.161   1.261 -0.8412  1.0563  1.0549
 2588TIP3   OH229398   5.421   6.314   7.246 -0.8805  0.3647 -0.0292
 2588TIP3    H129399   5.471   6.291   7.324  0.6308 -0.8176 -1.2816
 2588TIP3    H229400   5.486   6.337   7.181 -1.8592 -1.5868 -1.8443
 2589TIP3   OH229401   5.596   6.409   0.081  0.0692 -0.1487  0.5539
 2589TIP3    H129402   5.602   6.319   0.114 -1.2398 -0.2170  0.6914
 2589TIP3    H229403   5.574   6.399  -0.011  2.3510  0.0499 -0.0699
 2590TIP3   OH229404   1.232   5.944   1.702  0.8559  0.3285 -0.5279
 2590TIP3    H129405   1.201   6.031   1.728  0.4478  0.1639 -0.4514
 2590TIP3    H229406   1.207   5.935   1.610 -0.1815 -0.1704 -0.2144
 2591TIP3   OH229407   4.531   1.800   1.866  0.1171 -0.1016 -0.3612
 2591TIP3    H129408   4.584   1.863   1.916  0.6385  1.4690 -2.7471
 2591TIP3    H229409   4.565   1.715   1.892  1.2539  0.7086  0.9528
 2592TIP3   OH229410   1.767   1.498   7.886  0.1596  0.1529  0.1212
 2592TIP3    H129411   1.749   1.538   7.801  0.9708 -3.5032 -1.9808
 2592TIP3    H229412   1.692   1.440   7.901  1.2290 -1.1448  0.6111
 2593TIP3   OH229413   5.225   4.402   2.728 -0.2499  0.1270 -0.1353
 2593TIP3    H129414   5.288   4.372   2.663  0.7652  0.6932  0.5459
 2593TIP3    H229415   5.172   4.467   2.682 -0.6881 -0.7228 -0.8598
 2594TIP3   OH229416   3.339   0.877   0.974  0.4345  0.6134  0.5073
 2594TIP3    H129417   3.272   0.818   1.009 -0.4220  0.7648 -0.8063
 2594TIP3    H229418   3.392   0.823   0.916 -1.2622  1.3409 -1.8833
 2595TIP3   OH229419   0.353   0.006   1.403  0.2108 -0.2362 -0.4356
 2595TIP3    H129420   0.412  -0.026   1.472 -0.5061 -0.4404  0.0892
 2595TIP3    H229421   0.289  -0.064   1.393 -0.8862  0.6627  0.1242
 2596TIP3   OH229422   5.429   1.344   8.219  0.1601 -0.1103 -0.2199
 2596TIP3    H129423   5.513   1.390   8.216  0.2986 -0.2910  0.7155
 2596TIP3    H229424   5.370   1.400   8.168  1.1371 -0.6318 -2.0157
 2597TIP3   OH229425   6.887   4.026   0.070  0.6390 -0.1309  0.2908
 2597TIP3    H129426   6.983   4.026   0.068  0.6605 -1.6053  0.4744
 2597TIP3    H229427   6.862   4.094   0.007  1.7993  0.0822  0.0421
 2598TIP3   OH229428   1.065   4.080   1.920 -1.0311  0.1532  0.1695
 2598TIP3    H129429   1.026   4.132   1.990  0.6112 -0.2084  1.4353
 2598TIP3    H229430   1.143   4.041   1.960  0.5363  0.7065 -2.1094
 2599TIP3   OH229431   5.104   4.631   0.651 -0.2200 -0.3281  0.3620
 2599TIP3    H129432   5.018   4.598   0.675  0.9218 -3.4303  0.6631
 2599TIP3    H229433   5.133   4.679   0.729 -0.8977 -0.9508  1.0179
 2600TIP3   OH229434   6.500   6.138   0.762 -0.9372  0.0678  0.2232
 2600TIP3    H129435   6.414   6.108   0.733 -1.0322  0.8355 -0.3275
 2600TIP3    H229436   6.552   6.058   0.771 -2.0979 -0.5454  1.9410
 2601TIP3   OH229437   3.293   2.033   1.685 -0.1896  0.0672  0.1533
 2601TIP3    H129438   3.209   1.992   1.707  1.2691 -2.8668  0.6154
 2601TIP3    H229439   3.287   2.048   1.590 -1.4140  0.3851  0.2614
 2602TIP3   OH229440   3.878   2.252   0.608 -0.1444  0.1453 -0.1895
 2602TIP3    H129441   3.886   2.165   0.567  1.0182  0.4148 -0.5671
 2602TIP3    H229442   3.874   2.234   0.702  0.9970 -0.2868 -0.2063
 2603TIP3   OH229443   5.363   1.574   0.574  0.1300 -0.4509 -0.3425
 2603TIP3    H129444   5.388   1.500   0.520 -1.4169 -0.3858 -1.1850
 2603TIP3    H229445   5.446   1.621   0.590  0.5729 -0.1265 -3.1503
 2604TIP3   OH229446   2.591   5.523   6.670 -0.2637  0.5733  0.8242
 2604TIP3    H129447   2.517   5.505   6.612 -0.4335 -1.2489  1.5540
 2604TIP3    H229448   2.666   5.482   6.627 -0.1211  0.4510  1.1855
 2605TIP3   OH229449   2.256   1.703   1.890 -0.0811  0.1375  0.2376
 2605TIP3    H129450   2.344   1.722   1.858  0.0336  0.8772  0.9565
 2605TIP3    H229451   2.267   1.685   1.983 -0.5638 -0.8136  0.1206
 2606TIP3   OH229452   3.271   2.292   7.353 -0.0110  0.5896  0.1031
 2606TIP3    H129453   3.249   2.305   7.445  0.0310 -1.7108  0.4817
 2606TIP3    H229454   3.188   2.297   7.307 -0.0257  1.8054  0.2244
 2607TIP3   OH229455   2.587   3.494   1.438 -0.7797 -0.0890  0.2866
 2607TIP3    H129456   2.600   3.567   1.499  0.8248 -1.3204  1.5104
 2607TIP3    H229457   2.583   3.417   1.494  0.0068 -1.1820 -1.1021
 2608TIP3   OH229458   3.381   0.002   8.305  0.2904  0.9011  0.2846
 2608TIP3    H129459   3.462  -0.034   8.270 -0.4025 -0.6435  0.1532
 2608TIP3    H229460   3.374  -0.036   8.393 -0.8579  0.0033 -0.1597
 2609TIP3   OH229461   6.849   5.718   1.100 -0.0872 -0.4690 -0.1556
 2609TIP3    H129462   6.793   5.756   1.168 -0.0091 -0.6370  0.0038
 2609TIP3    H229463   6.798   5.646   1.063 -0.5165  0.2286 -0.9403
 2610TIP3   OH229464   3.394   0.947   1.538  0.1875  0.2834 -0.0393
 2610TIP3    H129465   3.400   0.930   1.444 -0.3519 -0.0464 -0.0177
 2610TIP3    H229466   3.302   0.930   1.559  1.2861 -5.5015  1.6581
 2611TIP3   OH229467   0.620   0.179   0.375 -0.4312  0.0264 -0.3831
 2611TIP3    H129468   0.663   0.127   0.308  1.9088 -1.0199  1.7637
 2611TIP3    H229469   0.679   0.252   0.390 -1.1269  0.4702  0.2550
 2612TIP3   OH229470   3.360   3.381   1.360 -0.6576 -0.2438 -0.0915
 2612TIP3    H129471   3.420   3.420   1.423 -1.1051 -1.5841  1.2218
 2612TIP3    H229472   3.297   3.450   1.340 -0.0356  0.4473  0.3047
 2613TIP3   OH229473   6.493   3.859   0.139 -0.2016 -0.0407  0.2211
 2613TIP3    H129474   6.582   3.834   0.115 -0.6804 -0.6244 -1.0342
 2613TIP3    H229475   6.491   3.853   0.235  0.7479 -1.2579  0.1894
 2614TIP3   OH229476   1.393   3.021   8.036  0.6470  0.4438 -0.1459
 2614TIP3    H129477   1.398   3.068   7.953 -5.4816  0.5193 -0.9900
 2614TIP3    H229478   1.385   3.089   8.103 -2.1284  0.7658 -0.6591
 2615TIP3   OH229479   4.863   4.884   1.501 -0.2925  0.9749  0.1549
 2615TIP3    H129480   4.828   4.798   1.524 -0.2301  0.6692 -0.8417
 2615TIP3    H229481   4.952   4.885   1.538  0.2702  0.0080 -1.0994
 2616TIP3   OH229482   0.929   1.346   2.012 -0.1710  0.1979 -0.4013
 2616TIP3    H129483   0.906   1.416   2.073 -1.6812 -0.0219 -0.6753
 2616TIP3    H229484   1.012   1.374   1.973  0.8910  0.2860  1.7947
 2617TIP3   OH229485   5.657   1.076   7.522  0.2255  0.6084 -0.5096
 2617TIP3    H129486   5.566   1.064   7.547 -0.2799  1.0607 -1.9978
 2617TIP3    H229487   5.691   0.987   7.512  0.4398  0.4127  1.5805
 2618TIP3   OH229488   3.543   2.447   7.030 -0.1559 -0.0226 -0.1708
 2618TIP3    H129489   3.586   2.448   6.945 -1.3926  0.6251 -0.8236
 2618TIP3    H229490   3.613   2.433   7.093  1.0423  1.2457 -1.1647
 2619TIP3   OH229491   0.936   3.067   7.122 -0.0599  0.4647  0.6030
 2619TIP3    H129492   0.869   3.039   7.184 -0.5550  1.1753  0.4040
 2619TIP3    H229493   0.933   3.003   7.051 -0.6368  0.5725  0.5261
 2620TIP3   OH229494   6.225   1.340   8.048 -0.2381  0.5066  0.7404
 2620TIP3    H129495   6.303   1.363   8.098 -1.1025  0.3973  2.1983
 2620TIP3    H229496   6.196   1.256   8.084 -2.0712  1.4275  1.5762
 2621TIP3   OH229497   4.392   4.939   8.613  0.6671  0.2000 -0.0421
 2621TIP3    H129498   4.472   4.990   8.620  0.7265  0.2255 -0.8825
 2621TIP3    H229499   4.323   5.003   8.599  0.2420  0.3229  2.2376
 2622TIP3   OH229500   0.898   2.957   1.731 -0.1395  0.3174  0.6952
 2622TIP3    H129501   0.992   2.938   1.738 -0.1046  0.0160 -0.3488
 2622TIP3    H229502   0.858   2.908   1.802  0.3560 -0.6954  0.3007
 2623TIP3   OH229503   5.520   2.049   7.632  0.2771 -0.6253 -0.5362
 2623TIP3    H129504   5.592   2.010   7.583  0.7414  0.0061 -0.3736
 2623TIP3    H229505   5.508   2.135   7.593  1.3385  0.3105  1.0864
 2624TIP3   OH229506   3.522   3.489   1.556 -0.0440 -0.4275  0.3421
 2624TIP3    H129507   3.577   3.415   1.582  0.8975 -0.5968 -1.9234
 2624TIP3    H229508   3.570   3.566   1.586 -1.0171 -0.6586  2.6914
 2625TIP3   OH229509   6.355   5.203   1.589 -0.3079 -0.2341 -0.2989
 2625TIP3    H129510   6.265   5.230   1.609 -0.3181 -0.0087 -0.6296
 2625TIP3    H229511   6.383   5.154   1.666 -0.4842  0.2629  0.0922
 2626TIP3   OH229512   5.648   0.160   0.716  0.2559  0.2130 -0.0097
 2626TIP3    H129513   5.621   0.073   0.687  1.1822  0.9524 -3.5594
 2626TIP3    H229514   5.642   0.214   0.638 -2.3260  3.9713  2.4276
 2627TIP3   OH229515   5.077   4.034   7.990 -0.2455  0.0395 -0.0612
 2627TIP3    H129516   5.098   3.990   7.908 -1.3331 -0.1948 -0.2234
 2627TIP3    H229517   4.987   4.008   8.010  0.4295 -0.9788  1.9084
 2628TIP3   OH229518   5.279   0.072   1.236 -0.3207 -0.0622  0.1078
 2628TIP3    H129519   5.346   0.045   1.174 -0.0143  0.0671  0.3788
 2628TIP3    H229520   5.327   0.097   1.315 -0.5719  1.4040 -0.1640
 2629TIP3   OH229521   3.190   4.539   7.191 -0.2542  0.4313  0.2188
 2629TIP3    H129522   3.166   4.621   7.234  1.7552  0.8027  0.7484
 2629TIP3    H229523   3.117   4.520   7.133 -0.9923  2.3266  0.4584
 2630TIP3   OH229524   2.581   1.945   7.620 -0.7400  0.2908 -0.1045
 2630TIP3    H129525   2.620   1.990   7.544 -2.0520  0.4242 -0.7298
 2630TIP3    H229526   2.505   1.998   7.643 -0.3925  0.2240  1.3038
 2631TIP3   OH229527   3.839   0.109   0.759  0.0069 -0.1462 -0.6212
 2631TIP3    H129528   3.928   0.079   0.779  0.1950 -1.1098 -2.7022
 2631TIP3    H229529   3.791   0.029   0.739 -1.3990  0.3515  0.5813
 2632TIP3   OH229530   5.210   3.251   6.637 -0.1657  0.5280 -0.1250
 2632TIP3    H129531   5.219   3.316   6.567 -1.0778 -0.4298 -1.1753
 2632TIP3    H229532   5.180   3.172   6.592  0.1047 -0.3809  1.2431
 2633TIP3   OH229533   5.603   1.017   1.675  0.4146  0.5752  0.0350
 2633TIP3    H129534   5.541   1.090   1.674  0.5611  0.7267 -1.4205
 2633TIP3    H229535   5.592   0.976   1.760 -0.7884  1.3588  0.2768
 2634TIP3   OH229536   1.565   5.295   0.195 -0.3357  0.7286 -0.8504
 2634TIP3    H129537   1.537   5.285   0.104  0.6543  0.1753 -1.1047
 2634TIP3    H229538   1.656   5.325   0.190 -0.1221  0.2546 -0.0454
 2635TIP3   OH229539   3.922   4.148   8.143  0.0478 -0.4895 -0.2112
 2635TIP3    H129540   3.987   4.211   8.175  1.5612 -1.0160 -2.0845
 2635TIP3    H229541   3.952   4.064   8.179 -1.5991 -0.3214  1.7413
 2636TIP3   OH229542   1.491   0.903   0.357 -0.2692  0.3369 -0.2100
 2636TIP3    H129543   1.529   0.930   0.274  0.2664  2.0155  0.5241
 2636TIP3    H229544   1.560   0.853   0.400  0.0287  0.7982 -0.1428
 2637TIP3   OH229545   3.102   4.422   0.123  0.0362  0.1115 -0.0103
 2637TIP3    H129546   3.174   4.469   0.080 -0.6058  0.3782 -0.8216
 2637TIP3    H229547   3.052   4.491   0.166 -0.3496  0.0599 -0.3713
 2638TIP3   OH229548   4.128   3.875   1.726  0.2997 -0.1989  0.1584
 2638TIP3    H129549   4.133   3.970   1.716  2.3361 -0.5331 -3.5447
 2638TIP3    H229550   4.034   3.857   1.734 -0.1733  2.0650  0.2506
 2639TIP3   OH229551   0.603   0.473   8.361  0.1621 -0.2106  0.1970
 2639TIP3    H129552   0.655   0.543   8.322  0.8840  0.2842  1.9592
 2639TIP3    H229553   0.551   0.515   8.429 -0.9696 -1.0553 -0.1219
 2640TIP3   OH229554   6.167   1.852   7.328 -0.0681 -0.1870 -0.0884
 2640TIP3    H129555   6.150   1.945   7.316  0.3927 -0.2131 -0.9977
 2640TIP3    H229556   6.081   1.811   7.320 -0.2192  0.1220 -0.0569
 2641TIP3   OH229557   5.884   5.696   0.803 -0.4004  0.1349 -0.5637
 2641TIP3    H129558   5.818   5.637   0.767 -0.0969 -0.3857 -0.2807
 2641TIP3    H229559   5.838   5.745   0.871 -1.1106  1.4806 -1.9451
 2642TIP3   OH229560   0.712   2.742   7.916  0.3290  0.0564 -0.2637
 2642TIP3    H129561   0.738   2.816   7.971 -0.0965  0.6698 -0.8603
 2642TIP3    H229562   0.694   2.782   7.830  0.2724 -0.7678 -0.6436
 2643TIP3   OH229563   0.158   6.316   0.469  0.3963 -0.3370 -0.3096
 2643TIP3    H129564   0.169   6.251   0.538 -2.2382  0.7808  1.3194
 2643TIP3    H229565   0.067   6.306   0.441 -0.3201  2.9117  0.4163
 2644TIP3   OH229566   4.462   3.379   0.274  0.0568 -0.2079  0.2884
 2644TIP3    H129567   4.421   3.385   0.360 -1.3846  1.8032 -0.4754
 2644TIP3    H229568   4.427   3.298   0.236 -0.0057 -0.6247  1.2148
 2645TIP3   OH229569   4.355   0.983   2.137 -0.3355  0.3627  0.4591
 2645TIP3    H129570   4.290   1.044   2.173 -0.4626  0.3920  0.1850
 2645TIP3    H229571   4.436   1.006   2.182 -0.2903  1.0149  0.0634
 2646TIP3   OH229572   3.551   5.431   0.101 -0.2105  0.7291 -0.6225
 2646TIP3    H129573   3.539   5.365   0.033 -2.5384 -0.4329  0.7615
 2646TIP3    H229574   3.645   5.435   0.115  0.0312 -3.4682  0.2261
 2647TIP3   OH229575   5.057   3.015   6.600  0.5825  0.4340 -0.1146
 2647TIP3    H129576   5.083   2.960   6.526 -0.6795 -1.0815  0.5032
 2647TIP3    H229577   5.066   2.957   6.676 -0.5573  1.1689  0.5930
 2648TIP3   OH229578   4.508   3.320   0.558 -0.0880  0.1909  0.3057
 2648TIP3    H129579   4.543   3.334   0.646 -0.9793 -1.8623  1.0278
 2648TIP3    H229580   4.518   3.227   0.541  1.7169  0.7440 -2.5580
 2649TIP3   OH229581   5.790   2.608   1.350  0.3222 -0.6551  0.6513
 2649TIP3    H129582   5.739   2.528   1.365 -0.0899 -0.6070 -0.3972
 2649TIP3    H229583   5.725   2.674   1.326  0.8003 -0.4066 -0.0008
 2650TIP3   OH229584   4.219   6.434   8.269  0.1889 -0.5996  0.2328
 2650TIP3    H129585   4.177   6.351   8.245  1.4448 -0.9665 -0.8223
 2650TIP3    H229586   4.147   6.498   8.268 -0.3950 -1.2042 -1.5221
 2651TIP3   OH229587   5.561   6.705   7.348  0.0817  0.4368  0.0315
 2651TIP3    H129588   5.564   6.788   7.394 -0.3760 -0.0175  0.9176
 2651TIP3    H229589   5.531   6.642   7.414  2.4243 -0.8434 -0.0146
 2652TIP3   OH229590   6.264   1.145   6.427 -0.4530 -0.4407 -0.3458
 2652TIP3    H129591   6.237   1.236   6.414  0.0190 -0.3748 -0.8965
 2652TIP3    H229592   6.182   1.098   6.445 -0.4431  0.6828  3.7941
 2653TIP3   OH229593   0.293   4.573   1.467 -0.1317  0.0490  0.0975
 2653TIP3    H129594   0.247   4.588   1.384 -0.2609 -1.1895 -0.0641
 2653TIP3    H229595   0.239   4.616   1.533 -0.9203 -0.4105 -0.2415
 2654TIP3   OH229596   2.947   0.389   6.949  0.6373 -0.0248 -0.1061
 2654TIP3    H129597   2.962   0.296   6.964 -0.3924 -0.4792 -1.6371
 2654TIP3    H229598   2.883   0.415   7.015 -1.4616 -1.2031 -1.5639
 2655TIP3   OH229599   3.646   2.931   1.365  0.2739 -0.7839 -0.3843
 2655TIP3    H129600   3.716   2.947   1.428  0.8657 -1.6322 -0.8114
 2655TIP3    H229601   3.689   2.889   1.290 -0.4639 -0.0890 -1.2309
 2656TIP3   OH229602   0.988   3.876   8.552  0.3670  0.2883 -0.2278
 2656TIP3    H129603   1.041   3.827   8.490  0.9693  0.7681 -0.0948
 2656TIP3    H229604   1.002   3.968   8.530 -0.2529  0.4279 -0.0666
 2657TIP3   OH229605   3.805   5.291   0.410 -0.0675 -0.4021 -0.4964
 2657TIP3    H129606   3.788   5.292   0.504  1.0223  3.6265 -0.1602
 2657TIP3    H229607   3.751   5.362   0.375  1.0540 -0.4712 -2.5379
 2658TIP3   OH229608   2.332   6.013   7.794  0.1231 -0.2198 -0.3140
 2658TIP3    H129609   2.324   6.085   7.731 -1.3750 -0.9778 -1.0317
 2658TIP3    H229610   2.245   6.006   7.834  0.0319 -2.0047 -0.7173
 2659TIP3   OH229611   0.957   0.216   6.760  0.3676  0.8048 -0.3116
 2659TIP3    H129612   0.951   0.257   6.673 -0.1545  2.2852  0.3978
 2659TIP3    H229613   0.990   0.127   6.742  2.9645  1.9472 -1.7858
 2660TIP3   OH229614   4.374   6.648   0.757 -0.2276  0.1706 -0.1304
 2660TIP3    H129615   4.320   6.575   0.785  0.1856 -0.1127 -0.0569
 2660TIP3    H229616   4.463   6.612   0.753 -0.0241  0.6606 -0.1180
 2661TIP3   OH229617   4.061   5.660   2.248  0.4116  0.2003  0.4343
 2661TIP3    H129618   4.143   5.612   2.231 -0.3297 -0.9413 -0.0439
 2661TIP3    H229619   3.994   5.609   2.204 -0.8558  0.0409  2.4125
 2662TIP3   OH229620   0.551   2.468   6.833  0.0011 -0.3884 -0.7303
 2662TIP3    H129621   0.620   2.532   6.814 -0.5566  0.1131 -1.1121
 2662TIP3    H229622   0.595   2.383   6.830  0.7064 -0.0366 -0.4530
 2663TIP3   OH229623   2.087   4.820   1.022 -0.1326 -0.2703  0.1256
 2663TIP3    H129624   2.171   4.865   1.023  0.1545 -0.7950  0.1968
 2663TIP3    H229625   2.104   4.739   0.973 -0.6182 -0.3346  0.0599
 2664TIP3   OH229626   3.631   6.499   6.213 -0.0944  0.1691 -0.1109
 2664TIP3    H129627   3.623   6.404   6.208 -0.7072  0.2015  0.1537
 2664TIP3    H229628   3.649   6.517   6.306  0.9209  0.2584 -0.3112
 2665TIP3   OH229629   6.586   3.510   7.024 -0.9967  0.1225 -0.4752
 2665TIP3    H129630   6.578   3.415   7.027 -0.5018  0.0840  0.0058
 2665TIP3    H229631   6.642   3.531   7.099 -0.8475  0.7625 -0.7560
 2666TIP3   OH229632   2.433   6.301   0.821  0.2785  0.6550 -0.1342
 2666TIP3    H129633   2.389   6.319   0.904 -1.9134  2.8489 -1.6362
 2666TIP3    H229634   2.482   6.220   0.837 -2.6902 -0.8488  2.3382
 2667TIP3   OH229635   0.919   4.151   7.214 -1.1190  0.7089 -0.0892
 2667TIP3    H129636   0.830   4.143   7.180 -1.2327  2.7288 -0.3665
 2667TIP3    H229637   0.975   4.141   7.137 -1.1069  0.0702 -0.0091
 2668TIP3   OH229638   2.094   3.166   6.853 -0.4114 -0.1156 -0.2795
 2668TIP3    H129639   2.115   3.141   6.764 -0.0875 -1.5019  0.1659
 2668TIP3    H229640   2.173   3.210   6.885 -0.8233  1.1429 -0.9177
 2669TIP3   OH229641   0.348   2.013   7.545 -0.4401  0.3183  0.0895
 2669TIP3    H129642   0.278   2.069   7.511 -0.0364 -0.1427 -1.5652
 2669TIP3    H229643   0.309   1.925   7.547 -0.0034  0.1043 -0.5940
 2670TIP3   OH229644   2.060   3.740   7.759  0.4499  0.0605  0.5317
 2670TIP3    H129645   2.012   3.799   7.701 -1.5212 -0.0861  1.9139
 2670TIP3    H229646   2.116   3.799   7.811  0.2069  0.4721  0.3339
 2671TIP3   OH229647   4.120   0.692   7.070 -0.4188  0.1586  0.2035
 2671TIP3    H129648   4.056   0.689   6.999 -0.4724  1.9578  0.1352
 2671TIP3    H229649   4.123   0.602   7.103 -1.2883 -0.4465 -1.2678
 2672TIP3   OH229650   2.010   5.829   7.819 -0.0567 -0.3796  0.0142
 2672TIP3    H129651   2.037   5.758   7.761  0.1539  0.6836 -1.2631
 2672TIP3    H229652   2.090   5.851   7.868  0.6341  0.6783 -1.4946
 2673TIP3   OH229653   4.518   1.091   0.814 -0.0637 -0.3783 -0.0324
 2673TIP3    H129654   4.449   1.036   0.778 -0.9440 -0.9048  2.2623
 2673TIP3    H229655   4.492   1.180   0.793 -0.6009 -0.6480 -0.5348
 2674TIP3   OH229656   4.568   5.219   8.560 -0.2392 -0.4727 -0.8538
 2674TIP3    H129657   4.590   5.212   8.467 -1.6316  0.6454 -1.2920
 2674TIP3    H229658   4.575   5.312   8.579  0.1263 -0.6991  0.2179
 2675TIP3   OH229659   1.597   0.499   7.176  0.2887  0.2048  0.7988
 2675TIP3    H129660   1.579   0.584   7.136 -0.7741  0.1262  1.0719
 2675TIP3    H229661   1.681   0.472   7.139 -0.5524  0.2101 -1.2604
 2676TIP3   OH229662   6.829   4.705   7.959  0.1260 -0.4794  0.0719
 2676TIP3    H129663   6.760   4.671   7.902  0.5374 -2.8073  0.8325
 2676TIP3    H229664   6.858   4.628   8.009  2.7103  0.5869  0.3514
 2677TIP3   OH229665   2.088   6.169   7.755 -0.5772 -0.1881 -0.4903
 2677TIP3    H129666   2.029   6.206   7.820 -0.9346 -1.8867  0.1928
 2677TIP3    H229667   2.092   6.235   7.686 -3.7280 -0.2337 -0.8552
 2678TIP3   OH229668   5.069   5.237   7.779 -0.1087 -0.3904 -0.1654
 2678TIP3    H129669   5.083   5.238   7.684 -0.0418  0.2872 -0.1517
 2678TIP3    H229670   4.991   5.183   7.791  0.2342 -0.9808 -0.5555
 2679TIP3   OH229671   5.927   0.631   0.174  0.6017 -0.8685 -0.0156
 2679TIP3    H129672   6.022   0.619   0.165  0.3843 -1.7340 -1.4782
 2679TIP3    H229673   5.914   0.646   0.268  2.1881 -0.6409  0.2069
 2680TIP3   OH229674   1.739   3.746   0.224  0.0550 -0.2325 -0.6299
 2680TIP3    H129675   1.688   3.769   0.146  0.0072  0.4536 -0.3960
 2680TIP3    H229676   1.797   3.820   0.238 -0.0486 -0.2822  0.0803
 2681TIP3   OH229677   6.060   2.458   2.000  0.1848  0.4262  0.4583
 2681TIP3    H129678   6.070   2.365   1.981 -0.2844  0.3039  0.8087
 2681TIP3    H229679   6.052   2.463   2.095  0.4397  0.8493  0.4623
 2682TIP3   OH229680   4.054   0.718   7.522 -0.1543  0.2379  0.2211
 2682TIP3    H129681   4.092   0.741   7.606  1.0282  2.9589 -0.9613
 2682TIP3    H229682   4.118   0.748   7.457 -1.0620 -1.6783 -1.7044
 2683TIP3   OH229683   4.152   0.464   1.013 -0.3710 -0.0143 -0.2119
 2683TIP3    H129684   4.192   0.485   0.928  0.1588 -1.8060 -0.4510
 2683TIP3    H229685   4.226   0.437   1.068 -0.9376 -0.7408  0.2032
 2684TIP3   OH229686   1.894   0.428   2.158 -0.0080  0.2101 -0.3498
 2684TIP3    H129687   1.977   0.475   2.170 -0.7817  1.2743  1.2270
 2684TIP3    H229688   1.827   0.497   2.163 -1.3491 -1.0650  3.9241
 2685TIP3   OH229689   5.642   6.727   1.519  0.4102  0.1568 -0.3168
 2685TIP3    H129690   5.733   6.757   1.529  0.7994  0.0924 -2.9237
 2685TIP3    H229691   5.595   6.805   1.488  0.2730 -0.5312 -1.9314
 2686TIP3   OH229692   5.965   0.619   1.016  0.0643  0.5232  0.6941
 2686TIP3    H129693   5.985   0.692   0.957 -0.3141  3.3204  3.7109
 2686TIP3    H229694   6.050   0.591   1.050  0.2472 -0.8256 -0.7673
 2687TIP3   OH229695   5.112   3.012   0.244 -0.2628 -0.1736  0.2066
 2687TIP3    H129696   5.131   3.106   0.251 -0.8022 -0.1310  1.3214
 2687TIP3    H229697   5.133   2.977   0.331  1.5297 -1.4133 -0.6646
 2688TIP3   OH229698   2.936   0.117   0.958  0.4093 -0.2853 -0.1453
 2688TIP3    H129699   2.950   0.138   1.051 -0.1352 -0.7634  0.0538
 2688TIP3    H229700   2.893   0.194   0.922  0.6249 -0.0960 -0.0050
 2689TIP3   OH229701   3.060   4.790   0.658 -0.6510  0.4706 -0.0328
 2689TIP3    H129702   3.049   4.791   0.753  1.1319  2.2206  0.2067
 2689TIP3    H229703   3.135   4.732   0.643  0.3239  1.7194 -0.1585
 2690TIP3   OH229704   3.659   2.524   0.886 -0.1095  0.4538  0.4402
 2690TIP3    H129705   3.661   2.459   0.957  1.6410 -1.8126 -1.5000
 2690TIP3    H229706   3.567   2.527   0.860 -0.1914 -1.6999  0.2955
 2691TIP3   OH229707   6.539   0.089   7.340  0.1796  0.1752 -0.0489
 2691TIP3    H129708   6.468   0.026   7.327 -0.0876  0.2583  0.9183
 2691TIP3    H229709   6.617   0.045   7.306 -0.2812 -0.0198 -0.8816
 2692TIP3   OH229710   2.400   4.991   8.082  0.3934  0.2713  0.4437
 2692TIP3    H129711   2.424   5.059   8.145  0.4468 -1.2491  2.1336
 2692TIP3    H229712   2.372   5.040   8.004  1.3628  2.1966  1.2339
 2693TIP3   OH229713   4.294   5.039   7.445 -0.0791 -0.0779  0.3707
 2693TIP3    H129714   4.265   4.958   7.488 -0.0495 -0.2934 -0.0135
 2693TIP3    H229715   4.243   5.108   7.487 -2.5677 -0.6174 -1.5095
 2694TIP3   OH229716   1.137   1.980   6.987  0.0721  0.0637  0.2733
 2694TIP3    H129717   1.053   2.009   7.022 -0.7399  1.9056 -2.7570
 2694TIP3    H229718   1.114   1.930   6.908  1.7848 -0.2252 -0.0826
 2695TIP3   OH229719   6.612   6.335   0.607 -0.0048 -0.5302  0.2278
 2695TIP3    H129720   6.620   6.260   0.667 -1.2559 -1.5518 -0.8223
 2695TIP3    H229721   6.525   6.371   0.625  0.1432 -0.0183 -0.0632
 2696TIP3   OH229722   4.190   6.897   0.352 -0.2809  0.0351 -0.2510
 2696TIP3    H129723   4.111   6.951   0.360  0.4200  1.0876 -0.1717
 2696TIP3    H229724   4.173   6.821   0.407 -0.9759  0.5763  0.3079
 2697TIP3   OH229725   4.014   6.045   0.807 -0.4310 -0.1039 -0.0232
 2697TIP3    H129726   3.938   6.094   0.774  0.0436  0.2627 -0.6036
 2697TIP3    H229727   3.976   5.974   0.859 -1.2916 -1.3062 -2.1547
 2698TIP3   OH229728   3.188   2.161   6.164  0.5281 -0.6775 -0.0638
 2698TIP3    H129729   3.247   2.176   6.090 -0.5449  0.8172 -0.6664
 2698TIP3    H229730   3.225   2.085   6.209  2.1544 -0.5861 -1.1619
 2699TIP3   OH229731   1.239   2.079   6.667  0.0588  0.0060  0.7670
 2699TIP3    H129732   1.312   2.018   6.661 -0.3526 -0.4257 -0.0286
 2699TIP3    H229733   1.168   2.028   6.705  0.2909  0.5548  1.9900
 2700TIP3   OH229734   5.048   2.376   7.516 -0.9954 -0.0793  0.0572
 2700TIP3    H129735   5.053   2.310   7.585 -2.7770 -1.5173 -1.0664
 2700TIP3    H229736   5.129   2.365   7.467 -0.6559 -0.5051  0.7032
 2701TIP3   OH229737   1.858   6.047   6.958 -0.0093 -0.0288 -0.4851
 2701TIP3    H129738   1.942   6.062   6.916  1.5494  0.4131  2.4820
 2701TIP3    H229739   1.868   6.086   7.045 -3.6397  0.8633 -0.3151
 2702TIP3   OH229740   1.974   6.201   0.927 -0.4962 -0.6444 -0.5223
 2702TIP3    H129741   1.896   6.256   0.938 -0.2721 -0.2685 -0.8300
 2702TIP3    H229742   1.946   6.132   0.866 -1.0312 -1.3740  0.5102
 2703TIP3   OH229743   1.379   6.705   0.762 -0.2035  0.1429 -0.1149
 2703TIP3    H129744   1.372   6.632   0.823 -0.1653  0.5324  0.3556
 2703TIP3    H229745   1.372   6.664   0.675 -0.4882 -0.3821  0.1501
 2704TIP3   OH229746   6.368   2.098   0.221 -0.3472  0.2360 -0.3092
 2704TIP3    H129747   6.354   2.081   0.314 -1.0621 -1.7422 -0.7141
 2704TIP3    H229748   6.283   2.082   0.180  0.3271 -0.6005 -1.4699
 2705TIP3   OH229749   3.055   5.748   1.933  0.2975  0.2849 -0.1891
 2705TIP3    H129750   3.026   5.767   2.023 -0.9397 -1.0841 -0.2727
 2705TIP3    H229751   3.147   5.775   1.932 -0.0263  1.5786  1.0868
 2706TIP3   OH229752   4.618   5.594   1.664  0.0588 -0.3898 -0.0572
 2706TIP3    H129753   4.572   5.559   1.741 -1.3485  0.5102 -0.4625
 2706TIP3    H229754   4.571   5.558   1.589 -0.2992  0.9278 -0.4870
 2707TIP3   OH229755   0.405   2.210   6.480 -0.4534  0.0895 -0.0965
 2707TIP3    H129756   0.454   2.207   6.397  0.4875 -1.2615  0.4636
 2707TIP3    H229757   0.382   2.118   6.497 -1.2342  0.4409  0.7950
 2708TIP3   OH229758   0.059   3.779   7.254  0.0539  0.2398 -0.0491
 2708TIP3    H129759   0.071   3.719   7.328 -1.9324 -1.0361 -0.6890
 2708TIP3    H229760   0.036   3.722   7.180  1.5445  1.5148 -1.5893
 2709TIP3   OH229761   6.237   6.094   0.714  0.0977 -0.4747 -0.3623
 2709TIP3    H129762   6.249   6.033   0.641 -0.5203  0.0605 -0.9245
 2709TIP3    H229763   6.188   6.044   0.779  0.9935 -1.0835 -0.1268
 2710TIP3   OH229764   3.914   3.547   8.256  0.9704 -0.1399 -0.0635
 2710TIP3    H129765   3.852   3.510   8.320  1.9153 -0.0318  0.9481
 2710TIP3    H229766   3.924   3.479   8.190 -0.3085 -0.1115 -0.3200
 2711TIP3   OH229767   6.092   4.755   1.084  0.3113  0.2428 -0.1128
 2711TIP3    H129768   6.067   4.778   1.173  2.4154  0.1591  0.5497
 2711TIP3    H229769   6.173   4.803   1.068 -0.2221  0.5609 -2.1457
 2712TIP3   OH229770   4.662   1.426   8.207 -0.7058  0.5885 -0.5553
 2712TIP3    H129771   4.712   1.498   8.244 -0.3652  1.0009 -1.7715
 2712TIP3    H229772   4.725   1.378   8.153 -1.5345  0.9664 -1.9102
 2713TIP3   OH229773   6.162   6.168   7.966 -0.4282 -0.5680 -0.0882
 2713TIP3    H129774   6.106   6.207   8.033 -1.1134  3.1503 -2.5756
 2713TIP3    H229775   6.101   6.122   7.908 -0.1391 -1.5608  0.3741
 2714TIP3   OH229776   2.983   5.562   0.349 -0.1424  0.1086  0.1019
 2714TIP3    H129777   3.032   5.614   0.286  0.6428 -0.3086  0.3534
 2714TIP3    H229778   2.952   5.487   0.298  1.9160 -1.1106  0.5261
 2715TIP3   OH229779   6.398   1.872   8.271  0.2537 -0.1653 -0.4546
 2715TIP3    H129780   6.439   1.941   8.219  0.1240  0.9933  0.9234
 2715TIP3    H229781   6.352   1.918   8.341  0.3263 -1.6516  0.6246
 2716TIP3   OH229782   0.777   4.180   6.648  0.0054 -0.3505 -0.3828
 2716TIP3    H129783   0.710   4.219   6.593 -1.0603 -2.0717 -0.3564
 2716TIP3    H229784   0.820   4.115   6.592  2.5917  1.5672 -0.8208
 2717TIP3   OH229785   3.283   1.917   8.607  0.0752  0.5539  0.2893
 2717TIP3    H129786   3.225   1.906   8.683  1.9808  2.1917  2.1024
 2717TIP3    H229787   3.243   1.988   8.557 -0.9258 -0.1939 -0.0078
 2718TIP3   OH229788   2.574   6.610   0.235  0.5285 -1.1410  0.4050
 2718TIP3    H129789   2.531   6.692   0.259  0.9811 -1.0045  0.7761
 2718TIP3    H229790   2.667   6.627   0.250  0.8301 -1.0871 -1.3617
 2719TIP3   OH229791   3.895   3.343   7.860 -0.1330  0.3485  0.0215
 2719TIP3    H129792   3.888   3.432   7.826  0.1045  0.4792  0.3077
 2719TIP3    H229793   3.840   3.343   7.938 -0.3011  0.1835 -0.0967
 2720TIP3   OH229794   2.798   2.782   0.495 -0.4096  0.3728  0.1890
 2720TIP3    H129795   2.733   2.711   0.494 -0.2349  0.2145 -0.1358
 2720TIP3    H229796   2.780   2.830   0.576  0.8790 -1.3636  1.6100
 2721TIP3   OH229797   0.896   3.945   7.428  0.2507 -0.2289 -0.1770
 2721TIP3    H129798   0.908   4.004   7.353 -0.1786  0.5279  0.3377
 2721TIP3    H229799   0.879   4.003   7.502  0.6124 -0.9705  0.5034
 2722TIP3   OH229800   5.598   0.776   7.464 -0.4684 -0.2636 -0.0896
 2722TIP3    H129801   5.693   0.776   7.465 -0.4494  0.5903 -0.7706
 2722TIP3    H229802   5.573   0.694   7.507  0.5986 -1.9945 -2.5535
 2723TIP3   OH229803   2.167   6.404   8.330 -0.8137 -0.7866 -0.2918
 2723TIP3    H129804   2.209   6.319   8.320 -1.3981 -0.8662 -2.7827
 2723TIP3    H229805   2.103   6.392   8.401  0.8095 -1.6607  1.0763
 2724TIP3   OH229806   2.897   0.820   7.239  0.1914  0.1899 -0.1752
 2724TIP3    H129807   2.885   0.816   7.334 -0.0642  0.4661 -0.1938
 2724TIP3    H229808   2.933   0.735   7.216  0.7192  0.2986  0.2338
 2725TIP3   OH229809   2.639   0.000   0.086  0.0771 -0.4784  0.2993
 2725TIP3    H129810   2.562  -0.035   0.132  1.1750 -2.1736  0.9294
 2725TIP3    H229811   2.676   0.063   0.148  1.5646 -2.7685  1.9066
 2726TIP3   OH229812   3.015   0.641   8.563 -0.1872 -0.0213  0.0550
 2726TIP3    H129813   2.933   0.612   8.603  0.1846 -2.1823 -0.6498
 2726TIP3    H229814   2.989   0.676   8.478 -0.5891  1.3401  0.7133
 2727TIP3   OH229815   4.134   6.705   1.468  0.1704 -0.5001  0.1497
 2727TIP3    H129816   4.157   6.741   1.382 -0.2426  0.4396  0.4152
 2727TIP3    H229817   4.039   6.694   1.464  0.4223 -2.9057 -0.4018
 2728TIP3   OH229818   1.702   3.953   7.104 -0.1534  1.2243  0.0281
 2728TIP3    H129819   1.755   4.032   7.115  1.4359  0.6184 -2.5161
 2728TIP3    H229820   1.739   3.891   7.166  1.8713  1.0004 -1.3060
 2729TIP3   OH229821   3.644   4.756   6.059  0.2628 -0.1018  0.1527
 2729TIP3    H129822   3.702   4.832   6.063 -1.0765  0.9504  0.3044
 2729TIP3    H229823   3.577   4.780   5.995 -0.5303 -0.9085  0.6562
 2730TIP3   OH229824   3.824   5.609   6.445  0.0788  0.7313 -0.0168
 2730TIP3    H129825   3.770   5.605   6.367  0.8200  4.2190 -0.8535
 2730TIP3    H229826   3.898   5.551   6.426 -0.3160  0.6565 -1.4032
 2731TIP3   OH229827   1.477   4.458   0.666  0.0829  0.1511 -0.4477
 2731TIP3    H129828   1.476   4.553   0.683 -1.4911 -0.2401  2.1337
 2731TIP3    H229829   1.559   4.428   0.704 -0.9045  0.0946  1.8152
 2732TIP3   OH229830   6.480   0.440   1.248 -0.0129  0.3450  0.1761
 2732TIP3    H129831   6.412   0.417   1.311 -1.3256  1.5774 -0.7325
 2732TIP3    H229832   6.554   0.383   1.271 -0.8537 -0.0867  2.0452
 2733TIP3   OH229833   2.661   4.307   2.228  0.1552 -0.9661  0.0197
 2733TIP3    H129834   2.749   4.288   2.259  0.3973 -1.1597 -0.7608
 2733TIP3    H229835   2.639   4.392   2.265  0.8985 -0.6533 -0.2430
 2734TIP3   OH229836   1.768   2.492   1.027  0.8369 -0.0968  0.2076
 2734TIP3    H129837   1.733   2.505   1.115  3.1435 -0.4258  1.2698
 2734TIP3    H229838   1.723   2.415   0.994 -1.2271  0.9700  0.4237
 2735TIP3   OH229839   2.734   4.342   8.354 -0.5223  0.0528 -0.2604
 2735TIP3    H129840   2.721   4.362   8.447  0.3396 -0.7099  0.0448
 2735TIP3    H229841   2.646   4.343   8.317 -0.7955  1.4295  0.3240
 2736TIP3   OH229842   2.865   4.670   8.152 -0.0501 -0.6646 -0.2225
 2736TIP3    H129843   2.798   4.617   8.110 -0.1809 -1.9264  1.4800
 2736TIP3    H229844   2.947   4.642   8.111 -0.3443 -0.5684 -0.8888
 2737TIP3   OH229845   5.703   3.875   8.325 -0.2525  0.8285  0.4491
 2737TIP3    H129846   5.726   3.968   8.333  1.7768  0.5469 -1.2390
 2737TIP3    H229847   5.785   3.829   8.340 -1.0778 -0.6799  0.5099
 2738TIP3   OH229848   4.198   2.904   7.909  0.5107  0.0999  0.5410
 2738TIP3    H129849   4.237   2.883   7.825  0.7674  2.0478  0.1260
 2738TIP3    H229850   4.104   2.912   7.891  0.3098 -1.2930  0.8524
 2739TIP3   OH229851   0.221   1.692   0.581  0.4560 -0.1506 -0.1835
 2739TIP3    H129852   0.146   1.634   0.582 -0.4860  1.0188 -0.7296
 2739TIP3    H229853   0.219   1.736   0.667  1.9000 -1.7587  0.7536
 2740TIP3   OH229854   5.071   6.251   8.052  0.0155  0.0401 -0.1006
 2740TIP3    H129855   5.009   6.183   8.024 -0.0016 -0.1967  0.4969
 2740TIP3    H229856   5.052   6.264   8.145  0.4756  0.3829 -0.0503
 2741TIP3   OH229857   3.838   4.356   7.696 -0.1550  0.3808  0.9047
 2741TIP3    H129858   3.894   4.313   7.760  0.0027 -0.7265  0.0475
 2741TIP3    H229859   3.750   4.348   7.731 -0.2076 -1.2571  0.4433
 2742TIP3   OH229860   0.519   6.126   7.446 -0.3330 -0.6995 -0.5371
 2742TIP3    H129861   0.441   6.137   7.500 -0.3517 -0.8830 -0.5260
 2742TIP3    H229862   0.501   6.048   7.393 -0.8122  0.1568 -1.6775
 2743TIP3   OH229863   2.604   2.417   8.496 -0.5736  0.0520 -0.4642
 2743TIP3    H129864   2.534   2.401   8.434 -0.2361  1.6677 -1.3254
 2743TIP3    H229865   2.613   2.335   8.545 -0.9371 -1.2075 -2.4300
 2744TIP3   OH229866   2.408   4.657   7.477 -0.2227  0.0894 -0.2517
 2744TIP3    H129867   2.500   4.651   7.504 -0.1289 -1.5353 -0.7757
 2744TIP3    H229868   2.364   4.701   7.549  1.0460  1.4087 -0.2274
 2745TIP3   OH229869   3.951   3.432   7.575 -0.5067  0.2345  0.0183
 2745TIP3    H129870   3.891   3.368   7.613 -0.6269 -1.1423 -2.3161
 2745TIP3    H229871   4.038   3.400   7.598 -0.5742  0.9979  1.4810
 2746TIP3   OH229872   0.680   2.780   0.282  0.0953 -0.2112  0.4054
 2746TIP3    H129873   0.698   2.688   0.263 -0.1055 -0.2768  0.5211
 2746TIP3    H229874   0.647   2.780   0.372  2.7887  0.3086  1.4818
 2747TIP3   OH229875   5.864   3.754   0.608 -0.2123  0.6378  0.1660
 2747TIP3    H129876   5.950   3.754   0.649 -0.7931  1.1628  1.4333
 2747TIP3    H229877   5.814   3.687   0.655 -0.3580 -0.0144 -0.8865
 2748TIP3   OH229878   0.909   1.065   1.485 -0.1280 -0.6096 -0.3544
 2748TIP3    H129879   0.832   1.007   1.484 -0.2249 -0.4957 -1.8444
 2748TIP3    H229880   0.971   1.022   1.426  0.7659 -0.4373  0.4494
 2749TIP3   OH229881   2.628   4.791   1.216  0.1349 -0.1779  0.1073
 2749TIP3    H129882   2.664   4.879   1.206  0.7100 -0.2556  1.3473
 2749TIP3    H229883   2.544   4.804   1.261 -0.1160 -0.2175 -0.3412
 2750TIP3   OH229884   4.352   2.591   7.542 -0.2235 -0.2280  0.2957
 2750TIP3    H129885   4.312   2.636   7.468 -1.4701 -1.1582  0.3862
 2750TIP3    H229886   4.357   2.658   7.611  1.4521  0.7973 -0.7468
 2751TIP3   OH229887   2.370   6.057   0.356  0.0355  0.4170  0.3756
 2751TIP3    H129888   2.346   6.128   0.415 -0.7820 -0.5186  1.2064
 2751TIP3    H229889   2.289   6.034   0.311  0.5607  0.8355 -0.8415
 2752TIP3   OH229890   2.801   4.213   8.633  0.3896  0.1828  0.1090
 2752TIP3    H129891   2.742   4.140   8.651  1.2647 -0.8358 -1.0230
 2752TIP3    H229892   2.770   4.283   8.691 -2.0405 -0.2297 -0.5563
 2753TIP3   OH229893   4.708   5.278   6.263  0.6819  0.1657 -0.1020
 2753TIP3    H129894   4.646   5.216   6.225  0.9657 -0.5903  0.6084
 2753TIP3    H229895   4.678   5.290   6.353  2.9168 -2.2307  1.1082
 2754TIP3   OH229896   0.922   2.192   0.342  0.4852  0.0728  0.0031
 2754TIP3    H129897   0.907   2.287   0.343  0.5688  0.0906 -0.2378
 2754TIP3    H229898   0.839   2.154   0.371 -0.0293  0.1739 -1.2422
 2755TIP3   OH229899   6.564   3.772   8.109 -0.4879 -0.8837 -0.7283
 2755TIP3    H129900   6.612   3.752   8.189 -1.4089  3.1843  1.1121
 2755TIP3    H229901   6.472   3.760   8.133 -0.9583  2.7958 -0.1037
 2756TIP3   OH229902   6.838   5.764   8.149 -0.0781  0.4315 -0.1365
 2756TIP3    H129903   6.874   5.851   8.134  0.8157  0.0308 -0.3609
 2756TIP3    H229904   6.890   5.728   8.220  2.4335 -1.4959 -2.7440
 2757TIP3   OH229905   4.350   3.549   1.420 -0.1771 -0.1745 -0.8652
 2757TIP3    H129906   4.286   3.601   1.372 -0.1351  1.3015  0.5823
 2757TIP3    H229907   4.421   3.611   1.439  1.0007 -1.3932 -1.1529
 2758TIP3   OH229908   1.368   0.220   1.405 -0.4895 -0.0804  0.1871
 2758TIP3    H129909   1.302   0.260   1.463  0.9308  2.9842 -0.1082
 2758TIP3    H229910   1.336   0.240   1.317 -0.7301 -1.4057 -0.0405
 2759TIP3   OH229911   1.925   6.115   6.050  0.0789 -0.1675 -0.1021
 2759TIP3    H129912   1.961   6.109   5.962  0.7257 -0.0504  0.1454
 2759TIP3    H229913   1.998   6.147   6.103 -1.0393  2.4799 -0.0085
 2760TIP3   OH229914   5.465   2.283   8.259 -0.3473 -0.1915  0.3097
 2760TIP3    H129915   5.399   2.350   8.276  0.1836  0.5404 -0.3825
 2760TIP3    H229916   5.549   2.328   8.270  0.0400 -0.1031 -2.2719
 2761TIP3   OH229917   3.039   0.123   7.920  0.3131 -0.8332 -0.4189
 2761TIP3    H129918   2.963   0.065   7.918  1.0771 -1.9651  1.0526
 2761TIP3    H229919   3.052   0.142   8.013  1.2546  0.1347 -0.7292
 2762TIP3   OH229920   0.512   3.088   2.318  0.4935 -0.3649 -0.0732
 2762TIP3    H129921   0.584   3.042   2.361 -0.1402 -1.4020 -0.0918
 2762TIP3    H229922   0.554   3.139   2.248  1.2507 -0.5983  0.2018
 2763TIP3   OH229923   0.797   4.595   6.717  0.0064 -0.4712  0.3074
 2763TIP3    H129924   0.816   4.613   6.624  0.5562  0.9603  0.6669
 2763TIP3    H229925   0.869   4.538   6.745  1.1944  1.0100  0.4226
 2764TIP3   OH229926   3.287   6.404   1.365  0.3162  0.2764  0.1901
 2764TIP3    H129927   3.308   6.320   1.325  0.6231 -0.5113  1.9036
 2764TIP3    H229928   3.195   6.395   1.392 -0.8896  1.9093 -2.8894
 2765TIP3   OH229929   6.501   1.373   7.770  0.2421  0.0612  0.3825
 2765TIP3    H129930   6.426   1.318   7.746 -0.5384  1.2549 -0.0462
 2765TIP3    H229931   6.569   1.311   7.795 -0.2810 -1.1324 -0.9743
 2766TIP3   OH229932   2.004   6.375   1.802 -0.0884  0.5482 -0.2593
 2766TIP3    H129933   1.991   6.322   1.723 -3.8476 -1.3349  1.3160
 2766TIP3    H229934   2.093   6.356   1.829 -0.1297 -2.3392 -1.6949
 2767TIP3   OH229935   4.114   5.596   0.529  0.1175 -0.0573  0.2548
 2767TIP3    H129936   4.167   5.516   0.535 -0.0391 -0.1702  0.1343
 2767TIP3    H229937   4.176   5.667   0.545 -0.2069 -0.3044  3.1040
 2768TIP3   OH229938   3.361   0.826   7.309 -0.1445  0.3556 -0.0945
 2768TIP3    H129939   3.441   0.877   7.318 -0.5408  0.9044  0.3704
 2768TIP3    H229940   3.291   0.885   7.338 -0.8035  0.1249 -1.1446
 2769TIP3   OH229941   0.566   4.549   0.805  0.0788  0.8799  0.4638
 2769TIP3    H129942   0.650   4.581   0.837  0.7488  0.6064 -0.9501
 2769TIP3    H229943   0.585   4.461   0.771 -0.0084  1.9828 -2.7841
 2770TIP3   OH229944   5.996   2.708   0.219  0.3570 -0.1228  0.0404
 2770TIP3    H129945   6.067   2.736   0.275 -0.8577 -1.1059  2.1809
 2770TIP3    H229946   6.021   2.621   0.189  0.4592 -0.0838  0.0127
 2771TIP3   OH229947   3.043   2.629   1.275  0.0666  0.1161 -0.0264
 2771TIP3    H129948   3.056   2.674   1.358  0.3315  1.9373 -1.0037
 2771TIP3    H229949   3.091   2.547   1.284 -1.3715 -0.5751  2.2438
 2772TIP3   OH229950   5.191   2.443   0.689 -1.0950 -0.1684  0.6656
 2772TIP3    H129951   5.250   2.517   0.707 -1.1027 -0.3643  1.5369
 2772TIP3    H229952   5.250   2.370   0.670 -1.0866  0.3220 -1.4304
 2773TIP3   OH229953   6.688   4.472   8.191  0.0326 -0.2341  0.1106
 2773TIP3    H129954   6.645   4.554   8.168  2.3275  0.3367 -2.6251
 2773TIP3    H229955   6.634   4.404   8.151 -0.4482  0.1429  0.1157
 2774TIP3   OH229956   5.790   5.639   8.027  0.5470  0.4025  0.2017
 2774TIP3    H129957   5.730   5.603   8.092  2.4766  0.6866  2.2433
 2774TIP3    H229958   5.791   5.573   7.957 -0.1801 -0.8238  1.2964
 2775TIP3   OH229959   0.861   1.023   7.677  0.4222  0.1415 -0.2590
 2775TIP3    H129960   0.923   1.094   7.664 -1.2806  1.4560 -1.6225
 2775TIP3    H229961   0.895   0.974   7.752  2.3899  1.5403 -0.1894
 2776TIP3   OH229962   2.941   4.323   8.184  0.0230 -0.4546  0.3698
 2776TIP3    H129963   2.977   4.241   8.216  1.9628  0.3496  0.3977
 2776TIP3    H229964   2.877   4.349   8.250 -0.7558 -2.0129  0.2547
 2777TIP3   OH229965   1.224   3.070   1.575  0.3409 -0.3852 -0.2583
 2777TIP3    H129966   1.316   3.071   1.601  0.5867  0.5646 -1.0892
 2777TIP3    H229967   1.225   3.046   1.483 -0.3063 -1.0891 -0.0883
 2778TIP3   OH229968   5.941   6.863   0.425  0.3751  0.0132  0.4608
 2778TIP3    H129969   6.027   6.903   0.410  0.3775 -0.9733 -3.0625
 2778TIP3    H229970   5.951   6.816   0.508  2.9277  0.7193  0.6437
 2779TIP3   OH229971   0.999   3.248   1.197 -0.1009 -0.3053  0.2357
 2779TIP3    H129972   0.914   3.206   1.183  0.0099 -0.2513 -0.5972
 2779TIP3    H229973   1.057   3.175   1.219 -0.1820 -0.4449 -0.0069
 2780TIP3   OH229974   3.569   0.810   1.725 -0.0311 -0.0848  0.4396
 2780TIP3    H129975   3.522   0.863   1.661  1.3680 -0.6514 -1.1298
 2780TIP3    H229976   3.558   0.720   1.695  0.2387 -0.4130  1.2796
 2781TIP3   OH229977   2.203   6.295   6.733 -0.3943 -0.1737 -0.3253
 2781TIP3    H129978   2.269   6.340   6.786 -0.4365  0.6933 -0.9756
 2781TIP3    H229979   2.157   6.238   6.794 -0.6409  1.0104  0.6301
 2782TIP3   OH229980   4.706   4.638   6.656  0.0521  0.5493  0.4486
 2782TIP3    H129981   4.765   4.570   6.689 -1.3505 -0.2856  1.3332
 2782TIP3    H229982   4.755   4.719   6.665  1.7513 -0.3005 -0.5685
 2783TIP3   OH229983   6.356   6.788   7.319 -0.2461 -0.0923  0.2824
 2783TIP3    H129984   6.423   6.733   7.276 -0.0437  1.1438 -1.0716
 2783TIP3    H229985   6.306   6.726   7.373 -0.0918 -1.6503 -1.2430
 2784TIP3   OH229986   1.963   2.784   7.055  0.4034  0.2453  0.3429
 2784TIP3    H129987   1.907   2.857   7.028  0.2868  0.5129  1.2498
 2784TIP3    H229988   1.919   2.706   7.023  1.1336  0.5997 -1.6945
 2785TIP3   OH229989   5.419   0.710   6.975  0.3968  0.0210  0.5702
 2785TIP3    H129990   5.398   0.754   7.058  0.5962  1.8323 -0.2831
 2785TIP3    H229991   5.512   0.729   6.961 -0.1955  1.9607 -1.2623
 2786TIP3   OH229992   4.416   3.968   1.801  0.1733  0.4646 -0.2507
 2786TIP3    H129993   4.327   3.945   1.827  0.0788  1.6645  0.5805
 2786TIP3    H229994   4.459   3.992   1.883  1.5503 -0.9702 -0.5239
 2787TIP3   OH229995   0.829   5.466   7.936  0.2875  0.0273 -0.3628
 2787TIP3    H129996   0.820   5.446   7.843  0.4995 -1.7215 -0.0473
 2787TIP3    H229997   0.923   5.468   7.951  0.2584  0.6834 -0.2533
 2788TIP3   OH229998   5.482   2.178   7.271 -0.0949 -0.4289 -0.8805
 2788TIP3    H129999   5.573   2.150   7.274  0.5583  1.6121  0.0537
 2788TIP3    H230000   5.458   2.173   7.178  0.9190 -1.0943 -1.1203
 2789TIP3   OH230001   3.551   4.485   6.790 -0.0726  0.0423 -0.5554
 2789TIP3    H130002   3.573   4.392   6.790  1.2392  0.3362 -0.3787
 2789TIP3    H230003   3.455   4.487   6.784 -0.2327 -1.3461  0.8274
 2790TIP3   OH230004   0.054   5.000   1.794  0.0494  0.0818 -0.4799
 2790TIP3    H130005   0.039   4.974   1.703  0.4854  1.5648 -1.0017
 2790TIP3    H230006  -0.025   5.049   1.817  1.2718  2.5415 -1.1874
 2791TIP3   OH230007   1.955   4.460   2.279 -0.4302  0.1583 -0.4332
 2791TIP3    H130008   1.920   4.528   2.337  0.3331  0.6775 -0.5643
 2791TIP3    H230009   1.949   4.498   2.191  0.1579  0.1275 -0.4908
 2792TIP3   OH230010   2.239   5.447   8.577 -0.3921  0.1537  0.4190
 2792TIP3    H130011   2.264   5.461   8.485  0.7678  0.5715  0.7806
 2792TIP3    H230012   2.276   5.362   8.599  1.0067  0.8876  1.0324
 2793TIP3   OH230013   6.723   5.014   0.315 -0.5517  0.3329  0.0593
 2793TIP3    H130014   6.799   4.975   0.356 -1.3731 -0.3309  1.0078
 2793TIP3    H230015   6.702   4.956   0.241 -1.3091 -0.6234  0.9998
 2794TIP3   OH230016   0.256   6.488   7.093 -0.1196  0.6359  1.0740
 2794TIP3    H130017   0.241   6.394   7.086 -2.4142  1.0581 -2.1767
 2794TIP3    H230018   0.345   6.501   7.059 -0.2553 -0.2909  0.3161
 2795TIP3   OH230019   6.739   6.838   1.777  0.3782 -0.6485  0.5490
 2795TIP3    H130020   6.645   6.820   1.773  0.3282 -0.6065  1.4169
 2795TIP3    H230021   6.745   6.929   1.806  0.6905 -0.8871  1.2577
 2796TIP3   OH230022   5.494   4.081   1.715 -0.1906 -0.2064 -0.2683
 2796TIP3    H130023   5.413   4.036   1.694  0.1648 -0.9845 -0.0123
 2796TIP3    H230024   5.511   4.139   1.640  0.0285 -1.4640 -1.2193
 2797TIP3   OH230025   0.367   4.945   6.060 -0.3452  0.5218 -0.6358
 2797TIP3    H130026   0.326   4.894   5.990  0.4138  0.2820 -0.9186
 2797TIP3    H230027   0.417   5.012   6.013  1.4727 -0.6120 -0.4242
 2798TIP3   OH230028   2.627   5.244   8.528  0.2389 -0.2850 -0.1996
 2798TIP3    H130029   2.710   5.263   8.486 -0.9470  1.1315 -2.0726
 2798TIP3    H230030   2.619   5.311   8.596  1.3507 -1.4792  1.1649
 2799TIP3   OH230031   1.184   3.209   6.240 -0.3730  0.6065  0.1890
 2799TIP3    H130032   1.167   3.298   6.211 -1.6155  0.7959  1.4179
 2799TIP3    H230033   1.097   3.169   6.248  0.0755 -0.2456  1.0588
 2800TIP3   OH230034   0.223   2.520   7.559 -0.2712 -0.1579 -0.3427
 2800TIP3    H130035   0.236   2.534   7.465  0.9832 -1.5520 -0.4195
 2800TIP3    H230036   0.211   2.425   7.567  1.7834 -0.3509  1.0932
 2801TIP3   OH230037   0.055   4.218   1.548  0.2178 -0.2236  0.1035
 2801TIP3    H130038   0.116   4.216   1.474 -0.1931 -1.2165 -0.2279
 2801TIP3    H230039  -0.023   4.262   1.514 -0.4269 -1.7167 -0.4540
 2802TIP3   OH230040   0.327   3.069   0.458 -0.2049  0.0320 -0.2593
 2802TIP3    H130041   0.283   2.988   0.434 -0.3293 -0.5399  1.7415
 2802TIP3    H230042   0.399   3.077   0.395 -0.2005 -1.6041 -0.5081
 2803TIP3   OH230043   5.738   3.778   1.877 -0.1956  0.0326  0.8261
 2803TIP3    H130044   5.707   3.781   1.787  1.6293  0.1568  0.1643
 2803TIP3    H230045   5.754   3.686   1.894 -3.3542 -0.4104  2.1143
 2804TIP3   OH230046   1.431   4.471   6.938  0.3603  0.8131  0.2879
 2804TIP3    H130047   1.509   4.465   6.883  0.6100  0.3041  0.6875
 2804TIP3    H230048   1.423   4.384   6.977  0.1487  1.1442  0.9967
 2805TIP3   OH230049   2.202   1.430   1.842  0.3666 -0.2487 -0.3593
 2805TIP3    H130050   2.240   1.394   1.923 -1.2286 -0.3978  0.3642
 2805TIP3    H230051   2.212   1.525   1.853 -0.1608 -0.2494  0.1918
 2806TIP3   OH230052   1.106   0.092   0.869  0.0711 -0.2314 -0.5554
 2806TIP3    H130053   1.096   0.073   0.776 -1.5208  3.8456 -1.4340
 2806TIP3    H230054   1.042   0.036   0.912 -0.9893 -0.3529 -2.2022
 2807TIP3   OH230055   1.606   5.507   8.395 -0.2019  0.2778 -0.6533
 2807TIP3    H130056   1.613   5.599   8.419 -0.7812  0.3990 -0.9303
 2807TIP3    H230057   1.561   5.507   8.310 -0.2454 -0.2589 -0.6368
 2808TIP3   OH230058   2.672   3.037   6.955 -0.4871 -0.2121 -0.1318
 2808TIP3    H130059   2.577   3.029   6.942 -0.5140  2.0949 -2.4423
 2808TIP3    H230060   2.710   2.980   6.888 -0.4306  2.0783 -2.2242
 2809TIP3   OH230061   3.887   2.173   7.654 -0.1716 -0.3070  1.0290
 2809TIP3    H130062   3.810   2.130   7.690 -0.2873  0.2644  1.4730
 2809TIP3    H230063   3.862   2.194   7.564 -0.2648 -0.7819  0.9396
 2810TIP3   OH230064   4.564   5.807   6.812 -0.6330 -0.5838 -0.4754
 2810TIP3    H130065   4.612   5.741   6.863  1.6941  0.5531 -1.0458
 2810TIP3    H230066   4.528   5.758   6.738 -1.1860 -1.6457  0.4628
 2811TIP3   OH230067   6.561   0.213   0.581  0.2654 -0.0204 -0.1471
 2811TIP3    H130068   6.635   0.267   0.611  0.1053  0.2058 -0.1535
 2811TIP3    H230069   6.559   0.138   0.640 -1.3207  1.4209  1.7497
 2812TIP3   OH230070   6.676   6.725   0.311  0.1823  0.1391  0.3057
 2812TIP3    H130071   6.673   6.630   0.323 -1.3784  0.1291  0.1441
 2812TIP3    H230072   6.724   6.757   0.386 -1.5194 -0.6195  1.8114
 2813TIP3   OH230073   3.279   5.657   7.374  0.2059 -0.6445  0.4215
 2813TIP3    H130074   3.270   5.567   7.343  3.7558 -1.2804  0.8137
 2813TIP3    H230075   3.305   5.648   7.466 -1.0771  0.9192  0.9917
 2814TIP3   OH230076   5.070   2.192   1.488 -0.0522 -0.3960  0.0030
 2814TIP3    H130077   4.977   2.211   1.477 -0.3164 -1.9271 -0.7427
 2814TIP3    H230078   5.107   2.204   1.401  0.7286  1.3824  0.5329
 2815TIP3   OH230079   5.762   6.834   8.205 -0.0782  0.2617  0.2674
 2815TIP3    H130080   5.712   6.806   8.282  0.6740  0.1835  0.7455
 2815TIP3    H230081   5.780   6.754   8.158  0.4102  0.1699  0.6042
 2816TIP3   OH230082   5.937   2.930   6.304 -0.2291 -0.3573  0.4270
 2816TIP3    H130083   5.986   3.011   6.290 -0.3910  0.1065  2.2866
 2816TIP3    H230084   5.850   2.949   6.267 -0.2857  0.3608  0.8965
 2817TIP3   OH230085   1.928   3.801   8.034  0.0814  0.0231  0.0950
 2817TIP3    H130086   1.977   3.823   7.955 -0.0194  1.9103  0.5135
 2817TIP3    H230087   1.960   3.715   8.059  0.5848 -0.3252 -1.6267
 2818TIP3   OH230088   3.686   4.853   0.268  0.3465 -0.2336 -0.6220
 2818TIP3    H130089   3.644   4.771   0.293 -1.4817  0.6809 -0.5078
 2818TIP3    H230090   3.648   4.919   0.326 -0.5117  1.1627 -2.6528
 2819TIP3   OH230091   6.516   2.849   7.282 -0.1090  0.4640 -0.1096
 2819TIP3    H130092   6.517   2.785   7.353  1.9107 -0.7512 -1.1356
 2819TIP3    H230093   6.423   2.866   7.267 -0.6933 -1.5569  0.8023
 2820TIP3   OH230094   0.111   1.022   1.132  0.2850  0.3566 -0.1057
 2820TIP3    H130095   0.169   1.061   1.197 -0.5441  0.1557  0.7815
 2820TIP3    H230096   0.027   1.066   1.145 -1.5420 -3.4034  2.8536
 2821TIP3   OH230097   4.349   0.500   2.093  0.4921  0.0011 -0.7242
 2821TIP3    H130098   4.405   0.499   2.171 -0.3004 -0.0366 -0.1310
 2821TIP3    H230099   4.300   0.418   2.099  0.0574  0.2408 -0.9823
 2822TIP3   OH230100   3.388   0.376   6.528  0.7445 -1.0213  0.4596
 2822TIP3    H130101   3.413   0.307   6.588  0.8911 -0.5770  0.9128
 2822TIP3    H230102   3.468   0.397   6.480  0.8101 -0.8501  0.6433
 2823TIP3   OH230103   4.148   6.506   0.894  0.2967 -0.1690  0.0349
 2823TIP3    H130104   4.219   6.490   0.955  0.5019  0.3153 -0.0759
 2823TIP3    H230105   4.124   6.419   0.861  0.5922 -0.3662  0.3433
 2824TIP3   OH230106   6.237   2.668   1.143  0.2037 -0.0831  0.5334
 2824TIP3    H130107   6.270   2.756   1.131  1.3296 -0.6737 -1.0471
 2824TIP3    H230108   6.302   2.624   1.198  1.7370 -0.9811 -1.8354
 2825TIP3   OH230109   3.646   3.864   1.997  0.3078  0.5358 -0.3614
 2825TIP3    H130110   3.736   3.879   2.027  0.0575 -0.1234  0.8015
 2825TIP3    H230111   3.592   3.884   2.074 -0.4628 -0.0562 -0.7383
 2826TIP3   OH230112   4.073   1.946   1.083 -0.0881  0.4914 -0.1504
 2826TIP3    H130113   4.080   2.037   1.052  1.4875  1.1538  1.8936
 2826TIP3    H230114   4.158   1.907   1.062 -0.2889 -0.1162  0.1559
 2827TIP3   OH230115   4.608   6.832   8.145 -0.3669 -0.4818 -0.2725
 2827TIP3    H130116   4.616   6.862   8.236  1.2555  0.1304 -0.5708
 2827TIP3    H230117   4.554   6.899   8.103 -0.0820 -0.0828 -0.0187
 2828TIP3   OH230118   4.296   5.720   8.574 -0.2219 -0.4980 -0.1337
 2828TIP3    H130119   4.356   5.780   8.617 -1.1476  3.4035 -3.6944
 2828TIP3    H230120   4.223   5.710   8.636  0.5018  1.1070  1.0345
 2829TIP3   OH230121   5.335   3.392   7.557 -0.1548  0.1967  0.2086
 2829TIP3    H130122   5.406   3.407   7.620  0.0993  1.8105 -0.4165
 2829TIP3    H230123   5.306   3.303   7.574  3.1771 -1.1810 -0.6352
 2830TIP3   OH230124   6.880   6.909   1.512 -0.0625  0.0906  0.4779
 2830TIP3    H130125   6.876   6.816   1.490 -0.2479  0.1378  0.3131
 2830TIP3    H230126   6.886   6.910   1.608  0.5091 -0.1070  0.4524
 2831TIP3   OH230127   4.286   6.555   7.552 -0.3497 -0.0663  0.0831
 2831TIP3    H130128   4.326   6.552   7.465  1.2830  1.9974  0.6644
 2831TIP3    H230129   4.293   6.647   7.578  0.3027 -0.8091  2.8565
 2832TIP3   OH230130   1.757   6.455   1.867  0.3169 -0.1622 -0.1609
 2832TIP3    H130131   1.727   6.379   1.916 -2.2861  0.2016 -1.0133
 2832TIP3    H230132   1.838   6.426   1.825  0.4260 -1.7896  1.0783
 2833TIP3   OH230133   0.401   3.904   7.315 -0.4185  0.3215  0.3856
 2833TIP3    H130134   0.306   3.910   7.330 -0.8170 -0.8216 -1.4908
 2833TIP3    H230135   0.417   3.812   7.297  0.8710  0.7078 -0.5456
 2834TIP3   OH230136   4.862   2.017   8.048  0.2298  0.0850  0.3071
 2834TIP3    H130137   4.916   2.082   8.002 -1.2899  1.5341  0.4711
 2834TIP3    H230138   4.922   1.976   8.111  1.3696  0.9147 -0.2054
 2835TIP3   OH230139   4.347   4.111   8.141  0.7830  0.0302 -0.0320
 2835TIP3    H130140   4.326   4.198   8.106 -1.7609 -1.3034 -2.2096
 2835TIP3    H230141   4.438   4.095   8.114  0.9392  1.5665 -0.5084
 2836TIP3   OH230142   4.234   0.869   8.056 -0.7555 -0.2545 -0.2430
 2836TIP3    H130143   4.211   0.832   8.141  1.3587 -3.1828 -0.7750
 2836TIP3    H230144   4.188   0.814   7.993 -2.9975  2.4103 -1.1048
 2837TIP3   OH230145   1.384   6.177   0.902 -0.0663  0.1895  0.2326
 2837TIP3    H130146   1.294   6.161   0.871 -0.4134  1.9671  0.2605
 2837TIP3    H230147   1.373   6.233   0.978  0.9869 -1.3356  1.5841
 2838TIP3   OH230148   6.420   3.740   1.631  0.3010  0.2190  0.3254
 2838TIP3    H130149   6.501   3.751   1.681  0.9539  2.2199 -1.0274
 2838TIP3    H230150   6.393   3.829   1.609 -2.4983 -0.3686  0.9963
 2839TIP3   OH230151   2.375   4.832   6.664 -0.3214  0.1809  0.0942
 2839TIP3    H130152   2.290   4.857   6.627 -0.3806 -0.5170 -0.2609
 2839TIP3    H230153   2.436   4.841   6.591 -0.3464 -0.6874 -0.0437
 2840TIP3   OH230154   1.404   0.355   0.460  0.3898 -0.5280 -0.3840
 2840TIP3    H130155   1.325   0.406   0.478  0.9027  0.0790  0.1845
 2840TIP3    H230156   1.393   0.275   0.511 -0.2801 -0.8779 -1.0469
 2841TIP3   OH230157   5.888   6.537   2.420  0.4378  0.1420  0.7616
 2841TIP3    H130158   5.840   6.584   2.352  1.1627 -0.6342 -0.3127
 2841TIP3    H230159   5.916   6.456   2.378  1.6879  0.0560  1.7174
 2842TIP3   OH230160   5.182   1.611   0.378  0.3703 -0.1645  0.1645
 2842TIP3    H130161   5.237   1.584   0.452  1.1193 -0.4925 -0.4895
 2842TIP3    H230162   5.184   1.535   0.318 -0.0665  0.1628 -0.2733
 2843TIP3   OH230163   3.747   2.461   7.415 -0.8081 -0.5627 -0.2533
 2843TIP3    H130164   3.815   2.502   7.469 -2.3363 -0.0437  1.3715
 2843TIP3    H230165   3.766   2.367   7.421  1.4535 -0.3152 -2.2551
 2844TIP3   OH230166   0.982   3.370   6.580  0.3779  0.4296 -0.2491
 2844TIP3    H130167   0.935   3.427   6.518  1.3678 -0.2757 -1.7186
 2844TIP3    H230168   0.932   3.289   6.580 -0.4498  0.9208  1.0464
 2845TIP3   OH230169   5.878   2.221   8.134  1.2041  0.6061  0.0658
 2845TIP3    H130170   5.918   2.302   8.102 -1.4298  1.8908 -0.2385
 2845TIP3    H230171   5.840   2.180   8.056  2.3629 -0.8830  0.2412
 2846TIP3   OH230172   6.735   2.727   5.940  0.0387 -0.1752  0.1261
 2846TIP3    H130173   6.748   2.651   5.883 -0.5127 -0.1944  0.0190
 2846TIP3    H230174   6.823   2.763   5.952  0.0391  0.6556 -1.8795
 2847TIP3   OH230175   2.867   5.277   8.422  0.4944 -0.4117  0.2516
 2847TIP3    H130176   2.957   5.250   8.403  0.2872  0.0489 -1.5898
 2847TIP3    H230177   2.875   5.335   8.498  1.9083  0.5236 -0.5632
 2848TIP3   OH230178   3.895   6.348   0.179  0.4604  0.0694 -0.6487
 2848TIP3    H130179   3.940   6.299   0.110 -0.0374 -0.1331 -0.8373
 2848TIP3    H230180   3.802   6.329   0.165  0.3044  0.6100 -0.3657
 2849TIP3   OH230181   4.534   5.497   8.591 -0.4019 -0.1647  0.3318
 2849TIP3    H130182   4.577   5.548   8.659  1.2650  0.1289 -0.8765
 2849TIP3    H230183   4.478   5.560   8.546 -0.6016 -0.0888  0.6840
 2850TIP3   OH230184   2.058   3.247   1.668 -0.4834  0.1321  0.0061
 2850TIP3    H130185   2.030   3.293   1.589 -2.6081  0.2273  0.7440
 2850TIP3    H230186   1.994   3.272   1.734  1.6545  0.6705  2.0208
 2851TIP3   OH230187   0.718   6.418   1.966  0.5052 -0.4563 -0.2906
 2851TIP3    H130188   0.771   6.375   2.033 -1.4758 -0.8643  1.0739
 2851TIP3    H230189   0.718   6.510   1.991  0.9301 -0.3740 -0.5727
 2852TIP3   OH230190   0.280   0.567   0.377 -0.5607  0.1287 -0.2762
 2852TIP3    H130191   0.283   0.473   0.393 -0.3904  0.2012  0.1172
 2852TIP3    H230192   0.188   0.590   0.384 -0.4896  0.1671  0.6600
 2853TIP3   OH230193   5.853   4.558   1.803 -0.3257  0.0823  0.6516
 2853TIP3    H130194   5.836   4.517   1.887 -0.5373 -0.8613  0.1604
 2853TIP3    H230195   5.883   4.487   1.747 -2.9517  0.0518 -0.8995
 2854TIP3   OH230196   1.651   4.432   8.386  0.4666 -0.2044 -0.2726
 2854TIP3    H130197   1.740   4.411   8.358  0.2299 -0.1781 -1.0913
 2854TIP3    H230198   1.610   4.471   8.308 -0.5311 -1.0440 -0.1962
 2855TIP3   OH230199   6.848   0.369   7.923  0.4723  0.3337 -0.6626
 2855TIP3    H130200   6.858   0.282   7.886 -0.1357  0.8365 -2.0708
 2855TIP3    H230201   6.936   0.394   7.951  0.3854 -1.4344  1.5034
 2856TIP3   OH230202   5.833   3.540   0.147  0.0617  0.6553  0.5209
 2856TIP3    H130203   5.765   3.597   0.184 -0.0061  1.1122 -0.2783
 2856TIP3    H230204   5.880   3.506   0.223 -0.6202  0.8879  1.0549
 2857TIP3   OH230205   3.148   3.530   0.653 -0.6877 -0.5040  0.1234
 2857TIP3    H130206   3.148   3.615   0.697  0.5729 -0.4212 -0.0135
 2857TIP3    H230207   3.181   3.469   0.719  0.8893 -0.4367 -0.5461
 2858TIP3   OH230208   5.883   5.807   1.228  0.3045 -0.6262 -0.1066
 2858TIP3    H130209   5.871   5.766   1.314 -0.8834 -1.0705 -0.4568
 2858TIP3    H230210   5.845   5.744   1.166 -0.2048  0.3306 -0.8029
 2859TIP3   OH230211   6.334   6.647   8.049  0.0127 -0.7046 -0.1970
 2859TIP3    H130212   6.289   6.589   8.111  2.5158  0.0626  2.6551
 2859TIP3    H230213   6.289   6.731   8.058 -1.4280 -1.2807 -1.6791
 2860TIP3   OH230214   5.921   0.187   6.937  0.0922 -0.8264 -0.0963
 2860TIP3    H130215   5.967   0.109   6.967  2.8588  1.4283  2.0311
 2860TIP3    H230216   5.863   0.210   7.009 -2.5889 -2.1232 -1.6857
 2861TIP3   OH230217   4.323   1.835   0.458  0.0919 -0.1145  0.0198
 2861TIP3    H130218   4.337   1.924   0.428 -1.7658 -0.0458 -0.8067
 2861TIP3    H230219   4.410   1.796   0.460  0.6677  0.8356 -2.5118
 2862TIP3   OH230220   6.463   1.813   1.255  0.3895  0.2864  0.0588
 2862TIP3    H130221   6.424   1.744   1.307 -0.0993  1.3457  1.1597
 2862TIP3    H230222   6.555   1.814   1.282 -0.1741  1.8908  2.2333
 2863TIP3   OH230223   2.990   3.958   1.582 -0.3079 -0.2884  0.2434
 2863TIP3    H130224   3.006   4.051   1.567  2.8427 -0.7735  0.0409
 2863TIP3    H230225   2.988   3.949   1.677 -0.4483 -0.0614  0.2625
 2864TIP3   OH230226   5.835   3.978   0.919 -0.2407 -0.3775  0.2638
 2864TIP3    H130227   5.873   3.890   0.915 -0.6700 -0.6557  1.6547
 2864TIP3    H230228   5.745   3.964   0.948  0.0145  0.5776  1.6173
 2865TIP3   OH230229   5.043   4.256   1.434  0.7770  0.0761  0.0710
 2865TIP3    H130230   5.103   4.329   1.446 -0.4315  0.8178  2.2505
 2865TIP3    H230231   4.972   4.291   1.380  1.3342 -0.2346 -0.8885
 2866TIP3   OH230232   1.703   0.167   7.128  0.0380 -0.4338  0.0158
 2866TIP3    H130233   1.716   0.231   7.059 -0.4657 -1.4306 -1.0408
 2866TIP3    H230234   1.785   0.169   7.178  1.3576 -1.2678 -1.9856
 2867TIP3   OH230235   2.868   3.245   6.890 -0.3887  0.7413 -0.3530
 2867TIP3    H130236   2.884   3.339   6.897 -1.4510  0.9526 -0.6063
 2867TIP3    H230237   2.773   3.237   6.883 -0.3810 -0.4032  0.4821
 2868TIP3   OH230238   6.062   5.355   2.128 -0.0405 -0.2117  0.6255
 2868TIP3    H130239   6.005   5.398   2.064  1.5025  1.2349  0.1512
 2868TIP3    H230240   6.127   5.310   2.075  0.1894 -0.5364  1.1781
 2869TIP3   OH230241   4.398   6.294   8.443 -0.0268  0.7304 -0.1331
 2869TIP3    H130242   4.424   6.343   8.521  0.5519  0.6476 -0.2670
 2869TIP3    H230243   4.332   6.348   8.402 -0.0380  0.9725  0.1989
 2870TIP3   OH230244   0.275   3.315   0.967  0.2425  0.1283 -0.3450
 2870TIP3    H130245   0.329   3.340   0.892  0.2599  0.0920 -0.3446
 2870TIP3    H230246   0.323   3.244   1.009 -0.1288 -0.3610 -0.7284
 2871TIP3   OH230247   6.372   5.563   0.871  0.4006 -0.1637  0.5323
 2871TIP3    H130248   6.466   5.572   0.886  0.4097  0.1694  0.2876
 2871TIP3    H230249   6.332   5.602   0.949  0.4492  1.4344 -0.2001
 2872TIP3   OH230250   1.918   3.547   8.175  0.0658  0.1588  0.4505
 2872TIP3    H130251   1.965   3.515   8.099 -0.7485 -2.1839  0.8619
 2872TIP3    H230252   1.827   3.558   8.145 -0.0065  0.4532  0.7625
 2873TIP3   OH230253   5.109   1.179   7.461  0.2916 -0.2873  0.4314
 2873TIP3    H130254   5.197   1.171   7.423  0.7998 -0.2799  1.5918
 2873TIP3    H230255   5.087   1.091   7.489 -0.4266 -0.4528 -0.5731
 2874TIP3   OH230256   2.456   1.331   1.000 -0.0207 -0.0654 -0.0647
 2874TIP3    H130257   2.470   1.329   0.905  0.1338  2.1910 -0.1304
 2874TIP3    H230258   2.540   1.307   1.037 -0.5128 -2.7450 -0.4101
 2875TIP3   OH230259   3.726   0.014   8.594  0.2746  0.0964 -0.3167
 2875TIP3    H130260   3.686   0.058   8.519  0.7030 -0.4585 -0.8771
 2875TIP3    H230261   3.820   0.018   8.578  0.3230 -0.9828 -0.3613
 2876TIP3   OH230262   4.065   3.081   7.212 -0.5820  0.0399 -0.4856
 2876TIP3    H130263   4.080   3.046   7.124 -3.5456  0.5340 -1.2961
 2876TIP3    H230264   3.991   3.030   7.245  0.6101 -0.2817  1.8671
 2877TIP3   OH230265   0.370   6.342   1.364  0.6384 -0.2553 -0.0252
 2877TIP3    H130266   0.345   6.280   1.433  1.3406  0.0810  0.5464
 2877TIP3    H230267   0.395   6.286   1.290 -0.1877 -0.6158 -0.0353
 2878TIP3   OH230268   6.325   4.920   1.727  0.0708 -0.4347 -0.1085
 2878TIP3    H130269   6.385   4.845   1.727  0.7986  0.1224  0.5472
 2878TIP3    H230270   6.369   4.985   1.781 -0.7274  0.3300 -0.3576
 2879TIP3   OH230271   4.557   0.108   1.502 -0.1058 -0.4490  0.3007
 2879TIP3    H130272   4.498   0.104   1.577 -2.6174 -0.5478 -1.5413
 2879TIP3    H230273   4.499   0.096   1.426  2.2702 -0.1402 -1.6620
 2880TIP3   OH230274   6.476   3.492   0.287 -0.0627  0.4316 -0.3944
 2880TIP3    H130275   6.520   3.577   0.299  0.0126  0.1924  1.2315
 2880TIP3    H230276   6.428   3.478   0.368 -0.6610 -0.7577 -0.9317
 2881TIP3   OH230277   3.803   5.803   0.869  0.1692 -0.3792  0.5871
 2881TIP3    H130278   3.850   5.758   0.798 -0.2311 -0.7266  0.5368
 2881TIP3    H230279   3.740   5.738   0.901  0.2478 -0.1751  1.1670
 2882TIP3   OH230280   0.753   6.624   7.136  0.3244 -0.0015  0.2727
 2882TIP3    H130281   0.803   6.546   7.156 -0.3398 -0.1864  1.2787
 2882TIP3    H230282   0.694   6.598   7.065  1.1516  0.0307 -0.4434
 2883TIP3   OH230283   6.026   1.479   7.559 -0.1665 -0.0897 -0.2081
 2883TIP3    H130284   6.051   1.448   7.646 -0.6238 -0.6120 -0.2525
 2883TIP3    H230285   6.105   1.519   7.523  0.6374 -1.7584 -0.3772
 2884TIP3   OH230286   6.613   5.695   7.017  0.0258 -0.3903 -0.2897
 2884TIP3    H130287   6.532   5.735   7.048  0.4572 -0.0929  0.4837
 2884TIP3    H230288   6.645   5.756   6.950 -0.0850 -0.1966 -0.1687
 2885TIP3   OH230289   1.118   4.840   6.578  0.2235  0.1688 -0.5679
 2885TIP3    H130290   1.208   4.809   6.588 -0.0475 -0.3566  0.3914
 2885TIP3    H230291   1.097   4.823   6.486  0.6040 -1.1326 -0.4424
 2886TIP3   OH230292   3.401   1.322   0.623  0.4975  0.0528  0.1719
 2886TIP3    H130293   3.375   1.244   0.673 -1.5294  0.8578  0.4763
 2886TIP3    H230294   3.463   1.367   0.681  0.9800 -0.8564  0.3837
 2887TIP3   OH230295   3.515   4.756   0.655  0.6508 -0.4753 -0.0066
 2887TIP3    H130296   3.459   4.832   0.668 -0.8144 -1.4705 -0.1946
 2887TIP3    H230297   3.521   4.716   0.742  1.1982 -0.2957  0.0399
 2888TIP3   OH230298   0.490   2.868   7.411  0.0815 -0.7679 -0.0068
 2888TIP3    H130299   0.395   2.871   7.409  0.1213  0.9713 -0.7154
 2888TIP3    H230300   0.513   2.796   7.352 -0.7796 -0.7894 -0.3285
 2889TIP3   OH230301   4.744   1.568   7.847  0.4281  0.2519 -0.0929
 2889TIP3    H130302   4.708   1.650   7.879  0.0085 -0.1230  0.4239
 2889TIP3    H230303   4.802   1.593   7.776 -1.0665  0.8708 -1.1489
 2890TIP3   OH230304   1.002   5.274   0.220  0.5467 -0.1294 -0.0723
 2890TIP3    H130305   0.977   5.208   0.155 -0.4866 -1.4164  1.5393
 2890TIP3    H230306   0.924   5.329   0.229  0.8622  0.3534 -0.2793
 2891TIP3   OH230307   3.912   4.775   0.698 -0.1207 -0.0495  0.0827
 2891TIP3    H130308   3.870   4.699   0.657  2.3696 -1.3855 -0.1291
 2891TIP3    H230309   3.992   4.789   0.647 -0.1175  2.2850  0.5916
 2892TIP3   OH230310   6.259   4.081   7.047 -0.2882 -0.3357 -0.1064
 2892TIP3    H130311   6.316   4.114   6.978  0.4633  0.3122  0.7995
 2892TIP3    H230312   6.174   4.122   7.030  0.2746  1.0018  0.1937
 2893TIP3   OH230313   2.039   3.318   0.596 -0.7435  0.0751 -0.1571
 2893TIP3    H130314   1.994   3.386   0.646 -0.6726 -1.5119  2.2321
 2893TIP3    H230315   2.130   3.322   0.626 -0.4189 -0.1704 -1.0558
 2894TIP3   OH230316   3.436   1.169   7.515  0.1366 -0.2560  0.0531
 2894TIP3    H130317   3.433   1.127   7.601 -0.8530 -0.8277 -0.2527
 2894TIP3    H230318   3.462   1.100   7.455 -0.9294 -0.3060 -0.3671
 2895TIP3   OH230319   1.262   2.245   6.877 -0.2767  0.4878 -0.0312
 2895TIP3    H130320   1.270   2.199   6.794  0.5599  1.5062 -0.5382
 2895TIP3    H230321   1.187   2.204   6.920  0.7296 -1.6641 -0.2230
 2896TIP3   OH230322   4.861   2.351   2.120  0.4210  0.0345  0.2462
 2896TIP3    H130323   4.914   2.339   2.199  1.5874  0.2906 -0.4718
 2896TIP3    H230324   4.825   2.439   2.130  0.5455  0.0581  0.5135
 2897TIP3   OH230325   0.617   0.920   7.742  0.4594 -0.2017  0.2937
 2897TIP3    H130326   0.650   0.839   7.780 -1.1309 -0.5939  0.8861
 2897TIP3    H230327   0.696   0.968   7.716  1.4277 -1.9790 -0.1973
 2898TIP3   OH230328   3.608   0.104   7.786 -0.1571  0.5128 -0.3610
 2898TIP3    H130329   3.646   0.060   7.710 -0.8590  2.4464 -1.9304
 2898TIP3    H230330   3.546   0.167   7.748 -1.6909  0.4842  1.8998
 2899TIP3   OH230331   0.262   0.409   0.042 -0.5600  0.0257  0.2882
 2899TIP3    H130332   0.284   0.480   0.103  1.8631  0.1718 -0.6213
 2899TIP3    H230333   0.286   0.329   0.088  2.3770  0.1938 -0.7616
 2900TIP3   OH230334   0.500   2.877   1.485 -0.0848 -0.3829  0.0718
 2900TIP3    H130335   0.433   2.835   1.431  0.1063 -1.3528  0.5808
 2900TIP3    H230336   0.507   2.966   1.448 -0.0549 -0.9684 -1.4171
 2901TIP3   OH230337   5.768   4.156   8.401 -0.1312  0.4969  0.4214
 2901TIP3    H130338   5.771   4.250   8.382  1.7271  0.1691 -1.2437
 2901TIP3    H230339   5.837   4.142   8.466  0.1036  0.1636  0.1004
 2902TIP3   OH230340   2.590   3.634   8.186 -0.0843  0.7670  0.3212
 2902TIP3    H130341   2.571   3.573   8.116 -0.7449  0.2597  0.9272
 2902TIP3    H230342   2.505   3.674   8.207  0.4928  2.6579 -0.7584
 2903TIP3   OH230343   6.221   2.558   7.574  0.1498 -0.3977 -0.6438
 2903TIP3    H130344   6.221   2.472   7.616 -0.8607 -0.3550 -0.5311
 2903TIP3    H230345   6.129   2.578   7.560  0.3789  0.6084 -0.8087
 2904TIP3   OH230346   6.638   6.267   8.490 -0.6478  0.0348  0.4606
 2904TIP3    H130347   6.563   6.225   8.448 -0.0080 -0.1869 -0.4834
 2904TIP3    H230348   6.714   6.237   8.440  0.1104 -0.0004  1.5922
 2905TIP3   OH230349   2.061   2.108   6.284 -0.3953  0.1782 -0.9382
 2905TIP3    H130350   2.013   2.090   6.204 -0.4641  3.0865 -1.6369
 2905TIP3    H230351   2.016   2.183   6.324  1.9409  1.3330 -0.2576
 2906TIP3   OH230352   1.303   3.806   7.287  0.5061 -0.5896  0.1234
 2906TIP3    H130353   1.355   3.875   7.328 -1.0006 -0.0412  1.2038
 2906TIP3    H230354   1.262   3.847   7.211  1.3173 -0.9187 -0.5081
 2907TIP3   OH230355   4.225   3.646   7.682 -0.5332  0.6924 -0.1191
 2907TIP3    H130356   4.294   3.697   7.641  0.0592 -0.2810 -0.3676
 2907TIP3    H230357   4.203   3.579   7.618 -0.2948 -0.2337  0.7348
 2908TIP3   OH230358   5.440   5.802   7.978 -1.0431  0.3645  0.2483
 2908TIP3    H130359   5.449   5.713   8.013 -0.2671  0.6464  0.7907
 2908TIP3    H230360   5.350   5.826   7.999 -1.5034 -0.5543 -0.5537
 2909TIP3   OH230361   1.589   1.099   1.133 -0.4166 -0.4537 -0.0817
 2909TIP3    H130362   1.504   1.084   1.175 -0.7205  0.2961 -0.4119
 2909TIP3    H230363   1.632   1.163   1.189 -0.3835 -0.2597 -0.3265
 2910TIP3   OH230364   3.965   0.463   7.469  0.0235  0.1884  0.3501
 2910TIP3    H130365   3.951   0.402   7.541 -0.2407  1.0508  1.0376
 2910TIP3    H230366   3.984   0.547   7.511  1.2421  0.4022 -0.5824
 2911TIP3   OH230367   3.155   2.031   7.909 -0.0920 -0.3729 -0.1700
 2911TIP3    H130368   3.082   2.077   7.951 -0.5766 -0.3426 -1.0194
 2911TIP3    H230369   3.225   2.034   7.974 -1.0218 -0.9232  0.8965
 2912TIP3   OH230370   4.591   0.436   1.036 -0.3754  0.7887 -0.3397
 2912TIP3    H130371   4.579   0.491   0.958  1.0080 -0.0295 -1.1532
 2912TIP3    H230372   4.667   0.383   1.016 -1.8683 -1.7325  0.2603
 2913TIP3   OH230373   2.327   0.754   1.196  0.6995 -0.2587  0.0906
 2913TIP3    H130374   2.247   0.789   1.235  0.8032 -0.0880  0.1506
 2913TIP3    H230375   2.328   0.662   1.224  1.7720  0.3125  2.1484
 2914TIP3   OH230376   5.533   6.817   8.632 -0.3996 -0.0950 -0.2749
 2914TIP3    H130377   5.542   6.752   8.701  0.4522  0.7363  0.4270
 2914TIP3    H230378   5.619   6.860   8.629 -0.8182  0.7048 -1.0074
 2915TIP3   OH230379   6.367   2.713   0.120 -0.0330 -0.0323 -0.1480
 2915TIP3    H130380   6.454   2.752   0.135  0.5934  0.2156 -3.6768
 2915TIP3    H230381   6.309   2.788   0.110  0.0921 -0.0793 -1.3752
 2916TIP3   OH230382   2.291   2.771   8.188 -0.2966  0.1022 -0.1005
 2916TIP3    H130383   2.292   2.695   8.129  0.1265 -1.1033  1.4057
 2916TIP3    H230384   2.209   2.816   8.168 -1.7954 -2.1410  0.6530
 2917TIP3   OH230385   0.594   5.722   1.511  0.0817 -0.4835  0.2116
 2917TIP3    H130386   0.508   5.763   1.504 -0.0831 -0.5607  1.5168
 2917TIP3    H230387   0.616   5.696   1.422 -0.5872  0.8585 -0.3690
 2918TIP3   OH230388   1.436   4.055   0.650 -0.0528 -0.1195  0.1893
 2918TIP3    H130389   1.419   3.961   0.646 -0.0447 -0.0907 -1.5200
 2918TIP3    H230390   1.439   4.082   0.558 -3.6954  2.2108  0.5592
 2919TIP3   OH230391   2.847   5.002   8.514  0.5638  0.6023  0.0620
 2919TIP3    H130392   2.842   5.090   8.477  1.5417  0.7450  0.2449
 2919TIP3    H230393   2.827   4.944   8.440 -0.7165  0.9815  0.0845
 2920TIP3   OH230394   6.907   1.049   7.138  0.0433 -0.0904 -0.1102
 2920TIP3    H130395   6.850   1.028   7.064  1.2887 -0.1522 -1.1061
 2920TIP3    H230396   6.947   0.964   7.161 -0.3528 -0.0712  0.6439
 2921TIP3   OH230397   5.307   1.228   0.754  0.1672 -0.1730  0.3640
 2921TIP3    H130398   5.356   1.157   0.795 -1.9329 -2.0188 -0.1179
 2921TIP3    H230399   5.301   1.295   0.822  1.1027 -1.0085  1.3101
 2922TIP3   OH230400   1.348   4.163   6.139 -0.6475 -0.1020 -0.1453
 2922TIP3    H130401   1.434   4.206   6.138 -0.1760 -1.0223 -1.0072
 2922TIP3    H230402   1.299   4.210   6.206  0.4563  0.5875  0.2136
 2923TIP3   OH230403   6.256   5.521   7.585  0.5781 -0.0948 -0.3232
 2923TIP3    H130404   6.297   5.570   7.513  0.0417 -0.4724 -0.8881
 2923TIP3    H230405   6.328   5.470   7.623  1.0831  0.8715  0.0736
 2924TIP3   OH230406   4.043   3.319   0.048 -0.8496  0.0127 -0.5693
 2924TIP3    H130407   4.103   3.392   0.030 -0.2191  0.2739  2.2245
 2924TIP3    H230408   4.020   3.286  -0.039  1.5938  1.3014 -1.8173
 2925TIP3   OH230409   4.478   4.105   1.566  0.4648 -0.0226 -0.1573
 2925TIP3    H130410   4.484   4.070   1.654 -0.4537 -0.8200 -0.3953
 2925TIP3    H230411   4.441   4.033   1.514  0.6546  0.5537 -1.1151
 2926TIP3   OH230412   0.775   4.290   7.797  0.1924  0.4214  0.3242
 2926TIP3    H130413   0.711   4.269   7.728 -0.3167 -0.9727  1.1816
 2926TIP3    H230414   0.852   4.237   7.775  0.0458  0.0127  0.7910
 2927TIP3   OH230415   5.666   6.357   1.504 -0.5076 -0.2056 -0.3540
 2927TIP3    H130416   5.663   6.309   1.421  0.0345 -1.1050  0.1301
 2927TIP3    H230417   5.594   6.419   1.498 -0.1197  0.1577 -1.7414
 2928TIP3   OH230418   5.730   0.377   0.001  0.1405  0.0011  0.5235
 2928TIP3    H130419   5.732   0.388  -0.094  1.7206  0.8742  0.6362
 2928TIP3    H230420   5.814   0.338   0.023  0.2651  0.8715  1.6739
 2929TIP3   OH230421   0.247   6.068   0.586  0.0865 -0.0473 -0.2300
 2929TIP3    H130422   0.335   6.076   0.549 -0.0600 -0.0822 -0.5886
 2929TIP3    H230423   0.197   6.023   0.519 -0.0788 -0.4934  0.1855
 2930TIP3   OH230424   3.171   0.124   8.172 -0.0206  0.7430  0.4278
 2930TIP3    H130425   3.240   0.075   8.216  0.1012  1.0651  0.5954
 2930TIP3    H230426   3.134   0.180   8.240 -1.8006 -0.8577  0.8507
 2931TIP3   OH230427   3.006   2.640   0.296  0.5473  0.4364  0.4196
 2931TIP3    H130428   3.095   2.672   0.313 -0.2026  1.4452  2.9866
 2931TIP3    H230429   2.953   2.681   0.365 -1.5866 -1.6162  0.1037
 2932TIP3   OH230430   1.441   5.170   7.747  0.2777  0.2949  0.7577
 2932TIP3    H130431   1.457   5.218   7.828 -0.5666 -0.5398  1.4209
 2932TIP3    H230432   1.529   5.153   7.712  0.6782  0.0936  1.8242
 2933TIP3   OH230433   4.788   6.410   0.436  1.0914  0.3727 -0.1454
 2933TIP3    H130434   4.798   6.373   0.349  1.6113 -1.3781  0.6101
 2933TIP3    H230435   4.721   6.356   0.477  0.8662  1.1613  0.5616
 2934TIP3   OH230436   5.654   1.983   1.890 -0.3881 -0.0524  0.0825
 2934TIP3    H130437   5.675   1.938   1.808  1.5595  0.0771  0.4472
 2934TIP3    H230438   5.609   1.917   1.943  0.7372 -0.9938 -0.0988
 2935TIP3   OH230439   0.830   0.505   1.306 -0.0209 -0.1991  0.1242
 2935TIP3    H130440   0.882   0.456   1.370  0.2958 -1.3473 -0.9661
 2935TIP3    H230441   0.781   0.438   1.259  3.4645 -0.1717 -4.2601
 2936TIP3   OH230442   5.296   1.092   1.238 -0.1744  0.5537  0.2252
 2936TIP3    H130443   5.224   1.035   1.265  1.7053 -1.4888  1.2345
 2936TIP3    H230444   5.368   1.032   1.218  1.5076  2.5372 -0.0339
 2937TIP3   OH230445   1.605   3.296   8.398  0.6410  0.5246 -0.0678
 2937TIP3    H130446   1.661   3.256   8.332  0.5189  0.2597 -0.0141
 2937TIP3    H230447   1.580   3.381   8.361 -1.6365 -0.6908 -1.6055
 2938TIP3   OH230448   3.706   3.731   7.047  0.3732 -0.5399  0.2657
 2938TIP3    H130449   3.757   3.723   6.967 -1.3808 -1.0050 -0.8684
 2938TIP3    H230450   3.736   3.659   7.103  0.9431 -0.8005 -0.3663
 2939TIP3   OH230451   6.813   3.299   8.455  0.1841  0.1870  0.3740
 2939TIP3    H130452   6.768   3.265   8.377  2.5931 -0.3403 -0.8808
 2939TIP3    H230453   6.904   3.273   8.443  0.7064  0.4572  3.2234
 2940TIP3   OH230454   5.585   6.702   1.231  0.1216 -0.2125  0.0812
 2940TIP3    H130455   5.584   6.608   1.216 -0.4475 -0.2710  0.4515
 2940TIP3    H230456   5.511   6.718   1.289 -0.1322  0.5377 -0.4288
 2941TIP3   OH230457   2.398   5.148   1.144 -0.1301 -0.5861 -0.1202
 2941TIP3    H130458   2.380   5.158   1.237 -0.2730 -1.6346 -0.0215
 2941TIP3    H230459   2.394   5.237   1.109  0.4518 -0.1109  0.9619
 2942TIP3   OH230460   2.156   6.264   0.726 -0.2315 -0.9164  0.5816
 2942TIP3    H130461   2.111   6.268   0.810  1.0383 -0.6245  1.2668
 2942TIP3    H230462   2.249   6.262   0.748  0.1085 -2.8084 -0.7444
 2943TIP3   OH230463   3.621   1.939   2.110 -0.8737 -0.4356 -0.5747
 2943TIP3    H130464   3.677   1.864   2.129  0.0365  0.1948 -0.7616
 2943TIP3    H230465   3.580   1.918   2.026 -2.5214 -1.8220  0.4971
 2944TIP3   OH230466   2.659   3.036   8.410  0.1673  0.0097 -0.4064
 2944TIP3    H130467   2.753   3.046   8.399  0.3205 -1.0363 -0.0926
 2944TIP3    H230468   2.635   3.102   8.475  1.1767 -1.6546  1.7702
 2945TIP3   OH230469   0.091   3.150   8.062 -0.1043 -0.4638  0.3767
 2945TIP3    H130470   0.183   3.164   8.082 -0.3382  0.9864  0.5498
 2945TIP3    H230471   0.061   3.089   8.129  0.2867  0.5575  1.5210
 2946TIP3   OH230472   2.882   3.916   0.436 -1.2146 -0.5055 -0.1596
 2946TIP3    H130473   2.795   3.877   0.439 -0.5964 -2.0731 -1.1950
 2946TIP3    H230474   2.868   4.003   0.398 -2.0942 -1.6964 -2.8567
 2947TIP3   OH230475   3.307   0.302   7.210  0.5142  0.3212 -0.0487
 2947TIP3    H130476   3.293   0.232   7.146 -3.2309  1.2589 -0.4583
 2947TIP3    H230477   3.400   0.323   7.203  1.4060 -3.3216 -1.1774
 2948TIP3   OH230478   6.486   2.032   2.518 -0.7359  0.1791  0.0106
 2948TIP3    H130479   6.564   1.977   2.514 -0.5202  0.4704  0.1052
 2948TIP3    H230480   6.455   2.036   2.427 -0.9828 -0.4122  0.0647
 2949TIP3   OH230481   1.224   3.913   7.901  0.1433  0.1395 -0.1472
 2949TIP3    H130482   1.251   3.974   7.832 -1.0614  1.8088  0.7687
 2949TIP3    H230483   1.258   3.953   7.982 -1.2526 -0.0078  0.5478
 2950TIP3   OH230484   5.444   6.542   1.591 -0.3615 -0.1226 -0.2720
 2950TIP3    H130485   5.509   6.600   1.551  0.4349 -0.4638  0.4881
 2950TIP3    H230486   5.423   6.584   1.675  1.0204 -1.4233  0.7784
 2951TIP3   OH230487   2.734   4.107   7.973 -0.9884 -0.1284 -0.1690
 2951TIP3    H130488   2.774   4.087   8.058  0.4381 -0.0172 -0.7737
 2951TIP3    H230489   2.659   4.163   7.994 -0.3561  0.3230  0.9977
 2952TIP3   OH230490   1.288   4.492   7.584 -0.0614  0.4794 -0.3057
 2952TIP3    H130491   1.314   4.579   7.615  0.2483 -0.0862  1.0991
 2952TIP3    H230492   1.220   4.464   7.645  0.7440 -0.7866  0.0511
 2953TIP3   OH230493   1.700   5.614   7.449 -0.3956 -0.4188  0.5107
 2953TIP3    H130494   1.679   5.646   7.361  0.4280 -1.1403  0.0378
 2953TIP3    H230495   1.670   5.684   7.508 -1.0682  0.0169 -0.3262
 2954TIP3   OH230496   3.388   3.672   0.169 -0.5737 -0.2786  0.0233
 2954TIP3    H130497   3.345   3.712   0.093 -0.7631  0.7895  0.6649
 2954TIP3    H230498   3.316   3.657   0.231 -0.3158 -0.4157  0.2901
 2955TIP3   OH230499   2.819   0.736   7.996 -0.0854 -0.3876  0.3107
 2955TIP3    H130500   2.838   0.653   8.040  1.8608  0.9821  2.2973
 2955TIP3    H230501   2.823   0.715   7.903 -0.0296 -2.5880  0.7562
 2956TIP3   OH230502   0.712   2.240   6.841  0.3082 -0.2950  0.3952
 2956TIP3    H130503   0.696   2.154   6.879 -0.7183 -0.2037  0.2130
 2956TIP3    H230504   0.798   2.233   6.800  0.2688 -1.2039  0.4517
 2957TIP3   OH230505   0.696   4.095   6.083  1.0029 -0.0447  0.4173
 2957TIP3    H130506   0.725   4.174   6.037 -0.3018  0.7269  0.8609
 2957TIP3    H230507   0.765   4.031   6.067  2.1038  1.1887  0.0592
 2958TIP3   OH230508   3.977   5.903   1.809  0.0011 -0.1207  0.2738
 2958TIP3    H130509   4.029   5.983   1.810  1.3392 -0.9142 -1.1965
 2958TIP3    H230510   3.982   5.869   1.898 -0.1056  1.1164  0.7653
 2959TIP3   OH230511   6.704   2.049   6.750  0.0892 -0.2269  0.4147
 2959TIP3    H130512   6.676   2.047   6.659  1.7058 -1.4175 -0.1076
 2959TIP3    H230513   6.623   2.047   6.801 -0.8215 -0.0574 -0.9772
 2960TIP3   OH230514   1.739   5.240   7.269  0.1373  0.0489  0.0795
 2960TIP3    H130515   1.663   5.299   7.268  0.2210  0.1531 -0.1669
 2960TIP3    H230516   1.779   5.251   7.183 -0.2404 -0.8982 -0.2249
 2961TIP3   OH230517   6.472   1.598   0.327 -0.2454  0.5296  0.3942
 2961TIP3    H130518   6.509   1.595   0.415  1.4917  0.7035 -0.2747
 2961TIP3    H230519   6.401   1.662   0.333 -0.8505 -0.2444  1.8854
 2962TIP3   OH230520   5.100   5.518   0.944  0.7104 -0.2637 -0.0634
 2962TIP3    H130521   5.044   5.583   0.987  0.7604 -0.5139  0.3857
 2962TIP3    H230522   5.119   5.556   0.858  1.0979  0.5085  0.3607
 2963TIP3   OH230523   4.886   5.027   7.477 -0.2710 -0.7555  0.4804
 2963TIP3    H130524   4.968   4.981   7.492 -0.6630 -1.4079  0.6683
 2963TIP3    H230525   4.821   4.958   7.464 -0.5152 -0.2474 -1.2805
 2964TIP3   OH230526   0.814   5.798   1.851  0.1561 -0.5245  0.5980
 2964TIP3    H130527   0.825   5.893   1.864 -0.3684  0.2046 -3.1497
 2964TIP3    H230528   0.901   5.769   1.822 -0.0909 -0.8697  0.2116
 2965TIP3   OH230529   3.831   4.963   6.072 -0.5659 -0.0039  0.7128
 2965TIP3    H130530   3.903   4.947   6.133 -0.2001 -0.8175  0.0854
 2965TIP3    H230531   3.853   5.047   6.030 -0.0223 -0.2133  0.5759
 2966TIP3   OH230532   4.768   5.344   2.208  0.0230 -0.0158  0.2260
 2966TIP3    H130533   4.672   5.345   2.208  0.0219  0.1144  0.6374
 2966TIP3    H230534   4.792   5.305   2.124 -0.3857  0.2190  0.0018
 2967TIP3   OH230535   0.559   2.438   1.581 -0.0142  0.1242 -0.0929
 2967TIP3    H130536   0.476   2.416   1.622  0.2130 -1.2025 -0.2684
 2967TIP3    H230537   0.541   2.435   1.487 -0.4207  2.6744 -0.1556
 2968TIP3   OH230538   3.990   0.133   0.447 -0.1756 -0.1598 -0.1784
 2968TIP3    H130539   3.908   0.129   0.398 -0.0184 -1.2948 -0.3640
 2968TIP3    H230540   4.045   0.192   0.395 -0.1327 -1.0668 -1.1993
 2969TIP3   OH230541   0.362   2.227   6.790 -0.3526  0.0444 -0.1177
 2969TIP3    H130542   0.300   2.199   6.723  0.2773 -1.3627 -0.1438
 2969TIP3    H230543   0.403   2.305   6.753 -0.3971 -0.4014 -1.1554
 2970TIP3   OH230544   1.873   3.894   6.683  0.4036  0.3960  0.0221
 2970TIP3    H130545   1.812   3.870   6.753 -0.3156  0.2669 -0.6378
 2970TIP3    H230546   1.944   3.830   6.690 -0.5050 -0.6958 -0.4445
 2971TIP3   OH230547   3.071   1.473   0.914  0.0719  0.2782  0.4787
 2971TIP3    H130548   3.113   1.483   0.829 -1.3906  0.4172 -0.2590
 2971TIP3    H230549   3.039   1.561   0.936 -0.1708  0.1056  0.8330
 2972TIP3   OH230550   1.579   0.382   7.624  0.3033 -0.0911 -0.2968
 2972TIP3    H130551   1.561   0.291   7.599 -0.4469  0.0979 -0.4533
 2972TIP3    H230552   1.599   0.425   7.541  0.0749  0.0210 -0.2928
 2973TIP3   OH230553   0.230   5.078   0.306  0.0016  0.1626 -0.0399
 2973TIP3    H130554   0.257   5.106   0.393 -0.0706 -0.9537  0.3642
 2973TIP3    H230555   0.182   5.153   0.270 -1.0825  0.2010  1.3850
 2974TIP3   OH230556   5.606   2.719   7.214 -0.1452 -0.6330  0.2864
 2974TIP3    H130557   5.594   2.628   7.185 -2.0000  0.2024 -1.9518
 2974TIP3    H230558   5.528   2.764   7.181  0.0724  1.5468  2.5024
 2975TIP3   OH230559   0.577   3.498   6.468 -0.7680 -0.0528  0.5534
 2975TIP3    H130560   0.671   3.484   6.476 -0.4518  1.2516 -0.5328
 2975TIP3    H230561   0.540   3.460   6.548  0.6427 -0.7597  0.9051
 2976TIP3   OH230562   1.339   1.851   7.827  0.1926 -0.0740 -0.3974
 2976TIP3    H130563   1.342   1.841   7.922  0.3191  0.8920 -0.2848
 2976TIP3    H230564   1.308   1.941   7.814  1.0046  0.0954 -1.2556
 2977TIP3   OH230565   2.291   0.204   7.009 -0.4530 -0.2504 -0.0324
 2977TIP3    H130566   2.337   0.120   7.011 -0.2107 -0.1070  1.0243
 2977TIP3    H230567   2.349   0.262   6.960  0.4314 -0.1234  1.1244
 2978TIP3   OH230568   3.486   2.854   7.117 -0.7761  0.3261 -1.1022
 2978TIP3    H130569   3.449   2.927   7.168 -2.2880 -0.5715 -0.8676
 2978TIP3    H230570   3.534   2.802   7.182 -2.8983 -0.9487 -0.4497
 2979TIP3   OH230571   5.991   5.336   2.384 -0.0072  0.1012  0.3277
 2979TIP3    H130572   5.974   5.249   2.421 -0.8086 -0.0198 -0.3071
 2979TIP3    H230573   6.014   5.319   2.293  1.6773  0.4202  0.6535
 2980TIP3   OH230574   5.199   4.782   7.033  0.5996 -0.1891 -0.2193
 2980TIP3    H130575   5.191   4.704   7.088  1.1340 -0.3014 -0.2888
 2980TIP3    H230576   5.145   4.848   7.076  0.0400 -0.6390 -0.2328
 2981TIP3   OH230577   3.272   6.845   0.433 -0.1097 -0.3199  0.4124
 2981TIP3    H130578   3.250   6.937   0.449 -1.4587 -0.4869 -0.3344
 2981TIP3    H230579   3.367   6.842   0.440 -0.0502  1.0947  0.6306
 2982TIP3   OH230580   6.094   5.246   8.383 -0.7940 -0.0324  0.4320
 2982TIP3    H130581   6.076   5.205   8.468  0.3262  0.6074  1.0204
 2982TIP3    H230582   6.043   5.327   8.385 -1.1331 -0.2434  0.2972
 2983TIP3   OH230583   4.612   3.917   8.396 -0.2013  0.1860 -0.4229
 2983TIP3    H130584   4.604   3.902   8.302  1.8458 -0.6944 -0.5130
 2983TIP3    H230585   4.703   3.943   8.409 -0.7660  1.5661  1.1863
 2984TIP3   OH230586   3.698   2.065   7.004  0.0608  0.3943  0.1253
 2984TIP3    H130587   3.643   2.047   6.928 -1.4963  1.3790  0.9468
 2984TIP3    H230588   3.643   2.121   7.060  2.2222  2.1540  0.6103
 2985TIP3   OH230589   3.867   0.474   8.229  0.3332 -0.0556 -0.3536
 2985TIP3    H130590   3.837   0.549   8.177  2.3126  0.4757 -0.8466
 2985TIP3    H230591   3.893   0.512   8.313  1.3859 -0.1471 -0.6213
 2986TIP3   OH230592   6.241   6.367   0.832  0.0891 -0.2294 -0.2363
 2986TIP3    H130593   6.215   6.278   0.807 -2.0119 -0.1718  1.4322
 2986TIP3    H230594   6.289   6.400   0.757 -1.6391 -1.7266 -2.1213
 2987TIP3   OH230595   2.580   4.862   6.881  0.2860 -0.4307  0.0377
 2987TIP3    H130596   2.577   4.777   6.926 -1.4464  0.6451  2.1895
 2987TIP3    H230597   2.512   4.856   6.814 -0.1824 -0.6010  0.5172
 2988TIP3   OH230598   4.702   5.296   1.309  0.0763  0.1204  0.1737
 2988TIP3    H130599   4.715   5.203   1.290  0.8454 -0.0643  1.4668
 2988TIP3    H230600   4.610   5.312   1.286 -0.1313 -1.0067  0.1306
 2989TIP3   OH230601   0.530   5.647   8.221  0.0173  0.2442  0.2946
 2989TIP3    H130602   0.550   5.557   8.194 -1.8593 -0.0592 -0.3049
 2989TIP3    H230603   0.605   5.698   8.193  1.0455 -1.1058  0.4736
 2990TIP3   OH230604   0.609   3.259   2.094  0.0537  0.2565 -0.0253
 2990TIP3    H130605   0.543   3.309   2.046 -0.8332 -3.2729 -2.8570
 2990TIP3    H230606   0.693   3.298   2.068 -0.6535  1.4277 -0.6187
 2991TIP3   OH230607   0.259   6.048   7.311  0.7283  0.6709 -0.3887
 2991TIP3    H130608   0.246   5.954   7.297 -0.4888  0.6849  0.5148
 2991TIP3    H230609   0.195   6.072   7.377  1.1109  2.1261 -0.5048
 2992TIP3   OH230610   3.282   1.149   8.369 -0.1316 -0.0698  0.1714
 2992TIP3    H130611   3.228   1.217   8.329  0.6480  1.3337  1.3986
 2992TIP3    H230612   3.368   1.160   8.329 -0.3468 -1.2918 -0.6616
 2993TIP3   OH230613   1.069   4.665   7.762 -0.4653 -0.1734  1.0794
 2993TIP3    H130614   0.995   4.651   7.703 -1.1574  0.4536  1.7779
 2993TIP3    H230615   1.144   4.679   7.704 -1.4348  2.0821  0.2944
 2994TIP3   OH230616   1.655   0.900   7.191  0.2372  0.5376 -0.3937
 2994TIP3    H130617   1.738   0.855   7.207  0.2231  0.4908 -0.4507
 2994TIP3    H230618   1.681   0.987   7.159  0.3060  1.6560  2.4452
 2995TIP3   OH230619   0.507   3.548   0.955 -0.1836  0.2292 -0.4612
 2995TIP3    H130620   0.570   3.498   1.006  0.5481  1.1188 -0.4604
 2995TIP3    H230621   0.424   3.540   1.004  0.1142 -0.3113 -0.0424
 2996TIP3   OH230622   1.254   6.581   0.112  0.1719 -0.3205  0.0340
 2996TIP3    H130623   1.159   6.589   0.124 -0.2454 -0.5442 -2.5550
 2996TIP3    H230624   1.291   6.644   0.174 -1.5810 -0.9226  1.8197
 2997TIP3   OH230625   1.149   3.322   7.772  0.2661  0.0577  0.2969
 2997TIP3    H130626   1.134   3.411   7.741  2.2741 -0.0892 -1.2834
 2997TIP3    H230627   1.210   3.284   7.709  0.3429 -2.0746  1.5511
 2998TIP3   OH230628   1.701   0.325   6.128 -0.1664 -0.3510 -0.4030
 2998TIP3    H130629   1.733   0.399   6.180 -0.0152 -0.5137 -0.2638
 2998TIP3    H230630   1.606   0.333   6.130 -0.1926 -0.8265  0.5919
 2999TIP3   OH230631   0.871   5.536   8.408  0.1638 -0.5336 -0.8211
 2999TIP3    H130632   0.858   5.442   8.395  0.1284 -0.7054  0.3502
 2999TIP3    H230633   0.789   5.566   8.448  0.5153 -0.1740 -0.3682
 3000TIP3   OH230634   3.854   6.699   1.522  0.0317  0.0006  0.6320
 3000TIP3    H130635   3.820   6.783   1.553 -2.3654 -0.9845  0.9333
 3000TIP3    H230636   3.776   6.643   1.516  1.4992 -2.0989  0.1121
 3001TIP3   OH230637   6.131   3.267   2.484  0.3536  0.4695 -0.3419
 3001TIP3    H130638   6.169   3.211   2.551  0.0806 -0.8626 -1.2453
 3001TIP3    H230639   6.188   3.257   2.408  0.3320  1.4818 -0.5112
 3002TIP3   OH230640   5.376   0.403   6.984 -0.0477 -0.0688  0.2507
 3002TIP3    H130641   5.458   0.430   7.027  0.0807  1.3242 -0.7956
 3002TIP3    H230642   5.388   0.310   6.968  1.4674  0.1410 -0.0841
 3003TIP3   OH230643   5.897   4.784   2.579  0.5214 -0.4978 -0.4649
 3003TIP3    H130644   5.808   4.817   2.576  1.2563  1.5541 -0.9740
 3003TIP3    H230645   5.890   4.692   2.551 -1.4484 -0.4893 -0.0822
 3004TIP3   OH230646   4.733   5.372   0.277  0.3198 -0.6386 -0.2965
 3004TIP3    H130647   4.680   5.317   0.220  0.7032 -1.0510 -0.2586
 3004TIP3    H230648   4.805   5.315   0.305  1.5795  0.3157 -1.4832
 3005TIP3   OH230649   6.823   3.774   7.834  0.6109 -0.6348 -0.2080
 3005TIP3    H130650   6.911   3.788   7.800 -0.0415 -0.9948 -2.2148
 3005TIP3    H230651   6.816   3.680   7.848  0.2383 -0.7543 -1.0899
 3006TIP3   OH230652   4.589   0.756   2.062  0.0231  0.7017 -0.1967
 3006TIP3    H130653   4.533   0.693   2.015 -2.1378  2.4205 -0.0933
 3006TIP3    H230654   4.594   0.832   2.003 -0.0496  1.6403  0.9674
 3007TIP3   OH230655   6.132   2.287   7.111  0.8664 -0.3101  0.6680
 3007TIP3    H130656   6.158   2.202   7.076  0.9905  0.2339 -0.5956
 3007TIP3    H230657   6.209   2.342   7.099  0.4215  0.2746  0.4891
 3008TIP3   OH230658   6.696   2.667   8.482 -0.1780  0.3533 -0.2327
 3008TIP3    H130659   6.602   2.648   8.472 -0.6497  0.6698  2.7326
 3008TIP3    H230660   6.711   2.741   8.423 -1.7505  0.1838 -0.9086
 3009TIP3   OH230661   3.702   2.712   6.731  0.0699 -0.1205 -0.1694
 3009TIP3    H130662   3.682   2.620   6.749 -2.7270  0.2342 -0.9010
 3009TIP3    H230663   3.671   2.727   6.642  0.8006  1.4517 -0.2009
 3010TIP3   OH230664   5.261   2.105   7.728  0.3903 -0.1403 -0.1030
 3010TIP3    H130665   5.340   2.079   7.681 -0.3315 -1.0173 -0.8663
 3010TIP3    H230666   5.228   2.024   7.766  0.2071  0.3321  0.7731
 3011TIP3   OH230667   5.516   3.658   7.609 -0.1767  0.3345 -0.6080
 3011TIP3    H130668   5.608   3.660   7.583  0.3460  4.3776  0.9649
 3011TIP3    H230669   5.516   3.614   7.694 -0.0792 -1.4356 -1.4722
 3012TIP3   OH230670   4.806   1.654   6.643  0.4219  0.4128 -0.2446
 3012TIP3    H130671   4.738   1.720   6.629 -1.2313 -1.2403 -0.3316
 3012TIP3    H230672   4.825   1.619   6.556 -0.6188 -1.0156  0.0766
 3013TIP3   OH230673   4.411   0.247   2.460  0.1796  0.1232  0.1316
 3013TIP3    H130674   4.367   0.308   2.520  2.4445  0.7043  1.2903
 3013TIP3    H230675   4.443   0.303   2.389 -1.5812 -0.4225 -1.1758
 3014TIP3   OH230676   4.370   0.462   7.717 -0.1333 -0.2286 -0.0394
 3014TIP3    H130677   4.333   0.438   7.802  1.8512  0.9101  1.2296
 3014TIP3    H230678   4.430   0.534   7.736 -0.4057  0.7752 -2.5971
 3015TIP3   OH230679   5.628   3.356   1.031  0.3466 -0.0728 -0.0439
 3015TIP3    H130680   5.570   3.321   1.098 -0.6781 -0.7836 -1.2430
 3015TIP3    H230681   5.581   3.432   0.995  0.9137  0.3451  0.0764
 3016TIP3   OH230682   4.120   4.173   7.562 -0.9006 -0.1633 -0.0624
 3016TIP3    H130683   4.193   4.132   7.516 -0.3137  2.8836 -2.1188
 3016TIP3    H230684   4.117   4.129   7.647  2.5840 -1.1507 -0.3246
 3017TIP3   OH230685   1.721   3.351   0.095 -0.1800 -0.1920  0.5359
 3017TIP3    H130686   1.662   3.356   0.170 -0.0255 -0.8856  0.7030
 3017TIP3    H230687   1.797   3.302   0.126 -0.0403 -0.3382 -0.0200
 3018TIP3   OH230688   2.987   2.277   1.010 -0.3302 -0.2271 -0.1352
 3018TIP3    H130689   2.974   2.236   1.096  0.2988  1.1597  0.6592
 3018TIP3    H230690   2.912   2.248   0.958 -1.1130 -0.5126  1.1069
 3019TIP3   OH230691   5.674   0.779   0.335  0.3868 -0.4684  0.3283
 3019TIP3    H130692   5.639   0.695   0.306 -3.2454  1.0680 -0.3435
 3019TIP3    H230693   5.617   0.805   0.407 -0.2562  2.4157 -1.0627
 3020TIP3   OH230694   3.363   4.180   6.167  0.2287 -0.4209 -0.0001
 3020TIP3    H130695   3.412   4.255   6.136  0.9285 -0.5431  0.7635
 3020TIP3    H230696   3.321   4.210   6.248  0.4406 -0.8243  0.2620
 3021TIP3   OH230697   4.185   0.396   7.929  0.1550 -1.0777 -0.1773
 3021TIP3    H130698   4.123   0.379   7.858 -1.9680  1.8538  0.7678
 3021TIP3    H230699   4.146   0.355   8.006 -1.4774  1.8072  0.6870
 3022TIP3   OH230700   3.154   1.223   0.974 -0.7610  0.7747  0.4261
 3022TIP3    H130701   3.147   1.315   0.949  1.4362  0.4774 -1.5841
 3022TIP3    H230702   3.187   1.226   1.064 -0.2884  1.9778  0.2377
 3023TIP3   OH230703   6.600   4.389   0.134 -0.7939 -0.1128  0.4665
 3023TIP3    H130704   6.605   4.392   0.039  0.4443 -1.1969  0.4727
 3023TIP3    H230705   6.546   4.312   0.153 -0.3675 -0.3761  0.6357
 3024TIP3   OH230706   5.062   0.058   0.941  0.6650 -0.3510  0.1126
 3024TIP3    H130707   5.094  -0.004   1.007  0.4135 -2.7701 -1.9264
 3024TIP3    H230708   5.142   0.091   0.899  0.7439 -1.0946 -0.3399
 3025TIP3   OH230709   3.189   0.899   7.656 -0.2735  0.1863  0.6488
 3025TIP3    H130710   3.193   0.811   7.620 -1.1544 -0.6554  2.4805
 3025TIP3    H230711   3.169   0.955   7.581 -1.4939 -1.3945 -0.2712
 3026TIP3   OH230712   1.046   6.820   1.322  0.3191 -0.6885 -0.7729
 3026TIP3    H130713   1.076   6.829   1.413  0.9398 -2.5080 -0.7665
 3026TIP3    H230714   1.116   6.772   1.278  0.4082  0.8830 -2.4586
 3027TIP3   OH230715   0.253   6.771   8.232  0.1878 -0.2397  0.0652
 3027TIP3    H130716   0.285   6.817   8.155  1.6804 -0.2193  0.6638
 3027TIP3    H230717   0.330   6.764   8.290 -0.0811 -3.0175  0.2292
 3028TIP3   OH230718   2.997   3.501   8.361 -0.1202  0.0161 -0.1703
 3028TIP3    H130719   3.012   3.452   8.441 -1.6987 -1.6950 -0.8596
 3028TIP3    H230720   3.083   3.504   8.318  0.3739 -0.5129  0.7668
 3029TIP3   OH230721   4.349   3.359   0.937  0.1034 -0.6827  0.4093
 3029TIP3    H130722   4.383   3.416   0.868 -0.2518 -0.9026  0.0482
 3029TIP3    H230723   4.275   3.408   0.974 -0.2062 -0.9098  0.0946
 3030TIP3   OH230724   5.917   3.856   6.778 -0.0999  0.0426  0.2342
 3030TIP3    H130725   5.955   3.790   6.720 -0.0621  0.2861 -0.0183
 3030TIP3    H230726   5.868   3.914   6.720  0.5329  0.7041  0.3561
 3031TIP3   OH230727   0.906   3.283   0.631  0.0901 -0.8393  0.1345
 3031TIP3    H130728   0.834   3.222   0.618 -0.3948 -0.4968  1.1322
 3031TIP3    H230729   0.981   3.228   0.654 -0.1218 -1.1148  0.1643
 3032TIP3   OH230730   4.728   0.419   8.510  0.1245 -0.3261 -0.3097
 3032TIP3    H130731   4.753   0.426   8.418 -0.9093  0.3867 -0.5498
 3032TIP3    H230732   4.810   0.404   8.556  0.6536 -0.7332 -1.3484
 3033TIP3   OH230733   3.959   0.241   7.261  0.0429 -0.1592  0.0694
 3033TIP3    H130734   3.876   0.214   7.222  0.3982  1.3266 -1.8762
 3033TIP3    H230735   3.934   0.304   7.329 -0.5234 -1.8141  1.4574
 3034TIP3   OH230736   5.579   6.872   7.568  0.6500 -0.0038  0.6336
 3034TIP3    H130737   5.655   6.865   7.625  0.5631  0.9329  0.8882
 3034TIP3    H230738   5.505   6.885   7.629  0.4822  0.4688  0.3352
 3035TIP3   OH230739   1.838   6.326   0.087 -0.1943  0.6131 -0.1250
 3035TIP3    H130740   1.760   6.326   0.143  0.9281 -2.0641  1.6670
 3035TIP3    H230741   1.870   6.236   0.092  2.7195  1.4864 -1.2494
 3036TIP3   OH230742   1.872   2.422   7.616  0.3080 -0.6833 -0.3560
 3036TIP3    H130743   1.885   2.514   7.592 -2.6974 -0.0423  0.0331
 3036TIP3    H230744   1.922   2.373   7.551  0.7725  1.2077 -1.5139
 3037TIP3   OH230745   2.164   1.687   6.943 -0.1615 -0.2934 -0.4221
 3037TIP3    H130746   2.235   1.719   6.999 -1.0442  0.5352  0.2578
 3037TIP3    H230747   2.112   1.629   6.999 -0.9794  0.4388 -0.4030
 3038TIP3   OH230748   5.587   5.029   6.864  0.4310 -0.0048 -0.1903
 3038TIP3    H130749   5.593   5.119   6.896  2.7944 -0.8378  2.0135
 3038TIP3    H230750   5.619   5.034   6.773 -1.0474  1.5799 -0.6599
 3039TIP3   OH230751   2.173   2.640   6.813  0.2772 -0.1051  0.1384
 3039TIP3    H130752   2.177   2.573   6.746 -1.5093  0.2220 -0.3553
 3039TIP3    H230753   2.264   2.666   6.828  0.6887  0.3378 -2.6861
 3040TIP3   OH230754   0.101   2.157   8.617  0.0093 -0.2684 -0.1061
 3040TIP3    H130755   0.107   2.127   8.526 -2.5330  1.3433 -0.8768
 3040TIP3    H230756   0.057   2.241   8.613 -1.1132 -0.5970  2.7079
 3041TIP3   OH230757   5.741   6.594   8.408 -0.3562  0.6076  0.1957
 3041TIP3    H130758   5.765   6.612   8.499 -2.5964 -2.1942  1.5009
 3041TIP3    H230759   5.785   6.512   8.386  0.0438  1.1743 -1.2550
 3042TIP3   OH230760   3.862   6.643   6.307  0.0617  0.0147 -0.1314
 3042TIP3    H130761   3.839   6.606   6.221  0.5071  2.5688 -1.4351
 3042TIP3    H230762   3.784   6.690   6.335  0.9743  2.0093 -0.7829
 3043TIP3   OH230763   0.082   3.049   8.576 -0.0135 -0.2387 -0.0339
 3043TIP3    H130764   0.006   3.083   8.624  0.4992  0.1204  0.5280
 3043TIP3    H230765   0.154   3.055   8.638  0.8848  1.1352 -1.1617
 3044TIP3   OH230766   5.559   0.544   7.600 -0.0689  0.8788  0.2896
 3044TIP3    H130767   5.472   0.504   7.598 -0.5115  1.7588  1.1016
 3044TIP3    H230768   5.619   0.471   7.613 -0.8451  0.4529  1.6220
 3045TIP3   OH230769   5.443   5.069   8.207  0.2819  0.0243 -0.0850
 3045TIP3    H130770   5.537   5.058   8.192  0.8189 -2.3426  3.5725
 3045TIP3    H230771   5.406   4.983   8.188 -1.4968  1.2490 -2.6934
 3046TIP3   OH230772   6.166   3.380   7.348  0.0267  0.3815  0.3619
 3046TIP3    H130773   6.135   3.385   7.257  0.2937  1.1940  0.2988
 3046TIP3    H230774   6.225   3.456   7.356  1.0136 -0.4121  0.8343
 3047TIP3   OH230775   6.880   4.144   1.995  0.6582 -0.7513 -0.2777
 3047TIP3    H130776   6.836   4.067   1.959  0.1095 -1.6492  2.1223
 3047TIP3    H230777   6.944   4.109   2.057  0.1960  0.6870  1.0900
 3048TIP3   OH230778   2.259   0.510   6.616 -0.2389 -0.7867 -0.2125
 3048TIP3    H130779   2.352   0.488   6.627  0.0634 -0.2588 -1.5554
 3048TIP3    H230780   2.254   0.549   6.529 -1.6337 -0.2852  0.0744
 3049TIP3   OH230781   0.397   4.139   8.237  0.1754  0.0006 -0.3201
 3049TIP3    H130782   0.394   4.177   8.149  0.6218 -1.1396 -0.8431
 3049TIP3    H230783   0.469   4.185   8.280  1.2158 -0.7486 -1.2025
 3050TIP3   OH230784   0.536   5.331   1.416 -0.6418 -0.8476 -0.1477
 3050TIP3    H130785   0.553   5.317   1.323 -0.8586 -0.8529 -0.1870
 3050TIP3    H230786   0.622   5.332   1.457 -0.1636  2.9997 -0.8701
 3051TIP3   OH230787   4.031   5.016   0.837 -0.1702 -0.2499  0.4031
 3051TIP3    H130788   4.098   5.069   0.795  1.5731 -1.9783  0.8265
 3051TIP3    H230789   4.014   4.944   0.776 -1.1735 -0.2016  0.5966
 3052TIP3   OH230790   3.196   6.669   0.217 -0.8738  0.1386  0.0963
 3052TIP3    H130791   3.108   6.644   0.191 -1.0705  1.0477 -0.1474
 3052TIP3    H230792   3.183   6.733   0.287 -0.3738 -1.1626  1.4474
 3053TIP3   OH230793   3.136   0.316   1.327 -0.0948 -0.1978  0.4715
 3053TIP3    H130794   3.104   0.326   1.417  1.3023 -1.3749  1.1392
 3053TIP3    H230795   3.232   0.320   1.335  0.1339 -2.0840 -0.6925
 3054TIP3   OH230796   0.727   6.325   0.173  0.2181 -0.2916  0.2558
 3054TIP3    H130797   0.799   6.277   0.213  0.6422  0.5056  0.4636
 3054TIP3    H230798   0.697   6.385   0.241 -0.1059 -0.0448 -0.1002
 3055TIP3   OH230799   5.712   5.340   1.301 -0.1072 -0.2837 -0.3074
 3055TIP3    H130800   5.625   5.335   1.340 -1.7303 -0.7905 -3.5776
 3055TIP3    H230801   5.710   5.421   1.249  1.9447  0.4614  0.6817
 3056TIP3   OH230802   5.055   4.251   6.961  0.1588 -0.6685 -0.2447
 3056TIP3    H130803   5.116   4.182   6.934  0.7224 -0.2282 -0.1276
 3056TIP3    H230804   4.968   4.214   6.947  0.4473 -1.7384  0.6447
 3057TIP3   OH230805   5.877   6.319   0.043  0.4388  0.3488 -0.1836
 3057TIP3    H130806   5.954   6.288   0.090 -1.1017 -1.3703  1.4124
 3057TIP3    H230807   5.839   6.386   0.100 -0.9069 -1.0534  0.6462
 3058TIP3   OH230808   5.869   1.657   8.351  0.0462  0.3999 -1.1743
 3058TIP3    H130809   5.893   1.731   8.406  0.1841  0.2204 -0.9890
 3058TIP3    H230810   5.951   1.609   8.338  0.1059  0.6856 -1.9126
 3059TIP3   OH230811   4.820   1.555   1.340 -0.6468  0.2627 -0.0900
 3059TIP3    H130812   4.821   1.634   1.285 -2.3013  0.2302 -0.2181
 3059TIP3    H230813   4.732   1.554   1.378 -0.4993 -1.2900  0.2525
 3060TIP3   OH230814   4.594   2.245   7.183  0.1824 -0.2514  0.4667
 3060TIP3    H130815   4.680   2.229   7.223  0.9250  3.5932  0.7700
 3060TIP3    H230816   4.543   2.288   7.252 -0.8990  0.3799 -0.6891
 3061TIP3   OH230817   6.752   3.535   7.874 -0.2868 -0.5725  0.2962
 3061TIP3    H130818   6.671   3.520   7.923 -0.3314 -1.4558 -0.0361
 3061TIP3    H230819   6.738   3.488   7.791 -0.3200  1.0722 -0.6868
 3062TIP3   OH230820   5.500   0.867   8.299  0.4434  0.0971  0.1971
 3062TIP3    H130821   5.591   0.886   8.275  1.0102 -3.4897 -0.9969
 3062TIP3    H230822   5.503   0.782   8.343 -2.1460  0.8325  2.0594
 3063TIP3   OH230823   3.497   6.398   0.043  0.8962 -0.5003  0.0987
 3063TIP3    H130824   3.474   6.337  -0.027 -0.4609  0.9075 -0.7380
 3063TIP3    H230825   3.561   6.458   0.003 -0.0973  0.4843 -0.0583
 3064TIP3   OH230826   2.194   1.386   7.603 -0.6071 -0.1703  0.1854
 3064TIP3    H130827   2.255   1.320   7.571 -0.9594  0.3955 -1.7340
 3064TIP3    H230828   2.221   1.401   7.694  2.1207  0.0660 -0.5838
 3065TIP3   OH230829   1.997   2.196   8.620 -0.2544  0.7635  0.4236
 3065TIP3    H130830   2.070   2.134   8.620  0.0019  1.0173 -1.3024
 3065TIP3    H230831   1.920   2.142   8.637  0.1542  0.2530  0.6855
 3066TIP3   OH230832   6.254   5.546   1.844  0.2832  0.1213 -0.1347
 3066TIP3    H130833   6.309   5.555   1.922  2.3442 -0.5547 -1.4138
 3066TIP3    H230834   6.305   5.587   1.774 -0.9827 -0.3044 -1.3431
 3067TIP3   OH230835   6.501   5.952   1.738  0.0605 -0.1187  0.0090
 3067TIP3    H130836   6.459   5.965   1.823 -2.1636 -1.4348 -0.7817
 3067TIP3    H230837   6.578   5.900   1.756  0.3975  0.7906  1.3445
 3068TIP3   OH230838   4.993   6.909   8.573 -0.8556 -0.2115 -0.0517
 3068TIP3    H130839   4.977   6.919   8.479 -0.4758 -0.2373 -0.1206
 3068TIP3    H230840   5.084   6.937   8.585 -0.8239 -0.4437  0.2690
 3069TIP3   OH230841   2.450   6.505   7.728  0.3535 -0.6899  0.9034
 3069TIP3    H130842   2.428   6.470   7.641 -0.0025  1.0317  0.2753
 3069TIP3    H230843   2.380   6.567   7.748  1.4867  0.4399  1.5192
 3070TIP3   OH230844   0.718   0.879   1.500  0.3157  0.0012 -0.0898
 3070TIP3    H130845   0.718   0.876   1.404 -1.4315 -2.1715 -0.0952
 3070TIP3    H230846   0.751   0.794   1.527  0.8174  0.5932  1.2652
 3071TIP3   OH230847   6.322   6.327   7.797  0.0933 -0.6519  0.5972
 3071TIP3    H130848   6.234   6.321   7.834 -1.4966  0.4569 -2.6086
 3071TIP3    H230849   6.344   6.237   7.773 -1.3144 -0.6674 -0.8137
 3072TIP3   OH230850   3.361   3.784   0.705  0.2687 -0.0978  0.0572
 3072TIP3    H130851   3.345   3.787   0.610 -3.9379  0.9958  0.5828
 3072TIP3    H230852   3.400   3.698   0.720  2.0835  0.1099 -2.6876
 3073TIP3   OH230853   5.735   4.667   2.256  0.3208  0.0536 -0.4747
 3073TIP3    H130854   5.646   4.634   2.273 -0.5536  2.5858  0.3089
 3073TIP3    H230855   5.788   4.630   2.326 -0.1108 -1.4011 -0.8804
 3074TIP3   OH230856   3.892   2.120   1.595  0.0995  0.0773 -0.0992
 3074TIP3    H130857   3.969   2.109   1.651 -0.3807 -1.2905  0.3121
 3074TIP3    H230858   3.913   2.198   1.542  2.3172 -0.9248 -0.8541
 3075TIP3   OH230859   1.044   0.667   1.126 -0.7669  0.5929 -0.0567
 3075TIP3    H130860   0.977   0.602   1.148 -0.2863  0.2600  0.4699
 3075TIP3    H230861   1.125   0.631   1.161 -0.0392  0.3303 -1.8984
 3076TIP3   OH230862   5.260   2.760   8.077 -0.4445 -0.1532 -0.2416
 3076TIP3    H130863   5.223   2.823   8.139 -0.7925  0.4201 -1.0091
 3076TIP3    H230864   5.284   2.812   8.001  1.6976 -0.5740  0.1030
 3077TIP3   OH230865   1.221   3.788   0.348 -0.1530  0.3325 -0.2488
 3077TIP3    H130866   1.283   3.843   0.397 -2.3389  1.2758  1.6061
 3077TIP3    H230867   1.247   3.699   0.369  1.0299  0.6807 -0.1199
 3078TIP3   OH230868   1.678   0.765   0.490  0.6527  0.1468  0.0686
 3078TIP3    H130869   1.690   0.670   0.487  0.0054  0.0667 -0.1847
 3078TIP3    H230870   1.764   0.800   0.465  1.1001 -0.3552  0.8683
 3079TIP3   OH230871   0.453   2.669   8.051  0.3668 -0.2234 -0.0028
 3079TIP3    H130872   0.519   2.699   7.989  0.6870 -0.2901  0.3027
 3079TIP3    H230873   0.378   2.727   8.037  0.7502  0.3158  0.1445
 3080TIP3   OH230874   5.804   4.392   7.033 -0.0398 -0.3902  0.5844
 3080TIP3    H130875   5.717   4.365   7.005  0.0176 -1.9317  1.7351
 3080TIP3    H230876   5.799   4.392   7.129  1.3353 -0.9668  0.6752
 3081TIP3   OH230877   4.838   1.770   0.279 -0.0226  0.1576 -0.2889
 3081TIP3    H130878   4.748   1.762   0.312 -0.4855 -0.8484 -1.6373
 3081TIP3    H230879   4.860   1.862   0.289 -1.2576  0.4434 -0.0197
 3082TIP3   OH230880   4.592   3.364   6.681  0.1617 -0.1829 -0.1677
 3082TIP3    H130881   4.501   3.392   6.670  0.2404 -0.8200 -3.1013
 3082TIP3    H230882   4.588   3.269   6.682  0.7745 -0.2103  0.0331
 3083TIP3   OH230883   6.543   5.475   8.419  0.1726  0.4302  0.0994
 3083TIP3    H130884   6.538   5.446   8.328  0.9293 -0.2059  0.2491
 3083TIP3    H230885   6.454   5.504   8.440 -0.0741  0.3147 -0.7489
 3084TIP3   OH230886   5.958   1.613   1.046  0.6794 -0.1677  0.3168
 3084TIP3    H130887   5.967   1.691   1.100 -0.0609  0.0748  0.1003
 3084TIP3    H230888   5.991   1.542   1.101  0.3533  0.1398  0.9155
 3085TIP3   OH230889   5.906   2.580   7.087  0.0360  0.4149  0.8513
 3085TIP3    H130890   5.830   2.585   7.028  0.2221  0.9926  0.6502
 3085TIP3    H230891   5.868   2.585   7.175 -0.1392  1.2149  0.7438
 3086TIP3   OH230892   4.281   2.312   7.139 -0.0750 -0.5237  0.1278
 3086TIP3    H130893   4.240   2.399   7.145  1.7551  0.3098  1.5228
 3086TIP3    H230894   4.282   2.281   7.230 -0.0749 -1.7132 -0.2661
 3087TIP3   OH230895   0.806   6.857   6.499 -0.0149 -0.1576 -0.5904
 3087TIP3    H130896   0.836   6.880   6.587 -0.1591  0.2964 -0.6602
 3087TIP3    H230897   0.885   6.828   6.453 -0.1428 -1.7582  0.1067
 3088TIP3   OH230898   0.419   1.777   0.857 -0.4673  0.3207  0.2404
 3088TIP3    H130899   0.338   1.725   0.859  1.5981 -3.2489  1.5864
 3088TIP3    H230900   0.417   1.828   0.938 -0.5860 -1.2152  1.2433
 3089TIP3   OH230901   4.169   5.649   1.315  0.5540  0.4804 -0.1918
 3089TIP3    H130902   4.212   5.710   1.254 -2.1852  1.4406 -1.3126
 3089TIP3    H230903   4.163   5.567   1.266 -0.7667  0.9737 -0.9062
 3090TIP3   OH230904   2.904   6.570   8.526 -0.1697 -0.2174  0.7515
 3090TIP3    H130905   2.844   6.645   8.523 -0.5539 -0.5064  1.0561
 3090TIP3    H230906   2.941   6.573   8.615 -1.0810 -1.0599  1.1873
 3091TIP3   OH230907   4.967   1.532   0.561 -0.2018  0.3159  0.1486
 3091TIP3    H130908   4.991   1.613   0.517  0.7249  0.1653  0.3677
 3091TIP3    H230909   5.018   1.464   0.516  0.1810  0.0618  0.9476
 3092TIP3   OH230910   1.900   5.385   1.851 -0.3496  0.0679 -0.2702
 3092TIP3    H130911   1.962   5.390   1.778  1.3326  1.9975  1.1831
 3092TIP3    H230912   1.927   5.307   1.900 -2.5850 -2.3147 -2.4689
 3093TIP3   OH230913   2.823   3.432   0.288 -0.3894 -0.4633 -0.2687
 3093TIP3    H130914   2.850   3.342   0.307 -1.9861 -0.9210  0.0405
 3093TIP3    H230915   2.860   3.451   0.202  0.5193 -1.1729 -0.0486
 3094TIP3   OH230916   6.747   5.944   7.345  0.0108  0.9870 -0.8427
 3094TIP3    H130917   6.743   5.978   7.256 -0.9301  1.0513 -0.7863
 3094TIP3    H230918   6.817   5.879   7.343 -2.3325 -1.7260 -2.5914
 3095TIP3   OH230919   2.461   2.064   1.450 -0.0406  0.1542  0.4364
 3095TIP3    H130920   2.490   2.008   1.377 -0.3575 -0.2519  0.6188
 3095TIP3    H230921   2.507   2.147   1.436 -2.5592  1.3067 -2.1515
 3096TIP3   OH230922   1.893   0.711   0.845  0.3069  0.1392 -0.7826
 3096TIP3    H130923   1.933   0.776   0.903 -0.3467 -0.4261  0.3358
 3096TIP3    H230924   1.844   0.763   0.781  0.1383  0.7570 -0.1584
 3097TIP3   OH230925   6.387   2.309   0.950 -0.3790 -0.5572  0.1168
 3097TIP3    H130926   6.479   2.288   0.939  1.2713  4.9713  0.0207
 3097TIP3    H230927   6.376   2.321   1.045  0.1812  2.0889 -0.0551
 3098TIP3   OH230928   6.434   5.100   8.498  0.0883 -0.1053 -0.4996
 3098TIP3    H130929   6.477   5.018   8.474 -0.3195 -0.2465 -0.7641
 3098TIP3    H230930   6.341   5.082   8.489 -0.0219  0.2384 -0.0685
 3099TIP3   OH230931   1.249   6.792   1.151  0.2261  0.1664  0.5073
 3099TIP3    H130932   1.266   6.713   1.100  0.2485 -1.0316  2.2698
 3099TIP3    H230933   1.199   6.848   1.093  0.1877 -1.1521 -0.7937
 3100TIP3   OH230934   4.223   4.870   0.652 -0.0403 -0.0356  0.2676
 3100TIP3    H130935   4.217   4.795   0.592  2.5939 -0.1144 -0.0564
 3100TIP3    H230936   4.256   4.833   0.734  0.6275  0.6454  0.3247
 3101TIP3   OH230937   6.827   6.210   0.428  1.3356 -0.6153 -0.2203
 3101TIP3    H130938   6.803   6.144   0.363  2.3335 -0.8794 -0.3388
 3101TIP3    H230939   6.779   6.186   0.507 -0.3404  0.0340 -1.0045
 3102TIP3   OH230940   2.004   4.600   2.036 -0.2427 -0.6293  0.9021
 3102TIP3    H130941   2.084   4.619   1.987 -0.0710  1.7963  1.9738
 3102TIP3    H230942   1.934   4.638   1.984 -0.1910  0.8519  1.8365
 3103TIP3   OH230943   3.882   5.336   0.802  0.2927 -0.3508  0.0811
 3103TIP3    H130944   3.914   5.392   0.731 -1.6297  0.0602 -0.5248
 3103TIP3    H230945   3.939   5.259   0.799  0.3225 -0.2991 -1.8737
 3104TIP3   OH230946   4.335   1.397   1.579 -0.5174  0.0257 -0.6725
 3104TIP3    H130947   4.311   1.406   1.672 -0.6342 -0.3159 -0.6703
 3104TIP3    H230948   4.376   1.311   1.573 -1.8460 -0.5912 -1.2209
 3105TIP3   OH230949   6.713   2.828   0.590  0.0253  0.4478  0.3889
 3105TIP3    H130950   6.725   2.827   0.685 -2.1546 -0.8705  0.7271
 3105TIP3    H230951   6.741   2.741   0.561  0.8252  0.8957 -0.2134
 3106TIP3   OH230952   0.941   4.296   7.440  0.1529  0.1785 -0.1955
 3106TIP3    H130953   0.937   4.227   7.375  2.9216  0.5319 -0.8721
 3106TIP3    H230954   0.965   4.375   7.390  2.8145  0.3662  1.1658
 3107TIP3   OH230955   6.202   1.042   0.660 -0.0679  0.3420 -0.3362
 3107TIP3    H130956   6.121   1.035   0.710  0.5125  0.9852  0.7444
 3107TIP3    H230957   6.195   1.127   0.616  0.2435  0.6462  0.1922
 3108TIP3   OH230958   2.901   1.237   8.286  0.1317 -0.9736  0.2775
 3108TIP3    H130959   2.971   1.177   8.261  0.2343  0.1452 -2.4302
 3108TIP3    H230960   2.932   1.276   8.368  2.6870 -0.6081 -0.7613
 3109TIP3   OH230961   4.077   5.092   0.499  0.6591  0.3097 -0.3132
 3109TIP3    H130962   3.998   5.080   0.445 -1.2043  0.7467  2.1658
 3109TIP3    H230963   4.104   5.003   0.521  0.3333  0.1716 -0.4558
 3110TIP3   OH230964   1.892   3.051   7.033 -0.0400  0.5316  0.5052
 3110TIP3    H130965   1.954   3.081   6.966 -0.1247  2.4059  1.2041
 3110TIP3    H230966   1.872   3.129   7.084 -1.9598 -0.3083  1.1364
 3111TIP3   OH230967   6.244   4.162   0.558  0.0618 -0.1254  0.1492
 3111TIP3    H130968   6.166   4.218   0.558  0.6793  0.9057  2.8130
 3111TIP3    H230969   6.313   4.216   0.520 -0.0797 -0.3054 -0.3645
 3112TIP3   OH230970   4.888   5.724   1.478 -0.4608  0.6402  0.0617
 3112TIP3    H130971   4.902   5.817   1.460 -0.7158  0.4307 -1.3717
 3112TIP3    H230972   4.801   5.706   1.442 -0.1814 -0.2689 -0.1944
 3113TIP3   OH230973   6.784   3.964   1.301 -0.0520 -0.1084  0.1874
 3113TIP3    H130974   6.874   3.933   1.310  0.1127  0.5420  0.8682
 3113TIP3    H230975   6.757   3.936   1.213  0.8015 -0.3238 -0.0098
 3114TIP3   OH230976   1.202   5.149   8.270 -0.2567  0.7664  0.0936
 3114TIP3    H130977   1.129   5.137   8.209 -0.2663  0.5856  0.1393
 3114TIP3    H230978   1.193   5.077   8.333 -0.0552  0.7575  0.1139
 3115TIP3   OH230979   0.163   5.705   0.434  0.4332 -0.0152 -0.8111
 3115TIP3    H130980   0.106   5.661   0.498  0.3251 -0.8876 -1.4793
 3115TIP3    H230981   0.123   5.791   0.421 -1.7083 -1.1556 -2.4359
 3116TIP3   OH230982   6.096   6.520   1.163  0.1625  0.2425  0.3018
 3116TIP3    H130983   6.180   6.528   1.118 -0.0806  0.4354 -0.1143
 3116TIP3    H230984   6.119   6.485   1.250  0.6774  0.3554  0.2131
 3117TIP3   OH230985   0.775   2.011   7.338 -0.1896 -0.1266 -0.0172
 3117TIP3    H130986   0.711   1.966   7.394  0.2150 -0.5200  0.1393
 3117TIP3    H230987   0.831   2.059   7.399 -0.0518 -0.1597 -0.1172
 3118TIP3   OH230988   0.912   1.610   7.519  0.5729 -0.4453  0.2455
 3118TIP3    H130989   0.840   1.547   7.520  0.1939 -0.0567 -0.8169
 3118TIP3    H230990   0.976   1.575   7.581 -1.7351  0.6718  3.4789
 3119TIP3   OH230991   3.051   5.347   6.989  0.1299  0.1413 -0.2782
 3119TIP3    H130992   3.025   5.286   6.920 -0.1111 -0.8180  0.6238
 3119TIP3    H230993   3.081   5.290   7.061  1.3997  1.1338  0.0170
 3120TIP3   OH230994   3.680   3.983   1.388 -0.6860 -0.1980  0.0804
 3120TIP3    H130995   3.640   4.069   1.400  0.1904  0.2389 -0.0397
 3120TIP3    H230996   3.722   3.964   1.472 -0.1642 -0.1231 -0.1574
 3121TIP3   OH230997   3.735   6.182   0.003 -0.0612 -0.0651 -0.6392
 3121TIP3    H130998   3.684   6.223  -0.066 -1.4110  0.2051  0.4833
 3121TIP3    H230999   3.810   6.142  -0.043 -0.2672  1.1293 -2.0878
 3122TIP3   OH231000   0.562   5.247   7.488  0.5470  0.3503 -0.1545
 3122TIP3    H131001   0.616   5.182   7.531 -0.2316  0.2097  0.6546
 3122TIP3    H231002   0.623   5.313   7.456  1.3224 -0.6304 -0.7584
 3123TIP3   OH231003   1.714   6.710   8.269  0.2472 -0.0648  0.0810
 3123TIP3    H131004   1.712   6.705   8.365 -0.1886 -1.0051  0.0396
 3123TIP3    H231005   1.786   6.770   8.249 -0.1853  0.7834  1.0126
 3124TIP3   OH231006   0.254   2.344   0.704 -0.7134 -0.2509  0.5116
 3124TIP3    H131007   0.160   2.343   0.723 -1.2692  2.4455 -1.3826
 3124TIP3    H231008   0.261   2.297   0.621 -1.1290  2.7524 -1.3827
 3125TIP3   OH231009   3.465   0.351   7.690 -0.2616  0.4153 -0.3863
 3125TIP3    H131010   3.392   0.387   7.639  0.3133 -0.4880 -1.9214
 3125TIP3    H231011   3.543   0.392   7.653  0.0480  1.2743  1.1569
 3126TIP3   OH231012   3.103   3.351   8.064  0.0520 -0.0347  0.3659
 3126TIP3    H131013   3.163   3.410   8.020  0.0556 -0.7927 -0.6791
 3126TIP3    H231014   3.032   3.407   8.095  0.1317  0.5381 -0.4641
 3127TIP3   OH231015   1.325   3.063   1.989 -0.5153  0.5291  0.3689
 3127TIP3    H131016   1.324   3.148   1.945 -0.5280  0.6532  0.6041
 3127TIP3    H231017   1.385   3.010   1.938  1.3023  1.3849  1.4922
 3128TIP3   OH231018   3.113   2.938   2.338 -0.2095 -0.1369  0.2462
 3128TIP3    H131019   3.046   2.872   2.355  0.5525 -0.9150  0.3050
 3128TIP3    H231020   3.064   3.021   2.330 -1.1294 -0.6319  0.6117
 3129TIP3   OH231021   6.670   3.984   1.015 -0.6513  0.5077 -0.0571
 3129TIP3    H131022   6.591   4.038   1.026 -2.0540 -1.3744 -0.3274
 3129TIP3    H231023   6.667   3.957   0.923  0.1955  0.2331 -0.0032
 3130TIP3   OH231024   1.474   5.148   6.974 -0.6519 -0.2665 -0.3188
 3130TIP3    H131025   1.395   5.201   6.983 -1.6823 -1.8601  0.7486
 3130TIP3    H231026   1.466   5.107   6.888 -0.5111  0.3083 -0.6043
 3131TIP3   OH231027   0.670   1.910   0.837 -0.0310  0.5138 -0.7228
 3131TIP3    H131028   0.594   1.881   0.786 -1.6872  1.4665  1.0513
 3131TIP3    H231029   0.672   2.005   0.826 -2.8705  1.4167  3.7220
 3132TIP3   OH231030   2.184   5.932   0.642  0.0257  0.2947 -0.6749
 3132TIP3    H131031   2.240   5.896   0.574 -0.2923  0.8948 -1.2635
 3132TIP3    H231032   2.118   5.984   0.595 -0.4115  0.4325  0.0621
 3133TIP3   OH231033   0.234   1.981   6.510 -0.5130 -0.6174  0.6242
 3133TIP3    H131034   0.170   2.048   6.483 -0.4011  0.3694  2.6344
 3133TIP3    H231035   0.190   1.932   6.579  0.6143 -0.3889  1.5380
 3134TIP3   OH231036   2.479   1.443   1.705  0.1402  0.3289 -0.4157
 3134TIP3    H131037   2.392   1.470   1.733  0.1346 -0.6890  0.6604
 3134TIP3    H231038   2.537   1.475   1.774  0.5254  0.3673 -0.7518
 3135TIP3   OH231039   2.393   1.034   8.380  0.1004  0.1113 -0.8652
 3135TIP3    H131040   2.431   0.979   8.449 -0.5943 -0.0986 -0.6452
 3135TIP3    H231041   2.462   1.097   8.360  1.2653 -1.3803 -1.7532
 3136TIP3   OH231042   2.780   3.378   6.551  0.6508  0.5895  0.4835
 3136TIP3    H131043   2.875   3.390   6.548  0.7912 -0.4216  0.5668
 3136TIP3    H231044   2.768   3.284   6.557 -0.3479  0.7590  1.3870
 3137TIP3   OH231045   2.640   2.552   7.449  0.4371 -0.3452 -0.0809
 3137TIP3    H131046   2.669   2.567   7.359  0.0294  1.3592  0.0579
 3137TIP3    H231047   2.555   2.594   7.455  1.4816  1.6809  1.7299
 3138TIP3   OH231048   4.945   0.396   2.042  0.0562 -0.4981  0.3641
 3138TIP3    H131049   4.875   0.386   2.106 -1.3741 -1.2036 -1.2548
 3138TIP3    H231050   4.990   0.311   2.043 -0.5603 -0.8419 -0.2131
 3139TIP3   OH231051   6.214   4.600   1.400 -0.4303 -0.2539 -0.3589
 3139TIP3    H131052   6.139   4.646   1.438 -1.4710 -1.8653 -0.3865
 3139TIP3    H231053   6.253   4.554   1.474 -0.0115 -0.1411 -0.5114
 3140TIP3   OH231054   1.440   6.355   6.861 -0.2298  0.6064 -0.3442
 3140TIP3    H131055   1.382   6.279   6.856 -0.5595  0.8255  0.0789
 3140TIP3    H231056   1.517   6.324   6.908 -0.5095  0.6196  0.1295
 3141TIP3   OH231057   4.180   1.922   6.913 -0.0469  0.0318  0.4035
 3141TIP3    H131058   4.111   1.978   6.946 -0.0066 -0.4315  1.2906
 3141TIP3    H231059   4.197   1.954   6.824 -0.6689  0.8087  0.5615
 3142TIP3   OH231060   0.899   2.897   6.423  0.0546 -0.0591 -0.1000
 3142TIP3    H131061   0.896   2.966   6.357 -0.6346 -0.1056 -0.1238
 3142TIP3    H231062   0.949   2.935   6.495  2.3163 -0.5927 -1.2984
 3143TIP3   OH231063   0.738   3.375   0.952  0.3823  0.1118  0.0589
 3143TIP3    H131064   0.829   3.403   0.964  0.2063 -0.0390  2.1025
 3143TIP3    H231065   0.725   3.308   1.019 -1.2358  0.1478 -0.1845
 3144TIP3   OH231066   2.854   0.956   8.564  0.1801 -0.1637 -0.0591
 3144TIP3    H131067   2.921   0.919   8.622 -0.6816  0.7391  1.5911
 3144TIP3    H231068   2.839   0.888   8.498  2.5980 -0.4406 -0.4045
 3145TIP3   OH231069   5.850   1.648   6.154  0.0238  0.4697  0.2571
 3145TIP3    H131070   5.804   1.730   6.136 -0.5127  0.2341  0.5303
 3145TIP3    H231071   5.942   1.668   6.139 -0.2312  0.7613 -0.9693
 3146TIP3   OH231072   6.607   4.353   1.091 -0.7444 -0.1331  0.4607
 3146TIP3    H131073   6.539   4.393   1.145 -2.5310 -1.9190 -0.3230
 3146TIP3    H231074   6.584   4.260   1.088 -0.2038 -0.2934 -2.5352
 3147TIP3   OH231075   0.040   1.930   0.158  0.3565  0.0244  0.3181
 3147TIP3    H131076   0.036   2.014   0.112  0.1137  0.5616  1.3008
 3147TIP3    H231077   0.105   1.944   0.227 -1.5003  0.2558  2.1222
 3148TIP3   OH231078   3.781   2.176   7.382 -0.0209  0.0360  0.1223
 3148TIP3    H131079   3.722   2.146   7.313  1.7836  0.0091 -1.4964
 3148TIP3    H231080   3.869   2.161   7.347  1.0151 -0.8307  2.8186
 3149TIP3   OH231081   2.231   0.364   7.232 -0.0993  0.0363 -1.0163
 3149TIP3    H131082   2.260   0.301   7.166  1.3601 -0.3622 -0.0487
 3149TIP3    H231083   2.236   0.449   7.188  3.8084  0.1723 -0.6728
 3150TIP3   OH231084   3.530   4.958   7.240  0.2788  0.0071 -0.2412
 3150TIP3    H131085   3.461   4.948   7.174  0.1942 -1.4884  0.0358
 3150TIP3    H231086   3.611   4.955   7.190  0.1871 -0.2584 -0.3798
 3151TIP3   OH231087   0.552   0.565   0.765 -0.0113 -0.4691 -0.3341
 3151TIP3    H131088   0.594   0.647   0.793 -0.3296 -0.4213  0.0296
 3151TIP3    H231089   0.468   0.594   0.728 -0.4953 -0.6768  0.5539
 3152TIP3   OH231090   0.859   3.817   8.174  0.3202 -0.2903  0.0246
 3152TIP3    H131091   0.944   3.825   8.216 -0.6858 -0.9799  2.3122
 3152TIP3    H231092   0.806   3.886   8.214 -0.8569 -1.3861  0.4192
 3153TIP3   OH231093   6.282   3.522   1.594  0.2722  0.0981  0.2455
 3153TIP3    H131094   6.364   3.480   1.566 -0.7523 -2.2366  0.4811
 3153TIP3    H231095   6.308   3.610   1.620  2.5043 -0.1687 -0.8095
 3154TIP3   OH231096   0.157   3.556   1.069  0.9021 -0.0095 -0.0913
 3154TIP3    H131097   0.178   3.468   1.037 -0.9263 -0.0706 -1.2372
 3154TIP3    H231098   0.137   3.606   0.990  1.6400  1.3851  0.5709
 3155TIP3   OH231099   1.931   6.178   7.236  0.3725 -0.3209  0.1461
 3155TIP3    H131100   1.840   6.202   7.251  0.6044 -0.1162  1.3008
 3155TIP3    H231101   1.941   6.092   7.277  0.9035  0.0441  0.8100
 3156TIP3   OH231102   3.436   2.267   0.830  0.0769  0.4761  0.2700
 3156TIP3    H131103   3.459   2.338   0.770 -0.8281  1.7854  1.4099
 3156TIP3    H231104   3.500   2.274   0.901 -1.0629  1.3004  1.2511
 3157TIP3   OH231105   5.188   6.680   8.354  0.1717 -0.3754 -0.1216
 3157TIP3    H131106   5.172   6.588   8.372 -1.1086  0.0338  1.0395
 3157TIP3    H231107   5.104   6.712   8.319 -0.1815  0.8204  1.6745
 3158TIP3   OH231108   4.438   2.177   6.139  0.8786 -0.0547  0.4063
 3158TIP3    H131109   4.521   2.216   6.113  1.1021  0.0764  1.2864
 3158TIP3    H231110   4.397   2.244   6.194  0.1861 -0.1206 -0.0181
 3159TIP3   OH231111   3.167   2.010   7.474  0.1574 -0.2760 -0.3922
 3159TIP3    H131112   3.146   2.103   7.485  0.4495 -0.3701  1.2460
 3159TIP3    H231113   3.083   1.967   7.463  0.0931  0.3239 -2.7761
 3160TIP3   OH231114   0.978   5.183   7.521  0.3874  0.1965  0.1623
 3160TIP3    H131115   0.959   5.258   7.578  1.5543  0.3380  0.3824
 3160TIP3    H231116   1.071   5.167   7.532  0.1243 -1.4173  0.2479
 3161TIP3   OH231117   1.720   2.783   6.021  0.1857 -0.4831 -0.1773
 3161TIP3    H131118   1.640   2.812   6.064  0.1724 -1.7118  0.6633
 3161TIP3    H231119   1.777   2.860   6.022 -0.0174 -0.3133  1.5910
 3162TIP3   OH231120   1.954   0.205   8.379  0.4017  0.0779  0.2627
 3162TIP3    H131121   2.008   0.141   8.333 -0.0319 -0.7136  0.8325
 3162TIP3    H231122   1.890   0.235   8.314  0.6462 -0.0120 -0.0206
 3163TIP3   OH231123   0.998   2.471   0.496  0.3481  0.2769  0.4604
 3163TIP3    H131124   0.941   2.470   0.573  0.7031  0.4330  0.7250
 3163TIP3    H231125   1.053   2.548   0.507 -0.0382  0.6727 -0.2764
 3164TIP3   OH231126   3.498   5.213   0.615 -0.0835  0.0230  0.3148
 3164TIP3    H131127   3.523   5.250   0.700 -0.2094 -0.0235  0.3712
 3164TIP3    H231128   3.483   5.289   0.559 -0.0686  0.0539  0.3526
 3165TIP3   OH231129   0.539   6.084   0.159  0.4286 -0.1719  0.0433
 3165TIP3    H131130   0.456   6.095   0.204  0.5624  0.1738  0.2067
 3165TIP3    H231131   0.599   6.144   0.203  0.2818  1.0446 -1.3127
 3166TIP3   OH231132   1.209   1.520   7.372  0.2006  0.2924  0.4938
 3166TIP3    H131133   1.183   1.578   7.443 -1.9743 -0.3780  0.3205
 3166TIP3    H231134   1.199   1.573   7.292  2.9550  1.1506  0.6058
 3167TIP3   OH231135   2.387   5.508   7.971 -0.3494  0.1776  0.4441
 3167TIP3    H131136   2.333   5.469   7.902  0.4843  0.2089 -0.2422
 3167TIP3    H231137   2.473   5.469   7.958  0.7359  2.7366 -0.7608
 3168TIP3   OH231138   4.852   2.443   0.782 -0.2337  0.3852 -0.1277
 3168TIP3    H131139   4.833   2.536   0.768 -1.2763  0.0142 -1.4500
 3168TIP3    H231140   4.947   2.437   0.777 -0.0559  1.5623  1.3265
 3169TIP3   OH231141   3.445   6.632   7.156  0.5611 -0.4362  0.4125
 3169TIP3    H131142   3.409   6.619   7.068  0.2881  1.8726  0.1160
 3169TIP3    H231143   3.368   6.651   7.210  0.8489 -0.5565  0.8653
 3170TIP3   OH231144   2.403   4.299   6.057 -0.0839  0.7869 -0.4012
 3170TIP3    H131145   2.373   4.318   5.968  1.8978  0.9036 -1.1052
 3170TIP3    H231146   2.467   4.367   6.076 -0.0083  0.3838  0.8644
 3171TIP3   OH231147   2.634   1.469   2.307 -0.1824  0.2390  0.1526
 3171TIP3    H131148   2.646   1.455   2.214 -0.9692  1.4214 -0.1535
 3171TIP3    H231149   2.685   1.548   2.326  2.9961 -1.9315  1.5196
 3172TIP3   OH231150   5.628   5.910   8.204 -0.8421 -0.9754  0.0239
 3172TIP3    H131151   5.581   5.874   8.129 -1.3789  2.8682 -1.7004
 3172TIP3    H231152   5.560   5.950   8.258 -0.2423 -2.0387  1.6439
 3173TIP3   OH231153   0.761   6.908   7.640 -0.2447 -0.1191  0.4397
 3173TIP3    H131154   0.777   7.003   7.633  1.4589 -0.3979  0.2242
 3173TIP3    H231155   0.668   6.902   7.662 -0.2054  1.6369  1.2973
 3174TIP3   OH231156   6.382   4.050   6.783 -0.2572 -0.1967 -0.0523
 3174TIP3    H131157   6.425   4.014   6.706  1.4217  0.5760  0.4831
 3174TIP3    H231158   6.293   4.072   6.754 -0.4557 -2.1933 -1.0879
 3175TIP3   OH231159   0.225   3.752   8.514  0.4584 -0.0358  0.3802
 3175TIP3    H131160   0.300   3.694   8.529  0.7754  0.0359 -0.8322
 3175TIP3    H231161   0.261   3.826   8.465 -0.7961 -1.1733 -2.4770
 3176TIP3   OH231162   2.466   0.540   7.022  0.2395  0.1105 -0.2286
 3176TIP3    H131163   2.382   0.586   7.019 -0.4480 -0.7871  2.4748
 3176TIP3    H231164   2.455   0.464   6.964 -1.1475 -0.4611  0.7538
 3177TIP3   OH231165   4.498   3.523   0.774 -0.4091  0.6300 -0.2890
 3177TIP3    H131166   4.538   3.526   0.687 -1.1724  1.8006 -0.6362
 3177TIP3    H231167   4.464   3.612   0.787  0.8114  0.8550  1.7531
 3178TIP3   OH231168   6.449   5.304   0.309  0.3565 -0.3612 -0.8155
 3178TIP3    H131169   6.427   5.384   0.355 -2.5715 -2.1766  1.2951
 3178TIP3    H231170   6.527   5.271   0.354  2.0694  1.5650 -2.2184
 3179TIP3   OH231171   5.425   0.309   0.478 -0.6381  0.7056  0.0276
 3179TIP3    H131172   5.414   0.297   0.572  0.9998  1.9100  0.4147
 3179TIP3    H231173   5.378   0.235   0.439  1.8875 -2.1378  1.9201
 3180TIP3   OH231174   6.334   4.904   7.681  0.4463 -0.1001 -0.3925
 3180TIP3    H131175   6.328   4.924   7.587  1.1898 -0.8382 -0.6026
 3180TIP3    H231176   6.400   4.965   7.714 -0.0401  0.3769 -0.2707
 3181TIP3   OH231177   6.227   6.000   7.597  0.3666  0.0949  0.2559
 3181TIP3    H131178   6.175   6.057   7.540  0.9810 -0.6762 -1.1204
 3181TIP3    H231179   6.164   5.938   7.633 -0.6835  2.6053  3.2395
 3182TIP3   OH231180   5.256   0.274   2.108  0.4999  0.0014 -0.0012
 3182TIP3    H131181   5.189   0.230   2.056  0.2280  2.4485 -1.9107
 3182TIP3    H231182   5.338   0.236   2.079  0.1477 -0.8654  0.1099
 3183TIP3   OH231183   1.473   0.117   7.603  0.1897  0.2917  0.4446
 3183TIP3    H131184   1.419   0.165   7.666 -0.8826 -1.2377  0.7524
 3183TIP3    H231185   1.503   0.040   7.652 -0.1471 -0.5959 -0.7221
 3184TIP3   OH231186   2.795   5.897   6.650  0.0323  0.7157  0.4772
 3184TIP3    H131187   2.819   5.862   6.564  0.8757  0.5140  0.7846
 3184TIP3    H231188   2.736   5.970   6.631  1.6208  1.8367 -0.3709
 3185TIP3   OH231189   2.794   6.752   0.293 -0.3002  0.0429  0.1720
 3185TIP3    H131190   2.835   6.828   0.334  2.4417  0.2962 -2.6936
 3185TIP3    H231191   2.864   6.689   0.284 -1.8572 -1.7217 -0.1869
 3186TIP3   OH231192   2.080   2.039   1.887 -0.4148  0.0500 -0.3748
 3186TIP3    H131193   2.078   1.990   1.805 -3.3137 -0.3265 -0.1741
 3186TIP3    H231194   2.173   2.044   1.909  0.2474 -2.5835 -2.0580
 3187TIP3   OH231195   3.209   4.551   0.612 -0.1682  0.6528 -0.1904
 3187TIP3    H131196   3.266   4.524   0.683  0.4717 -2.3148 -1.6520
 3187TIP3    H231197   3.153   4.474   0.596 -2.3294  2.2760 -0.9914
 3188TIP3   OH231198   1.585   3.229   2.022 -0.2478 -0.1723 -0.4166
 3188TIP3    H131199   1.573   3.280   1.942 -0.6163  0.5273  0.0750
 3188TIP3    H231200   1.563   3.139   1.996 -0.7868  0.1169 -0.9930
 3189TIP3   OH231201   6.662   5.067   7.239 -0.1257 -0.2231  0.4926
 3189TIP3    H131202   6.720   5.140   7.260 -0.0900 -0.5038  1.4185
 3189TIP3    H231203   6.712   4.988   7.261 -0.4328 -0.5013  0.2181
 3190TIP3   OH231204   3.577   2.973   8.447 -0.2430 -0.8282  0.0954
 3190TIP3    H131205   3.666   2.945   8.470 -0.2981 -0.6323  0.5632
 3190TIP3    H231206   3.531   2.977   8.531  0.2066  2.2626  0.3173
 3191TIP3   OH231207   0.078   2.096   7.469 -0.1323  0.2812  0.2805
 3191TIP3    H131208   0.002   2.047   7.438 -0.5221  0.5940  0.7206
 3191TIP3    H231209   0.089   2.166   7.404  0.7966 -0.7137 -0.6820
 3192TIP3   OH231210   2.070   3.518   7.961  0.3086 -0.1455 -0.1218
 3192TIP3    H131211   2.047   3.598   7.914  0.4348 -0.2118 -0.2935
 3192TIP3    H231212   2.048   3.447   7.900  2.1111 -0.1787 -0.7731
 3193TIP3   OH231213   3.739   5.681   5.917 -0.6876 -0.1177 -0.3445
 3193TIP3    H131214   3.668   5.638   5.964  0.1197  0.3544  1.4288
 3193TIP3    H231215   3.702   5.764   5.887 -1.2309 -0.4372 -0.5562
 3194TIP3   OH231216   2.344   4.129   7.877 -0.3968 -0.5922  0.1844
 3194TIP3    H131217   2.398   4.170   7.946  0.0737  0.4076 -0.7589
 3194TIP3    H231218   2.305   4.202   7.830 -1.5884 -1.2953  0.0496
 3195TIP3   OH231219   5.146   3.704   2.082  0.1598 -0.0382 -0.1017
 3195TIP3    H131220   5.090   3.737   2.011 -0.7448  0.6968  0.9168
 3195TIP3    H231221   5.220   3.664   2.037 -0.3317  0.5053 -1.4649
 3196TIP3   OH231222   6.511   1.115   8.179 -0.4723 -0.2521 -0.3838
 3196TIP3    H131223   6.509   1.073   8.093 -0.3192 -0.4997 -0.2672
 3196TIP3    H231224   6.420   1.117   8.208 -0.4276 -0.9424 -0.1790
 3197TIP3   OH231225   3.903   5.287   1.353 -0.2092  0.3314 -0.7420
 3197TIP3    H131226   3.997   5.284   1.372  0.1021  0.5434 -2.1302
 3197TIP3    H231227   3.873   5.366   1.397  0.0766 -0.1917  0.4337
 3198TIP3   OH231228   3.416   4.073   1.660 -0.7578  0.2295  0.4421
 3198TIP3    H131229   3.380   4.013   1.594  0.4347 -1.4987  1.2972
 3198TIP3    H231230   3.462   4.139   1.608  0.6226 -1.4004 -0.5246
 3199TIP3   OH231231   3.270   0.014   0.066 -0.0613 -0.0617  0.2305
 3199TIP3    H131232   3.275  -0.065   0.120 -0.7643  0.6847  1.4229
 3199TIP3    H231233   3.343   0.005   0.005 -0.3037 -1.7707  0.1408
 3200TIP3   OH231234   0.032   2.317   1.960 -0.4408 -0.2239  0.3779
 3200TIP3    H131235   0.070   2.394   2.004  2.3229 -0.6782 -0.9816
 3200TIP3    H231236   0.028   2.250   2.028  1.6176 -0.2455  0.5312
 3201TIP3   OH231237   2.996   4.199   1.424  0.7518  0.0838  0.5649
 3201TIP3    H131238   2.946   4.162   1.351  0.7991 -0.3838  0.7711
 3201TIP3    H231239   2.942   4.271   1.456 -0.0405 -0.7296  1.1120
 3202TIP3   OH231240   6.599   3.728   0.364  0.2294  0.2269  0.0378
 3202TIP3    H131241   6.681   3.778   0.365 -0.9952  2.7078 -3.2681
 3202TIP3    H231242   6.551   3.759   0.440  1.7555 -0.2327  1.2366
 3203TIP3   OH231243   4.983   4.768   7.480  0.0793  0.6482  0.1491
 3203TIP3    H131244   4.944   4.749   7.565 -0.0623  0.6541  0.0865
 3203TIP3    H231245   4.955   4.695   7.424  0.8414  0.2144  0.3157
 3204TIP3   OH231246   5.279   3.128   1.682  0.4311  0.1930 -0.4438
 3204TIP3    H131247   5.217   3.079   1.629 -0.9794  1.0883  0.3233
 3204TIP3    H231248   5.277   3.217   1.646 -1.3884  1.1076  1.7174
 3205TIP3   OH231249   5.528   3.329   7.770  0.1372  0.3314  0.0969
 3205TIP3    H131250   5.606   3.322   7.825  0.6199 -0.1292 -0.6192
 3205TIP3    H231251   5.465   3.268   7.810 -0.1909  1.3563  1.1871
 3206TIP3   OH231252   2.539   0.081   7.315  0.2645  1.3715 -0.4774
 3206TIP3    H131253   2.530  -0.006   7.355 -0.1499  2.1565  1.2118
 3206TIP3    H231254   2.632   0.101   7.323  0.4931  0.8044 -1.5304
 3207TIP3   OH231255   4.714   1.159   7.641 -0.0960 -0.4006  0.1187
 3207TIP3    H131256   4.646   1.219   7.673 -0.5821  0.4233 -2.2256
 3207TIP3    H231257   4.781   1.216   7.604  0.7314 -1.2683  0.2329
 3208TIP3   OH231258   0.940   0.293   8.573  0.1570  0.0766 -0.2742
 3208TIP3    H131259   0.959   0.329   8.487 -0.7865  1.3964  0.0376
 3208TIP3    H231260   0.919   0.369   8.627  1.7257 -0.6105  1.4112
 3209TIP3   OH231261   4.678   3.407   7.986 -0.2290  0.3643  0.3098
 3209TIP3    H131262   4.648   3.350   8.057 -0.1484  0.8438  0.7330
 3209TIP3    H231263   4.770   3.422   8.004 -0.0613  0.0137 -0.2262
 3210TIP3   OH231264   5.292   0.157   0.867  0.0968  1.0114  0.2146
 3210TIP3    H131265   5.351   0.115   0.929  0.6969 -0.0854 -1.0404
 3210TIP3    H231266   5.332   0.242   0.849 -0.0445  1.3048  1.2534
 3211TIP3   OH231267   5.236   1.607   1.336 -0.4044 -0.1767  0.0297
 3211TIP3    H131268   5.146   1.610   1.306 -0.2235 -0.3575 -0.5458
 3211TIP3    H231269   5.286   1.656   1.270 -0.1863  0.6086  0.7545
 3212TIP3   OH231270   0.197   2.538   1.736 -1.0853 -0.5207  0.4024
 3212TIP3    H131271   0.145   2.533   1.815 -0.2970  0.3296  0.9950
 3212TIP3    H231272   0.163   2.614   1.689 -1.3171 -0.8161  0.0779
 3213TIP3   OH231273   2.313   6.807   7.994  0.1030 -0.5944  0.5817
 3213TIP3    H131274   2.243   6.778   7.935  0.1432  0.8858 -0.2309
 3213TIP3    H231275   2.389   6.756   7.967 -0.1689 -0.7769  0.1381
 3214TIP3   OH231276   4.495   2.833   8.617 -0.2204  0.1535 -0.0288
 3214TIP3    H131277   4.570   2.775   8.624 -0.9085 -0.9804 -1.5002
 3214TIP3    H231278   4.495   2.861   8.525 -1.4224  0.3589  0.0173
 3215TIP3   OH231279   3.637   0.342   6.995 -0.3125  0.2781 -0.4531
 3215TIP3    H131280   3.619   0.357   6.903  0.9674 -1.2533 -0.9928
 3215TIP3    H231281   3.732   0.350   7.003 -0.5410  1.9775  1.0668
 3216TIP3   OH231282   2.752   1.709   7.103  0.3708 -0.0123  0.7624
 3216TIP3    H131283   2.805   1.740   7.029  1.0457  1.0962  1.6738
 3216TIP3    H231284   2.662   1.718   7.073  0.6395  0.3224  0.0289
 3217TIP3   OH231285   6.359   0.262   0.384  0.0846 -0.2533  0.0341
 3217TIP3    H131286   6.283   0.312   0.413  0.6860  1.1115 -0.6465
 3217TIP3    H231287   6.407   0.243   0.465  0.7895  1.8918  0.1651
 3218TIP3   OH231288   2.341   5.070   6.828 -0.1074 -0.3582 -0.0498
 3218TIP3    H131289   2.419   5.125   6.827  0.1513 -0.7242 -0.9822
 3218TIP3    H231290   2.349   5.014   6.751 -1.3617 -0.3052 -0.2493
 3219TIP3   OH231291   6.776   1.262   7.593 -0.3476  0.4392  0.0713
 3219TIP3    H131292   6.869   1.239   7.595 -0.0869  1.3098 -1.0418
 3219TIP3    H231293   6.751   1.251   7.502 -2.5104 -4.0554  0.9624
 3220TIP3   OH231294   6.909   6.542   6.441  0.3227  0.0212 -0.5030
 3220TIP3    H131295   6.890   6.616   6.383 -0.5302  0.1385 -0.0961
 3220TIP3    H231296   6.946   6.475   6.383 -0.7023  0.0597 -1.2292
 3221TIP3   OH231297   5.886   2.473   7.954 -0.5545 -0.0212  0.3329
 3221TIP3    H131298   5.793   2.480   7.932 -0.1991  0.8657 -0.9751
 3221TIP3    H231299   5.912   2.563   7.976  0.1280 -0.1705  0.1523
 3222TIP3   OH231300   3.615   3.849   0.973  0.0698  0.3080  0.6581
 3222TIP3    H131301   3.656   3.788   0.912  0.5124  1.3230 -0.0822
 3222TIP3    H231302   3.524   3.819   0.979  0.8106 -1.8458  2.1688
 3223TIP3   OH231303   0.220   6.410   6.343 -0.7412 -0.8265 -0.1412
 3223TIP3    H131304   0.296   6.371   6.386  0.2950  1.0681 -0.1127
 3223TIP3    H231305   0.227   6.504   6.362 -2.5976 -0.4739 -0.9196
 3224TIP3   OH231306   4.425   4.096   7.549  0.2977  0.5360 -0.1215
 3224TIP3    H131307   4.466   4.061   7.628  0.7617 -1.7855 -1.3135
 3224TIP3    H231308   4.494   4.148   7.507  0.2955  1.1149  0.5684
 3225TIP3   OH231309   0.162   6.620   7.610 -0.1896 -0.2583  0.1766
 3225TIP3    H131310   0.165   6.637   7.515 -0.1916  1.4952  0.4603
 3225TIP3    H231311   0.082   6.568   7.622  0.5526 -1.7417 -0.9241
 3226TIP3   OH231312   5.695   2.325   0.218  0.1120  0.2462 -0.1721
 3226TIP3    H131313   5.599   2.328   0.208  0.1935  0.0820 -1.0600
 3226TIP3    H231314   5.722   2.416   0.222 -0.0959  0.2924  0.2504
 3227TIP3   OH231315   1.140   5.902   6.720  0.0522  0.2081 -0.6041
 3227TIP3    H131316   1.052   5.931   6.696 -0.5058 -1.3927 -0.5681
 3227TIP3    H231317   1.190   5.909   6.638  0.7071  3.7335 -0.0616
 3228TIP3   OH231318   3.291   3.962   1.268 -0.0781  0.0270 -0.1408
 3228TIP3    H131319   3.346   3.900   1.316  0.0414  0.1537 -0.1131
 3228TIP3    H231320   3.204   3.922   1.267 -0.3780  0.5918  1.2591
 3229TIP3   OH231321   4.734   2.750   0.845 -0.4880 -0.1714  0.7817
 3229TIP3    H131322   4.677   2.713   0.779  1.7076 -1.7289 -0.3691
 3229TIP3    H231323   4.787   2.814   0.798  0.3268 -0.4757  1.2603
 3230TIP3   OH231324   4.198   3.084   8.491 -0.5667  0.1492  0.2114
 3230TIP3    H131325   4.117   3.081   8.439  0.6799  1.2549 -1.8907
 3230TIP3    H231326   4.257   3.024   8.447  0.5261  1.1121  0.3276
 3231TIP3   OH231327   5.459   5.599   6.415 -0.1374 -0.5640 -0.3503
 3231TIP3    H131328   5.441   5.612   6.508 -0.6651 -1.2506 -0.3445
 3231TIP3    H231329   5.385   5.642   6.371  1.4241  2.0998 -0.5875
 3232TIP3   OH231330   3.611   5.125   1.069  0.5130  0.2549 -0.5174
 3232TIP3    H131331   3.576   5.191   1.010 -0.0933 -0.4954 -1.0099
 3232TIP3    H231332   3.534   5.077   1.101  0.9195 -0.0373  0.0523
 3233TIP3   OH231333   3.953   4.503   0.147  0.0493 -0.2364  0.4833
 3233TIP3    H131334   3.877   4.557   0.122 -1.8274 -2.3941  1.1474
 3233TIP3    H231335   3.937   4.479   0.238  0.5396 -2.2271  0.1047
 3234TIP3   OH231336   1.240   4.036   6.848  0.6752 -0.3961 -0.4347
 3234TIP3    H131337   1.248   4.126   6.817  1.2288  0.0413  0.9007
 3234TIP3    H231338   1.326   3.997   6.830  0.5721 -0.5339 -0.6315
 3235TIP3   OH231339   0.857   5.928   0.643  0.0677 -0.1120 -0.5001
 3235TIP3    H131340   0.782   5.888   0.598 -0.5698 -1.7126  1.7726
 3235TIP3    H231341   0.899   5.855   0.689  2.5917  0.8930 -1.0653
 3236TIP3   OH231342   5.745   0.945   0.121 -0.3420  0.0507 -0.1177
 3236TIP3    H131343   5.837   0.959   0.141  0.0430 -0.9755 -1.0859
 3236TIP3    H231344   5.716   0.879   0.185 -0.8472  1.5120  1.2125
 3237TIP3   OH231345   3.595   5.919   0.574  0.0483 -0.6687  0.5812
 3237TIP3    H131346   3.651   5.982   0.619  1.3860 -1.5205  0.1483
 3237TIP3    H231347   3.547   5.875   0.644 -0.0739  0.0485  0.9563
 3238TIP3   OH231348   6.344   2.069   1.336  0.4381 -0.1681  0.1983
 3238TIP3    H131349   6.358   1.979   1.307 -0.2687 -0.4282  0.6427
 3238TIP3    H231350   6.414   2.085   1.399 -0.1998 -0.8688  1.1110
 3239TIP3   OH231351   5.530   3.969   7.158  0.0918  0.0231  0.1773
 3239TIP3    H131352   5.520   3.885   7.204  0.3518 -0.3178 -0.3788
 3239TIP3    H231353   5.614   4.003   7.189 -0.4062  0.5106  1.0651
 3240TIP3   OH231354   6.897   6.438   1.631  0.6431 -0.1722  0.0816
 3240TIP3    H131355   6.910   6.531   1.652  0.9901  0.2006 -1.6523
 3240TIP3    H231356   6.980   6.397   1.655  0.5131 -0.0404  0.7924
 3241TIP3   OH231357   4.536   5.489   1.940 -0.1456 -0.3872  0.3332
 3241TIP3    H131358   4.543   5.458   2.029  0.3720 -1.3093 -0.0194
 3241TIP3    H231359   4.442   5.501   1.925 -0.2419 -0.4008  0.9307
 3242TIP3   OH231360   4.711   5.326   8.296  0.4310 -0.0174  0.2113
 3242TIP3    H131361   4.759   5.251   8.332  0.8106  0.1704  0.1028
 3242TIP3    H231362   4.701   5.305   8.203 -0.1844 -0.3096  0.3376
 3243TIP3   OH231363   0.182   6.102   1.747  0.7708  0.1335 -0.0435
 3243TIP3    H131364   0.086   6.104   1.740  0.7432  1.7100  0.4393
 3243TIP3    H231365   0.199   6.059   1.831  0.3640  1.9812  1.0542
 3244TIP3   OH231366   4.483   1.886   1.268 -0.1809  0.3456 -0.2556
 3244TIP3    H131367   4.396   1.884   1.308 -0.6358  0.7869 -1.1896
 3244TIP3    H231368   4.466   1.877   1.174  0.5626  2.7253 -0.6982
 3245TIP3   OH231369   2.631   4.045   7.237  0.4873  0.1813 -0.1992
 3245TIP3    H131370   2.720   4.032   7.270  0.4330 -0.9135 -0.4351
 3245TIP3    H231371   2.577   3.987   7.291  0.4524 -2.0056 -2.4080
 3246TIP3   OH231372   1.729   6.296   1.308  0.4497  0.2064  0.3926
 3246TIP3    H131373   1.724   6.361   1.378  1.3344  1.2056 -0.4459
 3246TIP3    H231374   1.802   6.240   1.333  1.6726  1.3969 -0.3799
 3247TIP3   OH231375   3.663   4.788   1.953 -0.6690  0.6050 -0.5940
 3247TIP3    H131376   3.651   4.747   2.039  0.8105  1.4447  0.0480
 3247TIP3    H231377   3.586   4.844   1.942 -0.1371  1.7141  0.9233
 3248TIP3   OH231378   4.058   2.313   7.801 -0.2333 -0.2718 -0.1063
 3248TIP3    H131379   4.005   2.268   7.736 -0.9996  0.4886 -0.0216
 3248TIP3    H231380   4.101   2.384   7.752 -0.0685 -0.2747  0.0310
 3249TIP3   OH231381   4.595   2.485   0.941 -0.0184 -0.6559  0.1209
 3249TIP3    H131382   4.661   2.477   0.872 -0.6275 -2.9308 -0.2898
 3249TIP3    H231383   4.638   2.537   1.009  1.3349 -0.1059 -1.1008
 3250TIP3   OH231384   5.163   0.179   6.847 -0.2606  0.0212  0.4703
 3250TIP3    H131385   5.168   0.240   6.920 -2.8961  0.4626  0.3720
 3250TIP3    H231386   5.120   0.228   6.777 -1.1862 -1.5031 -0.0859
 3251TIP3   OH231387   5.702   1.113   1.213 -0.0678  0.1873  0.6141
 3251TIP3    H131388   5.623   1.067   1.244 -0.5997  1.4422  1.1790
 3251TIP3    H231389   5.683   1.133   1.122 -0.5229  0.6975  0.8120
 3252TIP3   OH231390   5.229   1.086   0.111  0.1839  0.0289  0.3363
 3252TIP3    H131391   5.322   1.091   0.132 -0.1107 -1.8927  2.5337
 3252TIP3    H231392   5.214   1.159   0.051  3.4543 -0.6346 -1.5773
 3253TIP3   OH231393   5.918   5.151   0.304 -0.1695  0.1064  0.2869
 3253TIP3    H131394   5.906   5.185   0.393 -1.2404  0.3390  0.0733
 3253TIP3    H231395   6.003   5.107   0.306 -1.2780 -2.1603  2.1555
 3254TIP3   OH231396   6.451   3.713   6.293 -0.2415 -0.8438  0.8190
 3254TIP3    H131397   6.368   3.667   6.283 -0.7814  0.1378  0.6509
 3254TIP3    H231398   6.474   3.701   6.385 -1.4473  0.3091  1.2941
 3255TIP3   OH231399   4.746   0.464   7.267 -0.0652 -0.1274  0.0839
 3255TIP3    H131400   4.789   0.548   7.278 -1.5476  0.9223 -1.4778
 3255TIP3    H231401   4.655   0.486   7.245 -1.0801 -2.1850  1.8148
 3256TIP3   OH231402   0.632   0.635   1.100  0.0881 -0.5944  0.2944
 3256TIP3    H131403   0.667   0.548   1.080 -0.1514 -0.8435  0.9419
 3256TIP3    H231404   0.566   0.619   1.167  0.3108  0.1374  0.6929
 3257TIP3   OH231405   5.091   0.948   7.255 -0.2518  0.8196  0.0480
 3257TIP3    H131406   5.066   0.990   7.338  1.1862  1.7362  0.0649
 3257TIP3    H231407   5.170   0.898   7.277 -0.4660  0.2218 -0.5487
 3258TIP3   OH231408   2.519   1.757   1.555 -0.5464  0.1507 -0.0161
 3258TIP3    H131409   2.495   1.786   1.644 -0.9836 -0.0470 -0.0672
 3258TIP3    H231410   2.440   1.773   1.503  0.1343  1.5459 -0.6746
 3259TIP3   OH231411   0.711   5.786   8.065 -0.3636 -0.1441  0.1549
 3259TIP3    H131412   0.690   5.867   8.111  2.1850 -0.5523  2.3372
 3259TIP3    H231413   0.802   5.797   8.037 -0.5016 -1.6067 -1.0272
 3260TIP3   OH231414   0.814   4.436   7.049  0.3454  0.1649 -0.0733
 3260TIP3    H131415   0.735   4.415   6.998  0.0961  0.5934  0.1378
 3260TIP3    H231416   0.886   4.419   6.988  0.1186 -0.6279 -0.1422
 3261TIP3   OH231417   2.194   2.119   1.107 -0.1580  0.5024 -0.3556
 3261TIP3    H131418   2.101   2.141   1.109 -0.3047 -0.0994  1.4829
 3261TIP3    H231419   2.198   2.029   1.139  1.1371  0.8616  0.5774
 3262TIP3   OH231420   5.981   6.414   7.959 -0.0116 -0.0987 -0.0263
 3262TIP3    H131421   6.045   6.471   8.003 -1.0815  1.0676  0.0836
 3262TIP3    H231422   5.899   6.432   8.004 -0.7165 -0.4694 -1.1350
 3263TIP3   OH231423   3.196   0.139   6.795  0.1937  0.2445  0.0249
 3263TIP3    H131424   3.103   0.147   6.818  0.0994  1.2851 -0.6573
 3263TIP3    H231425   3.202   0.058   6.745 -0.6714  1.0371 -1.4083
 3264TIP3   OH231426   0.289   2.940   2.246 -0.1322 -0.0195 -0.0159
 3264TIP3    H131427   0.373   2.963   2.285  0.3716  0.6230 -1.3911
 3264TIP3    H231428   0.228   3.006   2.278  0.3554  0.7207 -0.5850
 3265TIP3   OH231429   5.984   5.418   0.804  0.2954 -0.3232  0.9418
 3265TIP3    H131430   5.940   5.399   0.887 -1.3523 -2.2412 -0.2653
 3265TIP3    H231431   5.994   5.513   0.803 -0.7210 -0.1446  2.8129
 3266TIP3   OH231432   1.910   0.416   6.716  0.0834  0.1735  0.1089
 3266TIP3    H131433   1.863   0.499   6.710  0.1075  0.1245 -0.9184
 3266TIP3    H231434   1.984   0.434   6.774  0.4128  1.0242 -0.5602
 3267TIP3   OH231435   2.842   2.751   8.055 -0.0119 -0.0482  0.3400
 3267TIP3    H131436   2.885   2.719   8.134 -0.5083 -0.9833  0.2424
 3267TIP3    H231437   2.748   2.741   8.072 -0.2433  2.0417  0.5796
 3268TIP3   OH231438   3.231   5.455   0.852  0.2665 -0.0418  0.2166
 3268TIP3    H131439   3.142   5.427   0.831  0.0561  0.4792  0.3934
 3268TIP3    H231440   3.259   5.504   0.774  1.1428 -1.8701 -0.6640
 3269TIP3   OH231441   5.458   4.614   6.374  0.1202 -0.7626 -0.2926
 3269TIP3    H131442   5.428   4.683   6.432  2.2469  0.0434 -0.0494
 3269TIP3    H231443   5.498   4.661   6.300  0.0449 -1.7545 -0.9881
 3270TIP3   OH231444   5.303   6.355   1.910 -0.4713  0.6570  0.9999
 3270TIP3    H131445   5.302   6.365   2.006  0.2098 -2.0267  1.3717
 3270TIP3    H231446   5.297   6.261   1.896 -0.6434  0.9908 -1.6382
 3271TIP3   OH231447   2.139   5.212   0.529  0.0573 -0.3034  0.2053
 3271TIP3    H131448   2.138   5.140   0.465 -2.6674  0.5225 -0.8176
 3271TIP3    H231449   2.224   5.254   0.516  0.3600 -1.3371 -1.5084
 3272TIP3   OH231450   5.958   2.282   0.234  0.0510 -0.9623  0.5860
 3272TIP3    H131451   5.863   2.298   0.236  0.1834 -0.2836  2.0497
 3272TIP3    H231452   5.996   2.354   0.283  1.4227 -0.7610 -0.7069
 3273TIP3   OH231453   4.185   5.674   7.870  0.5766 -0.1583 -0.0115
 3273TIP3    H131454   4.111   5.730   7.847  0.6631  0.5574  1.3610
 3273TIP3    H231455   4.221   5.713   7.949  0.9568 -1.8807  0.7109
 3274TIP3   OH231456   3.177   5.463   1.504  0.2130 -0.8627 -0.3120
 3274TIP3    H131457   3.221   5.547   1.521  1.7501 -1.9425  1.3863
 3274TIP3    H231458   3.151   5.469   1.412 -0.5110  1.8006 -0.0339
 3275TIP3   OH231459   0.586   4.856   1.004  0.2240  0.2004  0.0563
 3275TIP3    H131460   0.640   4.781   0.979  0.3201  0.9759 -2.3962
 3275TIP3    H231461   0.648   4.925   1.024  0.1665  0.4722 -0.6650
 3276TIP3   OH231462   1.834   4.300   1.035 -0.0059 -0.3039  0.4644
 3276TIP3    H131463   1.830   4.342   0.949  0.8677  0.8953  0.9886
 3276TIP3    H231464   1.881   4.218   1.020  1.4520  0.5740  0.0311
 3277TIP3   OH231465   4.052   1.766   0.490  0.2290 -0.4374  0.8122
 3277TIP3    H131466   4.147   1.766   0.501  0.3674 -2.1047 -0.0370
 3277TIP3    H231467   4.039   1.766   0.395 -0.6059 -0.9383  0.9193
 3278TIP3   OH231468   1.068   3.065   8.640  0.0971 -0.3008 -0.0449
 3278TIP3    H131469   0.983   3.021   8.644  0.1835 -0.4030  0.9187
 3278TIP3    H231470   1.051   3.153   8.675  0.0042  0.3431 -1.6121
 3279TIP3   OH231471   6.022   6.323   7.701 -0.2104  0.5412  0.0953
 3279TIP3    H131472   5.943   6.274   7.679 -1.4235  2.5855 -0.3469
 3279TIP3    H231473   6.018   6.335   7.795 -0.3672  0.5486  0.0872
 3280TIP3   OH231474   1.285   0.410   0.071  0.3757 -0.4022 -0.1960
 3280TIP3    H131475   1.207   0.407   0.126  0.1305 -0.2699 -0.5366
 3280TIP3    H231476   1.300   0.319   0.046  0.5008 -0.4659  0.1060
 3281TIP3   OH231477   1.013   2.446   6.597 -0.2870 -0.0297 -0.1198
 3281TIP3    H131478   1.089   2.441   6.540 -0.8053 -0.5548 -0.7716
 3281TIP3    H231479   0.993   2.539   6.602  0.7134  0.1664  0.4895
 3282TIP3   OH231480   4.642   5.662   0.179 -0.0912  0.1131  0.2231
 3282TIP3    H131481   4.594   5.734   0.139 -1.4796 -0.7358  0.2787
 3282TIP3    H231482   4.593   5.641   0.258 -0.4146 -1.6311 -0.3937
 3283TIP3   OH231483   3.642   2.092   1.400  0.1211  0.7630 -0.2019
 3283TIP3    H131484   3.682   2.091   1.313  2.1238  2.5804  0.5935
 3283TIP3    H231485   3.708   2.052   1.457 -0.9632  0.0364  0.5913
 3284TIP3   OH231486   5.723   0.232   1.327  0.9188 -0.1666  0.5761
 3284TIP3    H131487   5.722   0.156   1.269 -0.3885  0.1585  0.1313
 3284TIP3    H231488   5.785   0.292   1.286  2.5738 -1.2773  1.3586
 3285TIP3   OH231489   1.405   2.014   0.905  0.0095 -0.7454  0.1862
 3285TIP3    H131490   1.324   2.064   0.921 -0.8120 -2.0450  0.2312
 3285TIP3    H231491   1.419   1.964   0.985  0.5614 -0.9339 -0.0274
 3286TIP3   OH231492   3.557   0.379   7.245 -0.4846  0.3543 -0.0109
 3286TIP3    H131493   3.626   0.338   7.297 -0.6886 -0.0344 -0.0412
 3286TIP3    H231494   3.594   0.383   7.156 -0.1626  0.9575  0.1470
 3287TIP3   OH231495   2.336   5.646   8.209 -0.0383 -0.1723 -0.2412
 3287TIP3    H131496   2.366   5.608   8.126  0.6161  1.5298 -0.8342
 3287TIP3    H231497   2.242   5.630   8.209  0.2876 -2.3874 -0.0936
 3288TIP3   OH231498   0.031   4.076   0.983  0.0060 -0.3865 -0.2816
 3288TIP3    H131499  -0.058   4.040   0.975  0.4721 -2.4750  2.5646
 3288TIP3    H231500   0.023   4.145   1.049 -0.0585  2.0347 -2.6487
 3289TIP3   OH231501   1.037   0.637   1.727  0.0665 -0.2901 -0.3749
 3289TIP3    H131502   0.981   0.632   1.804  1.5159 -0.9747  0.6666
 3289TIP3    H231503   1.123   0.663   1.761  1.0126 -1.6592 -1.6093
 3290TIP3   OH231504   4.828   0.232   1.045  0.3977 -0.9007 -0.0941
 3290TIP3    H131505   4.897   0.241   1.110  0.4110  2.0150 -0.3783
 3290TIP3    H231506   4.826   0.139   1.024  3.2094 -1.2894  0.9990
 3291TIP3   OH231507   2.520   0.442   8.622  0.1287 -0.4788  0.5731
 3291TIP3    H131508   2.503   0.397   8.539  0.1939  0.5893 -0.0410
 3291TIP3    H231509   2.434   0.468   8.654  0.1514 -0.2447  0.4524
 3292TIP3   OH231510   6.443   6.093   7.725  0.4031 -0.2907 -0.4023
 3292TIP3    H131511   6.358   6.056   7.702  0.8691 -1.2706 -0.6090
 3292TIP3    H231512   6.485   6.111   7.641  0.3615  0.3015 -0.3017
 3293TIP3   OH231513   1.243   4.664   1.795  0.2758  0.1915  0.3543
 3293TIP3    H131514   1.194   4.739   1.827  2.4712  1.8786 -0.0044
 3293TIP3    H231515   1.315   4.701   1.745  2.0826 -2.0812  1.0476
 3294TIP3   OH231516   2.352   1.030   6.842  0.2358 -0.0112  0.3784
 3294TIP3    H131517   2.421   1.079   6.797 -1.7991  0.9430 -1.9490
 3294TIP3    H231518   2.324   1.088   6.913  1.3727 -0.1338  0.9413
 3295TIP3   OH231519   6.148   2.978   0.877 -0.2027  0.3823  0.5009
 3295TIP3    H131520   6.112   3.010   0.959  1.2094  1.7202  0.6524
 3295TIP3    H231521   6.199   3.052   0.842  0.9868 -0.8394 -0.5009
 3296TIP3   OH231522   2.108   6.726   7.829 -0.7178 -0.2124 -0.4096
 3296TIP3    H131523   2.154   6.732   7.745 -0.8403 -1.1052 -0.5523
 3296TIP3    H231524   2.025   6.682   7.808  0.3059 -2.7930  0.5299
 3297TIP3   OH231525   2.573   2.542   2.009  0.2173 -0.1821  0.3005
 3297TIP3    H131526   2.488   2.499   2.000 -0.8383  1.6466  0.9640
 3297TIP3    H231527   2.593   2.536   2.102  0.1553  0.5424  0.3654
 3298TIP3   OH231528   1.136   0.005   1.623 -0.0914  0.3417 -0.2188
 3298TIP3    H131529   1.197  -0.053   1.669  1.5439  0.8061 -1.6774
 3298TIP3    H231530   1.154   0.092   1.658 -0.3282  0.4021 -0.2456
 3299TIP3   OH231531   3.963   6.819   0.079  0.2736  0.4994  0.0017
 3299TIP3    H131532   4.002   6.757   0.017  1.1953  0.7420  0.3367
 3299TIP3    H231533   3.970   6.775   0.164 -1.3706 -0.0186 -0.0934
 3300TIP3   OH231534   5.953   4.425   6.658  0.1168  0.2020  0.1701
 3300TIP3    H131535   5.943   4.330   6.658  2.4204 -0.1108  1.2424
 3300TIP3    H231536   6.008   4.443   6.581  0.2477  0.5834  0.3503
 3301TIP3   OH231537   4.760   0.527   1.766 -0.1549  0.2211 -0.5525
 3301TIP3    H131538   4.754   0.491   1.854  0.9421  1.2519 -0.0221
 3301TIP3    H231539   4.755   0.451   1.708  1.2836 -0.7179  0.4862
 3302TIP3   OH231540   0.581   2.931   0.064 -0.2145 -0.2892 -0.1228
 3302TIP3    H131541   0.637   2.934  -0.013  1.2318  0.8311  0.9133
 3302TIP3    H231542   0.629   2.876   0.127 -1.4625 -1.3600 -0.0453
 3303TIP3   OH231543   2.835   4.480   0.546 -0.1221 -0.4852 -0.0227
 3303TIP3    H131544   2.768   4.411   0.538  0.4818 -0.9918 -0.7964
 3303TIP3    H231545   2.846   4.491   0.641 -1.7016  0.0169  0.1368
 3304TIP3   OH231546   4.346   1.195   7.435 -0.4340 -0.5654 -0.2051
 3304TIP3    H131547   4.326   1.169   7.346  0.1882 -0.0906 -0.4908
 3304TIP3    H231548   4.441   1.206   7.437 -0.6466  1.8964 -0.2004
 3305TIP3   OH231549   1.936   2.335   6.782  0.0365  0.1115 -0.1176
 3305TIP3    H131550   1.884   2.258   6.804 -1.4704  1.0534 -0.2258
 3305TIP3    H231551   1.935   2.388   6.861 -1.3244  1.2717 -0.8514
 3306TIP3   OH231552   0.169   0.526   8.017 -0.1729 -0.0949  0.6371
 3306TIP3    H131553   0.210   0.589   7.958  0.0190  0.5349  1.4128
 3306TIP3    H231554   0.205   0.441   7.991 -0.5252  0.0964 -0.5048
 3307TIP3   OH231555   5.432   6.670   8.064 -0.0475  0.6444  0.0231
 3307TIP3    H131556   5.387   6.595   8.102  0.0590  1.1970  1.2879
 3307TIP3    H231557   5.387   6.684   7.980  0.6343 -1.4495 -0.7514
 3308TIP3   OH231558   3.945   4.115   0.484 -0.5545  0.1088 -0.2741
 3308TIP3    H131559   4.038   4.124   0.464  1.1641 -2.4996  4.8110
 3308TIP3    H231560   3.919   4.032   0.444  0.3424 -0.8229  1.0200
 3309TIP3   OH231561   3.210   6.066   6.261  0.0609  0.0587  0.6785
 3309TIP3    H131562   3.223   6.018   6.179  0.0698 -0.1227  0.7851
 3309TIP3    H231563   3.175   6.001   6.322 -0.1152  0.2368  0.7669
 3310TIP3   OH231564   4.874   6.651   7.267 -0.7725  0.4258 -0.3323
 3310TIP3    H131565   4.871   6.746   7.251  0.1621  0.2958 -1.4530
 3310TIP3    H231566   4.783   6.623   7.264 -1.3476  1.6315  2.5429
 3311TIP3   OH231567   5.186   3.334   7.930 -0.4869 -0.1181 -0.9117
 3311TIP3    H131568   5.184   3.286   8.013 -1.4801  1.0321 -0.2370
 3311TIP3    H231569   5.148   3.274   7.866  1.2231 -1.4025 -0.7879
 3312TIP3   OH231570   2.574   0.992   0.033 -0.0304 -0.3859  0.2356
 3312TIP3    H131571   2.642   1.005  -0.034 -1.4686 -0.0464 -1.2423
 3312TIP3    H231572   2.557   0.898   0.033  1.5080 -0.7069  1.7677
 3313TIP3   OH231573   6.728   2.972   6.913  0.4856 -0.3027 -0.1405
 3313TIP3    H131574   6.686   2.911   6.974 -0.0246 -0.6976 -0.8565
 3313TIP3    H231575   6.822   2.962   6.929  0.3288  1.0680  1.9401
 3314TIP3   OH231576   0.572   0.212   8.419 -0.1206 -0.6509  0.0062
 3314TIP3    H131577   0.622   0.286   8.386  0.9001 -0.0725  2.5796
 3314TIP3    H231578   0.481   0.241   8.416  0.0579 -0.1454 -0.9775
 3315TIP3   OH231579   6.330   3.085   0.463  0.2813 -0.4038  0.0965
 3315TIP3    H131580   6.268   3.066   0.534 -0.4074 -0.8524 -0.5987
 3315TIP3    H231581   6.404   3.127   0.506  0.2222 -1.3521  1.1938
 3316TIP3   OH231582   6.808   3.223   7.888 -0.0587  0.3237  0.1741
 3316TIP3    H131583   6.852   3.193   7.968  0.5356 -0.6305 -0.4903
 3316TIP3    H231584   6.716   3.234   7.914  0.1840  0.3213  1.0633
 3317TIP3   OH231585   6.608   1.095   1.455 -0.0236  0.2109  0.3205
 3317TIP3    H131586   6.594   1.187   1.479  1.1453  1.0667 -1.9284
 3317TIP3    H231587   6.550   1.046   1.513 -2.2536  2.5260  0.2473
 3318TIP3   OH231588   1.001   3.476   1.000 -0.3255  0.6846 -1.3040
 3318TIP3    H131589   1.018   3.560   1.043 -3.8635  0.9713 -0.1145
 3318TIP3    H231590   1.020   3.411   1.068 -0.5801  0.7630 -1.1550
 3319TIP3   OH231591   0.642   1.523   0.842  0.5834 -0.0101 -0.4547
 3319TIP3    H131592   0.566   1.525   0.900 -0.4216  0.9147 -1.7457
 3319TIP3    H231593   0.714   1.556   0.896 -0.1618  0.1609  0.4660
 3320TIP3   OH231594   2.767   2.458   6.346 -0.5858 -0.2960  0.1323
 3320TIP3    H131595   2.791   2.384   6.290  0.5347 -0.3427  0.6349
 3320TIP3    H231596   2.704   2.508   6.294  0.8358 -0.0261 -1.4505
 3321TIP3   OH231597   1.615   5.962   1.345 -0.4973 -0.3034  0.5120
 3321TIP3    H131598   1.630   6.024   1.273 -0.0231 -1.2135 -0.1873
 3321TIP3    H231599   1.540   5.910   1.316  0.3782 -1.3976  0.1709
 3322TIP3   OH231600   3.435   4.376   0.754 -0.2923 -0.5016  0.2299
 3322TIP3    H131601   3.501   4.307   0.760 -0.6228 -0.6959  2.2624
 3322TIP3    H231602   3.473   4.450   0.803 -1.1693 -0.2845  0.6006
 3323TIP3   OH231603   5.933   3.534   6.887 -0.5457 -0.1126 -0.5079
 3323TIP3    H131604   5.961   3.594   6.818 -0.2009  0.7301  0.3447
 3323TIP3    H231605   5.858   3.488   6.849  0.0878 -0.1979 -1.7035
 3324TIP3   OH231606   3.230   5.664   0.160  0.6867 -0.1701  0.6089
 3324TIP3    H131607   3.229   5.655   0.064  0.2659 -0.7662  0.6678
 3324TIP3    H231608   3.284   5.742   0.175  0.9568 -0.2079 -0.1000
 3325TIP3   OH231609   4.340   5.416   7.544 -0.2807  0.1098  0.4087
 3325TIP3    H131610   4.380   5.448   7.625 -1.1205  1.4012  0.3538
 3325TIP3    H231611   4.276   5.351   7.574  0.5057 -0.5721  0.6420
 3326TIP3   OH231612   6.405   4.640   0.707 -0.1125  0.1880 -0.2163
 3326TIP3    H131613   6.477   4.610   0.652  0.4435 -0.7926  1.0089
 3326TIP3    H231614   6.402   4.578   0.780 -0.6867  1.5481  0.9824
 3327TIP3   OH231615   1.999   5.408   1.035 -0.5839  0.4975 -0.0446
 3327TIP3    H131616   2.083   5.396   0.990 -0.5759 -1.8365  0.4620
 3327TIP3    H231617   2.018   5.472   1.104  0.4040  1.0222 -0.7677
 3328TIP3   OH231618   0.092   3.114   1.239 -0.0424 -0.1989  0.1250
 3328TIP3    H131619   0.158   3.164   1.286 -1.1907  1.8320 -0.3255
 3328TIP3    H231620   0.142   3.044   1.197  1.5389  0.1760  1.2649
 3329TIP3   OH231621   2.049   3.229   8.032  0.0618  0.7553 -0.2540
 3329TIP3    H131622   2.007   3.240   7.947 -0.6886  2.5490  0.3153
 3329TIP3    H231623   2.136   3.269   8.022  0.9527 -1.1707 -0.8314
 3330TIP3   OH231624   6.500   3.739   6.891  0.0219 -0.0941 -0.4001
 3330TIP3    H131625   6.538   3.743   6.804 -0.4914 -2.1018 -0.7631
 3330TIP3    H231626   6.542   3.664   6.933  1.8138  2.0199  1.9283
 3331TIP3   OH231627   6.435   0.693   6.396 -0.3541  0.1410  0.3352
 3331TIP3    H131628   6.505   0.681   6.332 -0.1447  0.5983  0.4775
 3331TIP3    H231629   6.368   0.629   6.371 -0.4555  0.5983 -0.5928
 3332TIP3   OH231630   5.747   5.797   2.430 -0.5931 -0.0891 -0.0397
 3332TIP3    H131631   5.673   5.738   2.413 -0.3409 -0.8292  1.2326
 3332TIP3    H231632   5.824   5.746   2.405 -0.3675 -0.3796  1.1496
 3333TIP3   OH231633   6.826   3.724   6.871  0.1066 -0.2151 -0.0056
 3333TIP3    H131634   6.778   3.683   6.799 -0.8545  0.9201 -0.0448
 3333TIP3    H231635   6.760   3.738   6.939  0.7554 -0.1974  0.6341
 3334TIP3   OH231636   0.187   3.316   8.539 -0.0158  0.5934  0.1700
 3334TIP3    H131637   0.273   3.358   8.546  0.5822 -0.5940  0.0681
 3334TIP3    H231638   0.204   3.223   8.555 -0.9438  0.0158 -1.9202
 3335TIP3   OH231639   4.535   6.410   0.046 -0.0485 -0.5205  0.2803
 3335TIP3    H131640   4.540   6.389   0.140 -1.5715  2.0317  1.0283
 3335TIP3    H231641   4.615   6.461   0.030  1.5173 -3.0505 -0.5231
 3336TIP3   OH231642   3.007   6.333   1.223  0.0811 -0.3090  0.0689
 3336TIP3    H131643   3.029   6.410   1.275 -0.1838  1.1898 -1.9058
 3336TIP3    H231644   2.965   6.274   1.285  1.0313  0.7578  1.8358
 3337TIP3   OH231645   0.451   5.490   1.638  0.1840  0.1812 -0.2829
 3337TIP3    H131646   0.435   5.451   1.552 -3.1043  0.2954  0.1530
 3337TIP3    H231647   0.503   5.569   1.619  0.1825 -0.2022 -2.0772
 3338TIP3   OH231648   6.655   5.195   0.505  0.1872  0.1499 -0.2093
 3338TIP3    H131649   6.666   5.116   0.452  1.1674  0.0055  0.1737
 3338TIP3    H231650   6.662   5.164   0.595 -1.7290  0.3528  0.0359
 3339TIP3   OH231651   3.515   1.114   8.180  0.0209  0.3222 -0.3605
 3339TIP3    H131652   3.482   1.035   8.222  1.9600  1.4570  3.8187
 3339TIP3    H231653   3.602   1.090   8.148  1.1972  0.9629  2.1547
 3340TIP3   OH231654   5.194   4.414   0.418  0.0267  0.2946  0.4818
 3340TIP3    H131655   5.255   4.373   0.357 -0.1823  0.7699 -0.0644
 3340TIP3    H231656   5.248   4.479   0.464  0.5145 -1.0272  1.8311
 3341TIP3   OH231657   5.730   4.948   1.422  0.6241  0.3898 -0.0776
 3341TIP3    H131658   5.643   4.910   1.411  0.4997  0.6243  0.0881
 3341TIP3    H231659   5.721   5.010   1.495  0.9379  0.3884 -0.0348
 3342TIP3   OH231660   4.544   6.898   8.386  0.0620  0.0561 -0.3155
 3342TIP3    H131661   4.557   6.814   8.430  1.1725 -0.2400 -1.1510
 3342TIP3    H231662   4.450   6.902   8.368 -0.0539 -0.8487  0.0436
 3343TIP3   OH231663   3.312   2.773   0.788 -0.3875  0.5778  0.0016
 3343TIP3    H131664   3.235   2.812   0.748 -1.7922 -1.1548  0.8881
 3343TIP3    H231665   3.297   2.779   0.882  1.0898  1.1765  0.2327
 3344TIP3   OH231666   1.548   4.775   1.760 -0.6763  0.3910  0.8290
 3344TIP3    H131667   1.638   4.759   1.729 -1.3002 -0.2733 -0.7584
 3344TIP3    H231668   1.559   4.812   1.848  1.0954 -2.1713  1.8134
 3345TIP3   OH231669   5.903   6.621   1.924 -0.0842 -0.6470  0.5768
 3345TIP3    H131670   5.810   6.625   1.902  0.0009  1.0794  0.3921
 3345TIP3    H231671   5.946   6.603   1.841 -0.2253 -1.1079  0.6010
 3346TIP3   OH231672   6.342   5.049   6.725  0.7218 -0.3292  0.6686
 3346TIP3    H131673   6.320   5.088   6.640  0.2677  0.7462  1.2634
 3346TIP3    H231674   6.421   5.095   6.753  1.1518 -1.0218  0.6165
 3347TIP3   OH231675   0.733   6.538   0.709  0.0027  0.0913 -0.6991
 3347TIP3    H131676   0.773   6.602   0.767 -0.0174  1.0246 -1.6798
 3347TIP3    H231677   0.805   6.482   0.681 -0.0105 -0.4556  0.3076
 3348TIP3   OH231678   3.349   6.421   2.018 -0.1483 -0.3802  0.5144
 3348TIP3    H131679   3.317   6.332   2.008 -1.2770  0.1566 -1.0026
 3348TIP3    H231680   3.280   6.476   1.981  1.2451  1.0320 -0.1278
 3349TIP3   OH231681   0.282   3.653   7.909  0.5437 -0.2289 -0.0811
 3349TIP3    H131682   0.228   3.574   7.922  0.1668 -0.6180 -3.1057
 3349TIP3    H231683   0.372   3.624   7.923  0.2184 -0.3157  2.0947
 3350TIP3   OH231684   3.898   2.874   7.947 -0.1303  0.1177  0.3109
 3350TIP3    H131685   3.950   2.815   8.002  0.6095 -2.2137 -2.5687
 3350TIP3    H231686   3.807   2.853   7.968  0.1347 -1.3346  0.1466
 3351TIP3   OH231687   3.580   2.742   6.471 -0.2140  0.2990  0.5943
 3351TIP3    H131688   3.525   2.665   6.460 -1.7725  1.2873  1.1240
 3351TIP3    H231689   3.669   2.711   6.455 -1.0635 -0.8756 -2.7051
 3352TIP3   OH231690   2.609   2.588   8.135  0.2577 -0.1045 -0.0237
 3352TIP3    H131691   2.586   2.506   8.179 -1.8505 -0.1017 -0.9780
 3352TIP3    H231692   2.563   2.656   8.184  0.7544  0.3309 -0.1493
 3353TIP3   OH231693   1.259   1.568   1.009 -0.5007 -0.8525  0.0270
 3353TIP3    H131694   1.278   1.642   1.066  0.7162 -0.8161 -0.4025
 3353TIP3    H231695   1.170   1.584   0.978 -0.8749 -0.4482  1.2456
 3354TIP3   OH231696   3.469   5.039   6.838  0.0538 -0.1860  0.0911
 3354TIP3    H131697   3.453   5.033   6.932  2.0070  1.5930  0.6363
 3354TIP3    H231698   3.474   4.949   6.808  1.0836 -0.8432  2.0536
 3355TIP3   OH231699   0.910   2.607   7.739 -0.4501 -0.7117 -0.4053
 3355TIP3    H131700   0.821   2.590   7.770 -0.6303 -0.9491 -1.0251
 3355TIP3    H231701   0.964   2.545   7.789 -0.7683 -1.2852 -0.7561
 3356TIP3   OH231702   0.476   1.708   6.587  0.0676  0.2728 -0.1693
 3356TIP3    H131703   0.551   1.680   6.639 -0.4203 -0.4546  0.1563
 3356TIP3    H231704   0.473   1.803   6.598  1.6731  0.4714 -1.1889
 3357TIP3   OH231705   6.840   5.536   7.574  0.1697 -0.1049 -0.7494
 3357TIP3    H131706   6.896   5.602   7.616 -2.1760  2.4352 -1.3079
 3357TIP3    H231707   6.899   5.463   7.555  2.6094  1.1679  1.2876
 3358TIP3   OH231708   6.414   2.367   8.424  0.2554  0.5596 -0.0386
 3358TIP3    H131709   6.381   2.453   8.447 -0.5122  0.5101 -0.9165
 3358TIP3    H231710   6.498   2.361   8.469 -0.2880  1.2340  1.1014
 3359TIP3   OH231711   5.309   2.277   1.612  0.3003  0.2915 -0.2227
 3359TIP3    H131712   5.215   2.278   1.589  0.1616  0.8699  0.3303
 3359TIP3    H231713   5.330   2.185   1.622 -0.8417  0.2060  2.1134
 3360TIP3   OH231714   5.356   2.880   7.400 -0.4334 -0.0319 -0.1077
 3360TIP3    H131715   5.279   2.930   7.374  0.5774  1.3126 -0.6069
 3360TIP3    H231716   5.415   2.886   7.325  0.6566  0.0100  0.7309
 3361TIP3   OH231717   2.261   6.183   8.046  0.3852  0.7126 -0.0018
 3361TIP3    H131718   2.201   6.234   7.993 -0.6000 -1.5850 -1.2485
 3361TIP3    H231719   2.326   6.150   7.983 -0.2577 -1.2742  0.2965
 3362TIP3   OH231720   6.657   2.196   0.494  0.1377 -0.7104  0.2527
 3362TIP3    H131721   6.593   2.216   0.562 -0.6785  1.4888 -1.0450
 3362TIP3    H231722   6.619   2.231   0.414  2.3964 -0.4943 -0.8226
 3363TIP3   OH231723   1.536   3.047   7.580 -0.6667 -0.1091  0.4393
 3363TIP3    H131724   1.468   2.982   7.564 -1.9355  1.2622  0.0502
 3363TIP3    H231725   1.606   3.025   7.517  0.0389 -2.5227  1.9511
 3364TIP3   OH231726   0.320   4.241   1.013 -0.4697  0.3777 -0.0682
 3364TIP3    H131727   0.328   4.146   1.004 -1.6245  0.2421  0.2816
 3364TIP3    H231728   0.401   4.275   0.974 -0.3302 -0.7158 -0.7858
 3365TIP3   OH231729   0.325   5.482   7.217  0.2700  0.0444  0.3169
 3365TIP3    H131730   0.418   5.477   7.192  0.3744 -0.8025  0.8238
 3365TIP3    H231731   0.299   5.390   7.228 -0.6325  0.2811  0.1709
 3366TIP3   OH231732   3.629   2.427   8.060 -0.1707 -0.0180 -0.3444
 3366TIP3    H131733   3.685   2.356   8.028 -1.1609 -0.2513 -1.6486
 3366TIP3    H231734   3.540   2.392   8.053 -0.8350  1.8962 -2.6515
 3367TIP3   OH231735   0.547   5.195   7.053 -0.1232  0.3651 -0.6130
 3367TIP3    H131736   0.555   5.115   7.106 -2.5824  0.6476  0.3226
 3367TIP3    H231737   0.637   5.226   7.042  0.5940 -0.0184  2.9511
 3368TIP3   OH231738   4.221   2.377   1.533 -0.4852 -0.1916 -0.5591
 3368TIP3    H131739   4.273   2.446   1.576  0.0946  0.0199 -1.5513
 3368TIP3    H231740   4.272   2.354   1.455 -1.5876 -0.4312 -1.2333
 3369TIP3   OH231741   0.242   1.487   0.362 -0.3482  0.0667  0.4734
 3369TIP3    H131742   0.164   1.432   0.362 -1.7117  1.8897  0.1060
 3369TIP3    H231743   0.231   1.544   0.439  1.6446 -0.9231  1.5873
 3370TIP3   OH231744   6.587   5.666   7.795 -0.2693  0.3218  0.7418
 3370TIP3    H131745   6.515   5.708   7.842  0.8002  2.9227  0.1999
 3370TIP3    H231746   6.564   5.676   7.703 -0.9091 -2.1098  0.5715
 3371TIP3   OH231747   0.910   6.070   6.378 -0.3541  0.2692  0.4736
 3371TIP3    H131748   0.913   6.163   6.359 -0.2841  0.6947  2.3827
 3371TIP3    H231749   0.983   6.032   6.328  0.5887  1.4814  0.8883
 3372TIP3   OH231750   5.747   3.457   7.559 -0.1451  0.0905 -0.3302
 3372TIP3    H131751   5.767   3.385   7.619 -1.4818 -0.0345 -0.0060
 3372TIP3    H231752   5.719   3.414   7.478  3.5885  0.1984 -1.9151
 3373TIP3   OH231753   5.991   6.614   6.908 -0.1311 -0.1732 -0.2195
 3373TIP3    H131754   6.072   6.588   6.952 -0.6551 -0.4312  0.6059
 3373TIP3    H231755   5.972   6.542   6.849 -1.3178 -1.5389  1.7162
 3374TIP3   OH231756   2.071   6.405   7.083 -0.4937 -0.2459  0.4853
 3374TIP3    H131757   2.047   6.327   7.133 -1.4277 -0.8375 -0.8186
 3374TIP3    H231758   2.008   6.407   7.012  1.1103  0.2466 -0.9925
 3375TIP3   OH231759   1.952   6.252   1.545 -0.5431 -0.2129  0.0175
 3375TIP3    H131760   1.920   6.338   1.518  0.3637 -0.1154 -0.8097
 3375TIP3    H231761   1.959   6.202   1.464  0.3592 -0.5745  0.3013
 3376TIP3   OH231762   3.538   4.129   8.394 -0.1375 -0.1508  0.3657
 3376TIP3    H131763   3.578   4.215   8.385 -0.2167 -0.1945 -0.4797
 3376TIP3    H231764   3.612   4.070   8.411  0.0753 -0.1058 -0.3586
 3377TIP3   OH231765   4.991   3.286   7.424 -0.0799  0.1917 -0.2300
 3377TIP3    H131766   4.968   3.338   7.347  1.0801  1.2946  0.1353
 3377TIP3    H231767   5.059   3.337   7.469  0.4853 -1.2244  0.6176
 3378TIP3   OH231768   6.375   3.453   8.002 -0.5664 -0.5037  0.6549
 3378TIP3    H131769   6.448   3.444   8.063 -0.4533 -3.8791  0.2350
 3378TIP3    H231770   6.324   3.526   8.035  2.5550  1.5414  1.3721
 3379TIP3   OH231771   3.038   6.212   7.489  0.2080 -0.5262  0.3084
 3379TIP3    H131772   2.960   6.172   7.451 -1.7353  1.6954  1.7093
 3379TIP3    H231773   3.047   6.295   7.443  2.0195 -0.8764 -0.0672
 3380TIP3   OH231774   1.208   6.642   7.986  0.5718 -0.3011  0.4378
 3380TIP3    H131775   1.113   6.631   7.987  0.6126 -0.6459  1.3843
 3380TIP3    H231776   1.228   6.688   8.068  0.9803  2.0648 -0.8783
 3381TIP3   OH231777   5.998   0.365   7.446 -0.2214 -0.3560  0.0992
 3381TIP3    H131778   6.053   0.389   7.372 -0.7353 -3.4424 -1.4701
 3381TIP3    H231779   6.058   0.325   7.509 -0.2825 -1.4264 -0.4991
 3382TIP3   OH231780   6.907   1.622   8.180 -0.0241  0.0389  0.0622
 3382TIP3    H131781   6.859   1.616   8.262 -2.0131 -3.1210 -1.1606
 3382TIP3    H231782   6.982   1.563   8.192  0.8040  1.0953  0.2286
 3383TIP3   OH231783   3.001   2.291   7.217  0.3577  0.6147 -0.2505
 3383TIP3    H131784   2.966   2.362   7.271  0.9499  1.7820 -1.3524
 3383TIP3    H231785   3.043   2.335   7.143  0.5410 -0.8947 -1.0943
 3384TIP3   OH231786   3.923   2.630   7.023  0.4501  0.9251  0.0718
 3384TIP3    H131787   3.928   2.598   6.933 -0.8380  1.3426 -0.1655
 3384TIP3    H231788   3.858   2.573   7.065  0.1562  1.4916  0.3975
 3385TIP3   OH231789   0.277   1.298   1.109  0.7664  0.1110  0.5694
 3385TIP3    H131790   0.219   1.277   1.181 -0.0912  2.1663  0.5433
 3385TIP3    H231791   0.351   1.344   1.150  0.0461  1.7114  0.1382
 3386TIP3   OH231792   1.392   3.275   7.297 -0.0016  0.1650 -0.0786
 3386TIP3    H131793   1.355   3.362   7.280  0.9441  0.2748 -1.8915
 3386TIP3    H231794   1.339   3.215   7.243  0.5314 -0.0906 -0.3306
 3387TIP3   OH231795   3.913   6.299   8.374  0.2153 -0.4226  0.3445
 3387TIP3    H131796   3.990   6.282   8.320  0.5749  2.7694 -0.3951
 3387TIP3    H231797   3.947   6.298   8.464  0.7120 -0.8105  0.1590
 3388TIP3   OH231798   5.497   0.816   1.533 -0.0603  0.4339  0.6918
 3388TIP3    H131799   5.408   0.832   1.565  0.2972 -0.5915  2.2828
 3388TIP3    H231800   5.548   0.889   1.567 -0.2263  0.9316 -0.0815
 3389TIP3   OH231801   6.476   5.098   7.870  0.5067 -0.4915 -0.3363
 3389TIP3    H131802   6.417   5.156   7.918 -0.0060 -1.2211 -0.0587
 3389TIP3    H231803   6.537   5.157   7.825  2.1726  0.2636  2.6183
 3390TIP3   OH231804   6.305   2.086   0.491  0.2441 -0.3965 -0.2472
 3390TIP3    H131805   6.280   2.002   0.530 -0.4742 -1.5114 -2.8766
 3390TIP3    H231806   6.282   2.151   0.557 -1.4488 -2.0739  0.9305
 3391TIP3   OH231807   6.742   6.011   0.251 -0.5431 -0.4527  0.0143
 3391TIP3    H131808   6.750   5.921   0.218 -0.3051 -0.0177 -1.1568
 3391TIP3    H231809   6.687   6.055   0.186 -0.8644  0.1991  0.7131
 3392TIP3   OH231810   2.892   5.179   0.507 -0.5046  0.0246  0.0058
 3392TIP3    H131811   2.985   5.163   0.493 -0.9899 -2.4047 -0.9904
 3392TIP3    H231812   2.889   5.237   0.583  1.7761 -1.6985  1.5461
 3393TIP3   OH231813   6.469   5.628   1.653 -0.5216 -0.1891 -0.2593
 3393TIP3    H131814   6.521   5.660   1.727 -1.5261  0.1690  0.3147
 3393TIP3    H231815   6.489   5.688   1.581  0.8041 -0.8014 -0.4338
 3394TIP3   OH231816   2.767   2.193   1.276 -0.2354 -0.1240 -0.1852
 3394TIP3    H131817   2.740   2.119   1.330  0.3269 -0.7456 -0.7284
 3394TIP3    H231818   2.732   2.270   1.321  1.0759 -0.5252  1.6288
 3395TIP3   OH231819   1.480   0.771   2.171  0.4636 -0.3850 -0.1980
 3395TIP3    H131820   1.520   0.695   2.129  0.4392  0.6591 -2.2519
 3395TIP3    H231821   1.387   0.750   2.175  0.7022 -1.2804  1.1499
 3396TIP3   OH231822   4.875   2.421   1.272  0.3819 -0.2723  0.1743
 3396TIP3    H131823   4.816   2.382   1.208  0.7785  1.9659 -1.6874
 3396TIP3    H231824   4.860   2.371   1.353 -3.4556 -0.2892 -0.4043
 3397TIP3   OH231825   2.171   4.608   7.159  0.4686 -0.2488 -0.0301
 3397TIP3    H131826   2.098   4.608   7.096  0.1034  0.2224  0.3857
 3397TIP3    H231827   2.197   4.700   7.165  0.6078 -0.3170  0.3877
 3398TIP3   OH231828   4.151   6.687   7.271 -0.1230  0.3976 -0.0194
 3398TIP3    H131829   4.158   6.777   7.240 -1.4159  0.5795  0.1726
 3398TIP3    H231830   4.109   6.695   7.357 -1.3012 -0.4598 -0.4973
 3399TIP3   OH231831   6.609   0.739   0.127 -1.2384 -0.1589 -0.5273
 3399TIP3    H131832   6.696   0.776   0.144 -0.3480 -1.2422 -2.4564
 3399TIP3    H231833   6.566   0.741   0.213  1.1630 -0.7994  0.7979
 3400TIP3   OH231834   0.402   1.251   2.226 -0.0123  0.4627  0.2270
 3400TIP3    H131835   0.459   1.312   2.272  0.3960 -0.3534  0.8492
 3400TIP3    H231836   0.439   1.165   2.245 -0.2865  0.0486 -1.0296
 3401TIP3   OH231837   3.650   2.239   1.786 -0.0777  0.2972 -0.4886
 3401TIP3    H131838   3.701   2.265   1.862 -1.1186 -0.7795  0.6335
 3401TIP3    H231839   3.705   2.259   1.711  1.4794  0.2649  0.6146
 3402TIP3   OH231840   5.926   3.893   7.033  0.4152 -0.0315  0.2120
 3402TIP3    H131841   5.958   3.983   7.027  1.0157 -0.2595 -0.0310
 3402TIP3    H231842   5.923   3.862   6.943  2.2569 -0.9594  0.4269
 3403TIP3   OH231843   0.683   3.731   0.306  0.1840  0.0077 -0.3121
 3403TIP3    H131844   0.733   3.650   0.295  1.3262  0.9729 -3.0198
 3403TIP3    H231845   0.725   3.794   0.247 -1.6476  2.1390  0.4972
 3404TIP3   OH231846   4.269   5.821   8.110  0.4050 -0.1953  0.0646
 3404TIP3    H131847   4.363   5.839   8.100 -0.2635  2.8396 -2.4124
 3404TIP3    H231848   4.233   5.903   8.146 -1.1383 -2.0207  3.1468
 3405TIP3   OH231849   6.202   6.431   8.185 -0.6520 -0.5040 -0.3304
 3405TIP3    H131850   6.226   6.468   8.269 -1.4143 -0.5070 -0.1041
 3405TIP3    H231851   6.279   6.381   8.158  1.2067  2.7276 -1.5652
 3406TIP3   OH231852   2.471   4.546   2.111 -0.2072  0.1627  0.1314
 3406TIP3    H131853   2.396   4.520   2.165 -0.8423  0.2508 -0.6815
 3406TIP3    H231854   2.518   4.465   2.094 -0.2322  0.0749  0.4779
 3407TIP3   OH231855   4.515   0.054   2.617 -0.3243  0.9075  0.0679
 3407TIP3    H131856   4.498   0.135   2.569 -1.3952  1.5683  1.5108
 3407TIP3    H231857   4.494  -0.016   2.554  0.1188  1.7210 -1.0223
 3408TIP3   OH231858   5.807   3.777   7.408  0.0852  0.3432 -0.3121
 3408TIP3    H131859   5.728   3.792   7.357  1.0570  1.4949 -1.5462
 3408TIP3    H231860   5.858   3.715   7.355 -0.0390 -0.5401  0.5635
 3409TIP3   OH231861   2.997   0.680   6.690 -0.0583 -0.0131 -0.1605
 3409TIP3    H131862   3.059   0.617   6.655 -0.2706  0.5657 -1.6432
 3409TIP3    H231863   2.915   0.661   6.644 -0.7155 -0.0600  0.9785
 3410TIP3   OH231864   2.766   2.979   7.941  0.2049  0.1514  0.4350
 3410TIP3    H131865   2.719   3.018   8.015 -0.3898 -1.6275  1.0488
 3410TIP3    H231866   2.803   2.898   7.976  0.8271 -0.1934 -0.9590
 3411TIP3   OH231867   2.312   4.788   0.074 -0.0751  0.5989  0.0651
 3411TIP3    H131868   2.392   4.835   0.098 -1.2669  2.4020  0.6326
 3411TIP3    H231869   2.303   4.804  -0.020 -1.2129  2.7963  0.4856
 3412TIP3   OH231870   5.165   3.599   1.040 -0.2487  0.2395  0.4848
 3412TIP3    H131871   5.234   3.642   1.090 -0.3348  1.4114 -0.3747
 3412TIP3    H231872   5.208   3.527   0.996  0.8744  2.0118 -1.4717
 3413TIP3   OH231873   4.112   4.676   0.488 -0.2014 -0.0781  0.3338
 3413TIP3    H131874   4.059   4.739   0.440  0.2711 -0.1465 -0.2805
 3413TIP3    H231875   4.067   4.592   0.476  0.2995 -0.2250 -0.5966
 3414TIP3   OH231876   2.079   1.850   0.626  0.1492  0.1679  0.0772
 3414TIP3    H131877   1.985   1.865   0.633 -0.2507 -2.2023  0.3057
 3414TIP3    H231878   2.115   1.890   0.705 -0.7367  0.5131  0.3209
 3415TIP3   OH231879   4.984   3.453   7.218 -0.1252 -0.0797  0.1415
 3415TIP3    H131880   4.925   3.511   7.265  0.3919 -0.6519  1.5705
 3415TIP3    H231881   5.071   3.493   7.227  0.0393 -0.3918 -0.0047
 3416TIP3   OH231882   2.959   1.807   7.942 -0.2972 -0.4958 -0.0389
 3416TIP3    H131883   3.035   1.859   7.913 -2.6816  3.6944  0.4533
 3416TIP3    H231884   2.915   1.782   7.860 -0.0872 -0.1598 -0.2571
 3417TIP3   OH231885   1.948   4.840   0.397 -0.2133  0.3565  0.2977
 3417TIP3    H131886   2.007   4.823   0.323 -1.7385  0.0109 -0.8842
 3417TIP3    H231887   1.919   4.930   0.384  0.2043  0.6035  1.0103
 3418TIP3   OH231888   4.623   5.044   1.570  0.9799 -0.3148  0.2568
 3418TIP3    H131889   4.681   4.979   1.531 -1.2528 -2.9887  1.1217
 3418TIP3    H231890   4.552   5.054   1.507  1.5075  1.7640 -0.0910
 3419TIP3   OH231891   6.102   6.781   6.684  0.0514 -0.0230 -0.4356
 3419TIP3    H131892   6.083   6.693   6.717 -0.2470  0.7809  1.6994
 3419TIP3    H231893   6.198   6.785   6.682  0.0652 -0.4199 -0.5733
 3420TIP3   OH231894   4.710   6.810   1.475 -0.2282 -0.4160  0.4063
 3420TIP3    H131895   4.806   6.818   1.478 -0.1946 -0.7035  0.1077
 3420TIP3    H231896   4.678   6.900   1.471 -0.0522 -0.1667  2.9302
 3421TIP3   OH231897   1.289   5.594   0.372  0.4531 -0.7281  0.7203
 3421TIP3    H131898   1.382   5.587   0.354  0.3624  0.5958 -0.4397
 3421TIP3    H231899   1.247   5.569   0.289 -0.2595 -2.0821  1.4630
 3422TIP3   OH231900   6.103   1.239   8.504  0.5837 -0.6397 -0.2305
 3422TIP3    H131901   6.137   1.183   8.435 -0.8038 -0.5601 -1.0249
 3422TIP3    H231902   6.180   1.270   8.551  1.4516 -2.2355 -0.5239
 3423TIP3   OH231903   6.029   6.231   8.230 -0.5112 -0.6501  0.5241
 3423TIP3    H131904   6.041   6.324   8.250 -1.3910 -0.4769  0.2845
 3423TIP3    H231905   5.988   6.195   8.309  0.0765 -0.9058  0.7244
 3424TIP3   OH231906   3.441   3.551   7.057 -0.7224  0.1693  0.3370
 3424TIP3    H131907   3.466   3.644   7.059  1.1363 -0.2995  0.7503
 3424TIP3    H231908   3.468   3.517   7.142  1.4547 -1.3916 -0.8732
 3425TIP3   OH231909   5.000   0.282   7.199 -0.1899 -0.1988 -0.0567
 3425TIP3    H131910   4.962   0.257   7.115 -0.2515  1.6227 -0.6112
 3425TIP3    H231911   4.938   0.345   7.236  2.3060  3.2404 -1.1940
 3426TIP3   OH231912   3.376   4.657   8.128  0.4887  0.3991  0.3580
 3426TIP3    H131913   3.432   4.593   8.085 -0.5597  0.2710 -0.8591
 3426TIP3    H231914   3.357   4.618   8.214 -0.1250 -0.9340 -0.3545
 3427TIP3   OH231915   4.762   3.760   0.859  0.5166  0.5431  0.3789
 3427TIP3    H131916   4.811   3.811   0.794  1.3299  0.4503  0.8924
 3427TIP3    H231917   4.671   3.783   0.844  0.9091  3.0961  1.3409
 3428TIP3   OH231918   6.349   0.744   7.757 -0.3793 -0.1671  0.1312
 3428TIP3    H131919   6.291   0.669   7.742 -2.3205  1.3411 -0.3664
 3428TIP3    H231920   6.434   0.717   7.723 -1.5625 -1.3806 -2.0376
 3429TIP3   OH231921   2.846   6.044   0.065 -0.3286  0.5080  0.4779
 3429TIP3    H131922   2.883   6.093  -0.009 -0.1352 -0.9223 -0.4265
 3429TIP3    H231923   2.766   6.091   0.088 -0.2738  1.1121 -0.5057
 3430TIP3   OH231924   6.821   6.198   1.438  0.3047  0.0985 -0.1929
 3430TIP3    H131925   6.882   6.267   1.464 -2.5857  2.9341 -0.2518
 3430TIP3    H231926   6.823   6.135   1.510  2.1206  0.8652  0.4895
 3431TIP3   OH231927   6.034   2.402   1.277 -0.4273 -0.2378  0.1765
 3431TIP3    H131928   6.020   2.476   1.216  1.3137  0.1590  0.1932
 3431TIP3    H231929   6.059   2.329   1.220 -1.1721 -0.5505  0.2414
 3432TIP3   OH231930   2.440   4.199   1.050  0.3745 -0.4886  0.1653
 3432TIP3    H131931   2.530   4.167   1.038  0.3944 -1.5969  2.7036
 3432TIP3    H231932   2.450   4.276   1.106 -0.2004  0.3347 -0.8083
 3433TIP3   OH231933   5.087   4.722   1.663 -0.4137  0.6310 -0.2911
 3433TIP3    H131934   5.022   4.690   1.725 -0.6347  1.7348  0.0759
 3433TIP3    H231935   5.149   4.771   1.717  0.8598 -0.5671 -0.6069
 3434TIP3   OH231936   6.351   2.572   0.670  0.1644  0.3294 -0.1672
 3434TIP3    H131937   6.308   2.656   0.681 -1.1884 -0.3458 -0.1214
 3434TIP3    H231938   6.399   2.580   0.587 -1.4996  0.5276 -1.1500
 3435TIP3   OH231939   6.736   0.870   8.187  0.1361  0.4720 -0.6349
 3435TIP3    H131940   6.647   0.833   8.181 -0.5265  2.1778 -2.6497
 3435TIP3    H231941   6.769   0.839   8.271 -2.8718  0.8353  0.8285
 3436TIP3   OH231942   2.377   3.027   7.823  0.1146  0.8564 -0.1447
 3436TIP3    H131943   2.322   2.950   7.808 -1.4887  1.8071  0.6284
 3436TIP3    H231944   2.436   3.029   7.747  1.7700 -2.3610  0.8476
 3437TIP3   OH231945   2.153   1.169   0.658 -0.5218  0.6049 -0.2580
 3437TIP3    H131946   2.135   1.222   0.736 -0.4533 -0.2516  0.3461
 3437TIP3    H231947   2.144   1.231   0.585 -1.1482  1.2896  0.3807
 3438TIP3   OH231948   5.793   3.499   1.855 -0.2660  0.3425 -0.1834
 3438TIP3    H131949   5.888   3.493   1.845 -0.3134 -0.5594 -0.1546
 3438TIP3    H231950   5.771   3.434   1.922 -1.0792 -0.5555 -1.2808
 3439TIP3   OH231951   1.508   4.358   8.615  0.8650  0.0617  0.1078
 3439TIP3    H131952   1.523   4.437   8.668 -0.6659  1.6630 -1.6689
 3439TIP3    H231953   1.548   4.379   8.530  0.6711 -1.2060 -0.3069
 3440TIP3   OH231954   0.281   1.929   0.278  0.0905  0.1329  0.3636
 3440TIP3    H131955   0.367   1.887   0.277 -0.0447 -0.1587  0.6498
 3440TIP3    H231956   0.299   2.023   0.274  0.4575  0.1145  1.4106
 3441TIP3   OH231957   4.375   1.411   7.121  0.0586  0.1094  0.0533
 3441TIP3    H131958   4.439   1.376   7.060 -0.7676  2.0554 -2.0965
 3441TIP3    H231959   4.424   1.472   7.176  0.3570  0.4185 -0.5431
 3442TIP3   OH231960   2.656   2.565   1.243  0.2893  0.5318 -0.1252
 3442TIP3    H131961   2.640   2.543   1.335  1.5595 -0.4542 -0.1120
 3442TIP3    H231962   2.750   2.582   1.239  0.5141 -0.8601 -1.5081
 3443TIP3   OH231963   1.652   5.018   7.121  0.1233  0.2810 -0.2437
 3443TIP3    H131964   1.602   5.064   7.054 -0.9938  0.1975  0.4978
 3443TIP3    H231965   1.697   5.088   7.169  0.8572  0.3456 -1.0163
 3444TIP3   OH231966   5.473   5.982   7.490 -0.3980  0.5002 -0.4395
 3444TIP3    H131967   5.388   5.940   7.477  0.8304 -1.9169 -1.2304
 3444TIP3    H231968   5.490   5.973   7.584 -1.3232  1.7165 -0.1309
 3445TIP3   OH231969   3.507   4.508   1.679  0.4114 -0.0536 -0.4824
 3445TIP3    H131970   3.591   4.463   1.674 -0.1797 -1.1500 -0.6660
 3445TIP3    H231971   3.447   4.454   1.629 -0.7602 -0.1039  0.9288
 3446TIP3   OH231972   1.468   4.236   7.068 -0.2103  0.4572 -0.1846
 3446TIP3    H131973   1.400   4.190   7.119  0.7572  0.4910  1.2060
 3446TIP3    H231974   1.501   4.170   7.008  0.0449 -0.2329  0.6839
 3447TIP3   OH231975   3.663   2.353   8.341  0.1423 -0.5510 -0.0293
 3447TIP3    H131976   3.643   2.365   8.248  1.1132 -0.6516 -0.2549
 3447TIP3    H231977   3.636   2.263   8.360  0.2680 -0.6466 -0.2976
 3448TIP3   OH231978   5.835   6.739   7.256 -0.3151  0.5934 -1.0313
 3448TIP3    H131979   5.889   6.762   7.331 -0.5003  0.5303 -0.8796
 3448TIP3    H231980   5.746   6.731   7.291 -0.5697  1.5199 -1.4282
 3449TIP3   OH231981   0.340   5.333   7.622  0.4458  0.6717  0.2329
 3449TIP3    H131982   0.418   5.292   7.586  0.5621 -0.1905  1.3961
 3449TIP3    H231983   0.337   5.303   7.713  0.4498  3.1508  1.1195
 3450TIP3   OH231984   1.904   0.111   0.211  0.2632  0.2115  0.2717
 3450TIP3    H131985   1.870   0.131   0.299  0.0760  2.1321 -0.1994
 3450TIP3    H231986   1.828   0.079   0.163 -0.2118  1.4861  0.1337
 3451TIP3   OH231987   3.282   2.626   1.667 -0.2622  0.5177 -0.0365
 3451TIP3    H131988   3.286   2.535   1.697  1.3150 -0.3899 -2.6792
 3451TIP3    H231989   3.313   2.678   1.741  0.2234 -1.2309  1.0277
 3452TIP3   OH231990   5.183   0.854   0.725 -0.1998  0.1839 -0.1203
 3452TIP3    H131991   5.114   0.848   0.791 -0.1858  0.0324 -0.1171
 3452TIP3    H231992   5.265   0.847   0.775 -0.0988  2.3306  0.1090
 3453TIP3   OH231993   0.042   2.719   0.977  0.1749 -0.5288 -0.5755
 3453TIP3    H131994   0.053   2.683   0.889 -0.4719 -1.1281 -0.4179
 3453TIP3    H231995   0.065   2.648   1.036 -0.8556 -0.6204 -0.2612
 3454TIP3   OH231996   5.192   2.215   1.232 -0.5593 -0.5478 -0.9414
 3454TIP3    H131997   5.266   2.276   1.237 -0.3531 -0.7283 -1.6974
 3454TIP3    H231998   5.140   2.245   1.158 -0.4556 -1.2825 -1.3235
 3455TIP3   OH231999   4.668   1.343   0.625 -0.0106  0.0012 -0.1760
 3455TIP3    H132000   4.580   1.364   0.594 -0.0597  0.2204  0.1122
 3455TIP3    H232001   4.721   1.340   0.545 -0.8783 -3.3445 -0.7738
 3456TIP3   OH232002   1.981   2.992   2.338 -0.0361  0.2996 -0.5517
 3456TIP3    H132003   1.909   3.036   2.292 -0.0708 -0.7652 -1.5620
 3456TIP3    H232004   2.040   2.964   2.268  0.9097  0.3746  0.2089
 3457TIP3   OH232005   5.319   0.749   7.520 -0.3351 -0.1335 -0.4121
 3457TIP3    H132006   5.353   0.672   7.474  0.7618 -0.2739  0.5923
 3457TIP3    H232007   5.398   0.801   7.541 -0.9728  0.7908 -0.2337
 3458TIP3   OH232008   2.554   1.701   0.395 -0.0144  0.5419  0.4674
 3458TIP3    H132009   2.464   1.733   0.402 -0.4771 -0.7331  0.6823
 3458TIP3    H232010   2.596   1.762   0.334 -0.8940  1.4071  0.6925
 3459TIP3   OH232011   5.114   2.361   0.993  0.2139 -0.0920 -0.1149
 3459TIP3    H132012   5.133   2.439   1.045 -1.8035  0.5674 -0.3091
 3459TIP3    H232013   5.166   2.371   0.914  0.1343  0.9433 -0.0382
 3460TIP3   OH232014   5.161   1.102   1.906  0.1196  0.0655 -0.7460
 3460TIP3    H132015   5.093   1.084   1.971  0.1007  1.4142 -0.3433
 3460TIP3    H232016   5.240   1.065   1.943 -0.1010 -0.1277 -0.4607
 3461TIP3   OH232017   5.192   6.505   2.266  0.1737  0.0878  0.4443
 3461TIP3    H132018   5.267   6.550   2.304  0.0401 -1.4601  2.7236
 3461TIP3    H232019   5.207   6.412   2.285 -0.1556 -0.8071 -2.9882
 3462TIP3   OH232020   4.095   1.144   6.759 -0.0105  0.0095 -0.3527
 3462TIP3    H132021   4.014   1.094   6.761 -0.2329  0.3902  0.2537
 3462TIP3    H232022   4.073   1.228   6.799  0.3018  0.6916 -1.5671
 3463TIP3   OH232023   4.930   2.130   1.042 -0.3200 -0.2437 -0.3422
 3463TIP3    H132024   4.839   2.156   1.055 -0.0281  0.3820  0.4986
 3463TIP3    H232025   4.979   2.212   1.046  0.3542 -0.6552 -0.1250
 3464TIP3   OH232026   6.803   0.658   6.567 -0.7886 -0.3707 -0.1727
 3464TIP3    H132027   6.774   0.574   6.601 -1.9810  0.0224 -0.1732
 3464TIP3    H232028   6.726   0.715   6.575  0.1025  0.8235  0.1742
 3465TIP3   OH232029   0.878   1.902   1.327 -0.4241 -0.3469  0.6298
 3465TIP3    H132030   0.877   1.997   1.318  1.3811 -0.3385  0.1768
 3465TIP3    H232031   0.793   1.880   1.364 -1.3771  1.3154 -0.4691
 3466TIP3   OH232032   0.704   2.376   7.415  0.3282  1.0550 -0.5723
 3466TIP3    H132033   0.645   2.340   7.350  0.1258  0.7940 -0.2465
 3466TIP3    H232034   0.649   2.394   7.491  0.6819  0.6730 -0.2145
 3467TIP3   OH232035   2.551   3.085   0.902  0.6801  0.2821  0.1370
 3467TIP3    H132036   2.586   3.146   0.967  2.3229  0.2975 -0.6912
 3467TIP3    H232037   2.465   3.060   0.935  1.6173 -0.0356  2.5502
 3468TIP3   OH232038   1.863   5.655   6.717 -0.7296 -0.0571  0.4830
 3468TIP3    H132039   1.943   5.665   6.666 -0.1223 -1.7851  1.0628
 3468TIP3    H232040   1.798   5.625   6.654 -0.2185 -1.2790  0.5260
 3469TIP3   OH232041   1.520   5.327   7.968  0.1798  0.5317  0.4580
 3469TIP3    H132042   1.486   5.269   8.036 -0.5524  1.1486  0.6315
 3469TIP3    H232043   1.552   5.403   8.016  0.0379  0.7905  0.1468
 3470TIP3   OH232044   1.630   1.087   1.439  0.0491 -0.1414 -0.3896
 3470TIP3    H132045   1.602   1.152   1.504 -0.9658  1.4166 -2.2942
 3470TIP3    H232046   1.712   1.122   1.404  1.6751 -1.9550  1.2811
 3471TIP3   OH232047   4.823   4.612   8.337 -0.3904 -0.2590  0.2120
 3471TIP3    H132048   4.780   4.686   8.379  0.8354 -0.0060  1.0855
 3471TIP3    H232049   4.917   4.629   8.349 -0.0800 -1.6673 -0.0502
 3472TIP3   OH232050   1.979   0.155   1.486 -0.2881 -0.5757 -0.1289
 3472TIP3    H132051   1.909   0.175   1.424  0.0652 -1.3745 -0.8047
 3472TIP3    H232052   2.060   0.173   1.437 -0.0056 -1.0819  0.1503
 3473TIP3   OH232053   0.120   1.687   1.133  0.2787 -0.2662 -0.3354
 3473TIP3    H132054   0.066   1.671   1.056  1.2757 -2.0830 -0.7216
 3473TIP3    H232055   0.173   1.763   1.109 -0.8997  0.4950 -0.5911
 3474TIP3   OH232056   4.320   3.311   7.641  0.0481 -0.7064  0.2917
 3474TIP3    H132057   4.380   3.284   7.710  0.4288 -0.1755  0.1735
 3474TIP3    H232058   4.283   3.229   7.608 -1.5282 -0.8963  2.3330
 3475TIP3   OH232059   6.351   6.206   6.788 -0.5044 -0.0154  0.0968
 3475TIP3    H132060   6.266   6.163   6.783  0.7102 -2.8189  1.5386
 3475TIP3    H232061   6.412   6.144   6.749  1.1124  1.2559  0.4699
 3476TIP3   OH232062   6.350   4.873   2.330 -0.3057 -0.4541  0.0045
 3476TIP3    H132063   6.424   4.817   2.353 -0.0144 -0.3560 -0.6668
 3476TIP3    H232064   6.312   4.831   2.252 -1.3559 -0.8696  0.7072
 3477TIP3   OH232065   2.803   2.713   1.489 -0.4940 -0.0811 -0.0425
 3477TIP3    H132066   2.808   2.617   1.490 -0.9831 -0.1187 -0.7640
 3477TIP3    H232067   2.895   2.741   1.486 -0.3660 -0.5343 -0.4355
 3478TIP3   OH232068   3.354   2.060   1.409  0.9992 -0.6350 -0.2228
 3478TIP3    H132069   3.448   2.078   1.407  0.6205  1.5596 -1.2520
 3478TIP3    H232070   3.320   2.104   1.332 -1.1651  0.4049  1.2440
 3479TIP3   OH232071   0.066   1.178   1.834  0.3326 -0.4508  0.6004
 3479TIP3    H132072   0.148   1.128   1.833  0.7869  0.2721  1.1637
 3479TIP3    H232073   0.040   1.183   1.742  0.7569 -0.9395  0.4480
 3480TIP3   OH232074   5.891   4.238   1.009 -0.2626 -0.4826  0.0169
 3480TIP3    H132075   5.985   4.257   1.002 -0.6726  1.2799 -1.2210
 3480TIP3    H232076   5.877   4.167   0.946 -0.0630  0.5217 -1.1913
 3481TIP3   OH232077   4.843   0.859   0.696  0.0534  0.4551 -0.2290
 3481TIP3    H132078   4.865   0.940   0.651  0.7493  0.5036  0.1824
 3481TIP3    H232079   4.776   0.884   0.760 -1.5890  0.2252 -1.7890
 3482TIP3   OH232080   1.785   1.729   0.439 -0.1094 -0.0294 -0.6312
 3482TIP3    H132081   1.758   1.639   0.422  2.0052 -0.6535 -0.9604
 3482TIP3    H232082   1.879   1.724   0.455 -0.3436  1.7966  1.9945
 3483TIP3   OH232083   5.259   6.914   0.049  0.4267  0.3059  0.1740
 3483TIP3    H132084   5.223   6.872   0.127 -1.0259  3.2777  1.2556
 3483TIP3    H232085   5.351   6.930   0.069  0.0568  1.0776  1.3535
 3484TIP3   OH232086   2.419   6.265   0.107  0.7620 -0.7013 -0.3772
 3484TIP3    H132087   2.426   6.172   0.087  0.0387 -0.4382 -1.9748
 3484TIP3    H232088   2.326   6.284   0.102  0.8535  0.0214  0.4328
 3485TIP3   OH232089   0.955   1.037   7.330 -0.0149  0.2298 -0.0152
 3485TIP3    H132090   0.904   1.118   7.342 -2.0065 -1.1700  1.6334
 3485TIP3    H232091   1.039   1.056   7.371 -0.7358  1.2220  1.0744
 3486TIP3   OH232092   0.768   6.915   0.630 -0.0534 -0.5682  0.7542
 3486TIP3    H132093   0.816   6.922   0.712  0.2647 -1.8905  0.6994
 3486TIP3    H232094   0.813   6.975   0.571  1.9864 -2.2095  0.5256
 3487TIP3   OH232095   1.923   0.329   1.223 -0.2521  0.2734  0.6912
 3487TIP3    H132096   2.012   0.319   1.257 -0.1472 -0.5810  0.2175
 3487TIP3    H232097   1.919   0.419   1.190  1.2965 -0.3930 -1.5796
 3488TIP3   OH232098   4.573   5.112   1.823  0.7066 -0.0236  0.0271
 3488TIP3    H132099   4.512   5.185   1.819  0.2956 -0.3604  0.0571
 3488TIP3    H232100   4.601   5.100   1.732  2.6001  1.6617  0.3071
 3489TIP3   OH232101   4.917   5.702   8.281  0.4489 -0.2819  0.3168
 3489TIP3    H132102   4.962   5.636   8.334 -0.3680 -0.0585  1.3178
 3489TIP3    H232103   4.891   5.656   8.201  3.6209 -0.0906 -0.9605
 3490TIP3   OH232104   6.171   1.918   1.507 -0.1621 -0.6028 -0.1968
 3490TIP3    H132105   6.202   1.920   1.597 -0.1995  0.3301 -0.1924
 3490TIP3    H232106   6.219   1.988   1.463 -1.0045 -0.2680 -0.6081
 3491TIP3   OH232107   0.597   3.386   8.322 -0.0407 -0.4055  0.2248
 3491TIP3    H132108   0.636   3.459   8.274  0.8802  0.1905  1.7770
 3491TIP3    H232109   0.633   3.308   8.281 -0.2270  0.0305 -0.7998
 3492TIP3   OH232110   3.348   6.289   6.352 -0.6275 -0.1644  0.4696
 3492TIP3    H132111   3.303   6.216   6.311 -0.9703 -0.5522  1.4942
 3492TIP3    H232112   3.435   6.256   6.372 -0.0082  0.4386 -1.0920
 3493TIP3   OH232113   1.245   3.592   8.151 -0.3999  0.1107  0.6012
 3493TIP3    H132114   1.258   3.630   8.064  1.5010 -1.3677  0.1677
 3493TIP3    H232115   1.211   3.504   8.135 -0.1502 -0.1333  1.3461
 3494TIP3   OH232116   4.462   6.895   7.316  0.3035  0.3841  0.7779
 3494TIP3    H132117   4.529   6.883   7.248 -0.7947 -0.0313 -0.2570
 3494TIP3    H232118   4.477   6.983   7.349  0.9233  0.5513  0.0803
 3495TIP3   OH232119   2.963   1.465   1.309 -0.2905 -0.3007 -0.4761
 3495TIP3    H132120   2.959   1.371   1.330 -0.9753 -0.0558  0.5339
 3495TIP3    H232121   2.873   1.495   1.317  0.1419  0.7470  0.6876
 3496TIP3   OH232122   4.305   3.756   8.240 -0.2104 -0.0572 -0.1181
 3496TIP3    H132123   4.338   3.666   8.235  0.5898  0.2906 -1.7852
 3496TIP3    H232124   4.365   3.800   8.299 -0.5533 -0.5748  0.6376
 3497TIP3   OH232125   5.437   2.700   7.635 -0.1675  0.2070  0.1271
 3497TIP3    H132126   5.475   2.630   7.582 -0.2584 -0.0447  0.3970
 3497TIP3    H232127   5.353   2.718   7.593  0.3168  0.8945 -0.5865
 3498TIP3   OH232128   6.762   2.874   7.675 -0.6919  0.0576  0.2475
 3498TIP3    H132129   6.810   2.847   7.597  0.0219 -0.8119  0.9711
 3498TIP3    H232130   6.782   2.807   7.740  0.0403  1.6062  1.6912
 3499TIP3   OH232131   0.862   6.653   1.665  0.1140  0.2682  0.0319
 3499TIP3    H132132   0.861   6.715   1.738  0.9510 -0.3273  0.5607
 3499TIP3    H232133   0.788   6.595   1.682 -0.1861  0.6243 -0.0362
 3500TIP3   OH232134   4.910   4.770   0.372 -0.5782 -0.4673 -0.1136
 3500TIP3    H132135   4.819   4.777   0.345 -1.0234 -0.8453  1.1976
 3500TIP3    H232136   4.922   4.678   0.396  0.4048 -0.6150 -1.1091
 3501TIP3   OH232137   3.820   6.494   1.313 -0.1125 -0.3018  0.0545
 3501TIP3    H132138   3.879   6.426   1.280  0.6497  0.9797 -1.3472
 3501TIP3    H232139   3.877   6.551   1.365 -0.3858  0.2099 -0.2005
 3502TIP3   OH232140   5.859   2.191   1.427 -0.0761  0.3220  0.2314
 3502TIP3    H132141   5.908   2.269   1.401  0.6137 -0.8058 -2.0381
 3502TIP3    H232142   5.876   2.127   1.358 -2.1380 -1.2326  1.0593
 3503TIP3   OH232143   1.788   5.117   1.366 -0.1195  0.2009 -0.3745
 3503TIP3    H132144   1.858   5.115   1.431 -0.0136 -2.0522 -0.4618
 3503TIP3    H232145   1.707   5.111   1.417 -0.1032 -0.0996 -0.3814
 3504TIP3   OH232146   0.595   1.858   7.915  0.4721  0.2783 -0.1012
 3504TIP3    H132147   0.500   1.858   7.919  0.3759 -3.2705  0.5332
 3504TIP3    H232148   0.623   1.903   7.995 -0.7118 -0.0027  0.4868
 3505TIP3   OH232149   5.612   2.009   1.213 -0.2135 -0.1068  0.0971
 3505TIP3    H132150   5.707   1.999   1.216 -0.2975 -1.3893 -0.8131
 3505TIP3    H232151   5.598   2.088   1.161  0.3788  2.5335  3.5740
 3506TIP3   OH232152   5.509   6.737   8.326 -0.3525  0.5418 -0.4914
 3506TIP3    H132153   5.577   6.675   8.354 -0.1542  0.8635 -0.2530
 3506TIP3    H232154   5.493   6.714   8.235 -0.6696 -0.2118 -0.2545
 3507TIP3   OH232155   6.506   5.807   1.449  0.4316 -0.3625 -0.1939
 3507TIP3    H132156   6.499   5.793   1.354  0.4289 -1.3121 -0.0594
 3507TIP3    H232157   6.528   5.900   1.457  0.6802 -0.3237 -1.1349
 3508TIP3   OH232158   3.433   1.204   0.349  0.3413 -0.0499 -1.0747
 3508TIP3    H132159   3.431   1.247   0.434 -0.5133  0.3059 -1.2664
 3508TIP3    H232160   3.389   1.120   0.363  0.6044 -0.1923 -1.0720
 3509TIP3   OH232161   1.110   5.467   0.767  0.0974 -0.2359  0.3297
 3509TIP3    H132162   1.088   5.449   0.676  1.3062  2.7980 -0.6594
 3509TIP3    H232163   1.197   5.427   0.779 -0.4462 -1.4299  0.4976
 3510TIP3   OH232164   0.337   1.108   6.397 -0.3842  0.0533  0.6314
 3510TIP3    H132165   0.348   1.014   6.407 -0.7673  0.1621  2.3896
 3510TIP3    H232166   0.381   1.129   6.315 -0.5471 -1.6899  0.0638
 3511TIP3   OH232167   2.022   5.877   6.137 -0.6911 -0.1049 -0.5448
 3511TIP3    H132168   1.993   5.966   6.153  0.5957  0.0540  1.1919
 3511TIP3    H232169   1.962   5.822   6.187  0.1034 -0.0013  0.5417
 3512TIP3   OH232170   2.725   5.195   1.955 -0.7315  0.4315  0.1412
 3512TIP3    H132171   2.801   5.138   1.961 -0.0723  1.2364 -0.4392
 3512TIP3    H232172   2.652   5.135   1.940  0.2273 -0.1646 -2.6829
 3513TIP3   OH232173   5.958   0.419   6.501 -0.1274  0.1926 -0.3497
 3513TIP3    H132174   5.973   0.484   6.431 -1.5983  0.6847 -0.2460
 3513TIP3    H232175   6.030   0.357   6.492  0.2796  0.8165 -1.6574
 3514TIP3   OH232176   2.834   6.297   8.128  0.0031  0.5385 -0.1112
 3514TIP3    H132177   2.749   6.278   8.168 -0.7354  3.0089 -0.3101
 3514TIP3    H232178   2.890   6.321   8.202  0.6161 -1.1533  0.0285
 3515TIP3   OH232179   3.928   4.497   8.501  0.2115  0.4519 -0.2185
 3515TIP3    H132180   3.936   4.407   8.470  0.4292  0.8064 -1.2235
 3515TIP3    H232181   3.968   4.496   8.588  0.6816 -0.3046 -0.4361
 3516TIP3   OH232182   6.766   3.561   7.233  0.1311 -0.3841  0.0808
 3516TIP3    H132183   6.762   3.530   7.324 -1.7632 -0.3650  0.0512
 3516TIP3    H232184   6.769   3.656   7.240 -1.9490 -0.2749  0.1706
 3517TIP3   OH232185   6.548   1.757   8.477 -0.2925 -0.0673 -0.6885
 3517TIP3    H132186   6.628   1.809   8.467  0.5265 -1.2506 -0.4947
 3517TIP3    H232187   6.494   1.780   8.402  0.5807  0.1510 -1.2564
 3518TIP3   OH232188   4.014   0.067   1.600 -0.2585  0.0989  0.0653
 3518TIP3    H132189   4.043   0.151   1.636  0.3623  0.1549 -0.5413
 3518TIP3    H232190   4.094   0.025   1.569 -0.6929 -0.2175 -0.6689
 3519TIP3   OH232191   3.393   3.922   6.106 -0.2279  0.0147  0.5535
 3519TIP3    H132192   3.445   3.884   6.177 -1.2430  1.1045  1.9357
 3519TIP3    H232193   3.383   4.014   6.130 -1.6553  0.1291 -0.3354
 3520TIP3   OH232194   1.811   5.364   0.099  0.3431  0.1940  0.0013
 3520TIP3    H132195   1.853   5.392   0.018  1.7361  0.0668  0.6515
 3520TIP3    H232196   1.874   5.386   0.168 -1.7716  2.5592  1.3563
 3521TIP3   OH232197   2.579   4.540   8.504  0.2666  0.2607 -0.2602
 3521TIP3    H132198   2.517   4.534   8.576 -0.4313 -0.8346 -0.9339
 3521TIP3    H232199   2.525   4.539   8.425  0.9864  1.9542 -0.8197
 3522TIP3   OH232200   1.451   4.563   1.525  0.0392 -1.1014  0.0662
 3522TIP3    H132201   1.453   4.631   1.591 -0.8831 -1.7852  0.8360
 3522TIP3    H232202   1.468   4.482   1.573  0.1973 -1.5168 -0.6679
 3523TIP3   OH232203   4.739   1.783   0.992 -0.4417 -0.0591 -0.3076
 3523TIP3    H132204   4.734   1.831   0.909 -3.8189 -1.0600 -0.8185
 3523TIP3    H232205   4.701   1.697   0.973 -2.1874 -0.0094  2.4193
 3524TIP3   OH232206   6.316   5.195   7.547  0.1218  0.0623  0.1848
 3524TIP3    H132207   6.351   5.253   7.614 -2.0835 -0.1165  1.6268
 3524TIP3    H232208   6.393   5.158   7.504  1.7112 -0.4645  3.2090
 3525TIP3   OH232209   3.216   4.353   1.460  0.1533 -0.5659  0.1096
 3525TIP3    H132210   3.213   4.329   1.552  1.7794 -0.4229  0.2211
 3525TIP3    H232211   3.155   4.292   1.418  0.8655 -1.9617  1.0127
 3526TIP3   OH232212   2.146   6.765   6.705 -0.3104 -0.5704  0.1143
 3526TIP3    H132213   2.206   6.834   6.675 -1.1696  0.6363  1.0771
 3526TIP3    H232214   2.113   6.797   6.789 -1.6765 -1.5978 -0.0050
 3527TIP3   OH232215   3.673   4.221   0.498 -0.4936 -0.2945  0.6790
 3527TIP3    H132216   3.762   4.196   0.473 -0.7761 -0.4414 -0.2481
 3527TIP3    H232217   3.660   4.184   0.585 -0.0265 -1.2070  0.3639
 3528TIP3   OH232218   2.404   0.199   0.827  0.7168 -0.0263  0.0644
 3528TIP3    H132219   2.357   0.120   0.800  0.4842  0.3980 -0.7973
 3528TIP3    H232220   2.354   0.271   0.788  0.2575  0.6357  1.7801
 3529TIP3   OH232221   6.897   2.054   0.743  0.0633  0.1103  0.3469
 3529TIP3    H132222   6.830   1.993   0.711 -0.5429  2.1280 -2.6236
 3529TIP3    H232223   6.960   2.060   0.672  1.3090  1.2579  1.4954
 3530TIP3   OH232224   2.434   3.708   7.872  0.1542  0.0691  0.1845
 3530TIP3    H132225   2.492   3.696   7.796 -1.0197 -2.8339 -0.3852
 3530TIP3    H232226   2.452   3.632   7.927 -2.3760 -0.4025  0.4586
 3531TIP3   OH232227   4.021   4.899   1.530 -0.2548 -0.7307 -0.0388
 3531TIP3    H132228   4.003   4.857   1.614 -0.2975 -0.3129  0.1640
 3531TIP3    H232229   4.087   4.965   1.550 -1.5965  0.6482  0.0392
 3532TIP3   OH232230   4.877   4.942   0.752 -0.1640  0.2181 -0.2593
 3532TIP3    H132231   4.968   4.952   0.724 -0.0060 -0.9742 -0.2372
 3532TIP3    H232232   4.844   4.870   0.698 -0.8753  0.1599  0.2496
 3533TIP3   OH232233   2.988   6.017   7.800  0.5873  0.5101 -0.0850
 3533TIP3    H132234   2.945   6.017   7.715 -0.0270 -1.0590  0.1862
 3533TIP3    H232235   3.071   5.972   7.786  0.6388  0.5487  0.0830
 3534TIP3   OH232236   5.757   3.666   7.101 -0.3508  0.2464  0.5805
 3534TIP3    H132237   5.826   3.612   7.063  0.6738  0.9155  1.4323
 3534TIP3    H232238   5.793   3.755   7.099 -1.3832  0.6804  0.6106
 3535TIP3   OH232239   5.821   3.607   7.790 -0.2164 -0.2462  0.1072
 3535TIP3    H132240   5.907   3.582   7.825 -0.0984 -0.8054 -0.5495
 3535TIP3    H232241   5.806   3.545   7.718 -1.5831 -0.7251  0.7828
 3536TIP3   OH232242   2.758   4.901   8.256  0.0944  0.1709 -0.1898
 3536TIP3    H132243   2.753   4.950   8.174 -0.6295  1.6615  0.6944
 3536TIP3    H232244   2.792   4.816   8.231  0.6256  0.8448 -1.9257
 3537TIP3   OH232245   6.299   3.711   8.165  0.4658 -0.2071 -0.3703
 3537TIP3    H132246   6.268   3.639   8.219 -0.3781 -0.5370 -1.2578
 3537TIP3    H232247   6.220   3.753   8.132  0.9020  1.7768  0.8983
 3538TIP3   OH232248   0.173   4.707   8.287  0.1092 -0.3341 -0.5776
 3538TIP3    H132249   0.155   4.617   8.257 -0.1868 -0.5558  0.2308
 3538TIP3    H232250   0.087   4.749   8.288  0.0614 -0.4221  0.2070
 3539TIP3   OH232251   2.183   1.801   8.426 -0.4559  0.6744  0.2741
 3539TIP3    H132252   2.169   1.706   8.415  0.7707  0.5991 -0.9936
 3539TIP3    H232253   2.121   1.841   8.365  1.5546  0.4976 -2.0451
 3540TIP3   OH232254   1.997   5.803   8.109 -0.4034 -0.8464 -0.5621
 3540TIP3    H132255   2.011   5.714   8.141  1.2276  0.0781  1.6209
 3540TIP3    H232256   2.079   5.826   8.066  0.0592  0.2795  0.8283
 3541TIP3   OH232257   2.642   4.268   0.658 -0.3953  0.7634 -0.0414
 3541TIP3    H132258   2.701   4.195   0.676 -0.1389  0.6160 -1.3657
 3541TIP3    H232259   2.623   4.305   0.744  0.1160 -0.3570  0.5748
 3542TIP3   OH232260   4.195   0.584   1.769 -0.4420  0.3217  0.4249
 3542TIP3    H132261   4.225   0.670   1.798  0.5839 -0.0875  0.6210
 3542TIP3    H232262   4.266   0.552   1.712 -0.7457 -0.4456  0.4691
 3543TIP3   OH232263   4.401   0.455   1.598 -0.0685  0.3908  0.2270
 3543TIP3    H132264   4.463   0.511   1.551 -1.0879  0.3962 -1.1637
 3543TIP3    H232265   4.342   0.421   1.530 -0.2492 -1.3856  1.2002
 3544TIP3   OH232266   6.599   4.013   1.752  0.3008 -0.6572  0.7578
 3544TIP3    H132267   6.595   3.963   1.834 -0.8074 -0.8152  0.6254
 3544TIP3    H232268   6.625   3.949   1.686  1.0964 -0.5516  0.9540
 3545TIP3   OH232269   5.366   4.157   6.512 -0.1883  0.0861  0.0487
 3545TIP3    H132270   5.398   4.099   6.443  2.3292  2.2676 -0.8122
 3545TIP3    H232271   5.431   4.150   6.582 -1.3837 -0.2372  1.1676
 3546TIP3   OH232272   6.352   4.929   7.396  0.0129  0.1326 -0.2191
 3546TIP3    H132273   6.376   5.014   7.361  0.3411  0.2894  0.3736
 3546TIP3    H232274   6.259   4.920   7.377  0.2539  0.0730 -1.4083
 3547TIP3   OH232275   6.445   3.034   1.423  0.0822 -0.1528 -0.5236
 3547TIP3    H132276   6.374   2.984   1.463  2.0370 -2.1255  0.7155
 3547TIP3    H232277   6.516   3.028   1.486  1.0839  2.6182 -1.2437
 3548TIP3   OH232278   1.610   5.236   1.575  0.2160  0.2013 -0.5004
 3548TIP3    H132279   1.540   5.172   1.591  2.1667 -1.7478  0.8225
 3548TIP3    H232280   1.665   5.231   1.653  1.7205  1.8471 -1.3909
 3549TIP3   OH232281   3.113   0.525   7.188 -0.1437 -0.1368  0.0737
 3549TIP3    H132282   3.193   0.474   7.202  1.0434  1.4937 -0.4561
 3549TIP3    H232283   3.127   0.569   7.104 -0.3440  2.3528  1.2656
 3550TIP3   OH232284   2.146   4.771   7.764 -0.0648  0.1813 -0.0743
 3550TIP3    H132285   2.201   4.721   7.824 -1.3888 -0.0111  1.0311
 3550TIP3    H232286   2.057   4.745   7.786 -0.6833  1.4400 -0.9452
 3551TIP3   OH232287   2.639   6.108   6.577  0.8512 -0.4491  0.2127
 3551TIP3    H132288   2.665   6.176   6.515  2.3031  0.8886  2.1591
 3551TIP3    H232289   2.560   6.069   6.539  1.4945  0.5002 -2.2660
 3552TIP3   OH232290   6.233   3.600   2.594  0.8430  0.1874 -0.0825
 3552TIP3    H132291   6.257   3.508   2.586 -0.5171 -0.3391  1.2963
 3552TIP3    H232292   6.261   3.640   2.512 -1.3000 -2.1312 -2.0976
 3553TIP3   OH232293   5.333   5.178   5.986 -0.3933 -0.3996 -0.4023
 3553TIP3    H132294   5.416   5.202   6.028 -0.4502 -0.5883 -0.1807
 3553TIP3    H232295   5.279   5.257   5.994 -0.7572 -0.7460  0.7699
 3554TIP3   OH232296   4.086   1.985   7.676 -0.4011  0.8417  0.0032
 3554TIP3    H132297   4.092   1.979   7.580  0.1693  2.1956 -0.0647
 3554TIP3    H232298   4.018   2.050   7.692 -1.8096 -0.6951  0.5790
 3555TIP3   OH232299   0.239   5.250   1.157 -0.0858 -0.2027  0.2024
 3555TIP3    H132300   0.220   5.332   1.202 -1.2186 -0.7948  0.8668
 3555TIP3    H232301   0.333   5.252   1.140 -0.2329  1.6157 -0.5965
 3556TIP3   OH232302   0.360   2.974   8.104  0.4999  0.6566  0.2847
 3556TIP3    H132303   0.277   2.935   8.076  0.2154  1.0134  0.6275
 3556TIP3    H232304   0.419   2.958   8.030  0.1185  0.4346  0.0200
 3557TIP3   OH232305   4.563   1.749   0.364  0.1870 -1.0077  0.2295
 3557TIP3    H132306   4.571   1.690   0.289  0.4777 -1.1424  0.3657
 3557TIP3    H232307   4.557   1.836   0.324  0.3202 -1.0799  0.0453
 3558TIP3   OH232308   0.904   4.247   1.492  0.1790 -0.1506  0.2629
 3558TIP3    H132309   0.877   4.191   1.565 -0.4959  1.0278  0.9497
 3558TIP3    H232310   0.999   4.238   1.489  0.2097 -0.2805  1.2547
 3559TIP3   OH232311   1.085   1.364   0.211 -0.4944 -0.7240  0.1480
 3559TIP3    H132312   1.058   1.342   0.300  0.6018  0.5732  0.8355
 3559TIP3    H232313   1.174   1.329   0.204 -1.3894 -2.9793 -1.3254
 3560TIP3   OH232314   0.612   4.646   8.598 -0.2464  0.0691  0.5097
 3560TIP3    H132315   0.583   4.669   8.686 -0.1890 -0.5246  0.6896
 3560TIP3    H232316   0.531   4.636   8.548 -0.2819  0.3306  0.5142
 3561TIP3   OH232317   6.444   4.787   8.543 -0.3837 -0.8567  0.0659
 3561TIP3    H132318   6.456   4.692   8.540  0.1754 -0.8158  0.7146
 3561TIP3    H232319   6.486   4.814   8.625 -0.9627 -0.1081  0.1274
 3562TIP3   OH232320   6.063   2.134   7.364 -0.0334  0.3495  0.4148
 3562TIP3    H132321   6.076   2.177   7.280  0.3317 -0.4731  0.0394
 3562TIP3    H232322   6.000   2.189   7.410 -0.8067  0.4147 -0.6851
 3563TIP3   OH232323   0.903   5.325   6.771  0.0602 -0.4764  0.6016
 3563TIP3    H132324   0.822   5.351   6.729  0.4041 -0.9928 -0.4024
 3563TIP3    H232325   0.896   5.360   6.860 -0.5374  0.9122  0.0355
 3564TIP3   OH232326   3.438   1.768   1.074 -0.9380  0.1101  0.2942
 3564TIP3    H132327   3.357   1.727   1.044 -0.5325 -0.5706  0.0955
 3564TIP3    H232328   3.507   1.721   1.028 -0.2429 -1.4896  2.7610
 3565TIP3   OH232329   6.848   0.768   6.848  0.0004 -0.4637 -0.1051
 3565TIP3    H132330   6.936   0.730   6.855 -0.5373 -1.4654  1.6398
 3565TIP3    H232331   6.827   0.761   6.754  1.4159 -1.0254 -0.4129
 3566TIP3   OH232332   4.999   2.592   7.964  0.1884  0.0237 -0.4672
 3566TIP3    H132333   5.055   2.618   7.891 -0.2755  1.5710 -0.2909
 3566TIP3    H232334   5.003   2.664   8.026  1.8903 -1.9379  1.8900
 3567TIP3   OH232335   4.655   4.529   7.525 -0.0602  0.0480 -0.0466
 3567TIP3    H132336   4.730   4.483   7.488 -0.0381 -0.0496  0.1198
 3567TIP3    H232337   4.582   4.467   7.515  0.4382 -1.0632  2.4181
 3568TIP3   OH232338   0.758   3.264   6.336  0.0418  0.1815  0.4395
 3568TIP3    H132339   0.681   3.239   6.387  1.1787  0.5561  2.4624
 3568TIP3    H232340   0.795   3.338   6.383  1.1054  0.6467 -1.0506
 3569TIP3   OH232341   0.719   1.738   7.716  0.2897  0.1268 -0.0809
 3569TIP3    H132342   0.698   1.799   7.645 -1.0315 -2.4136 -2.0067
 3569TIP3    H232343   0.680   1.778   7.794 -0.6020  1.6666 -1.2568
 3570TIP3   OH232344   5.937   3.114   0.468  0.0697  0.0521  0.3732
 3570TIP3    H132345   5.892   3.032   0.447  1.6192 -0.9245  0.7463
 3570TIP3    H232346   5.945   3.113   0.563  2.1534 -0.5250  0.2304
 3571TIP3   OH232347   5.804   1.456   7.867  0.3877  0.3711 -1.1607
 3571TIP3    H132348   5.893   1.486   7.845  1.1947 -1.3992 -0.4992
 3571TIP3    H232349   5.806   1.362   7.852 -1.1881  0.1959 -0.4603
 3572TIP3   OH232350   2.747   0.428   1.597 -0.2786 -0.4055  0.3263
 3572TIP3    H132351   2.734   0.335   1.616 -1.1843 -0.1538  0.9945
 3572TIP3    H232352   2.726   0.473   1.679  0.6354  0.3650  0.1586
 3573TIP3   OH232353   1.778   3.684   6.294  0.3475  0.0370  0.2535
 3573TIP3    H132354   1.693   3.697   6.251  1.9279  0.8977 -2.9074
 3573TIP3    H232355   1.777   3.592   6.321 -2.6859  0.7402  3.2147
 3574TIP3   OH232356   2.800   6.448   6.876  0.0330  0.3808  0.7749
 3574TIP3    H132357   2.790   6.541   6.859  1.3862  0.7374  1.7533
 3574TIP3    H232358   2.869   6.420   6.815  0.2624  0.2278  1.0991
 3575TIP3   OH232359   2.192   5.897   7.165 -0.2148 -0.0345 -0.3190
 3575TIP3    H132360   2.103   5.862   7.161 -0.2077 -0.3838  1.6876
 3575TIP3    H232361   2.215   5.912   7.074 -1.7597 -1.3811 -0.9947
 3576TIP3   OH232362   4.181   2.322   1.127 -0.2142 -1.1459  0.4742
 3576TIP3    H132363   4.194   2.256   1.060  0.4701  0.8684 -1.4865
 3576TIP3    H232364   4.213   2.282   1.208  1.5700 -2.6702 -0.9261
 3577TIP3   OH232365   5.416   3.419   6.194  0.1480  0.3582 -0.1867
 3577TIP3    H132366   5.441   3.429   6.102 -0.1744 -0.0713 -0.3225
 3577TIP3    H232367   5.498   3.426   6.242  0.9992 -3.4036 -0.7649
 3578TIP3   OH232368   4.900   1.768   1.208  0.3052  0.1561  0.4118
 3578TIP3    H132369   4.984   1.788   1.168  0.5726 -1.1251  0.2763
 3578TIP3    H232370   4.835   1.784   1.139  0.6319 -0.6950 -0.1034
 3579TIP3   OH232371   1.982   4.342   0.126  0.3311 -0.2808 -0.2703
 3579TIP3    H132372   2.061   4.320   0.076 -0.1004 -0.6030 -0.8216
 3579TIP3    H232373   1.935   4.403   0.069 -1.2544 -2.3303 -1.2928
 3580TIP3   OH232374   1.483   1.921   6.626 -0.4898  0.5095  0.1297
 3580TIP3    H132375   1.576   1.900   6.618 -0.7596 -0.0460 -2.4002
 3580TIP3    H232376   1.445   1.894   6.542 -2.6930  1.9891  0.5673
 3581TIP3   OH232377   2.990   4.944   1.123 -0.1844  0.0086 -0.3173
 3581TIP3    H132378   3.044   4.898   1.059 -0.0875 -0.9209  0.4145
 3581TIP3    H232379   2.981   4.883   1.196 -2.1725  0.1670 -0.3800
 3582TIP3   OH232380   4.053   1.846   8.598  0.6587 -0.2750  0.0768
 3582TIP3    H132381   4.132   1.854   8.652  0.3799  1.3519  0.2995
 3582TIP3    H232382   4.084   1.856   8.508  0.5387  2.3910  0.2562
 3583TIP3   OH232383   0.864   2.416   1.889 -0.5446  0.3943 -0.0112
 3583TIP3    H132384   0.872   2.340   1.947  0.3238 -0.3223 -1.0207
 3583TIP3    H232385   0.915   2.484   1.932  0.5367 -0.2892 -0.1631
 3584TIP3   OH232386   1.869   0.726   6.920 -0.0023 -0.4339  0.8220
 3584TIP3    H132387   1.946   0.782   6.908 -0.7529  0.6237  0.7926
 3584TIP3    H232388   1.829   0.721   6.833 -0.1015 -0.7977  0.8846
 3585TIP3   OH232389   1.433   1.171   0.434 -0.7166 -0.4195  0.4512
 3585TIP3    H132390   1.340   1.161   0.455 -0.4159 -0.5273  1.8304
 3585TIP3    H232391   1.468   1.082   0.436 -0.3218 -0.2610  1.3471
 3586TIP3   OH232392   5.605   2.455   0.490  0.1167 -0.2155 -0.6100
 3586TIP3    H132393   5.588   2.414   0.574 -0.9265  3.6354  1.2819
 3586TIP3    H232394   5.689   2.498   0.500  0.9100 -1.2375 -2.3122
 3587TIP3   OH232395   1.429   1.509   8.336 -0.2151 -0.3047  0.0187
 3587TIP3    H132396   1.409   1.416   8.347 -0.0624 -0.5279 -1.4064
 3587TIP3    H232397   1.378   1.552   8.405 -2.1725 -1.2420 -0.7325
 3588TIP3   OH232398   2.522   6.041   7.176 -0.2703 -0.6082 -0.7039
 3588TIP3    H132399   2.531   6.075   7.087  0.3519  0.6684 -0.1829
 3588TIP3    H232400   2.488   6.116   7.226  0.3473 -1.0009  0.3234
 3589TIP3   OH232401   6.605   6.687   7.143  0.1705 -0.2446  0.4857
 3589TIP3    H132402   6.655   6.611   7.115 -1.9440 -0.8269 -2.2013
 3589TIP3    H232403   6.644   6.761   7.097 -0.5755 -0.4904 -0.5733
 3590TIP3   OH232404   0.844   3.675   7.357  0.1884  0.4481  0.7799
 3590TIP3    H132405   0.874   3.658   7.268  0.9812 -1.9492  1.4428
 3590TIP3    H232406   0.856   3.769   7.369 -0.7918  1.0016 -1.9266
 3591TIP3   OH232407   4.231   3.545   1.779  0.1474  0.8126 -0.3553
 3591TIP3    H132408   4.206   3.456   1.753 -0.3865  0.7506  0.3616
 3591TIP3    H232409   4.209   3.599   1.702  1.5660  0.1822 -1.2565
 3592TIP3   OH232410   6.793   2.664   7.839  0.2700  0.4570 -0.3683
 3592TIP3    H132411   6.883   2.635   7.825 -0.8289 -3.6821 -0.2776
 3592TIP3    H232412   6.791   2.692   7.931  1.3801  0.2060 -0.2502
 3593TIP3   OH232413   3.187   0.606   0.929 -0.4484  0.4883  0.4208
 3593TIP3    H132414   3.282   0.606   0.918 -0.6222  0.6046 -1.5803
 3593TIP3    H232415   3.164   0.515   0.945 -0.2589 -0.2970 -2.9454
 3594TIP3   OH232416   1.422   6.309   1.575 -0.8388  0.7347 -0.8826
 3594TIP3    H132417   1.344   6.307   1.519 -1.0138  0.2939 -0.6289
 3594TIP3    H232418   1.451   6.218   1.579 -0.6515  0.8077 -0.5079
 3595TIP3   OH232419   1.081   2.443   0.923  0.0610  0.2034  0.0612
 3595TIP3    H132420   1.098   2.403   1.008  0.5061  0.5521  0.1408
 3595TIP3    H232421   0.996   2.486   0.933 -0.9489 -1.6020 -0.3579
 3596TIP3   OH232422   4.892   0.058   8.335 -0.7080  0.2960 -0.2051
 3596TIP3    H132423   4.835   0.116   8.285  0.0320  1.3986  0.1959
 3596TIP3    H232424   4.913  -0.013   8.273 -2.1578  0.0785 -0.4776
 3597TIP3   OH232425   1.965   2.675   7.622  0.1601 -0.4349  0.4916
 3597TIP3    H132426   1.979   2.689   7.528  0.6010  2.7858  0.9064
 3597TIP3    H232427   1.876   2.706   7.638 -0.0874 -1.4117  1.0970
 3598TIP3   OH232428   3.360   0.635   6.758 -0.4706  0.5442  0.3023
 3598TIP3    H132429   3.310   0.560   6.791 -0.9463  1.4831  1.8158
 3598TIP3    H232430   3.296   0.706   6.754 -0.0097  0.9176 -1.0698
 3599TIP3   OH232431   1.599   2.061   1.187 -0.1465  0.5054  0.0988
 3599TIP3    H132432   1.645   2.094   1.110  0.3735  0.2363  0.2852
 3599TIP3    H232433   1.563   1.977   1.158 -0.9279  0.9284 -0.1856
 3600TIP3   OH232434   3.201   5.971   7.030  0.5858  0.0261 -0.0164
 3600TIP3    H132435   3.264   5.941   7.096  2.3362 -0.0065 -1.6124
 3600TIP3    H232436   3.215   5.913   6.955 -0.9781  0.4028 -0.6422
 3601TIP3   OH232437   1.328   1.802   1.523  0.1075 -0.3401  0.2726
 3601TIP3    H132438   1.399   1.745   1.494 -0.9258 -0.9547 -1.1823
 3601TIP3    H232439   1.300   1.848   1.444  0.0088  1.1869  1.1590
 3602TIP3   OH232440   1.319   3.582   2.530  0.0638 -0.4188 -0.0999
 3602TIP3    H132441   1.415   3.589   2.532  0.2784 -2.5213 -0.5120
 3602TIP3    H232442   1.289   3.668   2.502  1.9110 -0.0329 -1.0557
 3603TIP3   OH232443   0.279   4.005   0.109  0.4179 -0.5249 -0.2800
 3603TIP3    H132444   0.344   4.064   0.148 -1.4736  2.9370 -1.9608
 3603TIP3    H232445   0.310   3.990   0.020 -0.9093  0.9907 -1.0318
 3604TIP3   OH232446   3.494   2.243   7.791  0.2021 -0.1661  0.0944
 3604TIP3    H132447   3.470   2.284   7.709  0.0041  1.2469  0.8306
 3604TIP3    H232448   3.466   2.305   7.859  0.9845 -0.9717  1.2021
 3605TIP3   OH232449   4.587   2.642   0.636  0.2547 -0.9197  0.5810
 3605TIP3    H132450   4.494   2.665   0.638  0.4047 -0.3195  1.1725
 3605TIP3    H232451   4.618   2.672   0.551  0.1875  0.0263  0.8876
 3606TIP3   OH232452   2.554   1.897   6.740 -0.0377 -0.1122  0.6261
 3606TIP3    H132453   2.538   1.836   6.668 -0.3204 -0.2066  0.7650
 3606TIP3    H232454   2.625   1.952   6.709 -0.3423  0.0271  0.1611
 3607TIP3   OH232455   1.457   4.322   1.338  0.3159  0.0483 -0.1026
 3607TIP3    H132456   1.458   4.227   1.327  3.0229  0.1795 -1.7593
 3607TIP3    H232457   1.427   4.335   1.428 -0.3768 -2.3312  0.0880
 3608TIP3   OH232458   3.394   1.477   8.265 -0.1662 -0.2595  0.1573
 3608TIP3    H132459   3.339   1.488   8.342  0.4756 -0.4498  0.6616
 3608TIP3    H232460   3.351   1.408   8.214  0.1422 -1.1652  1.0724
 3609TIP3   OH232461   5.959   3.563   8.122  0.3939 -0.4884  0.6430
 3609TIP3    H132462   5.982   3.569   8.029 -0.9297 -1.5078  0.2082
 3609TIP3    H232463   5.870   3.597   8.126  0.5257 -0.2341  1.5964
 3610TIP3   OH232464   6.168   4.164   6.690 -0.1179  0.1226 -0.1871
 3610TIP3    H132465   6.216   4.213   6.623 -0.0819 -2.5097 -2.2610
 3610TIP3    H232466   6.079   4.158   6.656 -0.1531 -1.0485  0.0689
 3611TIP3   OH232467   0.783   2.980   2.363 -0.0718  0.1118  0.1434
 3611TIP3    H132468   0.809   2.968   2.454  2.4092  0.0963 -0.4900
 3611TIP3    H232469   0.797   2.894   2.323  0.7431  0.5871 -0.6344
 3612TIP3   OH232470   6.020   5.852   8.335 -0.0943 -0.3080 -0.0629
 3612TIP3    H132471   6.071   5.790   8.284  0.7672  0.7766 -0.5581
 3612TIP3    H232472   6.081   5.922   8.356 -1.5956  1.5952 -1.6291
 3613TIP3   OH232473   0.639   4.116   8.030 -0.4309 -0.5794  0.3948
 3613TIP3    H132474   0.692   4.144   7.955  0.1290  2.4025  1.7605
 3613TIP3    H232475   0.567   4.066   7.991 -0.7118  1.6486 -2.2766
 3614TIP3   OH232476   4.861   4.030   0.098  0.6696 -0.4418 -0.5400
 3614TIP3    H132477   4.852   4.083   0.019 -0.5116  0.2526  0.0268
 3614TIP3    H232478   4.836   3.942   0.071  0.0359 -0.1623 -0.8970
 3615TIP3   OH232479   1.412   5.910   0.458  0.3143 -0.5911  0.5024
 3615TIP3    H132480   1.483   5.971   0.438 -0.4465 -0.2377 -1.3088
 3615TIP3    H232481   1.430   5.834   0.403 -1.6407  0.2458 -1.4275
 3616TIP3   OH232482   2.703   0.407   8.341 -0.1512  0.1799  0.6056
 3616TIP3    H132483   2.655   0.325   8.332 -0.0439  0.1733  0.0627
 3616TIP3    H232484   2.721   0.414   8.435 -2.5217  0.9539  1.0564
 3617TIP3   OH232485   5.429   6.653   0.212  0.3921 -0.7886 -0.5322
 3617TIP3    H132486   5.406   6.708   0.287  0.3856  0.3566 -1.3458
 3617TIP3    H232487   5.492   6.590   0.246  0.9253  0.1664  0.2850
 3618TIP3   OH232488   5.325   0.432   6.453 -0.2848 -0.3216  0.7713
 3618TIP3    H132489   5.407   0.475   6.431 -1.1818  0.7762 -0.6509
 3618TIP3    H232490   5.305   0.377   6.377  0.2224 -2.3876  2.0426
 3619TIP3   OH232491   3.658   0.805   0.553  0.0161 -0.1807 -0.2344
 3619TIP3    H132492   3.617   0.855   0.623  0.8929 -0.8625  0.8043
 3619TIP3    H232493   3.630   0.714   0.568 -0.9776 -0.1484 -1.6664
 3620TIP3   OH232494   5.608   5.571   7.748  0.3068 -0.3967 -0.3454
 3620TIP3    H132495   5.532   5.512   7.749  0.5801 -0.7604 -0.6798
 3620TIP3    H232496   5.681   5.516   7.775  0.9704 -0.8293 -2.7830
 3621TIP3   OH232497   2.126   0.471   6.846 -0.5602  0.2409 -0.4614
 3621TIP3    H132498   2.160   0.493   6.759  2.7367 -0.2284  0.5891
 3621TIP3    H232499   2.151   0.545   6.901  0.5355 -0.9597  0.7435
 3622TIP3   OH232500   5.912   4.976   0.960 -0.2256  0.2458 -0.1832
 3622TIP3    H132501   5.851   5.015   1.023 -0.2123 -2.8213  1.9457
 3622TIP3    H232502   5.999   4.994   0.995 -0.2201 -1.5529  0.8289
 3623TIP3   OH232503   0.457   2.767   6.808  0.6455 -0.1550 -0.4474
 3623TIP3    H132504   0.393   2.701   6.834 -1.3789  1.5071 -1.0295
 3623TIP3    H232505   0.523   2.765   6.878 -1.4404 -0.0951  1.6248
 3624TIP3   OH232506   5.346   1.223   7.314 -0.5886 -0.0035 -0.6857
 3624TIP3    H132507   5.411   1.293   7.304  0.0990 -0.2303  1.5066
 3624TIP3    H232508   5.332   1.190   7.226  0.6820  1.4762 -1.4956
 3625TIP3   OH232509   1.553   0.973   0.102  0.0400  0.1834  0.7868
 3625TIP3    H132510   1.488   0.990   0.033 -0.2244 -0.2336  0.9328
 3625TIP3    H232511   1.602   1.055   0.109  1.1385 -0.2535 -1.0088
 3626TIP3   OH232512   2.589   6.352   1.639  0.0700 -0.0721 -0.0719
 3626TIP3    H132513   2.683   6.371   1.637 -0.1318  2.2431  3.8145
 3626TIP3    H232514   2.584   6.256   1.647  1.8751 -0.4768 -2.5160
 3627TIP3   OH232515   4.350   3.873   7.948  0.2099  0.1234  0.0335
 3627TIP3    H132516   4.322   3.786   7.975  1.7235 -0.3636  0.1177
 3627TIP3    H232517   4.378   3.915   8.030  1.0179  0.0841 -0.2100
 3628TIP3   OH232518   4.102   0.185   1.258  0.4313  0.1453  0.0010
 3628TIP3    H132519   4.098   0.094   1.231 -4.3246 -0.4147  1.6008
 3628TIP3    H232520   4.084   0.235   1.179  2.8669 -0.1555 -0.8418
 3629TIP3   OH232521   5.586   4.053   6.639 -0.1480 -0.6050 -0.4706
 3629TIP3    H132522   5.594   3.998   6.717 -1.6784 -0.6844 -0.3328
 3629TIP3    H232523   5.662   4.031   6.586  1.2707 -0.0960  1.2651
 3630TIP3   OH232524   1.360   1.071   0.777  0.3520  0.1212 -0.4452
 3630TIP3    H132525   1.353   0.992   0.725 -0.1754 -0.6847  0.8012
 3630TIP3    H232526   1.450   1.070   0.810  0.1348 -0.3475  0.1471
 3631TIP3   OH232527   3.562   3.915   0.420  0.1188  0.6476  0.2160
 3631TIP3    H132528   3.485   3.867   0.448 -0.0896  0.4042 -0.7396
 3631TIP3    H232529   3.529   4.003   0.399  0.0269  0.4396 -0.5374
 3632TIP3   OH232530   0.978   6.309   8.350  0.3225 -0.0874 -0.0152
 3632TIP3    H132531   1.012   6.302   8.261  0.5673 -0.5972  0.1136
 3632TIP3    H232532   0.888   6.338   8.339  0.5312  0.4107 -0.4015
 3633TIP3   OH232533   0.935   4.141   0.073 -0.0931 -0.5202  0.3028
 3633TIP3    H132534   0.992   4.107   0.142 -1.0375  0.2775  1.5220
 3633TIP3    H232535   0.849   4.102   0.092 -0.5231  0.2593  0.0087
 3634TIP3   OH232536   1.737   2.723   0.354  0.5251  0.0564 -0.4861
 3634TIP3    H132537   1.787   2.674   0.419 -1.3936  0.4216  1.3474
 3634TIP3    H232538   1.661   2.667   0.334 -0.3062  1.1112 -0.3666
 3635TIP3   OH232539   5.689   1.074   6.714 -0.6322 -0.6446 -0.3828
 3635TIP3    H132540   5.638   1.001   6.679 -0.7335 -0.2003 -1.1816
 3635TIP3    H232541   5.757   1.090   6.648 -0.6223 -0.0033 -0.2220
 3636TIP3   OH232542   3.012   5.207   7.991  0.2456 -0.3365  0.1487
 3636TIP3    H132543   2.959   5.270   8.038 -1.3725 -0.0753 -1.8685
 3636TIP3    H232544   3.081   5.259   7.949 -0.1645 -0.1105 -0.2558
 3637TIP3   OH232545   1.371   4.286   7.349  0.4780 -0.0787  0.6996
 3637TIP3    H132546   1.369   4.192   7.362 -1.4284 -0.0511  1.0342
 3637TIP3    H232547   1.318   4.321   7.421  0.2350  1.1440 -0.0372
 3638TIP3   OH232548   1.091   2.037   1.901 -0.3092  0.1693  0.6629
 3638TIP3    H132549   1.176   2.008   1.933 -0.5331  2.0429  3.3112
 3638TIP3    H232550   1.027   1.986   1.951 -0.7496 -0.1479 -0.2019
 3639TIP3   OH232551   4.554   3.889   6.818 -0.1218  0.1157  0.3532
 3639TIP3    H132552   4.542   3.829   6.745  0.5420  0.1958  0.1637
 3639TIP3    H232553   4.468   3.896   6.860 -0.6540  0.5283 -0.7695
 3640TIP3   OH232554   6.190   6.630   0.351  0.4216 -0.1401 -0.5154
 3640TIP3    H132555   6.257   6.574   0.313  1.2798  1.6722 -1.8613
 3640TIP3    H232556   6.223   6.652   0.438  1.1117 -0.0623 -0.7918
 3641TIP3   OH232557   1.790   2.546   6.629  0.0909 -0.3117  0.3074
 3641TIP3    H132558   1.728   2.498   6.685 -0.9844  1.6321  0.8629
 3641TIP3    H232559   1.876   2.524   6.664 -0.3937 -1.4670  0.8156
 3642TIP3   OH232560   5.524   3.297   8.357 -0.2627 -0.3380 -0.1672
 3642TIP3    H132561   5.578   3.376   8.349  0.3761 -0.7054  0.4533
 3642TIP3    H232562   5.513   3.285   8.452 -3.9679  1.4455 -0.1838
 3643TIP3   OH232563   1.611   4.130   0.061  0.8536 -0.3941  0.2624
 3643TIP3    H132564   1.632   4.077  -0.015 -1.8907  0.7088 -1.4110
 3643TIP3    H232565   1.600   4.219   0.026 -2.5859 -0.2075  1.4343
 3644TIP3   OH232566   4.803   2.253   1.458  0.6921 -0.0712  0.1175
 3644TIP3    H132567   4.744   2.295   1.520  2.3770 -0.5323  2.1310
 3644TIP3    H232568   4.766   2.166   1.443 -0.0853  0.2885 -0.1041
 3645TIP3   OH232569   0.237   2.917   0.715 -0.7216 -0.2508  0.6782
 3645TIP3    H132570   0.163   2.970   0.744 -0.2578 -0.2876  2.0023
 3645TIP3    H232571   0.198   2.836   0.683 -1.3533  0.4162 -0.3168
 3646TIP3   OH232572   5.994   5.618   1.580  0.3304  0.0059 -0.2327
 3646TIP3    H132573   5.910   5.645   1.542  0.1805 -0.5649 -0.3217
 3646TIP3    H232574   6.005   5.673   1.657  0.1574  0.4885 -0.5465
 3647TIP3   OH232575   4.886   0.618   7.539  0.0707 -0.0253 -0.9051
 3647TIP3    H132576   4.907   0.688   7.600 -0.7757 -1.9646  1.8099
 3647TIP3    H232577   4.793   0.601   7.553  0.0792 -1.1765 -2.0504
 3648TIP3   OH232578   4.125   3.020   0.417 -0.1422  0.0694 -0.0545
 3648TIP3    H132579   4.181   3.094   0.392  0.3398 -0.2452  0.0850
 3648TIP3    H232580   4.089   3.045   0.502  0.9804 -0.3664  0.5763
 3649TIP3   OH232581   0.794   3.707   0.987 -0.5164 -0.4531 -0.0724
 3649TIP3    H132582   0.829   3.647   0.921 -0.1773  1.8499 -2.1487
 3649TIP3    H232583   0.703   3.721   0.960  0.0890  1.8191 -1.2015
 3650TIP3   OH232584   2.715   3.828   6.786  0.7330 -0.0507 -0.3740
 3650TIP3    H132585   2.672   3.758   6.738  1.1340  0.2136 -1.1229
 3650TIP3    H232586   2.675   3.824   6.874  0.0830 -0.6026 -0.6828
 3651TIP3   OH232587   0.144   4.812   7.624  0.0806 -0.2239  0.0560
 3651TIP3    H132588   0.159   4.878   7.556 -0.5020 -0.1754 -0.0307
 3651TIP3    H232589   0.053   4.825   7.650 -0.4683 -1.8930 -0.9268
 3652TIP3   OH232590   2.601   6.118   7.926  0.3879  0.4487 -0.0970
 3652TIP3    H132591   2.543   6.067   7.869 -1.7562  0.9254  1.5006
 3652TIP3    H232592   2.689   6.097   7.896 -0.5766 -0.2957 -2.7021
 3653TIP3   OH232593   4.063   5.087   6.238 -0.0123  0.1956 -0.0200
 3653TIP3    H132594   4.136   5.092   6.300 -1.8555  2.2373  2.1608
 3653TIP3    H232595   4.070   5.167   6.185  0.9042 -1.0063 -1.8467
 3654TIP3   OH232596   6.643   0.030   0.745  0.0444 -0.2759 -0.3681
 3654TIP3    H132597   6.719   0.084   0.766  0.3022 -0.8398  0.1755
 3654TIP3    H232598   6.615  -0.007   0.829  0.2286 -1.4475 -0.8005
 3655TIP3   OH232599   5.424   3.315   0.335 -0.0566  0.2214 -0.1559
 3655TIP3    H132600   5.423   3.300   0.430 -2.7779 -1.2751 -0.3348
 3655TIP3    H232601   5.420   3.227   0.297  0.3252  0.8281 -1.6540
 3656TIP3   OH232602   0.766   0.846   1.004 -0.0018 -0.0258  0.1189
 3656TIP3    H132603   0.728   0.762   1.027  1.0198 -0.9265 -1.2888
 3656TIP3    H232604   0.762   0.849   0.908 -0.3993  1.7346  0.1457
 3657TIP3   OH232605   3.296   4.898   8.326 -0.2090  0.5135  0.1749
 3657TIP3    H132606   3.246   4.899   8.244  0.1883 -3.2814 -0.2654
 3657TIP3    H232607   3.231   4.878   8.393 -0.0198  0.3321  0.3043
 3658TIP3   OH232608   4.911   5.162   1.701  0.2696 -0.1813  0.1838
 3658TIP3    H132609   4.834   5.115   1.671 -0.2759  0.3650  0.6975
 3658TIP3    H232610   4.914   5.241   1.647  0.6852 -0.3774 -0.0863
 3659TIP3   OH232611   3.773   6.131   0.651 -0.0491 -0.2190  0.3710
 3659TIP3    H132612   3.776   6.225   0.633  1.8207 -0.0744  1.1614
 3659TIP3    H232613   3.706   6.121   0.718  0.0343  0.6066  0.5871
 3660TIP3   OH232614   0.876   5.914   2.246 -0.1358 -0.1372  0.2122
 3660TIP3    H132615   0.881   6.003   2.282 -0.5512 -0.6102  1.5242
 3660TIP3    H232616   0.787   5.908   2.210 -1.1700 -0.8453  2.6152
 3661TIP3   OH232617   5.953   5.761   2.078  0.6078  0.5826 -0.0598
 3661TIP3    H132618   6.016   5.823   2.114 -0.2341  1.5125 -0.1662
 3661TIP3    H232619   5.938   5.699   2.149  0.2885  1.3917  0.5921
 3662TIP3   OH232620   1.068   6.338   8.079 -0.7318 -0.3565  0.0703
 3662TIP3    H132621   1.067   6.263   8.020 -2.9040 -0.6973  0.4469
 3662TIP3    H232622   1.050   6.413   8.022  0.7423 -0.1884 -0.2013
 3663TIP3   OH232623   0.845   4.181   0.473 -0.3627 -0.1996  0.0100
 3663TIP3    H132624   0.804   4.101   0.504 -0.1754  0.0425  0.9004
 3663TIP3    H232625   0.779   4.221   0.416 -0.9728 -0.3276  0.6137
 3664TIP3   OH232626   5.382   2.179   0.482  0.2180 -0.2883 -0.3664
 3664TIP3    H132627   5.352   2.088   0.476  0.8862 -0.6116  0.9248
 3664TIP3    H232628   5.323   2.227   0.425 -0.3394 -1.4901 -0.8354
 3665TIP3   OH232629   5.546   0.609   8.428  0.4888  0.0445  0.7697
 3665TIP3    H132630   5.526   0.616   8.521  0.1107  1.8125  0.5923
 3665TIP3    H232631   5.632   0.650   8.419 -0.3797  1.8209  0.0843
 3666TIP3   OH232632   0.362   1.379   7.275  0.6100 -0.3523  0.1287
 3666TIP3    H132633   0.296   1.414   7.336 -0.1327  0.7749 -1.2657
 3666TIP3    H232634   0.343   1.423   7.192  3.9464  1.0293 -0.0387
 3667TIP3   OH232635   5.636   0.377   2.037 -0.6107 -0.5604  0.4998
 3667TIP3    H132636   5.692   0.375   2.115 -0.2054 -0.5433  0.2064
 3667TIP3    H232637   5.603   0.287   2.029 -0.3042 -0.6656  0.4322
 3668TIP3   OH232638   2.100   1.594   0.749 -0.3037  0.0878  0.4180
 3668TIP3    H132639   2.185   1.557   0.726 -0.2597  0.5299 -0.1548
 3668TIP3    H232640   2.101   1.682   0.710 -1.1908 -0.0658  0.0372
 3669TIP3   OH232641   5.038   4.534   8.064  0.1346  0.5808  0.4787
 3669TIP3    H132642   5.079   4.453   8.093 -2.3406 -0.5363  1.1204
 3669TIP3    H232643   5.059   4.598   8.132 -0.6684 -0.4417  1.7280
 3670TIP3   OH232644   5.368   6.553   7.518  0.0873 -0.9796  0.0227
 3670TIP3    H132645   5.282   6.558   7.478  0.8776 -4.1780 -2.4918
 3670TIP3    H232646   5.382   6.459   7.533  2.7592 -0.4753  1.2771
 3671TIP3   OH232647   0.891   0.053   1.561  0.6692  0.2403 -0.7103
 3671TIP3    H132648   0.831   0.001   1.615 -0.1711 -1.0881 -2.7584
 3671TIP3    H232649   0.978   0.018   1.581  0.3119 -0.6294 -0.6181
 3672TIP3   OH232650   3.539   5.400   7.815  0.1539 -0.4378 -0.6437
 3672TIP3    H132651   3.489   5.457   7.756  0.5724  1.0203  0.3414
 3672TIP3    H232652   3.489   5.318   7.817 -1.6154  0.5797 -0.5680
 3673TIP3   OH232653   6.530   6.648   0.653 -0.4606 -0.3046 -0.4067
 3673TIP3    H132654   6.563   6.715   0.714 -0.0184 -0.1667 -0.7827
 3673TIP3    H232655   6.608   6.597   0.630 -1.0416 -1.9511  1.0554
 3674TIP3   OH232656   2.620   6.129   0.277  0.3713  0.5642 -0.2615
 3674TIP3    H132657   2.530   6.139   0.307 -0.0282  2.4880 -1.8616
 3674TIP3    H232658   2.612   6.119   0.182  1.8473  1.0909 -0.4631
 3675TIP3   OH232659   0.286   2.315   1.630 -0.1774  0.0484 -0.2784
 3675TIP3    H132660   0.267   2.407   1.650 -0.0624  0.1848 -0.7787
 3675TIP3    H232661   0.212   2.267   1.666 -0.5960  0.4083 -0.6368
 3676TIP3   OH232662   5.792   4.770   7.611  0.2248  0.5133  0.2462
 3676TIP3    H132663   5.863   4.708   7.629 -0.9217 -0.7576  0.5796
 3676TIP3    H232664   5.801   4.790   7.518  1.3352  0.7876  0.3996
 3677TIP3   OH232665   4.132   1.147   1.552 -0.3994 -0.6064 -0.3743
 3677TIP3    H132666   4.087   1.198   1.620 -0.5992 -0.0576 -0.9083
 3677TIP3    H232667   4.216   1.124   1.591 -1.4802 -2.5120  1.0453
 3678TIP3   OH232668   1.279   3.436   6.540 -0.0437  0.2836 -0.5632
 3678TIP3    H132669   1.227   3.487   6.478  1.1422  2.3925  0.0721
 3678TIP3    H232670   1.225   3.432   6.619 -1.0696 -1.4246 -1.2955
 3679TIP3   OH232671   2.533   0.743   8.002  0.3993  0.4810 -0.1926
 3679TIP3    H132672   2.452   0.707   7.967  0.4009  0.4330 -0.1468
 3679TIP3    H232673   2.603   0.693   7.959  0.4746  1.8229 -1.7353
 3680TIP3   OH232674   5.613   4.672   0.139 -0.2150  0.5784  0.8567
 3680TIP3    H132675   5.676   4.736   0.105  1.8603 -1.0441  1.4637
 3680TIP3    H232676   5.661   4.625   0.206 -1.8791 -1.2096  0.8691
 3681TIP3   OH232677   0.840   2.961   7.618 -0.7240  0.0334  0.4418
 3681TIP3    H132678   0.821   3.048   7.652  0.3819  0.5215 -0.1281
 3681TIP3    H232679   0.910   2.975   7.554  0.2114 -1.3995  1.0973
 3682TIP3   OH232680   5.272   1.744   1.076 -0.2697  0.2334  0.2881
 3682TIP3    H132681   5.204   1.806   1.053  1.0108  1.7180  0.3580
 3682TIP3    H232682   5.353   1.784   1.044  0.8711 -0.3148  2.3280
 3683TIP3   OH232683   2.735   6.769   8.463  0.1210  0.5652  0.3564
 3683TIP3    H132684   2.695   6.800   8.545 -0.2952  0.7343  0.0898
 3683TIP3    H232685   2.663   6.765   8.401  0.5111  0.8206 -0.1148
 3684TIP3   OH232686   0.471   5.744   6.950 -0.1100  0.1516 -0.1837
 3684TIP3    H132687   0.394   5.783   6.910  0.9815 -0.5302 -3.2001
 3684TIP3    H232688   0.524   5.818   6.979 -0.7436  0.6835 -0.3609
 3685TIP3   OH232689   1.182   2.684   7.646 -0.2141 -0.0889  0.0318
 3685TIP3    H132690   1.213   2.616   7.705  0.1186 -0.0745 -0.1241
 3685TIP3    H232691   1.087   2.669   7.639  0.1381 -1.9874 -1.7972
 3686TIP3   OH232692   6.904   0.090   8.627  0.0875  0.1549 -0.3616
 3686TIP3    H132693   6.974   0.101   8.563 -1.3932 -0.1135 -2.1070
 3686TIP3    H232694   6.824   0.104   8.577 -1.2324 -2.2013  0.9513
 3687TIP3   OH232695   0.837   3.580   7.082  0.2997 -0.2937  0.4075
 3687TIP3    H132696   0.833   3.487   7.057  0.2345 -0.1179 -0.2701
 3687TIP3    H232697   0.752   3.616   7.054  1.0026  0.3577 -1.0267
 3688TIP3   OH232698   1.173   6.532   7.731  0.1116 -0.2454  0.1904
 3688TIP3    H132699   1.188   6.546   7.824  1.4992 -0.8089  0.0741
 3688TIP3    H232700   1.236   6.589   7.687 -1.6488  1.2874 -0.4689
 3689TIP3   OH232701   0.666   0.930   7.209 -0.0509  0.0483  0.0282
 3689TIP3    H132702   0.622   1.005   7.248 -0.7769 -1.7000  2.8575
 3689TIP3    H232703   0.604   0.858   7.218  1.5169 -1.4168 -0.3768
 3690TIP3   OH232704   6.771   3.321   1.396  0.5880  0.2517  0.0110
 3690TIP3    H132705   6.790   3.312   1.303  2.0119 -0.4771  0.3426
 3690TIP3    H232706   6.850   3.288   1.440 -0.6301 -0.8115  1.4921
 3691TIP3   OH232707   1.007   4.514   1.681 -0.5206  0.3955 -0.7261
 3691TIP3    H132708   0.946   4.473   1.742  0.7924 -3.0203 -1.5143
 3691TIP3    H232709   1.056   4.576   1.735 -1.7219  0.0451  0.8557
 3692TIP3   OH232710   2.410   1.223   7.577 -0.1157  0.3078  0.6780
 3692TIP3    H132711   2.476   1.288   7.553 -0.4185  0.6735  0.8226
 3692TIP3    H232712   2.446   1.180   7.655  1.2100 -1.3933 -0.7949
 3693TIP3   OH232713   0.274   0.734   6.754  0.5369  0.6991 -0.1855
 3693TIP3    H132714   0.248   0.683   6.831  1.1292 -0.7820 -0.9192
 3693TIP3    H232715   0.360   0.769   6.776  0.4435  0.7739  0.0602
 3694TIP3   OH232716   0.874   5.190   1.764  0.7078 -0.1960 -0.4402
 3694TIP3    H132717   0.895   5.097   1.770 -1.6049 -0.7370  0.1579
 3694TIP3    H232718   0.803   5.203   1.827  0.0052  1.6703 -1.5362
 3695TIP3   OH232719   5.022   6.606   0.729 -0.1741 -0.0134 -0.1333
 3695TIP3    H132720   5.091   6.631   0.790  1.1889 -1.2130 -1.1151
 3695TIP3    H232721   4.961   6.555   0.781  0.3942 -0.0859  0.4729
 3696TIP3   OH232722   1.716   6.488   6.105  0.3359 -0.3617 -0.8013
 3696TIP3    H132723   1.804   6.524   6.095 -0.9172  2.4480 -2.8098
 3696TIP3    H232724   1.709   6.423   6.034  0.5776 -0.0954 -1.0737
 3697TIP3   OH232725   1.104   1.821   1.691 -0.3659 -0.4042  0.0277
 3697TIP3    H132726   1.178   1.837   1.633 -1.7270  1.3686 -1.3405
 3697TIP3    H232727   1.088   1.906   1.733  0.0308 -1.4237  2.4050
 3698TIP3   OH232728   3.508   5.757   8.457  0.3969 -0.1180  0.3305
 3698TIP3    H132729   3.438   5.760   8.393 -0.5953  1.8160  1.4267
 3698TIP3    H232730   3.549   5.843   8.453  0.2070  0.1213  2.3465
 3699TIP3   OH232731   0.206   4.516   1.027 -0.3701 -0.6522 -0.0910
 3699TIP3    H132732   0.292   4.530   1.066  0.4276 -1.9152 -1.3186
 3699TIP3    H232733   0.215   4.436   0.975 -1.7011  0.2390 -1.8372
 3700TIP3   OH232734   3.287   5.616   0.647  0.5896 -0.0623  0.0751
 3700TIP3    H132735   3.345   5.672   0.698  1.5008 -0.9147  0.0195
 3700TIP3    H232736   3.216   5.673   0.618  0.4361  0.6072  1.6800
 3701TIP3   OH232737   0.333   3.222   8.169 -0.2951  0.3733  0.0547
 3701TIP3    H132738   0.402   3.234   8.235  0.8698  1.4308 -1.2785
 3701TIP3    H232739   0.336   3.129   8.148  0.4111  0.3203  0.3594
 3702TIP3   OH232740   2.958   0.193   8.349  0.0584  0.1162  0.2545
 3702TIP3    H132741   2.909   0.271   8.373  0.6956 -0.1357  2.7072
 3702TIP3    H232742   3.004   0.168   8.429  0.9211 -2.0187 -0.8071
 3703TIP3   OH232743   0.593   1.863   1.283 -0.9465 -0.1692 -0.3387
 3703TIP3    H132744   0.528   1.804   1.319 -2.1636  1.5512  0.3993
 3703TIP3    H232745   0.558   1.951   1.298  0.8794  0.7789 -1.2033
 3704TIP3   OH232746   5.322   3.467   6.973  0.7416 -0.0834 -0.1568
 3704TIP3    H132747   5.354   3.391   7.020 -0.5276  0.2357  1.3012
 3704TIP3    H232748   5.370   3.541   7.010 -0.5252  0.2149  0.9956
 3705TIP3   OH232749   2.408   1.325   8.115  0.3914 -0.1600  0.2848
 3705TIP3    H132750   2.467   1.256   8.145 -1.2867 -1.9096 -0.2901
 3705TIP3    H232751   2.321   1.287   8.120 -0.3958  1.0923 -2.2576
 3706TIP3   OH232752   1.312   6.259   2.377 -0.2592 -0.1529 -0.0093
 3706TIP3    H132753   1.281   6.175   2.409 -0.7263  0.2998  0.7634
 3706TIP3    H232754   1.242   6.289   2.318  0.4196 -0.8064 -1.1683
 3707TIP3   OH232755   3.244   5.963   1.780 -0.0704  0.3555  0.5816
 3707TIP3    H132756   3.327   5.943   1.737 -0.8394 -0.9483 -0.3780
 3707TIP3    H232757   3.242   5.906   1.857 -0.0734  0.3935  0.6096
 3708TIP3   OH232758   1.813   3.144   0.269  0.3277 -0.5393  0.4899
 3708TIP3    H132759   1.845   3.073   0.213 -1.3427  0.1446 -1.4840
 3708TIP3    H232760   1.757   3.101   0.333  0.5329 -1.1537  0.2657
 3709TIP3   OH232761   1.902   6.353   6.847 -0.0506 -0.5868  0.0118
 3709TIP3    H132762   1.912   6.324   6.756 -0.0105 -0.5282 -0.0030
 3709TIP3    H232763   1.904   6.449   6.841 -0.1028 -0.5832  0.0682
 3710TIP3   OH232764   0.864   2.597   0.936  0.1364  0.3259  0.0360
 3710TIP3    H132765   0.903   2.669   0.986 -1.2140  1.5756 -0.6307
 3710TIP3    H232766   0.776   2.589   0.971  0.0385 -0.5403 -0.3891
 3711TIP3   OH232767   0.885   2.578   7.460 -0.2190 -0.6033  0.3250
 3711TIP3    H132768   0.837   2.500   7.431 -2.1873  1.0037 -1.0160
 3711TIP3    H232769   0.880   2.576   7.555  0.8046 -2.6919  0.3850
 3712TIP3   OH232770   1.924   2.173   1.136 -0.3155 -0.2412 -0.2078
 3712TIP3    H132771   1.867   2.199   1.063 -2.0371 -0.2440  1.0709
 3712TIP3    H232772   1.882   2.095   1.172  1.4685 -1.2634 -0.2481
 3713TIP3   OH232773   1.067   1.461   1.733  0.0602  0.5311 -0.2831
 3713TIP3    H132774   1.000   1.411   1.686 -0.9962  1.2321  0.4553
 3713TIP3    H232775   1.145   1.405   1.729 -0.7165 -0.5577 -0.6439
 3714TIP3   OH232776   0.523   0.536   0.240  0.2666 -0.5949 -0.1630
 3714TIP3    H132777   0.446   0.542   0.297 -0.5665 -0.9029 -1.2272
 3714TIP3    H232778   0.580   0.473   0.284  0.5209  0.5924  1.2971
 3715TIP3   OH232779   2.816   0.490   0.774 -0.0489  0.0512  0.4077
 3715TIP3    H132780   2.787   0.502   0.864  0.5711  0.5609  0.5439
 3715TIP3    H232781   2.788   0.401   0.751 -0.6433  0.1004  0.9306
 3716TIP3   OH232782   1.362   3.176   0.499 -0.0705  0.3208 -0.3568
 3716TIP3    H132783   1.357   3.214   0.587 -0.1106  0.0705 -0.2500
 3716TIP3    H232784   1.324   3.243   0.442 -0.1091  0.4554 -0.1746
 3717TIP3   OH232785   6.034   4.089   1.690  0.6928 -0.5740  0.4391
 3717TIP3    H132786   6.044   4.040   1.608  1.0090  0.1219  0.0539
 3717TIP3    H232787   6.105   4.057   1.746  1.7417  0.3908 -0.2991
 3718TIP3   OH232788   4.821   3.894   7.464  0.3279 -0.1760 -0.3300
 3718TIP3    H132789   4.877   3.965   7.431 -0.6340  0.0624 -1.4850
 3718TIP3    H232790   4.868   3.814   7.442  0.7332  0.0552 -0.3169
 3719TIP3   OH232791   1.073   5.390   7.759 -0.4016  0.6830  1.1410
 3719TIP3    H132792   1.123   5.471   7.770  2.6662 -0.6718 -1.2154
 3719TIP3    H232793   1.125   5.325   7.807 -0.3903 -0.6255 -0.5930
 3720TIP3   OH232794   2.384   0.889   1.688  0.1435 -0.0399  0.4284
 3720TIP3    H132795   2.470   0.847   1.687 -0.6518 -2.0461 -3.2204
 3720TIP3    H232796   2.372   0.921   1.598 -2.5460  0.9991  1.0565
 3721TIP3   OH232797   1.595   6.405   0.236  0.1784  0.2542  0.6653
 3721TIP3    H132798   1.520   6.347   0.232  0.4976 -0.1155 -0.3614
 3721TIP3    H232799   1.571   6.480   0.182  1.1087 -0.5927 -1.0334
 3722TIP3   OH232800   2.052   3.697   0.411  0.6561  0.6034  1.1191
 3722TIP3    H132801   2.146   3.695   0.395  0.2046  2.4883 -3.9171
 3722TIP3    H232802   2.037   3.781   0.455  1.2932  1.2050  0.2417
 3723TIP3   OH232803   5.767   0.262   7.189 -0.4711  0.1094  0.0351
 3723TIP3    H132804   5.802   0.289   7.273 -0.3535  0.7111 -0.2017
 3723TIP3    H232805   5.689   0.211   7.211  0.0407 -0.4660  0.5291
 3724TIP3   OH232806   4.672   3.067   6.729  0.6583 -0.7513  0.4966
 3724TIP3    H132807   4.740   3.106   6.674  0.0598 -1.0953 -0.5161
 3724TIP3    H232808   4.719   3.028   6.803  1.3061  1.6261  1.4244
 3725TIP3   OH232809   4.167   2.400   7.405  0.0658 -0.2655 -0.0446
 3725TIP3    H132810   4.224   2.454   7.350 -0.2666 -0.5736 -0.7076
 3725TIP3    H232811   4.203   2.312   7.397  0.2860 -0.2350  0.6001
 3726TIP3   OH232812   0.294   2.802   2.007  0.5271 -0.7003 -0.9481
 3726TIP3    H132813   0.263   2.867   1.944  1.1534  0.1238 -0.4123
 3726TIP3    H232814   0.279   2.841   2.093 -0.1450 -1.7386 -0.5613
 3727TIP3   OH232815   1.359   1.346   0.881 -0.1643  0.2482 -0.1629
 3727TIP3    H132816   1.394   1.365   0.794  3.5738 -0.6545  0.9652
 3727TIP3    H232817   1.337   1.432   0.917  1.4280  0.9868 -0.8382
 3728TIP3   OH232818   5.813   4.904   7.856  0.6292  0.8385  0.3997
 3728TIP3    H132819   5.908   4.916   7.848  0.3896  2.9251  0.3407
 3728TIP3    H232820   5.788   4.858   7.775  1.6500 -0.3949  0.7452
 3729TIP3   OH232821   4.002   5.899   2.107 -0.0757  0.2879  0.5702
 3729TIP3    H132822   4.037   5.811   2.116  0.2727  0.4184  0.5262
 3729TIP3    H232823   4.079   5.954   2.090 -0.1752  0.7273  1.4478
 3730TIP3   OH232824   4.035   4.424   2.495  1.1807 -0.5906  0.1458
 3730TIP3    H132825   4.101   4.369   2.453  0.8365 -1.2409  0.4401
 3730TIP3    H232826   3.981   4.362   2.545  1.1945  0.0882  1.0155
 3731TIP3   OH232827   5.843   5.736   0.054  0.0974  0.5807  0.3609
 3731TIP3    H132828   5.909   5.668   0.072  0.4020  0.8688  0.3324
 3731TIP3    H232829   5.871   5.811   0.106  0.8936  1.3624 -1.1571
 3732TIP3   OH232830   0.392   1.223   8.322 -0.7156  0.1107  0.4120
 3732TIP3    H132831   0.390   1.138   8.278  0.8706  0.6128 -0.7193
 3732TIP3    H232832   0.340   1.281   8.266 -0.1417  0.3340  0.0942
 3733TIP3   OH232833   1.418   4.995   0.684  0.2396 -0.4454  0.6815
 3733TIP3    H132834   1.334   5.038   0.699  0.3896  0.1478 -0.1021
 3733TIP3    H232835   1.478   5.038   0.745  0.3738  0.4326 -0.0503
 3734TIP3   OH232836   1.936   4.846   8.624  0.5030 -0.0603  0.0852
 3734TIP3    H132837   1.993   4.915   8.659 -0.7252  1.1049 -0.1370
 3734TIP3    H232838   1.876   4.825   8.696  0.5614 -0.5723 -0.0049
 3735TIP3   OH232839   5.848   4.424   0.071  0.2362 -0.7605 -0.0230
 3735TIP3    H132840   5.863   4.445   0.163  1.0177  1.6478 -0.6233
 3735TIP3    H232841   5.889   4.338   0.059  1.2117 -0.5640  1.5929
 3736TIP3   OH232842   4.273   6.194   7.572  0.0638 -0.2876 -0.0927
 3736TIP3    H132843   4.310   6.191   7.484  0.7082  0.4650  0.1449
 3736TIP3    H232844   4.192   6.143   7.565  1.0703 -1.9118 -0.6390
 3737TIP3   OH232845   3.861   5.861   1.145  0.2802 -0.3458 -0.1942
 3737TIP3    H132846   3.850   5.838   1.053  1.6915 -0.3577 -0.3818
 3737TIP3    H232847   3.919   5.937   1.144 -0.0053 -0.0949  0.6819
 3738TIP3   OH232848   2.602   1.192   8.300 -0.3884 -0.3717 -0.0515
 3738TIP3    H132849   2.669   1.144   8.251  0.1608  0.0958  0.2403
 3738TIP3    H232850   2.649   1.264   8.342 -1.0400 -0.1498  0.3106
 3739TIP3   OH232851   0.486   2.909   7.872 -0.3340 -0.6789  0.6099
 3739TIP3    H132852   0.418   2.964   7.833 -1.9229 -1.2434  2.4175
 3739TIP3    H232853   0.505   2.843   7.805 -1.1631 -0.1748 -0.1436
 3740TIP3   OH232854   3.110   0.889   7.912 -0.2101  0.3740  0.0765
 3740TIP3    H132855   3.075   0.800   7.921  2.2619 -0.5001  2.6602
 3740TIP3    H232856   3.131   0.897   7.819 -2.0132 -1.0771 -0.5080
 3741TIP3   OH232857   0.988   2.394   8.277  0.5244  0.1474  0.3016
 3741TIP3    H132858   0.929   2.445   8.221 -2.0506 -1.8351  1.0241
 3741TIP3    H232859   1.053   2.359   8.216 -0.1302  0.8671 -0.8552
 3742TIP3   OH232860   2.210   4.885   7.485  0.0772 -0.4398  0.5331
 3742TIP3    H132861   2.129   4.927   7.458  0.6297 -0.2050 -0.8733
 3742TIP3    H232862   2.220   4.810   7.426  0.1029 -1.3951  1.7177
 3743TIP3   OH232863   6.541   0.768   1.117  0.0197 -0.1043  0.3311
 3743TIP3    H132864   6.601   0.701   1.083  0.2376  1.3715 -2.5064
 3743TIP3    H232865   6.482   0.786   1.044  1.0650  3.9676  0.2554
 3744TIP3   OH232866   2.253   5.264   6.633  0.5908 -0.0655  0.3822
 3744TIP3    H132867   2.308   5.336   6.602  0.8230 -0.9879 -1.4722
 3744TIP3    H232868   2.284   5.248   6.723  0.9504  1.7101  0.6046
 3745TIP3   OH232869   4.773   3.173   7.595 -0.3514  0.0009  0.2552
 3745TIP3    H132870   4.692   3.189   7.546 -0.4636  2.2056  1.0774
 3745TIP3    H232871   4.843   3.182   7.529 -0.7102 -2.7244 -0.6401
 3746TIP3   OH232872   2.920   6.840   6.761  0.0959  0.3091  0.0887
 3746TIP3    H132873   2.988   6.787   6.720 -0.5143 -1.7695  1.6358
 3746TIP3    H232874   2.901   6.908   6.696  2.5519  0.0817 -1.0001
 3747TIP3   OH232875   5.727   3.187   7.570  0.0987  0.1219 -0.1029
 3747TIP3    H132876   5.649   3.222   7.525 -0.9811 -0.3478  1.3377
 3747TIP3    H232877   5.698   3.104   7.608  1.4243 -0.2494  0.1469
 3748TIP3   OH232878   0.653   3.988   0.486  0.1535 -0.4967 -0.4715
 3748TIP3    H132879   0.653   3.951   0.398  2.1945 -0.4057 -0.5676
 3748TIP3    H232880   0.679   3.916   0.543  2.4701  0.2634 -0.4525
 3749TIP3   OH232881   3.297   4.605   0.355  0.2776  0.1966  0.3482
 3749TIP3    H132882   3.277   4.613   0.448 -0.5397  0.1105  0.1862
 3749TIP3    H232883   3.264   4.686   0.316  0.1998  0.0320  0.0659
 3750TIP3   OH232884   5.603   6.813   6.832 -0.2069 -0.1121  0.5637
 3750TIP3    H132885   5.665   6.744   6.808  0.5246  0.6594  0.1626
 3750TIP3    H232886   5.527   6.766   6.867  0.9226 -1.0451  1.8551
 3751TIP3   OH232887   6.596   2.238   1.739 -0.1369  0.2382 -0.6993
 3751TIP3    H132888   6.568   2.176   1.806 -0.2862  1.3067  0.2579
 3751TIP3    H232889   6.562   2.322   1.769 -1.0654  0.6034 -2.6259
 3752TIP3   OH232890   1.166   2.539   6.140  0.2435  0.4845  0.1772
 3752TIP3    H132891   1.166   2.455   6.094  0.6786  1.2225 -1.2287
 3752TIP3    H232892   1.117   2.598   6.082  1.4801  1.6398  0.2537
 3753TIP3   OH232893   1.392   4.757   0.278  0.0500 -0.6206  0.0390
 3753TIP3    H132894   1.357   4.834   0.233 -0.1156 -0.0345  1.1315
 3753TIP3    H232895   1.338   4.748   0.356  0.2218 -1.7159  0.0561
 3754TIP3   OH232896   2.266   4.435   8.099 -0.2194 -0.3369  0.1530
 3754TIP3    H132897   2.187   4.489   8.101  2.4946  4.1408  0.8990
 3754TIP3    H232898   2.287   4.427   8.006 -0.4146  0.4544  0.0296
 3755TIP3   OH232899   6.021   4.675   0.603 -0.4799  0.2758 -0.3329
 3755TIP3    H132900   5.931   4.649   0.623  0.2595 -0.2174  2.9541
 3755TIP3    H232901   6.051   4.719   0.682  2.4430 -0.2542 -1.0480
 3756TIP3   OH232902   0.867   4.697   0.162  0.0664 -0.3126  0.1628
 3756TIP3    H132903   0.926   4.722   0.233  1.6180 -1.8887 -0.5037
 3756TIP3    H232904   0.890   4.606   0.142 -2.7628 -1.0770 -0.0019
 3757TIP3   OH232905   1.403   6.099   8.288  0.3497  0.1121  0.0849
 3757TIP3    H132906   1.411   6.182   8.336 -0.3268 -1.0107  2.2658
 3757TIP3    H232907   1.487   6.090   8.242  0.6681  1.6908  0.2968
 3758TIP3   OH232908   2.567   2.527   0.113 -0.2305  0.5432 -0.4965
 3758TIP3    H132909   2.508   2.535   0.038  0.5897 -1.7588 -1.4755
 3758TIP3    H232910   2.654   2.523   0.075  0.1366 -1.9153  0.3737
 3759TIP3   OH232911   4.272   3.751   2.194 -0.1251  0.0455 -0.2255
 3759TIP3    H132912   4.223   3.690   2.138 -0.3509 -0.7338  0.7984
 3759TIP3    H232913   4.206   3.810   2.230 -0.1627 -0.2911  0.2621
 3760TIP3   OH232914   2.542   6.640   1.576 -0.2078 -0.1019 -0.3352
 3760TIP3    H132915   2.629   6.629   1.537 -0.3082 -0.2760 -0.5100
 3760TIP3    H232916   2.552   6.609   1.666 -0.1933 -0.5147 -0.4775
 3761TIP3   OH232917   3.081   2.756   1.522  0.4203 -0.4036  0.4971
 3761TIP3    H132918   3.151   2.712   1.571  1.6170  0.8802 -0.0098
 3761TIP3    H232919   3.079   2.845   1.558 -1.1167 -0.4858  0.6509
 3762TIP3   OH232920   3.003   6.406   8.339  0.4143  0.2482 -0.1290
 3762TIP3    H132921   3.001   6.458   8.258  1.1020  0.9904  0.3113
 3762TIP3    H232922   2.977   6.468   8.407  1.2373  0.0173  0.4055
 3763TIP3   OH232923   2.255   1.771   7.892 -0.0502 -0.0306  0.0740
 3763TIP3    H132924   2.344   1.739   7.910  0.1074  0.6860  0.6346
 3763TIP3    H232925   2.253   1.859   7.931 -0.4420  0.6784 -1.4858
 3764TIP3   OH232926   5.226   5.620   7.716 -0.6368  0.1312  0.1855
 3764TIP3    H132927   5.208   5.690   7.780  0.7813 -0.0845  0.8579
 3764TIP3    H232928   5.281   5.558   7.764  0.0345 -0.2988 -1.1111
 3765TIP3   OH232929   1.641   3.142   7.301 -0.4554  0.0102 -0.2858
 3765TIP3    H132930   1.569   3.196   7.336  0.5169  1.3681 -0.2928
 3765TIP3    H232931   1.620   3.131   7.209 -1.0245 -0.2522 -0.1356
 3766TIP3   OH232932   1.682   6.328   7.279 -0.0085  0.3583 -0.0142
 3766TIP3    H132933   1.625   6.257   7.310  1.7433 -1.3794 -0.5848
 3766TIP3    H232934   1.669   6.399   7.343 -2.5839 -0.0383  0.0025
 3767TIP3   OH232935   5.808   1.943   8.071 -0.1113 -0.5086  0.3972
 3767TIP3    H132936   5.831   2.005   8.140 -0.1343 -0.2286  0.1583
 3767TIP3    H232937   5.729   1.979   8.032  0.1015 -0.4721 -0.0071
 3768TIP3   OH232938   4.356   1.873   1.013 -0.2749  0.0789  0.1140
 3768TIP3    H132939   4.305   1.793   1.029  0.4369 -0.5156 -0.5019
 3768TIP3    H232940   4.387   1.863   0.923  0.4273  0.7165  0.2840
 3769TIP3   OH232941   3.571   4.370   0.093  0.3081 -0.5131 -0.2238
 3769TIP3    H132942   3.653   4.323   0.074  0.6703  0.8830 -2.3877
 3769TIP3    H232943   3.597   4.438   0.155  0.5304 -0.7852 -0.0111
 3770TIP3   OH232944   5.975   2.216   8.431  0.4317  0.1793 -0.3013
 3770TIP3    H132945   5.943   2.243   8.345 -0.0305  0.2908 -0.0938
 3770TIP3    H232946   5.901   2.171   8.472  0.7645 -0.1958 -0.1031
 3771TIP3   OH232947   2.169   2.017   0.812  0.0266  0.3803 -0.1963
 3771TIP3    H132948   2.229   2.067   0.867  0.5644  0.9127 -1.2263
 3771TIP3    H232949   2.123   1.959   0.873  1.2616  0.2832  0.6852
 3772TIP3   OH232950   3.578   0.081   6.957  0.2476  0.1972  0.5625
 3772TIP3    H132951   3.609   0.168   6.979 -0.7713  0.8109 -0.3147
 3772TIP3    H232952   3.584   0.032   7.039 -0.3633  1.4622  1.4030
 3773TIP3   OH232953   5.135   3.304   0.625  0.0471  0.0161 -0.5917
 3773TIP3    H132954   5.108   3.257   0.546  1.5718  1.9005 -2.3458
 3773TIP3    H232955   5.085   3.385   0.623  1.1670  0.7356 -0.4825
 3774TIP3   OH232956   3.603   1.307   8.550  0.0646 -0.3886 -0.3932
 3774TIP3    H132957   3.668   1.270   8.610 -0.6436 -0.0172  0.6259
 3774TIP3    H232958   3.525   1.321   8.604 -1.0049 -1.1590 -1.6641
 3775TIP3   OH232959   5.643   0.517   0.540  0.4233  0.1822 -0.0627
 3775TIP3    H132960   5.714   0.455   0.556  0.4481  0.1764 -0.1979
 3775TIP3    H232961   5.563   0.464   0.542  0.2430  0.4536  1.9196
 3776TIP3   OH232962   1.246   5.627   6.515 -0.2692 -0.0362  0.1221
 3776TIP3    H132963   1.257   5.713   6.475 -1.0353 -0.4583 -1.0345
 3776TIP3    H232964   1.333   5.588   6.513  0.0772  0.6766  0.6186
 3777TIP3   OH232965   6.897   3.612   1.797  0.0558  0.2176  0.6331
 3777TIP3    H132966   6.967   3.616   1.731 -1.7586  2.2674 -1.3318
 3777TIP3    H232967   6.830   3.556   1.757 -0.6328  0.6327  1.1931
 3778TIP3   OH232968   4.039   1.397   6.870 -0.0603 -0.6195 -0.0993
 3778TIP3    H132969   3.972   1.464   6.852  0.4871 -0.0405 -0.0263
 3778TIP3    H232970   4.122   1.442   6.853  0.3011 -1.4209 -0.4777
 3779TIP3   OH232971   0.904   4.909   1.691  0.0254 -0.0883  0.4484
 3779TIP3    H132972   0.898   4.867   1.605  2.2472 -2.4569  1.3330
 3779TIP3    H232973   0.847   4.857   1.747 -0.9384  1.0854  0.6074
 3780TIP3   OH232974   0.500   5.978   1.255  0.2751  0.2638  0.1599
 3780TIP3    H132975   0.441   5.903   1.245 -0.2768  0.8822 -1.6107
 3780TIP3    H232976   0.459   6.048   1.204  2.2260  0.8880 -0.6465
 3781TIP3   OH232977   1.125   0.266   7.569  0.1332 -0.7462 -0.3419
 3781TIP3    H132978   1.035   0.297   7.575  0.7650  1.3138 -0.4795
 3781TIP3    H232979   1.131   0.194   7.631 -1.1364  0.3347  1.0945
 3782TIP3   OH232980   6.100   0.126   7.285 -0.6326  0.1654 -0.7399
 3782TIP3    H132981   6.074   0.046   7.332 -0.7414  0.2170 -0.7112
 3782TIP3    H232982   6.019   0.176   7.277 -0.6353  0.1098 -1.0803
 3783TIP3   OH232983   5.735   5.023   2.348 -0.6481 -0.2869 -0.0795
 3783TIP3    H132984   5.683   4.988   2.421 -2.4850  2.7898  0.2854
 3783TIP3    H232985   5.806   5.072   2.391  1.1661 -2.3467 -0.5517
 3784TIP3   OH232986   0.137   5.298   6.121  0.1337  0.3203  0.0093
 3784TIP3    H132987   0.196   5.279   6.049  0.1954  0.7272 -0.0531
 3784TIP3    H232988   0.071   5.228   6.118  1.7228 -1.3084  1.3326
 3785TIP3   OH232989   3.884   3.238   2.361  0.4596  0.0256  0.3535
 3785TIP3    H132990   3.852   3.156   2.398 -0.1596 -0.8252 -1.9269
 3785TIP3    H232991   3.943   3.212   2.290  0.8636  1.5751  0.0726
 3786TIP3   OH232992   3.017   1.030   6.801 -0.1921  0.4248 -0.2523
 3786TIP3    H132993   3.002   1.055   6.710 -3.1165  0.2822  0.1074
 3786TIP3    H232994   2.967   1.094   6.852 -0.5680 -0.9198  1.1310
 3787TIP3   OH232995   2.089   5.531   0.136 -0.4668 -0.3179 -0.6833
 3787TIP3    H132996   2.132   5.550   0.220 -0.3187  0.4901 -0.9266
 3787TIP3    H232997   2.155   5.485   0.085 -0.5946 -0.9133 -0.3225
 3788TIP3   OH232998   2.708   5.333   0.357  0.4160 -0.2434 -0.6141
 3788TIP3    H132999   2.780   5.280   0.389  0.8751  0.6556 -0.1180
 3788TIP3    H233000   2.696   5.401   0.423 -2.1377 -1.4452  0.2775
 3789TIP3   OH233001   1.995   1.454   0.383  0.1208  0.2200  0.1369
 3789TIP3    H133002   2.045   1.533   0.404  0.0799 -0.2339  2.1703
 3789TIP3    H233003   2.060   1.383   0.389 -0.7291 -0.4454  3.3564
 3790TIP3   OH233004   4.172   2.747   1.490  0.3058  0.2454  0.1893
 3790TIP3    H133005   4.191   2.838   1.516 -1.1298  0.6734 -0.1553
 3790TIP3    H233006   4.244   2.696   1.528  0.6264  1.3993  1.2223
 3791TIP3   OH233007   0.446   5.719   0.462  0.2486 -0.3994  0.3426
 3791TIP3    H133008   0.351   5.705   0.457 -0.0376  1.2213  0.6939
 3791TIP3    H233009   0.483   5.645   0.414 -1.2504 -0.3451 -1.0039
 3792TIP3   OH233010   4.446   1.565   0.597 -0.2701  0.3857  0.2593
 3792TIP3    H133011   4.442   1.643   0.652  0.8737  0.9085 -0.3680
 3792TIP3    H233012   4.519   1.581   0.538 -0.1149 -1.0985  0.0142
 3793TIP3   OH233013   2.353   5.183   1.473 -0.1353  0.6024  0.1102
 3793TIP3    H133014   2.415   5.246   1.438  0.7858  0.3187  1.1687
 3793TIP3    H233015   2.340   5.210   1.564 -2.2956  1.2010 -0.3089
 3794TIP3   OH233016   6.046   1.764   1.312 -0.6437 -0.1514  0.0663
 3794TIP3    H133017   6.124   1.781   1.365 -0.8129  2.1280 -0.3024
 3794TIP3    H233018   5.999   1.696   1.360  0.2061  0.4154  1.8050
 3795TIP3   OH233019   2.149   0.863   7.378 -0.4794 -0.1423  0.2721
 3795TIP3    H133020   2.151   0.959   7.375  0.0908 -0.1470  0.3855
 3795TIP3    H233021   2.219   0.839   7.439  0.8390 -0.6920 -1.3652
 3796TIP3   OH233022   1.460   1.651   0.383 -0.3563  0.5597 -0.0107
 3796TIP3    H133023   1.367   1.669   0.401 -0.0774  0.2724  1.9887
 3796TIP3    H233024   1.496   1.735   0.355 -0.6857  1.3645  1.8297
 3797TIP3   OH233025   4.830   5.871   1.057  0.5364 -0.1529 -0.1980
 3797TIP3    H133026   4.867   5.954   1.029 -2.3208  0.7955 -1.4956
 3797TIP3    H233027   4.753   5.894   1.108 -0.9204 -1.9720 -1.4444
 3798TIP3   OH233028   4.509   3.500   8.455 -0.7003  0.3932  0.1308
 3798TIP3    H133029   4.555   3.417   8.470 -0.9803 -0.1489 -1.8079
 3798TIP3    H233030   4.524   3.550   8.536  3.6390  0.4312 -0.4440
 3799TIP3   OH233031   4.413   4.411   7.358  0.2800 -0.2217  0.1960
 3799TIP3    H133032   4.471   4.335   7.350 -1.1218 -1.5335  1.5281
 3799TIP3    H233033   4.359   4.408   7.278  0.7422 -0.1637 -0.1199
 3800TIP3   OH233034   3.227   2.811   0.320 -0.2380 -0.5433 -1.0100
 3800TIP3    H133035   3.183   2.895   0.305 -0.8311 -0.4596  0.9164
 3800TIP3    H233036   3.312   2.835   0.356 -0.5948 -0.7446  0.0039
 3801TIP3   OH233037   3.385   2.331   1.702 -0.1601  0.7760  0.7331
 3801TIP3    H133038   3.427   2.333   1.616 -0.5044 -0.1488  0.5241
 3801TIP3    H233039   3.442   2.275   1.755 -0.2949  0.8125  0.9166
 3802TIP3   OH233040   3.965   1.293   1.359  0.5365  0.7529  0.1839
 3802TIP3    H133041   4.036   1.272   1.420  1.8189  1.8475 -0.8698
 3802TIP3    H233042   3.919   1.366   1.400  0.1330  0.1951  0.7553
 3803TIP3   OH233043   0.480   0.445   7.721 -0.4787  0.3230 -0.3956
 3803TIP3    H133044   0.541   0.410   7.786 -0.5830  0.1211 -0.4058
 3803TIP3    H233045   0.403   0.389   7.727 -0.6001  0.4769 -0.4970
 3804TIP3   OH233046   1.796   3.502   8.495  0.2425  0.2951 -0.4838
 3804TIP3    H133047   1.745   3.484   8.416  0.2906  1.2746 -0.7529
 3804TIP3    H233048   1.757   3.447   8.563 -0.4452  0.1900 -0.9597
 3805TIP3   OH233049   1.960   3.813   7.185 -0.2886 -0.3173 -0.0768
 3805TIP3    H133050   2.041   3.812   7.236 -1.1146  1.4205  1.3999
 3805TIP3    H233051   1.982   3.861   7.105  0.1197  0.2107  0.3494
 3806TIP3   OH233052   2.601   5.764   7.903 -0.5149 -0.3191  0.3980
 3806TIP3    H133053   2.620   5.784   7.995  0.8459 -0.8412  0.2560
 3806TIP3    H233054   2.661   5.692   7.881 -0.7806 -0.1657 -0.9132
 3807TIP3   OH233055   3.665   6.759   7.700  0.2363  0.3350  0.2926
 3807TIP3    H133056   3.730   6.707   7.747 -0.6114 -2.2404 -1.1816
 3807TIP3    H233057   3.600   6.783   7.767  0.4003 -0.9591  0.9476
 3808TIP3   OH233058   4.393   0.107   8.069 -0.4363 -0.1652 -0.8389
 3808TIP3    H133059   4.445   0.187   8.061  0.1727 -0.5282 -0.6158
 3808TIP3    H233060   4.308   0.130   8.033 -0.3004  0.6127 -0.6895
 3809TIP3   OH233061   2.966   2.588   7.661 -0.2702 -0.5730 -0.0731
 3809TIP3    H133062   2.955   2.647   7.736 -0.2161  1.8868 -1.8762
 3809TIP3    H233063   3.059   2.593   7.639 -0.6418  0.4457 -1.5570
 3810TIP3   OH233064   4.836   5.336   2.588 -0.2166  0.3121  0.4822
 3810TIP3    H133065   4.884   5.389   2.652 -1.2501  0.6492  1.0128
 3810TIP3    H233066   4.784   5.400   2.538 -0.5027 -0.0826  0.2652
 3811TIP3   OH233067   3.025   6.652   7.126 -0.0539  0.1720  0.0042
 3811TIP3    H133068   3.077   6.659   7.047  0.6426  3.0218  0.5914
 3811TIP3    H233069   2.943   6.698   7.106 -0.1072  0.4283  0.7560
 3812TIP3   OH233070   1.654   4.870   6.552  0.1269  0.1978 -0.4721
 3812TIP3    H133071   1.675   4.954   6.512 -0.2667  0.2826 -0.5131
 3812TIP3    H233072   1.569   4.846   6.514  0.3163 -0.3002 -0.5896
 3813TIP3   OH233073   6.258   2.414   0.080 -0.1927  0.0143  0.0984
 3813TIP3    H133074   6.224   2.424   0.169 -1.4100  1.9938 -0.5229
 3813TIP3    H233075   6.300   2.498   0.061  3.0260 -1.4769 -0.0785
 3814TIP3   OH233076   6.245   0.467   6.459 -0.3948  0.1144 -0.5714
 3814TIP3    H133077   6.262   0.393   6.401 -0.1489 -0.9515  0.8088
 3814TIP3    H233078   6.312   0.460   6.527 -0.1997  1.7845 -0.5609
 3815TIP3   OH233079   5.555   1.212   0.580  0.4775 -0.2453  0.3733
 3815TIP3    H133080   5.584   1.276   0.645  1.9970 -0.8087  0.2864
 3815TIP3    H233081   5.462   1.199   0.600  0.8419 -0.2441  2.3091
 3816TIP3   OH233082   2.746   6.562   6.195 -0.0861  0.6909  0.0351
 3816TIP3    H133083   2.774   6.477   6.230 -0.9035  0.4828  0.2254
 3816TIP3    H233084   2.827   6.609   6.177  0.4517 -0.6979 -1.5101
 3817TIP3   OH233085   1.130   5.868   1.085 -0.2910 -0.3436 -0.3141
 3817TIP3    H133086   1.167   5.953   1.062 -0.8270 -0.2517 -0.8643
 3817TIP3    H233087   1.038   5.874   1.059 -0.0997 -1.4647 -1.3835
 3818TIP3   OH233088   1.146   3.387   2.454  0.5502 -0.6982 -0.0760
 3818TIP3    H133089   1.105   3.391   2.368  0.8664  0.2400 -0.1924
 3818TIP3    H233090   1.194   3.470   2.463 -0.8922  0.0183  1.7074
 3819TIP3   OH233091   4.562   4.160   0.790  0.4440  0.3263  0.3193
 3819TIP3    H133092   4.567   4.099   0.716 -1.6442 -1.1470  1.2720
 3819TIP3    H233093   4.547   4.246   0.750  1.2358 -0.1327 -1.0040
 3820TIP3   OH233094   2.663   1.593   1.057  0.1530  0.8896 -0.1196
 3820TIP3    H133095   2.666   1.620   1.149  0.9728  1.5743 -0.3354
 3820TIP3    H233096   2.706   1.507   1.056  0.8984  1.2493  0.0284
 3821TIP3   OH233097   3.631   0.288   1.464 -0.2084  0.3450 -0.1613
 3821TIP3    H133098   3.708   0.341   1.485  0.1653 -0.3851  0.3787
 3821TIP3    H233099   3.660   0.198   1.479 -0.8681 -0.0064 -0.9341
 3822TIP3   OH233100   6.435   3.547   7.626 -0.2055  0.2325 -0.0128
 3822TIP3    H133101   6.379   3.502   7.688 -0.4365 -0.2877 -0.5901
 3822TIP3    H233102   6.375   3.583   7.560  0.1397 -0.5801 -0.7957
 3823TIP3   OH233103   2.214   0.770   8.147 -1.0332  0.2598  0.1738
 3823TIP3    H133104   2.234   0.676   8.154 -1.6438  0.0760 -0.3630
 3823TIP3    H233105   2.145   0.784   8.211  0.0157  0.6556  1.2453
 3824TIP3   OH233106   5.635   5.868   2.031 -0.5555 -0.3145 -0.0769
 3824TIP3    H133107   5.688   5.799   1.991 -2.3410 -1.4270 -0.6357
 3824TIP3    H233108   5.578   5.821   2.092  0.5856  1.1059  2.2401
 3825TIP3   OH233109   2.910   3.959   7.656  0.2230 -0.6433 -0.3688
 3825TIP3    H133110   2.998   3.963   7.694  0.1503  0.7819 -0.3107
 3825TIP3    H233111   2.916   4.009   7.575 -0.5200 -0.6019 -0.4049
 3826TIP3   OH233112   0.679   6.138   8.117  0.1929 -0.6700 -0.6582
 3826TIP3    H133113   0.685   6.213   8.059  0.2229 -1.5304 -1.7974
 3826TIP3    H233114   0.638   6.070   8.065  0.5081 -1.5742  0.2259
 3827TIP3   OH233115   6.602   0.979   1.920 -0.5523  0.1782  0.0318
 3827TIP3    H133116   6.581   1.038   1.847  0.4515  0.1945 -0.2503
 3827TIP3    H233117   6.518   0.937   1.941 -1.4800  2.1898  0.6906
 3828TIP3   OH233118   3.130   5.048   7.694  0.1049 -0.3327 -0.3127
 3828TIP3    H133119   3.120   5.132   7.739 -1.6070 -0.5248 -0.2479
 3828TIP3    H233120   3.217   5.017   7.719 -0.0487  0.4602  1.3429
 3829TIP3   OH233121   3.608   2.301   1.036  0.1662 -0.6054  0.6199
 3829TIP3    H133122   3.659   2.310   1.116  0.1655 -0.0032  0.5559
 3829TIP3    H233123   3.554   2.223   1.050  0.2237 -0.5454  1.1724
 3830TIP3   OH233124   2.937   3.181   7.656  0.4494 -0.3451 -0.0282
 3830TIP3    H133125   2.967   3.095   7.627 -0.2899 -0.8148  0.5883
 3830TIP3    H233126   2.990   3.243   7.605  2.3543 -1.1376  0.8752
 3831TIP3   OH233127   5.404   5.840   0.160  0.1325  0.3512  0.1617
 3831TIP3    H133128   5.499   5.856   0.158  0.2720 -0.3877  0.5884
 3831TIP3    H233129   5.377   5.866   0.248  0.4914 -2.2930  1.1549
 3832TIP3   OH233130   4.170   4.409   6.592  0.0704  0.1604 -0.2245
 3832TIP3    H133131   4.174   4.505   6.584  0.8232  0.1612  0.0749
 3832TIP3    H233132   4.131   4.380   6.510 -1.7417  0.8308  0.3642
 3833TIP3   OH233133   1.047   0.887   0.409 -0.5627  0.3350 -0.2970
 3833TIP3    H133134   1.044   0.870   0.503  1.1829  0.2772 -0.2282
 3833TIP3    H233135   0.959   0.866   0.379 -1.2413  0.6167  1.3534
 3834TIP3   OH233136   1.575   4.060   0.904  0.4594  0.5446  0.7628
 3834TIP3    H133137   1.522   4.071   0.825 -0.6096  0.3919  1.4445
 3834TIP3    H233138   1.542   4.126   0.965  1.6210  1.0060  0.9283
 3835TIP3   OH233139   2.830   3.097   6.455  0.2936  0.2927  0.3487
 3835TIP3    H133140   2.913   3.098   6.409 -0.3727 -0.1962 -0.9017
 3835TIP3    H233141   2.808   3.004   6.464 -1.1353  0.4279 -1.2794
 3836TIP3   OH233142   3.279   0.705   0.251 -0.3328  0.4037  0.1378
 3836TIP3    H133143   3.186   0.714   0.270 -0.1114  2.0660  0.5606
 3836TIP3    H233144   3.286   0.725   0.157 -0.4470 -0.1849 -0.0013
 3837TIP3   OH233145   4.471   3.426   1.656  0.3118  0.4973  0.1801
 3837TIP3    H133146   4.428   3.454   1.575  0.2948  0.4083  0.1593
 3837TIP3    H233147   4.461   3.501   1.715 -0.9938  0.0041  0.6192
 3838TIP3   OH233148   4.378   6.052   7.805 -0.3550  0.0388 -0.6668
 3838TIP3    H133149   4.433   5.982   7.771 -0.8987 -0.3645 -0.7208
 3838TIP3    H233150   4.365   6.110   7.731  0.1885  0.2632 -0.5930
 3839TIP3   OH233151   4.057   5.452   7.710 -0.0913 -0.1776 -0.2642
 3839TIP3    H133152   4.095   5.490   7.790 -1.6003 -0.0201  0.4130
 3839TIP3    H233153   4.025   5.528   7.661 -0.0131 -0.3443 -0.5745
 3840TIP3   OH233154   0.688   2.746   0.554 -0.4468 -0.9685  0.2827
 3840TIP3    H133155   0.739   2.826   0.567 -2.4402  0.3080  0.7451
 3840TIP3    H233156   0.717   2.687   0.624  1.5197 -0.9533 -0.4569
 3841TIP3   OH233157   3.566   1.824   0.009 -0.0041  0.4840 -0.3672
 3841TIP3    H133158   3.599   1.878   0.081  1.1452  0.0597 -0.5482
 3841TIP3    H233159   3.475   1.851  -0.002 -0.4550  0.0395  1.7408
 3842TIP3   OH233160   4.925   2.785   1.703 -0.0827 -0.1596 -0.0949
 3842TIP3    H133161   4.859   2.718   1.717 -1.4202  0.8220 -1.4221
 3842TIP3    H233162   4.991   2.769   1.771 -2.1318 -0.5775  1.8957
 3843TIP3   OH233163   1.466   6.723   1.963 -0.3499  0.6264  0.3800
 3843TIP3    H133164   1.409   6.751   2.034  0.7177  3.1456  0.3740
 3843TIP3    H233165   1.554   6.721   2.002 -0.0773 -0.5036 -0.2504
 3844TIP3   OH233166   5.964   3.908   2.488  0.4749 -0.3395  0.9147
 3844TIP3    H133167   6.038   3.904   2.428  0.9116  1.6462  1.2285
 3844TIP3    H233168   5.887   3.902   2.431  0.8871  0.9066  0.1837
 3845TIP3   OH233169   6.260   3.763   7.762  0.3248  0.2163  0.0814
 3845TIP3    H133170   6.353   3.783   7.762  0.5710 -0.8348  1.2713
 3845TIP3    H233171   6.217   3.849   7.772  1.0996  0.8022 -1.3148
 3846TIP3   OH233172   2.881   0.338   1.203 -0.7304 -0.1407  0.5520
 3846TIP3    H133173   2.853   0.262   1.254 -0.8431 -0.7512 -0.3943
 3846TIP3    H233174   2.976   0.344   1.217 -0.6348 -0.7889  0.2010
 3847TIP3   OH233175   3.183   1.902   8.216  0.0420 -0.5340  0.1524
 3847TIP3    H133176   3.186   1.812   8.182  2.6176 -0.8152  0.9259
 3847TIP3    H233177   3.093   1.912   8.247 -0.6996 -2.3464 -1.1912
 3848TIP3   OH233178   3.005   6.178   8.520  0.4218 -0.0769 -0.1796
 3848TIP3    H133179   3.033   6.242   8.454  2.0772  1.9132  2.2724
 3848TIP3    H233180   3.086   6.153   8.564 -0.8531  0.8190  2.8976
 3849TIP3   OH233181   4.401   2.120   0.497  0.6012 -0.1479  0.1612
 3849TIP3    H133182   4.435   2.172   0.569  1.6545 -0.3476 -0.1746
 3849TIP3    H233183   4.477   2.103   0.441 -0.2417  0.3024 -1.1864
 3850TIP3   OH233184   1.799   4.110   1.539 -0.0676 -0.3252 -0.2278
 3850TIP3    H133185   1.888   4.120   1.505  0.7852 -0.2362  1.8531
 3850TIP3    H233186   1.795   4.019   1.570 -0.3869 -0.0841  0.4688
 3851TIP3   OH233187   4.638   5.444   0.916  0.4528  0.6731 -0.2268
 3851TIP3    H133188   4.721   5.405   0.944  0.9579  1.4292 -0.6421
 3851TIP3    H233189   4.579   5.369   0.906  0.5794  0.2785  1.7127
 3852TIP3   OH233190   6.793   5.830   7.688  0.5002  0.3271  0.3405
 3852TIP3    H133191   6.757   5.754   7.735  3.3487 -1.5739 -0.2700
 3852TIP3    H233192   6.779   5.809   7.596  2.6363 -0.2591  0.1137
 3853TIP3   OH233193   2.513   0.448   7.729 -0.3326  0.7064 -0.4040
 3853TIP3    H133194   2.527   0.508   7.657  0.3735  0.7796 -0.2131
 3853TIP3    H233195   2.556   0.367   7.702  0.2123  0.8325  0.0548
 3854TIP3   OH233196   3.431   4.477   7.072 -0.0645  0.6139  0.7451
 3854TIP3    H133197   3.350   4.497   7.117  0.2618  0.7986  1.2643
 3854TIP3    H233198   3.493   4.455   7.142 -0.2925 -1.9303  0.2709
 3855TIP3   OH233199   4.141   0.279   1.726  0.1189 -0.0144  0.6829
 3855TIP3    H133200   4.139   0.369   1.692  0.2539  0.0239  0.7742
 3855TIP3    H233201   4.124   0.289   1.820  1.3409  0.0320  0.9181
 3856TIP3   OH233202   1.477   1.528   6.742  0.0693 -0.7992 -0.0759
 3856TIP3    H133203   1.472   1.434   6.758 -1.9017 -0.3397  2.7715
 3856TIP3    H233204   1.391   1.561   6.769 -0.3741  1.5407 -3.7181
 3857TIP3   OH233205   2.865   0.206   6.695  0.0498 -0.0660 -0.9554
 3857TIP3    H133206   2.813   0.263   6.638 -3.0283 -0.3305  1.3070
 3857TIP3    H233207   2.893   0.263   6.767 -0.2011 -0.6725 -0.3664
 3858TIP3   OH233208   6.601   4.741   1.087 -0.0052  0.5751  0.1704
 3858TIP3    H133209   6.615   4.796   1.164 -0.3881  1.7426 -0.5739
 3858TIP3    H233210   6.687   4.732   1.048  0.0225  0.8483  0.1659
 3859TIP3   OH233211   6.298   5.526   8.515  0.7065 -0.0813 -0.1763
 3859TIP3    H133212   6.330   5.445   8.555  2.2305  0.1828 -0.7910
 3859TIP3    H233213   6.221   5.549   8.566  1.6007 -0.6733  1.5169
 3860TIP3   OH233214   6.475   0.751   8.383 -0.0628  0.3812  0.5208
 3860TIP3    H133215   6.447   0.699   8.458 -3.1326  0.4709 -0.4148
 3860TIP3    H233216   6.501   0.835   8.421 -0.4150  0.0252  1.5900
 3861TIP3   OH233217   0.088   6.536   6.683 -0.3902  0.2358 -0.2814
 3861TIP3    H133218   0.032   6.530   6.605  0.3550  0.8622 -0.8866
 3861TIP3    H233219   0.171   6.497   6.655 -0.3917 -0.3343  0.4822
 3862TIP3   OH233220   2.964   2.056   7.691 -0.0324 -0.1975  0.6788
 3862TIP3    H133221   2.884   2.056   7.744  0.1588 -2.3309  1.0749
 3862TIP3    H233222   2.946   1.995   7.620  0.2839  1.4389 -0.8703
 3863TIP3   OH233223   1.079   0.623   1.451 -0.0540  0.3845 -0.6175
 3863TIP3    H133224   0.991   0.631   1.413 -0.0115 -0.4854 -0.9089
 3863TIP3    H233225   1.064   0.585   1.538 -0.0104  0.8222 -0.4139
 3864TIP3   OH233226   0.624   5.521   0.284  0.1918  0.0816 -0.0693
 3864TIP3    H133227   0.712   5.516   0.247 -0.1447  0.1973 -0.9188
 3864TIP3    H233228   0.582   5.592   0.235 -1.2137 -1.6734 -1.5362
 3865TIP3   OH233229   0.652   3.859   1.422 -0.3130  0.2621 -0.0357
 3865TIP3    H133230   0.639   3.945   1.382 -0.1340 -0.1064 -0.8975
 3865TIP3    H233231   0.708   3.876   1.498 -2.0381  1.2222  1.1033
 3866TIP3   OH233232   3.577   0.315   0.125 -0.3896  0.0081  0.4137
 3866TIP3    H133233   3.625   0.397   0.116 -1.7982  0.6985 -1.5747
 3866TIP3    H233234   3.578   0.296   0.219  0.4041  2.0248  0.8557
 3867TIP3   OH233235   4.869   4.260   1.054  0.7087  0.5233  0.0607
 3867TIP3    H133236   4.834   4.201   1.121 -0.9923  0.4286 -0.8505
 3867TIP3    H233237   4.791   4.303   1.017  1.8436  3.3417  0.6583
 3868TIP3   OH233238   3.363   0.334   1.474 -0.2144 -0.1339 -0.2855
 3868TIP3    H133239   3.457   0.327   1.490 -0.1351 -1.1436 -1.1167
 3868TIP3    H233240   3.324   0.341   1.561  0.6503  0.7930  0.0524
 3869TIP3   OH233241   3.909   4.537   7.984  0.9303 -0.2269 -0.2428
 3869TIP3    H133242   3.894   4.581   8.067 -1.4169 -2.3338  0.5563
 3869TIP3    H233243   4.003   4.550   7.967  1.7088 -0.5050  3.1874
 3870TIP3   OH233244   3.163   1.899   0.198  0.3062  0.5782 -0.1066
 3870TIP3    H133245   3.193   1.823   0.248 -3.3286 -0.2136  1.1897
 3870TIP3    H233246   3.205   1.974   0.240 -0.7598 -0.2710  2.6994
 3871TIP3   OH233247   1.354   2.426   0.410 -0.0745 -0.4726  0.8416
 3871TIP3    H133248   1.331   2.362   0.478 -2.4066 -0.1315  0.4692
 3871TIP3    H233249   1.348   2.376   0.329 -0.2127 -0.1725  0.6694
 3872TIP3   OH233250   2.087   3.956   6.972 -0.0761 -0.1974 -0.1856
 3872TIP3    H133251   2.134   4.018   7.028 -1.4335  2.1065 -1.4220
 3872TIP3    H233252   2.102   3.989   6.883 -0.6963 -1.7833 -0.9052
 3873TIP3   OH233253   6.727   3.781   0.010 -0.3053 -0.0705  0.3449
 3873TIP3    H133254   6.787   3.850   0.039  2.2578 -1.0202 -2.2257
 3873TIP3    H233255   6.769   3.700   0.038 -0.5822 -0.7492 -1.1352
 3874TIP3   OH233256   4.993   2.686   8.218 -0.3031  0.1177  0.3091
 3874TIP3    H133257   4.954   2.623   8.279  0.9813 -0.2430  0.7875
 3874TIP3    H233258   5.062   2.729   8.268  0.0528  0.5994 -0.5647
 3875TIP3   OH233259   0.851   6.861   6.790 -0.2749  0.3311 -0.0725
 3875TIP3    H133260   0.927   6.860   6.848 -0.9225 -0.6400  0.7977
 3875TIP3    H233261   0.777   6.872   6.850 -1.0074 -1.2328 -0.6443
 3876TIP3   OH233262   0.453   1.569   0.199 -0.5250 -0.4729 -0.1579
 3876TIP3    H133263   0.371   1.544   0.242 -1.0691 -0.4759 -1.1514
 3876TIP3    H233264   0.483   1.646   0.247 -0.3455 -1.3071  1.1142
 3877TIP3   OH233265   2.455   6.909   1.547 -0.0134  0.5592 -0.1707
 3877TIP3    H133266   2.473   6.820   1.576 -0.9358  0.0779 -1.0209
 3877TIP3    H233267   2.488   6.913   1.457 -3.7791 -0.3684 -1.8222
 3878TIP3   OH233268   6.493   1.697   0.628 -0.0475 -0.4674  0.5523
 3878TIP3    H133269   6.493   1.791   0.611  1.5240 -0.7429 -1.2417
 3878TIP3    H233270   6.401   1.676   0.644 -0.5881  1.1885 -0.1741
 3879TIP3   OH233271   5.953   2.654   1.101  0.4871 -0.4670  0.1472
 3879TIP3    H133272   6.042   2.678   1.127  0.7476 -0.8673 -0.3715
 3879TIP3    H233273   5.897   2.704   1.161  1.0640 -0.8659  1.0382
 3880TIP3   OH233274   0.681   3.041   0.893  0.4115  0.2364 -0.2859
 3880TIP3    H133275   0.698   3.092   0.972 -0.1105 -0.7486  0.4777
 3880TIP3    H233276   0.606   3.084   0.852 -0.2809 -0.1435  0.5654
 3881TIP3   OH233277   6.169   1.456   1.838 -0.0002  0.1176  0.3668
 3881TIP3    H133278   6.185   1.364   1.858  0.6619  0.4407  1.4165
 3881TIP3    H233279   6.253   1.489   1.806  0.0425  0.5797  0.9306
 3882TIP3   OH233280   1.289   2.468   7.429 -0.2535 -0.5229  0.0381
 3882TIP3    H133281   1.229   2.492   7.500 -1.1078 -1.1769 -0.4357
 3882TIP3    H233282   1.301   2.548   7.380  0.7422  0.0610  1.1968
 3883TIP3   OH233283   6.836   0.280   8.303  0.1668  0.3361 -0.3964
 3883TIP3    H133284   6.866   0.315   8.387  0.5832 -1.9906  0.5129
 3883TIP3    H233285   6.774   0.345   8.271  0.9194  1.8889  1.0989
 3884TIP3   OH233286   2.591   0.653   8.280 -0.6672 -0.3207 -0.6531
 3884TIP3    H133287   2.577   0.559   8.290  1.4999 -0.6958 -0.8156
 3884TIP3    H233288   2.567   0.671   8.189 -0.1781 -0.9066 -0.9054
 3885TIP3   OH233289   4.898   1.338   1.525 -0.2820  1.0087 -0.1046
 3885TIP3    H133290   4.807   1.334   1.554 -0.7567 -2.2986 -1.5702
 3885TIP3    H233291   4.897   1.400   1.452 -0.7775  2.9016  1.4457
 3886TIP3   OH233292   0.010   5.936   0.450 -0.3468  0.4903  0.1126
 3886TIP3    H133293  -0.052   5.988   0.399  0.4548  0.7986 -0.5685
 3886TIP3    H233294  -0.024   5.939   0.539 -0.3867  2.1196  0.0743
 3887TIP3   OH233295   5.160   1.310   0.517  0.5039 -0.0600 -0.2161
 3887TIP3    H133296   5.214   1.276   0.447  2.2393  1.4640  0.3116
 3887TIP3    H233297   5.212   1.297   0.596 -0.4127  0.3810  0.4834
 3888TIP3   OH233298   5.347   6.650   7.771  0.7987 -0.5172  0.3102
 3888TIP3    H133299   5.253   6.668   7.771  1.2192  2.3327 -0.8639
 3888TIP3    H233300   5.368   6.629   7.680  1.5077  0.6159  0.1867
 3889TIP3   OH233301   0.448   4.400   6.692  0.0374  0.0382  0.0032
 3889TIP3    H133302   0.513   4.367   6.629  0.6609 -2.2305  1.6887
 3889TIP3    H233303   0.447   4.495   6.677  0.5558 -0.3060 -2.9675
 3890TIP3   OH233304   1.489   3.575   0.539  0.0475  0.0006  0.3515
 3890TIP3    H133305   1.417   3.542   0.484  1.2371 -2.0113 -0.0869
 3890TIP3    H233306   1.499   3.509   0.607  1.9898 -0.1858 -0.0662
 3891TIP3   OH233307   5.358   3.875   7.626 -0.0986  0.0928 -0.3056
 3891TIP3    H133308   5.382   3.941   7.691  2.2526  0.0788 -1.0598
 3891TIP3    H233309   5.419   3.803   7.641 -2.0357 -1.6138 -0.0797
 3892TIP3   OH233310   4.715   3.326   8.537  0.0944  0.0190  0.6326
 3892TIP3    H133311   4.738   3.290   8.623 -1.5444  0.7532  1.4222
 3892TIP3    H233312   4.726   3.252   8.477 -1.6139 -1.4026  1.9547
 3893TIP3   OH233313   0.882   3.467   7.540  0.1579 -0.0314 -0.4690
 3893TIP3    H133314   0.809   3.405   7.547 -0.5242  0.9007  1.8850
 3893TIP3    H233315   0.852   3.531   7.475 -1.4530  0.6462  0.8517
 3894TIP3   OH233316   1.334   5.412   8.238 -0.1414  0.2055  0.0025
 3894TIP3    H133317   1.301   5.331   8.275  1.5672  0.3897  2.1726
 3894TIP3    H233318   1.306   5.480   8.299  1.7183  0.6938  0.3853
 3895TIP3   OH233319   2.073   3.721   6.698 -0.4714 -0.2807  0.1574
 3895TIP3    H133320   2.086   3.635   6.737  0.7094 -1.0205 -1.7033
 3895TIP3    H233321   2.157   3.765   6.710 -0.0293 -0.5828 -1.5663
 3896TIP3   OH233322   5.944   3.362   0.352 -0.2703 -0.2067  0.1783
 3896TIP3    H133323   5.858   3.388   0.384 -2.2373 -0.7049 -3.9375
 3896TIP3    H233324   5.957   3.274   0.386 -2.1827 -0.7210 -0.2873
 3897TIP3   OH233325   5.774   4.343   0.648  0.2789  0.4160  0.4720
 3897TIP3    H133326   5.779   4.394   0.568  3.7017 -1.2099 -0.5352
 3897TIP3    H233327   5.721   4.267   0.625  1.6295 -0.2829 -0.5090
 3898TIP3   OH233328   6.262   2.943   0.039 -0.2602  0.3311  0.2244
 3898TIP3    H133329   6.278   3.034   0.017  1.3169  0.1990  0.7266
 3898TIP3    H233330   6.177   2.923  -0.001 -0.2514  1.7691 -0.5627
 3899TIP3   OH233331   0.006   0.290   0.482 -0.5066 -0.2709 -0.5947
 3899TIP3    H133332   0.038   0.368   0.435  0.0970 -0.5093 -0.5992
 3899TIP3    H233333  -0.007   0.225   0.413 -1.0858 -0.1480 -0.5993
 3900TIP3   OH233334   6.110   5.143   0.578 -0.8230 -0.7633 -0.2034
 3900TIP3    H133335   6.137   5.098   0.658 -2.0349  0.8520  1.1948
 3900TIP3    H233336   6.019   5.167   0.593  0.0986  3.5673 -0.0328
 3901TIP3   OH233337   3.644   6.285   6.818 -0.0196  0.2560  0.0645
 3901TIP3    H133338   3.616   6.367   6.776  0.5693  0.6512  0.4305
 3901TIP3    H233339   3.722   6.259   6.769  0.0872  0.1883  0.2690
 3902TIP3   OH233340   3.902   1.498   0.725  0.9749  0.2448  0.2329
 3902TIP3    H133341   3.909   1.404   0.710  2.9861  0.5910 -1.5066
 3902TIP3    H233342   3.879   1.507   0.817 -1.4955 -1.9513 -0.0673
 3903TIP3   OH233343   4.774   4.216   0.317 -0.5123 -0.2468  0.5697
 3903TIP3    H133344   4.809   4.177   0.397  1.1618  0.2624  0.1265
 3903TIP3    H233345   4.815   4.167   0.246 -1.9674 -0.6771 -0.0081
 3904TIP3   OH233346   0.879   1.889   0.255 -0.3753  0.0422 -0.0524
 3904TIP3    H133347   0.958   1.932   0.286 -1.4068  1.5823  0.5702
 3904TIP3    H233348   0.885   1.895   0.159  0.7465 -0.8061 -0.0472
 3905TIP3   OH233349   2.066   1.187   1.162  0.1237  1.0497  0.2023
 3905TIP3    H133350   2.131   1.248   1.196  1.8636 -1.1285  1.0463
 3905TIP3    H233351   2.104   1.100   1.177 -2.0556 -0.2644 -1.2450
 3906TIP3   OH233352   6.231   2.093   6.498 -0.0049 -0.1239  0.5625
 3906TIP3    H133353   6.220   2.063   6.588  1.4302  0.7891  1.0755
 3906TIP3    H233354   6.151   2.142   6.480  0.2334  0.7981  1.8328
 3907TIP3   OH233355   5.709   0.878   7.966  0.4865  0.1922 -0.0990
 3907TIP3    H133356   5.782   0.874   7.904 -0.1532  0.2918 -0.8791
 3907TIP3    H233357   5.717   0.799   8.018  1.2350  0.2755 -0.0878
 3908TIP3   OH233358   4.381   3.594   0.489  0.4839  0.5257 -0.0039
 3908TIP3    H133359   4.459   3.540   0.501  0.4343  0.1766 -1.1469
 3908TIP3    H233360   4.308   3.537   0.511  0.4623  0.2721 -0.6971
 3909TIP3   OH233361   5.411   4.799   8.245 -0.1817 -0.2610 -0.3995
 3909TIP3    H133362   5.483   4.764   8.192 -0.4176 -0.5675 -0.5275
 3909TIP3    H233363   5.433   4.775   8.335 -1.3337 -2.6045 -0.6702
 3910TIP3   OH233364   0.617   2.762   5.832  0.2400  0.1003  0.0313
 3910TIP3    H133365   0.664   2.842   5.805 -0.8229  1.0902  1.0077
 3910TIP3    H233366   0.638   2.752   5.925  0.4701 -0.8457 -0.1180
 3911TIP3   OH233367   6.044   6.211   1.026 -0.7209 -0.4236 -0.3450
 3911TIP3    H133368   6.104   6.148   0.987 -0.4206 -0.3920  0.0640
 3911TIP3    H233369   6.098   6.289   1.042 -1.1310  0.0147 -1.0321
 3912TIP3   OH233370   6.836   4.738   8.237 -0.0205 -0.0133  0.3107
 3912TIP3    H133371   6.824   4.808   8.173  2.5675  0.4075  0.1488
 3912TIP3    H233372   6.759   4.682   8.226  0.5584 -0.3780 -3.7676
 3913TIP3   OH233373   0.866   2.979   0.236 -0.3343 -0.5834 -0.0176
 3913TIP3    H133374   0.828   3.066   0.229 -0.6424 -0.5663  1.5226
 3913TIP3    H233375   0.793   2.923   0.263 -0.5310 -1.6827 -2.5427
 3914TIP3   OH233376   2.188   0.959   0.302  0.0839  0.0744  0.2585
 3914TIP3    H133377   2.271   1.006   0.294  0.7062 -0.6973  1.6174
 3914TIP3    H233378   2.128   1.003   0.242  1.7084  0.1057 -1.4138
 3915TIP3   OH233379   0.856   5.665   1.338  0.0948 -0.1383 -0.9363
 3915TIP3    H133380   0.803   5.621   1.271 -0.1805  0.3360 -1.0313
 3915TIP3    H233381   0.842   5.758   1.322 -1.0921 -0.0110  0.6537
 3916TIP3   OH233382   5.430   3.507   2.202 -0.0504 -0.5426  0.1224
 3916TIP3    H133383   5.516   3.470   2.220  0.3349  0.8979  1.5643
 3916TIP3    H233384   5.431   3.592   2.247 -0.5059  1.7216 -3.7135
 3917TIP3   OH233385   2.733   1.132   7.412 -0.2992  0.3933  0.5902
 3917TIP3    H133386   2.744   1.037   7.412 -0.6625  0.2871  2.9171
 3917TIP3    H233387   2.783   1.162   7.488  0.4788  2.1874 -0.5450
 3918TIP3   OH233388   6.271   4.446   8.440 -0.4798  0.2455  0.2245
 3918TIP3    H133389   6.286   4.378   8.506 -0.2294 -0.8402 -0.9153
 3918TIP3    H233390   6.352   4.497   8.440  0.2988 -0.9486 -0.5924
 3919TIP3   OH233391   1.882   3.396   7.521 -0.4611 -0.1990  0.3082
 3919TIP3    H133392   1.830   3.321   7.494 -1.0723  0.6563 -1.0029
 3919TIP3    H233393   1.857   3.466   7.460  0.2864  0.9887  1.3145
 3920TIP3   OH233394   1.972   2.808   6.445 -0.2203 -0.0702  0.2980
 3920TIP3    H133395   1.980   2.858   6.526  0.9282 -1.2516  0.9591
 3920TIP3    H233396   1.878   2.790   6.436 -0.3571  0.1109  1.3411
 3921TIP3   OH233397   0.652   5.984   7.002  0.6447  0.1802  0.1125
 3921TIP3    H133398   0.682   6.016   6.917  1.0560  1.3424  0.6706
 3921TIP3    H233399   0.731   5.954   7.046  0.8062  1.7791  0.9765
 3922TIP3   OH233400   5.474   5.629   6.698  0.6307 -0.7523 -0.4973
 3922TIP3    H133401   5.498   5.551   6.748 -1.7092 -0.4130  1.3548
 3922TIP3    H233402   5.454   5.695   6.765  0.8255  0.8923 -1.9829
 3923TIP3   OH233403   4.214   4.868   7.117  0.1115 -0.7606 -0.7202
 3923TIP3    H133404   4.286   4.857   7.179  0.5878 -1.4444 -1.3840
 3923TIP3    H233405   4.161   4.790   7.128 -1.1555  0.2176  0.5319
 3924TIP3   OH233406   0.968   1.667   1.862  0.2012 -0.1305 -0.5781
 3924TIP3    H133407   1.005   1.745   1.821  2.1922  0.4695  2.0234
 3924TIP3    H233408   1.013   1.594   1.821  0.9804  0.3502 -0.6005
 3925TIP3   OH233409   3.399   1.348   0.100  0.1436  0.1830 -0.4711
 3925TIP3    H133410   3.379   1.441   0.105  3.0120  0.9244 -1.0570
 3925TIP3    H233411   3.396   1.318   0.191 -0.2815  0.9551 -0.2235
 3926TIP3   OH233412   4.962   6.505   2.084 -0.3401 -0.2957  0.7336
 3926TIP3    H133413   4.898   6.556   2.134 -0.9622 -0.9886  0.6595
 3926TIP3    H233414   5.044   6.517   2.131 -0.4328  0.8999  0.6279
 3927TIP3   OH233415   1.818   4.864   7.994  0.2686  0.1643  0.3228
 3927TIP3    H133416   1.858   4.839   8.077  1.5583  1.3709  0.0877
 3927TIP3    H233417   1.839   4.791   7.935 -0.4724 -0.5980  0.9721
 3928TIP3   OH233418   0.464   2.466   0.841 -0.1353 -0.2120  0.3414
 3928TIP3    H133419   0.382   2.422   0.821 -0.8969  0.3396  2.0982
 3928TIP3    H233420   0.462   2.547   0.789  0.7373 -1.5770 -1.9814
 3929TIP3   OH233421   2.897   6.862   8.258 -0.5884 -0.4983  0.2542
 3929TIP3    H133422   2.849   6.833   8.336  0.4200 -0.1878  1.0136
 3929TIP3    H233423   2.931   6.948   8.282 -0.8518 -0.0845 -0.8019
 3930TIP3   OH233424   1.221   5.513   7.986  1.1264  0.3666 -0.5663
 3930TIP3    H133425   1.289   5.504   7.919  1.4370  1.3442 -0.4005
 3930TIP3    H233426   1.258   5.471   8.064  0.1900 -2.0847 -1.3498
 3931TIP3   OH233427   1.396   1.728   1.914  0.1580  0.5787  0.4327
 3931TIP3    H133428   1.391   1.637   1.883  1.2195 -0.3938  2.8615
 3931TIP3    H233429   1.481   1.759   1.882  0.7611 -0.0521  1.3504
 3932TIP3   OH233430   4.338   5.391   0.570 -0.1690 -0.5936  0.3402
 3932TIP3    H133431   4.397   5.348   0.508 -0.1209  0.0134 -0.0436
 3932TIP3    H233432   4.378   5.476   0.586 -0.3600 -0.6112  0.9483
 3933TIP3   OH233433   3.503   6.307   1.526  0.1772  0.6723 -0.1673
 3933TIP3    H133434   3.454   6.299   1.608  0.5499 -1.1950 -0.0664
 3933TIP3    H233435   3.435   6.312   1.458 -0.1790 -0.4309  0.0821
 3934TIP3   OH233436   2.175   0.666   0.570 -0.2378 -0.6413  0.2094
 3934TIP3    H133437   2.246   0.727   0.552 -0.8510 -0.6890 -2.8049
 3934TIP3    H233438   2.095   0.718   0.562 -0.6788 -1.3594 -0.2943
 3935TIP3   OH233439   2.607   3.595   7.643 -0.0034  0.6769  0.2781
 3935TIP3    H133440   2.617   3.591   7.548 -1.1190 -0.2559  0.1873
 3935TIP3    H233441   2.696   3.583   7.677  0.1217 -1.3398 -0.6211
 3936TIP3   OH233442   0.751   3.902   0.096  0.2904  0.0455  0.1985
 3936TIP3    H133443   0.820   3.887   0.032 -0.2538  0.3107 -0.4684
 3936TIP3    H233444   0.697   3.971   0.057 -0.7816 -0.6814  0.3322
 3937TIP3   OH233445   2.310   1.183   7.055  0.5465 -0.2794 -0.5919
 3937TIP3    H133446   2.380   1.151   7.113  0.3440 -0.7119 -0.5835
 3937TIP3    H233447   2.231   1.179   7.108  0.8101  2.1726  0.0931
 3938TIP3   OH233448   4.057   6.048   7.542 -0.5847 -0.1590  0.3672
 3938TIP3    H133449   4.040   5.997   7.463 -0.8798 -2.0051  1.5633
 3938TIP3    H233450   3.979   6.036   7.597  0.4458 -0.6454  1.7986
 3939TIP3   OH233451   6.230   6.234   8.553  0.1660 -0.0514 -0.3480
 3939TIP3    H133452   6.211   6.321   8.588 -0.4301  0.8992 -2.8695
 3939TIP3    H233453   6.289   6.250   8.480  1.3041 -1.9562  0.0751
 3940TIP3   OH233454   4.572   5.166   2.509 -0.5406  0.0623  0.5638
 3940TIP3    H133455   4.509   5.214   2.454 -0.9910  0.6600  1.5751
 3940TIP3    H233456   4.519   5.127   2.578 -0.0378 -1.0907  0.3236
 3941TIP3   OH233457   1.699   2.379   7.805 -0.5841  0.0804  0.6651
 3941TIP3    H133458   1.770   2.383   7.741 -0.0620 -0.2686  1.2109
 3941TIP3    H233459   1.643   2.308   7.774  0.0587 -0.5730  0.9827
 3942TIP3   OH233460   5.174   4.564   6.480 -0.2677 -0.1876 -0.0633
 3942TIP3    H133461   5.197   4.586   6.390  0.8477 -0.0246  0.2536
 3942TIP3    H233462   5.134   4.643   6.515  2.4419  0.9913  0.6320
 3943TIP3   OH233463   4.977   3.789   1.883 -0.1789  0.2040 -0.6182
 3943TIP3    H133464   4.883   3.784   1.865 -0.3870 -1.0615  0.6663
 3943TIP3    H233465   4.997   3.883   1.880 -1.8742  0.6721  0.8170
 3944TIP3   OH233466   4.936   0.637   0.567  0.4228  0.0433  0.1277
 3944TIP3    H133467   4.966   0.697   0.498  0.3742  0.6728  0.6499
 3944TIP3    H233468   4.875   0.689   0.619 -0.5906 -0.8353 -0.1527
 3945TIP3   OH233469   1.968   1.827   0.906  0.4560  0.0560 -0.0766
 3945TIP3    H133470   2.000   1.737   0.902  0.4497 -0.0769  2.0407
 3945TIP3    H233471   1.872   1.818   0.907  0.4410  0.1369 -0.4776
 3946TIP3   OH233472   6.073   2.490   7.295  0.5317 -1.3714  0.7962
 3946TIP3    H133473   6.048   2.484   7.203  0.5957 -2.0622  0.8257
 3946TIP3    H233474   5.990   2.486   7.343  0.2860  0.9785  0.7130
 3947TIP3   OH233475   3.043   3.847   1.828 -0.5002  0.0592  0.0506
 3947TIP3    H133476   3.084   3.861   1.913 -0.1361  2.2071 -0.4241
 3947TIP3    H233477   2.973   3.784   1.845  0.6007 -0.8333  1.5843
 3948TIP3   OH233478   3.907   5.674   0.661  0.1029 -0.4014 -0.2199
 3948TIP3    H133479   3.987   5.636   0.627  0.7663  1.7854 -1.3171
 3948TIP3    H233480   3.874   5.730   0.590 -1.9429 -0.5852  0.5045
 3949TIP3   OH233481   1.614   5.687   6.945  0.6005  0.3957 -0.3352
 3949TIP3    H133482   1.599   5.740   7.024 -0.4773 -2.0828  1.2720
 3949TIP3    H233483   1.700   5.647   6.959  0.7663  0.5743 -0.8244
 3950TIP3   OH233484   2.570   1.175   6.719 -0.4095  0.5198 -0.2247
 3950TIP3    H133485   2.562   1.270   6.704  2.1723  1.0364  1.1015
 3950TIP3    H233486   2.626   1.145   6.647 -0.5026  0.1605 -0.1448
 3951TIP3   OH233487   4.504   3.282   7.843 -0.4645 -0.5082  0.2814
 3951TIP3    H133488   4.595   3.295   7.870 -0.4163  0.4699 -0.3401
 3951TIP3    H233489   4.465   3.233   7.916  0.8425 -1.9825  0.0422
 3952TIP3   OH233490   2.839   2.185   8.382  0.1736  0.3041 -0.1043
 3952TIP3    H133491   2.915   2.223   8.425  0.7022  0.1944 -0.9290
 3952TIP3    H233492   2.783   2.156   8.455 -1.1727  4.2609  0.6374
 3953TIP3   OH233493   0.622   4.367   8.263  0.4908  0.1077  0.4949
 3953TIP3    H133494   0.591   4.455   8.243 -0.6214 -0.1364  1.0688
 3953TIP3    H233495   0.672   4.341   8.186 -0.0727  0.8272 -0.1256
 3954TIP3   OH233496   6.012   5.433   0.288 -0.3952  0.8754 -0.4131
 3954TIP3    H133497   5.973   5.489   0.355 -0.1348  1.6222 -0.8717
 3954TIP3    H233498   6.014   5.346   0.328 -3.5018  0.5330 -0.7491
 3955TIP3   OH233499   1.668   0.829   1.518  0.2001 -0.1382  0.6031
 3955TIP3    H133500   1.629   0.839   1.605 -1.9979  1.0072 -0.4329
 3955TIP3    H233501   1.669   0.918   1.482  1.1188 -0.5887 -0.5332
 3956TIP3   OH233502   5.884   1.971   1.264 -0.2112 -0.4109 -0.5510
 3956TIP3    H133503   5.906   1.922   1.343  0.1996  1.4626  0.5722
 3956TIP3    H233504   5.941   1.936   1.196  2.7334  0.8631  1.0620
 3957TIP3   OH233505   2.544   5.869   0.722  0.5830  0.0727 -0.2028
 3957TIP3    H133506   2.535   5.885   0.628 -1.2244 -0.8494 -0.2348
 3957TIP3    H233507   2.553   5.774   0.729 -1.2303 -0.0791  0.6223
 3958TIP3   OH233508   0.403   3.385   0.730  0.4097  0.5344  0.5229
 3958TIP3    H133509   0.375   3.400   0.640 -0.3508  0.7804  0.7969
 3958TIP3    H233510   0.484   3.435   0.738  0.2086  0.9324  0.1280
 3959TIP3   OH233511   5.807   6.323   0.930 -0.5168 -0.5636 -0.2557
 3959TIP3    H133512   5.876   6.282   0.982  0.9930 -1.4263 -2.7626
 3959TIP3    H233513   5.726   6.288   0.965  0.1724  0.7861  3.0690
 3960TIP3   OH233514   6.228   0.942   7.559  0.4794  0.3248 -0.9860
 3960TIP3    H133515   6.251   0.868   7.614  1.1999  2.3945  1.7406
 3960TIP3    H233516   6.265   0.922   7.473  2.5828 -1.4869  0.2466
 3961TIP3   OH233517   4.119   1.353   7.223 -0.0597 -0.5298  0.0046
 3961TIP3    H133518   4.207   1.365   7.186 -0.5456 -0.7578 -1.2494
 3961TIP3    H233519   4.123   1.399   7.307  0.8079  0.7556 -0.7010
 3962TIP3   OH233520   3.438   4.096   1.081  0.5160 -0.0744  0.0024
 3962TIP3    H133521   3.430   4.069   0.990  2.8776 -0.8066 -0.0477
 3962TIP3    H233522   3.397   4.026   1.131  1.5417 -0.9664 -0.3894
 3963TIP3   OH233523   3.682   2.698   1.604  0.4907  0.3733 -0.0069
 3963TIP3    H133524   3.599   2.735   1.575  0.1431 -0.7790 -0.5385
 3963TIP3    H233525   3.744   2.721   1.534  0.5816  1.0140  0.2706
 3964TIP3   OH233526   5.568   3.011   0.605 -0.1266  0.3884  0.4194
 3964TIP3    H133527   5.615   2.998   0.687  0.5186  0.5022  0.0727
 3964TIP3    H233528   5.516   3.089   0.619  0.4109  0.7313  0.5336
 3965TIP3   OH233529   3.054   1.381   6.777  0.0501 -0.0471 -0.0690
 3965TIP3    H133530   3.005   1.314   6.824 -1.2329 -0.2883 -1.6398
 3965TIP3    H233531   3.009   1.388   6.692  0.3944  2.4996 -0.1185
 3966TIP3   OH233532   1.882   6.601   7.460  0.4556  0.0552  0.5490
 3966TIP3    H133533   1.956   6.652   7.493  0.2042 -0.0690  1.3371
 3966TIP3    H233534   1.855   6.646   7.380  1.9399 -0.4053 -0.2566
 3967TIP3   OH233535   6.003   3.068   1.110  0.5538  0.3423 -0.1499
 3967TIP3    H133536   5.920   3.022   1.120  0.0082  0.9455 -1.6214
 3967TIP3    H233537   5.980   3.161   1.113  1.3526  0.5279  0.6581
 3968TIP3   OH233538   3.157   0.002   7.505  0.4327  0.3790 -0.6731
 3968TIP3    H133539   3.170  -0.002   7.410 -0.8238  2.5558 -1.0107
 3968TIP3    H233540   3.062  -0.003   7.517  0.4757  1.3427  0.3385
 3969TIP3   OH233541   1.570   3.590   1.885  0.4169  0.2122 -0.7259
 3969TIP3    H133542   1.582   3.658   1.951  0.7571  0.0870 -0.6558
 3969TIP3    H233543   1.649   3.595   1.831  0.0898  0.3974 -1.2023
 3970TIP3   OH233544   5.638   0.741   6.483  0.4391  0.0896 -1.0515
 3970TIP3    H133545   5.716   0.768   6.435  0.7656  1.0885 -0.0106
 3970TIP3    H233546   5.612   0.658   6.443  3.2823 -1.3771 -0.0788
 3971TIP3   OH233547   4.068   2.350   1.782 -0.3092  0.7702  0.4708
 3971TIP3    H133548   4.157   2.343   1.749 -0.7199  0.6289 -0.6711
 3971TIP3    H233549   4.013   2.347   1.703 -1.5754 -2.8993  1.3145
 3972TIP3   OH233550   0.988   4.582   6.343  0.3737  0.2880  0.3701
 3972TIP3    H133551   1.017   4.670   6.322  0.2772  0.4956  1.0801
 3972TIP3    H233552   0.896   4.592   6.368 -0.0837 -0.2361 -1.0163
 3973TIP3   OH233553   5.097   6.023   7.045 -0.0838  0.3401 -0.4902
 3973TIP3    H133554   5.018   5.975   7.018 -0.0077 -0.3403  0.4551
 3973TIP3    H233555   5.117   6.079   6.970  0.2831 -1.6491 -1.9526
 3974TIP3   OH233556   1.408   0.625   6.302  1.0122  0.0136 -0.3738
 3974TIP3    H133557   1.389   0.709   6.343  0.2949 -0.4380  0.2360
 3974TIP3    H233558   1.427   0.566   6.375 -2.6187 -1.4247 -0.3686
 3975TIP3   OH233559   2.624   5.157   6.774  0.4846 -0.0212  0.0692
 3975TIP3    H133560   2.677   5.080   6.792 -0.0220 -0.1993  0.8455
 3975TIP3    H233561   2.669   5.201   6.702  0.7007 -1.1115 -0.4821
 3976TIP3   OH233562   4.892   3.255   6.625 -0.0815 -0.0116 -0.4690
 3976TIP3    H133563   4.950   3.180   6.611 -0.8055 -0.3010 -2.0224
 3976TIP3    H233564   4.892   3.302   6.542 -1.0827  0.6965 -0.0872
 3977TIP3   OH233565   5.227   1.589   8.598 -0.2130 -0.1266 -0.0874
 3977TIP3    H133566   5.176   1.541   8.663 -1.3649  1.1252 -0.0069
 3977TIP3    H233567   5.198   1.680   8.608 -0.2562  0.1435 -2.1741
 3978TIP3   OH233568   3.167   1.905   6.021  0.1593 -0.0643  0.1492
 3978TIP3    H133569   3.248   1.898   5.971 -0.0715 -0.6592 -0.1468
 3978TIP3    H233570   3.166   1.995   6.053  0.4965  0.2029 -0.5870
 3979TIP3   OH233571   4.859   4.433   0.050 -0.0109 -0.0357 -0.5552
 3979TIP3    H133572   4.849   4.465   0.139  2.5296  1.7050 -0.7734
 3979TIP3    H233573   4.942   4.385   0.051 -0.0207 -0.1335 -1.9362
 3980TIP3   OH233574   0.556   1.577   1.444  0.3422 -0.3336 -0.2101
 3980TIP3    H133575   0.493   1.650   1.451 -0.4611 -0.8937 -1.3602
 3980TIP3    H233576   0.587   1.565   1.534 -2.5962 -1.2356  0.8066
 3981TIP3   OH233577   6.427   4.020   7.668  0.0270 -0.5797  0.4670
 3981TIP3    H133578   6.335   4.019   7.694 -0.2883  0.5000 -0.4933
 3981TIP3    H233579   6.472   3.971   7.737 -1.2749 -1.2551  0.8746
 3982TIP3   OH233580   6.727   5.037   7.586 -1.0643  0.0612  0.1552
 3982TIP3    H133581   6.730   4.945   7.610 -2.1803 -0.0062  0.0542
 3982TIP3    H233582   6.746   5.039   7.493  0.2643  0.0656  0.4012
 3983TIP3   OH233583   6.067   4.078   7.412 -0.7648 -0.2726  0.7951
 3983TIP3    H133584   6.075   3.987   7.441  3.6008 -0.3012  0.1528
 3983TIP3    H233585   6.066   4.129   7.493  1.8292 -0.7845  1.2423
 3984TIP3   OH233586   5.216   6.909   1.821 -0.0165  0.4560 -0.2591
 3984TIP3    H133587   5.304   6.945   1.831  0.6682 -1.3136  0.3678
 3984TIP3    H233588   5.161   6.964   1.878  1.0184  0.4103  0.8218
 3985TIP3   OH233589   6.123   5.853   1.119 -0.2157 -0.2288 -0.0178
 3985TIP3    H133590   6.035   5.834   1.150 -0.0165  0.1148  0.7998
 3985TIP3    H233591   6.142   5.941   1.153  1.0834 -0.9736  1.2902
 3986TIP3   OH233592   1.811   4.942   7.377 -0.5676 -0.4242  0.4989
 3986TIP3    H133593   1.848   4.889   7.447  1.5383 -1.4475 -1.2615
 3986TIP3    H233594   1.885   4.991   7.342 -1.4179 -0.2950 -1.2680
 3987TIP3   OH233595   1.997   6.566   6.363 -0.3347 -0.2397  0.5380
 3987TIP3    H133596   2.055   6.627   6.317  0.6529 -1.3104  0.3179
 3987TIP3    H233597   1.956   6.515   6.294 -0.4225 -0.4829  0.7684
 3988TIP3   OH233598   3.878   2.826   0.581  0.1496 -0.1793 -0.2404
 3988TIP3    H133599   3.895   2.760   0.515  1.2411 -1.3092  1.1038
 3988TIP3    H233600   3.795   2.800   0.621  0.2892 -0.4092 -0.0999
 3989TIP3   OH233601   4.515   5.856   0.057 -0.5185  0.3388  0.4259
 3989TIP3    H133602   4.530   5.912   0.133  1.2438  0.5199 -0.0291
 3989TIP3    H233603   4.563   5.897  -0.014  0.6012 -1.5616  0.0074
 3990TIP3   OH233604   3.326   3.780   1.691 -0.0072 -0.5296  0.0131
 3990TIP3    H133605   3.367   3.744   1.769 -2.0332 -0.1734  1.3097
 3990TIP3    H233606   3.241   3.813   1.721 -0.0482  1.4094 -1.9618
 3991TIP3   OH233607   1.570   2.070   0.679 -0.0304 -0.1656 -0.4799
 3991TIP3    H133608   1.525   2.002   0.629  0.0239 -0.6327  0.0997
 3991TIP3    H233609   1.533   2.064   0.767 -0.3840  0.8921 -0.5445
 3992TIP3   OH233610   5.388   1.350   7.603  0.1748  0.9442  0.2614
 3992TIP3    H133611   5.414   1.261   7.582 -2.7112 -0.2444  1.2171
 3992TIP3    H233612   5.398   1.399   7.521  0.4989 -0.5987 -0.6419
 3993TIP3   OH233613   0.675   1.974   8.181 -0.6580 -0.4029 -0.6967
 3993TIP3    H133614   0.690   2.067   8.162  0.8024 -0.2366  1.0075
 3993TIP3    H233615   0.625   1.974   8.263  1.0498 -1.0771  0.3975
 3994TIP3   OH233616   3.954   0.888   1.484 -0.1599 -0.3884 -0.1287
 3994TIP3    H133617   4.028   0.851   1.436 -1.5427 -1.9125 -1.2074
 3994TIP3    H233618   3.991   0.962   1.533  1.9673 -0.8620 -0.9204
 3995TIP3   OH233619   1.518   2.157   8.515 -0.5014 -0.4877  0.0817
 3995TIP3    H133620   1.545   2.154   8.607 -0.4744 -0.1305  0.0850
 3995TIP3    H233621   1.423   2.150   8.518 -0.7905  2.4257  0.3229
 3996TIP3   OH233622   5.535   6.493   2.538  0.0830 -0.0729 -0.3472
 3996TIP3    H133623   5.580   6.562   2.585  0.6765  0.9033 -2.2321
 3996TIP3    H233624   5.545   6.416   2.593 -0.1778  1.2116  1.5765
 3997TIP3   OH233625   6.740   1.410   1.851  0.0323 -0.3168  0.3071
 3997TIP3    H133626   6.704   1.400   1.763  2.1350 -0.5555 -0.5944
 3997TIP3    H233627   6.676   1.368   1.908 -0.1291 -2.5746 -1.3930
 3998TIP3   OH233628   6.344   5.739   7.104  0.1663  0.1928 -0.2822
 3998TIP3    H133629   6.313   5.799   7.172  0.9398 -0.6324  0.8469
 3998TIP3    H233630   6.273   5.737   7.040  0.2683  2.5296 -0.5318
 3999TIP3   OH233631   6.515   2.213   6.862 -0.8978  0.5515 -0.1303
 3999TIP3    H133632   6.433   2.262   6.854 -2.0548 -1.0105  1.2476
 3999TIP3    H233633   6.486   2.124   6.882  1.0974 -0.7010 -2.3214
 4000TIP3   OH233634   1.612   4.715   0.438 -0.3492 -0.9506  0.5143
 4000TIP3    H133635   1.529   4.697   0.392 -0.1593 -1.4906  0.3715
 4000TIP3    H233636   1.678   4.708   0.369 -0.3338  1.2721  0.2399
 4001TIP3   OH233637   0.733   2.873   8.203 -0.1030 -0.0626 -0.3454
 4001TIP3    H133638   0.827   2.872   8.189  0.3216  1.3063  1.9627
 4001TIP3    H233639   0.713   2.788   8.243 -0.3099 -1.3089 -2.8752
 4002TIP3   OH233640   3.069   3.769   0.821 -1.4491 -0.0277  0.4909
 4002TIP3    H133641   3.075   3.853   0.776  0.0321 -0.7857 -0.8612
 4002TIP3    H233642   2.983   3.735   0.798 -1.4748  0.4809 -0.1790
 4003TIP3   OH233643   4.854   4.329   7.434  0.0848  0.6745  0.2788
 4003TIP3    H133644   4.924   4.280   7.391 -0.1826 -1.2206  1.8506
 4003TIP3    H233645   4.862   4.306   7.527 -2.6792  0.2628  0.5056
 4004TIP3   OH233646   6.528   6.883   0.994  0.0133  0.1456  0.2688
 4004TIP3    H133647   6.586   6.820   1.036  2.8519  0.1299 -3.1845
 4004TIP3    H233648   6.515   6.951   1.059  0.3753 -1.9177  2.6345
 4005TIP3   OH233649   0.206   2.855   0.310 -0.2327  0.9362  0.3876
 4005TIP3    H133650   0.138   2.788   0.307 -0.1929  0.7208  2.6866
 4005TIP3    H233651   0.286   2.809   0.283 -0.7426  0.9087 -1.1862
 4006TIP3   OH233652   6.473   4.706   1.757 -0.3444  0.0490 -0.6138
 4006TIP3    H133653   6.421   4.690   1.836 -1.1157  1.7235 -0.7401
 4006TIP3    H233654   6.551   4.652   1.769 -0.0405  0.8635  1.7086
 4007TIP3   OH233655   6.038   5.152   0.000 -1.0039 -0.0633  0.1256
 4007TIP3    H133656   5.992   5.185   0.078 -1.8879 -1.9842  0.4649
 4007TIP3    H233657   6.091   5.079   0.033  0.3539  0.5064 -0.7216
 4008TIP3   OH233658   0.977   1.785   8.412 -0.4115  0.0462 -0.3259
 4008TIP3    H133659   0.898   1.787   8.465 -0.9432 -0.6030 -1.0683
 4008TIP3    H233660   0.983   1.872   8.373  0.5514  0.8813  1.5647
 4009TIP3   OH233661   0.443   4.907   6.614  0.2876  0.0738 -0.2725
 4009TIP3    H133662   0.526   4.913   6.567  0.0238 -0.7662 -0.8477
 4009TIP3    H233663   0.414   4.998   6.623  2.6963  0.7396  2.5455
 4010TIP3   OH233664   6.510   5.393   1.251 -1.0385 -0.0519 -0.3550
 4010TIP3    H133665   6.595   5.437   1.254 -0.0117 -1.9878  1.2336
 4010TIP3    H233666   6.457   5.438   1.317 -0.6389  0.0352 -0.0896
 4011TIP3   OH233667   0.286   5.360   1.808  0.2955  0.0505  0.2165
 4011TIP3    H133668   0.339   5.411   1.747  0.7744  0.6257  1.1032
 4011TIP3    H233669   0.342   5.346   1.884 -0.1265 -1.0740  0.3446
 4012TIP3   OH233670   5.722   4.955   7.112  0.2161 -0.2311 -0.2781
 4012TIP3    H133671   5.797   4.952   7.052  0.3435  3.1857 -0.4488
 4012TIP3    H233672   5.647   4.977   7.056 -0.1192  0.5852  0.4701
 4013TIP3   OH233673   2.422   3.229   8.234 -0.2859 -0.1457 -0.6345
 4013TIP3    H133674   2.336   3.271   8.228 -2.0865 -3.5824 -1.9340
 4013TIP3    H233675   2.420   3.184   8.319 -0.0166 -0.6950 -0.9130
 4014TIP3   OH233676   5.327   5.009   0.768  0.0537 -0.4823 -0.0108
 4014TIP3    H133677   5.252   4.955   0.792 -0.8775  0.8950  0.3306
 4014TIP3    H233678   5.367   4.964   0.694 -2.4692 -0.1522 -1.6949
 4015TIP3   OH233679   6.418   3.445   8.621 -0.5243  0.0657 -0.0729
 4015TIP3    H133680   6.391   3.368   8.670 -0.4040 -1.7459 -2.6479
 4015TIP3    H233681   6.375   3.518   8.665  1.5192 -0.9577  4.1905
 4016TIP3   OH233682   6.726   3.805   1.602  0.4203 -0.0212  0.5610
 4016TIP3    H133683   6.821   3.797   1.610  0.5589 -1.2478 -1.5279
 4016TIP3    H233684   6.704   3.755   1.524 -2.0320 -0.1953  1.2662
 4017TIP3   OH233685   6.221   2.107   8.085  0.1415  0.2246 -0.0578
 4017TIP3    H133686   6.270   2.189   8.077  3.2361 -1.5306 -0.5436
 4017TIP3    H233687   6.237   2.078   8.175  0.2298 -0.5391 -0.3158
 4018TIP3   OH233688   1.237   0.343   1.089  0.2315  0.0547 -0.1919
 4018TIP3    H133689   1.157   0.310   1.130  0.3320  1.3372  1.1309
 4018TIP3    H233690   1.278   0.266   1.050 -1.9537 -0.5529 -1.4860
 4019TIP3   OH233691   0.052   6.025   8.067 -0.5907  0.2180  0.1114
 4019TIP3    H133692   0.104   6.056   7.993  0.0163  0.3093  0.5735
 4019TIP3    H233693   0.009   6.104   8.100 -2.3053 -0.0915 -1.2419
 4020TIP3   OH233694   0.819   4.367   8.065  0.5822 -0.4293  0.0813
 4020TIP3    H133695   0.899   4.397   8.023  1.2497 -3.0749 -0.7030
 4020TIP3    H233696   0.767   4.328   7.995  1.0820 -3.6354  1.3012
 4021TIP3   OH233697   0.019   3.329   0.833 -0.0576 -1.1231 -0.4922
 4021TIP3    H133698   0.111   3.342   0.855 -0.4097  0.3048  0.2671
 4021TIP3    H233699   0.010   3.361   0.744 -0.3557  1.5182  0.4187
 4022TIP3   OH233700   3.527   0.923   0.771 -0.3195 -0.3175  0.4928
 4022TIP3    H133701   3.467   0.992   0.743 -0.0869  0.1631  1.1460
 4022TIP3    H233702   3.586   0.967   0.833  1.3628 -0.5041 -0.9130
 4023TIP3   OH233703   1.293   3.534   7.243 -0.1468  0.2319 -0.2772
 4023TIP3    H133704   1.310   3.622   7.278 -0.9047  0.5393 -0.6503
 4023TIP3    H233705   1.198   3.531   7.231 -0.1204 -0.6301 -0.3116
 4024TIP3   OH233706   4.063   0.553   0.407 -0.0481 -0.4359 -0.1440
 4024TIP3    H133707   4.050   0.634   0.358  3.0445 -0.6733 -1.6217
 4024TIP3    H233708   4.010   0.488   0.360 -0.8429  0.2633 -0.2436
 4025TIP3   OH233709   0.760   1.318   7.879 -0.1607  0.4775 -0.2050
 4025TIP3    H133710   0.845   1.280   7.859 -1.4876 -1.3455 -2.9968
 4025TIP3    H233711   0.740   1.374   7.804 -0.9377  1.8971  1.0029
 4026TIP3   OH233712   4.365   3.811   7.531  0.2741  0.5941  0.3436
 4026TIP3    H133713   4.433   3.792   7.468 -2.6568  1.5454 -3.5038
 4026TIP3    H233714   4.377   3.904   7.553  1.5157  0.1681  1.5855
 4027TIP3   OH233715   1.256   6.339   7.483 -0.4493 -1.0225 -0.5544
 4027TIP3    H133716   1.237   6.389   7.562 -1.8014  0.1419 -1.5697
 4027TIP3    H233717   1.170   6.316   7.448  0.1048 -0.9874 -2.0117
 4028TIP3   OH233718   6.174   2.771   8.356 -0.3249 -0.7844 -0.5422
 4028TIP3    H133719   6.129   2.854   8.371  0.6410 -0.5805  1.5787
 4028TIP3    H233720   6.112   2.704   8.384 -0.8233 -0.7596 -1.5496
 4029TIP3   OH233721   6.797   2.063   7.977 -0.1640 -0.7472 -0.2193
 4029TIP3    H133722   6.751   2.144   7.954 -0.2175 -0.2171  1.5473
 4029TIP3    H233723   6.730   2.007   8.016 -0.2324 -1.8836 -1.9013
 4030TIP3   OH233724   1.943   2.283   1.946 -0.1449 -0.6973  0.1095
 4030TIP3    H133725   2.002   2.338   1.998  1.2825  0.1179 -2.2185
 4030TIP3    H233726   1.981   2.195   1.951  0.1952 -0.5489  0.1676
 4031TIP3   OH233727   0.640   4.272   7.310  0.0979 -0.3408  0.4763
 4031TIP3    H133728   0.725   4.305   7.278 -0.4133  0.6911  0.1335
 4031TIP3    H233729   0.632   4.185   7.272  0.8204 -0.2872  0.1820
 4032TIP3   OH233730   5.350   5.576   7.336  0.3670 -0.1332 -0.0751
 4032TIP3    H133731   5.314   5.650   7.285  0.4186  0.4836  0.7687
 4032TIP3    H233732   5.423   5.614   7.385  0.0491 -0.6153  0.7865
 4033TIP3   OH233733   5.282   4.625   2.090 -0.1762 -0.1724 -0.0037
 4033TIP3    H133734   5.350   4.557   2.096 -0.6539 -0.5454  1.8898
 4033TIP3    H233735   5.327   4.705   2.116  0.1724  0.1011 -1.3871
 4034TIP3   OH233736   0.500   6.535   8.188 -0.3458 -0.7658  0.0019
 4034TIP3    H133737   0.439   6.513   8.259 -0.3264  1.3970  0.7492
 4034TIP3    H233738   0.586   6.507   8.221 -0.6073 -1.7146 -0.0890
 4035TIP3   OH233739   0.944   0.302   1.517 -0.2242 -0.2116 -0.1659
 4035TIP3    H133740   0.915   0.217   1.549  0.8056 -0.1991  0.8588
 4035TIP3    H233741   0.921   0.363   1.587  1.9773 -0.1658  0.5987
 4036TIP3   OH233742   2.252   2.386   1.516 -0.2779 -0.1022 -0.2248
 4036TIP3    H133743   2.256   2.387   1.611  0.5928  2.2316 -0.2134
 4036TIP3    H233744   2.279   2.298   1.491 -1.0304 -0.9219  1.6672
 4037TIP3   OH233745   0.184   6.815   0.712 -0.2049  0.4191  0.0137
 4037TIP3    H133746   0.177   6.743   0.649 -1.6567 -0.4602  1.0846
 4037TIP3    H233747   0.277   6.820   0.734  0.3248  0.7490 -2.1437
 4038TIP3   OH233748   3.968   2.519   7.594 -0.1004 -0.0397  0.4751
 4038TIP3    H133749   4.014   2.446   7.551  0.5246 -1.1339  2.8570
 4038TIP3    H233750   4.010   2.598   7.560  0.0008 -0.8017 -1.2735
 4039TIP3   OH233751   6.095   1.769   8.055  0.2956  0.1310  0.5380
 4039TIP3    H133752   6.009   1.726   8.060 -0.2588  1.2108  0.6291
 4039TIP3    H233753   6.074   1.862   8.045  1.3503  0.1519 -3.4259
 4040TIP3   OH233754   1.995   1.888   6.990 -0.0059 -0.2033  0.9023
 4040TIP3    H133755   1.997   1.862   7.082 -0.3302 -1.2631  0.6161
 4040TIP3    H233756   2.049   1.823   6.945  0.6207  0.6329  0.4096
 4041TIP3   OH233757   3.915   3.247   8.458  0.6795 -0.2905 -0.4333
 4041TIP3    H133758   3.953   3.186   8.394  2.0327 -0.1314  0.1674
 4041TIP3    H233759   3.860   3.193   8.514  0.5141 -0.6579 -0.9492
 4042TIP3   OH233760   1.406   1.463   7.634  0.2792  0.4628 -0.2962
 4042TIP3    H133761   1.462   1.530   7.671  1.4437 -0.8564  0.4378
 4042TIP3    H233762   1.460   1.419   7.568 -0.1263 -0.3483 -0.1082
 4043TIP3   OH233763   4.965   3.223   6.339 -0.1949  0.1040  0.1211
 4043TIP3    H133764   4.892   3.163   6.349 -0.1564 -0.1485 -0.9497
 4043TIP3    H233765   5.035   3.170   6.303 -0.3188  0.8710 -1.3387
 4044TIP3   OH233766   2.469   4.541   6.651 -0.1229  0.4894 -0.0795
 4044TIP3    H133767   2.503   4.474   6.591  0.6734  1.7782 -1.0985
 4044TIP3    H233768   2.530   4.614   6.644 -0.6683  1.1392  1.4404
 4045TIP3   OH233769   1.531   4.358   7.641  0.4818  0.2837 -0.2667
 4045TIP3    H133770   1.457   4.313   7.681  0.8830 -0.3630 -0.2246
 4045TIP3    H233771   1.577   4.289   7.592  0.7480  0.7856 -0.7358
 4046TIP3   OH233772   0.357   5.565   6.626 -0.1312 -0.0680  0.3131
 4046TIP3    H133773   0.281   5.617   6.652  0.7688  1.3844  0.1426
 4046TIP3    H233774   0.380   5.598   6.539  1.9140  1.0073  1.1901
 4047TIP3   OH233775   0.834   2.372   6.340 -0.0158  0.0480 -0.3437
 4047TIP3    H133776   0.916   2.325   6.322 -0.6536 -0.4658 -2.1432
 4047TIP3    H233777   0.852   2.462   6.314 -0.8838 -0.6525 -3.9491
 4048TIP3   OH233778   3.634   5.998   0.896  0.4821 -0.2843  0.2225
 4048TIP3    H133779   3.662   6.066   0.958  2.1765  0.6890 -1.5162
 4048TIP3    H233780   3.707   5.936   0.893 -1.0594 -2.3630  1.8329
 4049TIP3   OH233781   3.877   1.245   7.466 -0.1237 -0.5697 -0.7293
 4049TIP3    H133782   3.920   1.225   7.550 -1.5889 -0.2654  0.1312
 4049TIP3    H233783   3.889   1.165   7.414  1.4877 -0.4774 -0.5490
 4050TIP3   OH233784   3.763   0.749   2.280  0.1088 -0.2200  0.5901
 4050TIP3    H133785   3.743   0.664   2.242  1.7541 -0.4694  0.1978
 4050TIP3    H233786   3.688   0.804   2.258 -0.2515 -1.1315 -0.5352
 4051TIP3   OH233787   5.193   0.517   1.452 -0.3846  0.8780 -0.1931
 4051TIP3    H133788   5.188   0.571   1.531  0.4455  1.5245 -0.5691
 4051TIP3    H233789   5.287   0.502   1.439 -0.5456  0.3331 -0.7638
 4052TIP3   OH233790   5.647   6.010   0.138  0.0067 -0.2757 -0.5879
 4052TIP3    H133791   5.588   6.062   0.084  1.3501 -0.6126 -2.4742
 4052TIP3    H233792   5.709   5.971   0.076  2.6341  0.5705  1.2878
 4053TIP3   OH233793   0.286   4.764   7.042 -0.0536 -0.3187 -0.2220
 4053TIP3    H133794   0.226   4.746   6.969  0.8747 -2.8142 -0.4655
 4053TIP3    H233795   0.364   4.801   7.000 -0.9983  2.0971  0.0055
 4054TIP3   OH233796   1.256   2.931   8.469  0.6477 -0.6291  0.4974
 4054TIP3    H133797   1.183   2.921   8.531  0.2175  1.5001  0.4400
 4054TIP3    H233798   1.272   3.026   8.468  2.3530 -0.9016 -0.7256
 4055TIP3   OH233799   6.372   2.355   7.804  0.6961 -0.5230 -0.0562
 4055TIP3    H133800   6.397   2.445   7.819 -2.1774  1.0524 -3.2130
 4055TIP3    H233801   6.298   2.340   7.863 -1.4477  0.7675 -2.2113
 4056TIP3   OH233802   3.503   3.398   7.887  0.0829  0.1230  0.1384
 4056TIP3    H133803   3.504   3.303   7.872  0.2927  0.1134  0.2146
 4056TIP3    H233804   3.415   3.415   7.922 -0.5587  0.1958 -1.4004
 4057TIP3   OH233805   6.026   4.637   0.141 -0.6542 -0.1322 -0.1678
 4057TIP3    H133806   6.081   4.574   0.187 -0.9699  1.5077  2.6722
 4057TIP3    H233807   6.022   4.604   0.051  1.5988 -2.4851  0.4766
 4058TIP3   OH233808   1.758   0.559   1.463 -0.0554  0.7147 -0.2855
 4058TIP3    H133809   1.738   0.561   1.557  3.0301  0.3270  0.5175
 4058TIP3    H233810   1.747   0.649   1.434  1.0697  1.3228  1.0412
 4059TIP3   OH233811   2.430   6.847   0.270 -0.4744 -0.4099  0.4352
 4059TIP3    H133812   2.438   6.880   0.360 -0.4283 -0.3279  0.4011
 4059TIP3    H233813   2.346   6.802   0.269 -1.4054  1.2795 -0.0147
 4060TIP3   OH233814   4.909   3.466   0.753 -0.1474 -0.2976 -0.1251
 4060TIP3    H133815   4.896   3.550   0.797 -0.2983 -0.4732  0.1675
 4060TIP3    H233816   4.900   3.401   0.823 -2.1489 -0.7051 -0.6956
 4061TIP3   OH233817   6.379   1.609   1.445 -0.6425  0.0679  0.1984
 4061TIP3    H133818   6.441   1.540   1.467 -0.5739 -1.3335 -3.6068
 4061TIP3    H233819   6.293   1.572   1.465 -0.4672  0.2440  1.3082
 4062TIP3   OH233820   2.742   3.644   8.482 -0.7960 -0.4815 -0.7839
 4062TIP3    H133821   2.759   3.734   8.457  0.6031 -1.0131 -1.8676
 4062TIP3    H233822   2.708   3.650   8.571  0.9771  1.0164 -0.1342
 4063TIP3   OH233823   1.251   4.190   8.563  0.4800 -0.4947  0.3722
 4063TIP3    H133824   1.247   4.279   8.597  0.3650 -0.6967  0.8835
 4063TIP3    H233825   1.268   4.135   8.639  0.2223 -0.9482  0.1080
 4064TIP3   OH233826   3.450   3.714   7.492  0.4251  0.3993  0.0014
 4064TIP3    H133827   3.454   3.794   7.439 -1.3327  0.7621  0.3517
 4064TIP3    H233828   3.358   3.706   7.517  0.6696 -1.4094  0.4994
 4065TIP3   OH233829   2.230   5.765   0.902 -0.2033  0.2671  0.0136
 4065TIP3    H133830   2.193   5.796   0.819 -1.6846 -0.8662  0.2213
 4065TIP3    H233831   2.266   5.679   0.880  0.4792  0.4720  0.2990
 4066TIP3   OH233832   4.958   6.123   0.525  0.0941  0.4326  0.1831
 4066TIP3    H133833   4.955   6.146   0.432  0.0162 -2.4180 -0.5964
 4066TIP3    H233834   4.867   6.135   0.555 -0.0804  0.4546 -0.3388
 4067TIP3   OH233835   4.843   1.520   7.327  0.2859  0.5910  0.3434
 4067TIP3    H133836   4.781   1.548   7.259  1.8704  0.4908 -1.2021
 4067TIP3    H233837   4.867   1.601   7.372 -1.9411  0.4737  1.8903
 4068TIP3   OH233838   2.040   6.143   0.520 -0.3993 -0.3199  0.5466
 4068TIP3    H133839   2.088   6.168   0.599 -1.6917  1.2463  0.8961
 4068TIP3    H233840   2.077   6.197   0.451 -0.3498 -0.5360  0.4008
 4069TIP3   OH233841   0.236   0.251   1.284  0.1294  0.0323 -0.6667
 4069TIP3    H133842   0.201   0.162   1.288 -1.7174  0.7245 -0.5344
 4069TIP3    H233843   0.259   0.264   1.192  0.8080 -0.7010 -0.6169
 4070TIP3   OH233844   3.772   5.905   6.961  0.4410 -0.0726  0.0609
 4070TIP3    H133845   3.851   5.888   7.012 -0.0006 -1.6675  0.2824
 4070TIP3    H233846   3.802   5.903   6.870  1.6403  4.8743  0.0744
 4071TIP3   OH233847   2.005   5.995   1.891  0.2160  0.3247 -0.2682
 4071TIP3    H133848   1.994   6.047   1.970  1.1872 -0.3624  0.3481
 4071TIP3    H233849   2.099   6.001   1.872  0.0572  0.1671 -1.1440
 4072TIP3   OH233850   6.159   1.979   6.737  0.3833 -0.0597 -0.2479
 4072TIP3    H133851   6.178   1.887   6.754 -1.3563 -0.1919  1.2698
 4072TIP3    H233852   6.064   1.982   6.725  0.5853  1.3288 -1.9232
 4073TIP3   OH233853   6.691   3.478   0.047  0.4040 -0.1882 -0.3145
 4073TIP3    H133854   6.647   3.477   0.132  0.7995 -0.8831 -0.1054
 4073TIP3    H233855   6.620   3.469  -0.017  0.0241  1.1359 -0.1157
 4074TIP3   OH233856   2.820   3.511   6.884  0.0920 -0.6539 -0.4296
 4074TIP3    H133857   2.843   3.601   6.860 -0.9215 -0.1002  0.5675
 4074TIP3    H233858   2.731   3.499   6.849 -0.3018 -0.7889  0.5775
 4075TIP3   OH233859   6.023   6.840   7.449  0.2100 -0.3425 -0.4980
 4075TIP3    H133860   6.006   6.887   7.531  0.7177  0.1665 -0.6818
 4075TIP3    H233861   6.090   6.775   7.472 -0.1240 -0.6450 -0.3626
 4076TIP3   OH233862   3.744   5.651   6.708  0.4598  0.5050  0.1502
 4076TIP3    H133863   3.735   5.746   6.718 -0.5120  0.4310  0.0959
 4076TIP3    H233864   3.764   5.639   6.615  1.1653  0.6898  0.2768
 4077TIP3   OH233865   4.806   4.617   7.289 -0.4267 -0.3082  0.3908
 4077TIP3    H133866   4.720   4.592   7.322 -1.2817  1.0197 -0.6981
 4077TIP3    H233867   4.812   4.574   7.203 -0.0432 -0.3278  0.4272
 4078TIP3   OH233868   6.080   2.040   0.175 -0.2055  0.2162  0.6131
 4078TIP3    H133869   6.041   2.127   0.170  1.1146  0.7846 -0.6107
 4078TIP3    H233870   6.024   1.985   0.120  1.1414  1.2532 -1.9868
 4079TIP3   OH233871   5.354   6.912   6.706  0.0207  0.3834 -0.0332
 4079TIP3    H133872   5.309   6.983   6.752  0.7429  0.6636  0.2502
 4079TIP3    H233873   5.327   6.833   6.753  0.4520  0.6308  0.6379
 4080TIP3   OH233874   3.774   3.147   1.002  0.2125 -0.4722 -0.2042
 4080TIP3    H133875   3.792   3.076   1.064  0.5787 -0.4097 -0.2381
 4080TIP3    H233876   3.690   3.123   0.962 -0.0423 -0.4969  0.3356
 4081TIP3   OH233877   1.625   2.123   7.209 -0.0465  0.2107  0.3737
 4081TIP3    H133878   1.543   2.078   7.186  0.9837 -0.4691 -2.3059
 4081TIP3    H233879   1.597   2.196   7.264 -2.3189 -0.6263  0.4630
 4082TIP3   OH233880   1.608   0.281   0.277  0.1742 -0.3238 -0.1361
 4082TIP3    H133881   1.598   0.363   0.229  1.8678 -0.0464 -0.0823
 4082TIP3    H233882   1.551   0.291   0.353 -0.4219  0.3662 -0.6579
 4083TIP3   OH233883   4.693   2.153   0.093 -0.4167  0.2033  0.3862
 4083TIP3    H133884   4.635   2.147   0.017  1.1752  0.0654 -0.8803
 4083TIP3    H233885   4.670   2.237   0.134 -2.1523 -0.3114  0.5009
 4084TIP3   OH233886   6.694   3.600   1.429  0.5056  0.0652 -0.2080
 4084TIP3    H133887   6.711   3.571   1.340  0.5424  0.2549 -0.2627
 4084TIP3    H233888   6.707   3.522   1.483  0.1972 -0.1207 -0.4010
 4085TIP3   OH233889   4.975   0.482   0.818 -0.3115 -0.1046  0.0057
 4085TIP3    H133890   4.963   0.548   0.749  1.4156  0.0525 -0.1853
 4085TIP3    H233891   4.915   0.411   0.794  0.1370  0.0164 -1.5876
 4086TIP3   OH233892   6.687   3.040   0.420  0.4284 -0.3297 -0.3806
 4086TIP3    H133893   6.651   3.112   0.472  0.2868  0.4349 -1.5233
 4086TIP3    H233894   6.700   2.970   0.484  1.2573  0.9348  0.8951
 4087TIP3   OH233895   0.267   4.013   6.864 -0.3831 -0.0540 -0.5561
 4087TIP3    H133896   0.353   4.018   6.821 -0.5592 -0.0072 -0.9017
 4087TIP3    H233897   0.218   4.086   6.827 -0.2317  0.5478  0.4064
 4088TIP3   OH233898   0.813   4.468   8.531 -0.2450  0.2303 -0.5541
 4088TIP3    H133899   0.850   4.449   8.617 -0.9948  0.0353 -0.2650
 4088TIP3    H233900   0.742   4.530   8.549  0.0983  0.7972 -1.1215
 4089TIP3   OH233901   6.336   4.417   8.163 -0.2484 -0.3618 -0.1388
 4089TIP3    H133902   6.429   4.399   8.173  0.5605  2.5597 -1.1998
 4089TIP3    H233903   6.300   4.414   8.252  0.5600 -2.6206  0.1590
 4090TIP3   OH233904   0.249   3.184   2.048 -0.1679 -0.2986 -0.2697
 4090TIP3    H133905   0.323   3.163   2.104  0.5563  0.4030 -0.9386
 4090TIP3    H233906   0.174   3.187   2.107 -0.0245 -2.8002  0.1739
 4091TIP3   OH233907   6.563   4.912   0.606 -0.1910 -0.2453 -0.4549
 4091TIP3    H133908   6.473   4.936   0.583 -1.1382 -2.1495  1.0160
 4091TIP3    H233909   6.582   4.835   0.552  0.3416 -0.2311 -0.2924
 4092TIP3   OH233910   2.200   4.519   8.457 -0.3522 -0.2618  0.0101
 4092TIP3    H133911   2.213   4.606   8.496 -0.1702 -0.4836  0.4429
 4092TIP3    H233912   2.228   4.530   8.365 -1.3794  0.4162 -0.2315
 4093TIP3   OH233913   6.744   1.395   7.109 -0.0371  0.1814  0.1517
 4093TIP3    H133914   6.680   1.427   7.045  0.2716  0.4864 -0.0075
 4093TIP3    H233915   6.801   1.470   7.126  0.6304 -0.2525 -0.1395
 4094TIP3   OH233916   4.795   4.865   1.021  0.3880 -0.2613  0.3304
 4094TIP3    H133917   4.889   4.875   1.037  0.1245 -0.4840  2.3043
 4094TIP3    H233918   4.777   4.919   0.944  1.7792  1.4315  1.1450
 4095TIP3   OH233919   5.226   2.717   1.537 -0.3188 -0.0848  0.1084
 4095TIP3    H133920   5.166   2.643   1.545 -0.0712 -0.3336 -0.3117
 4095TIP3    H233921   5.310   2.683   1.568 -0.3907  0.2650  0.7031
 4096TIP3   OH233922   2.304   2.452   0.973 -0.2500  0.1171 -0.7850
 4096TIP3    H133923   2.216   2.439   1.009 -0.9970  1.8191 -1.8801
 4096TIP3    H233924   2.340   2.525   1.023 -0.4965  1.1338 -2.0418
 4097TIP3   OH233925   4.848   6.454   7.014 -0.2629  0.1726  0.4858
 4097TIP3    H133926   4.836   6.471   6.921 -0.5955  1.9423  0.8323
 4097TIP3    H233927   4.916   6.516   7.042  0.2924 -0.7683  1.3046
 4098TIP3   OH233928   5.513   3.560   1.745  0.3845  0.4995 -0.0959
 4098TIP3    H133929   5.483   3.477   1.707  1.0918 -0.3178  1.0413
 4098TIP3    H233930   5.601   3.541   1.777  0.1096  1.3270  1.2561
 4099TIP3   OH233931   4.467   6.375   7.782 -0.2498  1.0902  0.3400
 4099TIP3    H133932   4.518   6.294   7.790 -1.8849 -0.1308 -0.8315
 4099TIP3    H233933   4.514   6.425   7.715 -0.6833 -0.1545 -0.9624
 4100TIP3   OH233934   5.673   5.344   8.489  0.5323 -0.7468  0.3854
 4100TIP3    H133935   5.768   5.357   8.481  0.3766 -0.8546 -3.1079
 4100TIP3    H233936   5.664   5.252   8.515  1.3053 -0.0569  3.5518
 4101TIP3   OH233937   2.308   0.179   8.366 -0.1688 -0.7845  0.2143
 4101TIP3    H133938   2.254   0.105   8.337 -0.2862 -0.3089 -0.8011
 4101TIP3    H233939   2.259   0.257   8.338 -0.3857 -0.2884  1.8732
 4102TIP3   OH233940   4.873   3.164   1.452  0.3918  0.0964 -0.2028
 4102TIP3    H133941   4.910   3.124   1.531  0.3856  0.8290  0.1766
 4102TIP3    H233942   4.779   3.149   1.460  0.6039 -2.9480 -1.8125
 4103TIP3   OH233943   3.923   2.508   8.361  0.5481  0.4089 -0.2837
 4103TIP3    H133944   3.907   2.416   8.380  0.9291  0.4249  0.1322
 4103TIP3    H233945   3.950   2.546   8.444  0.4159  0.8958 -0.4561
 4104TIP3   OH233946   0.929   2.227   7.481 -0.0958 -0.9128 -0.6995
 4104TIP3    H133947   0.974   2.290   7.537 -0.9393 -0.9472  0.0594
 4104TIP3    H233948   0.857   2.277   7.441 -0.2146 -1.1702 -0.8137
 4105TIP3   OH233949   3.718   6.314   7.081 -0.2250 -0.0235 -0.2119
 4105TIP3    H133950   3.714   6.224   7.114 -1.4024  0.0751 -0.0721
 4105TIP3    H233951   3.688   6.308   6.990 -1.0426  0.3280  0.0238
 4106TIP3   OH233952   0.155   0.372   7.661 -0.2656 -0.2621  0.1511
 4106TIP3    H133953   0.159   0.466   7.643 -2.0735 -0.1721  0.0885
 4106TIP3    H233954   0.203   0.361   7.743  2.0505  0.3299 -1.0232
 4107TIP3   OH233955   2.483   6.889   7.065  0.9394 -0.1084 -0.2949
 4107TIP3    H133956   2.553   6.920   7.008  0.1636 -0.3496 -1.4158
 4107TIP3    H233957   2.502   6.928   7.150  1.7713  0.8003 -0.8760
 4108TIP3   OH233958   2.015   3.079   7.640  0.0485  0.2346 -0.2033
 4108TIP3    H133959   1.928   3.083   7.600 -1.3204 -0.9181  2.3707
 4108TIP3    H233960   2.064   3.019   7.585 -0.9542  0.4631 -1.4071
 4109TIP3   OH233961   1.704   3.650   1.233  0.3115  0.2260  0.2686
 4109TIP3    H133962   1.690   3.619   1.322 -1.2908  0.7696  0.2222
 4109TIP3    H233963   1.617   3.670   1.200  0.7214 -1.2621 -1.9137
 4110TIP3   OH233964   6.123   3.292   8.558  0.2349 -0.6340  0.3303
 4110TIP3    H133965   6.069   3.369   8.577  0.0972 -0.0146 -2.1555
 4110TIP3    H233966   6.074   3.219   8.595 -2.3095 -0.0695 -1.6009
 4111TIP3   OH233967   4.849   1.341   8.030  0.1513 -0.1469 -0.1875
 4111TIP3    H133968   4.791   1.388   7.969  0.4299 -2.0454 -2.0479
 4111TIP3    H233969   4.917   1.303   7.974  2.3911  0.7507  1.7603
 4112TIP3   OH233970   0.754   5.359   1.570 -0.1298  0.3012  0.1584
 4112TIP3    H133971   0.772   5.449   1.597 -0.4138  0.8797 -1.4172
 4112TIP3    H233972   0.811   5.305   1.624 -0.8061  1.3134  1.9842
 4113TIP3   OH233973   5.596   3.178   2.315 -0.4829  0.2198  0.1112
 4113TIP3    H133974   5.553   3.105   2.270  0.4786  0.2972 -0.9991
 4113TIP3    H233975   5.532   3.208   2.379 -1.0792 -1.2932  0.2723
 4114TIP3   OH233976   0.846   3.895   1.624 -0.6205  1.0802  0.1190
 4114TIP3    H133977   0.929   3.847   1.630 -0.8952  0.3238 -1.4273
 4114TIP3    H233978   0.868   3.985   1.646  0.5445  0.8227  0.0697
 4115TIP3   OH233979   2.899   5.446   8.620 -0.2057 -0.1767 -0.6764
 4115TIP3    H133980   2.982   5.406   8.646 -0.2213 -0.1635 -0.6050
 4115TIP3    H233981   2.903   5.535   8.655 -1.3158 -0.9522  1.5882
 4116TIP3   OH233982   2.411   1.587   1.383 -0.1766  0.2095 -0.0604
 4116TIP3    H133983   2.343   1.635   1.430 -0.8943 -1.5579  0.8079
 4116TIP3    H233984   2.462   1.655   1.338 -2.8856  1.5699 -1.3170
 4117TIP3   OH233985   1.194   5.981   0.617 -0.4168 -0.6506  0.2436
 4117TIP3    H133986   1.157   5.893   0.626  2.5157 -2.0360 -0.2343
 4117TIP3    H233987   1.254   5.974   0.543 -2.1370  2.5729 -1.6915
 4118TIP3   OH233988   5.446   3.975   2.215  0.3928 -0.0444 -0.1477
 4118TIP3    H133989   5.522   4.033   2.226  0.2054  0.4471 -1.3198
 4118TIP3    H233990   5.452   3.946   2.124 -0.3988 -0.6287 -0.0163
 4119TIP3   OH233991   4.391   4.342   0.287 -0.0695  0.2364 -0.1233
 4119TIP3    H133992   4.429   4.329   0.201 -0.7235  0.9018 -0.5292
 4119TIP3    H233993   4.465   4.364   0.344  0.2152  1.0281 -0.7873
 4120TIP3   OH233994   5.226   5.414   7.532 -0.1203 -0.2089  0.3788
 4120TIP3    H133995   5.291   5.456   7.475 -1.2132 -0.6333 -1.2402
 4120TIP3    H233996   5.209   5.479   7.600  0.7279  0.5908 -0.1404
 4121TIP3   OH233997   4.677   1.114   1.932 -0.4562 -0.0396 -0.3087
 4121TIP3    H133998   4.635   1.037   1.896 -0.8982 -0.6866  1.4806
 4121TIP3    H233999   4.615   1.186   1.916 -1.3519 -0.6068  0.5404
 4122TIP3   OH234000   0.057   3.005   8.317 -0.0972  0.0417  0.4782
 4122TIP3    H134001  -0.013   2.940   8.322  0.1436 -0.1643  1.0970
 4122TIP3    H234002   0.083   3.020   8.407  1.4876 -0.7602  0.1776
 4123TIP3   OH234003   4.583   3.993   7.113  0.6318 -0.5750 -0.9149
 4123TIP3    H134004   4.504   4.020   7.067 -0.3052 -0.8959  0.4671
 4123TIP3    H234005   4.627   3.933   7.052 -0.6239 -1.0796 -1.3509
 4124TIP3   OH234006   3.945   3.178   0.567 -0.1407  0.0270  0.3738
 4124TIP3    H134007   3.946   3.196   0.661  2.1047 -0.3681  0.4703
 4124TIP3    H234008   3.853   3.188   0.542 -1.0503 -1.2640  2.8570
 4125TIP3   OH234009   4.462   3.804   0.828  1.0355 -0.1996 -0.0418
 4125TIP3    H134010   4.368   3.807   0.845  1.1941 -0.3903  0.9273
 4125TIP3    H234011   4.472   3.841   0.741  0.2936  2.3465  0.8588
 4126TIP3   OH234012   6.300   6.183   1.281  0.0051 -0.4709  0.0815
 4126TIP3    H134013   6.282   6.202   1.189  2.7349  0.6737 -0.3096
 4126TIP3    H234014   6.248   6.105   1.300 -1.7456  0.0993 -1.9776
 4127TIP3   OH234015   1.135   2.911   1.888 -0.2727  0.1344 -0.4317
 4127TIP3    H134016   1.199   2.968   1.931 -0.5850 -0.1272  0.4112
 4127TIP3    H234017   1.082   2.877   1.960  1.1203 -2.7767 -0.6140
 4128TIP3   OH234018   6.083   3.586   7.867 -0.5767 -0.0756 -0.2754
 4128TIP3    H134019   6.140   3.512   7.844 -0.2706  0.4770 -1.3712
 4128TIP3    H234020   6.135   3.663   7.845 -1.0932  0.4683  0.3740
 4129TIP3   OH234021   4.252   5.387   8.622  0.2573  0.2314 -0.3466
 4129TIP3    H134022   4.342   5.359   8.602  0.1914 -0.8535  0.7336
 4129TIP3    H234023   4.249   5.390   8.717 -1.5830 -2.4767 -0.2182
 4130TIP3   OH234024   1.120   4.476   6.559 -0.4514  0.2548  0.1471
 4130TIP3    H134025   1.056   4.492   6.489 -1.2850 -0.6499  0.6743
 4130TIP3    H234026   1.194   4.532   6.537 -0.4902 -0.3595 -1.7195
 4131TIP3   OH234027   5.430   4.552   6.897  0.0900 -0.2885 -0.3974
 4131TIP3    H134028   5.448   4.500   6.819 -1.9382 -1.0386 -0.4370
 4131TIP3    H234029   5.348   4.597   6.876  1.3928  2.4361 -0.0837
 4132TIP3   OH234030   2.330   0.103   1.772  0.5997 -0.0383  0.0229
 4132TIP3    H134031   2.410   0.130   1.817  0.9390  0.5166 -0.8761
 4132TIP3    H234032   2.361   0.047   1.701  0.3252  1.2032 -1.1179
 4133TIP3   OH234033   1.684   3.546   8.015  0.3127 -0.5764 -0.4535
 4133TIP3    H134034   1.656   3.602   7.943 -0.9918 -1.4616 -0.6726
 4133TIP3    H234035   1.652   3.590   8.094  1.1291  0.0313 -0.4444
 4134TIP3   OH234036   4.565   4.376   0.985  0.0458  0.1465  0.4590
 4134TIP3    H134037   4.563   4.451   1.044 -1.9895  0.4333  0.0812
 4134TIP3    H234038   4.537   4.411   0.900  2.0184 -0.4458 -0.5085
 4135TIP3   OH234039   5.638   1.200   0.917  0.1030  0.2795  0.4843
 4135TIP3    H134040   5.702   1.267   0.895  0.1681  1.3101  3.4328
 4135TIP3    H234041   5.651   1.132   0.851  1.6222  2.1121 -1.2295
 4136TIP3   OH234042   0.713   6.627   7.823 -0.1485  0.3993 -0.1088
 4136TIP3    H134043   0.638   6.619   7.764  0.8874  1.8593 -1.6903
 4136TIP3    H234044   0.696   6.707   7.873  1.0383  1.5994 -1.5601
 4137TIP3   OH234045   5.621   1.660   7.833 -0.4491 -0.6605 -0.0265
 4137TIP3    H134046   5.631   1.668   7.738  2.4584 -0.6401  0.2081
 4137TIP3    H234047   5.691   1.601   7.860  0.0652  0.8744  2.3279
 4138TIP3   OH234048   2.352   0.493   1.249 -0.4745  0.1599 -0.4796
 4138TIP3    H134049   2.375   0.431   1.180 -2.2056 -0.4332 -0.5599
 4138TIP3    H234050   2.280   0.452   1.296 -1.9983  2.2389 -0.7993
 4139TIP3   OH234051   2.871   3.559   8.051  0.1454  0.5407 -0.3094
 4139TIP3    H134052   2.943   3.621   8.056  1.3659 -0.8113 -0.2034
 4139TIP3    H234053   2.864   3.537   7.958  1.7259 -1.3049 -0.0746
 4140TIP3   OH234054   1.724   2.763   1.020 -0.0947  0.0274 -0.3242
 4140TIP3    H134055   1.804   2.811   1.039  0.1290 -1.4711  3.5792
 4140TIP3    H234056   1.750   2.671   1.023 -1.5106 -0.4713 -1.8164
 4141TIP3   OH234057   4.929   4.443   6.652 -0.4835  0.3425 -0.8668
 4141TIP3    H134058   4.935   4.357   6.610  1.5418 -1.8224  3.2398
 4141TIP3    H234059   5.003   4.492   6.616  3.1310 -2.5198  1.8324
 4142TIP3   OH234060   1.626   0.597   8.074 -0.8630  0.3292  0.0618
 4142TIP3    H134061   1.545   0.622   8.117 -1.5893 -0.1837 -0.9566
 4142TIP3    H234062   1.638   0.663   8.005 -0.0309  0.7969  0.6202
 4143TIP3   OH234063   4.576   6.101   7.055 -0.7014  0.1103  0.1345
 4143TIP3    H134064   4.483   6.106   7.034 -0.7647 -0.0013  0.3740
 4143TIP3    H234065   4.586   6.156   7.133 -0.3231  1.1575 -0.6405
 4144TIP3   OH234066   6.470   1.062   0.727 -0.4157 -0.4850  0.2726
 4144TIP3    H134067   6.375   1.059   0.710 -0.5254  0.7171  0.5531
 4144TIP3    H234068   6.488   1.155   0.741  0.7458 -0.7516  0.6182
 4145TIP3   OH234069   3.175   3.896   2.072 -0.0306 -0.0044  0.5783
 4145TIP3    H134070   3.174   3.842   2.151  1.0404  2.0969  2.1383
 4145TIP3    H234071   3.188   3.985   2.104  1.4330  0.8313 -2.0344
 4146TIP3   OH234072   3.526   2.606   2.064  0.1013  0.2357 -0.7232
 4146TIP3    H134073   3.514   2.655   2.145 -1.1877 -2.4627  0.8486
 4146TIP3    H234074   3.438   2.576   2.040  0.8137 -1.3455 -1.5502
 4147TIP3   OH234075   5.476   2.291   7.511 -0.1539  0.0522  0.1927
 4147TIP3    H134076   5.403   2.351   7.503 -0.4897 -0.3592  0.1560
 4147TIP3    H234077   5.486   2.253   7.424 -1.2270 -1.4231  0.6750
 4148TIP3   OH234078   0.438   1.066   0.221  0.2851 -0.3869 -0.5368
 4148TIP3    H134079   0.505   1.118   0.266  1.4174 -0.3880 -2.1621
 4148TIP3    H234080   0.458   0.975   0.245 -1.8780 -0.2388  2.5564
 4149TIP3   OH234081   0.343   1.951   8.603  0.5279  0.2294 -0.6605
 4149TIP3    H134082   0.262   1.984   8.642  0.3957  0.0365 -0.7731
 4149TIP3    H234083   0.339   1.856   8.614  1.7943  0.3580  1.3964
 4150TIP3   OH234084   5.338   4.915   6.842 -0.1586  0.2627 -0.2839
 4150TIP3    H134085   5.425   4.947   6.867  0.7452 -1.1950 -1.3806
 4150TIP3    H234086   5.307   4.869   6.920 -0.1746  1.1937  0.2776
 4151TIP3   OH234087   5.315   6.711   1.388  0.3178  0.2608  0.0782
 4151TIP3    H134088   5.354   6.645   1.445  3.4742  2.5337  0.8324
 4151TIP3    H234089   5.272   6.772   1.447  1.4649  1.3016 -0.1128
 4152TIP3   OH234090   6.372   1.010   0.024 -0.0833 -0.4235  0.1223
 4152TIP3    H134091   6.379   1.103   0.046  1.4936 -0.9343  2.1363
 4152TIP3    H234092   6.452   0.991  -0.025  0.2320 -0.9857  0.8478
 4153TIP3   OH234093   1.415   5.731   1.784 -0.5986  0.3574  0.1180
 4153TIP3    H134094   1.440   5.748   1.875 -1.3910 -0.2356  0.4591
 4153TIP3    H234095   1.345   5.795   1.766  1.6330  2.6369 -1.1236
 4154TIP3   OH234096   1.714   3.918   7.518  0.3565 -0.7149  0.2333
 4154TIP3    H134097   1.649   3.873   7.572  0.1314  0.1891  0.7428
 4154TIP3    H234098   1.792   3.862   7.521  0.5916 -0.3398  2.1089
 4155TIP3   OH234099   6.312   6.823   8.561  0.1687 -0.6898  0.1863
 4155TIP3    H134100   6.307   6.916   8.538 -3.2528 -0.5271  1.0547
 4155TIP3    H234101   6.376   6.819   8.631  0.1263  1.0819  0.3692
 4156TIP3   OH234102   5.797   4.915   0.182 -0.5667 -0.7515  0.1882
 4156TIP3    H134103   5.852   4.985   0.216  0.3432 -0.6074 -1.4823
 4156TIP3    H234104   5.824   4.837   0.231  0.5527 -0.5209 -0.0384
 4157TIP3   OH234105   2.022   0.461   7.423 -0.1664  0.2124 -0.8643
 4157TIP3    H134106   1.949   0.427   7.475 -0.1307 -0.4558 -1.2400
 4157TIP3    H234107   2.068   0.383   7.393  0.2507  0.6137 -1.2763
 4158TIP3   OH234108   3.483   4.529   2.099  0.4412  0.1366 -0.0445
 4158TIP3    H134109   3.457   4.579   2.022 -0.7944 -0.0757  0.2233
 4158TIP3    H234110   3.445   4.442   2.086  0.5235 -0.0117  0.6391
 4159TIP3   OH234111   0.388   1.416   8.064 -0.5623  0.4987 -0.0169
 4159TIP3    H134112   0.436   1.499   8.054 -2.2005  1.2419 -3.0560
 4159TIP3    H234113   0.428   1.358   7.999 -0.2726 -0.7067  1.2039
 4160TIP3   OH234114   2.100   3.186   8.322 -0.1130  0.0654  0.4654
 4160TIP3    H134115   2.075   3.201   8.231 -0.8182 -1.1271  0.4484
 4160TIP3    H234116   2.026   3.220   8.373 -0.1998 -0.2444  0.5477
 4161TIP3   OH234117   3.835   2.598   6.509  0.0891 -0.2341 -0.2007
 4161TIP3    H134118   3.834   2.582   6.604  1.2834 -0.6622 -0.2449
 4161TIP3    H234119   3.921   2.568   6.481 -0.6049 -1.0308 -1.5896
 4162TIP3   OH234120   1.204   4.152   0.711 -0.2296 -0.2339 -0.0127
 4162TIP3    H134121   1.288   4.114   0.686 -0.4493  0.1156 -1.3715
 4162TIP3    H234122   1.143   4.079   0.711  0.0460 -0.4738  0.8947
 4163TIP3   OH234123   0.703   1.114   0.592  0.3869  0.0914  0.2291
 4163TIP3    H134124   0.664   1.174   0.529 -1.7275 -0.3088  1.0661
 4163TIP3    H234125   0.691   1.157   0.677  1.8611 -0.0459  0.5381
 4164TIP3   OH234126   0.627   5.548   8.562  0.0321 -0.2598  0.4041
 4164TIP3    H134127   0.553   5.514   8.512  1.8046 -0.5941 -2.1959
 4164TIP3    H234128   0.588   5.609   8.624 -2.4017 -0.3162 -0.9448
 4165TIP3   OH234129   2.670   2.080   7.394  0.5994 -0.3049  0.1023
 4165TIP3    H134130   2.608   2.153   7.393 -1.0749 -1.6326  0.6036
 4165TIP3    H234131   2.695   2.068   7.302  0.0578  0.2292 -0.1175
 4166TIP3   OH234132   3.800   4.537   0.691 -0.3112  0.1064 -0.4782
 4166TIP3    H134133   3.725   4.479   0.709 -0.1211 -0.3059 -0.9831
 4166TIP3    H234134   3.867   4.509   0.754 -0.0664 -0.5320 -1.0047
 4167TIP3   OH234135   6.743   2.839   0.844 -0.2588 -0.6929  0.1960
 4167TIP3    H134136   6.655   2.852   0.881  0.6884  0.6932  2.1299
 4167TIP3    H234137   6.795   2.807   0.918  1.0842 -0.6014 -0.6892
 4168TIP3   OH234138   6.707   5.254   1.629  0.1588  0.0087  0.2874
 4168TIP3    H134139   6.619   5.290   1.619  1.0787  2.1047 -0.8931
 4168TIP3    H234140   6.709   5.220   1.719 -1.1181  2.0908  1.1770
 4169TIP3   OH234141   0.877   6.415   7.282  0.3766  0.3570 -0.3626
 4169TIP3    H134142   0.931   6.421   7.361  0.5335  1.4953 -0.5338
 4169TIP3    H234143   0.790   6.395   7.314  0.9288 -1.8762 -0.1017
 4170TIP3   OH234144   3.191   3.557   0.388 -0.2979  0.3798  0.3677
 4170TIP3    H134145   3.120   3.619   0.372 -0.0906  0.2202 -1.3929
 4170TIP3    H234146   3.207   3.562   0.482 -2.6026  0.4571  0.8060
 4171TIP3   OH234147   0.391   2.155   0.454 -0.0395 -0.2281 -0.1355
 4171TIP3    H134148   0.460   2.209   0.492 -0.7652  0.5675  0.0788
 4171TIP3    H234149   0.375   2.193   0.367 -0.7500  0.0890  0.1280
 4172TIP3   OH234150   5.016   1.599   7.619  0.5984 -0.0164 -0.0664
 4172TIP3    H134151   5.017   1.504   7.630 -0.8410 -0.1456 -0.8459
 4172TIP3    H234152   5.106   1.625   7.637  1.3669 -1.6904 -1.1530
 4173TIP3   OH234153   1.057   6.768   0.367  0.3038 -0.2228  0.3454
 4173TIP3    H134154   0.986   6.711   0.338  0.8132 -1.2174  1.0307
 4173TIP3    H234155   1.053   6.843   0.307 -1.2895 -0.2732  0.3527
 4174TIP3   OH234156   4.113   6.125   1.818 -0.1506  0.6345  0.2943
 4174TIP3    H134157   4.207   6.126   1.835  0.5149  3.1168 -2.5703
 4174TIP3    H234158   4.078   6.197   1.871 -0.7036 -0.8445  2.0538
 4175TIP3   OH234159   4.415   2.841   1.682  0.0461  0.0520  0.0078
 4175TIP3    H134160   4.467   2.897   1.625  1.8267 -0.2027  1.3030
 4175TIP3    H234161   4.405   2.891   1.762 -2.1909  0.2894 -0.3596
 4176TIP3   OH234162   3.974   4.197   7.875 -0.5139  0.3271 -0.5159
 4176TIP3    H134163   3.941   4.187   7.964 -1.4890 -3.2172 -1.1324
 4176TIP3    H234164   4.068   4.180   7.882 -0.5612  0.2165 -0.1465
 4177TIP3   OH234165   0.579   2.295   7.192  0.1709 -0.2822 -0.1870
 4177TIP3    H134166   0.588   2.348   7.113 -0.1563 -0.6080 -0.4489
 4177TIP3    H234167   0.566   2.205   7.159 -1.9689 -0.1567  0.1672
 4178TIP3   OH234168   6.449   3.007   6.667  0.4741  0.0659  0.4478
 4178TIP3    H134169   6.401   3.033   6.588  1.3315  1.9574  0.4937
 4178TIP3    H234170   6.394   2.940   6.708 -1.0834  0.6691 -0.5656
 4179TIP3   OH234171   4.049   5.474   6.400  0.4383  0.0814 -0.2121
 4179TIP3    H134172   4.058   5.452   6.307 -1.5112  0.8339 -0.6155
 4179TIP3    H234173   4.131   5.518   6.422  0.5146  0.8531 -1.8726
 4180TIP3   OH234174   0.486   1.844   0.599 -0.4392  0.1234 -0.2555
 4180TIP3    H134175   0.416   1.817   0.540 -1.0738 -0.1878  0.6169
 4180TIP3    H234176   0.459   1.812   0.685  0.7159  0.1163  0.1215
 4181TIP3   OH234177   3.313   3.431   8.626 -0.0914  0.2667 -0.1622
 4181TIP3    H134178   3.378   3.470   8.567  0.2386  0.1713  0.1344
 4181TIP3    H234179   3.253   3.502   8.645  1.4140  1.1412  1.6839
 4182TIP3   OH234180   0.289   5.077   8.493 -0.2476 -0.2543  0.6127
 4182TIP3    H134181   0.296   5.053   8.585  0.7542 -1.7575  0.1913
 4182TIP3    H234182   0.201   5.113   8.483 -0.7681 -1.1239  1.9319
 4183TIP3   OH234183   4.270   1.490   1.316 -0.1101  0.1416  0.1953
 4183TIP3    H134184   4.228   1.576   1.322  0.4519  0.3916  0.6490
 4183TIP3    H234185   4.277   1.460   1.407 -0.4764 -0.4723  0.0291
 4184TIP3   OH234186   5.494   4.246   1.509  0.2829 -0.4403  0.3877
 4184TIP3    H134187   5.540   4.307   1.452 -0.7559  1.2719  1.2970
 4184TIP3    H234188   5.452   4.184   1.449 -1.1070  1.5289 -0.8142
 4185TIP3   OH234189   3.735   1.833   8.270  0.0985  0.1904  0.4021
 4185TIP3    H134190   3.790   1.844   8.193 -1.5331  1.2783 -0.6683
 4185TIP3    H234191   3.791   1.860   8.343  1.3841  0.0074 -0.4852
 4186TIP3   OH234192   4.813   4.072   8.184  0.8905  0.4773  0.9042
 4186TIP3    H134193   4.802   4.153   8.234 -0.7717  1.6117 -1.1282
 4186TIP3    H234194   4.880   4.023   8.232  0.4692  2.1059  3.3542
 4187TIP3   OH234195   1.197   4.323   1.571  0.3830 -0.4390  0.2897
 4187TIP3    H134196   1.283   4.299   1.604  1.3465  1.0784 -0.9460
 4187TIP3    H234197   1.165   4.389   1.633  0.6515 -0.1376  0.1127
 4188TIP3   OH234198   2.806   3.655   0.832  0.1741 -0.5096  0.3166
 4188TIP3    H134199   2.757   3.581   0.869  0.1881 -0.0932  1.2056
 4188TIP3    H234200   2.743   3.698   0.773  0.1892 -1.2605 -0.2531
 4189TIP3   OH234201   2.453   4.445   1.177 -0.4941  0.4856  0.2885
 4189TIP3    H134202   2.532   4.468   1.226 -0.2690 -0.7125  0.5119
 4189TIP3    H234203   2.381   4.461   1.238 -0.4217  1.3277  0.1710
 4190TIP3   OH234204   5.000   4.889   7.845 -0.0952  0.7166  0.1232
 4190TIP3    H134205   4.905   4.901   7.843 -0.6606 -2.2492  2.5114
 4190TIP3    H234206   5.019   4.830   7.773  0.1875  2.2481 -1.1061
 4191TIP3   OH234207   5.594   6.208   7.433 -0.1608 -0.0715  0.5288
 4191TIP3    H134208   5.648   6.179   7.360  0.2508  0.3421  0.6638
 4191TIP3    H234209   5.554   6.127   7.466  0.4689 -0.4061  0.5017
 4192TIP3   OH234210   3.169   0.976   0.530 -0.1773  0.2827  0.4741
 4192TIP3    H134211   3.261   0.974   0.504 -0.3063 -0.8615  0.0509
 4192TIP3    H234212   3.164   0.920   0.608 -0.8284 -1.3539 -0.6795
 4193TIP3   OH234213   0.803   4.861   8.549  0.6664 -0.8606 -0.2058
 4193TIP3    H134214   0.724   4.839   8.499  1.1853 -1.9826 -0.5838
 4193TIP3    H234215   0.808   4.792   8.616  0.1246  0.4701  1.2617
 4194TIP3   OH234216   6.223   0.767   0.576 -0.6697 -0.1432  0.4636
 4194TIP3    H134217   6.216   0.752   0.482 -4.6921  0.7676  0.4269
 4194TIP3    H234218   6.238   0.862   0.584  2.4596 -0.5790  0.8311
 4195TIP3   OH234219   1.937   0.884   0.447 -0.0728  0.1919  0.0103
 4195TIP3    H134220   1.954   0.936   0.525  0.4867 -4.2220  3.2273
 4195TIP3    H234221   2.010   0.904   0.388  0.7427  2.0748  1.5709
 4196TIP3   OH234222   6.719   2.360   8.358 -0.2984  0.1119  0.4147
 4196TIP3    H134223   6.661   2.404   8.297  1.0270  1.7550  0.2771
 4196TIP3    H234224   6.778   2.308   8.303 -0.9614 -0.7637  0.5014
 4197TIP3   OH234225   3.238   2.405   1.324  0.2587 -0.1493  0.1460
 4197TIP3    H134226   3.180   2.387   1.397 -0.2190 -1.0928 -0.4450
 4197TIP3    H234227   3.322   2.368   1.350 -0.3449 -2.0572 -0.4567
 4198TIP3   OH234228   6.620   5.502   7.368 -0.1653  0.0150  0.4798
 4198TIP3    H134229   6.661   5.447   7.436 -0.6067 -0.2456  0.5358
 4198TIP3    H234230   6.624   5.590   7.404 -0.5418 -0.1438  0.9228
 4199TIP3   OH234231   5.323   1.599   7.365  0.3655  0.2779 -0.7403
 4199TIP3    H134232   5.240   1.568   7.328 -0.1469  0.0648  0.5456
 4199TIP3    H234233   5.390   1.552   7.315 -0.3351 -1.2191 -0.3287
 4200TIP3   OH234234   4.721   2.033   8.318  0.5918  0.2016 -0.0865
 4200TIP3    H134235   4.776   2.025   8.240  0.8185 -0.6703  0.1585
 4200TIP3    H234236   4.749   2.116   8.358  1.9247 -0.3372  0.1661
 4201TIP3   OH234237   1.555   6.154   8.565 -0.1834  0.3335  0.1628
 4201TIP3    H134238   1.500   6.233   8.562  0.4736  0.7855 -1.9154
 4201TIP3    H234239   1.503   6.091   8.614 -0.8636  1.9379  1.6294
 4202TIP3   OH234240   5.770   3.291   7.914  0.2640 -0.7692 -0.4051
 4202TIP3    H134241   5.792   3.237   7.990  1.8051  1.4593  0.8403
 4202TIP3    H234242   5.850   3.292   7.862  1.7274  3.1472  1.5009
 4203TIP3   OH234243   0.797   3.520   0.728  0.6299  0.1251 -0.0625
 4203TIP3    H134244   0.879   3.486   0.693  1.2234  0.4712  0.9548
 4203TIP3    H234245   0.768   3.455   0.791  0.3894  0.2511 -0.0404
 4204TIP3   OH234246   5.981   6.083   7.128 -0.6303  0.3868 -0.1964
 4204TIP3    H134247   6.015   5.995   7.109  2.1630  1.4185 -0.5155
 4204TIP3    H234248   5.992   6.131   7.046 -0.9980  1.3556  0.3059
 4205TIP3   OH234249   4.782   4.351   6.878  0.7597 -0.3912  0.4531
 4205TIP3    H134250   4.854   4.362   6.816  0.4072 -0.3630  0.0529
 4205TIP3    H234251   4.728   4.281   6.841  0.0186  0.2852  0.2324
 4206TIP3   OH234252   6.856   3.782   2.174  0.1653  0.2543 -0.0378
 4206TIP3    H134253   6.946   3.764   2.200 -0.4870  1.8275  4.0685
 4206TIP3    H234254   6.809   3.701   2.194  0.3520  0.0672 -0.3506
 4207TIP3   OH234255   1.744   4.411   1.399  0.2573 -0.2673  0.1630
 4207TIP3    H134256   1.687   4.473   1.445 -1.8450 -2.1265  0.2494
 4207TIP3    H234257   1.811   4.387   1.463 -0.0868  0.3813  0.7804
 4208TIP3   OH234258   4.198   0.886   6.669  0.4822 -0.0462  0.4633
 4208TIP3    H134259   4.156   0.972   6.677 -1.0920 -0.9513  3.1200
 4208TIP3    H234260   4.288   0.901   6.700  0.9402  1.0367 -1.2416
 4209TIP3   OH234261   1.005   4.996   1.090 -0.3476 -0.4178  0.1545
 4209TIP3    H134262   1.063   5.072   1.102  0.0849 -0.4850 -1.2973
 4209TIP3    H234263   1.060   4.930   1.048 -1.3803 -0.5938 -0.9923
 4210TIP3   OH234264   2.612   1.933   0.842  0.5274  1.0856 -0.3383
 4210TIP3    H134265   2.688   1.981   0.876  0.2915  2.0180 -1.1068
 4210TIP3    H234266   2.598   1.968   0.755  0.0139 -0.0240 -0.7207
 4211TIP3   OH234267   0.908   1.293   0.936  0.2702 -0.4825  0.4399
 4211TIP3    H134268   0.916   1.253   1.022  1.8994 -1.0712  0.0455
 4211TIP3    H234269   0.834   1.247   0.895  1.0780 -1.9768  0.6083
 4212TIP3   OH234270   1.911   2.770   8.460  1.0461  0.5494 -0.1055
 4212TIP3    H134271   1.884   2.754   8.550  0.0327  2.2502 -0.0583
 4212TIP3    H234272   1.952   2.688   8.432 -0.5738 -0.7679  1.1826
 4213TIP3   OH234273   2.097   5.271   1.281  0.4059 -0.0085 -0.0334
 4213TIP3    H134274   2.123   5.361   1.263 -0.7985  0.6761  1.3532
 4213TIP3    H234275   2.152   5.244   1.354 -1.5732  0.9378  1.9445
 4214TIP3   OH234276   3.993   1.568   8.035  0.3864  0.5683 -0.0025
 4214TIP3    H134277   4.025   1.563   7.945  2.4176 -0.2142  0.6996
 4214TIP3    H234278   3.978   1.477   8.061  0.3319  0.7447  0.6118
 4215TIP3   OH234279   3.596   5.980   0.167  0.4820  0.0094 -0.0683
 4215TIP3    H134280   3.621   5.891   0.145  4.5125  0.6055  1.2573
 4215TIP3    H234281   3.646   6.035   0.105  0.5353  1.3526  1.1068
 4216TIP3   OH234282   0.410   1.406   8.541  0.6043 -0.8408 -0.0555
 4216TIP3    H134283   0.500   1.440   8.547  0.0516  0.8074 -0.4331
 4216TIP3    H234284   0.413   1.341   8.471  1.5104 -0.8483 -0.0222
 4217TIP3   OH234285   2.514   4.375   0.449 -0.5810 -0.0322  0.3578
 4217TIP3    H134286   2.489   4.291   0.411  1.7664 -0.2281 -0.9460
 4217TIP3    H234287   2.562   4.352   0.528  3.3175 -0.3292 -1.8310
 4218TIP3   OH234288   3.551   5.477   1.356  0.1054 -0.1039 -0.0441
 4218TIP3    H134289   3.555   5.523   1.440  1.9071  0.3974 -0.3460
 4218TIP3    H234290   3.481   5.521   1.307 -1.5905 -0.9997  1.4888
 4219TIP3   OH234291   2.896   5.574   6.639  0.4034 -0.5687  0.0165
 4219TIP3    H134292   2.887   5.578   6.543  0.8182 -1.3467 -0.0637
 4219TIP3    H234293   2.965   5.637   6.659  1.0050 -1.1084 -0.3091
 4220TIP3   OH234294   6.736   2.898   6.466 -0.0718  0.1632  0.4162
 4220TIP3    H134295   6.740   2.978   6.518  2.3127  0.7774 -0.6031
 4220TIP3    H234296   6.797   2.912   6.394 -1.6751 -1.4901 -1.4125
 4221TIP3   OH234297   0.966   4.071   7.744  0.6522 -0.3442 -0.5913
 4221TIP3    H134298   1.061   4.062   7.744  0.6541 -0.8496 -2.7431
 4221TIP3    H234299   0.933   3.984   7.766  0.6423  0.0691  1.1857
 4222TIP3   OH234300   1.631   3.793   8.596 -0.5377 -0.3478  0.1950
 4222TIP3    H134301   1.591   3.852   8.531 -0.8406 -0.9120 -0.1372
 4222TIP3    H234302   1.723   3.787   8.570  0.3818  2.6564  2.1886
 4223TIP3   OH234303   4.598   1.953   6.458 -0.3227 -0.7608  0.2046
 4223TIP3    H134304   4.606   2.048   6.459 -0.8889 -0.7058  1.0950
 4223TIP3    H234305   4.650   1.925   6.383 -0.4674  0.2743 -0.3045
 4224TIP3   OH234306   3.475   6.352   2.302 -0.5604 -0.4386 -0.7047
 4224TIP3    H134307   3.421   6.282   2.338 -0.1245 -0.4721 -0.1005
 4224TIP3    H234308   3.425   6.384   2.227  0.3891 -3.1037 -2.6298
 4225TIP3   OH234309   6.707   0.397   1.629 -0.4699  0.1282  0.5858
 4225TIP3    H134310   6.663   0.473   1.591 -1.7612  0.5975  2.8195
 4225TIP3    H234311   6.775   0.374   1.565 -1.1185  2.1142 -0.9331
 4226TIP3   OH234312   3.914   4.850   1.992 -0.2104  0.0800  0.3701
 4226TIP3    H134313   3.821   4.832   1.980 -0.1929  0.7959 -1.0204
 4226TIP3    H234314   3.947   4.774   2.039 -1.1567 -0.9884 -0.6269
 4227TIP3   OH234315   2.310   6.714   7.634 -0.1228 -0.0153  0.0837
 4227TIP3    H134316   2.338   6.673   7.552 -0.3294  0.9952 -0.5033
 4227TIP3    H234317   2.317   6.808   7.618  2.8689  0.2622  2.2619
 4228TIP3   OH234318   3.540   6.071   6.953  0.3145 -0.3641 -0.6423
 4228TIP3    H134319   3.623   6.026   6.971  1.1762  2.0282  2.1077
 4228TIP3    H234320   3.565   6.142   6.893  0.1709  0.0161 -0.2577
 4229TIP3   OH234321   4.105   3.589   0.272 -0.2790  0.4330 -0.0237
 4229TIP3    H134322   4.045   3.648   0.226  0.1078  1.5147  0.8345
 4229TIP3    H234323   4.187   3.638   0.279 -0.5586  0.6330  2.5250
 4230TIP3   OH234324   3.441   4.927   1.886 -0.0226 -0.1106  0.1564
 4230TIP3    H134325   3.474   5.017   1.879  0.2562 -0.3031 -4.1584
 4230TIP3    H234326   3.350   4.937   1.914 -0.3503  1.7112 -1.3322
 4231TIP3   OH234327   5.093   3.707   0.090  0.0508  0.0738  0.4196
 4231TIP3    H134328   5.125   3.724   0.178 -1.6136 -0.0311  1.0716
 4231TIP3    H234329   5.172   3.710   0.035  1.0069  0.9274  1.7766
 4232TIP3   OH234330   2.706   1.841   8.435  0.0624 -0.0288  0.1708
 4232TIP3    H134331   2.651   1.878   8.366  1.1444  1.1921 -0.0677
 4232TIP3    H234332   2.716   1.749   8.410 -2.5204 -0.5379  0.6756
 4233TIP3   OH234333   0.540   2.274   1.025 -0.0714  0.0953  0.2567
 4233TIP3    H134334   0.585   2.244   0.946 -1.9330 -2.4722  0.0202
 4233TIP3    H234335   0.456   2.307   0.994  0.4998  2.3691  0.9267
 4234TIP3   OH234336   6.810   6.065   8.321  0.1957 -0.1439 -0.3106
 4234TIP3    H134337   6.900   6.033   8.334  0.1612  0.1008  0.5600
 4234TIP3    H234338   6.755   5.988   8.334  0.2878 -0.4025 -1.3089
 4235TIP3   OH234339   0.828   2.146   6.568  0.0877  0.6310 -0.1721
 4235TIP3    H134340   0.806   2.228   6.524  0.4782  0.2360 -1.1248
 4235TIP3    H234341   0.914   2.163   6.608 -1.0284  1.5717  2.0021
 4236TIP3   OH234342   6.592   1.944   7.734 -0.3051  0.4660  0.5027
 4236TIP3    H134343   6.590   2.033   7.699 -0.3465  0.0756 -0.5101
 4236TIP3    H234344   6.531   1.895   7.679  0.8962 -0.5570  0.0339
 4237TIP3   OH234345   0.436   4.291   5.958 -0.2902 -0.1557  0.1481
 4237TIP3    H134346   0.521   4.305   6.000  0.5612 -1.7569 -0.9406
 4237TIP3    H234347   0.382   4.251   6.025 -0.3734  1.3126  0.9999
 4238TIP3   OH234348   5.342   1.675   2.516 -0.1719 -0.0968  0.0173
 4238TIP3    H134349   5.277   1.719   2.461  0.9075 -0.4914 -1.6403
 4238TIP3    H234350   5.421   1.728   2.507 -0.0520  0.0133  1.4899
 4239TIP3   OH234351   3.511   6.002   7.676 -0.1345  0.1054  0.2126
 4239TIP3    H134352   3.469   6.074   7.722  0.5178  0.8300 -0.3095
 4239TIP3    H234353   3.535   6.038   7.590 -0.7362 -1.0296 -0.4620
 4240TIP3   OH234354   5.163   6.654   8.003 -0.0644  0.2733 -0.1711
 4240TIP3    H134355   5.137   6.703   7.925 -1.9121 -1.3181 -0.6273
 4240TIP3    H234356   5.162   6.562   7.976 -2.2032 -0.4640  2.0239
 4241TIP3   OH234357   2.396   2.231   0.840 -0.4209  0.1005  0.0777
 4241TIP3    H134358   2.474   2.204   0.792 -0.7878  1.8196 -1.5811
 4241TIP3    H234359   2.403   2.327   0.846 -1.2449  0.0849  1.9858
 4242TIP3   OH234360   5.026   6.888   6.962 -0.4568 -0.6960 -0.1600
 4242TIP3    H134361   4.939   6.918   6.936 -0.8153 -0.3655  1.3292
 4242TIP3    H234362   5.086   6.951   6.924 -1.0330  0.4107  0.7247
 4243TIP3   OH234363   6.289   3.487   0.503 -0.8898  0.1073  0.0577
 4243TIP3    H134364   6.342   3.553   0.548  1.3008 -0.1886 -1.8986
 4243TIP3    H234365   6.236   3.448   0.573  1.0284  0.8617  2.0775
 4244TIP3   OH234366   1.177   5.097   0.762 -0.3356  0.1432  0.6328
 4244TIP3    H134367   1.166   5.183   0.721 -0.8400 -0.3108 -0.2137
 4244TIP3    H234368   1.126   5.038   0.707 -0.4460 -0.6115  1.5212
 4245TIP3   OH234369   0.822   1.491   1.378  0.5456 -0.3397  0.2377
 4245TIP3    H134370   0.882   1.563   1.398  1.1198  0.9781 -4.7198
 4245TIP3    H234371   0.735   1.530   1.381  0.5214 -0.4415  0.9893
 4246TIP3   OH234372   3.257   1.501   8.524 -0.4070 -0.3594  0.1957
 4246TIP3    H134373   3.170   1.461   8.531 -0.1419 -0.7953  1.2697
 4246TIP3    H234374   3.267   1.551   8.605  0.9936 -1.6862  0.8913
 4247TIP3   OH234375   2.307   5.919   6.888 -0.8856 -0.1423 -0.2596
 4247TIP3    H134376   2.386   5.968   6.864 -2.5318  1.3681 -3.1721
 4247TIP3    H234377   2.325   5.830   6.859 -0.0772  0.0680 -0.4557
 4248TIP3   OH234378   1.667   2.770   0.745  0.3836 -0.0872 -0.5113
 4248TIP3    H134379   1.604   2.736   0.681 -0.8912  1.4076 -0.1007
 4248TIP3    H234380   1.634   2.740   0.829  1.6893 -1.4732 -0.4510
 4249TIP3   OH234381   5.668   4.771   8.128 -0.4348 -0.0356 -0.2438
 4249TIP3    H134382   5.707   4.781   8.042 -1.6995 -1.9535 -1.1219
 4249TIP3    H234383   5.690   4.851   8.175 -0.1646  1.2982 -2.5228
 4250TIP3   OH234384   3.591   1.506   1.236 -0.4120 -0.2493 -0.3756
 4250TIP3    H134385   3.588   1.439   1.304 -0.3041 -0.1265 -0.2468
 4250TIP3    H234386   3.616   1.586   1.283 -2.6875  0.3853 -0.1151
 4251TIP3   OH234387   5.833   3.156   8.418 -0.4257 -0.2319  0.6192
 4251TIP3    H134388   5.831   3.229   8.480 -2.4221 -0.8633  1.3771
 4251TIP3    H234389   5.803   3.081   8.468  0.9653 -1.4610 -0.3245
 4252TIP3   OH234390   0.324   3.737   6.942 -0.2472  0.1512 -0.4025
 4252TIP3    H134391   0.417   3.716   6.938 -0.1263  0.8837 -2.2032
 4252TIP3    H234392   0.320   3.832   6.940 -1.0398  0.1263 -0.3616
 4253TIP3   OH234393   5.900   5.981   7.387 -0.5294  0.2107  0.2454
 4253TIP3    H134394   5.991   5.982   7.355 -0.4951 -0.6007  0.3007
 4253TIP3    H234395   5.861   6.060   7.349 -0.2620 -0.2888 -1.1472
 4254TIP3   OH234396   3.528   3.110   7.930 -0.1265  0.0211 -0.1892
 4254TIP3    H134397   3.557   3.034   7.878 -0.2380  0.2786 -0.6389
 4254TIP3    H234398   3.560   3.093   8.018  0.3776 -0.2564 -0.4235
 4255TIP3   OH234399   4.300   3.651   1.119 -0.2146  0.1502 -0.0544
 4255TIP3    H134400   4.268   3.738   1.141 -0.1909  0.4213 -1.0274
 4255TIP3    H234401   4.337   3.660   1.031  1.7291 -0.3362  0.6375
 4256TIP3   OH234402   1.506   6.023   1.905 -0.0735  0.1730 -0.0074
 4256TIP3    H134403   1.559   5.943   1.911  2.3013  1.6847  0.3994
 4256TIP3    H234404   1.456   6.013   1.825 -0.3781 -2.0205  0.3955
 4257TIP3   OH234405   2.423   4.540   0.057 -0.4425 -0.3280  0.6002
 4257TIP3    H134406   2.403   4.463   0.109 -3.5272  0.1680  0.3284
 4257TIP3    H234407   2.365   4.608   0.091 -0.1526  0.9387 -1.2933
 4258TIP3   OH234408   0.218   5.487   1.272 -0.3358 -0.0181  0.2526
 4258TIP3    H134409   0.259   5.534   1.345  3.0900 -2.4125  0.0851
 4258TIP3    H234410   0.233   5.544   1.196  0.9549  0.0303  0.5350
 4259TIP3   OH234411   1.086   6.137   0.968  0.1530 -0.3303 -0.0419
 4259TIP3    H134412   1.084   6.220   1.014  1.0510  0.5974 -1.5873
 4259TIP3    H234413   1.007   6.091   0.997 -0.1634  0.8859  1.1066
 4260TIP3   OH234414   6.319   1.270   1.337  0.0045  0.2405  0.0411
 4260TIP3    H134415   6.228   1.242   1.326 -0.6169  1.9410  0.4280
 4260TIP3    H234416   6.334   1.264   1.431  1.2397 -2.6264 -0.2681
 4261TIP3   OH234417   0.636   6.861   7.982  0.0764 -0.3255 -0.4319
 4261TIP3    H134418   0.630   6.908   8.066 -0.9471  0.5008 -0.9406
 4261TIP3    H234419   0.576   6.787   7.993 -0.4193  0.0460 -0.5855
 4262TIP3   OH234420   5.468   3.764   7.889  0.8056  0.0755  0.4606
 4262TIP3    H134421   5.455   3.670   7.897  2.1678 -0.2380 -0.5938
 4262TIP3    H234422   5.401   3.803   7.945  1.3452 -1.5391  2.3149
 4263TIP3   OH234423   2.222   2.873   6.979 -0.3306  0.0620 -0.1127
 4263TIP3    H134424   2.142   2.909   7.019 -0.3241  0.6583 -0.6199
 4263TIP3    H234425   2.193   2.792   6.937 -0.6909  0.3099 -0.3536
 4264TIP3   OH234426   2.421   2.374   1.245 -0.0466 -0.0262  0.0922
 4264TIP3    H134427   2.462   2.452   1.207 -1.9949  0.8032 -0.4459
 4264TIP3    H234428   2.472   2.356   1.324  2.8461 -0.5590 -1.7384
 4265TIP3   OH234429   0.555   5.140   5.925 -0.1793  0.1406 -0.2847
 4265TIP3    H134430   0.606   5.211   5.886  0.5011 -0.4053 -0.4086
 4265TIP3    H234431   0.620   5.078   5.957 -0.7436 -1.1513 -1.5095
 4266TIP3   OH234432   1.299   5.236   1.299 -0.3450  0.5289 -0.2061
 4266TIP3    H134433   1.251   5.164   1.341 -1.2851  0.4557 -1.3737
 4266TIP3    H234434   1.245   5.261   1.224  0.9480  1.1420 -0.9665
 4267TIP3   OH234435   1.231   3.691   2.160  0.2249  0.6428 -0.6677
 4267TIP3    H134436   1.256   3.717   2.249  0.8236 -0.6422 -0.4341
 4267TIP3    H234437   1.135   3.685   2.163  0.3376 -1.9685  0.7066
 4268TIP3   OH234438   0.579   2.366   0.527  0.1781  0.4443  0.4425
 4268TIP3    H134439   0.506   2.413   0.487  0.6060  0.4742 -0.3254
 4268TIP3    H234440   0.656   2.393   0.476  0.6626  0.0903  0.9661
 4269TIP3   OH234441   0.047   1.477   1.315 -0.0649  0.1457 -0.9846
 4269TIP3    H134442  -0.017   1.543   1.341 -1.6977 -1.2443 -1.2931
 4269TIP3    H234443   0.093   1.517   1.241 -0.1745  1.4030 -0.3931
 4270TIP3   OH234444   5.203   1.811   7.546 -0.7389  0.7468  0.6014
 4270TIP3    H134445   5.219   1.746   7.477 -1.5068  1.5788 -0.3946
 4270TIP3    H234446   5.280   1.805   7.602 -0.6943 -0.8855  0.4306
 4271TIP3   OH234447   6.023   3.798   0.812  0.6369 -0.5322 -0.3050
 4271TIP3    H134448   6.082   3.736   0.854  0.5870 -1.1071 -1.0654
 4271TIP3    H234449   6.078   3.873   0.790  0.7333 -0.3701  0.4707
 4272TIP3   OH234450   6.348   6.372   6.571  0.6199  0.0056 -0.0621
 4272TIP3    H134451   6.332   6.464   6.593 -0.4477  0.0648 -0.9754
 4272TIP3    H234452   6.370   6.331   6.654  0.3346  0.9337  0.4902
 4273TIP3   OH234453   2.410   6.377   6.937 -0.1890  0.3304 -0.1332
 4273TIP3    H134454   2.418   6.465   6.902  0.2645 -0.1345 -1.2703
 4273TIP3    H234455   2.498   6.340   6.928  0.1882  0.4249  2.2863
 4274TIP3   OH234456   3.611   2.586   8.469 -0.1499  0.3648  0.1341
 4274TIP3    H134457   3.618   2.514   8.406  2.9625  1.4687 -0.9865
 4274TIP3    H234458   3.519   2.613   8.466 -0.6587 -1.4087 -1.8838
 4275TIP3   OH234459   4.860   2.399   6.875 -0.1879 -0.2831 -0.0028
 4275TIP3    H134460   4.884   2.389   6.783  0.8357  1.4951  0.0178
 4275TIP3    H234461   4.930   2.353   6.923  0.0073 -0.0581 -0.0741
 4276TIP3   OH234462   3.378   2.954   1.471 -0.0980  0.2558  0.1919
 4276TIP3    H134463   3.374   3.012   1.547  1.6581 -0.5521  0.9510
 4276TIP3    H234464   3.462   2.973   1.430 -0.5169 -0.1393 -0.9009
 4277TIP3   OH234465   1.548   4.064   8.059  0.6402 -0.0997 -0.5649
 4277TIP3    H134466   1.631   4.027   8.090  1.6780  0.9147 -2.0622
 4277TIP3    H234467   1.547   4.046   7.965 -1.0593 -0.4757 -0.5037
 4278TIP3   OH234468   2.437   2.135   7.802 -0.0822  0.1118  0.5019
 4278TIP3    H134469   2.348   2.150   7.833 -0.2487  0.9832 -0.3482
 4278TIP3    H234470   2.445   2.191   7.724  0.6474 -1.2081 -0.4203
 4279TIP3   OH234471   6.126   2.155   1.164  0.3463 -0.5014  0.4088
 4279TIP3    H134472   6.101   2.070   1.127 -1.7817 -0.5159  1.7050
 4279TIP3    H234473   6.187   2.133   1.235  2.5513 -0.6328 -1.4206
 4280TIP3   OH234474   2.416   1.338   0.088  0.1657 -0.2996  0.3670
 4280TIP3    H134475   2.505   1.331   0.051 -0.2562  0.0242 -0.7732
 4280TIP3    H234476   2.415   1.424   0.130  0.1177  0.1118 -0.4461
 4281TIP3   OH234477   1.013   2.785   7.304 -0.3079  0.2937 -0.6922
 4281TIP3    H134478   0.940   2.843   7.283 -0.7991 -0.1617 -0.2492
 4281TIP3    H234479   0.978   2.723   7.367 -0.0374 -1.0723 -1.8510
 4282TIP3   OH234480   4.747   4.822   8.541 -0.5569  0.1424  0.1432
 4282TIP3    H134481   4.715   4.902   8.583  0.2327  1.3737 -1.4674
 4282TIP3    H234482   4.841   4.822   8.560 -0.4299 -0.0075 -0.4663
 4283TIP3   OH234483   5.327   3.560   1.945  0.3671  0.3418  0.1943
 4283TIP3    H134484   5.406   3.553   1.891 -0.5107 -3.6297 -0.8931
 4283TIP3    H234485   5.353   3.520   2.029  0.0097  0.6955  0.4757
 4284TIP3   OH234486   1.723   1.197   2.359 -0.5003  0.1424  0.1996
 4284TIP3    H134487   1.753   1.175   2.448 -2.5232 -0.7903  0.7209
 4284TIP3    H234488   1.738   1.117   2.309 -0.4094  0.2907 -0.0075
 4285TIP3   OH234489   6.800   0.911   7.648 -0.2314 -0.1125 -0.2211
 4285TIP3    H134490   6.844   0.924   7.564  1.7618  0.1060  0.7700
 4285TIP3    H234491   6.785   0.817   7.653 -1.1533 -0.0276 -1.1701
 4286TIP3   OH234492   0.855   4.018   6.439  0.2095 -0.4904  0.0030
 4286TIP3    H134493   0.825   4.084   6.376 -0.2896 -0.5869  0.1334
 4286TIP3    H234494   0.837   3.935   6.396 -2.5296 -0.6514  1.2649
 4287TIP3   OH234495   0.934   3.594   1.499  0.5554 -0.1709  0.2532
 4287TIP3    H134496   0.868   3.660   1.479 -0.0019 -0.5790  0.6978
 4287TIP3    H234497   1.008   3.643   1.534  0.7960  0.3694 -0.9613
 4288TIP3   OH234498   4.877   1.909   2.226  0.0495  0.0046 -0.2341
 4288TIP3    H134499   4.947   1.964   2.261  0.2591 -0.4233  0.0269
 4288TIP3    H234500   4.922   1.838   2.181 -0.2116  0.7147 -1.6873
 4289TIP3   OH234501   0.223   3.875   8.064  0.1662  0.0719  0.1171
 4289TIP3    H134502   0.137   3.857   8.103  0.6072  1.9192  2.1126
 4289TIP3    H234503   0.243   3.796   8.013 -1.9739 -1.0678  0.9147
 4290TIP3   OH234504   5.266   4.776   7.708  0.4859 -0.0224  0.5166
 4290TIP3    H134505   5.241   4.849   7.765  0.9353  1.5110 -1.1595
 4290TIP3    H234506   5.355   4.796   7.681  1.2256 -2.0624  1.2704
 4291TIP3   OH234507   4.181   4.477   2.030  0.0594  0.1116 -0.3003
 4291TIP3    H134508   4.087   4.496   2.030 -0.1883 -1.0277 -0.3764
 4291TIP3    H234509   4.218   4.542   2.089 -1.0591 -0.6017  1.2794
 4292TIP3   OH234510   0.287   4.775   6.272 -0.1552  0.5875  0.1458
 4292TIP3    H134511   0.368   4.724   6.274 -1.7440 -2.1174  0.6591
 4292TIP3    H234512   0.300   4.839   6.203  1.7375 -0.9826 -1.0359
 4293TIP3   OH234513   3.924   1.934   0.815  0.3548  0.2931  0.0597
 4293TIP3    H134514   3.885   1.861   0.767 -0.1805 -0.0934  1.0583
 4293TIP3    H234515   3.990   1.893   0.871 -0.7381  0.4068  1.4747
 4294TIP3   OH234516   2.867   1.669   7.334  0.1260  0.2671  0.0660
 4294TIP3    H134517   2.842   1.577   7.341 -0.1057  0.1577 -1.7107
 4294TIP3    H234518   2.817   1.702   7.259  0.7567  1.6517  0.2243
 4295TIP3   OH234519   5.561   2.722   8.080 -0.0249 -0.2219  0.0759
 4295TIP3    H134520   5.631   2.786   8.097  0.1988 -0.6257  0.6879
 4295TIP3    H234521   5.526   2.701   8.166 -0.6176 -0.3478 -0.1935
 4296TIP3   OH234522   3.654   5.667   2.290  0.1495 -0.2665  0.1206
 4296TIP3    H134523   3.669   5.649   2.382 -0.3111  0.2654  0.3024
 4296TIP3    H234524   3.563   5.643   2.275  0.1928 -0.2542 -0.1689
 4297TIP3   OH234525   4.308   5.170   0.365  0.8045 -0.0899  0.0824
 4297TIP3    H134526   4.236   5.151   0.425 -0.3922  1.2211 -0.8664
 4297TIP3    H234527   4.329   5.086   0.325  1.9850 -1.1152  2.6383
 4298TIP3   OH234528   3.079   4.765   0.929  0.0707 -0.0115  0.2012
 4298TIP3    H134529   3.155   4.707   0.928  0.6826  0.7614  0.6247
 4298TIP3    H234530   3.010   4.713   0.969  0.0649 -1.0914 -1.1588
 4299TIP3   OH234531   2.654   3.356   1.690 -0.1224 -0.2536  0.1166
 4299TIP3    H134532   2.632   3.426   1.752  0.6777 -0.8777  1.1555
 4299TIP3    H234533   2.733   3.386   1.646  0.6138 -0.7509  1.0465
 4300TIP3   OH234534   0.232   6.663   6.349  0.2753 -0.0368 -0.2063
 4300TIP3    H134535   0.222   6.726   6.277  0.2345  0.7437  0.4666
 4300TIP3    H234536   0.293   6.705   6.410  2.3238 -1.7632 -0.9448
 4301TIP3   OH234537   2.390   0.240   1.103  0.0962 -0.1475  0.2034
 4301TIP3    H134538   2.340   0.176   1.154  1.4616 -1.2644  0.1941
 4301TIP3    H234539   2.356   0.231   1.014  0.6003 -1.2550  0.0968
 4302TIP3   OH234540   4.194   0.810   7.292 -0.7711 -1.2442 -0.6132
 4302TIP3    H134541   4.165   0.778   7.206 -1.1452  1.1764 -1.4740
 4302TIP3    H234542   4.251   0.885   7.272 -0.0146 -1.2674  1.2440
 4303TIP3   OH234543   4.695   0.861   0.930  0.2512  0.8153 -0.0806
 4303TIP3    H134544   4.778   0.828   0.965  0.7196  1.2391 -0.7455
 4303TIP3    H234545   4.666   0.926   0.993 -0.0889 -0.0452  0.6577
 4304TIP3   OH234546   2.447   2.634   1.095  0.1073 -0.2752 -0.0759
 4304TIP3    H134547   2.539   2.617   1.113  0.1264 -1.6399 -1.2629
 4304TIP3    H234548   2.432   2.722   1.127  2.3111  0.7393 -1.5972
 4305TIP3   OH234549   0.224   2.106   1.873  0.2609 -0.2896 -0.2348
 4305TIP3    H134550   0.196   2.189   1.911  0.0691 -0.9909  1.2460
 4305TIP3    H234551   0.252   2.053   1.948 -0.3297 -1.8271 -1.0387
 4306TIP3   OH234552   6.761   2.017   7.352 -0.0718  0.2922  0.1153
 4306TIP3    H134553   6.696   1.951   7.378  0.5757 -0.0931  0.7943
 4306TIP3    H234554   6.821   1.970   7.295  0.5428  0.2104  0.8124
 4307TIP3   OH234555   3.806   5.484   0.027  0.1614 -0.0203  0.3809
 4307TIP3    H134556   3.851   5.568   0.024 -0.0905  0.0882 -1.0323
 4307TIP3    H234557   3.764   5.476  -0.058 -0.3868 -1.2761  0.7422
 4308TIP3   OH234558   2.895   1.979   8.642  0.7930 -0.4475 -0.4545
 4308TIP3    H134559   2.845   1.928   8.579 -2.2163  1.0643  0.5164
 4308TIP3    H234560   2.902   1.923   8.719 -2.9403  0.5102  0.7962
 4309TIP3   OH234561   1.175   6.063   0.317  0.1937 -0.3050 -0.1644
 4309TIP3    H134562   1.088   6.047   0.280 -0.4772 -0.2308  1.2985
 4309TIP3    H234563   1.173   6.020   0.402  1.1408  0.7789  0.4388
 4310TIP3   OH234564   1.386   3.813   0.584  0.0917 -0.6736  0.3118
 4310TIP3    H134565   1.427   3.728   0.568  1.0595 -0.4222  1.2998
 4310TIP3    H234566   1.303   3.791   0.627  1.0499 -1.1091  2.0230
 4311TIP3   OH234567   1.549   0.850   1.774 -0.0038  0.0002 -0.0831
 4311TIP3    H134568   1.610   0.877   1.842  0.8631  0.2594 -0.9355
 4311TIP3    H234569   1.508   0.771   1.809 -2.0463  1.8997  2.1450
 4312TIP3   OH234570   6.681   6.472   0.373  0.0702 -0.3578 -0.0975
 4312TIP3    H134571   6.602   6.447   0.325 -0.1204 -0.6442  0.3615
 4312TIP3    H234572   6.681   6.416   0.451 -0.1294  0.7411  0.7250
 4313TIP3   OH234573   1.616   0.788   7.888  0.5615 -0.8937  0.4559
 4313TIP3    H134574   1.578   0.814   7.804  0.9448 -1.7870 -0.0068
 4313TIP3    H234575   1.701   0.833   7.891 -0.4430  1.0597  1.4665
 4314TIP3   OH234576   2.071   3.925   8.450 -0.2359 -0.9833  0.1452
 4314TIP3    H134577   2.048   3.965   8.534  0.3161 -1.0515  0.3308
 4314TIP3    H234578   2.124   3.848   8.473  2.2705  0.4956 -0.3169
 4315TIP3   OH234579   3.055   2.243   6.448  0.0047  0.1581 -0.1097
 4315TIP3    H134580   3.071   2.238   6.354  0.7933  1.6259 -0.0958
 4315TIP3    H234581   3.078   2.157   6.482  3.6259  0.7015 -0.7723
 4316TIP3   OH234582   0.917   0.611   8.032  0.0107  0.1988  0.6865
 4316TIP3    H134583   0.988   0.633   7.972  2.9051  0.4030  3.8516
 4316TIP3    H234584   0.925   0.516   8.044  2.0407  0.5592  3.3570
 4317TIP3   OH234585   6.078   0.145   1.492 -0.0636  0.1791 -0.4883
 4317TIP3    H134586   6.155   0.089   1.481  0.9270  0.5406  3.1831
 4317TIP3    H234587   6.010   0.086   1.523 -0.3914  0.3307 -0.9076
 4318TIP3   OH234588   5.981   0.226   0.080  0.2225  0.2348 -0.1081
 4318TIP3    H134589   6.059   0.200   0.030 -1.4568 -1.3154 -2.1004
 4318TIP3    H234590   5.911   0.173   0.044 -2.0216  2.3476  0.8729
 4319TIP3   OH234591   0.601   3.454   1.855 -0.0302  0.2420  0.4667
 4319TIP3    H134592   0.548   3.505   1.916 -0.1839 -1.5656  1.9454
 4319TIP3    H234593   0.688   3.450   1.896  0.0068 -0.5529  0.3369
 4320TIP3   OH234594   4.393   6.821   2.010  0.5170  0.9083 -0.4511
 4320TIP3    H134595   4.445   6.766   2.069 -1.8187 -0.0667  0.8168
 4320TIP3    H234596   4.358   6.761   1.945 -1.4410  0.9599  0.4980
 4321TIP3   OH234597   6.226   3.078   2.669 -0.1031 -0.0784  0.0487
 4321TIP3    H134598   6.251   2.995   2.628 -0.9460 -0.7767  0.9026
 4321TIP3    H234599   6.298   3.097   2.729 -0.2450 -0.5944  0.3959
 4322TIP3   OH234600   3.850   0.538   7.172 -0.4151  0.1021 -0.1030
 4322TIP3    H134601   3.936   0.498   7.155  0.4976  2.0557 -0.4102
 4322TIP3    H234602   3.852   0.558   7.265  0.5091  2.2893 -0.5284
 4323TIP3   OH234603   5.006   6.504   1.549  0.0418 -0.0762 -0.0208
 4323TIP3    H134604   4.998   6.518   1.643  0.4911  0.6941 -0.0906
 4323TIP3    H234605   5.063   6.427   1.541 -1.4359 -1.2430  0.3503
 4324TIP3   OH234606   3.563   2.815   7.885  0.2156 -0.6012  0.1389
 4324TIP3    H134607   3.487   2.763   7.858  0.2834 -0.6714  0.0822
 4324TIP3    H234608   3.605   2.841   7.802  0.2196 -0.5118  0.1682
 4325TIP3   OH234609   4.651   5.021   0.060  0.2021  0.0997 -0.1958
 4325TIP3    H134610   4.653   5.107   0.017  0.8212 -0.7604 -1.9511
 4325TIP3    H234611   4.657   5.042   0.154  1.4042  1.9353 -0.6208
 4326TIP3   OH234612   6.814   1.933   1.687  0.4704  0.2065  0.1242
 4326TIP3    H134613   6.771   1.861   1.733  0.3044  0.7744  0.8934
 4326TIP3    H234614   6.787   1.923   1.596  1.2632 -1.2763  0.0288
 4327TIP3   OH234615   1.689   1.748   7.452 -0.0110 -0.1719 -0.4139
 4327TIP3    H134616   1.621   1.773   7.389  0.5752  0.0398 -0.9678
 4327TIP3    H234617   1.772   1.763   7.406  0.4831  1.1819  0.8238
 4328TIP3   OH234618   5.055   4.199   6.551  0.1354  0.2591  0.2895
 4328TIP3    H134619   5.133   4.232   6.595  0.4444  0.1874 -0.1889
 4328TIP3    H234620   5.071   4.105   6.542  0.4348  0.3880 -0.6599
 4329TIP3   OH234621   2.850   0.655   7.730  0.7391  0.4391  0.1698
 4329TIP3    H134622   2.771   0.638   7.679 -0.8276  0.3922  2.4775
 4329TIP3    H234623   2.893   0.570   7.736  1.1145  0.4955 -1.2317
 4330TIP3   OH234624   2.416   5.785   8.442 -0.0409 -0.4167 -0.4708
 4330TIP3    H134625   2.408   5.730   8.364 -1.3129 -1.9253  0.6535
 4330TIP3    H234626   2.350   5.853   8.430 -0.0286 -0.4657 -0.8329
 4331TIP3   OH234627   2.596   0.348   1.367  0.3045  0.0664 -0.3561
 4331TIP3    H134628   2.669   0.391   1.412 -0.8611  1.4923  0.2400
 4331TIP3    H234629   2.581   0.403   1.289 -1.4762  1.0718  0.6323
 4332TIP3   OH234630   5.056   6.799   0.536  0.4785  0.2281 -0.1565
 4332TIP3    H134631   5.127   6.841   0.583  0.2373  0.1536  0.2803
 4332TIP3    H234632   5.025   6.730   0.596  1.7976 -1.5359 -1.4080
 4333TIP3   OH234633   6.503   5.425   0.599  0.0099 -0.1061 -0.1601
 4333TIP3    H134634   6.418   5.386   0.582  0.8035 -1.7836 -0.4828
 4333TIP3    H234635   6.566   5.357   0.576  1.4107  0.6474  1.2300
 4334TIP3   OH234636   4.346   6.341   1.415 -0.3798  0.5986 -0.1689
 4334TIP3    H134637   4.410   6.329   1.484  1.1593  0.6834 -1.5199
 4334TIP3    H234638   4.352   6.434   1.392  0.1606  0.2856 -1.3558
 4335TIP3   OH234639   5.741   1.658   1.771 -0.5977 -0.5524  0.1096
 4335TIP3    H134640   5.774   1.570   1.753 -1.3046 -0.7814 -0.1067
 4335TIP3    H234641   5.717   1.656   1.863  0.4618 -0.2229  0.4061
 4336TIP3   OH234642   2.318   2.628   1.417 -0.2921 -0.2991 -0.1175
 4336TIP3    H134643   2.249   2.664   1.361 -1.5461  1.1929  2.1801
 4336TIP3    H234644   2.278   2.552   1.458 -0.1619 -0.1296  0.3292
 4337TIP3   OH234645   1.006   6.105   7.933 -0.1756  0.1361 -0.1348
 4337TIP3    H134646   1.045   6.063   8.011  3.5718  3.2899 -0.0018
 4337TIP3    H234647   0.912   6.105   7.951  0.2143 -2.1395  2.8122
 4338TIP3   OH234648   1.474   5.887   2.186 -0.7007 -0.3360 -0.1994
 4338TIP3    H134649   1.501   5.827   2.118 -0.3040 -0.2340 -0.1324
 4338TIP3    H234650   1.384   5.861   2.207 -1.3805  0.5612 -1.8021
 4339TIP3   OH234651   1.345   3.309   2.668  0.0141 -0.1469 -0.0653
 4339TIP3    H134652   1.293   3.378   2.625 -1.9185  0.4822  2.9509
 4339TIP3    H234653   1.426   3.352   2.693 -0.2984  0.4474 -0.0552
 4340TIP3   OH234654   5.324   0.395   7.580  0.0214  0.1138 -0.1519
 4340TIP3    H134655   5.289   0.369   7.495  0.5045  1.6567 -0.8695
 4340TIP3    H234656   5.253   0.376   7.642  0.3105 -2.7321 -0.5601
 4341TIP3   OH234657   5.291   0.475   1.891  0.4125 -0.2945  0.3953
 4341TIP3    H134658   5.239   0.544   1.851  0.1329 -0.8451 -0.2032
 4341TIP3    H234659   5.227   0.409   1.919  0.6965 -0.4496  0.6873
 4342TIP3   OH234660   2.224   4.458   6.736 -0.3150  0.3075  0.3164
 4342TIP3    H134661   2.172   4.456   6.656 -0.7751 -1.3500  0.6339
 4342TIP3    H234662   2.312   4.484   6.706 -0.1597 -1.4655 -0.9394
 4343TIP3   OH234663   6.398   5.328   0.016  0.5759  0.0716 -0.0146
 4343TIP3    H134664   6.446   5.287   0.088  0.8294 -0.7363 -0.6301
 4343TIP3    H234665   6.404   5.265  -0.056 -0.8538  0.2377 -0.3123
 4344TIP3   OH234666   0.682   0.715   7.908 -0.5953 -0.4758 -0.2284
 4344TIP3    H134667   0.609   0.703   7.968  0.5642  2.5012  2.0593
 4344TIP3    H234668   0.760   0.704   7.963  0.6780 -1.7963 -2.1900
 4345TIP3   OH234669   2.488   4.885   0.403  0.8036  0.0521 -0.3628
 4345TIP3    H134670   2.516   4.799   0.435  1.0963 -0.4998 -2.0427
 4345TIP3    H234671   2.568   4.936   0.396  1.2193 -0.8069 -3.0031
 4346TIP3   OH234672   5.277   3.742   6.913  0.8971  0.5118 -0.4444
 4346TIP3    H134673   5.229   3.785   6.842  3.2815  0.4810 -2.1951
 4346TIP3    H234674   5.272   3.649   6.892  1.6905  0.5099 -0.6224
 4347TIP3   OH234675   1.815   1.958   7.259  0.0636 -0.0436  0.2555
 4347TIP3    H134676   1.865   2.029   7.299  1.0369  0.4490 -1.7018
 4347TIP3    H234677   1.742   2.001   7.214 -0.8271 -0.5487  1.1779
 4348TIP3   OH234678   0.684   0.193   0.929  0.5075  0.2567  0.4249
 4348TIP3    H134679   0.673   0.102   0.902  1.4961 -0.7074  2.9824
 4348TIP3    H234680   0.610   0.239   0.889 -0.7803 -1.9143  0.1649
 4349TIP3   OH234681   6.424   0.947   1.606  0.0277 -0.5380  0.2935
 4349TIP3    H134682   6.402   1.008   1.676  0.5511  0.0048 -0.0064
 4349TIP3    H234683   6.365   0.873   1.619  0.9905 -1.0639  2.1378
 4350TIP3   OH234684   0.457   1.469   1.800 -0.0141 -0.1232  0.1636
 4350TIP3    H134685   0.534   1.468   1.742  0.2290 -0.8582  0.4807
 4350TIP3    H234686   0.413   1.552   1.781  1.4185  0.7929  0.7164
 4351TIP3   OH234687   1.987   0.719   8.451  0.3245 -0.0894  0.2166
 4351TIP3    H134688   1.950   0.806   8.437  0.8396  0.3289  1.3826
 4351TIP3    H234689   1.947   0.665   8.382 -1.2379  0.6923  0.4724
 4352TIP3   OH234690   2.223   2.009   8.022  0.2905 -0.4621 -0.0964
 4352TIP3    H134691   2.130   2.027   8.010 -0.1518 -1.8950  0.8502
 4352TIP3    H234692   2.251   2.069   8.091 -0.1844 -0.7033  0.3100
 4353TIP3   OH234693   4.862   2.688   1.367  0.4076  0.4195  0.1190
 4353TIP3    H134694   4.856   2.704   1.461  0.4281  1.7882 -0.1044
 4353TIP3    H234695   4.909   2.604   1.361 -0.1465 -0.0109  1.3249
 4354TIP3   OH234696   2.626   4.035   0.081 -0.2617 -0.4058  0.0398
 4354TIP3    H134697   2.536   4.019   0.054 -0.9668 -0.5945  2.2710
 4354TIP3    H234698   2.641   3.974   0.153  2.1168 -1.2820 -1.0590
 4355TIP3   OH234699   4.795   5.144   7.842 -0.0729 -0.2003  0.2931
 4355TIP3    H134700   4.767   5.223   7.796 -0.1723 -0.5329 -0.2362
 4355TIP3    H234701   4.748   5.073   7.797 -2.4342 -0.3203  2.7254
 4356TIP3   OH234702   2.234   4.671   1.898 -0.2857 -0.4280 -0.3622
 4356TIP3    H134703   2.273   4.734   1.959 -1.6086 -0.2365  0.3239
 4356TIP3    H234704   2.308   4.620   1.866  0.5717  0.1837  0.5775
 4357TIP3   OH234705   3.662   3.339   2.229 -0.1430  0.1351  0.2771
 4357TIP3    H134706   3.741   3.311   2.275 -0.4245 -0.1358  0.5992
 4357TIP3    H234707   3.644   3.427   2.262 -0.0115  0.1740  0.2462
 4358TIP3   OH234708   2.432   5.138   7.555 -0.5927 -0.0824  0.1166
 4358TIP3    H134709   2.444   5.135   7.460  1.8749 -0.8800  0.3853
 4358TIP3    H234710   2.416   5.230   7.575 -0.9751  0.1133 -1.0536
 4359TIP3   OH234711   5.368   5.399   7.895 -0.0188  0.2473  0.1934
 4359TIP3    H134712   5.421   5.336   7.847  0.8264  1.0289  0.0696
 4359TIP3    H234713   5.319   5.346   7.958  0.1388 -0.5985 -0.3761
 4360TIP3   OH234714   3.605   0.957   2.252  0.4220 -0.4466  0.2939
 4360TIP3    H134715   3.517   0.948   2.216  0.4321  0.0956  0.1173
 4360TIP3    H234716   3.622   1.051   2.250  1.3947 -0.6165 -0.6084
 4361TIP3   OH234717   1.561   3.604   8.278  0.7013 -0.5273  0.0169
 4361TIP3    H134718   1.472   3.576   8.255  0.5781 -0.4963  0.4599
 4361TIP3    H234719   1.550   3.669   8.347  1.0371 -0.0492 -0.3712
 4362TIP3   OH234720   3.539   4.785   6.759 -0.5654 -0.4191  0.3320
 4362TIP3    H134721   3.626   4.749   6.775 -0.6695 -0.1681  1.5963
 4362TIP3    H234722   3.497   4.723   6.699  1.0269  0.2803 -1.6473
 4363TIP3   OH234723   2.308   4.192   7.376 -0.0797 -0.0623 -0.3393
 4363TIP3    H134724   2.367   4.179   7.450 -1.5082  0.2349  0.9006
 4363TIP3    H234725   2.323   4.282   7.349 -0.5473  0.2786  0.5147
 4364TIP3   OH234726   2.186   2.357   7.865 -0.3269 -0.1797  0.3888
 4364TIP3    H134727   2.173   2.428   7.802 -0.4448  1.0157  1.6994
 4364TIP3    H234728   2.101   2.315   7.872 -0.2177 -0.5765 -0.5144
 4365TIP3   OH234729   4.536   2.554   8.147  0.3171 -0.1719 -0.0857
 4365TIP3    H134730   4.472   2.530   8.215 -1.0518  0.1077 -1.2143
 4365TIP3    H234731   4.487   2.544   8.065  2.0568 -0.9128 -1.0696
 4366TIP3   OH234732   6.545   3.532   8.346 -0.1330  0.0142  0.3823
 4366TIP3    H134733   6.571   3.621   8.370 -0.0256  0.5265 -1.4201
 4366TIP3    H234734   6.452   3.528   8.364  0.3923 -0.6228  3.4851
 4367TIP3   OH234735   4.213   3.498   8.616 -0.5576  0.6349  0.6174
 4367TIP3    H134736   4.287   3.489   8.556  0.6019 -0.5254  2.1214
 4367TIP3    H234737   4.238   3.570   8.674 -0.6516  0.3371  1.0374
 4368TIP3   OH234738   5.006   4.883   7.191  0.6327 -0.1963  0.2219
 4368TIP3    H134739   4.988   4.848   7.279 -1.4093  1.8899  0.7569
 4368TIP3    H234740   4.922   4.877   7.146  1.1064  0.7259 -0.8323
 4369TIP3   OH234741   0.548   1.988   6.626 -0.4433  0.1828 -0.1265
 4369TIP3    H134742   0.511   2.067   6.665 -0.3033  0.0935  0.1880
 4369TIP3    H234743   0.625   2.019   6.578  0.6226  0.0285  1.4048
 4370TIP3   OH234744   5.008   1.146   0.255  0.0479  0.0083  0.2087
 4370TIP3    H134745   4.954   1.071   0.229 -0.3331 -0.2899  1.7274
 4370TIP3    H234746   5.095   1.126   0.220 -0.0539 -1.1563  0.5705
 4371TIP3   OH234747   4.038   6.842   1.182  0.1508 -0.3010  0.2291
 4371TIP3    H134748   4.029   6.851   1.087  0.2398  0.4747  0.2849
 4371TIP3    H234749   4.060   6.750   1.195 -1.3818 -0.7762 -0.3762
 4372TIP3   OH234750   5.602   1.718   7.225  0.7868  0.1011 -0.4468
 4372TIP3    H134751   5.606   1.813   7.235 -1.4915  0.3423 -1.3003
 4372TIP3    H234752   5.641   1.701   7.140 -1.2825  0.6361 -1.5714
 4373TIP3   OH234753   5.664   4.531   7.723 -0.4622 -0.0210  0.5045
 4373TIP3    H134754   5.575   4.511   7.694 -1.1289 -0.5955  2.7744
 4373TIP3    H234755   5.694   4.599   7.663 -2.1503 -0.3273 -0.7534
 4374TIP3   OH234756   3.168   1.506   0.640 -0.0010  0.3270 -0.0462
 4374TIP3    H134757   3.240   1.446   0.619 -0.8697 -0.6462 -0.3214
 4374TIP3    H234758   3.193   1.589   0.599  1.1076  0.1067  0.1430
 4375TIP3   OH234759   4.072   1.937   7.413  0.3966 -0.8940  0.9621
 4375TIP3    H134760   3.980   1.919   7.432 -0.6675  1.6349 -1.1127
 4375TIP3    H234761   4.100   1.865   7.357 -0.9074 -0.7904  0.1340
 4376TIP3   OH234762   5.049   1.877   0.618  0.3814  0.1945  0.0707
 4376TIP3    H134763   5.051   1.954   0.562  0.8483 -0.9215 -1.5037
 4376TIP3    H234764   5.141   1.853   0.629  0.2047 -0.5697 -0.0721
 4377TIP3   OH234765   1.490   5.506   6.232 -0.5178 -0.8849  0.0613
 4377TIP3    H134766   1.559   5.573   6.238  0.5297 -1.9067 -0.2576
 4377TIP3    H234767   1.519   5.436   6.290 -1.9475 -0.8010  0.9170
 4378TIP3   OH234768   1.791   1.431   7.435  0.4597 -0.2840 -0.0090
 4378TIP3    H134769   1.884   1.425   7.455  0.4425  0.9695  0.5381
 4378TIP3    H234770   1.764   1.517   7.469 -0.5787  0.0001 -1.4134
 4379TIP3   OH234771   3.532   6.502   7.885  0.5856 -0.3122  0.1358
 4379TIP3    H134772   3.485   6.575   7.846  2.5649  0.8897 -0.1437
 4379TIP3    H234773   3.554   6.533   7.974 -0.4471 -1.4555  0.8142
 4380TIP3   OH234774   1.533   1.306   7.462  0.5362 -0.2156 -0.0036
 4380TIP3    H134775   1.527   1.251   7.383  1.1771  3.0808 -2.5593
 4380TIP3    H234776   1.623   1.339   7.463  0.3020  0.5033  1.6527
 4381TIP3   OH234777   3.620   4.486   1.285 -0.1453 -0.2637  0.0329
 4381TIP3    H134778   3.674   4.509   1.209 -0.3249 -0.2658 -0.0958
 4381TIP3    H234779   3.637   4.555   1.349  0.4530 -0.5719  0.2150
 4382TIP3   OH234780   5.931   5.150   2.832  0.1152  0.3376 -0.8863
 4382TIP3    H134781   5.856   5.097   2.858  0.7921 -1.2165 -1.9575
 4382TIP3    H234782   5.897   5.240   2.828 -1.6412 -0.3096 -1.2228
 4383TIP3   OH234783   2.054   4.832   8.318  0.4619 -0.5778 -0.0866
 4383TIP3    H134784   2.106   4.790   8.250  0.6044 -1.2689  0.4325
 4383TIP3    H234785   1.991   4.764   8.345  0.8610 -0.5580  0.9434
 4384TIP3   OH234786   4.477   5.174   0.987  0.2079 -0.8345  0.4524
 4384TIP3    H134787   4.464   5.081   1.006 -1.2935 -0.9391 -0.8858
 4384TIP3    H234788   4.563   5.179   0.947  0.6186 -1.5212  1.2123
 4385TIP3   OH234789   5.510   3.725   8.561 -0.2099 -0.0623  0.0104
 4385TIP3    H134790   5.456   3.654   8.527 -0.8342 -0.4062  1.6378
 4385TIP3    H234791   5.593   3.717   8.514 -0.7214 -1.0434 -0.7644
 4386TIP3   OH234792   3.193   4.321   7.416  0.6812 -1.0631  0.0923
 4386TIP3    H134793   3.202   4.353   7.326 -1.6763 -1.1323 -0.2224
 4386TIP3    H234794   3.234   4.388   7.470 -0.8161  0.6760 -0.8296
 4387TIP3   OH234795   2.613   0.665   0.153 -0.5074  0.3986  0.7097
 4387TIP3    H134796   2.571   0.592   0.199 -3.3643  1.1518 -0.4873
 4387TIP3    H234797   2.590   0.651   0.061  2.1532  0.7915 -0.0934
 4388TIP3   OH234798   6.673   1.594   1.154  0.3781  0.2060 -0.0950
 4388TIP3    H134799   6.660   1.622   1.244  0.0823 -1.1835  0.3171
 4388TIP3    H234800   6.658   1.500   1.156  4.0931 -0.5329 -0.8461
 4389TIP3   OH234801   4.499   4.388   0.663  0.4632  0.2322 -0.3052
 4389TIP3    H134802   4.412   4.427   0.662 -0.5850 -1.9896 -0.1542
 4389TIP3    H234803   4.530   4.395   0.572 -0.2644  0.1601 -0.5585
 4390TIP3   OH234804   2.098   2.434   0.680 -0.4892 -0.0575  0.3566
 4390TIP3    H134805   2.163   2.502   0.665 -0.5380 -0.2961 -1.0896
 4390TIP3    H234806   2.027   2.478   0.726  0.2106  0.4488  0.9852
 4391TIP3   OH234807   0.313   0.775   8.561  0.4883 -0.0217 -0.4182
 4391TIP3    H134808   0.395   0.760   8.514  0.0366 -1.6776 -0.7125
 4391TIP3    H234809   0.255   0.705   8.532 -0.7468  0.6040  0.4645
 4392TIP3   OH234810   6.649   0.167   8.490 -0.1078 -0.5312  0.0642
 4392TIP3    H134811   6.604   0.172   8.575 -0.3866 -0.8409 -0.0650
 4392TIP3    H234812   6.628   0.250   8.447  1.1970  0.2624  0.8662
 4393TIP3   OH234813   3.866   6.750   8.065  0.1483 -0.9560  0.3290
 4393TIP3    H134814   3.866   6.837   8.024 -0.2756 -0.8072  0.6370
 4393TIP3    H234815   3.870   6.689   7.992 -1.4292 -0.7109 -0.0075
 4394TIP3   OH234816   1.185   1.344   8.118  0.1450 -0.0222  0.3931
 4394TIP3    H134817   1.223   1.411   8.061 -1.4639 -0.0196 -0.7635
 4394TIP3    H234818   1.092   1.368   8.123 -0.5740 -2.3599 -0.3971
 4395TIP3   OH234819   3.201   1.237   1.500  0.2884  0.2072  0.4429
 4395TIP3    H134820   3.110   1.225   1.528 -0.3119 -0.4924 -1.5982
 4395TIP3    H234821   3.244   1.155   1.522  0.6475  0.7951  2.0565
 4396TIP3   OH234822   1.897   4.882   6.696  0.0371  0.0437 -0.6704
 4396TIP3    H134823   1.803   4.879   6.676 -0.3199  0.1461  0.8578
 4396TIP3    H234824   1.919   4.793   6.722  0.0358  0.3319  0.3321
 4397TIP3   OH234825   0.098   3.533   8.405 -0.3733  0.5431 -0.4364
 4397TIP3    H134826   0.135   3.610   8.449  0.8363  0.3507 -1.0782
 4397TIP3    H234827   0.171   3.472   8.398 -0.6222  0.4193 -2.3549
 4398TIP3   OH234828   2.778   3.808   8.158  0.4669 -0.0801 -0.3680
 4398TIP3    H134829   2.701   3.756   8.135 -0.1445  0.5671  0.1984
 4398TIP3    H234830   2.744   3.895   8.178  0.9643 -0.4693  2.5791
 4399TIP3   OH234831   3.242   6.093   8.604 -0.0802  0.6898 -0.6457
 4399TIP3    H134832   3.253   6.079   8.510 -0.1708  2.4222 -0.9571
 4399TIP3    H234833   3.276   6.014   8.645  0.1282 -0.0198 -2.1290
 4400TIP3   OH234834   5.556   3.944   6.889 -0.4622  0.1381  0.0622
 4400TIP3    H134835   5.541   3.968   6.980 -0.8714 -0.2816  0.1136
 4400TIP3    H234836   5.532   3.851   6.884 -0.9598  0.2891 -0.5822
 4401TIP3   OH234837   4.211   2.106   1.316  0.3653  0.2597 -0.3820
 4401TIP3    H134838   4.192   2.019   1.281 -0.0453 -0.0160  0.4721
 4401TIP3    H234839   4.191   2.098   1.410  1.4287  0.9504 -0.0833
 4402TIP3   OH234840   2.130   4.946   6.585  0.4815  0.0720  0.3568
 4402TIP3    H134841   2.045   4.929   6.627 -0.0578  2.2888  0.2964
 4402TIP3    H234842   2.108   4.999   6.508  1.7919 -0.8113 -0.6568
 4403TIP3   OH234843   5.998   1.236   7.262  0.0932  0.1995 -0.2114
 4403TIP3    H134844   6.075   1.292   7.253  0.8122 -0.5755  0.8562
 4403TIP3    H234845   6.020   1.177   7.334 -2.0643  0.8996  1.1073
 4404TIP3   OH234846   4.452   5.182   6.198 -0.3917  0.3271  0.0303
 4404TIP3    H134847   4.386   5.133   6.247  0.9311  0.7481  2.3871
 4404TIP3    H234848   4.402   5.247   6.149 -1.7367  0.9867  2.1600
 4405TIP3   OH234849   4.627   3.077   7.106  0.5398 -0.1669 -0.4310
 4405TIP3    H134850   4.540   3.105   7.077  0.8239  0.7618 -0.4352
 4405TIP3    H234851   4.629   2.983   7.091 -0.5485 -0.2377 -0.2146
 4406TIP3   OH234852   4.562   5.062   7.620 -0.0329 -0.1842  0.1636
 4406TIP3    H134853   4.630   5.110   7.573  0.8788  0.3591  1.9461
 4406TIP3    H234854   4.571   4.971   7.590  0.9750  0.0217 -0.1868
 4407TIP3   OH234855   2.304   5.455   0.300  0.0756 -0.5014 -0.0226
 4407TIP3    H134856   2.363   5.379   0.292  0.2087 -0.3743 -0.2697
 4407TIP3    H234857   2.361   5.531   0.285 -0.3114 -0.4135 -1.2195
 4408TIP3   OH234858   3.818   4.918   8.494  0.0467 -0.0073 -0.7843
 4408TIP3    H134859   3.736   4.929   8.446 -0.4809  0.3060  0.1488
 4408TIP3    H234860   3.877   4.984   8.457 -0.8223  1.2418 -0.0291
 4409TIP3   OH234861   6.676   5.253   7.767  0.4063  0.0115 -0.3201
 4409TIP3    H134862   6.687   5.184   7.702  0.1595 -0.3258 -0.0132
 4409TIP3    H234863   6.760   5.256   7.813  0.4001 -0.1273 -0.2976
 4410TIP3   OH234864   4.337   0.510   0.382  0.1843  0.2162 -0.4046
 4410TIP3    H134865   4.363   0.601   0.366 -0.6208  0.4639 -0.3418
 4410TIP3    H234866   4.246   0.516   0.413  0.6272 -0.4808  1.1272
 4411TIP3   OH234867   3.277   3.864   0.410  0.7459  0.1055 -0.4511
 4411TIP3    H134868   3.275   3.848   0.316 -0.4959 -1.2999 -0.2203
 4411TIP3    H234869   3.237   3.951   0.419 -2.0454 -0.9988 -1.0592
 4412TIP3   OH234870   6.856   3.297   1.090 -0.3734 -0.2059 -0.7765
 4412TIP3    H134871   6.935   3.291   1.143 -1.8955  0.9532  1.8459
 4412TIP3    H234872   6.887   3.303   0.999  2.6156  1.7456  0.2476
 4413TIP3   OH234873   2.328   2.573   7.984 -0.8047 -0.3357 -0.7538
 4413TIP3    H134874   2.385   2.588   7.909  0.2643 -0.1566  0.0644
 4413TIP3    H234875   2.268   2.503   7.956  0.9723 -1.8116 -1.0417
 4414TIP3   OH234876   3.166   4.394   8.050 -0.1621 -0.0330  0.0054
 4414TIP3    H134877   3.152   4.489   8.058  0.2793 -0.0369  0.9787
 4414TIP3    H234878   3.101   4.356   8.109  0.7041 -0.2581  0.8361
 4415TIP3   OH234879   0.814   3.850   6.081  0.3268  0.1834 -0.2487
 4415TIP3    H134880   0.779   3.777   6.030 -3.9077  1.1332  0.8870
 4415TIP3    H234881   0.819   3.816   6.170 -1.9742  1.1921  0.3467
 4416TIP3   OH234882   4.115   4.655   1.414  0.4395  0.0740 -0.3260
 4416TIP3    H134883   4.083   4.745   1.414 -1.0501 -0.4013  1.1169
 4416TIP3    H234884   4.088   4.619   1.330 -0.9667  0.3284 -0.0022
 4417TIP3   OH234885   6.439   4.215   7.405  0.3915  0.4455  0.0116
 4417TIP3    H134886   6.359   4.218   7.352  0.3122 -0.0459  0.1023
 4417TIP3    H234887   6.421   4.151   7.473  1.6113 -1.3520 -1.2361
 4418TIP3   OH234888   4.974   3.938   8.336  0.0693 -0.4276  0.4165
 4418TIP3    H134889   5.069   3.939   8.346  0.0399 -0.6610  0.7258
 4418TIP3    H234890   4.941   3.912   8.422 -0.3057  0.3811  0.5202
 4419TIP3   OH234891   4.786   0.469   0.200  0.0203 -0.7306  0.0063
 4419TIP3    H134892   4.808   0.443   0.290  0.1641 -0.4188  0.0617
 4419TIP3    H234893   4.698   0.432   0.186 -0.5461  0.2912  0.7257
 4420TIP3   OH234894   3.459   6.296   7.539 -0.3428  0.4655 -0.0518
 4420TIP3    H134895   3.480   6.336   7.454 -0.7028  2.3887  0.7224
 4420TIP3    H234896   3.365   6.311   7.550 -0.1734  0.8406  0.9699
 4421TIP3   OH234897   2.446   4.544   1.776  0.3876 -0.2440 -0.4394
 4421TIP3    H134898   2.454   4.476   1.709 -1.6231 -1.7415  0.7284
 4421TIP3    H234899   2.482   4.505   1.855 -0.4800  0.1554  0.1763
 4422TIP3   OH234900   0.071   3.137   0.529 -0.0397  0.1770  0.1318
 4422TIP3    H134901   0.065   3.100   0.617  0.8220 -0.5105 -0.0780
 4422TIP3    H234902   0.159   3.112   0.499  0.4385  2.1088 -0.1742
 4423TIP3   OH234903   0.971   6.571   0.860  0.0578 -0.2638  0.4870
 4423TIP3    H134904   1.051   6.520   0.848  0.1108 -0.1272  0.2522
 4423TIP3    H234905   0.932   6.537   0.940 -0.4443 -1.4122 -0.2069
 4424TIP3   OH234906   0.973   2.781   8.506 -0.3264 -0.1018  0.4973
 4424TIP3    H134907   1.055   2.733   8.496 -1.8162 -2.7008 -0.0248
 4424TIP3    H234908   0.954   2.777   8.600 -0.1782  0.0030  0.5330
 4425TIP3   OH234909   3.920   4.432   0.970  0.2256 -0.1301  0.4592
 4425TIP3    H134910   3.838   4.393   1.000 -0.3667  0.8627  0.2008
 4425TIP3    H234911   3.977   4.358   0.950 -0.5408 -0.8332  0.8324
 4426TIP3   OH234912   1.745   0.653   2.111 -0.1798 -0.0760 -0.3260
 4426TIP3    H134913   1.749   0.730   2.055  1.2029  0.2001  0.1289
 4426TIP3    H234914   1.741   0.689   2.200 -0.7321 -0.5293 -0.1613
 4427TIP3   OH234915   2.402   1.547   8.287 -0.1760 -0.0936 -0.0473
 4427TIP3    H134916   2.396   1.468   8.235 -0.3836  0.2617 -0.5723
 4427TIP3    H234917   2.336   1.535   8.356  0.3666 -0.7283  0.3768
 4428TIP3   OH234918   2.376   4.751   1.310 -0.2399  0.0123 -0.0823
 4428TIP3    H134919   2.328   4.818   1.357  0.0982  1.4288 -1.6703
 4428TIP3    H234920   2.321   4.673   1.316 -0.6593  0.3938  1.7452
 4429TIP3   OH234921   5.685   5.079   1.132 -0.3639  0.6328 -0.1975
 4429TIP3    H134922   5.633   5.012   1.177  1.7887 -2.0268 -1.3997
 4429TIP3    H234923   5.719   5.134   1.203 -0.1815 -1.0782  1.1232
 4430TIP3   OH234924   2.289   5.820   6.114 -0.3992 -0.0645 -0.2740
 4430TIP3    H134925   2.201   5.855   6.126 -0.3928  1.1465 -3.0313
 4430TIP3    H234926   2.308   5.774   6.196 -3.1711  0.4869  0.7851
 4431TIP3   OH234927   1.532   0.299   8.481 -0.2330  0.3642  0.1935
 4431TIP3    H134928   1.572   0.329   8.399  0.0777 -1.2335 -0.2775
 4431TIP3    H234929   1.605   0.290   8.542 -0.2939  0.3937  0.2703
 4432TIP3   OH234930   3.975   1.766   1.498 -0.0790 -0.0388  0.0341
 4432TIP3    H134931   3.988   1.694   1.559 -0.3701  1.1095  1.5223
 4432TIP3    H234932   3.939   1.837   1.551  1.4642  1.6793 -1.0362
 4433TIP3   OH234933   4.781   4.348   1.367  0.0421 -0.3243 -0.5476
 4433TIP3    H134934   4.698   4.304   1.352  0.7511 -1.5691 -0.9430
 4433TIP3    H234935   4.788   4.411   1.295 -1.6201  1.5158  0.7956
 4434TIP3   OH234936   0.616   2.244   2.424  0.4673  0.4832  0.2305
 4434TIP3    H134937   0.673   2.237   2.500 -0.0040  1.4624  0.7047
 4434TIP3    H234938   0.591   2.337   2.422  0.6363  0.5221 -1.2447
 4435TIP3   OH234939   0.986   1.103   2.107  0.0297  0.3433  0.1872
 4435TIP3    H134940   1.070   1.105   2.153 -0.7015  1.2296  1.5795
 4435TIP3    H234941   0.969   1.195   2.085 -0.3896  0.1168 -0.4515
 4436TIP3   OH234942   1.645   3.625   7.021 -0.5938 -0.5247  0.1758
 4436TIP3    H134943   1.671   3.556   7.082 -1.0329 -0.0315  0.9539
 4436TIP3    H234944   1.549   3.629   7.029 -0.6803 -0.6166 -0.7375
 4437TIP3   OH234945   1.829   1.041   6.663  0.3579 -0.8192  0.5853
 4437TIP3    H134946   1.785   0.956   6.674 -0.2832 -0.2522  2.8965
 4437TIP3    H234947   1.768   1.092   6.609 -0.8156 -0.7858  1.8880
 4438TIP3   OH234948   5.624   4.935   0.796 -0.2190 -0.2010  0.4603
 4438TIP3    H134949   5.697   4.967   0.849 -0.6979  0.2969  0.8386
 4438TIP3    H234950   5.560   4.904   0.860  0.3873 -2.3486  0.1093
 4439TIP3   OH234951   3.912   2.853   1.807 -0.0297 -0.5453  0.3670
 4439TIP3    H134952   3.982   2.796   1.775 -0.5173 -0.9527  0.0179
 4439TIP3    H234953   3.847   2.793   1.844 -0.5587 -0.2206 -0.0283
 4440TIP3   OH234954   1.305   3.993   8.161 -0.4356  0.0023  0.3424
 4440TIP3    H134955   1.269   4.076   8.194  0.1537 -0.9169  3.5801
 4440TIP3    H234956   1.388   4.017   8.120 -1.0483  1.1665 -0.2794
 4441TIP3   OH234957   4.753   5.008   2.282  0.4766  0.7775 -0.3588
 4441TIP3    H134958   4.745   4.913   2.271  0.5295  0.7062  0.1825
 4441TIP3    H234959   4.755   5.043   2.193 -0.3271  0.3388 -0.5521
 4442TIP3   OH234960   1.062   2.439   0.210  0.0506  0.3055  0.0207
 4442TIP3    H134961   1.071   2.446   0.305 -0.6457  2.3766 -0.0195
 4442TIP3    H234962   1.151   2.452   0.176  0.4073 -1.0257  0.3605
 4443TIP3   OH234963   3.451   6.178   5.961  0.2177  0.1559 -0.1380
 4443TIP3    H134964   3.482   6.188   6.051 -0.0487 -1.1031  0.1226
 4443TIP3    H234965   3.416   6.264   5.937 -2.0077 -0.0747  1.8517
 4444TIP3   OH234966   1.614   5.062   7.534  0.0762 -0.1881  0.1268
 4444TIP3    H134967   1.674   5.032   7.466  0.6231 -1.9954  1.3514
 4444TIP3    H234968   1.528   5.029   7.506  0.0259  0.4324 -0.4675
 4445TIP3   OH234969   4.297   2.847   7.663 -0.4823  0.2157  0.1375
 4445TIP3    H134970   4.236   2.832   7.591 -1.8035  0.7494  1.1299
 4445TIP3    H234971   4.383   2.846   7.621 -0.7801 -4.1330 -0.8214
 4446TIP3   OH234972   4.000   4.755   8.397  0.1291  0.2689 -0.0316
 4446TIP3    H134973   3.991   4.661   8.417 -0.4984  0.1636 -0.7853
 4446TIP3    H234974   3.923   4.795   8.437  2.0219  0.9879  3.2341
 4447TIP3   OH234975   3.512   3.033   6.912  0.3364  0.4152 -0.0819
 4447TIP3    H134976   3.547   3.093   6.978  0.3418  0.2118  0.1016
 4447TIP3    H234977   3.514   2.947   6.954 -2.9631  0.7314  1.0528
 4448TIP3   OH234978   2.767   1.300   0.789  0.1605 -0.2188 -0.3704
 4448TIP3    H134979   2.687   1.318   0.740  1.3826  2.9041 -1.4487
 4448TIP3    H234980   2.743   1.315   0.880 -0.7736 -0.5737 -0.5417
 4449TIP3   OH234981   5.147   5.595   0.662 -0.5636  0.5587  0.9807
 4449TIP3    H134982   5.074   5.539   0.635  0.4653 -0.9668  1.1945
 4449TIP3    H234983   5.106   5.674   0.696 -2.0340  0.6063 -0.7784
 4450TIP3   OH234984   3.642   5.745   7.666  0.2126  0.1882 -0.5253
 4450TIP3    H134985   3.624   5.832   7.703 -0.3461 -0.2271  0.1929
 4450TIP3    H234986   3.559   5.698   7.674  0.1559 -0.0292 -2.0296
 4451TIP3   OH234987   4.049   6.276   8.608  0.0477 -0.0480 -0.4753
 4451TIP3    H134988   4.097   6.193   8.609  0.2531 -0.0129  2.6549
 4451TIP3    H234989   4.114   6.341   8.636 -0.1409  1.2356 -2.7677
 4452TIP3   OH234990   0.518   5.919   7.230 -0.8720 -0.2889 -0.1203
 4452TIP3    H134991   0.436   5.912   7.182  0.2268 -0.4215 -2.1298
 4452TIP3    H234992   0.579   5.958   7.166  0.4478  0.4738  1.5225
 4453TIP3   OH234993   4.843   4.830   6.966 -0.2936 -0.3232  0.3079
 4453TIP3    H134994   4.877   4.831   6.877 -2.4560 -1.6649 -0.5985
 4453TIP3    H234995   4.879   4.751   7.005 -1.4706 -1.1973 -0.3167
 4454TIP3   OH234996   2.286   4.037   0.712 -0.2618  0.0385  0.2863
 4454TIP3    H134997   2.267   4.129   0.729  1.5209  0.3134  0.9848
 4454TIP3    H234998   2.367   4.020   0.761 -0.2400 -1.7343 -0.3174
 4455TIP3   OH234999   5.240   6.171   8.234  0.1521  0.0310 -0.0339
 4455TIP3    H135000   5.284   6.087   8.248  1.1724  0.0909 -2.4006
 4455TIP3    H235001   5.238   6.181   8.139  0.1683  2.7472  0.1759
 4456TIP3   OH235002   3.339   4.026   0.818  0.0102 -0.4114 -0.0436
 4456TIP3    H135003   3.327   3.935   0.794 -0.6029 -0.3198 -0.1081
 4456TIP3    H235004   3.254   4.067   0.802  0.1777  0.0952  0.3142
 4457TIP3   OH235005   5.145   6.260   7.199 -0.9812 -0.6839  0.7741
 4457TIP3    H135006   5.239   6.261   7.217 -1.2262 -0.7142  2.1767
 4457TIP3    H235007   5.128   6.173   7.162 -0.3268 -0.3415 -0.3918
 4458TIP3   OH235008   0.891   4.512   8.267 -0.0770 -0.7542  0.4072
 4458TIP3    H135009   0.843   4.448   8.214 -2.3253  1.1621 -0.0255
 4458TIP3    H235010   0.871   4.488   8.357 -0.1928 -1.1607  0.2789
 4459TIP3   OH235011   5.714   2.977   7.930 -0.6165  0.0508 -0.2630
 4459TIP3    H135012   5.656   3.044   7.894 -1.3213 -0.3832  0.0385
 4459TIP3    H235013   5.709   2.989   8.024 -1.8392 -1.2754 -0.1211
 4460TIP3   OH235014   6.080   3.906   1.439 -0.0482  0.4245  0.0610
 4460TIP3    H135015   6.066   3.822   1.396  0.7554  0.0375  0.5194
 4460TIP3    H235016   6.153   3.945   1.390 -0.5696  0.9709 -0.2991
 4461TIP3   OH235017   3.420   0.106   7.434 -0.3206 -0.0351 -0.1349
 4461TIP3    H135018   3.365   0.042   7.481  0.1837 -1.0734 -0.9245
 4461TIP3    H235019   3.364   0.183   7.426 -1.8979 -1.2458 -1.3943
 4462TIP3   OH235020   5.761   0.271   8.347 -0.1993  0.1742 -0.3616
 4462TIP3    H135021   5.790   0.361   8.333 -0.2727  0.1033 -0.9770
 4462TIP3    H235022   5.673   0.268   8.311 -0.2673 -0.0982 -0.1747
 4463TIP3   OH235023   4.789   4.113   7.854  0.0584  0.0744  0.0215
 4463TIP3    H135024   4.856   4.144   7.794  1.0243 -0.0474  1.0103
 4463TIP3    H235025   4.815   4.149   7.939 -1.2868  0.2596  0.3812
 4464TIP3   OH235026   2.989   0.406   7.873  0.2711 -0.3218  0.0183
 4464TIP3    H135027   2.929   0.428   7.945  2.5127  1.1781  1.5647
 4464TIP3    H235028   3.012   0.314   7.888 -1.7695 -1.0152 -0.7753
 4465TIP3   OH235029   2.487   1.297   0.744 -0.5137  0.4292  0.4635
 4465TIP3    H135030   2.410   1.342   0.709 -0.7453 -0.3098 -0.0152
 4465TIP3    H235031   2.502   1.225   0.683  0.1929  0.2061  0.8924
 4466TIP3   OH235032   0.000   4.373   6.267 -0.4365 -0.0374 -0.2156
 4466TIP3    H135033   0.024   4.281   6.282  0.2465  0.1605 -0.0126
 4466TIP3    H235034   0.063   4.403   6.201  0.5911  0.7833  1.0828
 4467TIP3   OH235035   4.980   5.286   8.635 -0.2201  0.1452  0.3317
 4467TIP3    H135036   4.964   5.258   8.725 -0.8464 -0.7813 -0.0545
 4467TIP3    H235037   5.032   5.215   8.597  0.6585  0.8630  0.1522
 4468TIP3   OH235038   6.520   4.212   1.574  0.4693 -0.0793 -0.4117
 4468TIP3    H135039   6.429   4.227   1.598  0.7600  2.9866 -0.7658
 4468TIP3    H235040   6.555   4.156   1.644 -1.4855 -0.7515  0.0774
 4469TIP3   OH235041   6.538   3.219   0.571 -0.5369 -0.2078  0.5957
 4469TIP3    H135042   6.522   3.312   0.589  0.5076  0.2740 -0.8230
 4469TIP3    H235043   6.575   3.185   0.652  0.9613  1.1023  0.5046
 4470TIP3   OH235044   5.574   4.292   1.869 -0.0396  0.1974 -0.3835
 4470TIP3    H135045   5.654   4.303   1.818  0.6642  0.4026  0.7418
 4470TIP3    H235046   5.540   4.207   1.842  0.8134 -0.1054 -0.5308
 4471TIP3   OH235047   2.471   0.628   2.459  0.2274 -0.2792 -0.4581
 4471TIP3    H135048   2.395   0.678   2.430  0.7378  0.0704 -1.2483
 4471TIP3    H235049   2.492   0.663   2.545 -0.2337 -0.0634 -0.4324
 4472TIP3   OH235050   2.072   5.579   8.249  0.1412 -0.3676  0.2026
 4472TIP3    H135051   2.079   5.483   8.255 -1.8383 -0.5696 -0.3044
 4472TIP3    H235052   2.034   5.605   8.333  0.6552 -0.0157  0.3285
 4473TIP3   OH235053   6.706   4.089   8.020 -0.3442 -0.0917 -0.7971
 4473TIP3    H135054   6.673   4.010   7.976  2.5697 -0.8005 -2.0059
 4473TIP3    H235055   6.747   4.139   7.949  1.0139  0.6999  0.5061
 4474TIP3   OH235056   3.043   2.712   7.046  0.4259  0.3655  0.3923
 4474TIP3    H135057   3.052   2.729   6.952  0.8878  1.3191  0.6034
 4474TIP3    H235058   2.971   2.768   7.074  0.5513  0.3808  0.6885
 4475TIP3   OH235059   3.749   4.360   8.133 -0.2446  0.3863  0.9644
 4475TIP3    H135060   3.791   4.274   8.132 -0.8244  0.0782  1.7336
 4475TIP3    H235061   3.814   4.419   8.095  0.4058 -0.2853  1.0119
 4476TIP3   OH235062   5.344   2.867   6.701 -0.0876 -0.1574 -0.4811
 4476TIP3    H135063   5.264   2.871   6.753 -0.0974  2.2836 -0.5842
 4476TIP3    H235064   5.412   2.841   6.763 -0.9079 -2.5463 -0.4489
 4477TIP3   OH235065   6.803   2.723   8.123 -0.2384  0.3010  0.2392
 4477TIP3    H135066   6.768   2.794   8.177 -0.9463 -0.2523  0.5279
 4477TIP3    H235067   6.755   2.646   8.152  2.6210 -0.9662  2.1688
 4478TIP3   OH235068   3.003   4.117   8.484 -0.1804  0.2120 -0.7295
 4478TIP3    H135069   3.062   4.192   8.482 -0.4591  0.4930  0.5194
 4478TIP3    H235070   2.918   4.154   8.507 -0.0644 -0.6047  1.2077
 4479TIP3   OH235071   5.234   0.137   8.114  0.1405  0.1603 -0.3119
 4479TIP3    H135072   5.168   0.159   8.180  0.0656  1.3623 -0.7778
 4479TIP3    H235073   5.310   0.192   8.136  0.3827  0.0204 -0.7897
 4480TIP3   OH235074   1.428   3.343   6.812  0.3081  0.6988 -0.2441
 4480TIP3    H135075   1.469   3.380   6.734  1.1603 -0.0427 -0.1619
 4480TIP3    H235076   1.374   3.414   6.847  1.3345  1.6242 -0.4909
 4481TIP3   OH235077   6.825   5.563   7.927 -0.3321 -0.0921  0.0119
 4481TIP3    H135078   6.809   5.642   7.977  2.9940  1.0087 -0.4457
 4481TIP3    H235079   6.759   5.565   7.857 -2.1391  0.6733  1.6676
 4482TIP3   OH235080   6.026   2.696   1.506  1.2733  0.3894  0.7720
 4482TIP3    H135081   5.998   2.629   1.444  2.8361  0.9018 -0.5447
 4482TIP3    H235082   5.988   2.668   1.590 -3.3696  1.1677 -0.7529
 4483TIP3   OH235083   1.135   5.848   2.296  0.0053  0.1037 -0.0729
 4483TIP3    H135084   1.045   5.870   2.272 -0.5232  1.3929  2.7000
 4483TIP3    H235085   1.155   5.904   2.371  1.2269 -3.6606  2.7840
 4484TIP3   OH235086   0.247   0.031   0.225 -0.1402  0.5814  0.1010
 4484TIP3    H135087   0.157   0.020   0.255  0.0986  0.0036  0.6257
 4484TIP3    H235088   0.258  -0.034   0.156 -0.1214  0.6382  0.0504
 4485TIP3   OH235089   2.601   0.713   1.192 -0.6590 -0.1356  0.2283
 4485TIP3    H135090   2.598   0.688   1.285  0.6782 -1.1002  0.0415
 4485TIP3    H235091   2.509   0.725   1.168 -1.0521 -0.1499  1.6029
 4486TIP3   OH235092   2.044   6.588   8.192 -0.2890  0.0771  0.1059
 4486TIP3    H135093   2.105   6.524   8.230 -0.0100  0.1821 -0.1632
 4486TIP3    H235094   2.041   6.659   8.257 -1.7258 -0.8519  1.1002
 4487TIP3   OH235095   1.471   5.093   8.365 -0.1868  0.2567 -0.4887
 4487TIP3    H135096   1.392   5.120   8.318 -0.6801 -1.1993 -0.5303
 4487TIP3    H235097   1.529   5.057   8.298 -0.4885 -0.9069 -0.1460
 4488TIP3   OH235098   5.396   1.001   7.617  0.4997 -0.3575 -0.5216
 4488TIP3    H135099   5.314   0.964   7.585 -2.2546  4.2502  0.3044
 4488TIP3    H235100   5.390   0.994   7.712  1.0752 -0.0058 -0.4547
 4489TIP3   OH235101   2.833   5.557   7.885 -0.2024 -0.3321 -0.1873
 4489TIP3    H135102   2.892   5.587   7.817 -1.3715  0.2461 -0.9818
 4489TIP3    H235103   2.868   5.593   7.966  0.8706 -0.5280 -0.5560
 4490TIP3   OH235104   0.465   6.072   0.890 -0.2553 -0.2087 -0.0297
 4490TIP3    H135105   0.519   6.105   0.818 -0.5833  1.2972  0.3847
 4490TIP3    H235106   0.508   5.990   0.916  2.8476  1.6416  1.3128
 4491TIP3   OH235107   1.011   1.363   7.275  0.6607 -0.7075 -1.2189
 4491TIP3    H135108   1.076   1.375   7.207  0.5188  2.2004 -0.9610
 4491TIP3    H235109   1.041   1.418   7.348 -2.2143  1.2201 -1.2816
 4492TIP3   OH235110   4.229   3.021   1.224  0.3789  0.9776 -0.2617
 4492TIP3    H135111   4.157   3.038   1.163  0.0652  0.2213 -0.1021
 4492TIP3    H235112   4.237   2.926   1.227  2.1569  1.0479 -1.1923
 4493TIP3   OH235113   1.068   5.276   1.125  0.1136 -0.9731 -0.9375
 4493TIP3    H135114   1.028   5.337   1.062 -0.8640 -0.4774  0.1183
 4493TIP3    H235115   1.019   5.291   1.206  1.5635 -1.3457  0.0418
 4494TIP3   OH235116   4.928   5.608   7.812 -0.1498 -0.2023 -0.0098
 4494TIP3    H135117   4.985   5.545   7.856  1.5105  1.1396 -0.1146
 4494TIP3    H235118   4.936   5.586   7.719 -0.9040 -0.8503  0.0646
 4495TIP3   OH235119   2.698   6.270   0.054 -0.1031 -0.2654 -0.4380
 4495TIP3    H135120   2.621   6.302   0.101  0.3013  0.6259 -0.3597
 4495TIP3    H235121   2.714   6.336  -0.014  1.1114  0.0334  0.1100
 4496TIP3   OH235122   1.275   6.353   7.128 -0.5938  0.0407  0.0696
 4496TIP3    H135123   1.336   6.371   7.200 -0.3525  0.0246 -0.1301
 4496TIP3    H235124   1.293   6.422   7.064 -0.2102 -0.4454 -0.3538
 4497TIP3   OH235125   1.706   6.745   1.756  0.3658  0.1562  0.0370
 4497TIP3    H135126   1.622   6.699   1.745  0.1497  0.5464  0.0409
 4497TIP3    H235127   1.691   6.807   1.828  0.3236  0.9827 -0.6640
 4498TIP3   OH235128   0.704   6.138   0.740 -0.0813  0.2780  0.0534
 4498TIP3    H135129   0.763   6.068   0.713 -2.1251 -1.2322 -0.7068
 4498TIP3    H235130   0.741   6.217   0.701  1.1278 -0.6956 -0.8604
 4499TIP3   OH235131   6.354   3.914   2.631  0.2739 -0.2530  0.3910
 4499TIP3    H135132   6.382   3.828   2.598 -2.7783 -1.0320 -0.4303
 4499TIP3    H235133   6.284   3.894   2.692 -1.3044  1.6811 -0.6887
 4500TIP3   OH235134   0.827   0.907   1.963 -0.1632  0.1464  0.3068
 4500TIP3    H135135   0.782   0.967   1.903  2.8506  0.3240 -2.0173
 4500TIP3    H235136   0.879   0.964   2.020  1.7847 -0.0894 -1.1266
 4501TIP3   OH235137   5.314   0.792   0.090 -0.0924 -0.3169  1.0238
 4501TIP3    H135138   5.403   0.781   0.121 -0.2399  0.3247  1.7062
 4501TIP3    H235139   5.291   0.882   0.113  0.1992  0.6591 -2.0436
 4502TIP3   OH235140   3.983   1.300   8.015  0.6883 -0.1909 -0.3234
 4502TIP3    H135141   3.936   1.253   8.084  0.2140  0.0893 -0.4566
 4502TIP3    H235142   4.071   1.262   8.016  0.4660 -0.7018 -0.0616
 4503TIP3   OH235143   2.257   5.513   0.759  0.1676  0.5938 -0.1428
 4503TIP3    H135144   2.279   5.420   0.749 -0.8202  0.3490 -0.2167
 4503TIP3    H235145   2.247   5.545   0.670  0.4405  0.7530 -0.1155
 4504TIP3   OH235146   5.803   0.772   1.474 -0.0002  0.3265 -0.1122
 4504TIP3    H135147   5.770   0.799   1.560 -0.9760 -1.4273  0.1108
 4504TIP3    H235148   5.837   0.683   1.488  1.9360  0.8700 -1.0653
 4505TIP3   OH235149   3.066   2.337   7.809 -0.0091  0.9215 -0.6134
 4505TIP3    H135150   3.071   2.249   7.846  2.0367  1.6996  1.2392
 4505TIP3    H235151   2.983   2.339   7.761 -0.7757 -1.5510  0.4475
 4506TIP3   OH235152   1.974   0.146   6.667 -0.1224 -0.1676  0.0968
 4506TIP3    H135153   1.896   0.093   6.655  0.2147 -0.4008 -1.1996
 4506TIP3    H235154   1.943   0.237   6.667 -0.6240 -0.3123  1.7034
 4507TIP3   OH235155   0.520   3.574   8.034  0.1337 -0.0797 -0.0176
 4507TIP3    H135156   0.535   3.636   8.105 -0.4867 -2.2563  2.1426
 4507TIP3    H235157   0.607   3.558   7.997  0.7382 -0.1266  1.3677
 4508TIP3   OH235158   1.397   3.533   6.065  0.8533 -0.2839  0.2088
 4508TIP3    H135159   1.375   3.578   5.983  2.7224  1.3564  0.5293
 4508TIP3    H235160   1.320   3.481   6.086  0.3367 -0.7779 -2.6009
 4509TIP3   OH235161   2.251   4.450   2.253 -0.8159  0.0605 -0.1708
 4509TIP3    H135162   2.160   4.472   2.275 -1.0373  0.2526 -1.2559
 4509TIP3    H235163   2.265   4.365   2.295 -0.4047  1.4686  2.8683
 4510TIP3   OH235164   5.632   0.677   2.336 -0.6936 -0.8447  0.3602
 4510TIP3    H135165   5.697   0.621   2.378  1.0886  0.4724 -0.5397
 4510TIP3    H235166   5.590   0.723   2.409 -0.4943 -1.5707  0.9451
 4511TIP3   OH235167   1.000   5.714   0.800 -0.5810 -0.5806  0.3216
 4511TIP3    H135168   1.018   5.628   0.761 -0.0818  0.0990 -0.9909
 4511TIP3    H235169   0.923   5.699   0.855 -0.8556 -1.7485 -0.3465
 4512TIP3   OH235170   4.972   3.151   7.796 -0.0011  1.0131  0.1890
 4512TIP3    H135171   4.903   3.127   7.735  0.1070  0.0488  0.4170
 4512TIP3    H235172   4.931   3.144   7.882  0.8244 -1.4618  0.4664
 4513TIP3   OH235173   2.320   4.328   0.721  0.4350  0.0266 -0.4015
 4513TIP3    H135174   2.394   4.326   0.660  2.8261  0.6568  2.2690
 4513TIP3    H235175   2.340   4.400   0.781 -2.4079  0.2393  0.4510
 4514TIP3   OH235176   1.296   2.781   7.904 -0.0003 -0.1750 -0.3743
 4514TIP3    H135177   1.328   2.859   7.949 -0.7332  0.8211 -1.5178
 4514TIP3    H235178   1.370   2.721   7.905  1.0443  1.0470 -0.6398
 4515TIP3   OH235179   0.951   2.129   0.745 -0.4351  0.2954 -0.4713
 4515TIP3    H135180   0.869   2.175   0.763 -1.2224 -0.6512 -1.5172
 4515TIP3    H235181   0.995   2.126   0.830 -1.7271  0.3564  0.2322
 4516TIP3   OH235182   5.841   0.870   1.231  0.2011 -0.0193  0.3896
 4516TIP3    H135183   5.815   0.824   1.311 -1.1433 -2.2409 -1.1820
 4516TIP3    H235184   5.794   0.953   1.235 -0.6356 -0.5116  1.4761
 4517TIP3   OH235185   0.443   0.326   0.807 -0.1288 -0.0784 -0.0178
 4517TIP3    H135186   0.392   0.302   0.730 -0.1784 -0.8448  0.2508
 4517TIP3    H235187   0.484   0.409   0.783  0.4594 -0.6755 -1.1618
 4518TIP3   OH235188   5.230   5.852   7.515 -0.5679  0.4413 -0.2319
 4518TIP3    H135189   5.187   5.910   7.578  0.4321  1.0321 -0.0640
 4518TIP3    H235190   5.252   5.773   7.565  0.5873  1.0705  0.3051
 4519TIP3   OH235191   5.053   0.138   2.012  0.1846  0.0129  0.7646
 4519TIP3    H135192   4.994   0.108   1.942  2.6424 -2.4311 -0.4478
 4519TIP3    H235193   5.051   0.067   2.076 -0.4880  1.3320  2.2783
 4520TIP3   OH235194   1.509   4.676   7.084 -0.4373  0.1750 -0.2354
 4520TIP3    H135195   1.538   4.730   7.011  0.3572 -0.5526 -0.4661
 4520TIP3    H235196   1.482   4.593   7.044  0.4355 -0.3973  0.3325
 4521TIP3   OH235197   1.939   1.472   1.396  0.7808 -0.2374  0.4381
 4521TIP3    H135198   2.020   1.454   1.348  0.3701  0.1751 -0.4267
 4521TIP3    H235199   1.962   1.459   1.488  1.8252 -0.1322  0.1994
 4522TIP3   OH235200   2.769   4.469   7.983  0.4959 -0.2526 -0.4590
 4522TIP3    H135201   2.815   4.523   7.920  2.0171  0.9455  1.5553
 4522TIP3    H235202   2.828   4.396   8.000 -0.5432 -1.3609 -1.4468
 4523TIP3   OH235203   1.535   0.147   6.419 -0.1311 -0.4859 -0.3088
 4523TIP3    H135204   1.457   0.107   6.457 -1.4127  0.5813 -1.6755
 4523TIP3    H235205   1.505   0.185   6.337  1.7630  0.3141 -0.6968
 4524TIP3   OH235206   0.336   4.695   8.508  0.3573 -0.5902 -0.0585
 4524TIP3    H135207   0.288   4.726   8.431  0.2703 -0.4726  0.0416
 4524TIP3    H235208   0.320   4.762   8.574 -0.1258 -1.0249  0.2744
 4525TIP3   OH235209   1.072   6.192   1.664  0.1989 -0.2395  0.5791
 4525TIP3    H135210   1.078   6.139   1.584 -0.3697  0.3764  0.1179
 4525TIP3    H235211   0.984   6.229   1.662 -0.2728 -1.1660  2.1000
 4526TIP3   OH235212   1.983   2.929   0.159  0.1863  0.5154 -0.3367
 4526TIP3    H135213   1.953   2.841   0.134  1.1352  0.2097 -0.4577
 4526TIP3    H235214   2.044   2.953   0.090  1.9089  0.1719  1.0053
 4527TIP3   OH235215   6.576   5.954   2.032  0.1448  0.0533 -0.9633
 4527TIP3    H135216   6.667   5.929   2.020  0.3679  0.9580 -1.1871
 4527TIP3    H235217   6.536   5.878   2.075  1.3071  0.1916  0.4150
 4528TIP3   OH235218   1.935   5.083   8.367 -0.3278  0.1611  0.2630
 4528TIP3    H135219   1.978   4.998   8.355  0.0359  0.6037 -2.2090
 4528TIP3    H235220   2.001   5.146   8.338 -2.0911  0.9384 -2.4578
 4529TIP3   OH235221   6.386   5.425   7.994 -0.2831 -0.0424  0.2973
 4529TIP3    H135222   6.359   5.421   8.085  0.8372 -1.4990  0.6052
 4529TIP3    H235223   6.478   5.453   7.997 -1.0472  2.8856 -0.5947
 4530TIP3   OH235224   0.829   0.063   2.146 -0.3476  0.0337 -0.1741
 4530TIP3    H135225   0.854   0.090   2.235 -2.3191  2.9060 -0.3562
 4530TIP3    H235226   0.748   0.110   2.129  0.1711 -0.1046 -3.6761
 4531TIP3   OH235227   6.668   5.869   6.809 -0.4310  0.1806  0.0896
 4531TIP3    H135228   6.762   5.887   6.814 -0.2003 -0.4595 -1.3849
 4531TIP3    H235229   6.628   5.956   6.801  0.0390  0.4473  0.5350
 4532TIP3   OH235230   0.478   4.718   0.191 -0.1082  0.6055  0.0115
 4532TIP3    H135231   0.491   4.625   0.212  1.8297  0.1274 -2.7809
 4532TIP3    H235232   0.507   4.764   0.270  2.7469 -1.0935  0.0931
 4533TIP3   OH235233   2.572   3.426   7.376 -0.7706  0.2396 -0.5863
 4533TIP3    H135234   2.493   3.481   7.375 -1.7476 -1.0739  0.2546
 4533TIP3    H235235   2.559   3.366   7.303  0.0766  0.8052 -1.2209
 4534TIP3   OH235236   6.470   3.157   1.162  0.2645  0.7910 -0.1241
 4534TIP3    H135237   6.472   3.133   1.254  1.3418 -0.1479 -0.3587
 4534TIP3    H235238   6.384   3.130   1.131  0.4823 -0.4162  0.2529
 4535TIP3   OH235239   1.534   0.808   7.614  0.6083 -0.1665  0.1859
 4535TIP3    H135240   1.598   0.872   7.584 -0.0084  0.3356 -0.0741
 4535TIP3    H235241   1.566   0.724   7.579  1.0653  0.0923 -0.0225
 4536TIP3   OH235242   1.415   6.391   1.177 -0.3794 -0.3658  0.0165
 4536TIP3    H135243   1.348   6.423   1.238  0.3003  0.1638  0.5116
 4536TIP3    H235244   1.470   6.333   1.230  1.2614  1.4416  0.4455
 4537TIP3   OH235245   2.128   3.386   8.589 -0.2240  0.5407  0.3758
 4537TIP3    H135246   2.208   3.350   8.552  0.4991 -0.9856  3.1751
 4537TIP3    H235247   2.064   3.315   8.582 -0.2541  0.4538  1.3882
 4538TIP3   OH235248   2.690   0.064   6.898  0.3914  0.2122 -0.3029
 4538TIP3    H135249   2.653   0.083   6.812 -0.7000  1.6261  0.4245
 4538TIP3    H235250   2.784   0.064   6.884  0.2094 -0.4711 -1.6584
 4539TIP3   OH235251   5.252   0.051   7.696 -0.2018 -0.1490 -0.4015
 4539TIP3    H135252   5.207  -0.025   7.735 -0.1057 -0.5939 -1.1347
 4539TIP3    H235253   5.286   0.100   7.771 -1.3666 -0.1412  0.1385
 4540TIP3   OH235254   3.868   4.824   7.705  0.2340 -0.1803 -0.5827
 4540TIP3    H135255   3.874   4.906   7.754 -0.4524 -0.7480  0.4622
 4540TIP3    H235256   3.825   4.848   7.623 -0.5984  0.3736  0.0118
 4541TIP3   OH235257   1.401   1.948   0.500  0.4852 -0.2072 -0.1947
 4541TIP3    H135258   1.415   1.925   0.408  2.2728 -0.7197  0.1697
 4541TIP3    H235259   1.351   2.030   0.498  0.2745 -0.3556 -1.6026
 4542TIP3   OH235260   2.803   0.138   7.341 -0.0604 -0.1926 -0.4647
 4542TIP3    H135261   2.832   0.229   7.343 -0.5692  0.0154 -1.7333
 4542TIP3    H235262   2.882   0.088   7.321 -0.2562  0.2405 -2.4872
 4543TIP3   OH235263   0.284   5.656   1.032  0.1191 -0.0330 -0.6572
 4543TIP3    H135264   0.354   5.608   0.988  0.9225  0.7946 -0.3193
 4543TIP3    H235265   0.266   5.730   0.975  0.8992  0.8334  0.1810
 4544TIP3   OH235266   6.478   0.711   0.358  0.3984 -0.5318 -0.1921
 4544TIP3    H135267   6.391   0.672   0.369  1.0807 -1.8631  0.8399
 4544TIP3    H235268   6.499   0.747   0.444  0.7760  0.0210 -0.5076
 4545TIP3   OH235269   3.686   2.776   1.150  0.7157  0.3451  0.2438
 4545TIP3    H135270   3.722   2.792   1.063 -1.1257  1.9002 -0.2866
 4545TIP3    H235271   3.613   2.715   1.135  1.0965 -0.2964  0.8848
 4546TIP3   OH235272   3.271   1.373   7.435 -0.0669  0.3166  0.0193
 4546TIP3    H135273   3.333   1.425   7.383 -1.2444  2.2135  0.3852
 4546TIP3    H235274   3.322   1.299   7.467  0.9259 -0.4749 -3.0943
 4547TIP3   OH235275   6.896   0.450   0.238  0.0589  0.5726 -0.1212
 4547TIP3    H135276   6.803   0.426   0.243  0.2982 -0.6726 -1.1548
 4547TIP3    H235277   6.899   0.519   0.171 -0.2963  1.7161  1.0054
 4548TIP3   OH235278   4.700   0.688   8.620 -0.3839 -0.8579  0.4762
 4548TIP3    H135279   4.779   0.737   8.597  0.4156 -1.3759  1.9940
 4548TIP3    H235280   4.717   0.600   8.588  0.5788 -1.4898  2.5564
 4549TIP3   OH235281   3.257   5.584   8.522 -0.8344  0.5191  0.4793
 4549TIP3    H135282   3.226   5.623   8.441  0.6639 -2.0921 -1.5263
 4549TIP3    H235283   3.350   5.607   8.526 -0.1216 -1.9084 -0.3228
 4550TIP3   OH235284   6.505   0.129   1.663 -0.0918  0.2421  0.8048
 4550TIP3    H135285   6.471   0.042   1.685 -0.2995  0.0704 -0.1378
 4550TIP3    H235286   6.526   0.123   1.570 -1.3503  1.5920  0.3997
 4551TIP3   OH235287   2.213   0.052   2.085 -0.2082 -0.2264 -0.8844
 4551TIP3    H135288   2.306   0.065   2.062  0.0069 -0.8167 -0.3803
 4551TIP3    H235289   2.191   0.126   2.141  0.3016 -0.6815 -0.0527
 4552TIP3   OH235290   1.592   0.495   2.330  0.0328  0.1138 -0.3927
 4552TIP3    H135291   1.608   0.453   2.414  0.6622 -0.0169 -0.5733
 4552TIP3    H235292   1.638   0.579   2.335 -0.7721  0.5655 -0.2358
 4553TIP3   OH235293   3.101   0.607   6.254 -0.1885  0.7153  0.0854
 4553TIP3    H135294   3.185   0.647   6.232 -0.5254  2.0140  1.0169
 4553TIP3    H235295   3.123   0.532   6.308  0.7355 -3.0367 -4.8016
 4554TIP3   OH235296   6.106   1.447   1.504  0.3517 -0.2186 -0.7006
 4554TIP3    H135297   6.128   1.354   1.516  0.6685 -0.2293 -1.3324
 4554TIP3    H235298   6.025   1.458   1.553  1.0135 -0.5068  0.5181
 4555TIP3   OH235299   4.471   4.959   0.503 -0.7240 -0.3663 -0.4676
 4555TIP3    H135300   4.454   4.907   0.425  0.4645  0.7698 -1.5291
 4555TIP3    H235301   4.386   4.999   0.524 -1.0316 -0.6140 -1.2287
 4556TIP3   OH235302   2.810   4.347   1.245 -0.4170  0.2834  0.7542
 4556TIP3    H135303   2.792   4.258   1.277 -0.9810  0.9928  2.5226
 4556TIP3    H235304   2.751   4.403   1.295 -0.5105  1.6229 -0.7662
 4557TIP3   OH235305   6.097   5.339   7.409  0.6487  0.0406 -0.4653
 4557TIP3    H135306   6.175   5.286   7.428 -0.4897 -1.0919  1.3016
 4557TIP3    H235307   6.124   5.429   7.427  1.4238 -0.3895  0.5739
 4558TIP3   OH235308   0.082   3.664   1.545 -0.1670 -0.0755  0.1497
 4558TIP3    H135309   0.114   3.734   1.488 -0.8943  0.4834  0.4157
 4558TIP3    H235310   0.044   3.600   1.485 -2.5313  1.3174  0.0300
 4559TIP3   OH235311   5.186   3.163   7.640 -0.3791 -0.0051 -0.2569
 4559TIP3    H135312   5.102   3.177   7.684  0.8343  0.6107  2.0206
 4559TIP3    H235313   5.225   3.088   7.686  1.8617  1.9716  1.3195
 4560TIP3   OH235314   2.992   0.065   0.411  0.2402  0.0171 -0.0552
 4560TIP3    H135315   2.991   0.063   0.507  1.0968  0.2023 -0.0354
 4560TIP3    H235316   3.065   0.122   0.389  1.0818 -1.3163 -0.8330
 4561TIP3   OH235317   6.638   5.441   7.089  0.2090 -0.0768 -0.6826
 4561TIP3    H135318   6.636   5.532   7.061  1.1981 -0.2621 -1.3955
 4561TIP3    H235319   6.624   5.445   7.183 -1.2384  0.6972 -0.9098
 4562TIP3   OH235320   4.570   4.662   0.060  0.1229 -0.3936 -0.1775
 4562TIP3    H135321   4.582   4.739   0.005 -0.7667 -0.6814 -0.7906
 4562TIP3    H235322   4.592   4.588   0.003 -1.8666 -0.7650 -0.5278
 4563TIP3   OH235323   5.310   6.393   0.815 -0.5619 -0.4398 -0.2080
 4563TIP3    H135324   5.254   6.324   0.780  1.2494 -1.7055 -0.7748
 4563TIP3    H235325   5.352   6.431   0.738  0.5086 -0.5844  0.2809
 4564TIP3   OH235326   3.586   2.774   0.664 -0.1745 -0.5983  0.6075
 4564TIP3    H135327   3.605   2.816   0.748 -0.4936 -0.4040  0.5860
 4564TIP3    H235328   3.512   2.716   0.682 -0.3512 -0.4326  0.4264
 4565TIP3   OH235329   5.256   5.251   7.015  0.7467 -0.0029  0.2854
 4565TIP3    H135330   5.205   5.222   6.939  0.6222  0.1199  0.3208
 4565TIP3    H235331   5.209   5.215   7.090 -0.1073  1.2818  0.4070
 4566TIP3   OH235332   1.545   6.070   1.601 -0.3966  0.1535 -0.0610
 4566TIP3    H135333   1.639   6.085   1.610 -0.5428  0.4965  1.1558
 4566TIP3    H235334   1.537   6.002   1.535  0.6386  1.0180 -1.1275
 4567TIP3   OH235335   6.279   3.213   0.763  0.1767  0.4815  0.1475
 4567TIP3    H135336   6.367   3.251   0.766  0.2768  0.7317 -2.8084
 4567TIP3    H235337   6.220   3.288   0.767  0.1863  0.5076 -0.1734
 4568TIP3   OH235338   3.709   5.553   8.074  0.6741 -0.2495  0.7228
 4568TIP3    H135339   3.619   5.527   8.095  0.7882  0.2822  1.9751
 4568TIP3    H235340   3.742   5.482   8.018 -0.8851  0.1233 -0.7341
 4569TIP3   OH235341   1.785   3.063   1.555 -1.0077  0.4959 -0.5195
 4569TIP3    H135342   1.866   3.110   1.534 -0.1167 -1.5883 -2.1808
 4569TIP3    H235343   1.770   3.080   1.647  1.6271  0.5809 -0.0335
 4570TIP3   OH235344   3.634   2.072   8.378  0.2751 -0.6218  0.1627
 4570TIP3    H135345   3.692   2.054   8.451  2.2668 -0.8406 -1.3931
 4570TIP3    H235346   3.647   1.999   8.317 -0.8360 -0.1319 -0.7057
 4571TIP3   OH235347   6.832   0.123   7.826 -0.0112 -0.3236  0.2936
 4571TIP3    H135348   6.743   0.151   7.804  0.4542  0.3881 -0.7745
 4571TIP3    H235349   6.863   0.078   7.747  1.0121  0.5645  0.1499
 4572TIP3   OH235350   3.728   6.140   8.032 -0.0283 -0.3775  0.3018
 4572TIP3    H135351   3.675   6.066   8.061 -1.4864 -0.1372 -1.5665
 4572TIP3    H235352   3.689   6.166   7.948  1.9914  0.9217 -0.3074
 4573TIP3   OH235353   3.805   0.146   0.214  0.0778 -0.0205  0.0388
 4573TIP3    H135354   3.730   0.149   0.154  1.3412 -0.3683 -1.6435
 4573TIP3    H235355   3.861   0.077   0.179  2.5070  2.0273 -0.4753
 4574TIP3   OH235356   1.043   6.384   8.639 -0.1177  0.0361  0.2008
 4574TIP3    H135357   1.112   6.434   8.595 -0.4731  0.2339 -0.1387
 4574TIP3    H235358   1.002   6.333   8.568  0.0300 -0.4896  0.4883
 4575TIP3   OH235359   3.756   0.037   1.537  0.0660 -0.2152  0.3422
 4575TIP3    H135360   3.718   0.048   1.624 -0.2879  1.2330  0.0359
 4575TIP3    H235361   3.849   0.054   1.549  0.2636 -1.4616  0.6809
 4576TIP3   OH235362   6.280   0.012   0.863  0.0690 -0.1044  0.0126
 4576TIP3    H135363   6.295  -0.032   0.780 -0.6219 -0.6898  0.1885
 4576TIP3    H235364   6.356  -0.010   0.917  0.1571 -0.3400 -0.2087
 4577TIP3   OH235365   1.216   1.871   1.232 -0.4757 -0.1462  0.2435
 4577TIP3    H135366   1.134   1.845   1.191  0.3086  0.1443 -1.6097
 4577TIP3    H235367   1.198   1.957   1.271 -1.2868 -0.5095  0.6858
 4578TIP3   OH235368   1.624   6.041   0.401  0.1688 -0.2852 -0.4942
 4578TIP3    H135369   1.689   5.973   0.419 -2.1333 -2.8453 -1.3245
 4578TIP3    H235370   1.643   6.069   0.311  0.8231 -0.1471 -0.3182
 4579TIP3   OH235371   5.334   1.850   0.743 -0.5243 -0.0308 -0.5463
 4579TIP3    H135372   5.335   1.924   0.804 -1.7886 -1.0574  0.8044
 4579TIP3    H235373   5.390   1.784   0.784 -1.7282 -0.8946 -0.2288
 4580TIP3   OH235374   2.986   0.287   6.445 -0.4360 -0.3475  0.0313
 4580TIP3    H135375   2.903   0.318   6.482  0.5844 -0.2862  2.4650
 4580TIP3    H235376   2.962   0.214   6.389 -2.3816  1.4189 -1.6215
 4581TIP3   OH235377   4.909   4.534   7.048 -0.1289  0.0379 -0.3260
 4581TIP3    H135378   4.867   4.482   6.980 -2.3461 -0.8938  1.6225
 4581TIP3    H235379   4.958   4.471   7.101  1.7069  0.7711 -1.0711
 4582TIP3   OH235380   3.283   1.104   0.017 -0.5907  0.1744 -0.4660
 4582TIP3    H135381   3.293   1.097  -0.078  1.2374 -0.8092 -0.2361
 4582TIP3    H235382   3.333   1.181   0.042 -2.2111  1.2625 -0.4121
 4583TIP3   OH235383   3.813   5.805   8.141 -0.3716 -0.6880  0.0212
 4583TIP3    H135384   3.781   5.715   8.146 -0.3691 -0.6433  1.1711
 4583TIP3    H235385   3.735   5.858   8.125 -0.5836 -0.7643  0.7877
 4584TIP3   OH235386   3.060   5.417   2.017 -0.1466  0.1708  0.1804
 4584TIP3    H135387   2.998   5.393   1.948  0.5549 -0.1706 -0.3437
 4584TIP3    H235388   3.080   5.335   2.062 -0.1111  0.2839  0.3729
 4585TIP3   OH235389   5.400   0.303   1.682  0.4897 -0.3876 -0.1047
 4585TIP3    H135390   5.491   0.293   1.652  0.3767  0.2175 -0.6873
 4585TIP3    H235391   5.406   0.362   1.757  0.6717 -1.1213  0.4702
 4586TIP3   OH235392   6.759   1.387   0.740 -0.0458 -0.2154  0.7181
 4586TIP3    H135393   6.833   1.391   0.801 -0.7679 -0.2448  1.6263
 4586TIP3    H235394   6.767   1.467   0.688 -0.7077  1.0583  2.4457
 4587TIP3   OH235395   2.489   4.251   7.101 -0.4302 -0.9414  0.4277
 4587TIP3    H135396   2.445   4.325   7.142 -1.4454 -1.4829  0.3404
 4587TIP3    H235397   2.552   4.221   7.166  1.4521  1.2151 -0.2663
 4588TIP3   OH235398   5.774   4.739   1.067 -0.4104 -0.7270 -0.2795
 4588TIP3    H135399   5.790   4.674   0.999  1.3392 -0.6481  0.0146
 4588TIP3    H235400   5.844   4.804   1.056 -2.1995  1.2586 -0.6870
 4589TIP3   OH235401   4.918   2.678   6.738  0.8168  0.3065 -0.1156
 4589TIP3    H135402   4.839   2.636   6.772  0.5234  1.3561  0.5306
 4589TIP3    H235403   4.923   2.649   6.647  0.0469 -0.2849  0.0225
 4590TIP3   OH235404   0.285   5.847   7.997  0.7388  0.2487  0.4389
 4590TIP3    H135405   0.199   5.884   8.018  0.4096  0.4455 -1.1512
 4590TIP3    H235406   0.267   5.756   7.975  1.1391 -0.0702  1.3787
 4591TIP3   OH235407   0.126   3.931   1.646 -0.0850 -0.1874 -0.0160
 4591TIP3    H135408   0.103   3.938   1.739  1.3063  0.1793  0.3283
 4591TIP3    H235409   0.117   4.020   1.612 -1.0221 -0.4008 -0.3570
 4592TIP3   OH235410   5.574   0.558   1.825  0.4290  0.1233  0.0006
 4592TIP3    H135411   5.481   0.577   1.817  0.7182  1.1119 -1.2921
 4592TIP3    H235412   5.581   0.505   1.905 -1.1112  0.7817  0.6050
 4593TIP3   OH235413   2.503   2.632   7.734  0.2814 -0.2500 -0.0965
 4593TIP3    H135414   2.483   2.707   7.790  0.5349 -0.9999  1.0348
 4593TIP3    H235415   2.421   2.613   7.689 -0.4845 -0.7990  1.4663
 4594TIP3   OH235416   6.596   2.604   7.053  0.2219 -0.6211  0.4670
 4594TIP3    H135417   6.662   2.673   7.065  0.0956 -0.2430 -0.8505
 4594TIP3    H235418   6.648   2.525   7.035  0.3535 -0.7803  1.4884
 4595TIP3   OH235419   5.624   4.906   2.608  0.1591  0.0277 -0.2850
 4595TIP3    H135420   5.594   4.843   2.673  0.1408 -0.4689 -0.7619
 4595TIP3    H235421   5.555   4.972   2.605  0.5832  0.5341  0.8300
 4596TIP3   OH235422   0.092   6.039   1.185  0.3790  0.0928  0.3462
 4596TIP3    H135423   0.009   6.010   1.221 -1.1327 -0.2034 -2.9504
 4596TIP3    H235424   0.157   5.978   1.219 -1.2133 -1.3791  0.8636
 4597TIP3   OH235425   0.370   4.976   8.255 -0.1303 -0.4006 -0.0942
 4597TIP3    H135426   0.362   4.988   8.350 -0.8330 -1.2160 -0.0423
 4597TIP3    H235427   0.290   5.015   8.219  0.3171  0.2598 -0.3941
 4598TIP3   OH235428   4.088   3.688   0.580  0.0401 -0.4851 -0.0011
 4598TIP3    H135429   4.121   3.707   0.668 -0.2610  0.6765 -0.1325
 4598TIP3    H235430   4.116   3.598   0.563 -0.2394 -0.8593  1.4358
 4599TIP3   OH235431   3.453   0.547   8.502  0.0516 -0.0360 -0.5296
 4599TIP3    H135432   3.386   0.529   8.568  0.1801  1.0452 -0.0822
 4599TIP3    H235433   3.519   0.479   8.516 -1.2186 -1.5152 -1.3947
 4600TIP3   OH235434   5.386   4.165   1.254  0.4025 -0.6959  0.1004
 4600TIP3    H135435   5.324   4.093   1.248  0.9883 -1.3563  1.5879
 4600TIP3    H235436   5.400   4.192   1.163  0.2647 -2.5276 -0.5019
 4601TIP3   OH235437   1.682   2.502   1.279 -0.3310 -0.0432 -0.0427
 4601TIP3    H135438   1.682   2.438   1.351 -0.4392 -0.3898 -0.3492
 4601TIP3    H235439   1.766   2.546   1.287 -1.4520  1.9111  2.0518
 4602TIP3   OH235440   4.181   0.109   7.183 -0.4118 -0.5576  0.5685
 4602TIP3    H135441   4.104   0.161   7.206  1.0384  0.4933  3.6245
 4602TIP3    H235442   4.221   0.087   7.267  1.5011 -2.8987 -0.8084
 4603TIP3   OH235443   4.551   0.884   7.139  0.6989  0.8266  0.0091
 4603TIP3    H135444   4.611   0.939   7.089  2.5095 -2.2045 -1.4602
 4603TIP3    H235445   4.599   0.861   7.218  0.3390  0.6168  0.1719
 4604TIP3   OH235446   1.609   0.785   0.764  0.0829  0.0431 -0.4169
 4604TIP3    H135447   1.522   0.826   0.768  0.1774  0.2040  0.1045
 4604TIP3    H235448   1.645   0.813   0.680 -0.1272  0.4786 -0.3668
 4605TIP3   OH235449   3.163   5.965   7.511 -0.4845  0.0129  0.4680
 4605TIP3    H135450   3.250   5.967   7.471  0.1428  0.0809  1.8043
 4605TIP3    H235451   3.129   6.053   7.497 -0.1820  0.1055  0.2881
 4606TIP3   OH235452   2.584   6.510   0.595  0.0015 -0.7640  0.2101
 4606TIP3    H135453   2.678   6.517   0.582  0.1669 -0.7345  1.2833
 4606TIP3    H235454   2.557   6.434   0.543  0.3160  0.2336 -1.4584
 4607TIP3   OH235455   0.638   6.739   1.446 -0.4542  0.4389 -0.1655
 4607TIP3    H135456   0.635   6.731   1.542 -3.7871  0.9859 -0.1096
 4607TIP3    H235457   0.559   6.695   1.415  0.7786 -0.1448 -2.7724
 4608TIP3   OH235458   6.502   2.156   8.190  0.3357  0.0169  0.3483
 4608TIP3    H135459   6.471   2.154   8.099  2.8305  1.7122 -0.6594
 4608TIP3    H235460   6.468   2.239   8.224 -1.3069 -1.0109  1.2915
 4609TIP3   OH235461   3.576   1.960   0.751  0.3340 -0.5813  0.3378
 4609TIP3    H135462   3.644   1.897   0.775  1.3777  0.7686  0.9960
 4609TIP3    H235463   3.556   2.006   0.832  0.2971  0.6170 -0.3361
 4610TIP3   OH235464   5.266   6.336   1.573 -0.6895  0.3927  0.0130
 4610TIP3    H135465   5.319   6.412   1.595  0.9980 -0.1100 -1.9817
 4610TIP3    H235466   5.252   6.291   1.656  0.3691  1.5911  0.8753
 4611TIP3   OH235467   5.391   1.547   1.936  0.7656 -0.2611 -0.1510
 4611TIP3    H135468   5.470   1.510   1.898  0.1759 -1.0524 -0.6485
 4611TIP3    H235469   5.320   1.512   1.883 -0.1214 -1.6595  1.8026
 4612TIP3   OH235470   5.559   2.034   7.927 -0.0734  0.8668 -0.2848
 4612TIP3    H135471   5.606   2.030   7.843 -0.9981  1.3505 -0.8334
 4612TIP3    H235472   5.532   2.125   7.935  0.5566  0.9749  0.8649
 4613TIP3   OH235473   4.364   3.102   8.026  0.1039  0.3373 -0.5442
 4613TIP3    H135474   4.295   3.150   8.072  0.7281  1.7803 -1.0624
 4613TIP3    H235475   4.317   3.031   7.981 -1.0759  1.3125 -0.9347
 4614TIP3   OH235476   0.525   5.981   7.967  0.0386  0.1190  0.1551
 4614TIP3    H135477   0.449   5.931   7.998 -0.3305  0.5111 -0.0926
 4614TIP3    H235478   0.540   5.949   7.878  0.7104 -0.5687  0.5080
 4615TIP3   OH235479   1.407   5.535   7.779  0.4046  0.3409 -0.4004
 4615TIP3    H135480   1.476   5.502   7.836 -0.4969 -0.9658 -0.0334
 4615TIP3    H235481   1.435   5.509   7.691 -0.1479 -1.2121 -0.1461
 4616TIP3   OH235482   6.712   4.836   6.703 -0.0416  0.4363  0.2057
 4616TIP3    H135483   6.662   4.881   6.771 -0.0275 -0.5702  0.9070
 4616TIP3    H235484   6.735   4.752   6.742  0.5560  0.1102 -0.8069
 4617TIP3   OH235485   3.859   0.976   7.368  0.5161  0.1560 -0.1073
 4617TIP3    H135486   3.857   0.900   7.426 -0.4935  1.2928  1.4171
 4617TIP3    H235487   3.947   0.975   7.330  1.4028 -0.3816  1.8213
 4618TIP3   OH235488   0.457   3.793   8.194 -0.2493  0.6860 -0.4392
 4618TIP3    H135489   0.533   3.838   8.230  0.1815 -0.6405  0.3706
 4618TIP3    H235490   0.408   3.862   8.148  0.8286  1.7851  0.0007
 4619TIP3   OH235491   0.047   6.288   2.262  0.7036  0.1389 -0.2326
 4619TIP3    H135492   0.136   6.321   2.273  1.1545 -0.2123 -2.3622
 4619TIP3    H235493   0.010   6.289   2.350  2.3750  1.5148  0.5179
 4620TIP3   OH235494   3.903   3.353   0.865  0.4681  0.2910 -0.1926
 4620TIP3    H135495   3.875   3.282   0.923 -0.0049  0.5752 -0.0635
 4620TIP3    H235496   3.832   3.361   0.801  0.0055  1.3316  0.4132
 4621TIP3   OH235497   2.683   0.661   2.248 -0.1310  0.2764  0.1272
 4621TIP3    H135498   2.719   0.590   2.302 -0.7214 -0.3491 -0.2876
 4621TIP3    H235499   2.597   0.679   2.287 -0.7121 -0.4158 -0.7916
 4622TIP3   OH235500   0.065   6.225   1.999 -0.6852  0.1378  0.7669
 4622TIP3    H135501   0.038   6.248   2.088  0.2702  1.4440  0.7406
 4622TIP3    H235502   0.106   6.139   2.008 -0.3449  0.3806  1.6337
 4623TIP3   OH235503   5.514   4.103   7.835 -0.8515 -0.6196 -0.3313
 4623TIP3    H135504   5.597   4.145   7.856 -1.4155  0.6889 -0.6341
 4623TIP3    H235505   5.448   4.170   7.852 -1.6778 -0.9409 -2.0518
 4624TIP3   OH235506   0.941   0.304   0.862  0.5756  0.2951 -0.3969
 4624TIP3    H135507   0.869   0.250   0.895  0.4692 -0.0050 -1.1092
 4624TIP3    H235508   1.016   0.245   0.858  0.9660  0.6863  0.6565
 4625TIP3   OH235509   3.219   0.221   0.422 -0.1991 -0.6223 -0.1005
 4625TIP3    H135510   3.199   0.259   0.508 -1.2892 -0.2852 -0.4871
 4625TIP3    H235511   3.293   0.272   0.390 -0.2562 -0.2651  0.3329
 4626TIP3   OH235512   1.091   3.299   0.423  0.5303 -0.1598  0.2740
 4626TIP3    H135513   1.011   3.311   0.474 -0.6863 -0.3141 -1.5332
 4626TIP3    H235514   1.106   3.205   0.423 -0.3852 -0.3221 -0.9602
 4627TIP3   OH235515   1.937   2.842   0.803  0.1400  0.0669 -0.1331
 4627TIP3    H135516   1.958   2.934   0.822  0.5884  0.5599 -2.6515
 4627TIP3    H235517   1.850   2.845   0.763  1.4191 -0.1265 -3.1538
 4628TIP3   OH235518   3.393   4.731   1.139  0.1612  0.2185  0.0361
 4628TIP3    H135519   3.347   4.684   1.208  0.3791  0.0420  0.0626
 4628TIP3    H235520   3.476   4.757   1.179  0.6095 -0.5361 -0.3805
 4629TIP3   OH235521   3.331   5.437   0.273  0.0388  0.4225  0.0461
 4629TIP3    H135522   3.296   5.521   0.241  0.6024  0.5487 -0.2579
 4629TIP3    H235523   3.406   5.420   0.216  0.5066  0.1869  0.7273
 4630TIP3   OH235524   0.604   0.555   1.857  0.5015  0.2947 -0.1475
 4630TIP3    H135525   0.536   0.623   1.850 -0.0296 -0.3475 -2.0609
 4630TIP3    H235526   0.564   0.487   1.912 -0.2187  0.1641 -0.8096
 4631TIP3   OH235527   5.513   4.605   0.782 -0.0584 -0.0301 -0.0881
 4631TIP3    H135528   5.462   4.555   0.717  0.0937 -1.8466  1.1114
 4631TIP3    H235529   5.448   4.648   0.836 -0.4060 -1.9821  1.1584
 4632TIP3   OH235530   5.372   5.495   0.115  0.1447  0.3952  0.6734
 4632TIP3    H135531   5.445   5.554   0.128 -0.3404  1.3290 -0.6021
 4632TIP3    H235532   5.338   5.477   0.203  3.6460 -2.4509  1.6682
 4633TIP3   OH235533   0.989   1.078   0.670 -0.1964  0.1897 -0.2473
 4633TIP3    H135534   0.923   1.085   0.602  0.1881  0.6818 -0.5772
 4633TIP3    H235535   0.988   0.986   0.696 -0.8042  0.1378 -0.4535
 4634TIP3   OH235536   4.261   1.851   7.187 -0.9549  0.3718  0.7064
 4634TIP3    H135537   4.257   1.852   7.091 -1.9911  1.2113  0.7399
 4634TIP3    H235538   4.298   1.936   7.210 -1.9220  0.7132  1.0693
 4635TIP3   OH235539   2.645   3.905   7.726 -0.5089  0.4711  0.1253
 4635TIP3    H135540   2.733   3.919   7.692  0.3451 -1.0596  1.5774
 4635TIP3    H235541   2.646   3.942   7.814 -0.7529 -1.0472  0.8062
 4636TIP3   OH235542   3.012   4.720   1.356 -0.3703  0.4514 -0.0375
 4636TIP3    H135543   3.089   4.663   1.349 -0.9542 -0.4306  0.4826
 4636TIP3    H235544   2.964   4.705   1.275 -0.2779  0.5726 -0.1146
 4637TIP3   OH235545   3.548   2.170   7.215 -0.3459  0.1907  0.5653
 4637TIP3    H135546   3.513   2.108   7.278 -1.3830  0.7484  0.5592
 4637TIP3    H235547   3.472   2.200   7.166  0.0810  1.6693  0.7563
 4638TIP3   OH235548   5.698   4.127   2.253 -0.4227 -0.0513 -0.0508
 4638TIP3    H135549   5.787   4.143   2.283 -1.0212  0.6391  1.4856
 4638TIP3    H235550   5.649   4.204   2.282 -1.3036  0.1698 -1.9385
 4639TIP3   OH235551   4.015   6.488   1.824  0.1554  0.3212 -0.3711
 4639TIP3    H135552   4.089   6.473   1.883 -0.9974  0.3531  1.1247
 4639TIP3    H235553   4.053   6.481   1.736  1.8852  0.1360  0.3566
 4640TIP3   OH235554   5.172   5.125   6.786  0.4444  0.3406  0.0074
 4640TIP3    H135555   5.111   5.095   6.719 -0.2545 -0.7596  1.1047
 4640TIP3    H235556   5.238   5.055   6.792 -0.2718 -0.2586  1.4145
 4641TIP3   OH235557   5.193   0.243   1.504 -0.3588  0.4068 -0.1257
 4641TIP3    H135558   5.162   0.327   1.472 -0.5942 -0.4572 -2.3052
 4641TIP3    H235559   5.282   0.261   1.535  0.4548  1.0567 -2.6473
 4642TIP3   OH235560   4.649   6.896   1.820 -0.5036  0.6335  0.1965
 4642TIP3    H135561   4.570   6.913   1.768 -0.4014 -1.7585 -0.8667
 4642TIP3    H235562   4.620   6.835   1.888  0.3539 -0.0344 -0.0201
 4643TIP3   OH235563   6.771   3.559   1.178 -0.0114  0.1596 -0.1855
 4643TIP3    H135564   6.803   3.629   1.121 -0.7056  0.0237 -0.7568
 4643TIP3    H235565   6.796   3.478   1.133  1.3300  0.0051  0.7732
 4644TIP3   OH235566   6.690   4.707   7.013 -0.1790 -0.3693 -1.1381
 4644TIP3    H135567   6.770   4.704   7.066 -0.3842 -0.1477 -0.8110
 4644TIP3    H235568   6.619   4.705   7.078 -0.4333 -0.2164 -1.4142
 4645TIP3   OH235569   2.171   4.838   5.869  0.3540  0.1622 -0.0964
 4645TIP3    H135570   2.098   4.899   5.875  1.4952  1.5337  0.5068
 4645TIP3    H235571   2.130   4.753   5.852 -1.2543  1.1626 -1.6158
 4646TIP3   OH235572   5.121   4.385   1.118  0.0191  0.1576 -0.2152
 4646TIP3    H135573   5.039   4.339   1.096 -0.6022  0.3612  1.5242
 4646TIP3    H235574   5.189   4.318   1.110 -0.6163 -0.5830  0.3957
 4647TIP3   OH235575   3.787   1.472   0.404  1.2146  0.4886 -0.7097
 4647TIP3    H135576   3.858   1.481   0.468  1.3602  0.7490 -0.9065
 4647TIP3    H235577   3.757   1.382   0.415  0.8691  0.6937  0.1033
 4648TIP3   OH235578   1.015   6.084   7.628  0.4933 -0.0377 -0.4812
 4648TIP3    H135579   1.011   6.179   7.623  2.2871  0.2080  1.4809
 4648TIP3    H235580   1.013   6.064   7.721 -1.9778 -2.1246 -0.8430
 4649TIP3   OH235581   4.157   3.855   6.775  0.1591 -0.4241  0.2577
 4649TIP3    H135582   4.174   3.893   6.689  2.1683 -0.8794  0.4120
 4649TIP3    H235583   4.119   3.769   6.756  1.8627 -1.1074 -0.2485
 4650TIP3   OH235584   6.649   1.685   7.088 -0.2811  0.0692 -0.6089
 4650TIP3    H135585   6.629   1.613   7.029 -3.8815  1.4400 -1.3441
 4650TIP3    H235586   6.695   1.749   7.034  0.0518 -0.3393 -0.8132
 4651TIP3   OH235587   5.717   4.381   8.234 -0.0292 -0.0180  0.4534
 4651TIP3    H135588   5.637   4.431   8.251  0.1991  0.6847 -0.4932
 4651TIP3    H235589   5.743   4.405   8.146  0.2653 -1.6034  0.0777
 4652TIP3   OH235590   2.211   1.307   6.849 -0.3837  1.0497  0.1785
 4652TIP3    H135591   2.130   1.257   6.856  0.1710 -0.2813 -1.7143
 4652TIP3    H235592   2.264   1.278   6.923 -0.9231  0.4920  0.3531
 4653TIP3   OH235593   0.780   2.515   0.675  0.8207  0.0861  0.3939
 4653TIP3    H135594   0.709   2.451   0.671  0.6385  0.3505 -1.8899
 4653TIP3    H235595   0.782   2.542   0.767 -0.0370 -2.1048  1.1243
 4654TIP3   OH235596   1.573   0.727   6.978  0.4817  0.1421  0.1323
 4654TIP3    H135597   1.666   0.717   6.956  0.3758 -1.1736  0.1839
 4654TIP3    H235598   1.553   0.817   6.956  1.7970  0.4768  0.1857
 4655TIP3   OH235599   2.484   6.017   0.037 -0.7355 -0.4147 -0.5934
 4655TIP3    H135600   2.412   5.966   0.075  0.1782  0.7048  3.0002
 4655TIP3    H235601   2.563   5.971   0.066  0.0519  0.5852 -1.1046
 4656TIP3   OH235602   5.125   2.736   7.574  0.0719  0.0783 -0.0572
 4656TIP3    H135603   5.145   2.815   7.523 -0.9850  0.9824  0.8801
 4656TIP3    H235604   5.032   2.721   7.559  0.1558 -0.7169  0.1714
 4657TIP3   OH235605   0.695   4.286   0.761 -0.5695  0.4292  0.1168
 4657TIP3    H135606   0.689   4.210   0.819  0.0074  0.5702  0.3643
 4657TIP3    H235607   0.758   4.261   0.694  0.7153  1.1869  0.9928
 4658TIP3   OH235608   6.226   2.314   2.358  0.0093 -0.5902 -0.1313
 4658TIP3    H135609   6.210   2.227   2.321  0.9599 -0.3770 -1.0854
 4658TIP3    H235610   6.300   2.302   2.417  0.9117 -0.2162 -1.1654
 4659TIP3   OH235611   5.089   5.571   0.027  0.0144  0.1446  0.0174
 4659TIP3    H135612   5.163   5.533   0.075 -0.9466  0.0914  1.5550
 4659TIP3    H235613   5.036   5.495   0.002  0.5766  0.1654 -1.2813
 4660TIP3   OH235614   5.807   6.606   1.006 -0.4589 -0.5302  0.2037
 4660TIP3    H135615   5.896   6.616   1.039  0.5082 -0.4846 -2.2208
 4660TIP3    H235616   5.802   6.515   0.976 -1.1547 -0.4529  0.0623
 4661TIP3   OH235617   1.470   1.338   7.927 -0.8746 -0.3444 -0.0230
 4661TIP3    H135618   1.418   1.343   7.846 -0.1783  2.2057 -0.4174
 4661TIP3    H235619   1.472   1.428   7.959  1.7554 -0.6654  0.9604
 4662TIP3   OH235620   1.012   3.673   0.475 -0.0007 -0.1592 -0.4604
 4662TIP3    H135621   1.024   3.729   0.552  1.7403 -0.8241 -0.1894
 4662TIP3    H235622   1.044   3.725   0.402 -1.7798  0.5233 -0.8033
 4663TIP3   OH235623   6.513   5.917   2.545  0.2180  0.1095 -0.3890
 4663TIP3    H135624   6.601   5.949   2.565  0.3007 -1.0657  1.2653
 4663TIP3    H235625   6.527   5.835   2.497  0.0474 -0.5249  0.6244
 4664TIP3   OH235626   2.851   1.514   2.033  0.0611  0.2623  0.0336
 4664TIP3    H135627   2.772   1.486   1.987  0.5918  0.9353 -1.3482
 4664TIP3    H235628   2.887   1.584   1.979 -0.1944  2.3343  2.3856
 4665TIP3   OH235629   5.899   3.353   2.394  0.3010  0.4470 -0.5422
 4665TIP3    H135630   5.966   3.294   2.431  0.8056  0.0285 -2.0413
 4665TIP3    H235631   5.896   3.427   2.455  0.8487 -0.3523  0.4979
 4666TIP3   OH235632   6.151   6.866   7.909 -0.0016 -0.4916  0.6970
 4666TIP3    H135633   6.151   6.865   8.005 -0.8395 -1.1860  0.7003
 4666TIP3    H235634   6.073   6.815   7.885 -0.3457  0.4938 -0.3444
 4667TIP3   OH235635   1.959   6.397   1.209  0.3199  0.0565 -1.0200
 4667TIP3    H135636   1.993   6.317   1.169 -0.9334 -0.6973 -0.6194
 4667TIP3    H235637   1.870   6.375   1.236  0.5496  1.0459  0.7099
 4668TIP3   OH235638   1.292   3.159   6.489  0.1061 -0.2374  0.8592
 4668TIP3    H135639   1.271   3.158   6.395 -1.9628  0.2921  1.2618
 4668TIP3    H235640   1.291   3.251   6.513  0.0160 -0.4076  1.5301
 4669TIP3   OH235641   0.349   2.983   1.743 -0.0511  0.0158 -0.2230
 4669TIP3    H135642   0.413   2.966   1.674  0.8913 -0.1108  0.6626
 4669TIP3    H235643   0.264   2.964   1.702  0.4970 -0.1444 -1.3115
 4670TIP3   OH235644   6.266   4.254   1.630  0.1907 -0.2997  0.1742
 4670TIP3    H135645   6.207   4.182   1.656  1.4231 -0.9672  1.2210
 4670TIP3    H235646   6.208   4.328   1.615 -1.2021 -1.6427 -1.5532
 4671TIP3   OH235647   4.312   2.558   0.983 -0.5703 -0.1847  0.0703
 4671TIP3    H135648   4.402   2.544   0.955 -0.9124  0.7228 -1.6613
 4671TIP3    H235649   4.279   2.472   1.007 -0.1871 -1.0669 -2.3521
 4672TIP3   OH235650   3.709   2.679   8.060 -0.3513 -0.5897  0.4071
 4672TIP3    H135651   3.638   2.729   8.019  1.1754  0.1638 -1.4816
 4672TIP3    H235652   3.670   2.593   8.077 -1.0850 -1.1180 -3.0282
 4673TIP3   OH235653   3.549   2.992   7.394 -0.2376  0.4503  0.3381
 4673TIP3    H135654   3.493   3.045   7.337 -0.7790  0.0681  0.5078
 4673TIP3    H235655   3.501   2.910   7.404  1.1791 -0.6161 -1.0133
 4674TIP3   OH235656   3.795   5.394   7.547  0.7163  0.5123  0.9325
 4674TIP3    H135657   3.799   5.481   7.586 -1.1453  1.3628 -0.5961
 4674TIP3    H235658   3.857   5.397   7.474 -0.8273  1.3291 -0.4082
 4675TIP3   OH235659   3.570   4.263   1.432  0.4638 -0.2089 -0.6917
 4675TIP3    H135660   3.631   4.291   1.501 -1.3409  0.4671  0.7323
 4675TIP3    H235661   3.580   4.327   1.363 -1.3157  2.3005  1.1861
 4676TIP3   OH235662   5.876   4.498   2.498 -0.0215 -0.1044  0.3020
 4676TIP3    H135663   5.960   4.452   2.489  0.1808  0.2581  0.3063
 4676TIP3    H235664   5.814   4.430   2.525 -0.4287 -1.0226 -2.6886
 4677TIP3   OH235665   6.412   1.203   1.056  0.5722  0.3416 -0.3687
 4677TIP3    H135666   6.360   1.125   1.037  2.5903 -0.9018 -1.1240
 4677TIP3    H235667   6.389   1.226   1.146 -0.9816 -0.3488 -0.5591
 4678TIP3   OH235668   3.343   0.822   8.059 -0.3927 -0.0952  0.2593
 4678TIP3    H135669   3.312   0.783   8.141 -0.3133  0.0635  0.3660
 4678TIP3    H235670   3.268   0.873   8.027 -0.7708 -0.9812 -0.2978
 4679TIP3   OH235671   1.276   2.807   7.248  0.2677 -0.3406  0.3488
 4679TIP3    H135672   1.284   2.784   7.156  0.2387  1.6473 -0.1923
 4679TIP3    H235673   1.182   2.803   7.266 -0.0610  2.0140 -0.5294
 4680TIP3   OH235674   6.353   4.188   8.008  0.4463  0.3516 -0.9365
 4680TIP3    H135675   6.327   4.253   8.073  1.0671 -0.5547  0.2604
 4680TIP3    H235676   6.430   4.145   8.046  0.8121 -0.2362 -2.2601
 4681TIP3   OH235677   4.674   0.040   0.620 -0.6337 -0.0383 -0.8244
 4681TIP3    H135678   4.579   0.042   0.632 -0.7077 -1.8183 -0.8267
 4681TIP3    H235679   4.686  -0.005   0.536  0.2167  0.3165 -0.9040
 4682TIP3   OH235680   2.990   0.641   0.353 -0.2074  0.0433 -0.2503
 4682TIP3    H135681   2.945   0.668   0.433  2.1750  0.6654  0.9679
 4682TIP3    H235682   2.984   0.545   0.353 -0.5522  0.0588  0.4720
 4683TIP3   OH235683   1.358   2.642   0.857 -0.3727 -0.3019 -0.5916
 4683TIP3    H135684   1.354   2.657   0.762  0.4258 -0.4039 -0.6425
 4683TIP3    H235685   1.328   2.551   0.868  1.0088 -0.8118 -0.9002
 4684TIP3   OH235686   6.581   6.420   1.135  0.1900 -0.2807  0.7043
 4684TIP3    H135687   6.625   6.335   1.130  0.0529 -0.4582  2.1241
 4684TIP3    H235688   6.614   6.459   1.216  0.1026  0.9448  0.1662
 4685TIP3   OH235689   4.663   5.887   1.696  0.3652 -0.0990  0.2084
 4685TIP3    H135690   4.654   5.793   1.685  0.2215 -0.0838  0.1882
 4685TIP3    H235691   4.577   5.922   1.670  0.8130  0.1324 -1.0088
 4686TIP3   OH235692   1.344   3.049   7.105 -0.5175  0.2943  0.0466
 4686TIP3    H135693   1.430   3.042   7.063 -1.0879 -0.3153 -1.0581
 4686TIP3    H235694   1.345   2.980   7.172 -0.4940 -0.3600 -0.6179
 4687TIP3   OH235695   5.987   5.093   8.166 -0.4061 -0.0150 -0.6010
 4687TIP3    H135696   6.025   5.150   8.232 -0.0160 -0.8038 -0.1364
 4687TIP3    H235697   6.045   5.017   8.163 -1.2643 -0.6777 -0.7604
 4688TIP3   OH235698   5.408   2.859   7.879 -0.3184 -0.0400 -0.4615
 4688TIP3    H135699   5.452   2.828   7.958  0.0710 -0.1666 -0.7273
 4688TIP3    H235700   5.446   2.807   7.808 -0.3481  0.3800 -0.7892
 4689TIP3   OH235701   3.966   3.098   7.505  0.0666 -0.0952  0.5848
 4689TIP3    H135702   3.907   3.165   7.471 -1.4223 -0.4760  2.2606
 4689TIP3    H235703   3.934   3.080   7.593  0.8863 -2.4358  0.4938
 4690TIP3   OH235704   5.745   3.734   1.306  0.7514 -0.0219  0.9120
 4690TIP3    H135705   5.789   3.687   1.377  0.4148 -1.2002  0.3684
 4690TIP3    H235706   5.652   3.730   1.330  0.5077 -1.4937 -0.1784
 4691TIP3   OH235707   6.189   5.613   0.695 -0.8530 -0.1471  0.0687
 4691TIP3    H135708   6.217   5.702   0.673 -0.2869 -0.7269 -1.8090
 4691TIP3    H235709   6.258   5.580   0.752 -0.2594  0.1308 -0.4632
 4692TIP3   OH235710   6.201   5.863   1.897 -0.0325 -0.7081  0.1658
 4692TIP3    H135711   6.205   5.868   1.802 -0.9515 -0.6505  0.1192
 4692TIP3    H235712   6.121   5.815   1.916  0.1122 -0.6805  0.9141
 4693TIP3   OH235713   0.522   4.771   7.816 -0.3862 -0.0448  0.0010
 4693TIP3    H135714   0.447   4.778   7.875 -1.5516  1.1014 -1.5358
 4693TIP3    H235715   0.546   4.679   7.818 -0.9645 -0.1900  1.5520
 4694TIP3   OH235716   3.158   5.915   0.857  0.1571  0.0609 -0.5380
 4694TIP3    H135717   3.210   5.938   0.779 -1.3898  1.2129 -1.2884
 4694TIP3    H235718   3.146   5.998   0.902  2.4037 -0.7985  1.9226
 4695TIP3   OH235719   1.197   4.757   0.704  0.2591 -0.5047 -0.1950
 4695TIP3    H135720   1.282   4.800   0.696  0.1267  0.2791  1.7849
 4695TIP3    H235721   1.179   4.721   0.618  1.4899  1.4146 -1.3336
 4696TIP3   OH235722   0.670   2.524   6.554 -0.1123  0.4374  0.3567
 4696TIP3    H135723   0.701   2.448   6.505 -2.0302 -0.4037  0.3542
 4696TIP3    H235724   0.697   2.507   6.644  0.4838  0.3363  0.1630
 4697TIP3   OH235725   5.113   6.418   8.420  0.4391  0.1820 -0.7819
 4697TIP3    H135726   5.188   6.390   8.473 -1.1289 -1.8345  0.4919
 4697TIP3    H235727   5.105   6.351   8.353 -0.0790  0.5311 -1.0755
 4698TIP3   OH235728   5.479   0.022   1.035 -0.0746  0.6301  0.5546
 4698TIP3    H135729   5.507  -0.045   0.973 -1.1808  0.2609  0.4336
 4698TIP3    H235730   5.557   0.041   1.087  0.6487  0.3518 -0.4048
 4699TIP3   OH235731   2.347   5.198   0.030  0.3498  0.1917 -0.3055
 4699TIP3    H135732   2.367   5.183   0.122 -0.6203 -0.9860 -0.2731
 4699TIP3    H235733   2.346   5.111  -0.009  0.0651  0.6243 -1.2903
 4700TIP3   OH235734   0.016   6.829   7.690 -0.2376 -0.3996  0.8629
 4700TIP3    H135735   0.099   6.781   7.689  0.1766  0.2709  1.8200
 4700TIP3    H235736  -0.049   6.764   7.716 -0.3451 -1.3693 -1.5560
 4701TIP3   OH235737   5.699   1.996   7.237 -0.3222 -0.1497  0.3852
 4701TIP3    H135738   5.695   1.971   7.330  2.0924  3.6871  1.7752
 4701TIP3    H235739   5.786   1.970   7.209 -0.5875 -0.1771 -0.4227
 4702TIP3   OH235740   3.858   0.689   8.441  0.0067  0.3350  0.7216
 4702TIP3    H135741   3.781   0.723   8.487  0.1814 -0.7206  1.8348
 4702TIP3    H235742   3.927   0.752   8.459 -0.1784  0.4259  1.1177
 4703TIP3   OH235743   6.515   6.701   8.366 -0.1773  0.2979 -0.1916
 4703TIP3    H135744   6.423   6.674   8.370 -0.0011 -0.5402 -1.3885
 4703TIP3    H235745   6.561   6.624   8.334  0.9397  0.7545  0.2687
 4704TIP3   OH235746   2.484   2.578   0.749 -0.7661 -0.2419  0.1625
 4704TIP3    H135747   2.575   2.594   0.725 -0.6184 -0.9345  0.2314
 4704TIP3    H235748   2.484   2.575   0.845 -0.6109 -1.5358  0.1444
 4705TIP3   OH235749   6.879   2.486   6.775  0.6062  0.6692 -0.5142
 4705TIP3    H135750   6.813   2.556   6.767  2.7483  2.9192  0.1949
 4705TIP3    H235751   6.955   2.521   6.729  1.5552 -1.5517 -0.7121
 4706TIP3   OH235752   5.557   5.634   2.552  0.1415 -0.4287 -0.2193
 4706TIP3    H135753   5.523   5.705   2.606  1.7983 -0.7235  1.3051
 4706TIP3    H235754   5.490   5.620   2.485 -0.7713  1.7419  0.1640
 4707TIP3   OH235755   1.687   6.278   6.995  0.8755 -0.4153 -0.7042
 4707TIP3    H135756   1.773   6.275   6.952  1.1437 -0.1492 -0.1947
 4707TIP3    H235757   1.707   6.291   7.088  0.2912 -0.6333 -0.5428
 4708TIP3   OH235758   2.983   6.296   6.725 -0.0244 -0.1331  0.7341
 4708TIP3    H135759   3.056   6.260   6.674 -1.0886 -1.6964  0.2182
 4708TIP3    H235760   2.963   6.228   6.789 -0.7389  0.4552  1.1527
 4709TIP3   OH235761   6.180   4.665   7.405 -0.6553 -0.4136 -0.0280
 4709TIP3    H135762   6.237   4.641   7.331 -1.2517  1.4126 -1.1505
 4709TIP3    H235763   6.139   4.747   7.378 -0.5074  0.6094  2.5837
 4710TIP3   OH235764   6.688   4.357   2.047 -0.0959  0.1416 -0.0749
 4710TIP3    H135765   6.755   4.290   2.063 -0.4876 -0.0340  0.9132
 4710TIP3    H235766   6.708   4.426   2.111  0.6272  1.2329 -1.4434
 4711TIP3   OH235767   3.170   6.001   1.432  0.1914  0.3531 -0.3480
 4711TIP3    H135768   3.182   5.925   1.489 -0.1081 -0.0282 -0.7851
 4711TIP3    H235769   3.124   6.065   1.487  1.1282  0.5249  0.2666
 4712TIP3   OH235770   1.777   0.387   6.989 -0.1086  0.6486  0.2709
 4712TIP3    H135771   1.799   0.357   6.901  1.1821 -2.2061  1.4129
 4712TIP3    H235772   1.852   0.442   7.014  0.3921  0.0144  0.1966
 4713TIP3   OH235773   1.995   3.428   6.698 -0.1925 -0.2131  0.1156
 4713TIP3    H135774   1.911   3.435   6.743  0.3840 -0.1107  1.2061
 4713TIP3    H235775   1.974   3.388   6.613 -1.2860 -0.5412  0.5278
 4714TIP3   OH235776   1.694   5.133   1.088  0.2159 -0.3036 -0.7318
 4714TIP3    H135777   1.641   5.093   1.157  1.8782 -0.1618  0.6990
 4714TIP3    H235778   1.684   5.074   1.013  1.0873 -2.4567  0.7309
 4715TIP3   OH235779   0.241   4.672   1.915  0.6757  0.7060  0.1483
 4715TIP3    H135780   0.316   4.731   1.914  1.0289  0.3158 -2.3017
 4715TIP3    H235781   0.279   4.585   1.923  0.3100  0.6317  1.2394
 4716TIP3   OH235782   0.638   2.877   7.007 -0.3645  0.4836  0.0495
 4716TIP3    H135783   0.603   2.947   7.062  2.1302  0.4014  1.8808
 4716TIP3    H235784   0.708   2.838   7.058 -0.6138 -2.3823 -1.5579
 4717TIP3   OH235785   4.642   6.496   7.566  0.1737 -0.3130 -0.1328
 4717TIP3    H135786   4.597   6.558   7.508  1.8332  0.2809 -0.8772
 4717TIP3    H235787   4.672   6.426   7.507  2.2884  0.5295 -0.1387
 4718TIP3   OH235788   1.326   4.862   1.180 -0.1346  0.1818  0.0789
 4718TIP3    H135789   1.312   4.932   1.116  2.1337  0.7233  0.1169
 4718TIP3    H235790   1.381   4.799   1.135  1.1880  0.3850  1.3453
 4719TIP3   OH235791   5.520   1.465   0.333  0.2307  0.0758 -0.1861
 4719TIP3    H135792   5.498   1.528   0.265 -0.4294 -0.2609 -0.3020
 4719TIP3    H235793   5.604   1.428   0.306  0.5115  0.7362 -0.2324
 4720TIP3   OH235794   6.908   1.325   6.855 -0.5482 -0.1687  0.0037
 4720TIP3    H135795   6.877   1.414   6.834  0.6363  0.3973  0.5503
 4720TIP3    H235796   6.840   1.289   6.911 -0.8280  0.5770  0.1638
 4721TIP3   OH235797   3.670   0.390   6.489  1.0774  0.0424 -0.3684
 4721TIP3    H135798   3.760   0.363   6.501  0.9821 -0.2344 -0.2702
 4721TIP3    H235799   3.672   0.448   6.413  1.6087  1.4227  0.6581
 4722TIP3   OH235800   2.839   0.068   1.313  0.0132 -0.4186  0.0699
 4722TIP3    H135801   2.910   0.006   1.298  0.8457  0.9175 -1.8042
 4722TIP3    H235802   2.823   0.062   1.408  2.2428 -1.1582  0.4703
 4723TIP3   OH235803   0.878   2.172   2.080  0.0568  0.1597  0.1094
 4723TIP3    H135804   0.827   2.118   2.020  0.5366  1.4060 -1.4866
 4723TIP3    H235805   0.941   2.111   2.120  0.6104 -0.4855 -1.6615
 4724TIP3   OH235806   5.340   0.050   7.369 -0.7780  0.1468 -0.5299
 4724TIP3    H135807   5.299   0.004   7.443  0.3600 -1.8317 -1.0380
 4724TIP3    H235808   5.299   0.010   7.291  0.8992 -0.7395 -1.0075
 4725TIP3   OH235809   2.782   1.164   0.231 -0.3643 -0.9847  0.3208
 4725TIP3    H135810   2.878   1.161   0.225 -0.3646 -0.3592 -0.1519
 4725TIP3    H235811   2.754   1.076   0.208  0.0492 -0.8241 -0.8802
 4726TIP3   OH235812   6.549   0.926   7.980 -0.3307 -0.7899 -0.2269
 4726TIP3    H135813   6.558   0.943   7.886  0.0794 -0.4900 -0.1324
 4726TIP3    H235814   6.632   0.954   8.018 -1.0935  0.6410  0.4614
 4727TIP3   OH235815   4.928   6.065   1.281 -0.0030 -0.0296  0.6507
 4727TIP3    H135816   4.906   6.036   1.370  1.2980  1.5756  1.5570
 4727TIP3    H235817   5.014   6.106   1.290 -0.1842  0.8539 -1.1982
 4728TIP3   OH235818   1.241   6.618   0.515 -0.0421  0.0520 -0.0131
 4728TIP3    H135819   1.159   6.617   0.465 -1.0446  0.1400  1.5596
 4728TIP3    H235820   1.244   6.532   0.558  0.4824  0.2078  0.2749
 4729TIP3   OH235821   5.419   0.896   0.867  0.6949  0.2770 -0.0767
 4729TIP3    H135822   5.390   0.933   0.950  0.8768  0.8497 -0.2695
 4729TIP3    H235823   5.446   0.806   0.889 -1.9102 -0.5776 -0.0076
 4730TIP3   OH235824   1.568   6.767   1.121  0.4122  0.4123 -0.4272
 4730TIP3    H135825   1.627   6.841   1.113  1.5262 -0.5490 -1.6236
 4730TIP3    H235826   1.480   6.805   1.119  0.9711  1.7338 -0.3009
 4731TIP3   OH235827   2.463   6.399   0.351 -0.4242 -0.0822 -0.6474
 4731TIP3    H135828   2.480   6.342   0.277 -0.3937 -0.0547 -0.6617
 4731TIP3    H235829   2.499   6.484   0.325  0.2268 -0.2535 -0.3141
 4732TIP3   OH235830   4.205   0.529   8.575  0.4347 -0.1828  0.4687
 4732TIP3    H135831   4.133   0.534   8.512 -1.0199 -1.5217  1.9150
 4732TIP3    H235832   4.273   0.479   8.529  0.0942  0.3296 -0.6207
 4733TIP3   OH235833   1.189   3.900   7.065 -0.5308 -0.4797  0.1501
 4733TIP3    H135834   1.124   3.830   7.055 -1.5421  0.5281 -0.5797
 4733TIP3    H235835   1.179   3.953   6.986  1.8887 -0.8394 -0.4874
 4734TIP3   OH235836   3.467   6.724   8.531  0.2240 -0.3005  0.2757
 4734TIP3    H135837   3.535   6.712   8.598  1.0441 -0.9925 -0.6453
 4734TIP3    H235838   3.406   6.652   8.546  0.9707 -1.0894 -0.3547
 4735TIP3   OH235839   2.378   4.643   0.837  0.0901 -0.0847  0.2386
 4735TIP3    H135840   2.426   4.718   0.800 -0.7354  0.5694  0.4617
 4735TIP3    H235841   2.398   4.646   0.931  0.7684 -0.6878  0.1222
 4736TIP3   OH235842   5.104   3.242   8.377  0.3683 -0.7870 -0.1484
 4736TIP3    H135843   5.089   3.334   8.355 -0.2926 -1.3657 -2.2928
 4736TIP3    H235844   5.061   3.231   8.462  1.4611  1.1368  0.7058
 4737TIP3   OH235845   6.210   1.178   1.845  0.0828  0.8536 -0.1722
 4737TIP3    H135846   6.284   1.183   1.906 -0.2887 -0.3005  0.4008
 4737TIP3    H235847   6.136   1.154   1.899 -0.4973  0.9359 -0.9155
 4738TIP3   OH235848   4.496   4.437   6.928 -0.1480 -0.2036  0.0828
 4738TIP3    H135849   4.587   4.413   6.945  0.0137  0.1613 -0.2552
 4738TIP3    H235850   4.463   4.368   6.871 -0.0541 -0.2856  0.1287
 4739TIP3   OH235851   2.611   3.573   0.386 -0.2420  0.3065  0.0441
 4739TIP3    H135852   2.648   3.626   0.457  0.7295  0.2222 -0.3806
 4739TIP3    H235853   2.677   3.505   0.370 -0.2619  0.5459 -1.1796
 4740TIP3   OH235854   2.551   3.516   6.495  0.1476  0.0362  0.3856
 4740TIP3    H135855   2.546   3.612   6.503  0.5730 -0.0601  2.0768
 4740TIP3    H235856   2.643   3.498   6.478 -0.0911 -0.0473 -0.9921
 4741TIP3   OH235857   0.230   6.646   1.543 -0.2553 -0.0906  0.4473
 4741TIP3    H135858   0.278   6.588   1.602 -0.2420  0.0330  0.5586
 4741TIP3    H235859   0.203   6.719   1.598  1.1064  0.8004 -0.0142
 4742TIP3   OH235860   3.260   2.620   7.595  0.1048  0.0911  0.3190
 4742TIP3    H135861   3.289   2.636   7.685  0.5251 -0.0364  0.2116
 4742TIP3    H235862   3.342   2.612   7.545 -0.0667 -1.5633  0.2340
 4743TIP3   OH235863   3.017   1.228   8.574 -0.4658  0.2158  0.0955
 4743TIP3    H135864   2.956   1.170   8.619 -0.2062  1.5455  2.3175
 4743TIP3    H235865   3.101   1.183   8.579 -0.9194 -0.8705 -1.5193
 4744TIP3   OH235866   2.041   0.521   1.546  0.1604  0.4770 -0.4644
 4744TIP3    H135867   1.948   0.529   1.525  0.4151 -1.0032 -2.4027
 4744TIP3    H235868   2.079   0.604   1.518 -0.5567  1.1113  0.3857
 4745TIP3   OH235869   0.286   4.562   7.663  0.4955 -0.1567 -0.3466
 4745TIP3    H135870   0.247   4.648   7.650 -2.5139 -1.1699  1.0521
 4745TIP3    H235871   0.277   4.545   7.756 -0.2820 -2.5252 -0.7885
 4746TIP3   OH235872   4.678   2.230   6.471 -0.3279  0.0132  0.6089
 4746TIP3    H135873   4.772   2.249   6.460 -0.4144  0.3760  0.5056
 4746TIP3    H235874   4.637   2.315   6.483 -0.2985 -0.2620  3.4544
 4747TIP3   OH235875   0.190   4.899   7.253  0.4955  0.0555  0.0526
 4747TIP3    H135876   0.245   4.939   7.321  0.2130  0.6457 -0.0570
 4747TIP3    H235877   0.252   4.864   7.189  0.7572 -0.2153  0.4486
 4748TIP3   OH235878   6.744   4.476   1.373  0.2162 -0.5509  0.0795
 4748TIP3    H135879   6.738   4.384   1.345 -0.3457 -0.9827  1.5412
 4748TIP3    H235880   6.686   4.523   1.313 -0.6615 -1.3791  0.2604
 4749TIP3   OH235881   3.350   3.195   1.170  0.5766  0.0408 -0.4499
 4749TIP3    H135882   3.371   3.250   1.094  0.3176  1.8460  0.7380
 4749TIP3    H235883   3.373   3.248   1.246  2.5452 -2.3934  0.8092
 4750TIP3   OH235884   5.761   1.646   0.116 -0.0719  0.0248 -0.0224
 4750TIP3    H135885   5.779   1.584   0.045 -0.4919  1.9277 -1.8878
 4750TIP3    H235886   5.666   1.646   0.125 -0.1047  0.6266 -0.2921
 4751TIP3   OH235887   2.656   6.199   7.490  0.3827 -0.4091 -0.1090
 4751TIP3    H135888   2.728   6.261   7.481 -0.3752  0.2107 -3.0794
 4751TIP3    H235889   2.640   6.168   7.402 -2.3170 -1.3033  0.5938
 4752TIP3   OH235890   6.265   6.628   7.776  0.0248 -0.0458  0.3464
 4752TIP3    H135891   6.325   6.555   7.790 -1.1249 -1.0642  0.0177
 4752TIP3    H235892   6.267   6.676   7.859 -1.4605 -2.1444  1.6855
 4753TIP3   OH235893   6.710   0.291   1.264  0.4693 -0.3250  0.0996
 4753TIP3    H135894   6.790   0.317   1.311  1.5629 -0.3507 -1.6733
 4753TIP3    H235895   6.704   0.197   1.278  0.1110 -0.1665  1.1372
 4754TIP3   OH235896   1.101   3.725   1.061  0.3328 -0.2242 -0.4088
 4754TIP3    H135897   1.090   3.793   1.128  0.1980 -1.1214  0.5093
 4754TIP3    H235898   1.102   3.773   0.978 -3.4344  0.6265 -0.1307
 4755TIP3   OH235899   0.308   2.281   8.306  0.3148 -0.5445  0.1120
 4755TIP3    H135900   0.267   2.360   8.270 -0.4405 -0.8117  0.3662
 4755TIP3    H235901   0.391   2.311   8.344 -1.2636  0.6768  2.8745
 4756TIP3   OH235902   6.901   3.377   1.972 -0.1802 -0.2352  0.0624
 4756TIP3    H135903   6.889   3.468   1.948  0.0068 -0.0326  0.7002
 4756TIP3    H235904   6.901   3.378   2.068  2.0530 -0.5845  0.1221
 4757TIP3   OH235905   4.692   2.649   1.659  0.5399  0.5256 -0.2017
 4757TIP3    H135906   4.649   2.667   1.742 -0.6663  1.2796 -0.9697
 4757TIP3    H235907   4.682   2.554   1.646 -1.0438  0.7124 -0.4457
 4758TIP3   OH235908   0.029   4.905   0.723 -0.6951  0.0720 -0.2530
 4758TIP3    H135909   0.087   4.886   0.797 -2.5410 -2.0234  0.7806
 4758TIP3    H235910   0.007   4.997   0.732  0.6139  0.3282  0.6639
 4759TIP3   OH235911   1.443   6.517   2.389 -0.0760  0.7902 -0.0606
 4759TIP3    H135912   1.406   6.431   2.408 -0.8796  1.5641  2.0934
 4759TIP3    H235913   1.392   6.578   2.442  2.1148  2.3074  0.4266
 4760TIP3   OH235914   5.390   3.128   7.919  0.1222  0.0466 -0.5149
 4760TIP3    H135915   5.391   3.037   7.888 -1.1596  0.2571 -1.2137
 4760TIP3    H235916   5.361   3.122   8.010 -2.3496 -0.1033 -1.2395
 4761TIP3   OH235917   3.574   5.193   1.350  0.3287  0.1723 -0.0454
 4761TIP3    H135918   3.540   5.271   1.304 -0.6620 -0.6938 -0.8530
 4761TIP3    H235919   3.541   5.203   1.439 -0.3632  0.3709 -0.3067
 4762TIP3   OH235920   6.487   0.972   6.779  0.4181  0.2888 -0.2752
 4762TIP3    H135921   6.536   0.903   6.735 -0.7991 -0.2967 -0.7425
 4762TIP3    H235922   6.480   1.042   6.714  0.2688  0.2072 -0.3449
 4763TIP3   OH235923   1.751   5.931   8.167 -0.2412  0.6269 -0.1769
 4763TIP3    H135924   1.822   5.892   8.116  1.0640  0.0352  1.9782
 4763TIP3    H235925   1.674   5.878   8.145  0.4088  0.0181 -1.0723
 4764TIP3   OH235926   0.400   3.984   8.488  1.0540 -0.1793 -0.0353
 4764TIP3    H135927   0.476   4.022   8.531  1.8464 -0.4839 -1.1299
 4764TIP3    H235928   0.395   4.029   8.403 -0.5965  0.5675  0.4083
 4765TIP3   OH235929   1.944   0.512   0.145  0.4366 -0.1161  0.4991
 4765TIP3    H135930   1.891   0.456   0.088 -1.8433  1.1075  1.2564
 4765TIP3    H235931   1.909   0.601   0.131  0.4113  0.3640  3.0145
 4766TIP3   OH235932   3.418   4.000   8.185  0.3775 -0.1676 -0.2532
 4766TIP3    H135933   3.348   3.978   8.247  1.2845 -0.9563  0.5354
 4766TIP3    H235934   3.469   4.067   8.229 -1.2964  2.3285 -1.8909
 4767TIP3   OH235935   4.062   4.196   1.155  0.4828 -0.0100 -0.2574
 4767TIP3    H135936   4.143   4.247   1.156 -0.0468  0.8374  0.4447
 4767TIP3    H235937   4.009   4.233   1.225 -1.6003  1.1928 -2.3381
 4768TIP3   OH235938   4.564   6.024   7.381 -0.0228  0.5760  0.0875
 4768TIP3    H135939   4.651   6.055   7.404 -0.0053  0.7071 -0.1491
 4768TIP3    H235940   4.525   6.096   7.330  0.3686 -0.1481 -1.2847
 4769TIP3   OH235941   0.913   3.765   7.773  0.3539 -0.0597 -0.3073
 4769TIP3    H135942   0.824   3.746   7.743 -1.2097  1.3788  2.9220
 4769TIP3    H235943   0.928   3.703   7.844  1.3504  0.6698  0.1426
 4770TIP3   OH235944   3.233   1.329   6.970 -0.6947 -0.3027  0.4617
 4770TIP3    H135945   3.243   1.413   7.015  0.3285 -0.6145  0.8426
 4770TIP3    H235946   3.187   1.351   6.889 -0.5300  0.6129  0.5995
 4771TIP3   OH235947   3.660   3.445   0.105  0.9155 -0.2403  0.0390
 4771TIP3    H135948   3.571   3.418   0.085 -0.1088  4.3052 -3.1068
 4771TIP3    H235949   3.652   3.497   0.185  0.1231  2.1627 -1.5140
 4772TIP3   OH235950   3.257   5.335   0.518 -0.3556 -0.1659 -0.8768
 4772TIP3    H135951   3.259   5.401   0.587  2.2216 -0.0804 -0.9399
 4772TIP3    H235952   3.280   5.382   0.438  0.2965 -0.8930 -1.1352
 4773TIP3   OH235953   3.691   6.358   7.668  0.4507  0.2454  0.2149
 4773TIP3    H135954   3.599   6.334   7.655  0.7933 -0.6052 -0.8625
 4773TIP3    H235955   3.690   6.454   7.674 -0.5694  0.2083  0.8561
 4774TIP3   OH235956   2.610   4.111   6.869 -0.4829 -0.1656  0.5394
 4774TIP3    H135957   2.607   4.026   6.913  1.9190 -0.4386  0.3002
 4774TIP3    H235958   2.555   4.168   6.923  1.5140 -0.7261  3.4384
 4775TIP3   OH235959   2.828   4.955   6.817  0.2929 -0.4100 -0.1186
 4775TIP3    H135960   2.879   4.918   6.889 -0.4467  1.8569  1.7212
 4775TIP3    H235961   2.743   4.912   6.823  0.5122 -0.8537 -0.1918
 4776TIP3   OH235962   4.039   5.553   1.686  0.5639 -0.0904 -0.3586
 4776TIP3    H135963   3.956   5.601   1.685  0.3897 -0.3622  0.5243
 4776TIP3    H235964   4.104   5.619   1.711  0.4964 -0.0645 -0.2532
 4777TIP3   OH235965   1.492   6.867   0.519 -0.0170 -0.4741 -0.1626
 4777TIP3    H135966   1.569   6.835   0.566  1.2738  0.2629 -1.6967
 4777TIP3    H235967   1.453   6.932   0.578  1.0282 -0.2204  0.2612
 4778TIP3   OH235968   5.784   1.145   0.472  0.3308  0.1597  0.1232
 4778TIP3    H135969   5.703   1.159   0.521 -1.2161  3.3519 -2.9162
 4778TIP3    H235970   5.801   1.229   0.430  3.9396 -1.1102 -1.3312
 4779TIP3   OH235971   4.204   5.508   8.350 -0.2437  0.4353  0.7372
 4779TIP3    H135972   4.258   5.460   8.288 -0.1955  1.5137 -0.0889
 4779TIP3    H235973   4.208   5.457   8.430 -0.8206 -1.3353 -0.3144
 4780TIP3   OH235974   4.802   0.381   0.464 -0.1085 -0.6749 -0.6192
 4780TIP3    H135975   4.794   0.315   0.532  0.1044 -0.4415 -0.3633
 4780TIP3    H235976   4.839   0.457   0.509 -0.2755 -0.4095 -0.9258
 4781TIP3   OH235977   5.350   4.793   6.573 -0.0200 -0.1706 -0.3589
 4781TIP3    H135978   5.254   4.800   6.568  0.0856  1.5560 -0.5031
 4781TIP3    H235979   5.372   4.820   6.662  0.3321 -1.0165 -0.1719
 4782TIP3   OH235980   0.630   2.774   7.641 -0.1152 -0.0641  0.2268
 4782TIP3    H135981   0.573   2.786   7.565 -1.4793 -1.8732  0.9072
 4782TIP3    H235982   0.705   2.831   7.623 -0.1030 -0.8299 -2.7769
 4783TIP3   OH235983   5.985   2.439   2.271 -0.1120 -0.5021  0.0724
 4783TIP3    H135984   5.971   2.500   2.343 -2.2101 -0.9395  0.1075
 4783TIP3    H235985   6.052   2.379   2.303 -1.1659 -0.8348  1.7945
 4784TIP3   OH235986   3.278   2.989   7.271 -0.7176 -0.2227 -0.9679
 4784TIP3    H135987   3.259   3.008   7.363  0.2687 -0.6503 -0.6527
 4784TIP3    H235988   3.282   3.075   7.229 -0.5032  0.0265 -0.4569
 4785TIP3   OH235989   3.779   6.863   1.242  0.5175 -0.1379 -0.0974
 4785TIP3    H135990   3.788   6.871   1.337  0.4541 -0.3527 -0.0731
 4785TIP3    H235991   3.868   6.877   1.209  0.7459 -1.1009  0.0651
 4786TIP3   OH235992   6.862   1.796   8.569 -0.3506 -0.1484 -0.5002
 4786TIP3    H135993   6.908   1.714   8.549  0.5354  0.4502 -0.9602
 4786TIP3    H235994   6.889   1.817   8.659 -0.3266 -0.1930 -0.4962
 4787TIP3   OH235995   6.619   0.596   1.463  0.5318 -0.4630 -0.4538
 4787TIP3    H135996   6.563   0.534   1.417  0.5072 -1.4660  0.8732
 4787TIP3    H235997   6.618   0.675   1.408 -4.0171  0.4560  0.5701
 4788TIP3   OH235998   0.390   6.134   8.532  0.1124  0.0138  0.2297
 4788TIP3    H135999   0.376   6.071   8.462  3.3751 -0.3116 -0.2804
 4788TIP3    H236000   0.335   6.209   8.509  1.1967 -0.0201 -2.7835
 4789TIP3   OH236001   5.383   6.823   0.418 -0.0759 -0.0906  0.5164
 4789TIP3    H136002   5.374   6.831   0.513  0.3624 -1.9032  0.7518
 4789TIP3    H236003   5.312   6.876   0.382 -0.5202  0.2607  1.8696
 4790TIP3   OH236004   0.997   0.028   8.505  0.3276  0.2323  0.0282
 4790TIP3    H136005   0.979   0.119   8.528 -0.0503  0.3261 -0.6118
 4790TIP3    H236006   1.069   0.003   8.562  0.2225  0.8306  0.4389
 4791TIP3   OH236007   2.904   4.024   2.070 -0.3388 -0.2041 -0.1542
 4791TIP3    H136008   2.862   4.085   2.131  0.5850  0.9297 -0.6045
 4791TIP3    H236009   2.909   3.941   2.118 -1.0399  0.2467  0.7191
 4792TIP3   OH236010   6.352   5.476   1.459  0.2502  0.3666 -0.3326
 4792TIP3    H136011   6.335   5.386   1.487 -0.6087  0.5882 -0.1081
 4792TIP3    H236012   6.385   5.520   1.538 -1.5364  0.8210  0.2101
 4793TIP3   OH236013   6.635   2.449   0.730 -0.3299  0.2380 -0.4220
 4793TIP3    H136014   6.591   2.367   0.750  0.4629 -0.1352 -0.1811
 4793TIP3    H236015   6.565   2.514   0.729 -0.7122 -0.0740  1.4941
 4794TIP3   OH236016   4.961   6.142   6.757 -0.2694  0.5875  0.0226
 4794TIP3    H136017   4.872   6.106   6.759  0.6299 -1.7891 -0.0326
 4794TIP3    H236018   4.948   6.237   6.756 -2.8065  0.3040 -0.5311
 4795TIP3   OH236019   4.900   0.881   0.260  0.3276 -0.3701 -0.0903
 4795TIP3    H136020   4.961   0.870   0.333 -1.1324 -1.9566  0.9477
 4795TIP3    H236021   4.832   0.816   0.275 -2.2006  1.9719 -0.6691
 4796TIP3   OH236022   5.389   4.434   1.695 -0.3661  0.2338  0.3785
 4796TIP3    H136023   5.327   4.386   1.749  0.9754 -0.0197  1.7772
 4796TIP3    H236024   5.447   4.366   1.661 -0.1389  0.5777  0.0732
 4797TIP3   OH236025   3.260   1.879   7.710  0.0352 -0.3276 -0.2406
 4797TIP3    H136026   3.225   1.950   7.763  2.2182 -0.4347  1.4369
 4797TIP3    H236027   3.265   1.915   7.621  0.2002  1.2824  0.3980
 4798TIP3   OH236028   3.510   3.467   7.351 -0.4433 -0.3658 -0.0224
 4798TIP3    H136029   3.470   3.546   7.387  0.8577  0.7259 -0.8540
 4798TIP3    H236030   3.603   3.488   7.346  0.2430 -2.6737  1.5367
 4799TIP3   OH236031   5.837   4.344   7.297 -0.2095 -0.3598  0.4266
 4799TIP3    H136032   5.813   4.252   7.283  1.0354 -0.8057  1.0973
 4799TIP3    H236033   5.869   4.348   7.387  1.1857  0.4061 -0.0762
 4800TIP3   OH236034   1.987   2.448   0.144 -0.2722 -0.3465 -0.0167
 4800TIP3    H136035   1.997   2.370   0.089 -0.3914 -0.0455 -0.4697
 4800TIP3    H236036   1.931   2.420   0.216 -1.1491 -0.4230 -0.7100
 4801TIP3   OH236037   0.575   4.568   7.539  0.3196  0.1558 -0.1705
 4801TIP3    H136038   0.559   4.476   7.563  1.6799  0.3274  1.6027
 4801TIP3    H236039   0.490   4.600   7.510 -0.1608 -1.6870 -0.9410
 4802TIP3   OH236040   5.350   4.151   8.250 -0.0720  0.3418 -0.2073
 4802TIP3    H136041   5.415   4.217   8.228  1.4420 -1.7051 -2.4342
 4802TIP3    H236042   5.367   4.128   8.341  1.6074  0.6694 -0.4143
 4803TIP3   OH236043   0.908   3.672   6.779  0.3516 -0.2422  0.2508
 4803TIP3    H136044   0.824   3.661   6.734  1.5204  1.5239 -2.6601
 4803TIP3    H236045   0.898   3.753   6.828 -0.2124 -1.0473  1.5260
 4804TIP3   OH236046   3.341   6.124   1.282 -0.1759 -0.4100 -0.4953
 4804TIP3    H136047   3.395   6.046   1.271 -0.6787 -0.6482 -1.4015
 4804TIP3    H236048   3.260   6.091   1.323  0.5683  0.0373  1.4186
 4805TIP3   OH236049   4.922   3.135   1.726 -0.0983  0.9867  0.0502
 4805TIP3    H136050   4.844   3.188   1.742  1.5584  3.6929 -0.2364
 4805TIP3    H236051   4.959   3.120   1.813 -0.6005  0.1826  0.1368
 4806TIP3   OH236052   4.431   5.363   1.272 -0.2811 -0.2278  0.2129
 4806TIP3    H136053   4.457   5.429   1.209 -0.7862  0.0327  0.2704
 4806TIP3    H236054   4.350   5.326   1.236 -0.4585 -0.2228  0.5971
 4807TIP3   OH236055   1.477   1.030   2.104  0.2093 -0.7927 -0.2517
 4807TIP3    H136056   1.501   0.957   2.160  0.9956 -0.1565  0.2611
 4807TIP3    H236057   1.560   1.066   2.074 -0.1653 -0.1950 -0.6071
 4808TIP3   OH236058   2.021   2.769   0.427  0.1843 -0.2172 -0.6508
 4808TIP3    H136059   2.034   2.837   0.493 -0.3137 -1.4664  0.7758
 4808TIP3    H236060   1.960   2.809   0.364 -1.2319  0.1810  0.9136
 4809TIP3   OH236061   1.925   0.259   2.363 -0.1737 -0.2450 -0.2648
 4809TIP3    H136062   1.913   0.165   2.355  0.1898 -0.2924 -0.2721
 4809TIP3    H236063   1.900   0.294   2.277  0.8652 -0.4594 -0.6593
 4810TIP3   OH236064   4.686   6.837   7.514  0.2672  0.0290  0.0490
 4810TIP3    H136065   4.628   6.787   7.457  2.0772 -1.6614 -0.4398
 4810TIP3    H236066   4.709   6.915   7.464  0.4179 -0.5594 -0.8175
 4811TIP3   OH236067   0.589   1.970   8.442 -0.3791 -0.1167  0.8817
 4811TIP3    H136068   0.543   1.887   8.453 -0.2069 -0.2784  0.3948
 4811TIP3    H236069   0.528   2.036   8.474 -0.9793 -0.3231  0.1919
 4812TIP3   OH236070   4.423   0.407   8.441  0.4295  0.2091  0.1278
 4812TIP3    H136071   4.507   0.389   8.483  0.5152 -0.3845 -0.2893
 4812TIP3    H236072   4.445   0.465   8.367  0.6373 -0.8528 -0.6653
 4813TIP3   OH236073   4.657   6.138   7.703 -0.0358 -0.1242  0.0036
 4813TIP3    H136074   4.681   6.185   7.624  2.1160  0.3156  0.8532
 4813TIP3    H236075   4.668   6.045   7.681 -1.2646 -0.1134 -0.7360
 4814TIP3   OH236076   4.311   5.416   0.245 -1.0726 -0.0782 -0.6290
 4814TIP3    H136077   4.237   5.470   0.271 -0.4924 -0.2781  1.6741
 4814TIP3    H236078   4.292   5.329   0.280 -0.6274 -0.6161 -1.6848
 4815TIP3   OH236079   1.760   6.207   0.573  0.4819 -0.2564  0.3290
 4815TIP3    H136080   1.709   6.129   0.551  0.8991 -0.4305 -0.0428
 4815TIP3    H236081   1.849   6.174   0.584  0.8086  0.2803 -0.6122
 4816TIP3   OH236082   5.593   1.657   7.536  0.1531 -0.0275  0.0026
 4816TIP3    H136083   5.534   1.654   7.461 -1.3606  0.0623  1.1391
 4816TIP3    H236084   5.664   1.597   7.513 -1.2879 -1.5673 -0.6934
 4817TIP3   OH236085   4.289   4.083   7.319  0.0158  0.2035 -0.2419
 4817TIP3    H136086   4.330   4.109   7.236 -1.1728  1.1487 -0.5611
 4817TIP3    H236087   4.361   4.083   7.382  1.1572 -1.5903 -1.4566
 4818TIP3   OH236088   6.836   4.544   7.468  0.5257 -0.4282  0.1840
 4818TIP3    H136089   6.776   4.471   7.454 -0.6106  0.0684  2.0374
 4818TIP3    H236090   6.922   4.502   7.482  0.1174 -1.3290  0.0744
 4819TIP3   OH236091   5.929   5.451   8.438 -0.6237 -1.0412  0.2768
 4819TIP3    H136092   5.987   5.485   8.506 -0.3692 -1.1952  0.1387
 4819TIP3    H236093   5.874   5.525   8.413 -1.3890 -1.2336  1.3476
 4820TIP3   OH236094   5.082   4.885   0.576 -0.3070  0.4031  0.1137
 4820TIP3    H136095   5.092   4.906   0.483  0.7312 -0.1785  0.0726
 4820TIP3    H236096   5.087   4.790   0.580  0.7249  0.4618  0.8528
 4821TIP3   OH236097   5.827   3.693   8.539  0.0740  0.3118  0.0511
 4821TIP3    H136098   5.919   3.672   8.555  0.2550  1.9646  1.4533
 4821TIP3    H236099   5.779   3.624   8.585  0.6069 -0.3251 -0.3325
 4822TIP3   OH236100   2.280   4.298   8.575 -0.1014  0.2801  0.1817
 4822TIP3    H136101   2.280   4.391   8.551  0.9079  0.2356 -0.0246
 4822TIP3    H236102   2.289   4.252   8.491 -0.0617  0.0080  0.3342
 4823TIP3   OH236103   6.607   0.881   0.542  0.5684 -0.0961  0.2703
 4823TIP3    H136104   6.573   0.957   0.590 -0.8833 -0.5282 -0.0098
 4823TIP3    H236105   6.694   0.866   0.578  0.7475  1.5034  0.5534
 4824TIP3   OH236106   2.943   0.379   0.386  0.2710 -0.1248  0.0408
 4824TIP3    H136107   2.986   0.378   0.471 -0.1912 -0.0640  0.2770
 4824TIP3    H236108   2.942   0.287   0.358  2.8259  0.0936 -1.1430
 4825TIP3   OH236109   3.349   4.951   1.461  0.1244 -0.1001 -0.2788
 4825TIP3    H136110   3.349   5.003   1.381  0.8530  0.6233  0.1734
 4825TIP3    H236111   3.426   4.895   1.454 -0.4577 -0.8693 -0.6013
 4826TIP3   OH236112   4.381   0.039   1.728 -0.4192  0.3679 -0.3456
 4826TIP3    H136113   4.316   0.106   1.750 -0.6199 -0.3967  1.5831
 4826TIP3    H236114   4.338  -0.043   1.749  0.7711 -0.2164 -0.1320
 4827TIP3   OH236115   1.987   4.878   0.701 -0.0368  0.3637 -0.2512
 4827TIP3    H136116   1.933   4.867   0.623 -0.0637  2.1560 -0.5343
 4827TIP3    H236117   2.067   4.830   0.682 -1.3364 -2.0525  0.0382
 4828TIP3   OH236118   4.547   6.496   7.109 -0.1276 -0.2328 -0.1940
 4828TIP3    H136119   4.631   6.518   7.070  0.1812 -0.7806  0.1452
 4828TIP3    H236120   4.495   6.460   7.037  0.4517 -1.2825 -0.1210
 4829TIP3   OH236121   2.744   1.577   6.105  0.0703  0.8109 -0.4189
 4829TIP3    H136122   2.775   1.662   6.074  0.0718  1.2977  0.8581
 4829TIP3    H236123   2.819   1.539   6.150  1.2468 -1.5001 -4.0009
 4830TIP3   OH236124   2.238   3.870   7.927  0.3012  0.0467  0.0006
 4830TIP3    H136125   2.317   3.819   7.909  1.8326  2.0092  0.7343
 4830TIP3    H236126   2.266   3.961   7.918 -2.5119  0.8337 -2.1693
 4831TIP3   OH236127   5.543   5.871   6.448  0.3589  0.1494 -0.6103
 4831TIP3    H136128   5.471   5.925   6.481  1.2224  0.9798 -0.0575
 4831TIP3    H236129   5.501   5.788   6.423 -1.2450  1.4928 -2.7866
 4832TIP3   OH236130   4.672   6.731   8.582  0.5912 -0.8160  0.1076
 4832TIP3    H136131   4.654   6.709   8.674  0.7488 -3.0853 -0.3602
 4832TIP3    H236132   4.723   6.812   8.587  1.2655 -1.2984  2.0671
 4833TIP3   OH236133   5.522   3.243   1.802 -0.2950 -1.0951  0.0349
 4833TIP3    H136134   5.462   3.177   1.767 -0.7089  0.1682 -1.7612
 4833TIP3    H236135   5.599   3.237   1.746 -0.5275  0.2350 -0.4580
 4834TIP3   OH236136   3.945   0.369   0.241 -0.0038  0.0703  0.1388
 4834TIP3    H136137   4.039   0.350   0.245 -0.0129 -0.6738 -1.8383
 4834TIP3    H236138   3.905   0.285   0.216 -0.9770  0.7723 -0.7413
 4835TIP3   OH236139   5.912   1.967   1.616 -0.2296 -0.3438  0.2706
 4835TIP3    H136140   5.982   1.920   1.569  1.7261  2.2981  0.2938
 4835TIP3    H236141   5.910   2.053   1.574 -1.4660  0.6218  2.2198
 4836TIP3   OH236142   0.271   2.522   8.171 -0.3030 -0.0420  0.2849
 4836TIP3    H136143   0.346   2.573   8.142  1.2217 -0.3267  3.3009
 4836TIP3    H236144   0.224   2.500   8.091  2.4085  0.7958 -1.6750
 4837TIP3   OH236145   6.302   2.365   8.073 -0.0109  0.2945  0.5328
 4837TIP3    H136146   6.311   2.460   8.071 -1.1701  0.4299  0.7334
 4837TIP3    H236147   6.253   2.348   8.154 -0.8386 -0.3554 -0.0818
 4838TIP3   OH236148   2.807   6.799   7.093 -0.3516  0.5374  0.0522
 4838TIP3    H136149   2.744   6.806   7.165 -1.2351  0.3559 -0.6783
 4838TIP3    H236150   2.765   6.846   7.020 -0.1875 -0.6096 -0.8066
 4839TIP3   OH236151   1.957   4.471   8.121  0.7286 -0.0325  0.5829
 4839TIP3    H136152   1.930   4.489   8.032  0.8490  1.0182  0.7474
 4839TIP3    H236153   1.923   4.544   8.172 -0.9146 -1.4989  1.7251
 4840TIP3   OH236154   5.785   0.407   2.260  0.1537  0.1264  0.2965
 4840TIP3    H136155   5.815   0.463   2.332  3.6634  0.5132 -1.2653
 4840TIP3    H236156   5.821   0.321   2.280 -0.5419 -0.2474 -0.0408
 4841TIP3   OH236157   2.160   0.355   1.379  0.4503 -0.4955  0.4367
 4841TIP3    H136158   2.217   0.338   1.454 -0.8827 -0.8793  1.3926
 4841TIP3    H236159   2.102   0.425   1.408 -0.6793 -1.2606  0.1137
 4842TIP3   OH236160   3.337   5.908   0.130  0.3245 -0.3515 -0.0060
 4842TIP3    H136161   3.430   5.926   0.148  0.1085 -0.2666  1.1128
 4842TIP3    H236162   3.290   5.962   0.194 -0.5930  1.3759 -2.0224
 4843TIP3   OH236163   0.568   4.859   7.543 -0.4663  0.4492 -0.2583
 4843TIP3    H136164   0.520   4.830   7.621  1.0332 -0.2743  0.4369
 4843TIP3    H236165   0.549   4.792   7.477  0.1577 -0.2482  0.2495
 4844TIP3   OH236166   4.276   5.782   0.237  0.3621  0.5798 -0.4032
 4844TIP3    H136167   4.238   5.869   0.246 -2.6316 -0.5649 -0.8421
 4844TIP3    H236168   4.295   5.754   0.326  0.0662  1.1755 -0.1490
 4845TIP3   OH236169   3.863   3.894   0.354  0.0400 -0.2160  0.0503
 4845TIP3    H136170   3.898   3.854   0.275 -0.4107  0.5318 -0.5445
 4845TIP3    H236171   3.831   3.821   0.406 -0.4531 -0.6562 -0.8471
 4846TIP3   OH236172   3.120   1.500   7.676  0.0234  0.2370 -0.1572
 4846TIP3    H136173   3.168   1.450   7.610  0.8528 -2.6578  2.4434
 4846TIP3    H236174   3.108   1.586   7.635  1.8688 -0.8462 -3.4078
 4847TIP3   OH236175   5.763   6.211   7.221  0.3542 -0.6541  0.4866
 4847TIP3    H136176   5.793   6.299   7.198 -2.0211  0.1854  0.2773
 4847TIP3    H236177   5.833   6.153   7.192  0.9183  0.9861 -1.7304
 4848TIP3   OH236178   5.976   3.339   1.138 -0.0473  0.1715  0.0621
 4848TIP3    H136179   6.065   3.374   1.146 -0.0392  0.5558 -1.5122
 4848TIP3    H236180   5.926   3.389   1.203  0.6902  0.5993  0.3236
 4849TIP3   OH236181   0.792   4.434   1.855  0.6256  0.2271 -0.3081
 4849TIP3    H136182   0.715   4.473   1.813  0.1882 -0.9940 -0.7061
 4849TIP3    H236183   0.759   4.350   1.889  1.7988 -0.3463 -0.5454
 4850TIP3   OH236184   6.018   6.689   1.654  0.4916  0.0964 -0.5115
 4850TIP3    H136185   6.113   6.701   1.657  0.6403 -0.6093 -1.6060
 4850TIP3    H236186   6.007   6.597   1.630 -0.4918 -0.0509  0.4494
 4851TIP3   OH236187   1.962   5.676   7.222 -0.0390 -0.2605  0.6321
 4851TIP3    H136188   1.931   5.711   7.138 -4.4137 -3.4791  0.5366
 4851TIP3    H236189   2.020   5.605   7.198  0.7783  0.4448  0.4781
 4852TIP3   OH236190   2.566   3.574   6.747  0.1314  0.2105 -0.4333
 4852TIP3    H136191   2.478   3.553   6.777 -0.2652  1.7642 -0.4162
 4852TIP3    H236192   2.571   3.540   6.658  0.4991 -2.3238  0.4882
 4853TIP3   OH236193   6.526   5.845   1.149  0.2012 -0.4140 -0.3999
 4853TIP3    H136194   6.515   5.891   1.066 -0.8261 -1.6026 -0.9732
 4853TIP3    H236195   6.464   5.772   1.143  1.2482 -1.4385  0.7510
 4854TIP3   OH236196   1.263   2.520   6.806  0.0128 -0.5667  0.1981
 4854TIP3    H136197   1.297   2.536   6.718 -0.4968 -0.9619 -0.0727
 4854TIP3    H236198   1.276   2.426   6.820  0.8380 -0.3673  0.8668
 4855TIP3   OH236199   0.572   2.650   7.251 -0.1371  0.4512  0.4262
 4855TIP3    H136200   0.526   2.606   7.180  0.2382  2.0299 -0.8636
 4855TIP3    H236201   0.664   2.644   7.228  0.2519 -1.2830  2.1649
 4856TIP3   OH236202   5.562   5.705   7.481  0.0179 -0.1226 -0.5693
 4856TIP3    H136203   5.541   5.791   7.517 -0.5445 -0.3102 -0.4345
 4856TIP3    H236204   5.653   5.689   7.506  0.6450  1.1118 -1.9432
 4857TIP3   OH236205   5.194   5.679   6.330 -0.1172  0.8261  0.4105
 4857TIP3    H136206   5.111   5.643   6.360 -0.0960  0.6667  0.2751
 4857TIP3    H236207   5.182   5.774   6.334  0.3836  0.8405  2.3568
 4858TIP3   OH236208   6.774   4.346   7.172 -0.1833  0.0575 -0.4047
 4858TIP3    H136209   6.831   4.269   7.170 -0.9028 -0.4727 -1.9556
 4858TIP3    H236210   6.830   4.417   7.139 -0.1953 -0.3236 -1.2813
 4859TIP3   OH236211   5.322   5.338   1.918 -0.2628  0.3739  0.5214
 4859TIP3    H136212   5.268   5.272   1.962  0.7170 -0.6460  0.2529
 4859TIP3    H236213   5.412   5.307   1.931  0.1303  0.8701 -0.8657
 4860TIP3   OH236214   4.198   1.155   8.075 -0.2075  0.1376  0.3910
 4860TIP3    H136215   4.166   1.157   8.166 -0.9479 -0.7906  0.1666
 4860TIP3    H236216   4.223   1.064   8.061 -1.4016 -0.0329 -0.7671
 4861TIP3   OH236217   3.504   6.217   7.857 -0.0383  0.0398  0.1897
 4861TIP3    H136218   3.410   6.216   7.840  0.1159  2.2819 -1.2096
 4861TIP3    H236219   3.525   6.310   7.870  2.0793 -0.3280 -0.1906
 4862TIP3   OH236220   0.900   2.643   6.266  0.0177 -0.5648  0.2269
 4862TIP3    H136221   0.912   2.722   6.319 -0.9749  0.8109 -1.4877
 4862TIP3    H236222   0.988   2.623   6.234  0.2533 -0.0278  0.5085
 4863TIP3   OH236223   6.781   1.769   0.977  0.3026 -0.3292  0.4349
 4863TIP3    H136224   6.726   1.702   1.016 -2.1800  1.7284  0.6944
 4863TIP3    H236225   6.803   1.828   1.050 -2.6772  2.4093 -0.6132
 4864TIP3   OH236226   3.125   2.507   7.986  0.0017  0.1336 -0.6649
 4864TIP3    H136227   3.124   2.465   7.900 -0.0399 -0.9562 -0.1450
 4864TIP3    H236228   3.099   2.439   8.047  2.3088  0.1925  0.5128
 4865TIP3   OH236229   0.159   2.998   6.519 -0.2124 -0.0055  0.1394
 4865TIP3    H136230   0.116   2.951   6.591 -0.4063  0.6244  0.4417
 4865TIP3    H236231   0.118   2.962   6.440 -1.0602  0.3355  0.4067
 4866TIP3   OH236232   6.091   3.868   8.529 -0.5337  0.0784  0.3578
 4866TIP3    H136233   6.049   3.948   8.560  0.3688  0.8586 -0.3687
 4866TIP3    H236234   6.140   3.895   8.450 -1.0096 -1.3850 -0.4813
 4867TIP3   OH236235   0.984   0.126   0.527  0.2662  0.2734 -0.0947
 4867TIP3    H136236   0.995   0.114   0.433 -0.7721 -0.6443 -0.1136
 4867TIP3    H236237   1.040   0.060   0.567 -3.0968 -2.9307 -0.1737
 4868TIP3   OH236238   0.603   4.854   8.330 -0.3843 -0.0889  0.0027
 4868TIP3    H136239   0.567   4.773   8.295 -0.4056 -0.2033  0.2859
 4868TIP3    H236240   0.545   4.922   8.298  0.8520  0.0710 -2.0643
 4869TIP3   OH236241   5.153   4.005   0.177  0.5488 -0.1537 -0.2020
 4869TIP3    H136242   5.182   3.941   0.112 -0.0224 -1.6963  0.9989
 4869TIP3    H236243   5.066   4.031   0.146  1.1084  0.6995 -1.1275
 4870TIP3   OH236244   1.684   6.683   0.627  0.6168  0.4098  0.3079
 4870TIP3    H136245   1.664   6.606   0.574 -1.4224  0.6541  0.6711
 4870TIP3    H236246   1.737   6.649   0.699  0.9059 -0.4071 -0.2768
 4871TIP3   OH236247   3.080   2.941   1.747  0.0639  0.5115 -0.3173
 4871TIP3    H136248   3.162   2.893   1.737  0.1232  0.7916 -1.1836
 4871TIP3    H236249   3.081   2.970   1.838  0.5911 -0.0936 -0.1214
 4872TIP3   OH236250   4.699   2.280   1.084  0.0110 -0.1184  0.3476
 4872TIP3    H136251   4.626   2.224   1.110 -0.3180  0.3368  0.4096
 4872TIP3    H236252   4.662   2.337   1.016  0.5128 -0.4077 -0.1716
 4873TIP3   OH236253   5.255   5.099   7.461  0.0974  0.5858 -0.7938
 4873TIP3    H136254   5.348   5.086   7.445  0.2559  1.6047 -0.8204
 4873TIP3    H236255   5.246   5.194   7.476 -0.5773  0.2245  1.5694
 4874TIP3   OH236256   5.951   4.564   6.893 -0.1335 -0.1321 -0.3192
 4874TIP3    H136257   5.959   4.504   6.819  3.6535 -0.3633  0.0745
 4874TIP3    H236258   5.892   4.519   6.954  0.9073 -2.5203 -0.9559
 4875TIP3   OH236259   5.827   4.440   2.066  0.5670  0.0893  0.6992
 4875TIP3    H136260   5.798   4.488   2.143 -1.2031 -0.0068  0.1448
 4875TIP3    H236261   5.784   4.355   2.073  1.2563 -0.3192  0.1505
 4876TIP3   OH236262   4.843   6.360   7.905  0.3442  0.4168 -0.2294
 4876TIP3    H136263   4.843   6.404   7.989  1.1158  0.7784 -0.4091
 4876TIP3    H236264   4.851   6.267   7.926 -0.3071  0.4353  0.1178
 4877TIP3   OH236265   0.901   2.053   7.092  0.1336 -0.3321  0.4889
 4877TIP3    H136266   0.867   2.007   7.016  2.1888 -1.5742  0.2521
 4877TIP3    H236267   0.835   2.039   7.160 -2.3166  1.7612 -1.2538
 4878TIP3   OH236268   4.686   3.502   0.190 -0.3868 -0.1204  0.3651
 4878TIP3    H136269   4.605   3.471   0.228 -0.9805  1.8692  0.8700
 4878TIP3    H236270   4.661   3.537   0.105  0.1964 -0.7204 -0.0653
 4879TIP3   OH236271   4.502   3.184   2.119 -0.5089 -0.2958 -0.0751
 4879TIP3    H136272   4.457   3.268   2.115  0.4952  0.4432  2.2550
 4879TIP3    H236273   4.462   3.139   2.193  1.1672 -0.4498  0.7961
 4880TIP3   OH236274   6.635   0.307   7.602 -0.3222  0.2147 -0.0782
 4880TIP3    H136275   6.609   0.270   7.687 -1.3447 -0.1598 -0.5441
 4880TIP3    H236276   6.702   0.247   7.569 -0.1841  0.1612  0.2922
 4881TIP3   OH236277   4.455   2.231   1.405  0.3739 -0.3588  0.0367
 4881TIP3    H136278   4.389   2.180   1.452 -0.1137 -0.5653 -0.8554
 4881TIP3    H236279   4.457   2.193   1.317  0.8545  0.4015 -0.2931
 4882TIP3   OH236280   2.153   2.378   2.155 -0.1942 -0.3176 -0.0198
 4882TIP3    H136281   2.240   2.344   2.136 -0.5848 -1.1947 -0.3282
 4882TIP3    H236282   2.156   2.469   2.127  0.3504 -0.5941 -0.9118
 4883TIP3   OH236283   2.094   4.460   7.654 -0.2795 -0.7466  0.4128
 4883TIP3    H136284   2.042   4.515   7.711  1.6999  2.3096 -0.4956
 4883TIP3    H236285   2.077   4.493   7.566  0.8865 -1.6963 -0.2035
 4884TIP3   OH236286   4.529   2.408   7.403  0.0290  0.1519  0.2695
 4884TIP3    H136287   4.546   2.367   7.487  0.5638 -0.3993 -0.0932
 4884TIP3    H236288   4.474   2.483   7.423  0.7416  0.4503  1.1989
 4885TIP3   OH236289   6.097   4.561   0.873  0.0652 -0.1443  0.9006
 4885TIP3    H136290   6.069   4.634   0.929 -0.6617  0.9090 -0.7698
 4885TIP3    H236291   6.193   4.566   0.874  0.1549  3.5382 -2.3607
 4886TIP3   OH236292   5.308   2.760   0.782 -0.2064  0.4093 -0.0288
 4886TIP3    H136293   5.220   2.736   0.809 -0.8028  1.1323 -1.2738
 4886TIP3    H236294   5.297   2.806   0.699  1.1677  2.0851  0.6365
 4887TIP3   OH236295   2.457   1.042   7.882 -0.3005  0.8985  0.3219
 4887TIP3    H136296   2.423   1.009   7.964 -0.9991  2.2527  0.6160
 4887TIP3    H236297   2.379   1.063   7.830  0.0829 -1.9936 -1.6215
 4888TIP3   OH236298   3.352   2.567   7.331  0.0030  0.5438  0.3057
 4888TIP3    H136299   3.284   2.583   7.396  0.4098  0.3637  0.7771
 4888TIP3    H236300   3.353   2.472   7.319  0.8367  0.4530  1.0295
 4889TIP3   OH236301   5.076   5.192   0.878  0.0231 -0.8919  0.6329
 4889TIP3    H136302   4.998   5.214   0.929  0.4433 -0.5528  1.1385
 4889TIP3    H236303   5.149   5.214   0.936  0.5041 -0.6915 -0.0452
 4890TIP3   OH236304   0.507   3.089   7.144  0.3809  0.1230 -0.2765
 4890TIP3    H136305   0.431   3.107   7.200  1.6454 -0.6430  1.8283
 4890TIP3    H236306   0.571   3.157   7.169  0.0021  1.5847 -2.9699
 4891TIP3   OH236307   1.161   5.667   1.289 -0.1233  0.2246  0.0712
 4891TIP3    H136308   1.116   5.590   1.254 -1.4746  0.4847  1.1416
 4891TIP3    H236309   1.147   5.735   1.223 -1.8939  0.4726  0.6446
 4892TIP3   OH236310   3.558   0.451   1.256  0.1508  0.3157 -0.2750
 4892TIP3    H136311   3.561   0.406   1.171  0.4375  0.6136 -0.4276
 4892TIP3    H236312   3.576   0.382   1.320 -2.0558 -0.3363 -0.2724
 4893TIP3   OH236313   6.912   0.787   0.733  0.2191 -0.2483 -0.1169
 4893TIP3    H136314   6.975   0.822   0.795  0.6163 -1.0396 -0.0627
 4893TIP3    H236315   6.833   0.841   0.745  0.8064  0.6078 -0.0368
 4894TIP3   OH236316   2.287   4.362   5.825 -0.5955  0.0902 -0.5391
 4894TIP3    H136317   2.213   4.302   5.834 -0.9014  0.6118  0.4585
 4894TIP3    H236318   2.247   4.447   5.804 -0.3973  0.6864  1.3479
 4895TIP3   OH236319   2.903   0.033   7.627  0.3023 -0.5302 -0.0111
 4895TIP3    H136320   2.854  -0.047   7.643 -1.5507 -0.4111 -4.1218
 4895TIP3    H236321   2.850   0.102   7.667 -0.0520 -0.9526  0.2580
 4896TIP3   OH236322   0.791   1.827   8.608 -0.0936  0.5833 -0.0081
 4896TIP3    H136323   0.762   1.745   8.647 -0.6626  1.1391  0.7534
 4896TIP3    H236324   0.710   1.874   8.586  0.2249  0.9850 -0.3630
 4897TIP3   OH236325   0.510   3.671   0.706 -0.2303  0.4394 -0.3257
 4897TIP3    H136326   0.601   3.670   0.678  0.0350  0.7492  0.4875
 4897TIP3    H236327   0.512   3.635   0.795 -1.3871 -3.0351 -1.5605
 4898TIP3   OH236328   2.554   4.962   8.434 -0.0687 -0.3295 -0.0225
 4898TIP3    H136329   2.629   4.932   8.383 -0.1615 -0.4423 -0.0940
 4898TIP3    H236330   2.575   5.053   8.457  0.6110 -0.7131  0.9379
 4899TIP3   OH236331   2.719   6.643   6.660 -0.0481  0.3757  0.0653
 4899TIP3    H136332   2.640   6.696   6.652 -0.2797 -0.1740 -1.7367
 4899TIP3    H236333   2.790   6.706   6.671 -0.6660  0.8854  1.4189
 4900TIP3   OH236334   0.947   4.430   0.139  0.2991 -0.1481  0.0720
 4900TIP3    H136335   0.973   4.338   0.138 -1.1206 -0.6106  1.3156
 4900TIP3    H236336   1.027   4.477   0.161  1.3846 -0.9206 -2.0328
 4901TIP3   OH236337   1.531   6.511   1.693 -0.3321 -0.1718 -0.2152
 4901TIP3    H136338   1.612   6.466   1.715 -0.2551 -0.0396 -0.2231
 4901TIP3    H236339   1.480   6.447   1.643  0.4721  0.2667 -1.6798
 4902TIP3   OH236340   2.369   4.734   7.939 -0.0315  0.0630  0.3579
 4902TIP3    H136341   2.398   4.791   8.011  1.1341 -2.1609  1.7533
 4902TIP3    H236342   2.440   4.738   7.875 -0.6226  1.2692 -0.2565
 4903TIP3   OH236343   5.792   1.492   7.429 -0.4943 -0.1362  0.0229
 4903TIP3    H136344   5.871   1.473   7.479 -1.0721  0.6067  1.2517
 4903TIP3    H236345   5.814   1.466   7.339  0.7538 -0.9735  0.5413
 4904TIP3   OH236346   1.208   3.539   0.822 -0.0302 -0.2678  0.1773
 4904TIP3    H136347   1.129   3.506   0.866  0.1247 -2.0033 -0.7589
 4904TIP3    H236348   1.179   3.617   0.775 -1.0086 -0.4215  0.5107
 4905TIP3   OH236349   1.201   2.971   7.696 -0.0555 -0.2605  0.0619
 4905TIP3    H136350   1.244   2.901   7.745  1.4534  0.6128  0.0207
 4905TIP3    H236351   1.123   2.992   7.748 -0.8849 -2.3636 -0.2409
 4906TIP3   OH236352   0.086   4.628   1.262  0.1948 -0.2206  0.2607
 4906TIP3    H136353   0.022   4.564   1.294 -1.5291  0.6635 -1.2382
 4906TIP3    H236354   0.115   4.593   1.178  1.5730 -0.5009  0.8271
 4907TIP3   OH236355   4.551   4.228   8.331 -0.7513 -0.4265  0.3463
 4907TIP3    H136356   4.486   4.197   8.267  0.1610  0.4022 -1.0373
 4907TIP3    H236357   4.506   4.298   8.378 -1.4155 -1.0086  0.6093
 4908TIP3   OH236358   2.343   3.617   0.675 -0.2610 -0.4640 -0.6586
 4908TIP3    H136359   2.363   3.627   0.582 -1.3586 -2.0348 -1.0878
 4908TIP3    H236360   2.427   3.634   0.719 -0.1597  2.4300 -1.7074
 4909TIP3   OH236361   2.204   2.614   0.239 -0.9050 -0.3523  0.1911
 4909TIP3    H136362   2.169   2.647   0.322 -0.9269 -0.4064  0.2039
 4909TIP3    H236363   2.129   2.576   0.195 -0.4743 -2.7179  1.3051
 4910TIP3   OH236364   1.320   0.181   7.831  0.1067 -0.0617  0.1738
 4910TIP3    H136365   1.334   0.274   7.850  0.4350  0.2805 -1.5221
 4910TIP3    H236366   1.348   0.135   7.910  2.7915  1.1106  0.0062
 4911TIP3   OH236367   1.679   1.167   8.309 -0.1580 -0.2786  0.7025
 4911TIP3    H136368   1.590   1.197   8.289 -0.2568 -1.5313 -0.9653
 4911TIP3    H236369   1.671   1.072   8.312  0.9656 -0.3601  1.4635
 4912TIP3   OH236370   3.986   6.428   7.356 -0.3714  0.2509 -0.8333
 4912TIP3    H136371   3.911   6.479   7.385 -2.1804 -0.8571 -3.1900
 4912TIP3    H236372   4.036   6.487   7.301 -1.1201  0.2010 -1.5816
 4913TIP3   OH236373   2.789   1.346   1.067 -0.0862 -0.0239 -0.3235
 4913TIP3    H136374   2.884   1.348   1.081  0.0556  1.8657 -1.3245
 4913TIP3    H236375   2.758   1.277   1.125  1.8275 -0.2545  0.4870
 4914TIP3   OH236376   0.001   2.199   1.665 -0.9131 -0.0930  0.0233
 4914TIP3    H136377  -0.027   2.109   1.646 -1.2857  0.2303 -1.0682
 4914TIP3    H236378  -0.021   2.212   1.757 -2.1908 -0.6625 -0.1674
 4915TIP3   OH236379   3.821   0.823   7.704  0.2276  0.5004  0.0866
 4915TIP3    H136380   3.743   0.772   7.686 -0.1241  1.5524 -1.6174
 4915TIP3    H236381   3.888   0.786   7.646  1.1903 -0.7246  1.8922
 4916TIP3   OH236382   3.410   0.788   8.623 -0.7654 -0.2239  0.1131
 4916TIP3    H136383   3.431   0.716   8.564  1.1162 -0.7099  1.2971
 4916TIP3    H236384   3.459   0.863   8.590 -1.9644  0.2960 -0.5556
 4917TIP3   OH236385   6.112   0.442   8.390 -0.3385 -0.0198  0.6454
 4917TIP3    H136386   6.169   0.380   8.435  0.5226  0.5368  0.3371
 4917TIP3    H236387   6.129   0.427   8.297 -2.8059 -1.8369  0.3904
 4918TIP3   OH236388   6.151   2.765   0.715 -0.5696  0.0467 -0.7858
 4918TIP3    H136389   6.060   2.746   0.742 -0.1631  0.3674  0.9334
 4918TIP3    H236390   6.178   2.838   0.771  0.8764 -0.3006 -0.9909
 4919TIP3   OH236391   0.229   6.671   8.643  0.0823  0.0294 -0.4741
 4919TIP3    H136392   0.137   6.687   8.664 -0.5892 -3.2879 -0.3635
 4919TIP3    H236393   0.272   6.657   8.727  0.1896 -0.5437 -0.6156
 4920TIP3   OH236394   6.908   5.864   8.633 -0.0488  0.1607 -0.1899
 4920TIP3    H136395   6.965   5.797   8.595  0.1256  0.3963 -0.3418
 4920TIP3    H236396   6.854   5.894   8.560  1.2550  1.6300 -0.5983
 4921TIP3   OH236397   2.491   6.799   8.299 -0.2727 -0.3747 -0.3173
 4921TIP3    H136398   2.546   6.744   8.243 -0.5340 -1.0352  0.0534
 4921TIP3    H236399   2.402   6.764   8.285 -0.0848 -2.1380  2.2390
 4922TIP3   OH236400   0.776   0.480   0.359 -0.1672 -0.2847  0.2958
 4922TIP3    H136401   0.805   0.465   0.448 -1.0094 -1.1806  0.4498
 4922TIP3    H236402   0.782   0.574   0.346  0.0968 -0.1648  1.2502
 4923TIP3   OH236403   2.186   1.226   7.858 -0.0189 -0.3257  0.0666
 4923TIP3    H136404   2.201   1.319   7.874 -1.6236 -0.0740  0.2063
 4923TIP3    H236405   2.158   1.191   7.943  1.5083 -1.1752  0.2701
 4924TIP3   OH236406   0.773   3.563   8.191  0.1109  0.4317  0.3089
 4924TIP3    H136407   0.808   3.651   8.172  2.8969 -0.5231  0.5924
 4924TIP3    H236408   0.833   3.504   8.146 -1.1158 -1.3959  0.9856
 4925TIP3   OH236409   4.694   6.073   6.782 -0.7839 -0.4231  0.2700
 4925TIP3    H136410   4.638   6.118   6.846 -0.1148 -0.7024  1.0782
 4925TIP3    H236411   4.649   5.990   6.765 -1.8416  0.3633 -0.9564
 4926TIP3   OH236412   2.890   5.410   1.440  0.2500 -0.0027 -0.0262
 4926TIP3    H136413   2.983   5.420   1.457  0.4043 -1.0769 -0.1508
 4926TIP3    H236414   2.856   5.364   1.516  0.1389 -1.0462 -0.6859
 4927TIP3   OH236415   4.460   0.794   0.183  0.0739 -0.4748  0.5708
 4927TIP3    H136416   4.411   0.836   0.254 -1.0866 -0.9739  0.0889
 4927TIP3    H236417   4.452   0.855   0.110  0.7374 -0.2531  0.6833
 4928TIP3   OH236418   2.916   5.245   7.501 -0.1673  0.2826  0.6662
 4928TIP3    H136419   2.945   5.161   7.466 -1.8309 -0.3074  0.6371
 4928TIP3    H236420   2.998   5.292   7.520  0.8505 -0.1201 -2.1712
 4929TIP3   OH236421   0.349   3.910   0.655  0.3242 -0.6027 -0.3960
 4929TIP3    H136422   0.423   3.849   0.662 -0.6865 -1.9106 -0.8051
 4929TIP3    H236423   0.388   3.991   0.621  1.8651 -0.6475  1.1025
 4930TIP3   OH236424   5.392   2.758   7.041  0.6070 -0.5707  0.4683
 4930TIP3    H136425   5.387   2.847   7.075  1.5187  0.0048 -0.8188
 4930TIP3    H236426   5.459   2.763   6.973 -0.8500 -1.7630 -1.1106
 4931TIP3   OH236427   1.747   3.452   6.828  0.2196 -0.2959  0.2317
 4931TIP3    H136428   1.697   3.508   6.886 -0.8127 -0.9495  0.0087
 4931TIP3    H236429   1.689   3.436   6.753  0.8627 -0.8474 -0.1703
 4932TIP3   OH236430   4.853   2.158   0.773  0.2617  0.1527  0.4420
 4932TIP3    H136431   4.883   2.146   0.863 -1.5834 -1.1386  0.9499
 4932TIP3    H236432   4.830   2.251   0.767  0.2826  0.2208  1.3544
 4933TIP3   OH236433   2.245   3.718   0.994  0.7247  0.1198 -0.1036
 4933TIP3    H136434   2.333   3.689   0.969  0.1088 -3.2604  1.0692
 4933TIP3    H236435   2.192   3.698   0.917  0.6510  0.3008 -0.0994
 4934TIP3   OH236436   5.220   2.926   1.066 -0.1810 -0.4010  0.1030
 4934TIP3    H136437   5.185   2.875   0.994 -1.5002 -0.5494  0.8251
 4934TIP3    H236438   5.250   2.860   1.129 -1.4759 -0.3251  0.8376
 4935TIP3   OH236439   3.558   4.763   1.450  0.1794  0.3180  0.0066
 4935TIP3    H136440   3.616   4.725   1.384  0.5995  2.4386 -0.9377
 4935TIP3    H236441   3.559   4.700   1.522 -1.6422 -2.9938 -2.5781
 4936TIP3   OH236442   3.259   3.330   0.261  0.4599  0.0078  0.3718
 4936TIP3    H136443   3.293   3.368   0.180  1.6999 -0.4260  0.6703
 4936TIP3    H236444   3.221   3.405   0.308  0.2848  0.3669 -0.3244
 4937TIP3   OH236445   4.880   0.917   8.631  0.0913  0.6841 -0.4950
 4937TIP3    H136446   4.848   1.005   8.614 -1.9445  0.3504  1.2376
 4937TIP3    H236447   4.879   0.909   8.727 -0.1078 -1.3161 -0.6186
 4938TIP3   OH236448   0.099   3.417   7.869  0.1226  0.6554  0.1921
 4938TIP3    H136449   0.053   3.334   7.861  0.2686  0.6733 -1.0157
 4938TIP3    H236450   0.033   3.478   7.903 -0.3888  0.3806 -0.2999
 4939TIP3   OH236451   6.533   2.121   1.499  0.2424 -0.4203 -0.4589
 4939TIP3    H136452   6.539   2.169   1.582 -0.1007  0.2397 -0.8134
 4939TIP3    H236453   6.543   2.029   1.525 -0.7050 -0.2973  0.4200
 4940TIP3   OH236454   5.346   0.110   8.411 -0.5015  0.3183 -0.1568
 4940TIP3    H136455   5.405   0.125   8.337 -0.1816 -0.5856 -0.0963
 4940TIP3    H236456   5.348   0.192   8.461 -0.6592  0.9127 -1.0945
 4941TIP3   OH236457   4.681   0.204   8.266 -0.2699 -0.4571 -0.2486
 4941TIP3    H136458   4.638   0.120   8.284  1.4515 -1.4488 -0.5491
 4941TIP3    H236459   4.639   0.236   8.186  0.8469 -2.3965 -1.6997
 4942TIP3   OH236460   3.421   4.578   7.792  0.1273  0.6195 -0.0917
 4942TIP3    H136461   3.430   4.483   7.789 -2.4958  0.2182  1.5673
 4942TIP3    H236462   3.511   4.611   7.800  1.0749 -1.6941 -0.5637
 4943TIP3   OH236463   6.650   0.682   2.257 -0.3974  0.5829 -0.5535
 4943TIP3    H136464   6.696   0.598   2.265 -0.6763  0.4683 -0.1144
 4943TIP3    H236465   6.565   0.659   2.219 -0.1955  0.7621 -1.1217
 4944TIP3   OH236466   2.935   1.500   6.284 -0.0097  0.0217 -0.3222
 4944TIP3    H136467   2.951   1.455   6.367 -0.3643 -0.8494 -0.7128
 4944TIP3    H236468   3.014   1.551   6.269  0.0734  0.1613  0.5350
 4945TIP3   OH236469   0.398   4.897   0.625  0.4990 -0.0675 -0.2375
 4945TIP3    H136470   0.380   4.816   0.673  0.4083 -0.2190 -0.5207
 4945TIP3    H236471   0.365   4.967   0.682  0.7652 -0.2155  0.1010
 4946TIP3   OH236472   2.918   3.008   0.950 -0.1286 -0.5525  0.3577
 4946TIP3    H136473   2.924   3.045   1.038  0.4886 -1.3948  0.6905
 4946TIP3    H236474   2.918   3.083   0.892  1.9487 -0.0390  0.9619
 4947TIP3   OH236475   4.061   2.772   7.211  0.0680  0.2045  0.6047
 4947TIP3    H136476   4.012   2.726   7.143  0.5115  0.1498  0.3208
 4947TIP3    H236477   4.110   2.840   7.163  1.3876 -0.6517  0.6968
 4948TIP3   OH236478   4.460   0.585   8.229 -0.3085  0.1079  0.1627
 4948TIP3    H136479   4.520   0.560   8.158 -0.8850 -1.7090  0.2654
 4948TIP3    H236480   4.478   0.677   8.244  1.1484  0.0668 -1.0826
 4949TIP3   OH236481   5.048   5.437   7.964 -0.1165 -0.3236 -0.2923
 4949TIP3    H136482   5.040   5.365   7.902 -4.1826 -1.0265  0.7126
 4949TIP3    H236483   5.112   5.407   8.028 -0.8596 -2.6397 -0.5313
 4950TIP3   OH236484   5.947   0.657   7.644  0.1422 -0.4726 -0.1006
 4950TIP3    H136485   5.872   0.611   7.684  1.1755 -1.8851  0.2872
 4950TIP3    H236486   5.961   0.732   7.701  0.6587 -1.6545  1.4107
 4951TIP3   OH236487   0.729   0.984   8.472 -0.0597  0.4449  0.8190
 4951TIP3    H136488   0.791   1.032   8.417 -0.7395  1.1592  0.6678
 4951TIP3    H236489   0.752   1.008   8.562  0.9994 -0.6589  0.8790
 4952TIP3   OH236490   3.366   6.032   8.346  0.2308  0.0813 -0.3840
 4952TIP3    H136491   3.357   6.082   8.265  0.2418  0.7763  0.0404
 4952TIP3    H236492   3.305   5.958   8.335  0.4095  0.0391 -1.1176
 4953TIP3   OH236493   1.863   6.686   8.011  0.7212  0.2550  0.1313
 4953TIP3    H136494   1.916   6.623   8.059 -0.4607 -1.2260 -0.4184
 4953TIP3    H236495   1.895   6.681   7.921  0.4720  0.2331  0.0407
 4954TIP3   OH236496   2.210   0.441   0.099 -0.0217 -0.7957  0.0951
 4954TIP3    H136497   2.116   0.451   0.117 -0.4732 -0.6209 -2.0762
 4954TIP3    H236498   2.226   0.347   0.107 -0.6462 -0.9704 -0.5806
 4955TIP3   OH236499   3.190   2.354   7.585  0.0568  0.2358  0.0005
 4955TIP3    H136500   3.164   2.344   7.677  1.3621  1.9706  0.6163
 4955TIP3    H236501   3.203   2.449   7.574 -0.7606  0.1520 -2.1904
 4956TIP3   OH236502   1.084   1.512   7.709 -0.2691 -0.1443  0.0681
 4956TIP3    H136503   1.179   1.522   7.716 -0.3590  0.8391  0.0210
 4956TIP3    H236504   1.049   1.563   7.782 -0.8137  1.0851 -1.0006
 4957TIP3   OH236505   4.067   4.959   8.074 -0.3005  0.2574 -1.0356
 4957TIP3    H136506   4.027   4.980   8.159 -0.0689  2.9011 -1.4734
 4957TIP3    H236507   4.128   4.889   8.093 -0.6883  0.3721  0.8805
 4958TIP3   OH236508   6.544   3.218   7.451 -0.1531 -0.1219 -0.0235
 4958TIP3    H136509   6.475   3.188   7.391 -0.9535 -0.4786  1.0518
 4958TIP3    H236510   6.553   3.147   7.515 -0.9705  1.1925  1.6410
 4959TIP3   OH236511   4.601   2.335   0.285  0.4572 -0.1777 -0.2726
 4959TIP3    H136512   4.524   2.308   0.335 -0.1236  1.9720  0.1047
 4959TIP3    H236513   4.582   2.426   0.260  2.1593 -0.1462 -1.6171
 4960TIP3   OH236514   2.908   2.529   0.053  0.0455  0.2557 -0.9122
 4960TIP3    H136515   2.941   2.572  -0.025  0.8386  1.4143  0.0305
 4960TIP3    H236516   2.931   2.588   0.125 -1.7032 -0.2007  0.0805
 4961TIP3   OH236517   5.132   5.661   1.359 -0.4327  0.4017 -0.7267
 4961TIP3    H136518   5.053   5.663   1.413 -1.3161  0.0209 -1.9506
 4961TIP3    H236519   5.110   5.600   1.288  0.2984  1.6362 -2.0598
 4962TIP3   OH236520   1.651   2.704   1.503  0.4797 -0.5969  0.1266
 4962TIP3    H136521   1.569   2.747   1.477  0.6457  0.5460  1.3713
 4962TIP3    H236522   1.713   2.729   1.434 -0.2253 -1.5843 -0.8977
 4963TIP3   OH236523   0.669   2.638   2.336 -0.1483 -0.1571 -0.0500
 4963TIP3    H136524   0.642   2.684   2.256  1.3374 -1.2054 -1.2014
 4963TIP3    H236525   0.762   2.619   2.322 -0.4320 -2.4634  0.8837
 4964TIP3   OH236526   3.992   5.386   7.334 -0.4146  0.4231 -0.1257
 4964TIP3    H136527   4.061   5.444   7.300  0.8924 -1.3110 -0.5779
 4964TIP3    H236528   4.035   5.301   7.344 -1.5577  0.0546  2.9306
 4965TIP3   OH236529   2.082   5.385   1.635 -0.6964  0.0591 -0.4163
 4965TIP3    H136530   2.146   5.441   1.679 -0.5993  0.6478 -1.2887
 4965TIP3    H236531   2.048   5.439   1.564 -0.7324 -0.9302 -1.1695
 4966TIP3   OH236532   5.077   0.583   8.377 -0.1259  0.2091 -0.2365
 4966TIP3    H136533   5.069   0.653   8.441  0.0322  0.5024 -0.5349
 4966TIP3    H236534   5.037   0.507   8.419 -0.7240  0.5966 -0.0975
 4967TIP3   OH236535   3.509   0.996   1.896 -0.1445 -0.3909 -0.2959
 4967TIP3    H136536   3.542   0.930   1.834  0.9455 -0.7320  0.6157
 4967TIP3    H236537   3.519   0.955   1.982  0.2614  0.8417  0.2624
 4968TIP3   OH236538   2.322   6.567   0.722 -0.6200 -0.2214  0.4222
 4968TIP3    H136539   2.269   6.553   0.644 -0.9745  0.8757  0.4592
 4968TIP3    H236540   2.405   6.524   0.702  0.5437  2.7768 -1.9367
 4969TIP3   OH236541   1.615   5.013   0.052 -0.0950 -0.2476 -0.8824
 4969TIP3    H136542   1.546   4.956   0.017 -0.5788 -0.2743  0.0800
 4969TIP3    H236543   1.600   5.097   0.008 -1.4094  0.0456  0.0534
 4970TIP3   OH236544   1.754   4.448   0.759 -0.3464  0.0281  0.0642
 4970TIP3    H136545   1.786   4.491   0.679  0.3929  0.0366  0.3506
 4970TIP3    H236546   1.770   4.512   0.828 -2.3078  0.6029  0.0412
 4971TIP3   OH236547   5.429   4.744   0.377  0.6265  0.2895 -0.2949
 4971TIP3    H136548   5.420   4.835   0.351 -2.2317 -0.3794 -2.0757
 4971TIP3    H236549   5.501   4.710   0.324 -1.1065  0.5073 -2.9368
 4972TIP3   OH236550   6.550   0.444   0.289  0.0533 -0.0801 -0.9314
 4972TIP3    H136551   6.490   0.385   0.335 -1.1011  0.6652 -1.4301
 4972TIP3    H236552   6.525   0.532   0.318  1.2679  0.2277 -0.7503
 4973TIP3   OH236553   2.012   0.772   7.659 -0.0980  0.4085 -0.3610
 4973TIP3    H136554   1.994   0.799   7.749 -1.6474 -0.1632 -0.4815
 4973TIP3    H236555   2.032   0.854   7.613 -1.8383  1.0379 -0.0610
 4974TIP3   OH236556   0.521   4.156   6.289  0.2551 -0.2604  0.7864
 4974TIP3    H136557   0.589   4.171   6.223 -0.2279  0.6026  0.4732
 4974TIP3    H236558   0.456   4.224   6.272 -1.0365 -1.4914  0.6420
 4975TIP3   OH236559   6.229   4.556   1.676  0.1557 -0.1822 -0.5089
 4975TIP3    H136560   6.321   4.583   1.682  0.1122 -0.3595  1.4054
 4975TIP3    H236561   6.195   4.567   1.765 -1.4773 -0.8555 -1.0231
 4976TIP3   OH236562   3.395   4.797   8.579  0.4465 -0.2613  0.0212
 4976TIP3    H136563   3.372   4.836   8.495 -0.7856 -0.4376  0.2667
 4976TIP3    H236564   3.393   4.870   8.641  1.4257 -0.1176 -0.1006
 4977TIP3   OH236565   2.427   1.744   6.513 -0.2396  0.1161 -0.5905
 4977TIP3    H136566   2.488   1.721   6.442 -0.7125 -0.9254 -0.6748
 4977TIP3    H236567   2.361   1.675   6.511 -1.0664  0.8753 -0.0653
 4978TIP3   OH236568   4.721   1.280   6.550 -0.0007  0.3457 -0.2245
 4978TIP3    H136569   4.641   1.322   6.520  0.5167 -0.1693 -2.5648
 4978TIP3    H236570   4.694   1.192   6.574 -0.0493 -0.1636 -1.9815
 4979TIP3   OH236571   6.850   6.445   8.607 -0.6605 -0.6474  0.0399
 4979TIP3    H136572   6.909   6.450   8.683 -0.2100  1.5016 -0.3726
 4979TIP3    H236573   6.769   6.485   8.638 -0.0740  1.3887 -0.8888
 4980TIP3   OH236574   5.555   4.413   6.670 -0.7625  0.2021 -0.8170
 4980TIP3    H136575   5.607   4.386   6.594 -0.6468 -2.9464  0.2258
 4980TIP3    H236576   5.585   4.356   6.740 -1.3648  2.5192  1.4802
 4981TIP3   OH236577   6.474   2.913   0.839 -0.4569 -0.1287  0.2198
 4981TIP3    H136578   6.442   2.877   0.757  3.6974  0.2308 -1.8004
 4981TIP3    H236579   6.486   3.006   0.822 -1.8786  0.5029  2.1834
 4982TIP3   OH236580   3.252   5.119   6.684 -0.4059  0.5994 -0.2446
 4982TIP3    H136581   3.314   5.077   6.744  0.3178  2.4129  0.3363
 4982TIP3    H236582   3.297   5.119   6.599  1.1336  3.1645  0.4464
 4983TIP3   OH236583   2.759   0.211   8.605 -0.2577  0.2700 -0.9079
 4983TIP3    H136584   2.850   0.196   8.632 -0.3721  1.3272  0.1768
 4983TIP3    H236585   2.722   0.124   8.596  1.0924 -0.2085 -2.2293
 4984TIP3   OH236586   5.594   1.112   8.081 -0.9115 -1.0591 -0.1629
 4984TIP3    H136587   5.642   1.040   8.042  0.4154 -0.7459  0.8117
 4984TIP3    H236588   5.622   1.189   8.032 -0.6006 -0.9157  0.2267
 4985TIP3   OH236589   5.543   0.821   0.589 -0.0919 -0.2242  0.4025
 4985TIP3    H136590   5.501   0.850   0.670 -0.1486 -0.1539  0.3487
 4985TIP3    H236591   5.500   0.738   0.567 -1.9093  0.9876 -0.9233
 4986TIP3   OH236592   0.963   4.977   7.105  0.5656 -0.3663  0.6218
 4986TIP3    H136593   0.962   4.936   7.019 -1.3411 -0.2127  0.5242
 4986TIP3    H236594   0.968   4.904   7.167 -0.9745 -0.6809  0.4103
 4987TIP3   OH236595   5.356   2.869   0.502  0.0481 -0.1639  0.3946
 4987TIP3    H136596   5.415   2.934   0.538  3.0874 -1.0787 -2.4509
 4987TIP3    H236597   5.406   2.788   0.503 -1.4922 -1.2078 -1.3214
 4988TIP3   OH236598   1.937   1.022   0.709 -0.3944  0.4456 -0.4379
 4988TIP3    H136599   2.019   1.067   0.686  1.4187 -1.9503  0.8975
 4988TIP3    H236600   1.923   1.044   0.801  0.9105 -2.0869  0.4517
 4989TIP3   OH236601   5.617   5.257   7.002  0.1087 -0.3045  0.5298
 4989TIP3    H136602   5.560   5.332   7.020 -0.9624 -1.1291  0.7043
 4989TIP3    H236603   5.683   5.260   7.071 -0.6377 -0.2051  1.2534
 4990TIP3   OH236604   3.687   6.698   1.012 -0.8655  0.2397 -0.1217
 4990TIP3    H136605   3.691   6.787   1.046  0.0271 -0.0158  0.4741
 4990TIP3    H236606   3.725   6.704   0.924  0.7838  0.1685  0.5560
 4991TIP3   OH236607   1.990   6.261   8.510  0.1468  1.0496 -0.1860
 4991TIP3    H136608   1.941   6.190   8.468  1.4197  1.2262 -2.0828
 4991TIP3    H236609   1.924   6.324   8.537 -0.8260  0.3084 -0.7962
 4992TIP3   OH236610   2.841   1.223   6.880 -0.3226 -0.2645 -0.0722
 4992TIP3    H136611   2.757   1.216   6.834 -1.2106  0.2758  1.3761
 4992TIP3    H236612   2.831   1.301   6.936  1.3947  0.1842 -0.3365
 4993TIP3   OH236613   4.853   5.331   1.043  0.1004 -0.6925 -0.7231
 4993TIP3    H136614   4.831   5.298   1.130  2.6550 -1.4589 -0.2920
 4993TIP3    H236615   4.924   5.393   1.057  1.2504 -1.5706 -2.3212
 4994TIP3   OH236616   3.146   5.877   0.552 -0.0656 -0.2096  0.1410
 4994TIP3    H136617   3.079   5.923   0.601  0.2206  0.3734  0.0006
 4994TIP3    H236618   3.100   5.841   0.476 -0.1375  0.6728 -0.2605
 4995TIP3   OH236619   2.999   6.505   0.141  0.0219 -0.1499  0.9153
 4995TIP3    H136620   2.938   6.476   0.208  0.0801  0.5440  1.2721
 4995TIP3    H236621   3.070   6.441   0.144 -1.8099 -2.5551 -1.2649
 4996TIP3   OH236622   4.421   2.905   7.334 -0.0171  0.3987 -0.1087
 4996TIP3    H136623   4.477   2.851   7.389 -0.8415  1.0096  1.3863
 4996TIP3    H236624   4.425   2.863   7.248  0.5215 -1.1806  0.6410
 4997TIP3   OH236625   6.309   5.675   7.894 -0.5372  0.2784  0.2706
 4997TIP3    H136626   6.340   5.597   7.940  0.0257  0.5027  0.2776
 4997TIP3    H236627   6.223   5.692   7.932 -0.6509 -0.3228  0.2896
 4998TIP3   OH236628   0.609   3.707   6.930  0.1296 -0.4872 -0.3590
 4998TIP3    H136629   0.567   3.644   6.989  0.6910  0.0631  0.6550
 4998TIP3    H236630   0.651   3.653   6.863 -1.1078 -1.0928 -0.6716
 4999TIP3   OH236631   2.683   2.926   0.218 -0.2454  0.3488 -0.1716
 4999TIP3    H136632   2.724   2.955   0.300  0.1576  0.2041 -0.3180
 4999TIP3    H236633   2.625   2.855   0.244  0.2762 -0.0497 -0.0758
 5000TIP3   OH236634   3.606   4.477   2.519 -0.6068  0.1595 -0.4432
 5000TIP3    H136635   3.536   4.425   2.479 -1.2519  0.2941  0.4804
 5000TIP3    H236636   3.574   4.498   2.606  0.9569 -0.4973  0.3220
 5001TIP3   OH236637   3.568   6.467   1.876  0.3355  0.2620 -0.3721
 5001TIP3    H136638   3.490   6.443   1.927 -0.4949 -0.7333 -2.0294
 5001TIP3    H236639   3.545   6.550   1.834  0.1490 -0.0440 -0.8806
 5002TIP3   OH236640   4.356   6.209   1.893 -0.2653  0.1647 -0.2168
 5002TIP3    H136641   4.398   6.294   1.881  1.3286 -0.7572 -1.5032
 5002TIP3    H236642   4.353   6.198   1.989  2.2075  0.4372 -0.0304
 5003TIP3   OH236643   0.141   2.560   1.180 -0.0746  0.0350  0.0838
 5003TIP3    H136644   0.228   2.540   1.215 -0.3751  0.5132  1.1317
 5003TIP3    H236645   0.101   2.474   1.164  0.3632 -0.1853  0.1445
 5004TIP3   OH236646   2.856   6.142   1.418 -0.8123  0.0011  0.2136
 5004TIP3    H136647   2.913   6.194   1.475 -1.8402  0.0286  1.2666
 5004TIP3    H236648   2.785   6.115   1.475 -1.9940  0.1827 -1.1196
 5005TIP3   OH236649   6.630   6.606   7.988 -0.3698 -0.3534 -0.1588
 5005TIP3    H136650   6.558   6.654   8.029  0.7852  0.2957  1.1644
 5005TIP3    H236651   6.590   6.563   7.912 -2.1036  0.1237  0.4536
 5006TIP3   OH236652   5.085   0.933   7.535  0.5580  0.1939  0.5767
 5006TIP3    H136653   5.137   0.854   7.550  0.1802  0.0493  1.1379
 5006TIP3    H236654   5.016   0.929   7.601 -1.2748 -0.5688 -1.2581
 5007TIP3   OH236655   5.847   5.237   7.299 -0.6448 -0.2379  0.0787
 5007TIP3    H136656   5.822   5.323   7.266 -1.4011 -0.1438  0.8441
 5007TIP3    H236657   5.930   5.253   7.345 -1.2299  0.2843  0.9952
 5008TIP3   OH236658   1.559   4.812   6.845  0.2983 -0.0689 -0.2312
 5008TIP3    H136659   1.499   4.871   6.800 -2.8202 -2.0560  0.9313
 5008TIP3    H236660   1.582   4.747   6.779 -1.2366 -0.8862 -0.0107
 5009TIP3   OH236661   1.881   1.360   8.346  0.2711  0.4464  0.1538
 5009TIP3    H136662   1.883   1.363   8.442  0.1551 -0.0410  0.1778
 5009TIP3    H236663   1.801   1.311   8.326  1.3238 -1.2692 -0.1345
 5010TIP3   OH236664   3.225   1.545   1.144 -0.1987  0.3285 -0.2091
 5010TIP3    H136665   3.241   1.456   1.174  0.8994  0.7477  0.4882
 5010TIP3    H236666   3.201   1.536   1.052  1.0074 -0.5957 -0.4441
 5011TIP3   OH236667   0.058   4.601   5.769  0.1790  0.0832  0.0976
 5011TIP3    H136668   0.084   4.509   5.770 -0.0478  0.0182  0.2515
 5011TIP3    H236669  -0.024   4.603   5.818  0.8651  0.5780  1.2733
 5012TIP3   OH236670   1.370   0.760   1.022 -0.6680  0.4917  0.6540
 5012TIP3    H136671   1.294   0.808   0.989 -0.0021  1.4443  0.4654
 5012TIP3    H236672   1.366   0.771   1.117  0.9943  3.3698  0.4905
 5013TIP3   OH236673   1.943   5.650   1.828  0.0794 -0.0186  0.2905
 5013TIP3    H136674   1.944   5.554   1.835  4.2282 -0.0898  1.0913
 5013TIP3    H236675   1.918   5.680   1.916 -1.6880 -0.2659 -0.0830
 5014TIP3   OH236676   1.314   4.772   7.653  0.2230 -0.3426  0.5486
 5014TIP3    H136677   1.385   4.794   7.713 -0.4841 -0.5568  1.4904
 5014TIP3    H236678   1.308   4.847   7.594  1.5482 -0.5414  0.1442
 5015TIP3   OH236679   1.785   6.082   8.406 -0.0993  0.0691 -0.4674
 5015TIP3    H136680   1.762   6.048   8.320  1.8851  0.7398 -1.3200
 5015TIP3    H236681   1.702   6.114   8.442 -0.9246  0.0306 -2.2403
 5016TIP3   OH236682   3.539   5.857   1.534 -0.2496  0.6303 -0.8147
 5016TIP3    H136683   3.599   5.810   1.591 -1.0430 -1.0999 -1.3321
 5016TIP3    H236684   3.594   5.894   1.465  0.3325 -0.1135 -0.7555
 5017TIP3   OH236685   4.851   2.900   1.149  0.5979 -0.8082 -0.0735
 5017TIP3    H136686   4.885   2.986   1.123  1.2148 -0.7527  0.8795
 5017TIP3    H236687   4.888   2.884   1.236  0.6161 -2.1144 -0.3006
 5018TIP3   OH236688   6.423   1.716   7.673 -0.0595 -0.4008  0.1974
 5018TIP3    H136689   6.408   1.691   7.764 -3.1287 -1.3621 -0.4760
 5018TIP3    H236690   6.486   1.651   7.640  0.5130 -0.4734  1.3973
 5019TIP3   OH236691   3.643   5.293   7.001 -0.4497  0.4343 -0.1709
 5019TIP3    H136692   3.648   5.218   7.061  0.5139  0.7233  0.1253
 5019TIP3    H236693   3.674   5.367   7.053 -0.3780  0.8404 -0.7890
 5020TIP3   OH236694   0.561   6.823   0.959 -0.1473  0.2757 -0.4574
 5020TIP3    H136695   0.523   6.737   0.980 -0.0948 -0.1298 -1.9439
 5020TIP3    H236696   0.558   6.871   1.042  0.0533 -1.2465  0.4775
 5021TIP3   OH236697   3.992   1.209   8.538 -0.1765 -0.7382  0.2791
 5021TIP3    H136698   3.910   1.203   8.586 -0.4314  1.1965  0.1567
 5021TIP3    H236699   3.979   1.282   8.477  1.4882 -0.6462 -0.0171
 5022TIP3   OH236700   1.139   0.736   8.363 -0.3097  0.1051  0.4636
 5022TIP3    H136701   1.165   0.713   8.452  2.2339  0.5114 -0.0855
 5022TIP3    H236702   1.073   0.671   8.339 -1.4084  0.2737  2.7664
 5023TIP3   OH236703   6.887   1.223   1.579 -0.1355  0.0238 -0.2606
 5023TIP3    H136704   6.952   1.287   1.549  0.3097 -1.7433 -3.6126
 5023TIP3    H236705   6.803   1.258   1.549 -0.0740 -0.1468 -0.6478
 5024TIP3   OH236706   5.673   2.456   1.077 -0.0491 -0.4587 -0.5144
 5024TIP3    H136707   5.622   2.528   1.039  0.0971  0.0280  0.1836
 5024TIP3    H236708   5.758   2.495   1.098  0.3648 -1.0787 -0.9805
 5025TIP3   OH236709   4.172   1.906   8.374  0.1947 -0.2109 -0.4867
 5025TIP3    H136710   4.265   1.920   8.359  0.3750  0.9297  1.3625
 5025TIP3    H236711   4.149   1.833   8.317  3.2673 -3.6320  2.1493
 5026TIP3   OH236712   6.870   0.385   7.067  0.2330 -0.2389  0.0050
 5026TIP3    H136713   6.800   0.403   7.130  1.7793  0.7398  1.5142
 5026TIP3    H236714   6.856   0.293   7.043 -0.2552 -0.7499  2.0094
 5027TIP3   OH236715   0.637   3.116   1.621  0.5379  0.3376  0.1577
 5027TIP3    H136716   0.591   3.036   1.595 -0.1823  1.0660 -0.8926
 5027TIP3    H236717   0.567   3.178   1.642  1.0974  0.5185  1.5573
 5028TIP3   OH236718   2.091   4.715   0.209 -0.2331 -0.3367 -0.5904
 5028TIP3    H136719   2.034   4.700   0.133  0.5760 -0.9234 -1.1016
 5028TIP3    H236720   2.171   4.751   0.171 -0.3793  0.8231  0.1576
 5029TIP3   OH236721   3.903   0.945   8.087 -0.3220  0.7565 -0.2042
 5029TIP3    H136722   3.865   1.021   8.043  0.6472  2.6175  1.9257
 5029TIP3    H236723   3.989   0.974   8.116  0.6097 -1.6083 -0.3719
 5030TIP3   OH236724   2.558   2.686   6.621  0.5274 -0.0985 -0.3936
 5030TIP3    H136725   2.516   2.602   6.600 -0.5227  0.5242 -0.8550
 5030TIP3    H236726   2.617   2.665   6.694 -0.3052 -1.0900  0.0349
 5031TIP3   OH236727   5.513   1.451   7.264 -0.3719 -0.1072  0.0753
 5031TIP3    H136728   5.563   1.532   7.254 -2.3074  1.3886  1.7335
 5031TIP3    H236729   5.579   1.382   7.256  1.7282  1.6864  0.6991
 5032TIP3   OH236730   5.037   1.950   1.686 -0.5769  0.1329 -0.1316
 5032TIP3    H136731   5.120   1.913   1.657 -0.2000  0.8166  0.0567
 5032TIP3    H236732   4.990   1.969   1.604 -0.5186 -0.1851 -0.2401
 5033TIP3   OH236733   4.465   4.838   6.908 -0.1369  0.0754  0.3761
 5033TIP3    H136734   4.484   4.809   6.998 -0.8054 -1.0680  0.1767
 5033TIP3    H236735   4.551   4.843   6.866  0.1715  0.4947  1.0433
 5034TIP3   OH236736   4.457   1.930   6.032  0.0048  0.1713 -0.4709
 5034TIP3    H136737   4.426   2.006   6.081 -0.0354 -0.0290 -0.1819
 5034TIP3    H236738   4.381   1.900   5.983  0.4867  1.4307 -2.0463
 5035TIP3   OH236739   2.017   2.523   8.454  0.2902 -0.4069  0.3488
 5035TIP3    H136740   2.104   2.539   8.490 -0.1790  2.1253  0.5153
 5035TIP3    H236741   1.983   2.450   8.505  1.3794  0.1641  1.9604
 5036TIP3   OH236742   5.413   5.573   0.815  0.3237  0.4150  0.5868
 5036TIP3    H136743   5.332   5.543   0.775  0.1655  0.0614  1.1624
 5036TIP3    H236744   5.387   5.645   0.872  0.8316  2.5089 -1.6163
 5037TIP3   OH236745   1.251   1.069   7.369 -0.0820 -0.3260 -0.1110
 5037TIP3    H136746   1.312   1.140   7.349 -0.4780 -0.5253 -2.2634
 5037TIP3    H236747   1.280   0.996   7.314 -0.3379 -1.5057  1.2485
 5038TIP3   OH236748   0.333   0.304   7.291 -0.0938  0.6125  0.2296
 5038TIP3    H136749   0.376   0.359   7.225  1.2016 -0.7351 -0.1000
 5038TIP3    H236750   0.398   0.292   7.359  0.1307 -1.4884 -0.2785
 5039TIP3   OH236751   4.194   6.470   1.632 -0.3425  0.0160 -0.3162
 5039TIP3    H136752   4.258   6.420   1.582 -0.5341  1.0052 -1.5927
 5039TIP3    H236753   4.171   6.543   1.575 -1.4662  0.5221  0.7502
 5040TIP3   OH236754   3.844   3.649   2.041 -0.3942  0.6717 -0.3957
 5040TIP3    H136755   3.785   3.634   2.115  0.3067  1.0984  0.2684
 5040TIP3    H236756   3.863   3.743   2.045 -0.7607  0.7932 -1.4382
 5041TIP3   OH236757   5.135   2.664   0.214 -0.1327 -0.2619 -0.2913
 5041TIP3    H136758   5.122   2.727   0.142 -0.2480  1.8596  1.4671
 5041TIP3    H236759   5.229   2.645   0.213 -0.0047  0.3616 -0.5361
 5042TIP3   OH236760   2.820   4.080   2.399  0.2182  0.1963 -0.1040
 5042TIP3    H136761   2.898   4.026   2.395  0.5380  0.4875  1.5674
 5042TIP3    H236762   2.852   4.170   2.392 -0.1064  0.2760 -0.6896
 5043TIP3   OH236763   4.711   4.891   7.809 -1.0827  0.2863  1.1161
 5043TIP3    H136764   4.712   4.816   7.750 -3.1394  1.6495 -0.8122
 5043TIP3    H236765   4.628   4.883   7.856 -1.2042  1.2214  1.0758
 5044TIP3   OH236766   5.483   6.639   6.379 -0.4425 -0.2706 -0.0093
 5044TIP3    H136767   5.525   6.656   6.294  1.0656  1.5538  1.0253
 5044TIP3    H236768   5.548   6.590   6.428 -0.9712 -0.5769  0.3909
 5045TIP3   OH236769   3.694   4.766   6.341  0.2026 -0.2801 -0.4568
 5045TIP3    H136770   3.687   4.751   6.247  1.0623  0.7288 -0.6995
 5045TIP3    H236771   3.616   4.817   6.363 -0.5146 -1.3531 -0.4147
 5046TIP3   OH236772   1.897   2.548   0.519  0.5093  1.1264 -0.5723
 5046TIP3    H136773   1.976   2.602   0.517  1.9721 -0.8195  0.8216
 5046TIP3    H236774   1.876   2.540   0.612  1.3300 -1.9325 -0.5506
 5047TIP3   OH236775   6.087   3.044   8.378  0.8044 -0.0065  0.0846
 5047TIP3    H136776   6.151   3.115   8.372 -0.0344  0.6617 -2.0719
 5047TIP3    H236777   6.002   3.088   8.376  0.2345 -1.0117 -2.4353
 5048TIP3   OH236778   4.626   4.086   1.223  0.2022  0.2751 -0.3886
 5048TIP3    H136779   4.567   4.068   1.150  0.7514  1.3987 -1.1341
 5048TIP3    H236780   4.694   4.019   1.217 -0.7176 -0.7406  0.1976
 5049TIP3   OH236781   4.087   3.941   8.240 -0.0114 -0.0867  0.7557
 5049TIP3    H136782   4.158   3.983   8.192 -1.3897  0.2515 -1.0872
 5049TIP3    H236783   4.118   3.852   8.256  0.8732  0.0941  0.1097
 5050TIP3   OH236784   2.932   4.626   0.264 -0.2394 -0.1442 -0.1059
 5050TIP3    H136785   2.855   4.591   0.309 -0.1676 -1.1723 -0.7631
 5050TIP3    H236786   2.895   4.684   0.197 -0.4403 -0.4965 -0.3032
 5051TIP3   OH236787   3.611   5.006   7.851  0.7621  0.1764 -0.2931
 5051TIP3    H136788   3.657   5.004   7.935  1.4682 -0.9887 -0.6732
 5051TIP3    H236789   3.681   5.018   7.786  0.1473  1.8707 -0.6940
 5052TIP3   OH236790   2.787   5.595   7.113  0.4610  0.4779  0.3661
 5052TIP3    H136791   2.861   5.624   7.167  1.6598 -0.7767 -0.5625
 5052TIP3    H236792   2.813   5.510   7.079 -1.4315 -0.0149  0.0153
 5053TIP3   OH236793   5.671   1.212   7.264 -0.3901 -0.1535 -0.3566
 5053TIP3    H136794   5.683   1.175   7.351 -1.7404  1.3451  0.5170
 5053TIP3    H236795   5.675   1.137   7.205  3.1029 -0.9293  0.6755
 5054TIP3   OH236796   6.876   5.749   2.384  0.3692  0.0873 -0.6246
 5054TIP3    H136797   6.917   5.666   2.358  1.4987  0.3848  0.1084
 5054TIP3    H236798   6.789   5.747   2.344  1.0091 -0.6856 -2.0515
 5055TIP3   OH236799   6.311   1.761   0.016  0.2823  0.0879 -0.6411
 5055TIP3    H136800   6.380   1.714  -0.031 -0.3331 -0.8143 -0.6817
 5055TIP3    H236801   6.349   1.846   0.038  1.2255 -0.2094 -1.0981
 5056TIP3   OH236802   3.347   4.298   7.880 -0.4007 -0.6560 -0.2110
 5056TIP3    H136803   3.285   4.359   7.920  0.2664  0.0127 -0.1865
 5056TIP3    H236804   3.345   4.221   7.938  0.3703  0.2062  1.0095
 5057TIP3   OH236805   1.551   5.244   0.778  0.4384  0.2397  0.0710
 5057TIP3    H136806   1.629   5.230   0.832  0.0282 -0.0208  0.6069
 5057TIP3    H236807   1.537   5.338   0.780  0.2613  0.2083  0.6724
 5058TIP3   OH236808   4.574   0.314   8.016  0.5898 -0.3818 -0.3024
 5058TIP3    H136809   4.606   0.404   8.015  1.3342 -0.6452 -0.9805
 5058TIP3    H236810   4.592   0.281   7.928  2.2616 -1.8435  0.5082
 5059TIP3   OH236811   4.438   2.165   1.095 -0.1332  0.1611  0.5703
 5059TIP3    H136812   4.459   2.198   1.008  1.5789 -1.9835  0.0981
 5059TIP3    H236813   4.377   2.093   1.079 -0.5023  0.3232  1.2289
 5060TIP3   OH236814   0.287   1.011   8.000 -0.4032 -0.3844 -0.5172
 5060TIP3    H136815   0.229   1.000   8.074  1.2811  1.2680  1.1622
 5060TIP3    H236816   0.363   0.956   8.021  1.1892  2.0024  0.3091
 5061TIP3   OH236817   2.808   6.207   7.256 -0.2339 -0.0436 -0.5595
 5061TIP3    H136818   2.760   6.233   7.178  0.1534 -1.6355 -1.3871
 5061TIP3    H236819   2.847   6.122   7.233  1.5670  0.3835  0.6477
 5062TIP3   OH236820   0.020   6.645   1.789  0.4888 -0.2180 -0.1209
 5062TIP3    H136821   0.096   6.693   1.757  0.3128 -1.0479 -1.8764
 5062TIP3    H236822  -0.052   6.709   1.784  0.9047  0.3742  0.9530
 5063TIP3   OH236823   0.333   0.038   7.831  0.9543  0.9283 -0.3437
 5063TIP3    H136824   0.413  -0.008   7.859  0.7444  0.4000 -0.6021
 5063TIP3    H236825   0.270   0.021   7.900  1.1180  1.5086 -0.0443
 5064TIP3   OH236826   3.784   4.614   1.491  0.3241 -0.1436 -0.5813
 5064TIP3    H136827   3.877   4.631   1.475  0.4074  0.5558  0.5570
 5064TIP3    H236828   3.783   4.539   1.550  0.3845  2.0783  2.4812
 5065TIP3   OH236829   0.548   5.464   6.313 -0.3834  0.3404  0.2961
 5065TIP3    H136830   0.458   5.433   6.325 -0.7702  1.3401  0.0666
 5065TIP3    H236831   0.548   5.553   6.349 -0.1944  1.3864 -2.1080
 5066TIP3   OH236832   1.433   0.429   7.861  0.4351 -0.7383 -0.2683
 5066TIP3    H136833   1.478   0.475   7.933 -1.8957  2.0560 -0.3932
 5066TIP3    H236834   1.494   0.433   7.788  1.9360 -1.5856  0.8855
 5067TIP3   OH236835   3.306   2.460   0.332  0.4003  0.6013  0.2940
 5067TIP3    H136836   3.321   2.416   0.415  1.1992  0.7922  0.2600
 5067TIP3    H236837   3.333   2.551   0.347  0.8926  0.5583 -0.2628
 5068TIP3   OH236838   3.905   0.029   6.905 -0.1930 -0.9898 -0.0780
 5068TIP3    H136839   3.879   0.118   6.883 -2.1346 -0.6881  2.8439
 5068TIP3    H236840   4.000   0.033   6.916  0.0473  0.1374 -2.1322
 5069TIP3   OH236841   4.277   5.843   1.134  0.0261  0.5322  0.5192
 5069TIP3    H136842   4.325   5.908   1.186  1.1102  0.8106 -0.7872
 5069TIP3    H236843   4.291   5.869   1.043 -1.0941 -0.4547  0.0336
 5070TIP3   OH236844   4.511   4.292   1.365  0.4785  0.2678 -0.8938
 5070TIP3    H136845   4.516   4.221   1.301 -1.1819  1.5102 -2.5303
 5070TIP3    H236846   4.514   4.248   1.450 -0.0263 -1.7219 -1.8372
 5071TIP3   OH236847   0.487   4.793   7.253  0.4222  0.2512 -0.8277
 5071TIP3    H136848   0.578   4.774   7.232  1.3966  2.9829  0.5547
 5071TIP3    H236849   0.437   4.727   7.204  3.0829 -1.2243 -1.7389
 5072TIP3   OH236850   6.209   3.373   6.570  0.1431 -0.0781  0.0055
 5072TIP3    H136851   6.200   3.468   6.571 -0.3280 -0.1086 -0.7316
 5072TIP3    H236852   6.249   3.353   6.485 -2.4139 -0.7346 -1.1444
 5073TIP3   OH236853   1.800   5.220   7.679 -0.8841 -0.1362  0.0046
 5073TIP3    H136854   1.754   5.143   7.644 -0.3411 -1.2919  1.6651
 5073TIP3    H236855   1.813   5.277   7.604 -3.5457 -0.4916 -0.8314
 5074TIP3   OH236856   0.397   1.133   2.591 -0.6374 -0.3928 -0.1508
 5074TIP3    H136857   0.430   1.099   2.508 -3.6446 -1.9938 -0.7909
 5074TIP3    H236858   0.341   1.206   2.567 -0.1095  0.3069  0.6607
 5075TIP3   OH236859   2.009   2.865   6.728 -0.0137  0.0400  0.2139
 5075TIP3    H136860   2.073   2.922   6.686  0.4658 -0.8183 -0.2422
 5075TIP3    H236861   2.062   2.803   6.779 -0.5364  0.2124  0.9804
 5076TIP3   OH236862   4.243   6.119   7.309  0.0566 -0.2594 -0.0244
 5076TIP3    H136863   4.216   6.028   7.307 -0.3799 -0.1688  0.9161
 5076TIP3    H236864   4.184   6.163   7.248  0.0226 -0.5435 -0.1955
 5077TIP3   OH236865   5.403   3.246   0.620  0.1348 -0.0113 -0.2491
 5077TIP3    H136866   5.452   3.317   0.662  0.9445 -0.2565 -0.7439
 5077TIP3    H236867   5.312   3.274   0.622  0.5300  1.4190 -1.1751
 5078TIP3   OH236868   4.556   0.818   8.387 -0.3597  0.4787 -0.2794
 5078TIP3    H136869   4.586   0.908   8.373  1.2336 -0.1437 -1.0760
 5078TIP3    H236870   4.597   0.792   8.470 -0.8007  0.4605 -0.0611
 5079TIP3   OH236871   4.969   6.210   8.310  0.3862 -0.2681 -0.4469
 5079TIP3    H136872   4.877   6.183   8.315  0.1304  0.8440  3.0088
 5079TIP3    H236873   5.016   6.129   8.289 -1.0261 -1.9548  2.3457
 5080TIP3   OH236874   2.283   2.954   0.718 -0.2692 -0.3623  0.1590
 5080TIP3    H136875   2.207   2.997   0.678  0.3335  1.3151  0.7337
 5080TIP3    H236876   2.357   2.979   0.663 -0.0750 -1.8441 -0.2953
 5081TIP3   OH236877   2.985   0.121   6.980  0.2754  0.4536  0.4854
 5081TIP3    H136878   2.961   0.037   6.939 -0.8109  1.1396 -0.3406
 5081TIP3    H236879   3.008   0.098   7.070 -1.7202 -0.5362  0.8081
 5082TIP3   OH236880   4.331   4.988   6.361 -0.1824 -0.2167 -0.4848
 5082TIP3    H136881   4.415   4.971   6.402 -1.5880 -0.3589  2.6471
 5082TIP3    H236882   4.266   4.967   6.429 -2.7012  1.1411 -2.2814
 5083TIP3   OH236883   2.373   3.598   7.402 -0.3559 -0.2283  0.0017
 5083TIP3    H136884   2.329   3.631   7.324 -0.0365  0.8126  0.2445
 5083TIP3    H236885   2.303   3.561   7.456 -0.6055 -0.7525 -0.6667
 5084TIP3   OH236886   3.499   3.234   7.240  0.4659  0.1280  0.1431
 5084TIP3    H136887   3.510   3.312   7.295 -0.0304 -0.4993  1.1817
 5084TIP3    H236888   3.411   3.244   7.202  0.5780  0.2823 -0.0779
 5085TIP3   OH236889   1.343   1.234   0.139 -0.0209 -0.2836  0.2986
 5085TIP3    H136890   1.437   1.245   0.154  0.0165 -0.9425  0.6133
 5085TIP3    H236891   1.331   1.139   0.134 -0.2334 -0.1843 -2.7030
 5086TIP3   OH236892   6.200   4.009   0.792  0.4484 -0.5032  0.0642
 5086TIP3    H136893   6.173   4.068   0.863  4.3310  0.5753  0.8433
 5086TIP3    H236894   6.204   4.065   0.715  2.3079 -0.1383  0.3989
 5087TIP3   OH236895   2.882   2.447   6.987 -0.0085  0.6612  0.4247
 5087TIP3    H136896   2.927   2.486   6.912  0.2592  1.7274  1.1192
 5087TIP3    H236897   2.829   2.377   6.949  0.6931  0.6931 -0.6627
 5088TIP3   OH236898   0.285   6.450   7.789 -0.4220  0.2795  0.5914
 5088TIP3    H136899   0.209   6.457   7.732  0.3176  0.3249 -0.4072
 5088TIP3    H236900   0.318   6.361   7.776 -0.0476  0.4019  0.6799
 5089TIP3   OH236901   1.088   4.177   6.022  0.1010  0.6614  0.3608
 5089TIP3    H136902   1.082   4.208   6.113  0.4300  2.8301 -0.3020
 5089TIP3    H236903   1.124   4.251   5.974  0.8465 -0.7820 -1.4040
 5090TIP3   OH236904   3.008   3.717   0.251 -0.6869 -0.0856  0.3101
 5090TIP3    H136905   2.947   3.689   0.184 -0.5938  0.8254 -0.1648
 5090TIP3    H236906   2.967   3.793   0.291 -0.1950  0.0980  0.4728
 5091TIP3   OH236907   0.889   5.970   1.034  0.2595  0.4419  0.3845
 5091TIP3    H136908   0.846   5.950   1.117  0.6049  0.1079  0.4868
 5091TIP3    H236909   0.857   5.903   0.974 -2.3672  2.3968 -0.6186
 5092TIP3   OH236910   6.855   6.486   7.215  0.0577 -0.0205  0.1338
 5092TIP3    H136911   6.847   6.486   7.120 -0.8534 -0.3164  0.1962
 5092TIP3    H236912   6.915   6.414   7.235  0.8438  0.5156 -0.2477
 5093TIP3   OH236913   3.221   1.594   7.060 -0.2985 -0.9819  0.1328
 5093TIP3    H136914   3.181   1.635   6.983  0.2006 -0.2117  0.2793
 5093TIP3    H236915   3.182   1.640   7.134  1.1063  0.0276  0.2717
 5094TIP3   OH236916   4.590   0.575   1.385  0.0815  0.4996 -0.1593
 5094TIP3    H136917   4.598   0.519   1.308 -3.2764 -1.2094  0.5187
 5094TIP3    H236918   4.582   0.664   1.349  0.9257  0.0286 -1.5883
 5095TIP3   OH236919   6.823   1.812   7.845 -0.1041 -0.2096  0.2422
 5095TIP3    H136920   6.838   1.899   7.883  0.3208 -0.1476 -0.0678
 5095TIP3    H236921   6.746   1.824   7.790  0.8408  0.3462 -0.9970
 5096TIP3   OH236922   5.106   3.675   0.363  0.2935 -0.0553  0.4684
 5096TIP3    H136923   5.158   3.749   0.396  0.8885 -1.2186  2.3450
 5096TIP3    H236924   5.016   3.695   0.390 -0.1754  1.5036 -1.9462
 5097TIP3   OH236925   4.166   2.090   1.612  0.3730 -0.8517 -0.1372
 5097TIP3    H136926   4.225   2.042   1.671  0.8231 -0.4151 -0.2205
 5097TIP3    H236927   4.169   2.180   1.644  0.0789 -0.7464 -0.4073
 5098TIP3   OH236928   0.880   4.126   1.738 -0.2308 -0.7457  0.4789
 5098TIP3    H136929   0.821   4.130   1.813  0.9643  1.8652  1.4001
 5098TIP3    H236930   0.965   4.151   1.773  0.7234 -1.0471 -1.4711
 5099TIP3   OH236931   4.473   3.928   2.589 -0.0513  0.8500  0.4423
 5099TIP3    H136932   4.383   3.925   2.556 -0.0330 -4.4810 -0.0503
 5099TIP3    H236933   4.522   3.971   2.519 -1.8592  1.7327 -0.3675
 5100TIP3   OH236934   3.763   1.150   0.044  0.6245  0.1949 -0.7366
 5100TIP3    H136935   3.690   1.097   0.076  1.4393 -1.3529 -1.3919
 5100TIP3    H236936   3.819   1.162   0.121 -0.4068  1.6278 -0.1581
 5101TIP3   OH236937   5.832   1.643   0.407  0.1443 -0.4232 -0.1042
 5101TIP3    H136938   5.810   1.631   0.314 -0.1863 -0.8411  0.0219
 5101TIP3    H236939   5.899   1.711   0.407  0.3055 -0.5700 -0.6700
 5102TIP3   OH236940   2.229   5.936   1.561  0.0851  0.2530 -0.1181
 5102TIP3    H136941   2.218   6.007   1.498 -1.1943 -0.0737 -0.2894
 5102TIP3    H236942   2.189   5.969   1.641 -0.1523 -0.1086 -0.0838
 5103TIP3   OH236943   2.131   5.975   0.294 -0.5772  0.3445 -0.5990
 5103TIP3    H136944   2.071   6.035   0.338  0.2387 -0.5239  1.8924
 5103TIP3    H236945   2.079   5.896   0.278  0.0875 -0.9694  2.8927
 5104TIP3   OH236946   5.548   1.275   7.835 -0.1220  0.4315  0.1061
 5104TIP3    H136947   5.504   1.310   7.758  0.1667  0.4362 -0.0575
 5104TIP3    H236948   5.635   1.248   7.804 -1.0867 -2.5786 -0.3056
 5105TIP3   OH236949   2.918   4.446   0.826  0.3463 -0.2836 -0.1701
 5105TIP3    H136950   3.002   4.488   0.843  0.0195  0.7816 -1.0138
 5105TIP3    H236951   2.917   4.368   0.881  2.0073 -0.4724 -0.3804
 5106TIP3   OH236952   3.005   6.814   6.446  0.1157 -0.2200  0.2933
 5106TIP3    H136953   2.927   6.866   6.426 -0.8821 -1.4416  0.8593
 5106TIP3    H236954   3.018   6.760   6.368  0.1610 -0.2976  0.3549
 5107TIP3   OH236955   5.045   1.991   7.367  0.0848 -0.1713 -0.5503
 5107TIP3    H136956   5.063   1.911   7.319  0.1098  0.6921 -2.0393
 5107TIP3    H236957   5.037   1.963   7.458 -0.3550 -1.9126 -1.0912
 5108TIP3   OH236958   1.256   1.844   5.995 -0.0869  0.0822 -0.0453
 5108TIP3    H136959   1.225   1.921   6.042 -0.7294  0.3917 -0.9338
 5108TIP3    H236960   1.281   1.782   6.063 -0.3088  0.7788  0.6858
 5109TIP3   OH236961   2.766   5.054   1.485  0.4678  0.1650  0.4593
 5109TIP3    H136962   2.710   5.104   1.544 -0.8777 -1.3229  0.5021
 5109TIP3    H236963   2.724   5.062   1.399  2.3922  2.2943 -0.3947
 5110TIP3   OH236964   4.341   4.094   0.565  0.4939  0.4094  0.3180
 5110TIP3    H136965   4.320   4.152   0.492  1.4195  0.4566  0.0843
 5110TIP3    H236966   4.268   4.107   0.627 -1.1019 -0.7756 -1.2334
 5111TIP3   OH236967   6.671   4.263   2.392 -0.3052 -0.3829  0.0601
 5111TIP3    H136968   6.607   4.255   2.463 -0.8626 -0.0360 -0.3948
 5111TIP3    H236969   6.706   4.174   2.382  0.2809 -0.2883  1.2259
 5112TIP3   OH236970   4.771   1.268   0.374 -0.2071 -0.3383  0.9489
 5112TIP3    H136971   4.792   1.341   0.316 -1.6034 -0.3303  0.4162
 5112TIP3    H236972   4.842   1.206   0.361 -0.4542 -0.3040 -0.7291
 5113TIP3   OH236973   3.249   6.883   0.796 -0.0611  0.5834  0.0097
 5113TIP3    H136974   3.173   6.863   0.741 -1.7189 -0.1018  2.3627
 5113TIP3    H236975   3.317   6.824   0.765 -0.6794  0.7005 -1.7053
 5114TIP3   OH236976   5.114   2.962   1.546  0.0616  0.0199  0.7543
 5114TIP3    H136977   5.143   2.873   1.529  1.3897  0.5868 -0.1432
 5114TIP3    H236978   5.056   2.955   1.622  0.1819 -1.5867  0.7208
 5115TIP3   OH236979   6.567   1.365   1.254 -0.1094  0.1692 -0.0338
 5115TIP3    H136980   6.569   1.378   1.349 -0.5762 -1.5405  0.2287
 5115TIP3    H236981   6.480   1.329   1.236 -0.2973  1.1334 -1.2218
 5116TIP3   OH236982   4.177   1.704   1.801 -0.0669 -0.0919 -0.7998
 5116TIP3    H136983   4.241   1.634   1.813  0.6204  0.3885 -1.5185
 5116TIP3    H236984   4.098   1.660   1.768 -0.0535 -0.6685 -0.0684
 5117TIP3   OH236985   0.740   6.223   1.035  0.2494  0.1040 -0.0916
 5117TIP3    H136986   0.728   6.225   0.940  1.0315  2.0337 -0.2000
 5117TIP3    H236987   0.785   6.140   1.052  0.3736 -0.1216 -1.4369
 5118TIP3   OH236988   2.667   3.651   0.106  0.4787  0.1507 -0.0406
 5118TIP3    H136989   2.587   3.694   0.138  0.8368 -0.0954  1.2404
 5118TIP3    H236990   2.701   3.605   0.182  1.9850  0.4580 -0.5006
 5119TIP3   OH236991   3.597   5.396   1.956 -0.0638  0.3457 -0.6237
 5119TIP3    H136992   3.682   5.354   1.946 -0.1934  0.4843 -2.6488
 5119TIP3    H236993   3.534   5.326   1.943 -0.2786  0.3234  0.4692
 5120TIP3   OH236994   2.978   3.676   7.333 -0.5636 -0.2972  0.6390
 5120TIP3    H136995   2.904   3.710   7.282 -0.8103 -1.6868  0.0204
 5120TIP3    H236996   3.038   3.642   7.266 -0.3173 -1.0213  1.2230
 5121TIP3   OH236997   5.317   4.663   7.430  0.4395 -0.2345 -0.8806
 5121TIP3    H136998   5.347   4.734   7.372 -0.2981 -0.7237 -1.8915
 5121TIP3    H236999   5.261   4.706   7.495 -0.3607  0.0704 -1.7528
 5122TIP3   OH237000   6.894   4.059   8.248 -0.5839 -0.1748  0.0002
 5122TIP3    H137001   6.886   4.085   8.156  1.9291  0.8192 -0.0021
 5122TIP3    H237002   6.870   3.966   8.248 -1.2107 -0.0526 -1.5339
 5123TIP3   OH237003   3.676   0.615   1.450  0.1550 -0.1568  0.1680
 5123TIP3    H137004   3.681   0.703   1.411 -0.8588  0.0232  0.4108
 5123TIP3    H237005   3.636   0.561   1.382 -0.2980 -0.1618  0.4323
 5124TIP3   OH237006   1.408   0.032   8.059 -0.0059 -0.3186  0.3410
 5124TIP3    H137007   1.478  -0.033   8.050  0.8620  0.3955  1.6117
 5124TIP3    H237008   1.453   0.111   8.089 -1.1078  0.7383 -0.6668
 5125TIP3   OH237009   3.522   2.077   0.496 -0.5112 -0.0989 -0.0244
 5125TIP3    H137010   3.567   2.154   0.530 -2.5053  0.7605  0.8698
 5125TIP3    H237011   3.531   2.011   0.565  2.2592 -1.1912 -1.3028
 5126TIP3   OH237012   1.777   0.031   1.162  0.6014 -0.6862 -0.1568
 5126TIP3    H137013   1.751   0.119   1.189  1.0393 -0.8073  0.6943
 5126TIP3    H237014   1.844   0.044   1.096  1.1287 -0.3735  0.4295
 5127TIP3   OH237015   4.646   2.364   1.664  0.3460 -0.1959 -0.0807
 5127TIP3    H137016   4.587   2.296   1.695  0.6753 -1.0472 -1.2414
 5127TIP3    H237017   4.720   2.362   1.725 -0.0904 -0.2035  0.4516
 5128TIP3   OH237018   5.053   1.146   0.976 -0.2265 -0.5042  0.3082
 5128TIP3    H137019   5.111   1.212   0.938 -0.2364  0.7044  2.3046
 5128TIP3    H237020   4.967   1.164   0.938 -0.1162  0.2800  0.4272
 5129TIP3   OH237021   0.531   2.431   8.388  0.1152 -0.6987  0.1394
 5129TIP3    H137022   0.515   2.522   8.365 -2.0047 -0.3447  2.5432
 5129TIP3    H237023   0.608   2.434   8.446 -0.4880 -0.2638  0.9441
 5130TIP3   OH237024   5.222   2.439   8.005  0.5015  0.0191  0.4509
 5130TIP3    H137025   5.199   2.497   7.933 -1.1141 -0.3751  0.5946
 5130TIP3    H237026   5.269   2.495   8.067  0.2720  0.8096 -0.0744
 5131TIP3   OH237027   0.949   3.330   1.458  0.1976 -0.0500  0.3202
 5131TIP3    H137028   0.983   3.419   1.474  1.1902 -0.4205  0.3768
 5131TIP3    H237029   0.963   3.317   1.364 -0.8739  0.2151  0.1143
 5132TIP3   OH237030   1.366   0.863   6.452 -0.0748  0.0827  0.8517
 5132TIP3    H137031   1.346   0.956   6.445 -0.4098 -0.0134  0.5063
 5132TIP3    H237032   1.452   0.860   6.495  0.6347  0.5916 -0.4625
 5133TIP3   OH237033   6.209   6.658   7.505  0.1797  0.2660  0.2721
 5133TIP3    H137034   6.187   6.568   7.480 -0.3410  0.4722 -0.0472
 5133TIP3    H237035   6.243   6.651   7.594  0.3799 -0.2765  0.1596
 5134TIP3   OH237036   0.176   2.100   7.913 -0.3956  0.2556  0.5943
 5134TIP3    H137037   0.218   2.014   7.904  0.4316  0.3132  3.0828
 5134TIP3    H237038   0.084   2.080   7.930 -0.2626 -0.1395  0.8654
 5135TIP3   OH237039   3.404   4.139   7.216 -0.0753 -0.4064  0.2176
 5135TIP3    H137040   3.311   4.127   7.200  0.2855 -1.1586 -1.5934
 5135TIP3    H237041   3.444   4.136   7.129  1.4696  1.6723  0.7742
 5136TIP3   OH237042   2.771   1.588   6.576  0.1072 -0.2939 -0.7131
 5136TIP3    H137043   2.794   1.657   6.638  1.4460 -0.2770 -1.2091
 5136TIP3    H237044   2.842   1.524   6.584 -1.1561 -1.6842 -0.1906
 5137TIP3   OH237045   4.027   1.104   0.513  0.3242  0.8594 -0.4705
 5137TIP3    H137046   3.969   1.135   0.582 -2.6538 -4.0270 -0.2521
 5137TIP3    H237047   4.110   1.087   0.557 -0.6423  0.4434  1.2986
 5138TIP3   OH237048   5.131   1.426   7.246 -0.8201  0.0399 -0.3460
 5138TIP3    H137049   5.212   1.411   7.196  0.1730  1.8268  0.6176
 5138TIP3    H237050   5.125   1.351   7.305 -1.4907 -1.6147 -2.3626
 5139TIP3   OH237051   4.062   6.572   1.188 -0.7084 -0.4739 -0.2818
 5139TIP3    H137052   3.988   6.514   1.168 -0.7464 -0.5368  0.0456
 5139TIP3    H237053   4.138   6.524   1.154 -0.7881 -0.5206 -0.3971
 5140TIP3   OH237054   2.509   5.115   2.232  0.2462 -0.0093 -0.1016
 5140TIP3    H137055   2.577   5.171   2.269 -0.4989  0.1881  1.0271
 5140TIP3    H237056   2.548   5.027   2.230 -0.3213 -0.4745  3.1853
 5141TIP3   OH237057   6.080   0.148   6.617  0.1565  0.0328 -0.0811
 5141TIP3    H137058   6.074   0.053   6.612  2.6890 -0.1718 -3.6463
 5141TIP3    H237059   6.151   0.165   6.679  0.3204 -0.4816 -0.1283
 5142TIP3   OH237060   4.014   5.064   7.820  0.0200 -0.0329 -0.0757
 5142TIP3    H137061   4.038   5.044   7.911  0.7684 -1.3703 -0.5442
 5142TIP3    H237062   4.082   5.022   7.767 -0.9423 -0.1166 -1.3000
 5143TIP3   OH237063   5.305   6.316   2.461  0.0985  0.2686  0.4111
 5143TIP3    H137064   5.347   6.231   2.477  1.2373  0.6156 -0.6060
 5143TIP3    H237065   5.375   6.379   2.471 -0.4205  0.9703 -0.2719
 5144TIP3   OH237066   1.905   2.950   1.117  0.3182 -0.4703 -0.0831
 5144TIP3    H137067   1.928   3.022   1.177  0.7217  0.7948 -1.6760
 5144TIP3    H237068   1.980   2.943   1.059 -0.4388 -1.0380 -1.0164
 5145TIP3   OH237069   5.597   5.360   6.414 -0.3629 -0.1976  0.2096
 5145TIP3    H137070   5.569   5.450   6.434  0.4536  0.8261 -2.6969
 5145TIP3    H237071   5.658   5.338   6.484 -0.4620  1.6145  0.9230
 5146TIP3   OH237072   3.976   4.637   2.167  0.3071 -0.0723 -0.0076
 5146TIP3    H137073   4.059   4.631   2.215  0.1934 -1.2057  0.0691
 5146TIP3    H237074   3.910   4.645   2.235  0.3720  1.3077 -0.0813
 5147TIP3   OH237075   2.387   1.623   0.156  0.2542 -0.1673  0.9630
 5147TIP3    H137076   2.301   1.655   0.128  0.0192  0.2950  2.1401
 5147TIP3    H237077   2.449   1.688   0.122 -0.0073  0.2989  1.3652
 5148TIP3   OH237078   0.530   4.793   1.317  0.0101 -0.0751  0.3428
 5148TIP3    H137079   0.460   4.846   1.278 -0.1447  0.7007  1.6159
 5148TIP3    H237080   0.521   4.707   1.275 -0.7539  0.4430 -0.6026
 5149TIP3   OH237081   1.817   5.292   7.006 -0.0802 -0.8094 -0.0423
 5149TIP3    H137082   1.749   5.342   6.961  0.7416 -0.7877 -1.3389
 5149TIP3    H237083   1.855   5.237   6.937 -0.1767 -2.3664  1.0945
 5150TIP3   OH237084   2.921   5.646   8.204  0.2599 -0.0768  0.4037
 5150TIP3    H137085   2.969   5.693   8.272  2.0429 -0.4157 -0.5517
 5150TIP3    H237086   2.937   5.697   8.124 -1.1502 -0.1042  0.0924
 5151TIP3   OH237087   0.496   5.903   6.654 -0.5758 -0.2002  0.0324
 5151TIP3    H137088   0.514   5.988   6.694  0.7510 -0.2206 -0.4724
 5151TIP3    H237089   0.439   5.858   6.717 -1.0008  0.9197  0.4569
 5152TIP3   OH237090   1.130   4.619   8.269  0.2305 -0.0188  0.0634
 5152TIP3    H137091   1.050   4.566   8.276  1.0119 -1.3457 -0.6705
 5152TIP3    H237092   1.115   4.675   8.193 -1.1628  1.8963  1.6382
 5153TIP3   OH237093   0.888   5.796   0.338  0.2526  0.2262  0.0942
 5153TIP3    H137094   0.942   5.808   0.416 -0.8595 -1.8340  1.2662
 5153TIP3    H237095   0.810   5.850   0.355 -0.2960 -0.7473  0.7642
 5154TIP3   OH237096   5.135   6.206   0.749 -0.0920 -0.0251 -0.3252
 5154TIP3    H137097   5.062   6.267   0.756 -0.4611 -0.5028  0.0320
 5154TIP3    H237098   5.117   6.155   0.669  0.3271  0.4675 -0.7436
 5155TIP3   OH237099   0.657   1.257   1.197 -0.0627  0.2015  0.3938
 5155TIP3    H137100   0.658   1.240   1.292 -2.8788 -3.5449 -0.0210
 5155TIP3    H237101   0.616   1.343   1.189 -0.6784  0.1806  2.5853
 5156TIP3   OH237102   3.509   5.528   1.618  0.0551 -0.0961  0.1108
 5156TIP3    H137103   3.486   5.435   1.627  0.0726 -0.2392 -1.2100
 5156TIP3    H237104   3.590   5.537   1.668 -0.3577 -0.6114  0.9028
 5157TIP3   OH237105   4.825   1.779   0.716 -0.1281 -0.1691 -0.2429
 5157TIP3    H137106   4.908   1.813   0.683  0.6187 -1.3202  0.3889
 5157TIP3    H237107   4.823   1.688   0.686 -0.8347 -0.3463  0.3233
 5158TIP3   OH237108   3.229   1.283   1.231  0.2520  0.0397 -0.0902
 5158TIP3    H137109   3.188   1.289   1.318 -2.3201  0.2858 -1.2120
 5158TIP3    H237110   3.307   1.229   1.245  1.1422  1.8318  2.7254
 5159TIP3   OH237111   3.613   3.007   8.172  0.5449 -0.3304 -0.0865
 5159TIP3    H137112   3.687   2.953   8.200 -0.4210 -1.9187 -0.4770
 5159TIP3    H237113   3.563   3.020   8.252  0.6960 -0.1404 -0.0218
 5160TIP3   OH237114   4.986   5.768   0.833  0.0350  0.4069 -0.5788
 5160TIP3    H137115   4.934   5.827   0.887  0.5141  0.1211  0.2088
 5160TIP3    H237116   4.935   5.758   0.753 -3.1367 -2.8534  1.5160
 5161TIP3   OH237117   3.308   0.552   1.836  0.8563 -0.5660  0.1397
 5161TIP3    H137118   3.359   0.571   1.914  1.5118  0.1181 -0.4448
 5161TIP3    H237119   3.372   0.542   1.766  0.2022  0.9992 -0.7566
 5162TIP3   OH237120   4.316   2.726   2.069  0.3074  0.4942  0.6465
 5162TIP3    H137121   4.260   2.804   2.075 -1.6741 -0.9198  1.8928
 5162TIP3    H237122   4.372   2.742   1.993 -2.4464  1.6274 -1.3094
 5163TIP3   OH237123   0.196   2.550   6.106 -0.2251  0.5135 -0.0158
 5163TIP3    H137124   0.138   2.486   6.147  0.0171  0.7756  0.7728
 5163TIP3    H237125   0.267   2.561   6.170  0.6440  0.2708 -0.9142
 5164TIP3   OH237126   0.827   2.158   1.684 -0.8205 -0.4382 -0.0237
 5164TIP3    H137127   0.832   2.149   1.780 -1.8296 -2.3307 -0.1168
 5164TIP3    H237128   0.734   2.166   1.665 -0.5349  2.7257 -0.7108
 5165TIP3   OH237129   0.986   6.333   7.053 -0.3558 -0.4703  0.0141
 5165TIP3    H137130   0.987   6.380   7.136  1.2110 -1.4977  0.6289
 5165TIP3    H237131   1.012   6.244   7.076 -0.3405 -0.8885 -1.5154
 5166TIP3   OH237132   6.200   5.282   0.866 -0.2187 -0.2639 -0.6473
 5166TIP3    H137133   6.270   5.340   0.835 -0.4833 -0.3384 -1.4112
 5166TIP3    H237134   6.121   5.315   0.822 -0.5065 -0.7257 -0.4779
 5167TIP3   OH237135   1.509   2.310   7.355  0.2138 -0.1080  0.6653
 5167TIP3    H137136   1.420   2.326   7.387  0.1847 -0.5948  0.8443
 5167TIP3    H237137   1.560   2.383   7.389  0.2850 -0.8632  2.2787
 5168TIP3   OH237138   4.555   0.063   1.016  0.2335  0.4863 -0.3353
 5168TIP3    H137139   4.528   0.137   0.961  2.8406  0.9414 -1.1550
 5168TIP3    H237140   4.638   0.035   0.978  1.1878 -0.4400  2.2572
 5169TIP3   OH237141   1.595   1.863   0.305 -0.6438  0.2078  0.3686
 5169TIP3    H137142   1.658   1.930   0.278  1.1457 -1.3193  0.5072
 5169TIP3    H237143   1.643   1.810   0.369 -2.4892 -0.3414  1.3567
 5170TIP3   OH237144   5.887   3.350   0.873 -0.0416  0.1474 -0.8210
 5170TIP3    H137145   5.911   3.353   0.966  0.0128  3.4241 -0.8128
 5170TIP3    H237146   5.792   3.364   0.873  0.0727  0.9246 -1.2781
 5171TIP3   OH237147   5.073   4.558   8.473  0.2367 -0.6352  0.4241
 5171TIP3    H137148   5.109   4.483   8.521  1.0177 -1.0144 -0.7280
 5171TIP3    H237149   5.148   4.597   8.430 -0.0870  1.0836  1.3161
 5172TIP3   OH237150   6.651   5.640   2.293  0.7683 -0.1685  0.3334
 5172TIP3    H137151   6.640   5.566   2.353 -0.4508 -0.6164 -0.4071
 5172TIP3    H237152   6.633   5.604   2.206  1.5117  0.7012 -0.2032
 5173TIP3   OH237153   5.134   1.904   1.969  0.3852 -0.0755  0.3282
 5173TIP3    H137154   5.103   1.928   1.881  1.3320  1.0092  0.2670
 5173TIP3    H237155   5.107   1.813   1.979 -2.5624  0.6573  0.1735
 5174TIP3   OH237156   2.564   5.418   1.974  0.2156 -0.1121 -0.1108
 5174TIP3    H137157   2.635   5.355   1.969  0.8712  0.5636  0.4810
 5174TIP3    H237158   2.489   5.368   2.006  0.6081 -0.6830 -0.0865
 5175TIP3   OH237159   0.317   0.920   7.096  0.5026 -0.2866 -0.0444
 5175TIP3    H137160   0.230   0.913   7.134  0.7313 -0.1923  0.5017
 5175TIP3    H237161   0.361   0.839   7.122  1.1983  0.4924  1.2821
 5176TIP3   OH237162   0.897   5.685   6.598  0.0637 -0.0785 -0.0474
 5176TIP3    H137163   0.888   5.737   6.518  2.0460  0.3797 -0.0163
 5176TIP3    H237164   0.991   5.683   6.615 -0.3428  0.5624  2.7440
 5177TIP3   OH237165   6.001   0.783   8.161 -0.6168 -0.1232  0.7944
 5177TIP3    H137166   6.063   0.755   8.227  0.4724  0.4170  0.0276
 5177TIP3    H237167   6.009   0.719   8.090  0.0688  0.6950  0.1121
 5178TIP3   OH237168   5.754   6.645   0.101 -0.0596 -0.0751  0.6814
 5178TIP3    H137169   5.810   6.659   0.177 -3.1093 -0.3472  3.2184
 5178TIP3    H237170   5.714   6.559   0.116 -1.6568  0.3936 -0.5811
 5179TIP3   OH237171   6.534   4.543   8.452 -0.3105 -0.2202 -0.3180
 5179TIP3    H137172   6.626   4.563   8.469 -1.0646  1.7494  2.1931
 5179TIP3    H237173   6.531   4.448   8.444  1.5900 -0.6547  2.5463
 5180TIP3   OH237174   1.040   0.534   6.394  0.0279 -0.6638  0.2150
 5180TIP3    H137175   1.029   0.580   6.477  0.0217 -3.6397  1.9769
 5180TIP3    H237176   1.052   0.605   6.330  2.4000  1.7613  3.0130
 5181TIP3   OH237177   0.602   5.426   8.107  0.0728 -0.4117  0.4801
 5181TIP3    H137178   0.616   5.337   8.076 -1.1593 -0.6435  0.5256
 5181TIP3    H237179   0.656   5.481   8.049  0.4154 -1.1306  0.1077
 5182TIP3   OH237180   3.477   1.593   7.620 -0.2777  0.3772  0.1161
 5182TIP3    H137181   3.430   1.628   7.544  2.0753  1.4604 -0.9408
 5182TIP3    H237182   3.543   1.535   7.582  0.1044 -0.0956  1.4461
 5183TIP3   OH237183   5.898   4.364   7.590 -0.0861 -0.2633  0.4593
 5183TIP3    H137184   5.942   4.334   7.670 -0.6259 -1.2832  0.3948
 5183TIP3    H237185   5.805   4.361   7.611 -0.1811  1.1737  0.3555
 5184TIP3   OH237186   0.009   3.039   7.288 -0.3249 -0.3936 -0.0449
 5184TIP3    H137187  -0.036   2.964   7.251 -0.2215  0.1222 -1.2630
 5184TIP3    H237188  -0.046   3.114   7.265  1.0879  0.2477 -1.5360
 5185TIP3   OH237189   1.379   5.972   0.114  0.2198 -0.2645  0.2698
 5185TIP3    H137190   1.340   5.950   0.199 -1.0658 -1.8949 -0.6701
 5185TIP3    H237191   1.313   5.945   0.050  1.3580  0.4696 -1.2768
 5186TIP3   OH237192   3.836   2.015   8.583 -0.5795 -0.0284  0.6263
 5186TIP3    H137193   3.931   2.003   8.582 -0.4060  0.5281 -2.9432
 5186TIP3    H237194   3.800   1.930   8.607  0.8473 -0.8843 -0.1555
 5187TIP3   OH237195   1.802   0.222   0.441 -0.2440 -0.3597 -0.1661
 5187TIP3    H137196   1.712   0.227   0.409 -0.4276  0.7268  0.4451
 5187TIP3    H237197   1.818   0.129   0.455 -1.5861 -0.5101  0.5531
 5188TIP3   OH237198   2.154   3.568   7.233  0.0976 -0.1728 -0.0170
 5188TIP3    H137199   2.063   3.576   7.262  0.3014 -2.2814  1.4172
 5188TIP3    H237200   2.162   3.479   7.200  1.4922  0.1997 -0.7824
 5189TIP3   OH237201   2.723   1.935   1.416  0.0259 -0.2990 -0.1178
 5189TIP3    H137202   2.700   1.915   1.507  1.7224 -0.2254  0.3681
 5189TIP3    H237203   2.818   1.927   1.413  0.0692  0.3549 -1.7409
 5190TIP3   OH237204   3.372   5.870   7.244  0.1487  0.0068  0.0571
 5190TIP3    H137205   3.335   5.800   7.296  0.2521  0.0426  0.1788
 5190TIP3    H237206   3.434   5.913   7.302 -2.8678  2.8763  1.4977
 5191TIP3   OH237207   3.736   3.662   0.781 -0.0324 -0.2946  0.3019
 5191TIP3    H137208   3.783   3.629   0.704 -2.5076  0.6117 -1.7349
 5191TIP3    H237209   3.646   3.634   0.768 -0.8730  1.3877  2.0003
 5192TIP3   OH237210   4.630   3.389   7.231  0.2897 -0.0848 -0.1249
 5192TIP3    H137211   4.537   3.410   7.236  0.5641  1.3079 -0.2202
 5192TIP3    H237212   4.639   3.304   7.273 -0.9317  0.0639  0.4566
 5193TIP3   OH237213   4.873   5.962   7.335  0.2988 -0.2694  0.4519
 5193TIP3    H137214   4.941   6.002   7.280  2.1951  2.8297  4.4513
 5193TIP3    H237215   4.920   5.896   7.385 -0.5724 -0.7779  0.6063
 5194TIP3   OH237216   6.115   5.894   0.845  0.4300 -0.3393 -0.3568
 5194TIP3    H137217   6.128   5.884   0.939 -0.6414 -1.0595 -0.2659
 5194TIP3    H237218   6.060   5.820   0.820  0.5765 -0.0784 -1.5247
 5195TIP3   OH237219   6.138   0.548   8.091  0.2428 -0.2436 -0.1130
 5195TIP3    H137220   6.210   0.609   8.101 -0.4468  0.4896  0.4747
 5195TIP3    H237221   6.179   0.468   8.057  1.1252  0.5823 -1.0542
 5196TIP3   OH237222   0.654   5.935   8.595 -0.0418 -0.4626  0.3239
 5196TIP3    H137223   0.609   5.976   8.669  1.0763  0.1017  0.7165
 5196TIP3    H237224   0.729   5.991   8.579 -0.5044 -0.3350 -1.5530
 5197TIP3   OH237225   1.082   3.020   6.614  0.0615 -0.1817 -0.2114
 5197TIP3    H137226   1.160   3.030   6.561  0.5094 -1.3333  0.1918
 5197TIP3    H237227   1.099   3.072   6.693  1.5193 -2.3139  0.9919
 5198TIP3   OH237228   2.701   5.030   7.415  0.0481  0.5373  0.2926
 5198TIP3    H137229   2.632   4.975   7.377  1.2942  0.0384 -1.3433
 5198TIP3    H237230   2.677   5.119   7.391 -1.0238  0.5821  1.4118
 5199TIP3   OH237231   3.981   5.094   1.105  0.0778  0.6571 -0.3493
 5199TIP3    H137232   4.029   5.090   1.022  0.5037 -2.1691 -0.0669
 5199TIP3    H237233   4.035   5.149   1.162  0.9104  0.8045 -1.2589
 5200TIP3   OH237234   2.588   3.805   7.440  0.1742 -0.2901 -0.2130
 5200TIP3    H137235   2.522   3.737   7.457  0.6660 -0.6978  0.1182
 5200TIP3    H237236   2.630   3.820   7.526 -0.2839  0.8188 -0.1699
 5201TIP3   OH237237   0.532   4.267   8.504  0.0533 -0.4278 -0.2735
 5201TIP3    H137238   0.454   4.312   8.535 -0.3091 -1.5562  0.4981
 5201TIP3    H237239   0.565   4.323   8.433  0.4548  1.8030  1.5694
 5202TIP3   OH237240   1.258   6.424   8.254  0.2906  0.1421 -0.8339
 5202TIP3    H137241   1.199   6.491   8.287  0.3700  0.1496 -0.7071
 5202TIP3    H237242   1.207   6.378   8.187  0.2309  0.3182 -0.9116
 5203TIP3   OH237243   2.731   0.574   1.831 -0.4220  0.0040 -0.1369
 5203TIP3    H137244   2.822   0.568   1.856 -0.4444 -1.8797 -0.3986
 5203TIP3    H237245   2.682   0.543   1.907 -0.9197  1.6290  0.2532
 5204TIP3   OH237246   1.924   5.705   0.748  0.0166 -0.1022 -0.0854
 5204TIP3    H137247   1.901   5.612   0.753  2.6496 -0.8551 -0.5055
 5204TIP3    H237248   1.961   5.725   0.834  0.1265  0.3607 -0.2391
 5205TIP3   OH237249   1.883   4.548   0.477 -0.4257  0.1803 -0.0673
 5205TIP3    H137250   1.861   4.640   0.465 -0.1641  0.4663  1.3988
 5205TIP3    H237251   1.977   4.543   0.461 -0.2320  0.3990  0.9441
 5206TIP3   OH237252   2.943   3.764   7.005 -0.2735  0.1381 -0.4174
 5206TIP3    H137253   2.873   3.769   7.070  0.5797  2.2682  0.4265
 5206TIP3    H237254   3.017   3.726   7.053  0.6009  2.4336  0.1865
 5207TIP3   OH237255   4.104   3.716   7.928  0.1965  0.9019 -0.2438
 5207TIP3    H137256   4.048   3.784   7.889 -0.0471  1.3755  0.8668
 5207TIP3    H237257   4.138   3.667   7.854 -1.6662  0.6324 -0.9682
 5208TIP3   OH237258   0.622   2.582   1.025  0.8889  0.2018  0.0716
 5208TIP3    H137259   0.626   2.671   0.991  1.4604  0.0407 -0.3047
 5208TIP3    H237260   0.544   2.544   0.985  0.3523  0.6819  0.6323
 5209TIP3   OH237261   5.179   5.401   2.553 -0.3525 -0.0040  0.0581
 5209TIP3    H137262   5.192   5.310   2.579 -0.2085  0.4183  1.5248
 5209TIP3    H237263   5.110   5.398   2.486  0.9347 -1.3643 -1.2957
 5210TIP3   OH237264   3.861   0.549   1.627 -0.0913  0.0032 -0.0752
 5210TIP3    H137265   3.924   0.542   1.555 -0.0648  0.9555 -0.1668
 5210TIP3    H237266   3.777   0.560   1.584 -0.4504 -2.0215  0.0446
 5211TIP3   OH237267   0.562   6.659   1.697  0.1385  0.4612  0.5054
 5211TIP3    H137268   0.552   6.700   1.783  1.2281  0.4861  0.6383
 5211TIP3    H237269   0.516   6.576   1.705  1.4046 -0.1772  1.5914
 5212TIP3   OH237270   5.192   3.163   8.134 -0.0630 -0.0850  0.4550
 5212TIP3    H137271   5.282   3.148   8.164  1.0174  0.8862 -2.0479
 5212TIP3    H237272   5.146   3.194   8.212  1.9742  0.1586  1.6322
 5213TIP3   OH237273   5.093   6.603   7.016  1.1260 -0.0954 -0.7865
 5213TIP3    H137274   5.066   6.688   6.981  2.9627 -0.3153 -2.9635
 5213TIP3    H237275   5.179   6.619   7.053  0.2519 -0.4372  1.5953
 5214TIP3   OH237276   2.626   0.901   7.229 -0.1920 -0.2171 -0.2902
 5214TIP3    H137277   2.716   0.872   7.211 -0.6465 -1.1540 -1.0857
 5214TIP3    H237278   2.631   0.996   7.225  1.0480 -0.1717  1.0471
 5215TIP3   OH237279   5.843   2.185   1.839 -0.4000  0.1293  0.0319
 5215TIP3    H137280   5.906   2.177   1.911 -1.2496 -0.3624  0.7395
 5215TIP3    H237281   5.775   2.121   1.859  0.8649 -2.3756 -2.8276
 5216TIP3   OH237282   6.613   3.171   0.823  0.1494  0.2723  0.0843
 5216TIP3    H137283   6.681   3.140   0.882 -1.4311 -1.5912  1.0595
 5216TIP3    H237284   6.591   3.258   0.854 -1.2107 -0.9521  2.9229
 5217TIP3   OH237285   0.145   0.684   1.270  0.0781 -0.1497 -0.2085
 5217TIP3    H137286   0.213   0.718   1.213 -0.3446  1.6098  0.2792
 5217TIP3    H237287   0.063   0.710   1.229 -0.2839 -1.0935 -0.1087
 5218TIP3   OH237288   3.991   5.834   7.106  0.3776 -0.5173  0.4584
 5218TIP3    H137289   4.060   5.788   7.057  1.0720  2.3043 -1.4991
 5218TIP3    H237290   4.022   5.924   7.111 -1.3931  0.0616  3.1099
 5219TIP3   OH237291   4.822   2.663   7.554  0.1044 -0.5639  0.5675
 5219TIP3    H137292   4.761   2.663   7.627  1.0907  0.2776  1.4115
 5219TIP3    H237293   4.795   2.588   7.500 -3.6631  1.5619 -0.8370
 5220TIP3   OH237294   0.057   6.211   6.776 -0.2506  0.4382  0.7491
 5220TIP3    H137295   0.065   6.135   6.719  1.4369  0.0758  1.4039
 5220TIP3    H237296   0.129   6.268   6.750 -1.9443  2.2189 -0.2447
 5221TIP3   OH237297   1.928   5.297   0.345 -0.3784 -0.1576  0.0675
 5221TIP3    H137298   1.997   5.287   0.411 -1.0218 -0.6856  0.6730
 5221TIP3    H237299   1.850   5.262   0.386 -1.0387  0.5088 -0.5856
 5222TIP3   OH237300   1.101   3.263   8.385  0.1066  0.0335  0.3169
 5222TIP3    H137301   1.062   3.349   8.395  2.6373  1.1866  1.0559
 5222TIP3    H237302   1.106   3.229   8.475  0.0779 -0.4406  0.1411
 5223TIP3   OH237303   4.214   5.571   6.990 -0.2315 -0.4821 -0.4280
 5223TIP3    H137304   4.269   5.649   6.991  1.8876 -1.8781 -1.0660
 5223TIP3    H237305   4.188   5.561   6.898 -0.2380 -0.6985 -0.4047
 5224TIP3   OH237306   6.055   0.276   0.920  0.1975 -0.7753 -0.2029
 5224TIP3    H137307   5.992   0.341   0.888  1.2719  0.9956  1.0853
 5224TIP3    H237308   6.055   0.208   0.853 -2.3574 -0.3950 -0.7144
 5225TIP3   OH237309   5.909   0.682   0.439  0.5833  0.0294  0.1029
 5225TIP3    H137310   5.815   0.699   0.429  0.2240  0.4331  3.1667
 5225TIP3    H237311   5.949   0.769   0.435  0.3792  0.2564  1.9818
 5226TIP3   OH237312   6.237   3.771   6.930 -0.4809  0.1440 -0.0796
 5226TIP3    H137313   6.206   3.855   6.964 -0.1184  1.3103 -2.4010
 5226TIP3    H237314   6.328   3.788   6.903 -0.0287 -1.3211  0.4199
 5227TIP3   OH237315   6.739   2.072   2.280  0.0209  0.4427 -0.5033
 5227TIP3    H137316   6.649   2.101   2.264 -0.1881  1.2731  1.7076
 5227TIP3    H237317   6.728   1.997   2.339  0.7624  0.1477 -0.7422
 5228TIP3   OH237318   6.378   4.418   0.881  0.4617 -0.4539 -0.3758
 5228TIP3    H137319   6.466   4.428   0.917 -0.7946  0.5119  2.7859
 5228TIP3    H237320   6.348   4.334   0.914 -0.4478  0.0742  0.1866
 5229TIP3   OH237321   5.481   4.997   7.374 -0.6893 -0.1943  0.1818
 5229TIP3    H137322   5.473   4.931   7.306 -1.9924 -0.3696  0.4815
 5229TIP3    H237323   5.547   5.059   7.341 -0.7647 -0.6748 -0.8876
 5230TIP3   OH237324   3.283   3.412   6.725  0.8143  0.3519 -0.2865
 5230TIP3    H137325   3.356   3.450   6.677  1.0309  0.4140  0.0870
 5230TIP3    H237326   3.297   3.318   6.720  0.0822  0.2980 -1.5189
 5231TIP3   OH237327   4.779   1.171   1.124 -0.4349  0.1788 -0.0481
 5231TIP3    H137328   4.847   1.127   1.175 -0.6939 -0.7705 -0.5099
 5231TIP3    H237329   4.822   1.248   1.088  0.2931 -0.2066 -0.0235
 5232TIP3   OH237330   0.136   2.892   1.581  0.0649 -0.8088 -0.4213
 5232TIP3    H137331   0.070   2.858   1.641 -3.0495  2.9036 -1.3255
 5232TIP3    H237332   0.118   2.848   1.498 -2.2081  0.9071 -0.9416
 5233TIP3   OH237333   5.997   3.347   2.093 -0.4417  0.2834  0.0074
 5233TIP3    H137334   6.061   3.288   2.052 -1.9507 -1.4207 -0.0221
 5233TIP3    H237335   6.048   3.425   2.115  1.5104 -0.7503 -0.5402
 5234TIP3   OH237336   4.815   3.891   2.573  0.2535 -0.0719  0.6075
 5234TIP3    H137337   4.729   3.893   2.532  0.7039  1.9846 -0.3742
 5234TIP3    H237338   4.841   3.799   2.570 -1.7488 -0.6831  0.6438
 5235TIP3   OH237339   4.660   2.632   1.177  0.0536  0.4773 -0.1609
 5235TIP3    H137340   4.741   2.653   1.223 -0.6799  3.0896  0.1097
 5235TIP3    H237341   4.606   2.585   1.242  0.1910  1.4572  0.6861
 5236TIP3   OH237342   4.822   2.866   7.351 -0.1462  0.0702 -0.2555
 5236TIP3    H137343   4.757   2.842   7.285  0.9982 -2.1038 -0.6910
 5236TIP3    H237344   4.804   2.808   7.425  0.8071 -0.0338 -0.0951
 5237TIP3   OH237345   4.166   2.501   2.074  1.1140 -0.0439 -0.2162
 5237TIP3    H137346   4.207   2.454   2.145  1.5767  0.4221 -0.1706
 5237TIP3    H237347   4.213   2.585   2.069  0.9834 -0.0026 -0.9558
 5238TIP3   OH237348   2.006   5.034   7.669 -0.0767 -0.2383  0.2065
 5238TIP3    H137349   1.952   4.955   7.669  1.6118 -1.4822  1.1831
 5238TIP3    H237350   1.950   5.102   7.707 -0.8546 -1.5675  1.5756
 5239TIP3   OH237351   4.908   0.088   7.973  0.2567  0.0121  0.1748
 5239TIP3    H137352   4.982   0.031   7.995  0.3687 -0.1793 -0.6499
 5239TIP3    H237353   4.850   0.033   7.921 -0.3057  0.2630  0.5278
 5240TIP3   OH237354   2.635   3.425   0.905  0.5461 -0.7171  0.1795
 5240TIP3    H137355   2.643   3.374   0.986 -1.2548 -0.2788  0.6799
 5240TIP3    H237356   2.569   3.491   0.925  0.2708 -0.4257 -1.5597
 5241TIP3   OH237357   0.873   0.382   1.784 -0.6005 -0.2021 -0.2111
 5241TIP3    H137358   0.876   0.467   1.827 -0.6733 -1.1033  1.6797
 5241TIP3    H237359   0.924   0.324   1.841 -0.9389 -1.5364 -1.2063
 5242TIP3   OH237360   2.837   1.814   6.863  0.3911  0.3144  0.1922
 5242TIP3    H137361   2.855   1.805   6.770 -2.7760  0.2561 -0.5085
 5242TIP3    H237362   2.803   1.903   6.873 -0.4609 -0.0814  1.0492
 5243TIP3   OH237363   5.886   1.745   7.355 -0.1168 -0.5112 -0.5522
 5243TIP3    H137364   5.911   1.768   7.445  0.4898 -1.0262 -0.5842
 5243TIP3    H237365   5.873   1.650   7.357 -0.9675 -0.4092 -0.8085
 5244TIP3   OH237366   5.233   3.405   1.604  0.0694  0.1505 -0.3824
 5244TIP3    H137367   5.180   3.419   1.683  1.1013  3.9201 -0.2039
 5244TIP3    H237368   5.171   3.414   1.532 -0.2114  0.7553 -0.0741
 5245TIP3   OH237369   2.647   5.399   0.085 -0.1951  0.2654  0.0211
 5245TIP3    H137370   2.659   5.364   0.173 -2.0265  2.1834  1.1172
 5245TIP3    H237371   2.736   5.411   0.052  0.5251 -1.6445  1.0617
 5246TIP3   OH237372   5.859   1.350   0.252 -0.2319 -0.6333 -0.0151
 5246TIP3    H137373   5.906   1.414   0.305  0.1564 -1.5975  0.8486
 5246TIP3    H237374   5.924   1.281   0.236  0.3219  0.4737 -3.4310
 5247TIP3   OH237375   1.852   1.074   0.230  0.5125 -0.6500  0.1487
 5247TIP3    H137376   1.842   1.048   0.322 -0.8228 -1.3046 -0.1557
 5247TIP3    H237377   1.808   1.158   0.224 -0.9892 -1.4323 -0.2413
 5248TIP3   OH237378   0.481   6.607   0.572 -0.2596  0.3325 -0.0553
 5248TIP3    H137379   0.554   6.602   0.633 -0.4222 -0.8040  0.0563
 5248TIP3    H237380   0.454   6.699   0.575  1.1575  0.7842 -0.1058
 5249TIP3   OH237381   4.366   1.340   0.773  0.5418  0.3458  0.3552
 5249TIP3    H137382   4.378   1.422   0.724  1.6153  1.1605  1.9130
 5249TIP3    H237383   4.354   1.367   0.864 -1.1939 -1.1507  0.6283
 5250TIP3   OH237384   0.505   4.890   0.388  0.0487  0.1791  0.2481
 5250TIP3    H137385   0.440   4.886   0.459 -1.3011  1.9016 -0.7974
 5250TIP3    H237386   0.511   4.983   0.367  0.0619 -0.3106 -2.1872
 5251TIP3   OH237387   4.084   4.801   0.120  0.3588 -0.0946  0.6982
 5251TIP3    H137388   4.154   4.740   0.098 -0.5802 -0.6073 -1.1360
 5251TIP3    H237389   4.003   4.752   0.103 -0.4272  1.6202 -0.9560
 5252TIP3   OH237390   5.999   3.103   1.554  0.0186 -0.5627  0.0637
 5252TIP3    H137391   5.995   3.119   1.649  0.1702  2.8050 -0.3735
 5252TIP3    H237392   6.062   3.167   1.522  0.6453 -2.2131 -2.2729
 5253TIP3   OH237393   4.336   4.298   1.885  0.4680  0.1486  0.5798
 5253TIP3    H137394   4.305   4.332   1.801  0.7774 -0.2523  0.3062
 5253TIP3    H237395   4.274   4.334   1.949  0.2036  0.4123  0.1794
 5254TIP3   OH237396   1.437   3.919   7.615 -0.6975 -0.0132 -0.7893
 5254TIP3    H137397   1.484   3.986   7.665 -0.1672 -2.3522  2.1468
 5254TIP3    H237398   1.345   3.939   7.629 -0.5572 -0.5741  1.1836
 5255TIP3   OH237399   5.408   5.007   0.308 -0.0541 -0.2117  0.7607
 5255TIP3    H137400   5.340   5.069   0.334  0.0843  0.0456  0.5227
 5255TIP3    H237401   5.476   5.017   0.375  0.3628  0.5499  0.2493
 5256TIP3   OH237402   4.670   5.224   8.047 -0.1755  0.2105 -0.8678
 5256TIP3    H137403   4.730   5.185   7.983  0.3267  0.6755 -0.6936
 5256TIP3    H237404   4.611   5.152   8.071  0.8666 -0.5216 -0.3897
 5257TIP3   OH237405   5.715   6.665   2.212 -0.3955  0.6623 -0.2177
 5257TIP3    H137406   5.747   6.725   2.144 -3.4338  2.4614 -0.2481
 5257TIP3    H237407   5.656   6.605   2.166 -1.3212  0.9467  0.5480
 5258TIP3   OH237408   5.641   6.252   6.546  0.3147 -0.8367  0.2855
 5258TIP3    H137409   5.631   6.325   6.485 -1.4436 -0.9574  0.3695
 5258TIP3    H237410   5.622   6.290   6.632 -2.7219 -1.7216  0.1215
 5259TIP3   OH237411   2.187   5.551   6.743 -0.4033 -0.0162  0.0539
 5259TIP3    H137412   2.274   5.518   6.723 -0.8880 -1.2808 -0.0904
 5259TIP3    H237413   2.163   5.604   6.668 -0.2553 -0.7327 -0.5132
 5260TIP3   OH237414   3.305   5.995   8.007  0.2838 -0.4424  0.1770
 5260TIP3    H137415   3.265   5.953   7.931  0.7700 -1.6038  0.5488
 5260TIP3    H237416   3.241   6.061   8.034  0.4777  0.6070 -1.7626
 5261TIP3   OH237417   4.308   3.782   0.312 -0.1861  0.7450 -0.0003
 5261TIP3    H137418   4.220   3.793   0.349 -0.2898 -0.8415  0.2765
 5261TIP3    H237419   4.353   3.724   0.373  0.9372  1.2443 -0.3363
 5262TIP3   OH237420   1.522   5.760   7.225 -0.4889  0.4740  0.0620
 5262TIP3    H137421   1.452   5.696   7.214 -0.5619  0.5900 -0.1450
 5262TIP3    H237422   1.496   5.834   7.170  0.6501 -0.1794 -1.4251
 5263TIP3   OH237423   0.681   6.704   0.097  0.3599 -0.5449 -0.3942
 5263TIP3    H137424   0.637   6.787   0.085 -0.5120 -1.1370 -1.5332
 5263TIP3    H237425   0.689   6.693   0.192  1.7062  1.4274 -0.2274
 5264TIP3   OH237426   4.072   6.793   0.893  1.1319 -0.0890  0.3977
 5264TIP3    H137427   4.112   6.712   0.923 -0.7015 -0.4600  2.0800
 5264TIP3    H237428   3.992   6.766   0.848  0.2194  0.7427  1.4369
 5265TIP3   OH237429   3.698   4.434   0.333 -0.2200 -0.3046  0.6789
 5265TIP3    H137430   3.687   4.365   0.398 -0.4969  0.4159  1.4284
 5265TIP3    H237431   3.680   4.515   0.381  0.0167  0.2857 -0.1905
 5266TIP3   OH237432   6.421   0.617   8.608 -0.0771 -0.0769 -0.8304
 5266TIP3    H137433   6.346   0.611   8.666 -0.8958  2.6595 -1.5030
 5266TIP3    H237434   6.487   0.665   8.658  1.7520 -3.2883  0.1335
 5267TIP3   OH237435   0.816   5.666   7.156 -0.2478  0.1623 -0.7055
 5267TIP3    H137436   0.842   5.759   7.158 -1.2220  0.4330  0.1754
 5267TIP3    H237437   0.819   5.643   7.064  0.9304  0.8002 -0.8539
 5268TIP3   OH237438   5.057   5.042   8.589 -1.0106  0.3884  0.0034
 5268TIP3    H137439   5.059   4.958   8.636  0.4257  0.4912  0.1603
 5268TIP3    H237440   5.147   5.055   8.560 -1.3771  1.5360 -0.6473
 5269TIP3   OH237441   1.513   4.511   7.399  0.0578  0.2638  0.2239
 5269TIP3    H137442   1.485   4.435   7.348 -1.0072 -0.1338  1.3453
 5269TIP3    H237443   1.503   4.484   7.490 -0.0477  1.6324  0.6427
 5270TIP3   OH237444   5.363   5.140   2.199 -0.0579  0.3870  0.3330
 5270TIP3    H137445   5.446   5.182   2.221  1.1426 -0.7323 -1.7143
 5270TIP3    H237446   5.341   5.089   2.276  2.0247 -0.5555  0.3670
 5271TIP3   OH237447   5.531   5.221   6.183  0.0473  0.1453  0.0898
 5271TIP3    H137448   5.607   5.173   6.152  0.4642  1.3044 -0.7096
 5271TIP3    H237449   5.558   5.258   6.267 -0.4303 -1.3508  0.9451
 5272TIP3   OH237450   6.479   4.212   1.967  0.8587  0.3297 -0.4565
 5272TIP3    H137451   6.516   4.194   1.880 -0.0707  0.3225 -0.8544
 5272TIP3    H237452   6.535   4.281   2.002  0.7167  0.9692 -1.4266
 5273TIP3   OH237453   6.875   3.825   6.281 -0.0377  0.2573 -0.5867
 5273TIP3    H137454   6.790   3.849   6.242 -1.1316 -1.3088  0.6968
 5273TIP3    H237455   6.891   3.736   6.251 -0.2749 -0.5137  1.4097
 5274TIP3   OH237456   3.856   3.078   7.766  0.3252  0.0804  0.1920
 5274TIP3    H137457   3.889   3.007   7.820  0.0124 -0.8079 -0.7604
 5274TIP3    H237458   3.879   3.158   7.814  0.9208 -0.6480  1.1360
 5275TIP3   OH237459   1.834   5.399   7.469 -0.5357 -0.0543  0.1912
 5275TIP3    H137460   1.793   5.484   7.455  2.6940  1.2713 -2.2836
 5275TIP3    H237461   1.819   5.351   7.387  1.0795 -0.2898  0.0094
 5276TIP3   OH237462   2.891   2.095   1.911  0.2395 -0.3078 -0.0499
 5276TIP3    H137463   2.984   2.072   1.914  1.0008  1.9177 -2.3570
 5276TIP3    H237464   2.889   2.187   1.937 -1.2651 -0.2264 -0.3549
 5277TIP3   OH237465   2.250   3.000   1.286 -0.1267 -0.4412  0.2102
 5277TIP3    H137466   2.286   3.043   1.209 -1.4500  0.6496  0.1662
 5277TIP3    H237467   2.305   3.030   1.358  0.3283 -0.4596 -0.1228
 5278TIP3   OH237468   2.790   4.156   0.348 -0.6093 -0.0598  0.4257
 5278TIP3    H137469   2.807   4.229   0.288 -0.9525  0.4727  0.9634
 5278TIP3    H237470   2.697   4.163   0.369 -0.3773  0.0983  1.4435
 5279TIP3   OH237471   3.046   6.108   1.645 -0.0016  0.7854 -0.6780
 5279TIP3    H137472   2.975   6.126   1.706 -1.2736  0.8159 -2.1077
 5279TIP3    H237473   3.119   6.079   1.700 -1.2513  0.3182  0.7877
 5280TIP3   OH237474   0.260   5.467   6.329 -0.3180  0.2475 -0.0867
 5280TIP3    H137475   0.241   5.561   6.332  0.5053  0.4232 -0.4061
 5280TIP3    H237476   0.195   5.431   6.268  0.9843  1.0072 -1.9744
 5281TIP3   OH237477   4.968   1.924   7.744  0.3563  0.9283 -0.9812
 5281TIP3    H137478   4.997   1.844   7.701  0.1558  0.8192 -0.9127
 5281TIP3    H237479   5.012   1.923   7.829 -1.8352 -0.5425  0.2107
 5282TIP3   OH237480   1.145   0.769   6.564 -0.2576 -0.5891  0.1530
 5282TIP3    H137481   1.224   0.799   6.520 -0.1961  0.0008  0.6450
 5282TIP3    H237482   1.095   0.850   6.581 -0.4170 -0.8290  0.8851
 5283TIP3   OH237483   2.851   0.844   7.530 -0.7642  0.0509 -0.0416
 5283TIP3    H137484   2.879   0.773   7.588 -1.2904  0.5569  0.8658
 5283TIP3    H237485   2.778   0.885   7.576 -1.2932  0.3906 -1.1459
 5284TIP3   OH237486   0.185   5.603   8.537  0.2652 -0.2600  0.0033
 5284TIP3    H137487   0.203   5.581   8.628 -1.3739 -3.3200 -0.2719
 5284TIP3    H237488   0.269   5.588   8.492  1.2070  1.7158  0.9805
 5285TIP3   OH237489   2.886   4.101   6.492  0.0106  0.1896 -0.2073
 5285TIP3    H137490   2.886   4.072   6.401 -0.7243 -0.1293 -0.1103
 5285TIP3    H237491   2.917   4.192   6.488 -2.2803  1.0008 -1.0597
 5286TIP3   OH237492   1.075   4.814   1.347 -0.8456 -0.2527 -0.3118
 5286TIP3    H137493   1.158   4.820   1.298 -0.4202  0.1090  0.4337
 5286TIP3    H237494   1.077   4.728   1.388 -1.9906 -1.2900 -2.2674
 5287TIP3   OH237495   1.546   2.148   0.141 -0.0692  0.1821  0.0030
 5287TIP3    H137496   1.506   2.066   0.173  1.9424 -1.1035 -0.5911
 5287TIP3    H237497   1.625   2.158   0.195  0.7177  0.6742 -1.2175
 5288TIP3   OH237498   2.857   4.601   1.112  0.4461 -0.6332  0.2800
 5288TIP3    H137499   2.772   4.645   1.106  0.3427 -0.7027  1.1904
 5288TIP3    H237500   2.835   4.509   1.125  0.6308 -0.4379  2.2204
 5289TIP3   OH237501   3.816   5.196   7.191  0.4311 -0.4080 -0.1239
 5289TIP3    H137502   3.847   5.264   7.250 -0.0583  1.0886 -1.5160
 5289TIP3    H237503   3.854   5.115   7.226 -0.6422  0.2224  2.7860
 5290TIP3   OH237504   0.093   3.414   7.160 -0.1814  0.5729 -0.0976
 5290TIP3    H137505  -0.002   3.424   7.163 -0.3205 -0.6804  0.2047
 5290TIP3    H237506   0.121   3.473   7.090 -1.2477  0.5289 -0.5791
 5291TIP3   OH237507   6.789   6.348   7.881  0.6375  0.1783 -0.2415
 5291TIP3    H137508   6.795   6.315   7.970 -1.2715  0.8738  0.1896
 5291TIP3    H237509   6.771   6.271   7.827 -1.9024  0.1361  0.5154
 5292TIP3   OH237510   3.764   0.829   1.089 -0.2661  0.6895  0.2496
 5292TIP3    H137511   3.715   0.904   1.057 -0.4585  0.1664 -0.7041
 5292TIP3    H237512   3.768   0.842   1.184 -0.3395  1.8704  0.1097
 5293TIP3   OH237513   4.933   0.720   1.031  0.4509  0.2229  0.0547
 5293TIP3    H137514   4.944   0.652   0.965  0.4273  0.1239  0.1534
 5293TIP3    H237515   4.971   0.684   1.111  0.7046  0.4405  0.0321
 5294TIP3   OH237516   1.476   6.109   7.330  0.0133  0.8850  0.0077
 5294TIP3    H137517   1.385   6.113   7.361  0.0392  0.2861  0.1631
 5294TIP3    H237518   1.515   6.037   7.379  0.2936  0.4749 -0.8112
 5295TIP3   OH237519   2.938   5.576   0.620 -0.0334 -0.2214  0.0147
 5295TIP3    H137520   2.963   5.495   0.666  0.8191 -0.6206 -1.1200
 5295TIP3    H237521   2.962   5.561   0.529 -1.3906  0.6935 -0.5317
 5296TIP3   OH237522   4.763   5.837   7.850  0.3949 -0.3024 -0.2553
 5296TIP3    H137523   4.821   5.761   7.852  1.1095  0.1369 -1.9259
 5296TIP3    H237524   4.700   5.817   7.780  1.6339  1.3114 -1.9137
 5297TIP3   OH237525   0.900   4.520   7.288  0.2056 -0.1069  0.3609
 5297TIP3    H137526   0.982   4.562   7.262  1.1319 -1.8007  0.4190
 5297TIP3    H237527   0.868   4.477   7.209  0.1902 -0.7283  0.6953
 5298TIP3   OH237528   0.559   2.792   2.123  0.7309 -0.3142 -0.0017
 5298TIP3    H137529   0.463   2.797   2.115  0.5703 -1.5620  0.7878
 5298TIP3    H237530   0.589   2.881   2.107 -0.4216 -0.2171 -1.9982
 5299TIP3   OH237531   1.185   3.165   6.824  0.1926  0.3398  0.1845
 5299TIP3    H137532   1.179   3.248   6.776 -1.3231 -0.3239 -0.8812
 5299TIP3    H237533   1.278   3.152   6.838  0.6215  1.1920 -1.5134
 5300TIP3   OH237534   4.644   1.474   8.531  0.1601  0.5439  0.2847
 5300TIP3    H137535   4.580   1.544   8.542 -1.2315 -0.9197  2.6149
 5300TIP3    H237536   4.638   1.450   8.439 -2.2754  0.8727  0.2840
 5301TIP3   OH237537   1.151   1.556   8.436 -0.1261 -0.1801 -0.1683
 5301TIP3    H137538   1.128   1.641   8.398  1.6615  0.2880 -0.2988
 5301TIP3    H237539   1.214   1.576   8.505  0.3900 -1.3898 -0.2532
 5302TIP3   OH237540   2.304   5.352   1.015  0.2176 -0.1213 -0.6099
 5302TIP3    H137541   2.356   5.416   0.966 -0.4591 -0.2178 -1.4836
 5302TIP3    H237542   2.273   5.291   0.948  2.1100 -2.3090  0.3669
 5303TIP3   OH237543   6.206   6.024   8.268 -0.1285  0.4999 -0.4195
 5303TIP3    H137544   6.165   6.111   8.260 -1.5016 -0.2098 -1.5896
 5303TIP3    H237545   6.197   5.986   8.181 -0.7720 -1.3335  0.4069
 5304TIP3   OH237546   4.991   5.736   7.386 -0.5577 -0.5932  0.3600
 5304TIP3    H137547   5.080   5.771   7.393 -1.0085  0.6467  0.2204
 5304TIP3    H237548   4.999   5.664   7.324  0.1105  0.4676 -0.8410
 5305TIP3   OH237549   5.133   5.126   7.222 -0.7667 -0.1448 -0.2041
 5305TIP3    H137550   5.182   5.129   7.304 -1.6000  2.1611  0.2811
 5305TIP3    H237551   5.075   5.050   7.232  1.4655 -1.9446 -0.1358
 5306TIP3   OH237552   5.700   3.515   8.358 -0.4262  0.8697  0.1729
 5306TIP3    H137553   5.697   3.513   8.263 -0.7517 -2.6179  0.1351
 5306TIP3    H237554   5.786   3.552   8.378 -0.5543  2.1357 -1.4347
 5307TIP3   OH237555   3.439   6.212   7.216  0.2337  0.0333 -0.2098
 5307TIP3    H137556   3.486   6.205   7.132  0.7727 -0.4071  0.1212
 5307TIP3    H237557   3.349   6.231   7.191  0.7606  1.9597 -0.8453
 5308TIP3   OH237558   4.458   3.684   1.853  0.2088  0.1195 -0.6689
 5308TIP3    H137559   4.466   3.779   1.842 -1.3084  0.5203  1.2590
 5308TIP3    H237560   4.365   3.669   1.867  0.5280 -1.5672 -0.1404
 5309TIP3   OH237561   3.026   2.384   1.519 -0.3257 -0.1063 -0.3397
 5309TIP3    H137562   3.034   2.460   1.576 -0.5054 -0.1023 -0.3195
 5309TIP3    H237563   2.940   2.393   1.479 -0.7424 -0.8059  0.3817
 5310TIP3   OH237564   2.149   4.168   6.776  0.6187  0.3407 -0.3177
 5310TIP3    H137565   2.149   4.158   6.681  2.2561 -1.2492 -0.2132
 5310TIP3    H237566   2.216   4.234   6.794  1.2443 -0.2913 -0.2460
 5311TIP3   OH237567   3.949   4.854   0.348  0.4526  0.2587 -0.4316
 5311TIP3    H137568   4.008   4.865   0.273  0.1658  0.9374 -0.5630
 5311TIP3    H237569   3.861   4.860   0.310  0.2765 -1.0573 -0.2830
 5312TIP3   OH237570   1.771   5.052   0.320 -0.3976  1.0929 -0.7146
 5312TIP3    H137571   1.685   5.095   0.323 -1.0545  0.0060 -2.4271
 5312TIP3    H237572   1.804   5.071   0.232  1.9118  2.8305  0.3942
 5313TIP3   OH237573   1.315   3.070   0.136  0.3719 -0.6911  0.2128
 5313TIP3    H137574   1.247   3.076   0.068 -2.4344 -0.5576  2.7923
 5313TIP3    H237575   1.344   3.160   0.149  0.9775 -0.7295 -0.8239
 5314TIP3   OH237576   1.085   4.780   8.055  0.8371 -0.3618  0.5224
 5314TIP3    H137577   1.052   4.748   7.970 -0.9517  0.0551  1.0146
 5314TIP3    H237578   1.153   4.843   8.032 -1.0555  1.3621 -0.7528
 5315TIP3   OH237579   2.846   4.608   7.727 -0.1430  0.6828 -0.1450
 5315TIP3    H137580   2.813   4.672   7.664  0.2766 -0.8990 -2.1070
 5315TIP3    H237581   2.941   4.622   7.727  0.0487 -0.3823 -1.2145
 5316TIP3   OH237582   1.503   5.006   0.427  0.7970  0.3272  0.3125
 5316TIP3    H137583   1.477   5.017   0.518 -0.6902 -0.8582  0.0849
 5316TIP3    H237584   1.533   4.915   0.421 -0.9330 -0.2369 -0.7239
 5317TIP3   OH237585   1.579   5.179   1.895 -0.4160  0.3565  0.7267
 5317TIP3    H137586   1.641   5.108   1.914  0.5652  0.4983 -1.5943
 5317TIP3    H237587   1.593   5.243   1.965 -1.0889 -1.5087  2.6963
 5318TIP3   OH237588   4.370   0.012   0.687  0.1610  0.0140 -0.1688
 5318TIP3    H137589   4.395   0.020   0.595  1.7757  1.6150  0.3490
 5318TIP3    H237590   4.389  -0.080   0.708  2.4594  0.2805 -0.7620
 5319TIP3   OH237591   1.717   6.752   0.272  0.0253 -0.0428  0.4615
 5319TIP3    H137592   1.643   6.711   0.228  0.8341  1.9056 -3.0500
 5319TIP3    H237593   1.697   6.845   0.273  1.2391  0.2516  2.0002
 5320TIP3   OH237594   0.536   1.514   7.447 -0.3897  0.5521 -0.5736
 5320TIP3    H137595   0.493   1.468   7.375  0.1327  0.9104 -1.1239
 5320TIP3    H237596   0.552   1.602   7.413  0.7583  0.4276 -0.3782
 5321TIP3   OH237597   6.315   5.516   2.223  0.1079 -0.5878  0.0392
 5321TIP3    H137598   6.336   5.508   2.316 -0.2370 -1.7576  0.0370
 5321TIP3    H237599   6.225   5.484   2.216 -0.0841  0.0637 -0.6113
 5322TIP3   OH237600   3.897   6.181   7.779  0.1588 -0.3861 -0.2900
 5322TIP3    H137601   3.874   6.125   7.853  0.8047 -0.9253 -0.4867
 5322TIP3    H237602   3.818   6.233   7.763  0.1655  0.0662  1.0622
 5323TIP3   OH237603   3.190   3.577   0.989 -0.3488 -0.2909  0.2784
 5323TIP3    H137604   3.175   3.659   0.942 -0.1800 -0.1022  0.5516
 5323TIP3    H237605   3.103   3.549   1.016 -0.2920  0.4946  1.3489
 5324TIP3   OH237606   3.524   3.759   6.294 -0.0166  0.5569  0.8443
 5324TIP3    H137607   3.578   3.690   6.256 -2.8178 -0.6726 -1.2065
 5324TIP3    H237608   3.587   3.821   6.330  2.9323  0.4356 -3.3980
 5325TIP3   OH237609   2.395   5.908   7.490 -0.3225 -0.4216 -0.0083
 5325TIP3    H137610   2.309   5.947   7.473  0.1483  0.6424 -0.0232
 5325TIP3    H237611   2.405   5.842   7.422  0.5014  2.0897 -2.5338
 5326TIP3   OH237612   2.333   6.500   1.864  0.5437 -0.4433 -0.1106
 5326TIP3    H137613   2.428   6.509   1.853  0.6229  0.9713  1.1944
 5326TIP3    H237614   2.302   6.591   1.870 -1.0516 -0.8563 -1.5358
 5327TIP3   OH237615   0.880   1.868   2.044 -0.0524 -0.2538 -0.0751
 5327TIP3    H137616   0.903   1.780   2.014 -0.9522 -0.1209 -1.1904
 5327TIP3    H237617   0.787   1.863   2.062 -0.1251  0.5030 -0.2259
 5328TIP3   OH237618   4.914   3.161   0.835 -1.1364 -0.1512 -0.6648
 5328TIP3    H137619   4.887   3.114   0.756  0.7236  2.2642 -2.9264
 5328TIP3    H237620   4.975   3.227   0.803 -1.3953  1.8937  2.6657
 5329TIP3   OH237621   6.623   6.184   0.098 -0.4672 -0.5209 -0.2074
 5329TIP3    H137622   6.629   6.199   0.004 -1.1227 -0.2633 -0.2117
 5329TIP3    H237623   6.587   6.266   0.133  4.7553  1.7095  0.9557
 5330TIP3   OH237624   0.738   5.163   0.246  0.0637 -0.5086 -0.1684
 5330TIP3    H137625   0.735   5.165   0.150 -0.0663  0.5321 -0.1509
 5330TIP3    H237626   0.652   5.197   0.273  0.6879  0.7018  0.3222
 5331TIP3   OH237627   0.281   1.113   7.419 -0.6215 -0.5252 -0.5237
 5331TIP3    H137628   0.346   1.149   7.358  0.1044 -0.4955  0.2655
 5331TIP3    H237629   0.231   1.190   7.448 -0.3784 -0.4200 -0.3832
 5332TIP3   OH237630   6.315   3.133   1.653 -0.0715 -0.3319 -0.6176
 5332TIP3    H137631   6.273   3.170   1.576 -0.1817 -1.8311 -1.3256
 5332TIP3    H237632   6.319   3.039   1.635  0.9222 -0.5816  0.7173
 5333TIP3   OH237633   3.738   2.225   6.620 -0.1466 -0.4319  0.0626
 5333TIP3    H137634   3.833   2.237   6.628 -0.2177  1.4640 -1.3851
 5333TIP3    H237635   3.720   2.236   6.527 -1.7992 -0.8184  0.3035
 5334TIP3   OH237636   0.032   4.713   7.127 -0.1297 -0.1051  0.5035
 5334TIP3    H137637   0.072   4.665   7.055 -2.5381 -0.1088 -0.9184
 5334TIP3    H237638   0.102   4.770   7.159  1.0417 -0.0951 -1.8519
 5335TIP3   OH237639   4.892   3.692   1.328  0.4069 -0.1656  0.4956
 5335TIP3    H137640   4.896   3.605   1.369  0.6042  0.2388  1.3691
 5335TIP3    H237641   4.877   3.752   1.402  0.8060  0.5933 -0.0304
 5336TIP3   OH237642   0.151   3.754   7.693 -0.0327  0.6481 -0.6475
 5336TIP3    H137643   0.215   3.749   7.764 -0.2765  0.4292 -0.4415
 5336TIP3    H237644   0.175   3.834   7.645  0.2194  0.7200 -0.4066
 5337TIP3   OH237645   1.852   6.885   0.498 -0.4459 -0.5177  0.1529
 5337TIP3    H137646   1.940   6.849   0.495  0.1234  0.8344  0.0743
 5337TIP3    H237647   1.795   6.808   0.491  0.7097 -1.3426 -0.6247
 5338TIP3   OH237648   1.231   2.663   8.460 -0.9002 -0.0402 -0.2942
 5338TIP3    H137649   1.259   2.754   8.444 -0.9771 -0.2039 -1.4643
 5338TIP3    H237650   1.284   2.635   8.535 -0.8006  0.9357  0.0217
 5339TIP3   OH237651   6.004   2.924   7.539 -0.3663  0.0921 -0.4846
 5339TIP3    H137652   6.001   3.006   7.489  0.4747  1.0445  0.9735
 5339TIP3    H237653   5.996   2.951   7.630 -2.5072 -1.6495 -0.0681
 5340TIP3   OH237654   1.134   2.621   8.061  0.1215 -0.1548  0.2719
 5340TIP3    H137655   1.208   2.606   8.121  0.0550 -0.3029  0.3171
 5340TIP3    H237656   1.170   2.677   7.992  0.9344 -2.1242 -0.9818
 5341TIP3   OH237657   0.718   2.083   7.811  0.0552 -0.2273 -0.1555
 5341TIP3    H137658   0.676   2.001   7.839 -2.8365  1.2453  0.1839
 5341TIP3    H237659   0.650   2.129   7.762  1.4739  2.1555 -0.0395
 5342TIP3   OH237660   1.781   5.407   1.336 -0.4935  0.6092  0.0848
 5342TIP3    H137661   1.782   5.331   1.394  0.3470 -1.1729 -2.1199
 5342TIP3    H237662   1.857   5.458   1.364  1.7303 -1.7510 -1.2215
 5343TIP3   OH237663   4.452   5.066   8.116  0.6941 -0.5345  0.1043
 5343TIP3    H137664   4.363   5.086   8.146  0.6332  3.4633 -2.1509
 5343TIP3    H237665   4.485   5.004   8.181 -2.7205 -0.0289  2.6229
 5344TIP3   OH237666   0.776   3.244   6.754  0.6799 -0.4180 -0.3431
 5344TIP3    H137667   0.830   3.280   6.825 -0.8379 -0.2312  0.7495
 5344TIP3    H237668   0.751   3.157   6.783  1.7478 -1.1906 -1.6066
 5345TIP3   OH237669   2.930   1.482   1.649  0.0803  0.1132  0.1907
 5345TIP3    H137670   3.019   1.503   1.621  0.5061  0.8065  1.9729
 5345TIP3    H237671   2.921   1.522   1.735 -1.6242 -0.7919  0.4832
 5346TIP3   OH237672   5.425   2.125   8.567  0.6523  0.3828 -0.5874
 5346TIP3    H137673   5.441   2.128   8.473 -1.0482  0.1375 -0.9183
 5346TIP3    H237674   5.503   2.084   8.604  1.4483  0.7157 -1.8501
 5347TIP3   OH237675   3.803   2.433   1.971 -1.2421 -0.0223 -0.4344
 5347TIP3    H137676   3.793   2.513   1.920 -0.9726 -0.3708 -1.0361
 5347TIP3    H237677   3.756   2.451   2.053  0.6318  1.5750  0.3845
 5348TIP3   OH237678   3.863   1.500   7.586  0.6637 -0.1162 -0.1824
 5348TIP3    H137679   3.817   1.435   7.533  0.5593  0.7913 -1.2403
 5348TIP3    H237680   3.908   1.449   7.653 -0.1082 -1.1993 -0.4647
 5349TIP3   OH237681   6.419   4.042   8.582 -0.4496 -0.1585  0.5657
 5349TIP3    H137682   6.444   3.987   8.656  0.1097  0.6010  0.9645
 5349TIP3    H237683   6.376   3.983   8.521  2.0261 -1.4945 -0.0085
 5350TIP3   OH237684   3.300   0.242   1.740  0.3830  0.4661  0.4729
 5350TIP3    H137685   3.314   0.152   1.770  0.0398 -0.4961 -1.9906
 5350TIP3    H237686   3.382   0.287   1.759  0.4292 -0.2113  2.0828
 5351TIP3   OH237687   3.067   1.308   7.842  0.0694 -0.3640 -0.4849
 5351TIP3    H137688   3.142   1.286   7.898 -0.3845  1.5470  0.9970
 5351TIP3    H237689   3.104   1.362   7.773  0.4461 -1.7482 -1.4092
 5352TIP3   OH237690   6.458   4.529   1.248  0.3224 -0.0186 -0.1933
 5352TIP3    H137691   6.389   4.592   1.226 -0.8275 -1.3769 -0.5466
 5352TIP3    H237692   6.497   4.564   1.328  0.4146  1.6881 -0.9373
 5353TIP3   OH237693   6.852   4.552   0.624 -0.1373 -0.2390 -0.4245
 5353TIP3    H137694   6.940   4.587   0.639 -0.0803 -0.4345 -0.3100
 5353TIP3    H237695   6.816   4.540   0.712 -0.1828 -0.4072 -0.4673
 5354TIP3   OH237696   5.010   0.096   7.514 -0.3354  0.1914  0.0129
 5354TIP3    H137697   5.007   0.192   7.512  1.5227  0.3318  1.0357
 5354TIP3    H237698   5.052   0.076   7.598  0.1482 -1.4761 -0.5984
 5355TIP3   OH237699   5.402   5.998   7.162 -0.6255 -0.3612  0.2643
 5355TIP3    H137700   5.493   5.971   7.176 -1.1112 -2.0365  0.4241
 5355TIP3    H237701   5.406   6.093   7.158  1.0690 -0.3727  0.7547
 5356TIP3   OH237702   3.103   4.772   7.797 -0.0315  0.1455 -0.0735
 5356TIP3    H137703   3.198   4.771   7.788 -0.0224 -0.2038  0.0498
 5356TIP3    H237704   3.077   4.860   7.770  0.2205 -0.1208 -1.2319
 5357TIP3   OH237705   0.343   0.970   1.550  0.1817  0.0245 -0.1079
 5357TIP3    H137706   0.329   0.943   1.641 -0.2574  2.1673  0.5189
 5357TIP3    H237707   0.425   1.019   1.552  1.0475 -1.2790 -1.2367
 5358TIP3   OH237708   3.584   1.858   7.527  0.0111  0.0040 -0.2089
 5358TIP3    H137709   3.540   1.935   7.491 -0.6592  0.3461  1.2509
 5358TIP3    H237710   3.513   1.799   7.550 -0.0645  1.5258  4.4055
 5359TIP3   OH237711   4.695   2.067   2.613 -0.0704 -0.1496 -0.3784
 5359TIP3    H137712   4.659   1.986   2.649  0.8570 -0.9587 -1.2075
 5359TIP3    H237713   4.773   2.084   2.665 -1.3767  1.4160  1.1914
 5360TIP3   OH237714   3.189   0.334   1.990 -0.0008  0.0051  0.2839
 5360TIP3    H137715   3.234   0.341   1.906 -0.8277 -0.1050 -0.1794
 5360TIP3    H237716   3.255   0.298   2.049  0.6569  0.2905 -0.2611
 5361TIP3   OH237717   3.994   6.245   2.025 -0.7009 -0.7830  0.1410
 5361TIP3    H137718   3.913   6.297   2.027  0.3434  1.1779 -2.4574
 5361TIP3    H237719   4.045   6.279   2.098 -1.5186 -0.8325  0.7530
 5362TIP3   OH237720   5.241   6.697   0.897 -0.1932  0.2671  0.0321
 5362TIP3    H137721   5.221   6.703   0.990 -0.7396 -2.0914  0.1362
 5362TIP3    H237722   5.332   6.665   0.894  0.3097  1.6747 -0.2898
 5363TIP3   OH237723   3.719   6.619   7.085 -0.0941 -0.5003  0.3067
 5363TIP3    H137724   3.724   6.523   7.076 -0.4327 -0.3537 -2.3183
 5363TIP3    H237725   3.626   6.639   7.078  0.1931  0.1965 -2.8889
 5364TIP3   OH237726   6.276   1.056   6.943  0.0087 -0.3990 -0.5075
 5364TIP3    H137727   6.215   1.120   6.907  0.9155 -0.1315 -1.6323
 5364TIP3    H237728   6.333   1.033   6.869  0.4426 -1.6249  0.1727
 5365TIP3   OH237729   3.042   2.118   6.927  0.1727  0.4436 -0.1042
 5365TIP3    H137730   3.087   2.090   6.848  0.4179 -1.0884  0.5470
 5365TIP3    H237731   2.949   2.116   6.905  0.2101 -0.5218 -0.2001
 5366TIP3   OH237732   4.223   3.489   7.433  0.2775  0.4393  0.3612
 5366TIP3    H137733   4.266   3.447   7.507  2.8856  1.7527 -0.2706
 5366TIP3    H237734   4.175   3.419   7.389 -1.0425 -0.4341  3.0195
 5367TIP3   OH237735   6.419   3.259   0.180  0.2392 -0.1779 -0.0261
 5367TIP3    H137736   6.456   3.339   0.218  0.0578  0.2931 -0.8068
 5367TIP3    H237737   6.394   3.206   0.255  1.8481 -0.2157  0.5351
 5368TIP3   OH237738   4.728   4.402   1.660 -0.1623 -0.2153 -0.2438
 5368TIP3    H137739   4.754   4.360   1.578 -2.0866 -0.3854 -0.8239
 5368TIP3    H237740   4.694   4.329   1.714 -1.1006  0.2042 -0.2441
 5369TIP3   OH237741   4.526   5.513   0.391  0.3945  0.4829 -0.2790
 5369TIP3    H137742   4.604   5.472   0.355  0.5049 -0.1548  0.6720
 5369TIP3    H237743   4.454   5.478   0.337  0.3582 -1.8124  1.1244
 5370TIP3   OH237744   6.518   1.489   8.497  0.6353 -0.2472 -0.0893
 5370TIP3    H137745   6.581   1.460   8.430 -0.2361  1.1146 -1.5728
 5370TIP3    H237746   6.558   1.568   8.534  0.2934  0.0106 -0.2726
 5371TIP3   OH237747   5.377   5.809   6.913 -0.2043  0.2332 -0.0046
 5371TIP3    H137748   5.319   5.864   6.859 -1.1871 -1.1196 -0.3704
 5371TIP3    H237749   5.365   5.843   7.002 -1.0627  0.3986 -0.1685
 5372TIP3   OH237750   2.283   6.902   8.569  0.4681  0.2526 -0.4618
 5372TIP3    H137751   2.322   6.971   8.516  2.3987  0.2658  0.8662
 5372TIP3    H237752   2.350   6.834   8.573 -0.0784 -0.2504  0.9434
 5373TIP3   OH237753   0.908   0.401   0.587  0.2892  0.4543  0.8992
 5373TIP3    H137754   0.931   0.312   0.561  2.0659  1.1413 -0.1255
 5373TIP3    H237755   0.867   0.392   0.673 -1.2000 -1.4890  0.0624
 5374TIP3   OH237756   1.155   6.161   1.368  0.4202 -0.6345 -0.5729
 5374TIP3    H137757   1.242   6.142   1.333  1.0061  0.3583  0.3179
 5374TIP3    H237758   1.112   6.075   1.372  0.5969 -0.9091 -2.9247
 5375TIP3   OH237759   5.106   0.539   7.136 -0.3104  0.8498 -0.1054
 5375TIP3    H137760   5.031   0.593   7.159 -1.1307 -0.6140  0.7780
 5375TIP3    H237761   5.110   0.473   7.204 -0.4852 -1.3433 -2.0797
 5376TIP3   OH237762   4.389   6.748   0.246 -0.1717 -0.4940  0.0265
 5376TIP3    H137763   4.446   6.707   0.311  0.9389  0.0767 -0.5619
 5376TIP3    H237764   4.346   6.820   0.293 -2.3571 -2.4185  1.1443
 5377TIP3   OH237765   1.813   0.500   0.409 -0.2521 -0.0824  0.3351
 5377TIP3    H137766   1.797   0.406   0.410 -2.7572  0.2803  1.2135
 5377TIP3    H237767   1.837   0.519   0.318  0.2159 -1.5279  0.1256
 5378TIP3   OH237768   6.771   6.041   1.690 -0.0537 -0.5116  0.0985
 5378TIP3    H137769   6.799   6.016   1.778  0.4622  0.4483  0.2197
 5378TIP3    H237770   6.682   6.075   1.702  0.4508  0.7524  0.4688
 5379TIP3   OH237771   0.821   0.116   7.083 -0.4725  0.1338 -0.8348
 5379TIP3    H137772   0.856   0.192   7.130 -0.1362 -0.2751 -0.4231
 5379TIP3    H237773   0.853   0.040   7.131 -0.9877 -0.2715 -1.1154
 5380TIP3   OH237774   4.660   0.147   8.607  0.4475 -0.0291 -0.7127
 5380TIP3    H137775   4.719   0.222   8.617 -0.4746  0.7459 -0.9249
 5380TIP3    H237776   4.665   0.125   8.514 -1.2135  1.4440 -1.2034
 5381TIP3   OH237777   1.627   0.346   0.918  0.5091  0.1943  0.3561
 5381TIP3    H137778   1.668   0.339   0.832 -0.7616 -1.0807 -0.1699
 5381TIP3    H237779   1.628   0.440   0.937  1.5515  0.4115 -0.6587
 5382TIP3   OH237780   1.678   5.494   0.950 -0.0687  0.4118 -0.0776
 5382TIP3    H137781   1.682   5.584   0.984  0.7158 -0.3329  1.9532
 5382TIP3    H237782   1.622   5.448   1.012  2.4835 -1.3183  1.1436
 5383TIP3   OH237783   5.800   3.763   8.013  0.7301  0.6253 -0.2012
 5383TIP3    H137784   5.799   3.721   7.927 -2.3185 -0.9901  0.4722
 5383TIP3    H237785   5.715   3.807   8.019  0.5060  0.0014  2.2469
 5384TIP3   OH237786   2.772   5.288   6.597  0.2852 -0.3350 -0.4589
 5384TIP3    H137787   2.854   5.284   6.646  0.9145  1.3818 -1.3030
 5384TIP3    H237788   2.795   5.330   6.515 -1.3184 -0.5008 -1.0264
 5385TIP3   OH237789   2.280   4.959   2.385 -0.1690  0.2450 -0.2084
 5385TIP3    H137790   2.356   5.012   2.409 -0.6821  0.6682  0.5263
 5385TIP3    H237791   2.304   4.918   2.302  1.6540 -1.1814  0.9303
 5386TIP3   OH237792   6.213   1.195   1.570 -0.0841 -0.1365  0.1565
 5386TIP3    H137793   6.147   1.125   1.570 -0.5578  0.2938  0.9724
 5386TIP3    H237794   6.239   1.203   1.662 -1.2248  1.8529  0.3707
 5387TIP3   OH237795   5.042   4.190   7.728 -0.8831 -0.5488  0.2390
 5387TIP3    H137796   5.043   4.175   7.634 -1.7707  1.8777 -0.2327
 5387TIP3    H237797   5.134   4.197   7.753 -0.6629 -0.1157 -0.6669
 5388TIP3   OH237798   4.276   1.554   6.760  0.0603  0.1412  0.2174
 5388TIP3    H137799   4.361   1.510   6.754 -0.3518 -0.6519  0.0313
 5388TIP3    H237800   4.272   1.607   6.680  0.8851  1.1270  0.8157
 5389TIP3   OH237801   6.100   1.735   7.031 -0.4301 -0.1376 -0.2046
 5389TIP3    H137802   6.073   1.693   6.949 -0.7170 -0.2415 -0.0560
 5389TIP3    H237803   6.177   1.684   7.059 -0.6839 -0.4722 -0.1057
 5390TIP3   OH237804   5.210   2.612   7.802  0.3654 -0.3443 -0.2606
 5390TIP3    H137805   5.279   2.676   7.817  1.2193 -1.1724 -0.5882
 5390TIP3    H237806   5.164   2.644   7.724  0.7622 -0.1093 -0.3994
 5391TIP3   OH237807   4.011   0.682   1.091 -0.1887  0.5962 -0.5059
 5391TIP3    H137808   3.916   0.689   1.084 -0.0925  2.4422 -0.3243
 5391TIP3    H237809   4.030   0.591   1.066 -2.1673 -0.4709  1.5799
 5392TIP3   OH237810   1.354   2.399   7.084 -0.0160  0.0184  0.3660
 5392TIP3    H137811   1.312   2.339   7.021  2.1233 -2.1384  0.8336
 5392TIP3    H237812   1.397   2.341   7.146  2.0793  2.0765  0.9573
 5393TIP3   OH237813   4.680   4.849   7.465  0.3778  0.7215 -0.1628
 5393TIP3    H137814   4.655   4.865   7.374 -0.9830 -0.5766 -0.0425
 5393TIP3    H237815   4.676   4.754   7.475  1.6005  0.7617  0.9651
 5394TIP3   OH237816   5.597   4.872   2.089 -0.1672  0.0884 -0.4606
 5394TIP3    H137817   5.519   4.862   2.144  1.2731  2.4975  2.3428
 5394TIP3    H237818   5.666   4.827   2.139  1.1653  2.2110 -0.2808
 5395TIP3   OH237819   3.882   1.450   8.433 -0.4463  0.2703  0.0710
 5395TIP3    H137820   3.803   1.437   8.381  0.1040  1.0604 -0.9860
 5395TIP3    H237821   3.854   1.509   8.503 -1.0465 -0.3249  0.3515
 5396TIP3   OH237822   5.138   6.784   7.454  0.0291  0.2053 -0.1105
 5396TIP3    H137823   5.087   6.865   7.454  0.8830  0.7539  0.9581
 5396TIP3    H237824   5.100   6.733   7.382  0.7404  2.3300 -2.1386
 5397TIP3   OH237825   4.781   3.207   2.529  0.3374 -0.5265  0.5270
 5397TIP3    H137826   4.756   3.161   2.449  0.5557 -2.6552  1.6104
 5397TIP3    H237827   4.794   3.297   2.502  0.5312 -1.2125 -1.8536
 5398TIP3   OH237828   1.537   2.594   7.895 -0.0962  0.1357  0.7393
 5398TIP3    H137829   1.587   2.653   7.951 -0.4377  0.8881  0.2709
 5398TIP3    H237830   1.602   2.534   7.859  0.5421  1.2395 -0.0414
 5399TIP3   OH237831   4.051   0.755   7.875 -0.5922  0.5992  0.0090
 5399TIP3    H137832   3.966   0.794   7.854 -0.2676  0.9964 -0.5791
 5399TIP3    H237833   4.030   0.688   7.941 -1.1540  1.7988  1.1130
 5400TIP3   OH237834   3.712   6.551   8.420 -0.1300 -0.2727 -0.2692
 5400TIP3    H137835   3.675   6.617   8.479 -0.8129  0.3280 -1.3329
 5400TIP3    H237836   3.736   6.479   8.477  0.7801  0.9487  0.9517
 5401TIP3   OH237837   4.480   2.223   7.856  0.0449 -0.0919 -0.2454
 5401TIP3    H137838   4.419   2.149   7.862 -0.5210  0.4522  1.1508
 5401TIP3    H237839   4.533   2.218   7.936 -0.7048  1.5634  0.4183
 5402TIP3   OH237840   2.196   6.441   1.322  0.5836 -0.2715 -0.0695
 5402TIP3    H137841   2.220   6.471   1.410  0.3680 -0.9360  0.2247
 5402TIP3    H237842   2.111   6.480   1.305  0.9497  0.4519 -0.2888
 5403TIP3   OH237843   5.605   1.147   8.444  0.3108 -0.3097  1.2511
 5403TIP3    H137844   5.670   1.085   8.475  1.5748 -0.1686 -0.9472
 5403TIP3    H237845   5.648   1.233   8.451  0.4837 -0.2377 -0.4261
 5404TIP3   OH237846   1.067   1.656   0.129 -0.2649  0.1524  0.2565
 5404TIP3    H137847   1.008   1.663   0.054  0.8398 -0.2664 -0.6741
 5404TIP3    H237848   1.078   1.561   0.142  0.5873  0.2261  0.1087
 5405TIP3   OH237849   4.178   4.183   0.358  0.4446 -0.3261 -0.1670
 5405TIP3    H137850   4.186   4.121   0.285 -0.0265  0.5840 -1.0197
 5405TIP3    H237851   4.251   4.244   0.344  0.9120 -0.6796  0.6710
 5406TIP3   OH237852   3.718   2.675   1.893  0.5271  0.3634 -0.0513
 5406TIP3    H137853   3.682   2.707   1.811  2.5214 -1.4268 -1.7290
 5406TIP3    H237854   3.645   2.682   1.955 -1.1266  1.5138 -1.9924
 5407TIP3   OH237855   6.126   4.888   0.001  0.4385  0.5819 -0.3930
 5407TIP3    H137856   6.070   4.811   0.007  1.3494 -0.0462  0.5660
 5407TIP3    H237857   6.151   4.893  -0.091 -0.1585  0.1246 -0.5850
 5408TIP3   OH237858   5.142   4.725   8.242  0.2976 -0.3665  0.2149
 5408TIP3    H137859   5.144   4.801   8.185  0.4377 -1.3113 -1.0742
 5408TIP3    H237860   5.224   4.731   8.292  0.4957  0.1177 -0.1565
 5409TIP3   OH237861   1.270   1.569   7.899  0.4271  0.6083 -0.0001
 5409TIP3    H137862   1.341   1.582   7.962 -1.4888 -0.0043  2.4264
 5409TIP3    H237863   1.224   1.653   7.896 -1.0975 -0.1070  1.6088
 5410TIP3   OH237864   4.270   4.075   8.438 -0.5330  0.0295 -0.3703
 5410TIP3    H137865   4.188   4.053   8.393 -1.4492  1.8044  0.3385
 5410TIP3    H237866   4.331   4.095   8.367 -0.8078 -0.9542 -0.9042
 5411TIP3   OH237867   1.146   6.657   8.424  0.6589 -0.0897  0.4754
 5411TIP3    H137868   1.068   6.626   8.470 -1.8984 -2.6241 -4.7392
 5411TIP3    H237869   1.123   6.746   8.397  0.6445  0.0631  0.9686
 5412TIP3   OH237870   3.925   0.312   1.438 -0.1926  0.0639 -0.3376
 5412TIP3    H137871   3.995   0.374   1.414  1.6414 -2.0852 -0.8699
 5412TIP3    H237872   3.950   0.231   1.395 -2.6394 -1.0175  0.1689
 5413TIP3   OH237873   1.312   5.886   8.008 -0.2855  0.1843  0.3435
 5413TIP3    H137874   1.334   5.884   7.914  2.8483 -1.4564  0.9791
 5413TIP3    H237875   1.230   5.935   8.012 -0.1073  1.0498 -3.1568
 5414TIP3   OH237876   6.264   4.523   7.189 -0.4021  0.0534 -0.4576
 5414TIP3    H137877   6.359   4.525   7.181 -0.4060  1.9901 -0.5279
 5414TIP3    H237878   6.240   4.431   7.178  1.4612 -0.4763 -0.3143
 5415TIP3   OH237879   1.585   4.595   7.761  0.3481 -0.2490  0.3057
 5415TIP3    H137880   1.675   4.583   7.791 -0.0145  0.7299  1.8887
 5415TIP3    H237881   1.552   4.506   7.749  2.0753 -0.6558 -2.2374
 5416TIP3   OH237882   6.175   4.230   1.018  0.1431  0.1345  0.4312
 5416TIP3    H137883   6.147   4.298   1.079 -0.0083 -0.3980  0.9659
 5416TIP3    H237884   6.155   4.148   1.062  3.2674 -0.3237  1.2366
 5417TIP3   OH237885   0.973   1.292   1.229 -0.3006  0.0269 -0.1785
 5417TIP3    H137886   0.915   1.363   1.256 -2.8459 -1.9856  0.0197
 5417TIP3    H237887   1.014   1.262   1.310 -1.0604 -0.2716  0.0959
 5418TIP3   OH237888   5.758   0.505   7.389  0.2763  0.1151  0.7463
 5418TIP3    H137889   5.697   0.441   7.424  1.2578 -1.2139  0.1108
 5418TIP3    H237890   5.841   0.487   7.435 -0.0361  2.7564  2.6072
 5419TIP3   OH237891   4.266   3.460   7.105 -0.2732  0.7850  0.3753
 5419TIP3    H137892   4.270   3.487   7.197  0.3623 -0.7024  0.8236
 5419TIP3    H237893   4.173   3.465   7.083 -0.3175  2.1147  0.7692
 5420TIP3   OH237894   0.168   3.423   1.360 -0.3539  0.0232 -0.1859
 5420TIP3    H137895   0.238   3.481   1.391 -0.8665  0.1808  0.7199
 5420TIP3    H237896   0.161   3.441   1.266  1.5955 -0.8404 -0.5350
 5421TIP3   OH237897   5.927   3.622   1.471  0.5372  0.0392 -0.4203
 5421TIP3    H137898   5.999   3.654   1.417  0.0616  3.7796  0.8371
 5421TIP3    H237899   5.966   3.611   1.558  0.2095 -0.8899 -0.3840
 5422TIP3   OH237900   0.711   4.960   7.933  0.3873 -0.1955 -0.5443
 5422TIP3    H137901   0.646   4.891   7.927  0.1084  0.0581 -0.4474
 5422TIP3    H237902   0.731   4.982   7.841  1.8153 -1.6434 -0.6165
 5423TIP3   OH237903   5.130   0.374   2.329  0.6114  0.1825 -0.1614
 5423TIP3    H137904   5.055   0.322   2.359  1.2788 -0.2347  0.8199
 5423TIP3    H237905   5.161   0.327   2.251 -0.5129  0.7066 -0.9500
 5424TIP3   OH237906   5.400   5.051   1.154 -0.0955 -0.1216  0.0828
 5424TIP3    H137907   5.420   4.981   1.092 -1.6226  1.1781 -2.0021
 5424TIP3    H237908   5.461   5.121   1.134  0.7179 -0.3945  1.4469
 5425TIP3   OH237909   1.686   3.636   0.924  0.5911  0.4471 -0.0158
 5425TIP3    H137910   1.601   3.642   0.969 -0.0994  1.3329 -1.3853
 5425TIP3    H237911   1.717   3.727   0.919  1.4962  0.1599  0.2191
 5426TIP3   OH237912   3.258   5.847   6.092 -0.2570 -0.2302 -0.6608
 5426TIP3    H137913   3.318   5.777   6.114 -1.1140 -0.0164  3.0788
 5426TIP3    H237914   3.294   5.886   6.013  2.2775 -2.5470 -0.7835
 5427TIP3   OH237915   2.412   3.941   0.483 -0.4848 -0.5156  0.1769
 5427TIP3    H137916   2.484   3.889   0.518 -1.7006 -3.0678 -0.8748
 5427TIP3    H237917   2.362   3.968   0.561  1.6949  1.6752  0.9607
 5428TIP3   OH237918   5.628   0.472   7.072  0.3943  0.2419 -0.6549
 5428TIP3    H137919   5.663   0.384   7.087  1.2634  0.8708  1.3755
 5428TIP3    H237920   5.594   0.499   7.158 -0.3282  1.7073 -1.3581
 5429TIP3   OH237921   6.708   6.682   7.450  0.0483  0.0096  0.1722
 5429TIP3    H137922   6.770   6.659   7.519  0.5798 -0.1262 -0.3441
 5429TIP3    H237923   6.671   6.599   7.423  1.5006 -0.2272 -1.2513
 5430TIP3   OH237924   2.946   2.523   7.333  0.4582 -0.1288 -0.2308
 5430TIP3    H137925   3.018   2.577   7.367 -0.2564  0.0326  1.0784
 5430TIP3    H237926   2.870   2.581   7.334 -0.1635 -0.9314  0.5075
 5431TIP3   OH237927   4.298   4.534   1.584 -0.4536  0.1786  0.4738
 5431TIP3    H137928   4.254   4.572   1.508  1.3720 -0.2379 -0.8779
 5431TIP3    H237929   4.257   4.449   1.595 -0.5723  0.1310 -0.2516
 5432TIP3   OH237930   6.505   2.648   7.462  0.5902 -0.2567 -0.1253
 5432TIP3    H137931   6.431   2.607   7.417  1.1175 -1.8046  0.3621
 5432TIP3    H237932   6.485   2.640   7.555 -0.2474  2.4705  0.0111
 5433TIP3   OH237933   6.398   2.283   7.354 -0.5059  0.4290 -0.6973
 5433TIP3    H137934   6.311   2.269   7.391  0.2187  0.5025  1.0895
 5433TIP3    H237935   6.383   2.337   7.277 -2.0301  0.5141 -0.3608
 5434TIP3   OH237936   3.086   5.865   8.314  0.6738  0.4978 -0.0242
 5434TIP3    H137937   3.046   5.845   8.399 -0.6363  1.1473 -0.4615
 5434TIP3    H237938   3.082   5.961   8.308  1.0087  0.4736 -0.7148
 5435TIP3   OH237939   6.602   4.577   0.522  0.1492 -0.3865  0.2495
 5435TIP3    H137940   6.689   4.590   0.558  0.4116  0.4659 -0.6227
 5435TIP3    H237941   6.608   4.611   0.433 -1.4603  1.1306  0.6542
 5436TIP3   OH237942   0.668   5.945   8.326 -0.0543  0.3309  0.8314
 5436TIP3    H137943   0.645   5.966   8.416  1.0823  1.3954  0.9005
 5436TIP3    H237944   0.624   6.013   8.274 -0.8620 -0.3893  0.5507
 5437TIP3   OH237945   1.447   1.397   1.183  0.5943  0.6105  0.1013
 5437TIP3    H137946   1.407   1.362   1.103  0.5247  2.4495 -0.7430
 5437TIP3    H237947   1.374   1.433   1.233  0.6410 -0.5183  1.0213
 5438TIP3   OH237948   4.800   3.760   0.399 -0.0534  0.3615  0.0103
 5438TIP3    H137949   4.850   3.841   0.389 -2.1075  1.5694 -1.2359
 5438TIP3    H237950   4.782   3.732   0.309 -1.0432 -0.3776  0.4175
 5439TIP3   OH237951   1.756   3.567   0.450 -0.0364 -0.1073  0.1199
 5439TIP3    H137952   1.802   3.561   0.534  0.0087  3.1856  0.4415
 5439TIP3    H237953   1.671   3.605   0.471  0.2892  1.5739 -1.3833
 5440TIP3   OH237954   3.824   4.557   2.389 -0.0728 -0.5955  0.6041
 5440TIP3    H137955   3.759   4.529   2.453  0.1426  0.2623  1.2124
 5440TIP3    H237956   3.907   4.525   2.423 -0.2353 -2.5192 -0.6482
 5441TIP3   OH237957   0.078   5.030   6.464 -0.9668 -0.1326 -0.1490
 5441TIP3    H137958   0.106   4.939   6.453 -0.9623  0.0134 -1.4651
 5441TIP3    H237959   0.023   5.048   6.388 -1.3955  0.8151  0.3671
 5442TIP3   OH237960   0.059   1.584   7.103 -0.3633  0.0978 -0.6469
 5442TIP3    H137961   0.073   1.493   7.074 -0.7766 -0.6693  1.3810
 5442TIP3    H237962   0.054   1.634   7.022  1.8876 -1.3689 -1.8106
 5443TIP3   OH237963   6.659   2.243   7.440 -0.6680  0.3345  0.4765
 5443TIP3    H137964   6.573   2.254   7.400 -0.2725  0.8479 -0.2520
 5443TIP3    H237965   6.697   2.169   7.393  0.3878  1.8529 -1.2086
 5444TIP3   OH237966   4.709   3.073   2.309  0.2154  0.0436  0.3719
 5444TIP3    H137967   4.647   3.129   2.262  0.8812  0.4684 -0.0202
 5444TIP3    H237968   4.714   2.993   2.257  0.8360  0.4533 -0.2186
 5445TIP3   OH237969   1.730   6.312   0.906 -0.5926 -0.0166 -0.4688
 5445TIP3    H137970   1.746   6.333   0.814  2.5453  1.5394  0.3140
 5445TIP3    H237971   1.710   6.396   0.946 -1.7365 -0.6596  0.3667
 5446TIP3   OH237972   2.918   4.649   6.817  0.4405  0.2869 -0.4320
 5446TIP3    H137973   2.867   4.626   6.895  0.7863  0.0283 -0.2851
 5446TIP3    H237974   2.966   4.570   6.794  0.9330  0.5874 -0.4557
 5447TIP3   OH237975   5.976   5.591   0.547 -0.1019  0.0584 -0.3948
 5447TIP3    H137976   5.944   5.680   0.538 -0.8361 -0.1700 -0.1448
 5447TIP3    H237977   6.053   5.598   0.604  0.2693  0.6063 -0.9485
 5448TIP3   OH237978   1.571   3.307   7.072 -0.3107  0.2574  0.5710
 5448TIP3    H137979   1.505   3.302   7.142 -1.0645  1.0247 -0.0519
 5448TIP3    H237980   1.520   3.318   6.992  0.5508 -0.3486 -0.0823
 5449TIP3   OH237981   2.963   2.549   1.735 -0.2341 -0.2614  0.1450
 5449TIP3    H137982   2.956   2.596   1.819  1.0826  1.4854 -0.6600
 5449TIP3    H237983   3.025   2.479   1.752 -0.3593 -0.2386  0.7454
 5450TIP3   OH237984   6.034   1.415   1.232 -0.5974 -0.3911  0.0377
 5450TIP3    H137985   6.039   1.321   1.251 -0.5398 -0.5310 -0.6332
 5450TIP3    H237986   6.058   1.458   1.314  1.0438 -0.9805 -0.0974
 5451TIP3   OH237987   1.852   1.471   6.808  0.1340  0.7837 -0.1437
 5451TIP3    H137988   1.897   1.480   6.892  0.2013  1.3403 -0.2382
 5451TIP3    H237989   1.885   1.542   6.755 -0.9016  1.2516 -0.1922
 5452TIP3   OH237990   4.641   0.365   7.599 -0.2440 -0.0363  0.0600
 5452TIP3    H137991   4.583   0.442   7.598  0.4459  0.5093 -1.7933
 5452TIP3    H237992   4.614   0.316   7.676 -3.6441 -0.1645 -1.0559
 5453TIP3   OH237993   1.830   4.697   0.885 -0.0745  0.4370 -0.2338
 5453TIP3    H137994   1.886   4.761   0.842  1.6205  0.0526  1.3114
 5453TIP3    H237995   1.813   4.734   0.972 -0.0606 -0.6630  0.2510
 5454TIP3   OH237996   5.911   1.876   0.066 -0.3970  0.0572 -0.2549
 5454TIP3    H137997   5.941   1.841  -0.018 -1.9683 -1.1324 -0.3712
 5454TIP3    H237998   5.866   1.802   0.108  1.9670  0.0430  2.5278
 5455TIP3   OH237999   5.305   6.039   0.901 -0.4248  0.3684 -0.3537
 5455TIP3    H138000   5.253   6.025   0.980  0.6613 -0.2393  0.2887
 5455TIP3    H238001   5.263   6.112   0.857 -1.4808  0.2489  0.4220
 5456TIP3   OH238002   1.654   0.041   0.085 -0.2414  0.7916 -0.5309
 5456TIP3    H138003   1.684   0.023  -0.004 -0.8355 -0.1830 -0.5470
 5456TIP3    H238004   1.562   0.066   0.076 -0.5394 -0.1213 -0.1256
 5457TIP3   OH238005   3.426   2.683   1.438  0.2556  0.6499  0.4353
 5457TIP3    H138006   3.431   2.778   1.452 -1.9095  1.4062 -2.8946
 5457TIP3    H238007   3.354   2.655   1.494  0.4289  1.0931  0.8937
 5458TIP3   OH238008   4.929   0.353   7.533  0.6152  0.0506 -0.3166
 5458TIP3    H138009   4.925   0.448   7.533  1.2843  0.1096 -2.1022
 5458TIP3    H238010   4.837   0.326   7.526  0.4419  0.5502 -0.0471
 5459TIP3   OH238011   6.286   4.073   6.058  0.1620  0.3876 -0.0004
 5459TIP3    H138012   6.325   4.019   5.990  0.0218 -0.2734  0.4387
 5459TIP3    H238013   6.264   4.155   6.014  2.4511  0.9795 -0.1869
 5460TIP3   OH238014   5.170   5.422   6.026 -0.2537 -0.4282 -0.3323
 5460TIP3    H138015   5.081   5.410   6.060  0.4050  0.3556  1.8712
 5460TIP3    H238016   5.185   5.517   6.032  1.2329 -0.6912  0.8342
 5461TIP3   OH238017   1.080   0.474   8.284  0.3543 -0.6628 -0.0619
 5461TIP3    H138018   1.098   0.396   8.231  0.2263  0.0865 -1.2405
 5461TIP3    H238019   1.166   0.499   8.319  0.8374  0.0829 -1.7042
 5462TIP3   OH238020   3.673   1.353   8.298 -0.0998  0.2459 -0.1198
 5462TIP3    H138021   3.603   1.323   8.239 -0.1226  0.3646 -0.1518
 5462TIP3    H238022   3.647   1.319   8.384  0.0423 -0.1103 -0.2127
 5463TIP3   OH238023   1.101   1.123   7.051 -0.3877 -0.5398 -0.5564
 5463TIP3    H138024   1.155   1.154   7.123  0.2497 -0.2426 -1.1442
 5463TIP3    H238025   1.148   1.152   6.972 -2.3960  1.5045 -1.1194
 5464TIP3   OH238026   6.233   0.980   0.987 -0.3365  0.4241 -0.1851
 5464TIP3    H138027   6.182   0.935   1.054  0.2388 -0.8415 -0.5598
 5464TIP3    H238028   6.167   1.019   0.930 -0.8372  0.9693  0.7399
 5465TIP3   OH238029   1.811   0.764   0.065 -0.1217  0.6047  0.1010
 5465TIP3    H138030   1.870   0.768  -0.010  0.8248 -0.2101  0.7729
 5465TIP3    H238031   1.819   0.851   0.106  0.1957  0.6820 -0.1188
 5466TIP3   OH238032   0.300   4.019   7.696 -0.3931  0.4587  0.1471
 5466TIP3    H138033   0.378   4.023   7.642  1.3894  0.4696  2.5711
 5466TIP3    H238034   0.229   4.046   7.637  1.7752  3.3175 -1.4484
 5467TIP3   OH238035   1.404   0.611   6.016  0.8020  0.5151 -0.0959
 5467TIP3    H138036   1.414   0.635   6.108  0.8923  1.4705 -0.3450
 5467TIP3    H238037   1.318   0.569   6.011 -0.2157  2.4663  0.0464
 5468TIP3   OH238038   5.659   1.110   6.973  0.0253 -0.3946 -0.2836
 5468TIP3    H138039   5.675   1.018   6.994  0.6743 -0.3508 -0.5446
 5468TIP3    H238040   5.665   1.114   6.878 -0.3941 -0.1483 -0.3027
 5469TIP3   OH238041   1.159   1.141   1.048 -0.3729  0.2634 -0.2334
 5469TIP3    H138042   1.248   1.144   1.083 -0.1688 -2.1550 -0.3196
 5469TIP3    H238043   1.103   1.165   1.121  0.3151  1.1321  0.0166
 5470TIP3   OH238044   1.791   5.850   2.345  0.0890 -0.3287  0.2006
 5470TIP3    H138045   1.838   5.933   2.353  0.2856 -0.3191 -0.9307
 5470TIP3    H238046   1.733   5.862   2.270 -0.1683 -1.0796  0.2728
 5471TIP3   OH238047   0.096   0.391   1.761  0.1328  0.0324  0.4002
 5471TIP3    H138048   0.140   0.306   1.761  0.6851  0.3129  0.9704
 5471TIP3    H238049   0.132   0.437   1.837  0.0629  0.8931 -0.0749
 5472TIP3   OH238050   3.814   1.102   6.825 -0.5999  0.3531  0.4067
 5472TIP3    H138051   3.852   1.125   6.910 -0.9433 -0.7710  0.8923
 5472TIP3    H238052   3.754   1.173   6.805  0.6694  1.4315  0.3257
 5473TIP3   OH238053   0.913   6.028   6.640  0.3772  0.0673 -0.0104
 5473TIP3    H138054   0.884   6.047   6.551 -0.1004 -0.1510  0.0957
 5473TIP3    H238055   0.839   6.052   6.696  0.2463 -0.8539  0.2301
 5474TIP3   OH238056   6.522   1.929   6.919  0.1237 -0.3365  0.0586
 5474TIP3    H138057   6.470   1.868   6.867 -1.0237  0.7190 -0.0797
 5474TIP3    H238058   6.497   1.910   7.009 -2.6783  1.9168 -0.0857
 5475TIP3   OH238059   2.253   4.970   0.788  0.9928 -0.0340  0.4362
 5475TIP3    H138060   2.258   4.899   0.724  0.9541  0.6237 -0.3194
 5475TIP3    H238061   2.312   4.944   0.858  2.0983 -0.1429 -0.5076
 5476TIP3   OH238062   4.862   0.789   2.006 -0.4986 -0.7095 -0.7112
 5476TIP3    H138063   4.877   0.882   2.023  1.3053 -1.3379  1.6332
 5476TIP3    H238064   4.775   0.771   2.041  0.0825 -0.3533  0.9834
 5477TIP3   OH238065   6.480   3.582   1.071  0.3151 -0.6271 -0.1089
 5477TIP3    H138066   6.448   3.668   1.100  0.9817 -0.9104  1.5686
 5477TIP3    H238067   6.575   3.589   1.073  0.3893 -1.0208 -1.2556
 5478TIP3   OH238068   0.082   6.910   1.163 -0.6539 -0.1890 -0.1476
 5478TIP3    H138069   0.130   6.839   1.122 -2.2483 -0.6340 -1.3804
 5478TIP3    H238070   0.060   6.969   1.090  0.5464  1.5617  0.8250
 5479TIP3   OH238071   4.928   3.966   6.981 -0.0324 -0.9032  0.2359
 5479TIP3    H138072   4.851   3.909   6.983  0.2867 -1.3408  0.2461
 5479TIP3    H238073   4.978   3.936   6.906 -0.5909  0.3484 -0.6633
 5480TIP3   OH238074   0.628   4.346   6.486  0.2931 -0.1119  0.0472
 5480TIP3    H138075   0.687   4.414   6.454  2.3265 -1.0438  1.5642
 5480TIP3    H238076   0.580   4.317   6.408  0.6467  1.8080 -0.9428
 5481TIP3   OH238077   5.526   5.903   1.046 -0.6777 -0.1824 -0.3149
 5481TIP3    H138078   5.565   5.947   0.970 -0.7617 -2.4827 -1.7701
 5481TIP3    H238079   5.432   5.918   1.036 -0.7028 -0.6350 -0.7695
 5482TIP3   OH238080   4.775   5.224   0.590 -0.1981 -0.7639  0.3813
 5482TIP3    H138081   4.869   5.207   0.585 -0.3375 -2.2372  2.0014
 5482TIP3    H238082   4.738   5.175   0.517  0.2087 -0.7627  0.1701
 5483TIP3   OH238083   1.565   1.588   8.061  0.6734  0.0450  0.2794
 5483TIP3    H138084   1.631   1.625   8.004  0.7555 -2.0219 -1.0856
 5483TIP3    H238085   1.608   1.582   8.147  0.4010  3.5783  0.7802
 5484TIP3   OH238086   0.134   4.888   6.786  0.0616  0.0007 -0.1792
 5484TIP3    H138087   0.210   4.945   6.792  1.6946 -1.8959 -1.5051
 5484TIP3    H238088   0.140   4.848   6.700 -2.1238 -0.6844 -0.0749
 5485TIP3   OH238089   3.946   0.276   1.051  0.1297  0.2248 -0.1244
 5485TIP3    H138090   4.027   0.324   1.037 -1.0188  2.1131 -0.6022
 5485TIP3    H238091   3.884   0.314   0.989 -1.0315 -1.4500 -0.0545
 5486TIP3   OH238092   2.784   5.059   6.169 -0.0974 -0.0524 -0.1638
 5486TIP3    H138093   2.714   5.052   6.104  0.2127 -1.1271 -0.4129
 5486TIP3    H238094   2.767   4.988   6.231  0.1231  0.4006  0.4235
 5487TIP3   OH238095   0.591   3.192   6.534  0.2067 -0.0324  0.0476
 5487TIP3    H138096   0.500   3.178   6.561  0.3572 -0.4496  0.3504
 5487TIP3    H238097   0.643   3.158   6.607  0.6015  0.7850  0.1548
 5488TIP3   OH238098   0.513   5.784   0.739 -0.1453  0.8083  0.3468
 5488TIP3    H138099   0.514   5.689   0.728  0.3270  0.5912  2.0234
 5488TIP3    H238100   0.493   5.818   0.652  1.0734 -0.7641 -0.5960
 5489TIP3   OH238101   1.355   1.058   1.263  0.0224 -0.0527 -0.3864
 5489TIP3    H138102   1.384   1.112   1.337 -0.7374  1.0357 -0.8595
 5489TIP3    H238103   1.382   0.970   1.286  0.9668  0.4716  0.5856
 5490TIP3   OH238104   5.751   2.943   8.565  0.3517  0.2532 -0.2448
 5490TIP3    H138105   5.685   2.883   8.531  1.0338 -0.6346 -0.0226
 5490TIP3    H238106   5.750   2.929   8.660  0.4783  0.6355 -0.1847
 5491TIP3   OH238107   5.834   5.172   1.683 -0.1043  0.0029 -0.0548
 5491TIP3    H138108   5.808   5.137   1.768 -1.9348 -0.2051 -0.6636
 5491TIP3    H238109   5.752   5.184   1.636  0.7552  1.6180 -1.2263
 5492TIP3   OH238110   5.032   2.749   0.936 -0.4017 -0.4027 -0.1863
 5492TIP3    H138111   5.012   2.716   0.849  0.7683 -3.1947  0.5173
 5492TIP3    H238112   4.950   2.789   0.965 -1.1837 -0.5531 -2.0530
 5493TIP3   OH238113   4.309   6.671   1.789  0.1632  0.6100 -0.8529
 5493TIP3    H138114   4.401   6.658   1.764  0.1625  2.4677 -2.0102
 5493TIP3    H238115   4.263   6.599   1.747  1.0452 -0.2428 -0.4119
 5494TIP3   OH238116   6.300   3.216   8.333 -0.4218 -0.4055  0.2415
 5494TIP3    H138117   6.265   3.263   8.409  0.1787  0.2032  0.1519
 5494TIP3    H238118   6.391   3.197   8.356 -0.8018 -2.0095  0.4876
 5495TIP3   OH238119   0.842   3.084   2.072 -0.1390  0.4529  0.3200
 5495TIP3    H138120   0.872   2.995   2.088  1.1808  0.7826 -0.1437
 5495TIP3    H238121   0.747   3.078   2.073 -0.1554 -1.4434 -2.1364
 5496TIP3   OH238122   3.132   3.609   1.289  0.0348  0.2573  0.0214
 5496TIP3    H138123   3.141   3.683   1.228 -0.1693 -0.1178 -0.4669
 5496TIP3    H238124   3.103   3.536   1.234 -1.8347  0.3417  0.8253
 5497TIP3   OH238125   0.650   5.297   0.506  0.2209 -0.1487 -0.0910
 5497TIP3    H138126   0.559   5.268   0.500  0.7028 -1.4990 -1.7386
 5497TIP3    H238127   0.663   5.352   0.428  1.4688 -2.0803 -1.3320
 5498TIP3   OH238128   4.337   6.687   6.868  0.0143 -0.1469 -0.6301
 5498TIP3    H138129   4.359   6.609   6.918  1.1738  0.1056 -0.7113
 5498TIP3    H238130   4.410   6.699   6.808 -0.2876  0.8184 -0.8335
 5499TIP3   OH238131   2.777   2.200   0.409  0.5590  0.0812  0.2220
 5499TIP3    H138132   2.836   2.203   0.333  1.5173  1.5003  0.9821
 5499TIP3    H238133   2.712   2.267   0.391  0.6193  0.2180  0.5116
 5500TIP3   OH238134   1.780   4.333   0.332 -0.5723  0.6300  0.4045
 5500TIP3    H138135   1.827   4.341   0.250  0.5781  0.9615  1.0760
 5500TIP3    H238136   1.799   4.415   0.379 -1.9708  0.8566  0.6264
 5501TIP3   OH238137   2.520   0.848   0.835  0.0116  0.3091  0.4501
 5501TIP3    H138138   2.594   0.908   0.849 -0.5663  1.1894 -0.1177
 5501TIP3    H238139   2.443   0.900   0.859 -0.4205 -0.6546  1.2105
 5502TIP3   OH238140   1.095   4.768   0.963 -0.6879  0.1756 -0.0568
 5502TIP3    H138141   1.140   4.788   0.880 -1.4848  1.3388 -0.2331
 5502TIP3    H238142   1.134   4.686   0.991 -1.4249 -1.0491 -2.3254
 5503TIP3   OH238143   0.504   5.736   6.414 -0.2011  0.0755  0.6473
 5503TIP3    H138144   0.527   5.807   6.475 -1.6942  0.2929  0.9899
 5503TIP3    H238145   0.415   5.757   6.385  0.6777  0.3116 -2.1196
 5504TIP3   OH238146   4.910   2.334   8.117  0.2021 -0.0795  0.1258
 5504TIP3    H138147   4.939   2.414   8.074  0.2313 -0.1682 -0.0206
 5504TIP3    H238148   4.978   2.270   8.097 -0.5693 -0.5608 -1.0526
 5505TIP3   OH238149   5.360   6.876   6.437 -0.1012 -0.4091 -0.3084
 5505TIP3    H138150   5.381   6.789   6.404  1.2511  0.0778 -0.8241
 5505TIP3    H238151   5.360   6.866   6.533  1.2172 -0.7554 -0.3205
 5506TIP3   OH238152   4.340   4.276   6.768 -0.1051 -0.4521 -0.0194
 5506TIP3    H138153   4.263   4.323   6.738 -1.4608 -1.8116  1.1578
 5506TIP3    H238154   4.360   4.215   6.697  0.0497  0.0723 -0.4314
 5507TIP3   OH238155   6.497   1.119   6.557 -0.0195  0.2017  0.2878
 5507TIP3    H138156   6.548   1.082   6.485  0.9836  1.0161  0.5652
 5507TIP3    H238157   6.408   1.125   6.522 -0.1577 -2.0607  0.0924
 5508TIP3   OH238158   6.480   1.593   0.876 -0.1583 -0.1747 -0.5357
 5508TIP3    H138159   6.489   1.501   0.853  2.5502  0.1943 -1.2952
 5508TIP3    H238160   6.520   1.641   0.803 -1.3228  1.6133 -0.0845
 5509TIP3   OH238161   1.391   6.750   8.487  0.2354 -0.3928  0.2521
 5509TIP3    H138162   1.308   6.718   8.452  0.2011  0.5562 -0.6056
 5509TIP3    H238163   1.456   6.688   8.455  0.1813  0.3398 -1.3966
 5510TIP3   OH238164   3.764   3.511   2.716  0.3375 -0.0128 -0.0767
 5510TIP3    H138165   3.850   3.489   2.679  1.2901  0.2658  1.8457
 5510TIP3    H238166   3.707   3.440   2.687  1.4882 -0.8099 -0.4827
 5511TIP3   OH238167   4.166   0.716   0.150 -0.1092 -0.2824 -0.1258
 5511TIP3    H138168   4.159   0.660   0.072 -0.6934 -0.2416 -0.1068
 5511TIP3    H238169   4.258   0.741   0.153 -0.5226  1.8391 -2.2960
 5512TIP3   OH238170   3.093   1.302   7.213  0.0326  0.2062  0.0185
 5512TIP3    H138171   3.146   1.324   7.289  0.3266 -2.1364  0.5473
 5512TIP3    H238172   3.134   1.349   7.141  1.1249  0.6317  0.8926
 5513TIP3   OH238173   6.785   4.018   2.327 -0.0709  0.2305 -0.2242
 5513TIP3    H138174   6.792   3.947   2.263 -1.3702  0.5383 -0.7437
 5513TIP3    H238175   6.876   4.038   2.351  0.2880 -2.0050  0.4144
 5514TIP3   OH238176   5.986   3.921   2.017 -0.6068  0.7021 -0.1688
 5514TIP3    H138177   5.937   3.879   1.946 -0.7615  3.0831 -1.5731
 5514TIP3    H238178   6.043   3.852   2.051 -2.8383 -1.3863 -0.3922
 5515TIP3   OH238179   5.637   1.792   8.431  0.7782 -0.5183 -0.1288
 5515TIP3    H138180   5.714   1.750   8.395  1.4539 -0.2560  0.9678
 5515TIP3    H238181   5.565   1.733   8.411  0.9876 -0.0625 -2.4925
 5516TIP3   OH238182   2.335   2.078   7.127  0.1311 -0.4888 -0.2347
 5516TIP3    H138183   2.351   1.992   7.087  1.7253  0.3621 -1.5189
 5516TIP3    H238184   2.375   2.141   7.067 -3.3432  1.4603 -0.7899
 5517TIP3   OH238185   3.558   1.344   1.467 -0.1971  0.4114 -0.1926
 5517TIP3    H138186   3.640   1.370   1.509 -1.0039  1.0111  1.0677
 5517TIP3    H238187   3.516   1.287   1.531  0.2484 -1.8047 -1.7659
 5518TIP3   OH238188   4.804   3.612   7.365  0.0209  0.2620  0.4107
 5518TIP3    H138189   4.722   3.562   7.357  0.8188 -0.9468 -0.5897
 5518TIP3    H238190   4.824   3.608   7.459 -0.4906 -0.4095  0.5045
 5519TIP3   OH238191   5.786   5.420   7.852  0.2030  0.5424  0.5731
 5519TIP3    H138192   5.870   5.417   7.805 -0.2110  2.4351 -0.4147
 5519TIP3    H238193   5.781   5.336   7.898  1.9727 -0.2031 -0.4749
 5520TIP3   OH238194   3.295   0.081   7.038 -0.4344  0.1587  0.5995
 5520TIP3    H138195   3.390   0.076   7.032 -0.3409  1.5877  0.5278
 5520TIP3    H238196   3.264   0.061   6.950 -0.2265 -0.6048  0.6933
 5521TIP3   OH238197   4.794   0.018   2.509 -0.2700  0.1210 -0.1400
 5521TIP3    H138198   4.724   0.040   2.571 -1.1684  1.2167 -1.4915
 5521TIP3    H238199   4.763  -0.060   2.464  0.5467 -0.8925  0.9922
 5522TIP3   OH238200   0.037   5.605   0.851  0.2045 -0.1994 -0.2317
 5522TIP3    H138201   0.107   5.540   0.849  0.8846  0.3860  1.8632
 5522TIP3    H238202   0.016   5.616   0.944  0.7963  3.2414 -0.3576
 5523TIP3   OH238203   1.524   2.598   7.051 -0.7471  0.0595 -0.4743
 5523TIP3    H138204   1.461   2.671   7.051 -1.6066 -0.6358  1.0535
 5523TIP3    H238205   1.471   2.521   7.069  0.5039 -0.5899  0.5647
 5524TIP3   OH238206   3.266   4.578   0.948 -0.3152  0.1984  0.1848
 5524TIP3    H138207   3.308   4.493   0.937 -1.8791 -0.6834  0.7675
 5524TIP3    H238208   3.320   4.624   1.012  1.2506  0.1629 -1.0433
 5525TIP3   OH238209   0.011   2.806   7.011  0.5771  0.3055 -0.3095
 5525TIP3    H138210   0.001   2.743   7.082 -0.0198  1.4449  0.6403
 5525TIP3    H238211   0.094   2.850   7.030  0.4077  0.6234 -0.3003
 5526TIP3   OH238212   3.328   6.249   1.729  0.6419  0.1049  0.1292
 5526TIP3    H138213   3.302   6.163   1.759 -1.5919  0.1640 -1.4244
 5526TIP3    H238214   3.264   6.309   1.767  1.3981  0.9239  0.1504
 5527TIP3   OH238215   2.780   2.653   8.441 -1.1255 -0.1065 -0.0040
 5527TIP3    H138216   2.760   2.561   8.456 -1.6814  0.1308  0.8253
 5527TIP3    H238217   2.701   2.689   8.400 -1.4545  0.2805  0.9281
 5528TIP3   OH238218   3.046   5.259   0.228 -0.1677  0.0477 -0.1472
 5528TIP3    H138219   3.099   5.328   0.187  0.0693  0.5760  1.0180
 5528TIP3    H238220   3.109   5.207   0.277 -0.7053  0.7369  1.3301
 5529TIP3   OH238221   2.727   4.053   8.273  0.1754  0.1741  0.1447
 5529TIP3    H138222   2.674   4.033   8.350 -0.6954  0.1807 -0.4366
 5529TIP3    H238223   2.739   4.148   8.276 -0.6995  0.3081 -0.2442
 5530TIP3   OH238224   5.817   1.217   7.736  0.4007  0.5755 -0.3483
 5530TIP3    H138225   5.911   1.200   7.739  0.3396  0.2357 -0.3021
 5530TIP3    H238226   5.791   1.190   7.648  0.3569  0.7180 -0.3782
 5531TIP3   OH238227   4.894   4.616   2.128 -0.0515 -0.1897 -0.2061
 5531TIP3    H138228   4.944   4.622   2.209 -1.4784 -1.8747  0.8730
 5531TIP3    H238229   4.934   4.543   2.081 -0.1928 -0.2110 -0.2954
 5532TIP3   OH238230   1.254   5.392   0.194 -0.2882  0.0438  0.2931
 5532TIP3    H138231   1.173   5.344   0.210 -1.0748  1.8338  2.1547
 5532TIP3    H238232   1.315   5.359   0.259  0.3233 -0.8886 -0.7306
 5533TIP3   OH238233   5.654   2.509   8.322  0.1074 -0.3352  0.5285
 5533TIP3    H138234   5.739   2.549   8.305 -0.6924  1.2113 -0.0369
 5533TIP3    H238235   5.600   2.580   8.358 -1.2246 -1.0150 -0.0410
 5534TIP3   OH238236   6.740   2.727   6.713 -0.0718  0.2563  1.0613
 5534TIP3    H138237   6.758   2.765   6.627  1.7462 -0.1636  1.2113
 5534TIP3    H238238   6.704   2.800   6.763 -1.0410  0.5394 -0.0016
 5535TIP3   OH238239   1.506   2.057   6.865  0.1438  0.6609 -0.2914
 5535TIP3    H138240   1.597   2.079   6.885  0.2581 -0.3098  0.3683
 5535TIP3    H238241   1.513   1.989   6.798  0.2100 -2.9472  2.9917
 5536TIP3   OH238242   5.430   2.986   1.489 -0.6495 -0.0622  0.2755
 5536TIP3    H138243   5.346   2.965   1.448 -0.9316  1.6662 -0.0727
 5536TIP3    H238244   5.409   2.997   1.582 -0.6022 -0.6771  0.3650
 5537TIP3   OH238245   0.878   6.847   0.911  0.6760 -0.1981 -0.7011
 5537TIP3    H138246   0.859   6.826   1.003  2.4023  1.2571  0.0570
 5537TIP3    H238247   0.864   6.765   0.864 -0.6016 -0.8914  0.7921
 5538TIP3   OH238248   5.898   6.460   7.212  0.1616  0.4363  0.3223
 5538TIP3    H138249   5.883   6.554   7.226  2.2178  0.8204  0.2763
 5538TIP3    H238250   5.971   6.456   7.151  2.1799 -1.1445  2.6591
 5539TIP3   OH238251   2.034   6.748   2.119  0.3377  0.2939 -0.1775
 5539TIP3    H138252   1.992   6.825   2.156  0.9122 -1.1129  3.9598
 5539TIP3    H238253   2.119   6.779   2.089  0.5153  1.3513  1.3178
 5540TIP3   OH238254   4.615   3.050   0.925  0.1980  0.5349 -1.2079
 5540TIP3    H138255   4.561   3.073   1.000  2.8927 -0.0786  1.0911
 5540TIP3    H238256   4.670   3.127   0.910  2.0052 -0.5192 -0.2887
 5541TIP3   OH238257   1.126   5.884   1.443  0.6204  0.6469 -0.2578
 5541TIP3    H138258   1.037   5.869   1.475  1.7093 -0.7210  2.4846
 5541TIP3    H238259   1.145   5.808   1.388  0.4613  0.4000  0.0280
 5542TIP3   OH238260   5.355   0.629   8.008  0.1721  0.1666  0.7047
 5542TIP3    H138261   5.268   0.646   7.972  1.0606  0.3587 -1.4740
 5542TIP3    H238262   5.364   0.534   8.005  0.5290  0.2282 -0.3132
 5543TIP3   OH238263   0.130   2.691   8.399 -0.5929 -0.0684 -0.4447
 5543TIP3    H138264   0.164   2.644   8.323 -1.2145 -0.0221 -0.7587
 5543TIP3    H238265   0.180   2.772   8.402  0.0572 -0.4628 -0.2665
 5544TIP3   OH238266   0.332   0.186   0.596  0.0339 -0.1583  0.3554
 5544TIP3    H138267   0.336   0.200   0.502  1.0657 -1.2250  0.2157
 5544TIP3    H238268   0.394   0.115   0.613  0.0965  0.2168  1.8814
 5545TIP3   OH238269   1.019   1.822   1.047 -0.4209  0.1336 -0.2525
 5545TIP3    H138270   0.959   1.818   1.121  1.3271 -1.3211  1.1750
 5545TIP3    H238271   1.013   1.736   1.006  0.9411 -0.1730  0.1477
 5546TIP3   OH238272   0.948   3.873   1.227 -0.0458  0.0137  0.3033
 5546TIP3    H138273   0.897   3.808   1.179  0.9952 -1.3977  1.0231
 5546TIP3    H238274   0.892   3.950   1.230 -2.1129 -1.4255  1.0119
 5547TIP3   OH238275   1.863   0.549   7.709 -0.0200 -0.2019  0.6213
 5547TIP3    H138276   1.908   0.623   7.669 -0.5284  0.6192  1.5096
 5547TIP3    H238277   1.790   0.531   7.650 -0.5379  0.7485  0.9397
 5548TIP3   OH238278   2.457   3.796   0.217 -0.4357  0.0278  0.5176
 5548TIP3    H138279   2.381   3.827   0.169 -1.8221 -2.2928  1.0948
 5548TIP3    H238280   2.429   3.796   0.309 -0.8014 -3.3780  0.5211
 5549TIP3   OH238281   1.070   3.906   6.003  0.4648  0.5381 -0.2337
 5549TIP3    H138282   1.062   4.001   5.990 -1.0724  0.7534  1.8129
 5549TIP3    H238283   0.984   3.878   6.034  0.5567 -1.7547 -1.7922
 5550TIP3   OH238284   4.309   2.569   8.296 -0.3268  0.4076 -0.5591
 5550TIP3    H138285   4.264   2.583   8.379  0.8282  0.1463  0.1359
 5550TIP3    H238286   4.259   2.500   8.252 -0.9717  0.5814 -0.1027
 5551TIP3   OH238287   6.427   2.141   7.602 -0.1587 -0.6050  0.3071
 5551TIP3    H138288   6.381   2.181   7.675  2.2931 -0.1101  1.6760
 5551TIP3    H238289   6.456   2.215   7.548  1.6119 -0.6633  1.1208
 5552TIP3   OH238290   2.267   2.491   8.629  0.1577 -0.0864  0.2234
 5552TIP3    H138291   2.256   2.545   8.707  0.9321  1.3375 -0.6041
 5552TIP3    H238292   2.304   2.551   8.564  1.1476 -1.6421 -0.7181
 5553TIP3   OH238293   1.830   6.020   1.666 -0.2544 -0.0561 -0.0250
 5553TIP3    H138294   1.872   6.095   1.624  0.8301 -0.6602 -0.0650
 5553TIP3    H238295   1.873   6.014   1.751  0.0194 -0.9128 -0.2165
 5554TIP3   OH238296   1.555   6.798   2.315 -0.1215  0.1616 -0.1039
 5554TIP3    H138297   1.469   6.796   2.273  0.2407  0.3708 -0.8758
 5554TIP3    H238298   1.571   6.708   2.343 -0.0930 -0.1264 -1.0159
 5555TIP3   OH238299   3.655   2.946   7.666 -0.7077  0.2868 -0.0167
 5555TIP3    H138300   3.627   2.987   7.584 -0.5893  1.9342  0.7243
 5555TIP3    H238301   3.721   3.006   7.701  2.4538 -2.4457 -0.7379
 5556TIP3   OH238302   0.854   1.315   1.585 -0.4467 -0.5143  0.3385
 5556TIP3    H138303   0.869   1.228   1.547  2.1152  0.0784 -0.2534
 5556TIP3    H238304   0.838   1.371   1.509 -1.4576 -0.3355  0.6705
 5557TIP3   OH238305   4.431   1.592   7.344 -0.2714 -0.1325 -0.6247
 5557TIP3    H138306   4.393   1.679   7.348  0.1857  0.0886 -1.0406
 5557TIP3    H238307   4.426   1.559   7.434  1.3435  1.1009 -0.0364
 5558TIP3   OH238308   5.999   3.390   7.112 -0.3804 -0.6764 -0.3184
 5558TIP3    H138309   6.019   3.444   7.035 -0.3023  0.3604  0.4043
 5558TIP3    H238310   5.916   3.347   7.091 -0.8182  0.2953 -0.6287
 5559TIP3   OH238311   6.019   1.449   8.215 -0.3229 -0.1782 -0.1631
 5559TIP3    H138312   6.089   1.433   8.278  0.1630 -2.2103 -1.1540
 5559TIP3    H238313   6.060   1.439   8.129 -1.3632  0.7975 -0.8075
 5560TIP3   OH238314   0.503   3.502   7.046 -0.4435 -0.2931  0.4063
 5560TIP3    H138315   0.453   3.508   7.127 -0.1886 -0.1811  0.5561
 5560TIP3    H238316   0.443   3.460   6.984 -1.0641  0.7149  0.3033
 5561TIP3   OH238317   0.112   3.069   6.867  0.1770  0.2463  0.0312
 5561TIP3    H138318   0.129   2.985   6.824  0.5361  0.6467 -0.6228
 5561TIP3    H238319   0.199   3.105   6.883  0.0105  0.9368 -0.5795
 5562TIP3   OH238320   3.649   1.403   7.973  0.4867  0.0963 -0.0773
 5562TIP3    H138321   3.733   1.414   8.017  0.8156 -0.0927 -0.6564
 5562TIP3    H238322   3.616   1.493   7.963 -0.3506  0.0870  1.9746
 5563TIP3   OH238323   4.591   3.027   0.595 -0.1088 -0.6003  0.1929
 5563TIP3    H138324   4.522   3.064   0.649  0.8575 -1.3005  1.9868
 5563TIP3    H238325   4.547   2.960   0.543 -0.9098 -0.5809  0.8211
 5564TIP3   OH238326   3.772   3.062   8.629 -0.1904  0.6488  0.4536
 5564TIP3    H138327   3.690   3.069   8.679  0.1478  0.8857  0.9831
 5564TIP3    H238328   3.828   3.007   8.683  0.3742  1.3532  0.6063
 5565TIP3   OH238329   5.688   0.329   1.600  0.1442 -1.0592  0.0249
 5565TIP3    H138330   5.714   0.318   1.508  1.9102  1.1194  0.1828
 5565TIP3    H238331   5.724   0.252   1.644  0.1573 -1.6243 -0.9389
 5566TIP3   OH238332   3.225   3.023   7.545  0.3817  0.3276  1.1126
 5566TIP3    H138333   3.146   2.974   7.571  2.6816 -2.6059  3.2770
 5566TIP3    H238334   3.229   3.096   7.607 -0.4646  0.3630  1.1432
 5567TIP3   OH238335   2.766   6.486   7.586 -0.0371 -0.3410  0.0625
 5567TIP3    H138336   2.722   6.570   7.598 -1.0503 -0.6680 -1.1084
 5567TIP3    H238337   2.763   6.444   7.672 -0.3788  0.4200  0.4287
 5568TIP3   OH238338   5.557   5.155   1.613 -0.4228  0.6993 -0.8163
 5568TIP3    H138339   5.487   5.211   1.577 -1.9714  0.5582  1.6838
 5568TIP3    H238340   5.510   5.085   1.658  1.2188  1.2589  2.0166
 5569TIP3   OH238341   6.343   1.811   1.773  0.2484 -0.4331 -0.4858
 5569TIP3    H138342   6.361   1.718   1.765 -0.1853 -0.5187 -0.4700
 5569TIP3    H238343   6.424   1.848   1.808  0.7945 -0.6329 -1.5144
 5570TIP3   OH238344   6.259   2.301   0.665  0.3634  0.3783 -0.7719
 5570TIP3    H138345   6.286   2.384   0.705  1.1126 -0.0990 -0.2727
 5570TIP3    H238346   6.195   2.265   0.726  2.2712 -0.8577  0.6198
 5571TIP3   OH238347   3.232   0.290   7.522  0.2772 -0.1962  0.0275
 5571TIP3    H138348   3.216   0.293   7.427 -0.6411 -0.1432  0.1814
 5571TIP3    H238349   3.202   0.203   7.548  1.2232 -0.4936  0.1565
 5572TIP3   OH238350   2.712   3.819   1.055  0.5331 -0.2995 -0.3680
 5572TIP3    H138351   2.777   3.805   0.986 -1.1251  2.3394 -2.6738
 5572TIP3    H238352   2.689   3.911   1.048 -2.9587 -0.9386  0.7564
 5573TIP3   OH238353   1.756   4.124   8.429  0.0770  0.0581 -0.6240
 5573TIP3    H138354   1.822   4.185   8.460  0.5809 -1.5965  1.9684
 5573TIP3    H238355   1.793   4.085   8.350  1.3900  0.4419 -0.2165
 5574TIP3   OH238356   0.203   5.386   0.883  0.1161  0.2549  0.0609
 5574TIP3    H138357   0.154   5.321   0.833 -1.5732  1.0916  0.5668
 5574TIP3    H238358   0.225   5.341   0.964  0.4844 -0.2309 -0.2981
 5575TIP3   OH238359   6.543   5.198   0.953 -0.2866  0.1230  0.2848
 5575TIP3    H138360   6.582   5.211   1.040 -2.3046  1.3715  1.0772
 5575TIP3    H238361   6.449   5.206   0.968 -0.6475  1.0837 -2.1350
 5576TIP3   OH238362   5.134   1.419   0.188  0.3649  0.3586  0.3508
 5576TIP3    H138363   5.183   1.361   0.245  0.1199  0.5034  0.7138
 5576TIP3    H238364   5.110   1.365   0.113  0.5080  0.1085  0.4854
 5577TIP3   OH238365   5.755   0.221   0.937 -0.4946  0.2918 -0.8410
 5577TIP3    H138366   5.735   0.146   0.992 -3.8336  1.3877 -0.3199
 5577TIP3    H238367   5.732   0.194   0.849  0.1572  0.1210 -0.9662
 5578TIP3   OH238368   3.301   4.148   7.629 -0.0908 -0.1161 -0.1113
 5578TIP3    H138369   3.292   4.188   7.716  0.2889  0.1092 -0.1732
 5578TIP3    H238370   3.309   4.223   7.570  1.4747 -0.2743 -0.1388
 5579TIP3   OH238371   5.337   4.501   2.965 -0.2896 -0.4735  0.0857
 5579TIP3    H138372   5.325   4.596   2.958  1.5574 -0.2980 -1.8989
 5579TIP3    H238373   5.290   4.465   2.890 -0.1165 -1.0355  0.2368
 5580TIP3   OH238374   0.742   3.491   7.882 -0.1518 -0.5825 -0.1248
 5580TIP3    H138375   0.800   3.443   7.940  1.7454 -0.4176 -1.7834
 5580TIP3    H238376   0.733   3.435   7.805 -1.9846 -0.4567 -0.0534
 5581TIP3   OH238377   2.720   2.800   7.714  0.4844 -0.0367 -0.1098
 5581TIP3    H138378   2.721   2.865   7.784  0.4206 -1.6015  1.4060
 5581TIP3    H238379   2.656   2.834   7.651  0.3209  1.2681  0.7161
 5582TIP3   OH238380   5.851   3.706   1.063  0.5596  0.2438 -0.2012
 5582TIP3    H138381   5.943   3.711   1.092  0.6443  0.2791 -0.4742
 5582TIP3    H238382   5.802   3.687   1.143  0.6473  1.6616  0.2143
 5583TIP3   OH238383   2.521   3.607   1.833 -0.2018 -0.5887 -0.5983
 5583TIP3    H138384   2.504   3.604   1.927  1.7423 -0.9728 -0.2056
 5583TIP3    H238385   2.458   3.670   1.799  0.1178  0.8178  1.2371
 5584TIP3   OH238386   5.315   4.590   0.976  0.2965  0.3552 -0.1791
 5584TIP3    H138387   5.264   4.567   1.054 -1.6232  1.8472 -0.8932
 5584TIP3    H238388   5.397   4.543   0.986  0.3037  0.7913  2.9371
 5585TIP3   OH238389   4.833   5.553   8.092  0.4735 -0.0373  0.1650
 5585TIP3    H138390   4.884   5.512   8.022 -2.5954 -1.5158 -1.4004
 5585TIP3    H238391   4.815   5.482   8.153 -0.3594  0.2437  0.2555
 5586TIP3   OH238392   5.166   2.624   7.124  0.2705  0.0648 -0.2030
 5586TIP3    H138393   5.233   2.681   7.087 -1.2320  1.7285 -0.4744
 5586TIP3    H238394   5.207   2.538   7.127  2.2014  0.9102 -0.9009
 5587TIP3   OH238395   0.121   2.558   2.034  0.2229  0.0151  0.0744
 5587TIP3    H138396   0.174   2.631   2.001  1.4479  0.0517  1.9692
 5587TIP3    H238397   0.122   2.570   2.129  0.2423 -2.3270  0.4114
 5588TIP3   OH238398   0.994   1.574   0.922  0.1527  0.0821  0.0620
 5588TIP3    H138399   0.941   1.603   0.848  2.0825  3.0499 -0.3325
 5588TIP3    H238400   0.972   1.482   0.933 -1.5045 -0.0144 -3.0379
 5589TIP3   OH238401   5.143   2.840   8.632  0.2971  0.9417  0.4932
 5589TIP3    H138402   5.220   2.896   8.643 -0.0283  1.2890  1.1027
 5589TIP3    H238403   5.075   2.884   8.683  0.0014  0.0467  0.8902
 5590TIP3   OH238404   1.053   2.151   0.117 -0.2959  0.2952  0.6258
 5590TIP3    H138405   0.968   2.144   0.074 -0.0660 -0.9934  0.3396
 5590TIP3    H238406   1.037   2.203   0.195 -0.7969  2.4380 -0.7972
 5591TIP3   OH238407   2.892   5.815   0.739 -0.0242  0.3943  0.2250
 5591TIP3    H138408   2.895   5.725   0.706  0.1394  0.2282  0.6852
 5591TIP3    H238409   2.954   5.816   0.812 -0.3695  0.7615  0.5151
 5592TIP3   OH238410   6.545   3.849   7.851  0.1408 -0.7276 -0.2819
 5592TIP3    H138411   6.538   3.834   7.945  0.6171  1.1279  0.0736
 5592TIP3    H238412   6.637   3.833   7.830  0.3321  0.2232 -0.1731
 5593TIP3   OH238413   1.653   5.756   1.960  0.3848  0.4576 -0.2192
 5593TIP3    H138414   1.629   5.664   1.947 -0.4138  0.4423  1.2216
 5593TIP3    H238415   1.739   5.754   2.001  0.0493  0.3149  0.4919
 5594TIP3   OH238416   1.700   0.418   8.300 -0.2776  0.2182  0.4901
 5594TIP3    H138417   1.707   0.434   8.206 -0.8734 -0.0346  0.3936
 5594TIP3    H238418   1.683   0.505   8.338 -1.8127  0.0925  0.1579
 5595TIP3   OH238419   2.729   3.729   7.211 -0.3463  0.4135 -0.3393
 5595TIP3    H138420   2.669   3.660   7.182 -1.1473  0.5692  0.8591
 5595TIP3    H238421   2.682   3.773   7.282  0.9848  0.8704  0.2955
 5596TIP3   OH238422   3.464   4.156   0.343  0.1531  0.5044 -0.1067
 5596TIP3    H138423   3.395   4.221   0.357 -1.0493 -0.6784 -0.3081
 5596TIP3    H238424   3.540   4.190   0.391 -0.1719  2.4379 -0.8825
 5597TIP3   OH238425   2.656   4.836   7.859  0.5433  0.4162 -0.7264
 5597TIP3    H138426   2.680   4.908   7.917  0.2869 -0.3049  0.3112
 5597TIP3    H238427   2.725   4.771   7.873 -0.6214 -0.6394  0.3983
 5598TIP3   OH238428   5.837   5.900   7.968 -0.0921  0.1835  0.0203
 5598TIP3    H138429   5.812   5.810   7.988  0.3409  0.1845  0.6048
 5598TIP3    H238430   5.917   5.915   8.019  0.1764  0.7064 -0.5309
 5599TIP3   OH238431   4.630   2.844   7.940  0.5108 -0.2919  0.3311
 5599TIP3    H138432   4.605   2.774   7.879 -1.5848  0.3168  0.4000
 5599TIP3    H238433   4.658   2.798   8.019 -1.1513 -1.1023  0.4975
 5600TIP3   OH238434   0.785   6.714   8.184  0.2168 -0.3017  0.2004
 5600TIP3    H138435   0.754   6.669   8.262  0.1065 -0.3348  0.1383
 5600TIP3    H238436   0.787   6.806   8.208 -1.4559 -0.0994 -0.2708
 5601TIP3   OH238437   4.429   0.356   0.591 -0.6036 -0.4361  0.2514
 5601TIP3    H138438   4.420   0.278   0.537  2.9571 -1.2489  0.6490
 5601TIP3    H238439   4.409   0.428   0.531 -0.6861 -1.4915 -1.0388
 5602TIP3   OH238440   4.624   0.118   0.233 -0.2398  0.5301  0.8207
 5602TIP3    H138441   4.643   0.025   0.244 -0.3790  0.7013  3.0499
 5602TIP3    H238442   4.653   0.139   0.145  1.1092 -1.3097  0.7804
 5603TIP3   OH238443   1.191   4.188   8.302  0.4947 -0.2836 -0.4072
 5603TIP3    H138444   1.237   4.176   8.385 -0.5379 -2.9941 -0.1273
 5603TIP3    H238445   1.098   4.186   8.325  0.1815 -1.6358 -1.6432
 5604TIP3   OH238446   6.537   4.250   6.904 -0.7757  0.4912 -0.1563
 5604TIP3    H138447   6.504   4.169   6.865 -0.3415  0.3029 -0.1406
 5604TIP3    H238448   6.577   4.223   6.986 -1.3568  0.8378  0.2526
 5605TIP3   OH238449   3.120   3.034   2.032 -0.0815  0.1204  0.5415
 5605TIP3    H138450   3.071   2.955   2.053  0.3934  0.2480  2.3130
 5605TIP3    H238451   3.212   3.009   2.044  0.2364  0.2836 -1.2965
 5606TIP3   OH238452   2.651   0.823   1.758  0.1950  0.0297 -0.4665
 5606TIP3    H138453   2.670   0.734   1.786  1.0708  0.2958 -0.1663
 5606TIP3    H238454   2.735   0.856   1.726 -0.5252  0.1319 -2.3304
 5607TIP3   OH238455   5.548   4.328   0.345 -0.1939  0.0069 -0.2081
 5607TIP3    H138456   5.627   4.285   0.312 -0.6199 -1.0237  0.0497
 5607TIP3    H238457   5.487   4.255   0.361 -1.3134  0.8087 -0.7286
 5608TIP3   OH238458   2.323   3.344   0.677  0.2788 -0.1048 -0.5661
 5608TIP3    H138459   2.412   3.315   0.657  1.0021  2.1723 -0.8926
 5608TIP3    H238460   2.329   3.439   0.684 -1.9424  0.0350  0.4670
 5609TIP3   OH238461   2.907   1.194   1.376  0.7291 -0.2187 -0.1160
 5609TIP3    H138462   2.813   1.191   1.362  0.9425 -2.3702 -1.4620
 5609TIP3    H238463   2.919   1.157   1.464  0.3289  0.1280  0.0883
 5610TIP3   OH238464   6.509   2.985   7.631  0.1928  0.5956  0.8315
 5610TIP3    H138465   6.441   2.920   7.645 -1.6412  2.2751  0.1821
 5610TIP3    H238466   6.591   2.939   7.650 -1.1146 -1.4219  1.8998
 5611TIP3   OH238467   6.330   1.567   7.088 -0.0685  0.1176  0.0130
 5611TIP3    H138468   6.307   1.501   7.154  0.6133  0.2562  0.3967
 5611TIP3    H238469   6.398   1.526   7.035  1.0916  0.8707  0.8872
 5612TIP3   OH238470   4.597   6.697   1.135  0.1880  0.5900  0.0264
 5612TIP3    H138471   4.599   6.783   1.092  0.9506  0.7120  0.2840
 5612TIP3    H238472   4.680   6.693   1.183 -0.3112  0.1424  0.8709
 5613TIP3   OH238473   0.979   2.030   7.753  0.6067  0.2160  0.5211
 5613TIP3    H138474   0.981   1.968   7.680  1.2402 -0.9572  1.5043
 5613TIP3    H238475   0.886   2.042   7.772  0.4739 -0.2144  0.1332
 5614TIP3   OH238476   3.306   3.531   8.009  0.4449 -0.0565  0.2727
 5614TIP3    H138477   3.299   3.524   8.104  0.3267  1.1103  0.3572
 5614TIP3    H238478   3.341   3.618   7.993 -0.1785  0.0248 -0.7792
 5615TIP3   OH238479   3.854   0.013   7.422 -0.3108  0.5413  0.5128
 5615TIP3    H138480   3.835  -0.033   7.340 -1.8411 -0.9719  1.6318
 5615TIP3    H238481   3.826   0.103   7.406 -1.7199 -0.0074 -0.2853
 5616TIP3   OH238482   3.169   1.673   8.086  0.4595 -0.3568 -0.0243
 5616TIP3    H138483   3.235   1.657   8.018 -0.6772  0.4938 -1.3768
 5616TIP3    H238484   3.100   1.723   8.042 -0.1874  0.4920  1.8395
 5617TIP3   OH238485   3.079   6.913   7.247 -0.0294  0.6320  0.2556
 5617TIP3    H138486   3.153   6.928   7.188 -1.6075  1.2103 -1.6772
 5617TIP3    H238487   3.037   6.835   7.213  0.6251 -0.7689  2.4181
 5618TIP3   OH238488   4.199   5.248   7.964  0.3872  0.5357  0.3328
 5618TIP3    H138489   4.145   5.233   7.886 -1.4509 -2.8195  2.0080
 5618TIP3    H238490   4.288   5.232   7.936 -0.1545  0.1111 -1.2278
 5619TIP3   OH238491   2.749   5.041   8.027  0.7043 -0.4814  0.6170
 5619TIP3    H138492   2.828   5.067   7.978  0.4149 -1.4182 -0.3994
 5619TIP3    H238493   2.692   5.117   8.021  0.3526 -0.8298 -1.2587
 5620TIP3   OH238494   3.781   3.987   1.126  0.0295  0.1816 -0.2265
 5620TIP3    H138495   3.716   3.954   1.064 -2.2366  3.3273  0.2382
 5620TIP3    H238496   3.742   3.973   1.212  1.6757 -1.1537  0.3606
 5621TIP3   OH238497   6.872   1.519   7.707  0.3266  0.5349 -0.2917
 5621TIP3    H138498   6.836   1.433   7.685 -0.1526  1.2526 -2.6154
 5621TIP3    H238499   6.823   1.547   7.784  0.9643 -1.5206  0.9285
 5622TIP3   OH238500   2.799   1.685   2.237  0.0425  0.3628 -0.5002
 5622TIP3    H138501   2.810   1.601   2.194 -4.0318 -0.0358 -1.1641
 5622TIP3    H238502   2.804   1.750   2.167  1.1673  0.5237 -0.2919
 5623TIP3   OH238503   5.125   3.840   1.368  0.4985  0.0171  0.2541
 5623TIP3    H138504   5.065   3.769   1.345  1.4092 -0.3779 -1.0173
 5623TIP3    H238505   5.069   3.908   1.404 -0.5998 -0.6899 -0.0600
 5624TIP3   OH238506   3.591   0.251   0.399 -0.1757 -0.3151  0.1354
 5624TIP3    H138507   3.641   0.249   0.480 -1.0611  0.1507  0.7042
 5624TIP3    H238508   3.544   0.335   0.401 -0.0195 -0.1839 -0.9744
 5625TIP3   OH238509   4.845   1.432   1.083  0.1115 -0.4219  0.1996
 5625TIP3    H138510   4.933   1.456   1.055  0.7425 -0.1320  2.3092
 5625TIP3    H238511   4.836   1.469   1.171 -3.1435  2.0160 -0.9308
 5626TIP3   OH238512   4.934   5.624   1.134  0.1594 -0.1152  0.6802
 5626TIP3    H138513   4.856   5.608   1.188 -0.8053 -0.9039 -0.8769
 5626TIP3    H238514   4.927   5.716   1.108 -1.2339 -0.6037 -0.8525
 5627TIP3   OH238515   2.528   3.358   0.184  0.0698  0.6143  0.7746
 5627TIP3    H138516   2.565   3.332   0.269  1.4328 -1.3567 -0.3336
 5627TIP3    H238517   2.562   3.447   0.170  1.7824  0.0811  1.2670
 5628TIP3   OH238518   0.609   3.631   1.604  0.0246 -0.2721  0.6136
 5628TIP3    H138519   0.612   3.693   1.531 -3.2129 -0.2401  0.3703
 5628TIP3    H238520   0.637   3.682   1.680 -0.6165  0.9275  0.0767
 5629TIP3   OH238521   0.463   3.353   5.965  0.3977  0.4349  0.0922
 5629TIP3    H138522   0.524   3.280   5.959  2.0941  1.9116 -2.0171
 5629TIP3    H238523   0.460   3.374   6.059  2.4249 -0.2795  0.3644
 5630TIP3   OH238524   2.213   4.934   1.434  0.3158 -0.2667 -0.3121
 5630TIP3    H138525   2.196   4.902   1.523 -2.4850  0.9841 -0.2954
 5630TIP3    H238526   2.245   5.024   1.446 -2.2289  0.7358 -0.5311
 5631TIP3   OH238527   0.041   2.666   0.209  0.0932  0.8547 -0.3153
 5631TIP3    H138528  -0.017   2.720   0.156 -0.4193 -0.4619 -1.1509
 5631TIP3    H238529  -0.018   2.609   0.258  0.6167  1.0694  0.5868
 5632TIP3   OH238530   0.179   2.388   5.833  0.0495 -0.6718 -0.5275
 5632TIP3    H138531   0.193   2.350   5.920  0.4459 -1.6114 -0.9732
 5632TIP3    H238532   0.220   2.474   5.837  1.1637 -1.2012 -0.1403
 5633TIP3   OH238533   0.300   2.758   1.337  0.2513 -0.7441  0.1642
 5633TIP3    H138534   0.341   2.675   1.365 -2.1070 -0.9146  3.7685
 5633TIP3    H238535   0.207   2.746   1.354 -0.4750  1.9274 -1.3664
 5634TIP3   OH238536   6.071   4.927   6.479 -0.3681 -0.8356  0.0568
 5634TIP3    H138537   6.138   4.994   6.464  0.1529 -1.0567  1.2618
 5634TIP3    H238538   6.012   4.966   6.543  0.8003 -2.0413  1.9560
 5635TIP3   OH238539   0.873   5.704   7.739  0.3888  0.0793 -0.4613
 5635TIP3    H138540   0.933   5.705   7.814 -0.1531 -1.1729  0.0203
 5635TIP3    H238541   0.786   5.697   7.778  0.1091 -0.6956 -1.1904
 5636TIP3   OH238542   1.249   0.336   6.400 -0.3399  0.6585 -0.3537
 5636TIP3    H138543   1.235   0.257   6.453  1.1757  0.2133 -0.5631
 5636TIP3    H238544   1.162   0.375   6.391 -0.7092  0.6164  2.2516
 5637TIP3   OH238545   0.479   0.864   7.508 -0.3114 -0.1696  0.4128
 5637TIP3    H138546   0.435   0.941   7.474 -0.0656 -0.3361 -0.2944
 5637TIP3    H238547   0.532   0.896   7.581 -0.1655  0.3404  0.0880
 5638TIP3   OH238548   1.228   6.685   1.804 -0.6465  0.4740  0.1839
 5638TIP3    H138549   1.187   6.742   1.868  1.8695  0.7899  1.6506
 5638TIP3    H238550   1.321   6.687   1.826 -0.0828 -1.8907 -1.5690
 5639TIP3   OH238551   4.436   4.379   8.103  0.3712 -0.6062  0.3491
 5639TIP3    H138552   4.526   4.411   8.111  1.0118 -1.7214 -1.7381
 5639TIP3    H238553   4.398   4.433   8.033  0.5041 -2.2527 -1.0559
 5640TIP3   OH238554   2.735   3.282   7.854 -0.3305  0.1049  0.0907
 5640TIP3    H138555   2.735   3.187   7.864  0.1197 -0.0359 -1.0333
 5640TIP3    H238556   2.768   3.297   7.765 -3.9263  1.1142 -1.2893
 5641TIP3   OH238557   3.428   4.670   6.500 -0.0338  0.1774  0.4314
 5641TIP3    H138558   3.345   4.622   6.502 -0.0390  0.2054  1.2581
 5641TIP3    H238559   3.411   4.745   6.443 -0.9022  0.7328  1.3716
 5642TIP3   OH238560   0.240   4.485   0.428  0.3221  0.2375 -0.4888
 5642TIP3    H138561   0.215   4.411   0.372 -0.8089  0.3301 -0.1178
 5642TIP3    H238562   0.250   4.448   0.515 -2.2584  0.8009  0.1415
 5643TIP3   OH238563   0.937   4.345   0.867 -0.4476  0.3195  0.1165
 5643TIP3    H138564   0.981   4.262   0.886 -1.5294  0.1179  2.0973
 5643TIP3    H238565   0.849   4.319   0.838 -0.9909  0.7183  1.3132
 5644TIP3   OH238566   6.837   5.680   0.614  0.3651  0.3245 -0.8065
 5644TIP3    H138567   6.749   5.674   0.651  0.8942 -1.6020  0.2647
 5644TIP3    H238568   6.896   5.675   0.689  1.4361 -1.5542 -1.6972
 5645TIP3   OH238569   0.919   6.572   7.968 -0.2831 -0.1124  0.6691
 5645TIP3    H138570   0.875   6.592   7.885 -0.4171  0.4654  0.8715
 5645TIP3    H238571   0.870   6.623   8.033  0.1670 -0.1246  1.0209
 5646TIP3   OH238572   5.578   5.265   1.875  0.0819  0.4786  0.3457
 5646TIP3    H138573   5.602   5.186   1.922 -0.9789 -0.3276 -0.4174
 5646TIP3    H238574   5.565   5.237   1.784 -2.0765  1.1262  0.3903
 5647TIP3   OH238575   1.429   2.291   2.041  0.4094  0.1296 -0.6721
 5647TIP3    H138576   1.393   2.342   2.113 -1.3362 -1.1632 -0.5754
 5647TIP3    H238577   1.517   2.266   2.071  0.3000  0.8981  0.3351
 5648TIP3   OH238578   3.903   2.215   0.911  0.1017 -0.5049 -0.2634
 5648TIP3    H138579   3.833   2.176   0.963  0.7363 -2.1868 -0.6042
 5648TIP3    H238580   3.953   2.140   0.878  1.3821  0.6163 -0.9703
 5649TIP3   OH238581   2.482   3.065   1.412  0.4614  0.5073 -0.3159
 5649TIP3    H138582   2.504   3.037   1.323 -0.4073 -0.7105 -0.1643
 5649TIP3    H238583   2.543   3.017   1.468  0.0026  0.1224 -0.1506
 5650TIP3   OH238584   2.134   4.691   8.078  0.1438 -0.0738  0.2727
 5650TIP3    H138585   2.216   4.723   8.040 -0.3757  1.0830  0.0770
 5650TIP3    H238586   2.075   4.684   8.003 -0.4848  0.9212  0.6507
 5651TIP3   OH238587   2.026   2.318   7.396  0.1910 -0.8938  0.2822
 5651TIP3    H138588   2.027   2.260   7.320 -1.3852 -1.8952  0.9903
 5651TIP3    H238589   2.105   2.372   7.386  0.8324 -2.0592 -1.2329
 5652TIP3   OH238590   6.166   3.717   1.931 -0.1813 -0.2080 -0.4864
 5652TIP3    H138591   6.146   3.628   1.901  1.1937 -0.4882 -0.6200
 5652TIP3    H238592   6.227   3.705   2.004 -0.8864  0.6031  0.2643
 5653TIP3   OH238593   4.326   2.320   1.810  0.1414  0.1262  0.5729
 5653TIP3    H138594   4.342   2.329   1.904 -1.1401 -0.5890  0.8843
 5653TIP3    H238595   4.383   2.249   1.782 -0.1385 -0.2750  1.0080
 5654TIP3   OH238596   5.509   5.603   1.642  0.1355  0.4437 -0.4554
 5654TIP3    H138597   5.505   5.541   1.570 -1.5866  0.2926 -0.2623
 5654TIP3    H238598   5.432   5.659   1.631 -1.4206 -0.9115  2.3895
 5655TIP3   OH238599   3.956   2.108   6.944 -0.4270 -0.4294  0.0603
 5655TIP3    H138600   3.863   2.106   6.965 -0.4824 -1.0507 -0.2179
 5655TIP3    H238601   3.960   2.151   6.858 -0.4169 -0.0247  0.2621
 5656TIP3   OH238602   2.003   4.449   7.368  0.5121  0.4594  0.1190
 5656TIP3    H138603   2.036   4.359   7.378  1.5484  0.7688 -0.4017
 5656TIP3    H238604   2.059   4.488   7.301 -0.1188  1.4120  0.1270
 5657TIP3   OH238605   6.137   6.384   7.056  0.0711  0.2744 -0.3755
 5657TIP3    H138606   6.111   6.322   6.988  0.4452 -0.2872 -0.0145
 5657TIP3    H238607   6.229   6.404   7.036 -0.1577  1.0080 -0.7110
 5658TIP3   OH238608   1.429   4.324   7.936 -0.0583  0.3660  0.0513
 5658TIP3    H138609   1.522   4.305   7.949 -0.2541 -0.1330  0.8274
 5658TIP3    H238610   1.392   4.324   8.025 -1.2281 -1.7224 -0.3562
 5659TIP3   OH238611   1.871   1.064   8.109  0.1586 -0.1888  0.1459
 5659TIP3    H138612   1.950   1.102   8.148 -0.7541  3.8323 -1.3688
 5659TIP3    H238613   1.802   1.079   8.175 -0.0516  0.0463 -0.1225
 5660TIP3   OH238614   5.061   1.725   7.203 -0.2973 -0.0226 -0.2798
 5660TIP3    H138615   5.055   1.629   7.200  0.6650 -0.1755  1.4041
 5660TIP3    H238616   5.125   1.748   7.135  0.0218 -0.6342 -0.1900
 5661TIP3   OH238617   5.428   4.764   2.285  0.1371  0.6078  0.5296
 5661TIP3    H138618   5.380   4.832   2.333 -0.1158 -0.4657  1.8748
 5661TIP3    H238619   5.438   4.693   2.349 -1.7075 -1.6277 -1.4815
 5662TIP3   OH238620   6.410   6.203   8.349 -0.4185  0.1175 -0.3869
 5662TIP3    H138621   6.417   6.219   8.255 -1.0655 -0.7837 -0.6002
 5662TIP3    H238622   6.386   6.111   8.356  2.1856 -0.5533  0.7576
 5663TIP3   OH238623   5.780   2.555   7.383  0.1104 -0.1494 -0.2941
 5663TIP3    H138624   5.831   2.573   7.462  0.8642 -0.7000 -0.6417
 5663TIP3    H238625   5.728   2.633   7.370 -0.6072 -0.3429  1.1830
 5664TIP3   OH238626   4.934   2.773   7.103  0.1445 -0.0562 -0.0849
 5664TIP3    H138627   4.915   2.811   7.189 -0.6708 -0.0053 -0.2779
 5664TIP3    H238628   5.014   2.722   7.117 -0.9682 -1.5724  1.1617
 5665TIP3   OH238629   3.311   4.232   0.006  0.0629  0.0758  0.1981
 5665TIP3    H138630   3.389   4.266   0.050  0.3243 -0.4279  0.1408
 5665TIP3    H238631   3.280   4.304  -0.048  0.2925  0.3908  0.4837
 5666TIP3   OH238632   6.611   3.081   8.121 -0.1480 -0.3989  0.3424
 5666TIP3    H138633   6.549   3.099   8.051 -0.2945 -0.2744  0.5020
 5666TIP3    H238634   6.638   3.167   8.152  1.1394 -0.4323 -0.6241
 5667TIP3   OH238635   6.235   2.593   1.673  0.2628 -0.0004 -0.1846
 5667TIP3    H138636   6.166   2.544   1.717  0.6486 -0.5753 -0.2145
 5667TIP3    H238637   6.199   2.614   1.587 -0.0874  0.1916  0.0079
 5668TIP3   OH238638   2.274   6.533   1.567 -0.1425  0.3414  0.1189
 5668TIP3    H138639   2.286   6.497   1.655  0.0301  0.3034  0.0807
 5668TIP3    H238640   2.361   6.566   1.543 -0.3418  0.9673  0.2367
 5669TIP3   OH238641   0.216   1.363   1.519 -0.4941  0.0120 -0.1605
 5669TIP3    H138642   0.288   1.376   1.581  1.5156  1.0909 -2.5389
 5669TIP3    H238643   0.206   1.448   1.477 -1.4684 -0.7948 -1.6284
 5670TIP3   OH238644   2.226   0.704   6.947  0.4713 -0.0254  0.2235
 5670TIP3    H138645   2.226   0.774   6.882 -0.0484 -0.5869 -0.3979
 5670TIP3    H238646   2.258   0.745   7.027  0.6318  0.8010 -0.2568
 5671TIP3   OH238647   0.753   4.045   8.276 -0.2891  0.3259 -0.7144
 5671TIP3    H138648   0.843   4.073   8.263 -0.4513  1.2467  0.0340
 5671TIP3    H238649   0.700   4.111   8.230 -0.6658  1.1919  0.8845
 5672TIP3   OH238650   4.618   6.500   0.698  0.3162 -0.0856  0.2146
 5672TIP3    H138651   4.689   6.522   0.758  1.9623 -1.9567 -0.9190
 5672TIP3    H238652   4.616   6.404   0.697 -1.7827 -0.0913 -0.3381
 5673TIP3   OH238653   6.864   5.211   1.376 -0.2829  0.2150 -0.2809
 5673TIP3    H138654   6.899   5.300   1.365 -2.5603  1.1654 -0.3663
 5673TIP3    H238655   6.822   5.213   1.462 -2.2360 -0.0656 -1.1875
 5674TIP3   OH238656   5.042   1.257   7.791  0.1188  0.1291  0.0532
 5674TIP3    H138657   5.134   1.271   7.816  0.2921 -1.7080  0.5286
 5674TIP3    H238658   5.043   1.265   7.695  0.3167  2.3768  0.1821
 5675TIP3   OH238659   3.861   3.816   1.755  0.1502  0.5549  0.4618
 5675TIP3    H138660   3.786   3.821   1.814 -0.8085  0.0697 -0.6777
 5675TIP3    H238661   3.850   3.889   1.695 -1.5179 -1.6022 -2.0501
 5676TIP3   OH238662   6.196   6.416   1.416 -0.1744  0.6558 -0.6980
 5676TIP3    H138663   6.223   6.348   1.355 -1.1091  0.7235 -1.2056
 5676TIP3    H238664   6.260   6.487   1.404  0.8879 -0.1677 -0.0630
 5677TIP3   OH238665   4.270   5.546   1.961 -0.0063 -0.3785  0.0487
 5677TIP3    H138666   4.196   5.489   1.939  0.5345 -0.8959 -0.4771
 5677TIP3    H238667   4.278   5.540   2.056 -2.1939  1.6396  0.4601
 5678TIP3   OH238668   5.870   5.275   0.572  0.1644 -0.5036  0.4222
 5678TIP3    H138669   5.884   5.317   0.657 -2.6100 -1.2526  1.3713
 5678TIP3    H238670   5.799   5.325   0.532 -1.4201 -2.5692  0.4440
 5679TIP3   OH238671   6.073   3.844   8.092  0.3352 -0.3129 -0.2333
 5679TIP3    H138672   6.056   3.935   8.067 -2.7089 -0.1680  1.8057
 5679TIP3    H238673   5.989   3.800   8.083  0.8808 -2.0573  2.0843
 5680TIP3   OH238674   2.398   0.979   6.528  0.2261 -0.2964 -0.2664
 5680TIP3    H138675   2.421   1.034   6.603 -1.2765  0.3262 -0.2158
 5680TIP3    H238676   2.318   1.019   6.493  0.5783 -0.9082 -1.8630
 5681TIP3   OH238677   6.802   1.182   1.227  0.7224  0.0385  0.3042
 5681TIP3    H138678   6.766   1.143   1.306  0.4532  1.0728  0.7185
 5681TIP3    H238679   6.769   1.272   1.228 -0.2189 -0.2251 -1.5733
 5682TIP3   OH238680   0.167   2.010   0.502 -0.0369  0.3529  0.5123
 5682TIP3    H138681   0.166   1.946   0.431 -2.2836 -0.1841  0.9345
 5682TIP3    H238682   0.250   2.056   0.493 -0.7210  1.1822 -3.2683
 5683TIP3   OH238683   3.003   5.725   2.190 -0.0349  0.3099  0.2518
 5683TIP3    H138684   3.005   5.639   2.146 -0.0622 -0.1991  1.2163
 5683TIP3    H238685   3.061   5.714   2.265 -0.0542  1.1399  0.3891
 5684TIP3   OH238686   2.261   3.444   6.738 -0.5086 -0.0011 -0.0284
 5684TIP3    H138687   2.167   3.451   6.720 -0.1308  0.4307 -1.9852
 5684TIP3    H238688   2.295   3.389   6.668  1.3292  3.1454 -1.8097
 5685TIP3   OH238689   6.229   0.081   7.050 -0.3642 -0.2929 -0.4102
 5685TIP3    H138690   6.185   0.072   7.135 -0.5957  0.8053 -0.4048
 5685TIP3    H238691   6.163   0.055   6.986 -0.6775  0.3243 -0.3396
 5686TIP3   OH238692   3.458   2.507   6.437  0.4531  0.5812 -0.4757
 5686TIP3    H138693   3.454   2.425   6.487  0.2130  1.7951  1.6222
 5686TIP3    H238694   3.421   2.485   6.352 -0.5539 -1.2745  0.3801
 5687TIP3   OH238695   4.280   2.793   0.141 -0.1175 -0.5252 -0.0699
 5687TIP3    H138696   4.363   2.810   0.096 -0.1560 -1.3044 -0.4531
 5687TIP3    H238697   4.225   2.868   0.117 -0.2931 -1.1466 -1.7431
 5688TIP3   OH238698   1.140   3.852   7.604  0.1653 -0.3663 -0.3405
 5688TIP3    H138699   1.070   3.827   7.665 -1.2739  0.7454 -1.4508
 5688TIP3    H238700   1.098   3.853   7.518  1.8817 -0.8753 -1.2367
 5689TIP3   OH238701   2.204   4.486   1.611  0.1319  0.3509  0.2011
 5689TIP3    H138702   2.270   4.423   1.583  0.2040 -0.3935  1.9361
 5689TIP3    H238703   2.248   4.540   1.677 -0.8558  0.0856  1.1172
 5690TIP3   OH238704   3.599   3.641   8.173  0.1837 -0.4892  0.0018
 5690TIP3    H138705   3.670   3.699   8.199 -0.7350  0.5061  0.4013
 5690TIP3    H238706   3.541   3.697   8.120  0.0727 -1.4713 -0.9590
 5691TIP3   OH238707   6.642   2.570   1.081  0.2122  0.0668  0.3294
 5691TIP3    H138708   6.607   2.648   1.037  0.3266  0.2239  0.5181
 5691TIP3    H238709   6.597   2.567   1.165  0.3171  0.0101  0.3828
 5692TIP3   OH238710   2.045   6.823   7.468  0.2864 -0.4272  0.0882
 5692TIP3    H138711   2.107   6.887   7.503  3.1470 -2.0761 -1.5130
 5692TIP3    H238712   2.053   6.833   7.373 -1.6333 -1.0396 -0.1802
 5693TIP3   OH238713   5.629   6.337   1.796  0.5785 -0.2746 -0.1182
 5693TIP3    H138714   5.584   6.253   1.805 -1.4501  0.8037  0.3960
 5693TIP3    H238715   5.643   6.346   1.701 -0.2592 -0.6764 -0.2954
 5694TIP3   OH238716   4.298   1.407   7.975 -0.0529 -0.1612 -0.2832
 5694TIP3    H138717   4.387   1.436   7.959 -0.5866  0.6935 -1.8946
 5694TIP3    H238718   4.303   1.312   7.978  0.7232 -0.1818 -1.7103
 5695TIP3   OH238719   4.366   3.573   7.985  0.1710  0.7930 -0.1391
 5695TIP3    H138720   4.339   3.540   8.071 -1.1413  0.5407 -0.6213
 5695TIP3    H238721   4.286   3.610   7.948 -0.0274 -1.6181 -2.4018
 5696TIP3   OH238722   5.485   3.230   1.245  0.5141  0.3070  0.6260
 5696TIP3    H138723   5.400   3.252   1.206  0.2117 -1.4557  0.1937
 5696TIP3    H238724   5.473   3.141   1.279  2.7040 -0.7057 -1.0231
 5697TIP3   OH238725   1.955   0.561   7.122  0.5058 -0.3168 -0.3703
 5697TIP3    H138726   1.966   0.600   7.209 -1.6795 -1.6187  0.5590
 5697TIP3    H238727   1.920   0.633   7.069  0.4211  0.0908  0.2183
 5698TIP3   OH238728   3.045   2.988   8.261  0.6105 -0.0905 -0.3053
 5698TIP3    H138729   3.124   3.035   8.233  0.3282  0.2164 -0.5913
 5698TIP3    H238730   3.061   2.897   8.236  1.4800 -0.2993  0.9183
 5699TIP3   OH238731   4.467   1.414   6.547  0.3461  0.4259  0.2915
 5699TIP3    H138732   4.404   1.343   6.556 -1.4644  1.9135 -0.1242
 5699TIP3    H238733   4.483   1.444   6.637  1.6161 -0.8417  0.5380
 5700TIP3   OH238734   1.189   4.334   7.074  0.2155 -0.0057  0.1058
 5700TIP3    H138735   1.230   4.341   7.160  0.4882 -0.1342 -0.0131
 5700TIP3    H238736   1.185   4.424   7.041 -1.4757  0.2742  0.9821
 5701TIP3   OH238737   5.345   3.777   1.736 -0.0358  0.0127  0.7569
 5701TIP3    H138738   5.355   3.784   1.831  1.5756  1.0884  0.5525
 5701TIP3    H238739   5.406   3.708   1.711  0.5098  0.6142  0.3881
 5702TIP3   OH238740   5.726   3.024   1.107  0.1194 -0.1282 -0.2747
 5702TIP3    H138741   5.693   2.974   1.182 -0.5377 -0.8628 -1.0390
 5702TIP3    H238742   5.713   3.116   1.133  1.1548 -0.3181  1.0537
 5703TIP3   OH238743   6.800   1.558   6.344  0.0811  0.1006 -0.5292
 5703TIP3    H138744   6.865   1.494   6.315 -0.4791 -0.9828  0.5048
 5703TIP3    H238745   6.731   1.552   6.277  0.2469 -0.0300 -0.6914
 5704TIP3   OH238746   2.191   5.533   1.187  0.0739 -0.0072  0.3470
 5704TIP3    H138747   2.276   5.512   1.150 -0.4067 -1.3565 -0.0634
 5704TIP3    H238748   2.191   5.628   1.197  0.5179  0.3603 -2.4063
 5705TIP3   OH238749   4.598   6.067   8.550  0.8309  0.2638 -0.2938
 5705TIP3    H138750   4.578   6.155   8.518  1.6599  0.5148 -0.1546
 5705TIP3    H238751   4.674   6.079   8.607  1.8759 -0.7327 -1.4149
 5706TIP3   OH238752   3.329   2.113   0.285  0.0925  0.0579 -0.5361
 5706TIP3    H138753   3.279   2.184   0.323  0.2835  1.1409 -2.1884
 5706TIP3    H238754   3.400   2.096   0.347 -0.4110  0.7673  0.2384
 5707TIP3   OH238755   5.248   2.366   0.353 -0.4928 -0.4544 -0.2185
 5707TIP3    H138756   5.303   2.376   0.275  1.1990 -0.1614  0.9696
 5707TIP3    H238757   5.159   2.381   0.321 -0.0305 -1.7896 -2.3798
 5708TIP3   OH238758   5.440   2.514   1.567 -0.0816 -0.0530 -0.6335
 5708TIP3    H138759   5.441   2.572   1.643  0.5607 -0.9437  0.0569
 5708TIP3    H238760   5.405   2.431   1.600  0.0829 -0.4125 -1.3354
 5709TIP3   OH238761   3.570   5.230   8.310 -0.2013  0.0934 -0.4131
 5709TIP3    H138762   3.487   5.254   8.269 -0.9274  1.2696  1.5509
 5709TIP3    H238763   3.600   5.312   8.351  1.7326 -0.4123 -0.7236
 5710TIP3   OH238764   1.421   5.817   1.237  0.3818  0.0030 -0.2131
 5710TIP3    H138765   1.504   5.789   1.197  0.4990 -0.1053  0.1022
 5710TIP3    H238766   1.376   5.735   1.259  1.2494  0.0274  1.7921
 5711TIP3   OH238767   3.659   2.548   1.338  0.0683  0.1032 -0.0325
 5711TIP3    H138768   3.703   2.615   1.284  2.4357 -0.6845  0.7821
 5711TIP3    H238769   3.611   2.598   1.403  2.4697  1.1388  1.0879
 5712TIP3   OH238770   3.780   0.492   7.906  0.0411  0.3298 -0.4347
 5712TIP3    H138771   3.776   0.565   7.968 -0.1546 -1.5083  1.8161
 5712TIP3    H238772   3.770   0.414   7.960 -0.3134 -1.3746 -2.8308
 5713TIP3   OH238773   3.694   3.341   0.687  0.7404 -0.2397  0.0690
 5713TIP3    H138774   3.631   3.288   0.736  1.2297 -0.4029  0.5294
 5713TIP3    H238775   3.664   3.337   0.597 -1.6583  2.0895  0.6309
 5714TIP3   OH238776   2.451   1.997   8.358  0.1829 -0.1759  0.1850
 5714TIP3    H138777   2.473   2.075   8.309  1.2569  0.2927  1.3486
 5714TIP3    H238778   2.437   1.929   8.292  0.0194  0.8052 -0.7984
 5715TIP3   OH238779   3.473   5.797   0.777  0.2778 -0.3744 -0.4035
 5715TIP3    H138780   3.517   5.880   0.793  0.9349 -0.9308  0.7739
 5715TIP3    H238781   3.495   5.743   0.852 -0.6496 -1.4146 -0.8504
 5716TIP3   OH238782   4.336   2.593   1.667 -0.0556  0.2116  0.2429
 5716TIP3    H138783   4.385   2.526   1.715 -0.4004  0.5959  1.1555
 5716TIP3    H238784   4.378   2.675   1.691  1.0913  0.2843 -1.7517
 5717TIP3   OH238785   5.684   1.448   8.197  0.1593  0.2338 -0.3809
 5717TIP3    H138786   5.698   1.500   8.117 -0.0673 -1.0880 -1.3139
 5717TIP3    H238787   5.762   1.394   8.204  0.6021  1.0069  0.8434
 5718TIP3   OH238788   2.324   0.600   7.876  0.1770  0.6032  0.2946
 5718TIP3    H138789   2.248   0.542   7.881  0.9003 -0.3234  1.1128
 5718TIP3    H238790   2.388   0.551   7.824 -0.0871  1.7574 -1.1594
 5719TIP3   OH238791   5.614   2.256   2.454  0.0370 -0.6867  0.1937
 5719TIP3    H138792   5.675   2.272   2.381 -0.1665 -1.0113 -0.0503
 5719TIP3    H238793   5.647   2.177   2.496  0.4779 -0.1819  0.7999
 5720TIP3   OH238794   4.437   0.125   0.443  0.2245  0.4120  0.0049
 5720TIP3    H138795   4.507   0.112   0.379 -0.6222 -2.5175 -0.4956
 5720TIP3    H238796   4.356   0.114   0.392 -0.5371  0.7733  1.0982
 5721TIP3   OH238797   6.496   0.204   0.111 -0.7788 -0.2743  0.0974
 5721TIP3    H138798   6.467   0.239   0.195  1.6907  2.1354  0.0586
 5721TIP3    H238799   6.430   0.234   0.048 -1.4711 -0.2155  0.8358
 5722TIP3   OH238800   4.913   6.327   8.594  0.2371  0.2721  0.0561
 5722TIP3    H138801   4.894   6.241   8.556 -1.1047 -0.0827  1.4334
 5722TIP3    H238802   5.004   6.345   8.569  0.0702 -0.8663 -1.4858
 5723TIP3   OH238803   3.731   2.480   0.590 -0.1253 -0.1471 -0.2229
 5723TIP3    H138804   3.697   2.511   0.674 -0.3993  1.0919 -0.7540
 5723TIP3    H238805   3.805   2.424   0.612 -0.2847  0.0470  0.8463
 5724TIP3   OH238806   4.554   0.154   7.788  0.0769 -0.1841 -0.2735
 5724TIP3    H138807   4.459   0.149   7.777  0.0538 -0.6918  0.1190
 5724TIP3    H238808   4.582   0.063   7.800  0.6745 -0.0915 -0.8600
 5725TIP3   OH238809   5.729   5.147   7.563  0.0340  0.1047 -0.6864
 5725TIP3    H138810   5.784   5.142   7.484 -0.2247 -1.1607 -0.8003
 5725TIP3    H238811   5.784   5.111   7.632 -0.4173 -0.5756 -0.6747
 5726TIP3   OH238812   0.845   6.646   1.298  0.1694  0.1404  0.2306
 5726TIP3    H138813   0.909   6.716   1.289  0.5560  0.0348  1.8415
 5726TIP3    H238814   0.784   6.677   1.365 -1.9774  0.5729 -1.8072
 5727TIP3   OH238815   1.693   3.064   8.588  0.2639  0.2535 -0.2613
 5727TIP3    H138816   1.661   3.120   8.659  0.7700  0.2951 -0.0566
 5727TIP3    H238817   1.651   3.097   8.509 -0.6146 -0.0459  0.0757
 5728TIP3   OH238818   0.158   0.655   7.654  0.4375  0.4936 -0.6422
 5728TIP3    H138819   0.147   0.748   7.639  0.0106  0.5817  0.1422
 5728TIP3    H238820   0.222   0.649   7.725 -0.0227  0.2225 -0.2420
 5729TIP3   OH238821   4.622   1.284   7.003 -0.3968  1.0591 -0.4947
 5729TIP3    H138822   4.623   1.203   6.953 -2.0381  0.7214 -0.0544
 5729TIP3    H238823   4.712   1.295   7.035 -0.2381 -0.8038 -0.2109
 5730TIP3   OH238824   1.615   3.384   7.652  0.2167  0.0064 -0.3978
 5730TIP3    H138825   1.559   3.453   7.618  2.1973  1.7812 -0.2804
 5730TIP3    H238826   1.702   3.405   7.617  0.8171 -2.7745 -0.8183
 5731TIP3   OH238827   5.291   1.278   7.939 -0.0291  0.1228 -0.1787
 5731TIP3    H138828   5.280   1.368   7.968  1.3919  0.7699 -1.5475
 5731TIP3    H238829   5.378   1.275   7.899 -0.7947 -1.3591 -1.9056
 5732TIP3   OH238830   3.469   6.200   1.004  0.5003 -0.2494  0.3014
 5732TIP3    H138831   3.467   6.147   1.084  0.4104 -0.6764  0.0177
 5732TIP3    H238832   3.520   6.149   0.942  1.1550  0.3949  0.2952
 5733TIP3   OH238833   1.804   5.867   0.509  0.4920 -0.1082  0.3798
 5733TIP3    H138834   1.813   5.925   0.584  2.4240 -2.0807  1.8216
 5733TIP3    H238835   1.842   5.784   0.539 -4.5256 -3.1095 -0.5122
 5734TIP3   OH238836   6.185   4.031   7.830  0.6800 -0.6133 -0.2217
 5734TIP3    H138837   6.090   4.045   7.831  0.8901  0.9351  0.4225
 5734TIP3    H238838   6.217   4.075   7.908  2.0859  0.0477 -1.1248
 5735TIP3   OH238839   1.474   6.046   7.760 -0.3518  0.2014  0.9182
 5735TIP3    H138840   1.423   6.122   7.731 -0.3096  0.5054  1.6275
 5735TIP3    H238841   1.558   6.082   7.785 -0.8175  0.1446  2.6510
 5736TIP3   OH238842   5.385   2.406   0.926 -0.2096  0.4255  0.0606
 5736TIP3    H138843   5.448   2.366   0.986 -0.7993  4.0348  3.4806
 5736TIP3    H238844   5.433   2.414   0.844  2.8861  0.5916  1.7323
 5737TIP3   OH238845   2.922   6.017   6.287  0.4008  0.0424  0.0446
 5737TIP3    H138846   2.935   6.110   6.303  2.8693  0.2912 -2.6107
 5737TIP3    H238847   2.903   6.011   6.193 -0.1414 -2.1299  0.2381
 5738TIP3   OH238848   6.791   1.171   0.586 -0.5078 -0.9466 -0.4286
 5738TIP3    H138849   6.848   1.114   0.637  0.6946  0.7734  0.2201
 5738TIP3    H238850   6.774   1.246   0.643 -2.0350 -0.6211 -1.2599
 5739TIP3   OH238851   3.224   3.227   7.179  0.0140  0.3512  0.0990
 5739TIP3    H138852   3.149   3.239   7.120  0.5843  0.9071 -0.5226
 5739TIP3    H238853   3.215   3.297   7.243  1.7944  2.5562 -1.9032
 5740TIP3   OH238854   5.945   4.046   0.522  0.0484  0.3184  0.4072
 5740TIP3    H138855   6.006   3.978   0.494 -0.0419  0.4369 -0.1021
 5740TIP3    H238856   5.902   4.010   0.599  0.0758 -0.1645  0.2016
 5741TIP3   OH238857   6.732   3.535   2.184 -0.4168 -0.7454 -0.0700
 5741TIP3    H138858   6.648   3.498   2.157 -0.0709 -0.8269 -1.0452
 5741TIP3    H238859   6.782   3.460   2.216 -1.0895 -0.5504  1.5857
 5742TIP3   OH238860   3.754   3.010   0.407 -0.0908 -0.0558 -0.7635
 5742TIP3    H138861   3.793   2.990   0.492 -0.2084  0.0802 -0.6772
 5742TIP3    H238862   3.827   3.042   0.355 -0.5211  2.9149  0.2522
 5743TIP3   OH238863   3.646   2.986   6.628 -0.0447  0.3297 -0.3074
 5743TIP3    H138864   3.694   2.970   6.546  0.1185  0.1000 -0.1685
 5743TIP3    H238865   3.572   2.926   6.623  0.2061 -0.0024 -0.0878
 5744TIP3   OH238866   0.162   6.692   0.979 -0.0525 -0.1128 -0.6309
 5744TIP3    H138867   0.160   6.731   0.891  0.1587  1.9724  0.2203
 5744TIP3    H238868   0.254   6.671   0.994 -0.0089  0.0233 -0.7102
 5745TIP3   OH238869   3.716   5.648   2.552  0.1693  0.0911 -0.4956
 5745TIP3    H138870   3.685   5.568   2.594 -0.3044 -0.1266 -1.2306
 5745TIP3    H238871   3.807   5.657   2.580 -0.4397  0.6002  1.5203
 5746TIP3   OH238872   6.178   2.768   0.434 -0.1363  0.2832 -0.3540
 5746TIP3    H138873   6.271   2.771   0.411 -0.0779 -0.9184 -0.3547
 5746TIP3    H238874   6.176   2.766   0.530 -0.2599  2.1389 -0.2758
 5747TIP3   OH238875   5.599   1.962   0.651  0.0072  0.2286  0.0128
 5747TIP3    H138876   5.622   2.004   0.568 -0.2123  2.0164  0.8084
 5747TIP3    H238877   5.516   2.002   0.676 -0.2418 -0.7397  0.8031
 5748TIP3   OH238878   0.713   2.761   6.098 -0.0677  0.2139  0.3388
 5748TIP3    H138879   0.773   2.808   6.040 -0.1855  1.6224  1.3054
 5748TIP3    H238880   0.770   2.723   6.165  0.0616 -1.3576 -0.6060
 5749TIP3   OH238881   5.528   6.402   1.186 -0.4657  0.1254 -0.5474
 5749TIP3    H138882   5.554   6.316   1.219 -0.2048  0.3726 -0.0914
 5749TIP3    H238883   5.435   6.393   1.166 -0.8783  0.2209  1.1671
 5750TIP3   OH238884   0.788   3.787   0.658  0.0605  0.4442 -0.3514
 5750TIP3    H138885   0.869   3.831   0.682 -0.3060  0.4131  1.0743
 5750TIP3    H238886   0.803   3.695   0.681  0.0691  0.2049 -1.2934
 5751TIP3   OH238887   5.009   3.211   0.019  0.0830 -0.3531 -0.5823
 5751TIP3    H138888   4.974   3.142   0.075  2.2255 -0.5373  0.5999
 5751TIP3    H238889   4.996   3.292   0.069  3.0461 -0.6398  0.8518
 5752TIP3   OH238890   5.418   5.612   0.452  0.0956  0.1802  0.3816
 5752TIP3    H138891   5.342   5.603   0.510  0.8978  0.1224  1.4559
 5752TIP3    H238892   5.425   5.706   0.437  0.0677  0.2237  0.6367
 5753TIP3   OH238893   6.814   1.078   8.491 -0.2920 -0.0256 -0.5132
 5753TIP3    H138894   6.882   1.022   8.454  0.5263  0.7506 -0.2066
 5753TIP3    H238895   6.860   1.157   8.519 -1.1591  0.1047  0.6159
 5754TIP3   OH238896   6.711   0.890   0.910 -0.2772 -0.4026  0.5337
 5754TIP3    H138897   6.700   0.978   0.947 -0.8742 -0.1976 -0.1098
 5754TIP3    H238898   6.622   0.864   0.886  0.2610  0.3828 -2.8395
 5755TIP3   OH238899   6.906   2.827   2.063 -0.0801  0.4883 -0.5945
 5755TIP3    H138900   6.902   2.736   2.092  2.8883  0.5700  0.4333
 5755TIP3    H238901   6.938   2.875   2.140  0.2968  2.0669 -1.6899
 5756TIP3   OH238902   4.887   3.871   7.732 -0.0906  0.1403 -0.4157
 5756TIP3    H138903   4.871   3.873   7.638 -2.5547 -1.2360 -0.0965
 5756TIP3    H238904   4.848   3.952   7.765 -0.6648 -0.1396 -0.4011
 5757TIP3   OH238905   3.508   2.340   1.450 -0.1445  0.6707 -0.0393
 5757TIP3    H138906   3.568   2.403   1.409  0.6310  0.1299  0.2548
 5757TIP3    H238907   3.560   2.262   1.464 -0.5372  0.6584  1.5209
 5758TIP3   OH238908   6.505   2.938   8.492  0.2477 -0.2131  0.0451
 5758TIP3    H138909   6.449   2.955   8.568 -1.1821 -1.2036 -0.7314
 5758TIP3    H238910   6.497   3.017   8.438 -1.0504 -0.6381 -0.4188
 5759TIP3   OH238911   5.878   5.680   6.335 -0.0224 -0.5483  0.7073
 5759TIP3    H138912   5.865   5.614   6.403  1.0943 -1.3911  0.1531
 5759TIP3    H238913   5.860   5.633   6.253 -1.8937  0.5965  0.4073
 5760TIP3   OH238914   0.489   3.953   6.664 -0.1164 -0.0507 -0.2358
 5760TIP3    H138915   0.444   3.981   6.584 -0.4135 -0.8607 -0.3569
 5760TIP3    H238916   0.548   3.883   6.636  0.3669  0.2025  0.1237
 5761TIP3   OH238917   1.600   1.225   0.219 -0.1355  0.3753  0.2202
 5761TIP3    H138918   1.623   1.317   0.231  1.4724 -0.1516  1.4695
 5761TIP3    H238919   1.567   1.197   0.305  1.3260 -0.7052  0.4753
 5762TIP3   OH238920   6.593   5.010   6.895 -0.0728 -0.1820 -0.2393
 5762TIP3    H138921   6.537   5.084   6.920 -0.3911 -0.5256  0.0744
 5762TIP3    H238922   6.639   4.987   6.975 -3.4259 -3.3510  1.0509
 5763TIP3   OH238923   3.262   0.920   6.838 -0.6222 -0.3483  0.1796
 5763TIP3    H138924   3.185   0.975   6.849 -1.2652 -0.9113 -1.2275
 5763TIP3    H238925   3.336   0.975   6.865 -1.5157  0.1759  1.5971
 5764TIP3   OH238926   0.259   5.830   1.267  0.3827  0.5810 -0.1149
 5764TIP3    H138927   0.264   5.772   1.343  2.3572  1.6867  0.6726
 5764TIP3    H238928   0.257   5.771   1.192  1.7100 -0.5301  0.6834
 5765TIP3   OH238929   6.553   0.555   6.982  0.3118 -0.6828  0.1884
 5765TIP3    H138930   6.579   0.464   6.994 -0.3992 -0.8997  0.1541
 5765TIP3    H238931   6.480   0.551   6.920  0.4707 -0.0610 -0.0421
 5766TIP3   OH238932   1.356   5.734   7.521 -0.1944  0.3400 -0.2959
 5766TIP3    H138933   1.451   5.729   7.528 -0.0676 -0.9000 -2.1878
 5766TIP3    H238934   1.324   5.699   7.605  0.9668  1.7489  0.7803
 5767TIP3   OH238935   1.357   6.261   0.258 -0.4271 -0.2025 -0.1057
 5767TIP3    H138936   1.312   6.179   0.280  0.1142 -0.9825 -1.7097
 5767TIP3    H238937   1.353   6.264   0.162  1.5796  0.4943 -0.1941
 5768TIP3   OH238938   0.125   1.428   1.934 -0.7073  0.2303  0.1221
 5768TIP3    H138939   0.054   1.381   1.889 -2.7489  0.2095  3.0841
 5768TIP3    H238940   0.198   1.367   1.933 -1.7434 -1.0514 -0.2973
 5769TIP3   OH238941   5.857   0.126   7.971  0.8349 -0.6249 -0.2164
 5769TIP3    H138942   5.862   0.069   8.048  0.8184 -0.0939  0.1821
 5769TIP3    H238943   5.913   0.201   7.993 -0.9556  0.6382  0.2298
 5770TIP3   OH238944   0.447   3.386   6.685  1.1134 -0.3633 -0.1874
 5770TIP3    H138945   0.429   3.351   6.772  1.6437 -1.8990 -0.6575
 5770TIP3    H238946   0.376   3.352   6.630 -0.5210  2.4374  0.0135
 5771TIP3   OH238947   0.946   4.359   6.750  0.4363  0.4775  0.4893
 5771TIP3    H138948   0.888   4.295   6.710 -0.5273  1.1557  0.7628
 5771TIP3    H238949   1.006   4.384   6.680  1.5063 -1.4551  0.6470
 5772TIP3   OH238950   0.121   1.433   6.204 -0.0953 -0.8139  0.5747
 5772TIP3    H138951   0.135   1.412   6.296 -1.3928 -3.0556  0.3399
 5772TIP3    H238952   0.152   1.356   6.157 -1.5298 -0.6700 -0.6826
 5773TIP3   OH238953   4.681   4.452   8.498 -0.0586 -0.2247 -0.3734
 5773TIP3    H138954   4.720   4.496   8.422  1.1118 -0.7186 -0.0700
 5773TIP3    H238955   4.752   4.448   8.563 -0.0120 -2.8186 -0.4969
 5774TIP3   OH238956   1.922   0.605   8.193  0.5665 -0.3780  0.3948
 5774TIP3    H138957   1.936   0.524   8.144 -0.7462 -1.5427  1.8308
 5774TIP3    H238958   1.827   0.611   8.202  0.7451 -0.3540  2.9514
 5775TIP3   OH238959   4.543   2.974   1.203 -0.1256 -0.2843  0.5253
 5775TIP3    H138960   4.587   3.001   1.283 -1.2449  2.2151  0.4023
 5775TIP3    H238961   4.451   2.965   1.228 -0.0578 -2.5746  0.1569
 5776TIP3   OH238962   0.370   3.099   8.591  0.1524  0.1294 -0.1461
 5776TIP3    H138963   0.417   3.182   8.590 -0.4500  0.5098  0.7488
 5776TIP3    H238964   0.429   3.038   8.636  0.5733  0.0880 -0.7555
 5777TIP3   OH238965   3.689   6.286   0.383  0.0109  0.0283 -0.0472
 5777TIP3    H138966   3.670   6.347   0.454  1.1193  0.6552 -0.2506
 5777TIP3    H238967   3.604   6.262   0.348 -0.4976  0.5848  0.7667
 5778TIP3   OH238968   1.729   4.963   0.629 -0.4878 -0.0757 -0.0613
 5778TIP3    H138969   1.704   4.988   0.540 -0.5342  2.7929  0.6429
 5778TIP3    H238970   1.795   5.028   0.654  0.7949 -1.8327  1.4444
 5779TIP3   OH238971   0.013   6.402   0.225 -0.8466  0.1612  0.3314
 5779TIP3    H138972   0.011   6.307   0.239 -2.6660  0.3124  1.4525
 5779TIP3    H238973  -0.031   6.439   0.302  0.4218  1.9857  0.2500
 5780TIP3   OH238974   6.675   0.771   7.045 -0.1453  0.1526  0.5086
 5780TIP3    H138975   6.637   0.688   7.017 -0.6627  0.4010  0.4580
 5780TIP3    H238976   6.756   0.779   6.994  1.2194 -1.4759  2.2676
 5781TIP3   OH238977   6.326   6.110   1.005  1.1062  0.2325  0.4978
 5781TIP3    H138978   6.342   6.192   0.959  0.0340 -0.7488 -1.7976
 5781TIP3    H238979   6.376   6.045   0.957  2.4245 -0.4341  2.6446
 5782TIP3   OH238980   4.376   2.338   6.355 -0.0398  0.3694  0.1256
 5782TIP3    H138981   4.429   2.396   6.411 -1.3595  1.3294  0.4441
 5782TIP3    H238982   4.309   2.304   6.414  0.4650 -1.2054 -0.1656
 5783TIP3   OH238983   0.645   1.594   0.010 -0.3292 -0.3051  0.3099
 5783TIP3    H138984   0.569   1.620   0.063 -0.1367 -0.6143  0.7488
 5783TIP3    H238985   0.659   1.502   0.033  0.8699  0.0503  1.0880
 5784TIP3   OH238986   5.138   5.183   1.173 -0.4972  0.7847  0.2131
 5784TIP3    H138987   5.233   5.167   1.179 -0.6675 -0.5795 -0.2005
 5784TIP3    H238988   5.119   5.243   1.244  0.5803  0.5519  0.7249
 5785TIP3   OH238989   3.144   0.506   6.542  0.1708  0.2729 -1.0113
 5785TIP3    H138990   3.239   0.492   6.541  0.2560  0.4930  0.7394
 5785TIP3    H238991   3.108   0.423   6.513  0.8591 -1.1312  1.7972
 5786TIP3   OH238992   2.188   2.233   8.188  0.0860 -0.1095 -0.2244
 5786TIP3    H138993   2.178   2.231   8.283  1.3873  1.1389 -0.0250
 5786TIP3    H238994   2.145   2.314   8.161  2.6255  1.3184 -0.2471
 5787TIP3   OH238995   5.349   5.063   8.508  0.2439  0.1672  0.2423
 5787TIP3    H138996   5.412   5.114   8.558  1.0157 -1.1276  0.6350
 5787TIP3    H238997   5.382   5.065   8.418  1.0117 -0.7173  0.4913
 5788TIP3   OH238998   2.352   6.725   7.337  0.2456  0.8173  0.1046
 5788TIP3    H138999   2.305   6.807   7.326 -0.5281  0.1594 -2.0957
 5788TIP3    H239000   2.343   6.681   7.253 -1.0541 -2.4134  1.7437
 5789TIP3   OH239001   3.394   5.339   6.853  0.0862 -0.4039  0.9895
 5789TIP3    H139002   3.480   5.331   6.895  0.5850 -1.7431 -0.2121
 5789TIP3    H239003   3.366   5.249   6.841 -0.6845 -0.0092 -0.2523
 5790TIP3   OH239004   3.197   0.656   7.566  0.3979 -0.3800  0.5263
 5790TIP3    H139005   3.126   0.595   7.543 -0.2525  0.2062  0.9229
 5790TIP3    H239006   3.277   0.611   7.540  0.0114 -1.8440  1.6824
 5791TIP3   OH239007   3.977   3.447   2.533  0.0294 -0.1666 -0.3113
 5791TIP3    H139008   4.011   3.521   2.483 -0.4758  0.4469  0.2309
 5791TIP3    H239009   3.930   3.394   2.469 -0.9111  0.7898 -0.4538
 5792TIP3   OH239010   6.394   0.215   1.109  0.3205  0.1706 -0.5111
 5792TIP3    H139011   6.448   0.256   1.041  0.1200 -1.4091 -1.6572
 5792TIP3    H239012   6.306   0.250   1.094  0.6052  1.2252  0.1243
 5793TIP3   OH239013   4.265   6.442   7.179 -0.2601 -0.1025 -0.1860
 5793TIP3    H139014   4.311   6.479   7.104 -1.5118  0.5698 -0.6396
 5793TIP3    H239015   4.235   6.518   7.229 -0.9108 -0.5288  0.0863
 5794TIP3   OH239016   3.976   3.644   7.430  0.0319  0.3316  0.1133
 5794TIP3    H139017   3.950   3.580   7.496 -0.7816  1.3510  0.8170
 5794TIP3    H239018   4.054   3.606   7.389 -1.0038 -1.5599 -0.2110
 5795TIP3   OH239019   5.611   0.215   7.413 -0.0670  0.0886 -0.2746
 5795TIP3    H139020   5.524   0.177   7.414  0.8577 -2.3608 -2.3456
 5795TIP3    H239021   5.645   0.199   7.501 -0.6773 -1.6846 -0.3153
 5796TIP3   OH239022   4.526   2.405   2.337  0.2877  0.1629 -0.0839
 5796TIP3    H139023   4.585   2.334   2.362  2.1504  1.0840 -1.5543
 5796TIP3    H239024   4.574   2.485   2.359 -1.0986  0.9700  0.1005
 5797TIP3   OH239025   3.855   0.133   7.892 -0.0686  0.1244  0.0843
 5797TIP3    H139026   3.782   0.077   7.867 -1.4565  1.5594  0.6850
 5797TIP3    H239027   3.817   0.193   7.957  1.2698  1.8428 -0.6347
 5798TIP3   OH239028   0.451   6.264   7.178 -0.4629 -0.2400 -0.1943
 5798TIP3    H139029   0.402   6.230   7.253  0.2299 -0.1993  0.2803
 5798TIP3    H239030   0.423   6.209   7.105 -3.9075  1.9132 -0.7500
 5799TIP3   OH239031   6.309   3.611   7.392  0.1209  0.6138  0.2901
 5799TIP3    H139032   6.376   3.661   7.345 -1.2356  0.4989 -1.9288
 5799TIP3    H239033   6.226   3.644   7.358 -0.8674 -1.6815  0.2739
 5800TIP3   OH239034   3.331   6.134   2.311 -0.2413 -0.0574 -0.2978
 5800TIP3    H139035   3.361   6.045   2.292 -0.7348 -0.1024 -0.8946
 5800TIP3    H239036   3.236   6.129   2.308 -0.2705  0.5397 -0.5597
 5801TIP3   OH239037   6.702   4.493   0.881  0.0953 -0.5368  0.2837
 5801TIP3    H139038   6.677   4.438   0.956 -0.3394  0.0652  0.5851
 5801TIP3    H239039   6.743   4.570   0.920  0.1404 -0.3586 -0.1144
 5802TIP3   OH239040   3.971   1.774   0.199 -0.0513 -0.1699  0.4650
 5802TIP3    H139041   4.030   1.702   0.220 -0.0141  0.0890  1.3133
 5802TIP3    H239042   3.984   1.790   0.106  1.8794  0.4476  0.8006
 5803TIP3   OH239043   5.587   2.204   1.031  0.0960 -0.2070 -0.0468
 5803TIP3    H139044   5.634   2.177   0.953 -0.6575 -2.8229  0.3234
 5803TIP3    H239045   5.628   2.287   1.056  2.5847 -0.9714 -1.3051
 5804TIP3   OH239046   4.034   3.961   1.030  0.0921  0.0652  0.6458
 5804TIP3    H139047   3.953   3.915   1.053 -0.1547 -0.3841 -0.9401
 5804TIP3    H239048   4.027   4.046   1.074  0.1352 -1.0279  2.8871
 5805TIP3   OH239049   1.663   6.182   8.132  0.4822  0.1228  0.1309
 5805TIP3    H139050   1.710   6.099   8.134 -1.8926 -1.3016  0.9820
 5805TIP3    H239051   1.728   6.247   8.156  1.7259 -1.8765  2.6317
 5806TIP3   OH239052   6.280   6.520   2.386  0.1023 -0.0945 -0.2814
 5806TIP3    H139053   6.272   6.443   2.441  0.7230  0.0703  0.0528
 5806TIP3    H239054   6.211   6.511   2.321  0.6658 -1.3406 -0.7330
 5807TIP3   OH239055   6.314   4.837   0.187  0.1393  0.3102 -0.3384
 5807TIP3    H139056   6.329   4.742   0.180 -0.0666  0.3029 -0.7033
 5807TIP3    H239057   6.244   4.855   0.124  0.4176  0.7634 -0.5228
 5808TIP3   OH239058   3.933   5.488   8.276  0.4965 -0.0116  0.0439
 5808TIP3    H139059   4.027   5.473   8.289  0.8052  1.6061 -0.0839
 5808TIP3    H239060   3.915   5.452   8.189  0.5580 -2.0283  0.8129
 5809TIP3   OH239061   4.365   1.440   0.365 -0.5705  0.0357 -0.1626
 5809TIP3    H139062   4.388   1.507   0.300 -1.8462 -1.4432 -2.2660
 5809TIP3    H239063   4.363   1.487   0.448  1.4250  1.9686 -1.0958
 5810TIP3   OH239064   3.069   4.009   7.409  0.2444 -0.4631  0.0322
 5810TIP3    H139065   3.157   4.044   7.417 -0.2195  0.5707  0.9365
 5810TIP3    H239066   3.073   3.922   7.449  1.2723 -1.2171 -1.6576
 5811TIP3   OH239067   3.556   2.815   2.454 -0.7432 -0.1968 -0.9729
 5811TIP3    H139068   3.485   2.762   2.418 -0.9942 -0.4701 -0.1068
 5811TIP3    H239069   3.541   2.902   2.418 -1.5495 -0.2409 -0.7670
 5812TIP3   OH239070   3.111   1.106   0.285  0.1288 -0.6002 -0.5755
 5812TIP3    H139071   3.108   1.030   0.343 -1.6621 -1.0109 -1.1387
 5812TIP3    H239072   3.160   1.076   0.208  2.2604 -0.1413  0.5313
 5813TIP3   OH239073   5.517   3.270   8.630  0.4292  0.3321  0.0338
 5813TIP3    H139074   5.440   3.326   8.624  0.9695  0.9487 -1.6043
 5813TIP3    H239075   5.519   3.243   8.722 -0.1029  2.6459  0.7999
 5814TIP3   OH239076   0.178   0.980   8.261  0.3780  0.0464  0.3559
 5814TIP3    H139077   0.219   0.895   8.243  1.5189  0.6366  0.0369
 5814TIP3    H239078   0.187   0.992   8.356  1.3296  0.3414  0.2390
 5815TIP3   OH239079   6.513   6.220   6.425  0.4665  0.4833 -0.9015
 5815TIP3    H139080   6.441   6.273   6.461  0.5401  1.0844 -1.6237
 5815TIP3    H239081   6.470   6.150   6.377  0.3615 -0.5007  0.5570
 5816TIP3   OH239082   2.717   5.807   0.987 -0.1723  0.3734  0.3114
 5816TIP3    H139083   2.713   5.886   1.040 -1.7844  0.0887  0.6676
 5816TIP3    H239084   2.724   5.839   0.897  1.8899  0.8603  0.5790
 5817TIP3   OH239085   3.735   4.600   6.625  0.5253 -0.4809  0.1045
 5817TIP3    H139086   3.698   4.585   6.538 -1.8410  1.8776  0.5901
 5817TIP3    H239087   3.661   4.589   6.685  1.7671 -0.5782  1.6858
 5818TIP3   OH239088   6.440   2.579   0.391 -0.3765 -0.5049  0.3282
 5818TIP3    H139089   6.450   2.654   0.333 -0.8792 -0.2362  0.5848
 5818TIP3    H239090   6.525   2.536   0.388 -0.9547 -1.6716 -2.1839
 5819TIP3   OH239091   1.380   6.354   8.622 -0.3713  0.0066 -0.1385
 5819TIP3    H139092   1.359   6.426   8.681  1.8008  0.3988  0.2319
 5819TIP3    H239093   1.409   6.395   8.542  0.1905 -0.4642 -0.1823
 5820TIP3   OH239094   4.038   0.586   1.420  0.6495 -0.1806 -0.2539
 5820TIP3    H139095   4.056   0.644   1.346 -0.6845  1.6262  0.7350
 5820TIP3    H239096   4.096   0.617   1.489 -0.3323  0.2474  0.3980
 5821TIP3   OH239097   2.335   1.894   0.399  0.0853  0.2962  0.1374
 5821TIP3    H139098   2.296   1.949   0.331 -1.4867  0.7306  1.3328
 5821TIP3    H239099   2.321   1.943   0.480  2.9519  0.3518  0.7134
 5822TIP3   OH239100   1.704   2.802   6.773 -0.0483 -0.4988  0.1550
 5822TIP3    H139101   1.790   2.841   6.758 -0.4831  0.6798  0.6542
 5822TIP3    H239102   1.698   2.732   6.708  0.2995  0.9764 -1.5286
 5823TIP3   OH239103   4.708   2.592   0.097  0.6783 -0.1563 -1.0735
 5823TIP3    H139104   4.795   2.558   0.077  0.1131 -1.8098 -0.8437
 5823TIP3    H239105   4.648   2.541   0.042 -0.5242 -2.0649  1.7415
 5824TIP3   OH239106   1.955   1.835   0.215  0.0314 -0.3050 -0.5076
 5824TIP3    H139107   1.874   1.828   0.265  0.0163  1.0570 -0.3073
 5824TIP3    H239108   2.000   1.911   0.252 -0.0709  0.9018 -2.6913
 5825TIP3   OH239109   5.915   0.500   1.471 -1.2799  0.4199  0.0834
 5825TIP3    H139110   5.880   0.524   1.386 -0.0836  2.1371  0.0307
 5825TIP3    H239111   6.007   0.478   1.453 -1.5333 -1.2297  0.6391
 5826TIP3   OH239112   4.397   0.047   6.562  0.5093  0.3497 -0.0240
 5826TIP3    H139113   4.387   0.113   6.632 -0.1006  0.6337 -0.3723
 5826TIP3    H239114   4.458   0.088   6.500  1.4629 -0.1157  0.5863
 5827TIP3   OH239115   6.098   5.127   1.106 -0.1702  0.3761  0.2021
 5827TIP3    H139116   6.117   5.181   1.030  1.3071  1.0753  1.0368
 5827TIP3    H239117   6.183   5.093   1.134 -0.9741 -1.9203  0.0745
 5828TIP3   OH239118   5.543   6.308   8.450  0.2529 -0.5153  0.0122
 5828TIP3    H139119   5.630   6.349   8.451  0.3204 -0.6441  1.2791
 5828TIP3    H239120   5.504   6.337   8.367  0.2320  2.2557  0.8722
 5829TIP3   OH239121   4.331   4.299   1.141  0.0374  0.0931  0.4065
 5829TIP3    H139122   4.377   4.282   1.059 -0.3624  0.7693  0.0311
 5829TIP3    H239123   4.400   4.321   1.203  0.1945  1.9600 -0.3740
 5830TIP3   OH239124   3.909   4.785   1.738  0.4415  0.6240  0.1765
 5830TIP3    H139125   3.915   4.830   1.823  0.1479 -1.1240  1.1561
 5830TIP3    H239126   3.820   4.803   1.708  0.6530  1.5292  0.0454
 5831TIP3   OH239127   0.933   1.461   8.121  0.1432  0.2729  0.1306
 5831TIP3    H139128   0.852   1.421   8.152 -0.2342  0.8975 -0.0314
 5831TIP3    H239129   0.908   1.551   8.097  1.4329  1.4644  2.8221
 5832TIP3   OH239130   2.248   2.661   0.640 -0.2997  0.4638 -0.5462
 5832TIP3    H139131   2.322   2.626   0.689 -0.6059  1.1627  0.4540
 5832TIP3    H239132   2.277   2.749   0.614 -0.4953  0.4539 -0.7934
 5833TIP3   OH239133   6.523   6.797   6.381  0.0978 -0.0296  0.0679
 5833TIP3    H139134   6.538   6.820   6.473  2.3017 -2.6181  0.5122
 5833TIP3    H239135   6.605   6.754   6.354 -1.1802 -1.0461 -2.5378
 5834TIP3   OH239136   6.893   5.701   7.091  0.2803 -0.1292  0.0508
 5834TIP3    H139137   6.910   5.774   7.032 -0.5967 -0.8189 -1.1016
 5834TIP3    H239138   6.802   5.677   7.073  0.3067 -0.9888  0.9880
 5835TIP3   OH239139   2.516   6.061   1.378 -0.0559 -0.1133 -0.7364
 5835TIP3    H139140   2.562   6.081   1.459 -1.7816 -0.8513  0.4936
 5835TIP3    H239141   2.428   6.095   1.391 -1.0273 -2.1763 -1.3789
 5836TIP3   OH239142   0.793   4.918   0.355  0.3511 -0.0543  0.2480
 5836TIP3    H139143   0.706   4.890   0.325  0.4205  0.3160 -0.3091
 5836TIP3    H239144   0.800   5.009   0.327  0.5689  0.1964  1.0777
 5837TIP3   OH239145   5.277   3.877   0.459  0.7490 -0.1832  0.2454
 5837TIP3    H139146   5.246   3.925   0.536 -1.1004 -0.9133  0.0231
 5837TIP3    H239147   5.327   3.941   0.409  0.6329  0.7456  1.2791
 5838TIP3   OH239148   2.349   1.521   6.740  0.0380 -0.2968 -0.0525
 5838TIP3    H139149   2.296   1.463   6.795  0.7249  0.3696  1.3853
 5838TIP3    H239150   2.325   1.610   6.769  2.0061  0.0175  0.7747
 5839TIP3   OH239151   1.562   6.465   8.065  0.0888 -0.1950  0.4347
 5839TIP3    H139152   1.530   6.375   8.066 -0.1411 -0.1201  0.0099
 5839TIP3    H239153   1.503   6.511   8.005 -0.7320  0.5755  1.7781
 5840TIP3   OH239154   1.526   4.741   0.691  0.0884 -0.4902  0.5922
 5840TIP3    H139155   1.579   4.730   0.612  1.3026 -3.1502  1.6479
 5840TIP3    H239156   1.491   4.830   0.685  1.6998  0.0595 -1.9586
 5841TIP3   OH239157   3.769   4.713   0.053  0.2977 -0.1397 -0.7667
 5841TIP3    H139158   3.788   4.776  -0.017  0.8409  1.4285  0.7245
 5841TIP3    H239159   3.698   4.754   0.102 -0.7740 -1.7024 -0.9520
 5842TIP3   OH239160   4.189   0.012   6.933 -0.4102  0.4904  0.2825
 5842TIP3    H139161   4.251  -0.061   6.926 -0.0185  0.7590  0.9162
 5842TIP3    H239162   4.196   0.041   7.023 -1.8803  0.1632  0.5210
 5843TIP3   OH239163   2.876   2.882   7.190 -0.2413  0.2037  0.0403
 5843TIP3    H139164   2.867   2.978   7.192  0.1727  0.2829 -1.1386
 5843TIP3    H239165   2.929   2.862   7.267 -0.5257  0.8978  0.4315
 5844TIP3   OH239166   6.648   4.286   0.707  0.2483  0.1527 -1.1279
 5844TIP3    H139167   6.588   4.296   0.633  0.7921  1.2352 -1.4500
 5844TIP3    H239168   6.652   4.373   0.747  0.4224 -0.2758 -0.1737
 5845TIP3   OH239169   3.182   5.324   7.507 -0.3613 -0.1813 -0.1510
 5845TIP3    H139170   3.231   5.243   7.490 -1.8676 -1.2171  0.2348
 5845TIP3    H239171   3.249   5.387   7.532  0.8790 -1.2663 -0.5913
 5846TIP3   OH239172   2.214   3.982   0.270 -0.6025  0.0019  0.1275
 5846TIP3    H139173   2.205   4.070   0.305 -0.9247 -0.1914  0.5420
 5846TIP3    H239174   2.272   3.937   0.332  1.8541  0.6938 -1.5306
 5847TIP3   OH239175   5.986   0.125   8.288  0.3502  0.1579 -0.1212
 5847TIP3    H139176   5.906   0.171   8.265 -0.2722 -0.7110  0.2512
 5847TIP3    H239177   5.969   0.088   8.375  0.8560 -0.6915 -0.3647
 5848TIP3   OH239178   4.118   1.673   0.754  0.3658  0.1761 -0.0318
 5848TIP3    H139179   4.074   1.738   0.699 -0.0855 -0.2288 -0.1596
 5848TIP3    H239180   4.074   1.590   0.733  1.3437 -0.2845 -0.3349
 5849TIP3   OH239181   1.153   1.454   6.815  0.2477 -0.1066  0.2563
 5849TIP3    H139182   1.204   1.535   6.823 -0.6100  0.3244  1.8469
 5849TIP3    H239183   1.110   1.461   6.729  2.0399 -0.0347 -0.6819
 5850TIP3   OH239184   1.961   1.544   7.050  0.4184 -0.6169 -0.2415
 5850TIP3    H139185   1.982   1.471   7.108  0.7105  0.8832  1.6345
 5850TIP3    H239186   1.875   1.574   7.080  0.5930  0.2159 -0.5520
 5851TIP3   OH239187   2.785   3.565   1.208  0.0459  0.4098  0.4395
 5851TIP3    H139188   2.742   3.547   1.291 -1.5701 -0.6815 -0.5766
 5851TIP3    H239189   2.728   3.628   1.164  1.9756  2.6668  0.9676
 5852TIP3   OH239190   3.917   5.208   6.934  0.1049 -0.5376  0.6661
 5852TIP3    H139191   3.941   5.299   6.917 -0.1612 -0.6007 -0.0520
 5852TIP3    H239192   3.869   5.211   7.017 -3.4400  0.5780 -1.2500
 5853TIP3   OH239193   6.196   2.865   7.921  0.0385 -0.0622 -0.0576
 5853TIP3    H139194   6.201   2.912   8.004 -1.1210 -0.4938  0.2782
 5853TIP3    H239195   6.125   2.908   7.873  0.3777 -0.1281 -0.6345
 5854TIP3   OH239196   6.052   4.330   0.737  0.1104 -0.1196  0.3335
 5854TIP3    H139197   6.062   4.413   0.783 -0.9468  0.1405  0.1187
 5854TIP3    H239198   5.957   4.317   0.731  0.0996  0.5388 -2.9285
 5855TIP3   OH239199   4.298   0.428   7.432  0.0692 -0.0809 -0.1277
 5855TIP3    H139200   4.328   0.426   7.523 -1.3737 -1.5043  0.3699
 5855TIP3    H239201   4.205   0.447   7.438 -0.1111 -0.5065 -1.2774
 5856TIP3   OH239202   5.144   4.346   0.737 -0.0331 -0.1221 -0.2974
 5856TIP3    H139203   5.169   4.438   0.750  0.9640 -0.6207  1.7810
 5856TIP3    H239204   5.069   4.334   0.795 -0.1440 -0.6346 -0.5455
 5857TIP3   OH239205   2.670   5.591   0.474 -0.4453 -0.0334 -0.0234
 5857TIP3    H139206   2.628   5.626   0.552  0.7828 -0.4042  0.8466
 5857TIP3    H239207   2.759   5.629   0.476 -0.0686 -0.8493 -0.6816
 5858TIP3   OH239208   0.224   0.713   8.255  0.1218 -0.3793 -0.0073
 5858TIP3    H139209   0.165   0.668   8.193 -2.1833  2.3160  0.0489
 5858TIP3    H239210   0.178   0.709   8.338  0.0268  1.6992  0.0711
 5859TIP3   OH239211   1.348   2.154   7.772  0.3426 -0.0527 -0.1856
 5859TIP3    H139212   1.280   2.172   7.707  0.5804 -1.1225 -0.7580
 5859TIP3    H239213   1.430   2.171   7.725  0.5351 -1.4301 -0.3895
 5860TIP3   OH239214   4.740   5.574   7.540  0.8524  0.3890 -0.2328
 5860TIP3    H139215   4.679   5.643   7.568  1.3828  0.6380  0.3240
 5860TIP3    H239216   4.796   5.616   7.475  2.3155  1.0159  1.3638
 5861TIP3   OH239217   1.046   0.911   1.319 -0.0909  0.3634 -0.3392
 5861TIP3    H139218   1.115   0.849   1.297 -2.8072 -2.8854 -0.4612
 5861TIP3    H239219   0.994   0.920   1.239 -1.4749  0.3478  0.5152
 5862TIP3   OH239220   0.666   0.326   8.096 -0.2617  0.2155 -0.1567
 5862TIP3    H139221   0.755   0.314   8.129 -0.6957 -2.3049  0.2963
 5862TIP3    H239222   0.670   0.293   8.006 -0.8996 -0.7217  0.1441
 5863TIP3   OH239223   1.357   3.185   8.476  0.2112 -0.1300 -0.2643
 5863TIP3    H139224   1.300   3.225   8.410 -0.3508  3.7522  2.2016
 5863TIP3    H239225   1.432   3.244   8.481  0.8395 -1.0194  1.6534
 5864TIP3   OH239226   5.103   4.317   7.211  0.0942  0.4142  0.2205
 5864TIP3    H139227   5.142   4.240   7.254 -0.2584  0.2562  0.2614
 5864TIP3    H239228   5.077   4.286   7.125 -0.2682  0.4202  0.3241
 5865TIP3   OH239229   3.843   2.242   7.978  0.2757  0.4300 -1.0181
 5865TIP3    H139230   3.923   2.279   7.941  1.8983 -2.8419 -1.1830
 5865TIP3    H239231   3.808   2.186   7.909  0.2710 -1.4826  0.4364
 5866TIP3   OH239232   1.260   4.410   1.923 -0.3434 -0.3578 -0.2894
 5866TIP3    H139233   1.243   4.503   1.906  0.1470  0.2514  2.2072
 5866TIP3    H239234   1.348   4.396   1.889  0.7394  0.8993  1.7817
 5867TIP3   OH239235   5.483   0.390   1.282 -0.4462 -0.1542  0.0119
 5867TIP3    H139236   5.559   0.333   1.292  1.8518  2.4869 -0.9894
 5867TIP3    H239237   5.495   0.458   1.349 -1.7861  0.4494 -0.3333
 5868TIP3   OH239238   3.632   1.835   1.690 -0.0891  0.7639  0.3284
 5868TIP3    H139239   3.720   1.862   1.715 -0.7224  0.9498  2.5120
 5868TIP3    H239240   3.574   1.889   1.743 -1.7170  3.0537 -3.3742
 5869TIP3   OH239241   2.510   5.807   1.259  0.2161 -0.1689  0.5612
 5869TIP3    H139242   2.491   5.880   1.319 -0.3332  0.5812 -0.4966
 5869TIP3    H239243   2.583   5.761   1.301 -0.0895  0.3880  1.7610
 5870TIP3   OH239244   4.357   5.845   6.996 -0.2571  0.6776  0.4201
 5870TIP3    H139245   4.428   5.831   6.932 -0.3632 -0.3857  0.5300
 5870TIP3    H239246   4.397   5.902   7.062  0.6067 -0.1671  0.6502
 5871TIP3   OH239247   1.855   6.893   2.304 -0.4203  0.2938 -0.1383
 5871TIP3    H139248   1.870   6.799   2.306 -0.8959  0.2136 -0.3193
 5871TIP3    H239249   1.761   6.902   2.292 -0.5590  0.7830  1.1201
 5872TIP3   OH239250   5.427   1.809   7.725 -0.0919  0.6352 -0.4748
 5872TIP3    H139251   5.469   1.878   7.675  1.1933 -0.4238 -0.9244
 5872TIP3    H239252   5.497   1.773   7.780  0.0303 -1.9512 -2.0948
 5873TIP3   OH239253   0.294   0.719   7.871 -0.2104 -0.2293 -0.2480
 5873TIP3    H139254   0.268   0.811   7.862  1.0528  0.1026 -0.6521
 5873TIP3    H239255   0.360   0.719   7.940 -0.8550 -0.9821  0.3883
 5874TIP3   OH239256   1.411   2.802   7.508 -0.3258  0.4284  0.2352
 5874TIP3    H139257   1.356   2.766   7.577 -0.3088 -0.9369 -0.4309
 5874TIP3    H239258   1.361   2.789   7.428  0.1134  0.9958 -0.1379
 5875TIP3   OH239259   2.307   3.008   0.991 -0.3111 -1.3376  0.3434
 5875TIP3    H139260   2.300   2.957   0.910 -0.3716 -0.1676 -0.4045
 5875TIP3    H239261   2.248   3.082   0.978  0.2606 -0.7207  1.1517
 5876TIP3   OH239262   4.579   3.157   7.394 -0.0680  0.0141  1.3623
 5876TIP3    H139263   4.491   3.132   7.423 -0.8983 -0.2312 -1.1759
 5876TIP3    H239264   4.601   3.094   7.326  1.9787  0.2678  1.7284
 5877TIP3   OH239265   3.883   2.720   0.025  0.1500  0.1540  0.5158
 5877TIP3    H139266   3.816   2.661  -0.010  0.2028  0.1610  0.4014
 5877TIP3    H239267   3.919   2.673   0.101 -0.1696  0.2675  0.7391
 5878TIP3   OH239268   1.589   3.604   2.507 -0.3518 -0.0213  0.3288
 5878TIP3    H139269   1.666   3.659   2.518 -0.9790  0.6348  1.6587
 5878TIP3    H239270   1.561   3.619   2.416 -1.6630  3.4573  1.1648
 5879TIP3   OH239271   2.193   3.013   0.349 -0.3074 -0.3657 -0.3674
 5879TIP3    H139272   2.134   2.949   0.310  0.2899 -1.4875  0.4934
 5879TIP3    H239273   2.142   3.054   0.418 -0.9608  0.7231 -1.4556
 5880TIP3   OH239274   4.209   0.870   7.682 -0.2882  0.4307  0.4334
 5880TIP3    H139275   4.287   0.906   7.724  0.3092 -0.0031 -0.2786
 5880TIP3    H239276   4.166   0.819   7.751 -0.0449  0.8341  0.8835
 5881TIP3   OH239277   3.022   2.324   0.491  0.1709 -0.1240 -0.1128
 5881TIP3    H139278   2.941   2.279   0.468  1.1586 -1.3059 -1.4780
 5881TIP3    H239279   3.029   2.395   0.427  0.1399  0.0707  0.0999
 5882TIP3   OH239280   0.268   5.758   7.270  0.5626  0.4888  0.2095
 5882TIP3    H139281   0.276   5.672   7.229 -0.1913  0.3759  0.2744
 5882TIP3    H239282   0.181   5.756   7.312 -0.5078  2.1142 -1.7425
 5883TIP3   OH239283   6.619   4.797   0.152  0.5895  0.4966 -0.1190
 5883TIP3    H139284   6.527   4.794   0.176  0.8809  0.4704  1.0411
 5883TIP3    H239285   6.655   4.714   0.185  0.9205  0.2418 -1.0739
 5884TIP3   OH239286   1.216   3.803   1.341  0.4121 -0.2507  0.0691
 5884TIP3    H139287   1.229   3.775   1.431 -0.2831 -0.2299  0.1804
 5884TIP3    H239288   1.132   3.849   1.342  1.1046  1.0890 -0.2776
 5885TIP3   OH239289   4.981   6.754   1.465  1.0938 -0.2227  0.3176
 5885TIP3    H139290   5.003   6.667   1.499 -0.7156  0.4050  3.5536
 5885TIP3    H239291   5.056   6.809   1.489  0.5052 -0.1190  2.0369
 5886TIP3   OH239292   2.626   0.245   7.997  0.0411  0.7338 -0.3824
 5886TIP3    H139293   2.538   0.248   8.035  0.8489  1.6092  1.5329
 5886TIP3    H239294   2.647   0.152   7.994 -0.9850  0.5093 -0.9630
 5887TIP3   OH239295   1.774   4.785   7.020  0.4703  0.2467  0.2403
 5887TIP3    H139296   1.744   4.824   6.938 -1.8763  0.8418  1.2968
 5887TIP3    H239297   1.815   4.702   6.994 -0.1918  0.4452 -1.5287
 5888TIP3   OH239298   3.974   1.115   1.087  1.0164 -0.1489  0.3141
 5888TIP3    H139299   3.927   1.108   1.170 -0.9630 -1.9021 -0.8709
 5888TIP3    H239300   4.026   1.195   1.096 -1.7323  1.5985  1.9472
 5889TIP3   OH239301   4.353   6.729   8.593  0.7496 -0.1265 -0.8402
 5889TIP3    H139302   4.376   6.681   8.672 -0.9776  0.2222 -0.0668
 5889TIP3    H239303   4.377   6.671   8.520  1.3633 -0.9065 -0.0299
 5890TIP3   OH239304   6.491   1.255   7.104  0.0700  0.2995  0.0090
 5890TIP3    H139305   6.520   1.331   7.055  0.6601 -1.1949 -2.1215
 5890TIP3    H239306   6.444   1.202   7.040 -0.5649 -1.0063  1.4856
 5891TIP3   OH239307   0.810   5.232   7.304  0.2633  0.3110 -0.1798
 5891TIP3    H139308   0.771   5.145   7.294  1.1016 -0.0132 -0.8080
 5891TIP3    H239309   0.900   5.214   7.330  1.1215  0.8813 -2.5213
 5892TIP3   OH239310   0.592   5.282   7.803  0.1648 -0.1229 -0.1721
 5892TIP3    H139311   0.622   5.339   7.733  2.2551  0.7306  1.2966
 5892TIP3    H239312   0.638   5.199   7.789 -0.4181 -0.3966 -0.5125
 5893TIP3   OH239313   0.335   2.777   5.806  0.2238 -0.3242  0.0214
 5893TIP3    H139314   0.313   2.783   5.713  0.1390 -1.4240 -0.0345
 5893TIP3    H239315   0.430   2.770   5.808  0.4227  1.6822  0.1383
 5894TIP3   OH239316   3.772   3.963   8.417  0.0639  0.1838  0.7483
 5894TIP3    H139317   3.781   3.901   8.489  0.1813 -0.4923  0.1575
 5894TIP3    H239318   3.844   3.942   8.357 -0.6605  0.0176 -0.0910
 5895TIP3   OH239319   4.971   3.473   8.009 -0.0995 -0.5525 -0.4182
 5895TIP3    H139320   5.008   3.493   8.094 -0.4975 -0.3560 -0.2871
 5895TIP3    H239321   5.046   3.446   7.955  0.0047 -1.7716  0.3096
 5896TIP3   OH239322   2.592   4.165   6.245 -0.1177  0.3724 -0.1961
 5896TIP3    H139323   2.535   4.099   6.285 -0.0173  0.2170 -0.3079
 5896TIP3    H239324   2.538   4.244   6.243 -1.3261 -0.4074 -2.7056
 5897TIP3   OH239325   3.781   1.951   1.182 -0.5057 -0.3006  0.1941
 5897TIP3    H139326   3.786   1.863   1.143 -2.9878 -0.7016  0.6337
 5897TIP3    H239327   3.870   1.986   1.172  0.2743 -2.4063 -1.0200
 5898TIP3   OH239328   5.080   6.554   1.845 -0.3989  0.0269  0.0655
 5898TIP3    H139329   5.154   6.496   1.830 -0.6525 -0.0089 -1.1691
 5898TIP3    H239330   5.057   6.541   1.937  0.6116 -0.5522  0.2481
 5899TIP3   OH239331   0.406   0.728   1.766 -0.0630 -0.2478 -0.6091
 5899TIP3    H139332   0.351   0.722   1.688 -2.0076  1.0702  0.5710
 5899TIP3    H239333   0.346   0.757   1.836  2.1857  1.7140  0.6672
 5900TIP3   OH239334   5.572   4.256   7.149  0.3540 -0.1080  0.0114
 5900TIP3    H139335   5.533   4.330   7.196  2.1972  2.1310 -1.7302
 5900TIP3    H239336   5.645   4.228   7.205  1.0621  0.9607 -0.3458
 5901TIP3   OH239337   0.027   1.332   8.614  0.1031  0.2928 -0.2177
 5901TIP3    H139338   0.109   1.318   8.661  0.8134  0.2167 -1.4554
 5901TIP3    H239339  -0.041   1.320   8.681  1.0470 -0.5100  0.6294
 5902TIP3   OH239340   5.462   0.143   6.960 -0.2494  0.1258 -0.1463
 5902TIP3    H139341   5.534   0.124   7.019  1.3781  2.4453 -1.2339
 5902TIP3    H239342   5.467   0.075   6.893  1.1254  0.3886 -0.3427
 5903TIP3   OH239343   1.333   3.896   6.061 -0.2938 -0.5426  0.2801
 5903TIP3    H139344   1.331   3.992   6.069  0.0927 -0.5366  0.3200
 5903TIP3    H239345   1.245   3.873   6.030 -0.5595 -0.2239  0.7786
 5904TIP3   OH239346   6.452   3.417   0.849  0.7787 -0.1950  0.4494
 5904TIP3    H139347   6.518   3.456   0.792  0.1524 -1.5702 -1.3547
 5904TIP3    H239348   6.474   3.447   0.937  1.7676  2.0995 -0.5053
 5905TIP3   OH239349   0.045   5.209   7.805  0.8326  0.0748 -0.6187
 5905TIP3    H139350   0.140   5.214   7.811  1.0214  2.8746 -3.4460
 5905TIP3    H239351   0.024   5.118   7.827  4.1534 -0.7019 -0.2226
 5906TIP3   OH239352   0.963   6.603   0.138 -0.3722 -0.3048  0.0928
 5906TIP3    H139353   0.963   6.513   0.105  0.0666  0.3001 -1.6984
 5906TIP3    H239354   0.876   6.637   0.114 -0.1526  0.0560 -0.2049
 5907TIP3   OH239355   0.615   4.277   7.582  0.2185  0.2580 -0.4973
 5907TIP3    H139356   0.643   4.297   7.492 -0.9680 -0.3419 -1.0232
 5907TIP3    H239357   0.584   4.187   7.577 -1.0962  0.6411  0.1961
 5908TIP3   OH239358   0.829   1.716   0.721  0.8250  0.2692  0.5775
 5908TIP3    H139359   0.791   1.708   0.633  2.6703 -0.1970 -0.2210
 5908TIP3    H239360   0.773   1.781   0.765 -2.5194 -2.2739  0.4690
 5909TIP3   OH239361   4.573   3.841   7.371  0.9033 -0.1483  0.5624
 5909TIP3    H139362   4.648   3.878   7.418  0.2899  1.7665  0.1327
 5909TIP3    H239363   4.593   3.857   7.279  1.4441 -2.6129  0.1877
 5910TIP3   OH239364   6.829   4.732   0.912 -0.1411 -0.1163  0.5010
 5910TIP3    H139365   6.806   4.775   0.830 -2.1149  0.6242  1.3601
 5910TIP3    H239366   6.919   4.758   0.929  0.3381 -0.3640 -1.4455
 5911TIP3   OH239367   1.373   6.699   7.544 -0.5972 -0.2436 -0.5956
 5911TIP3    H139368   1.317   6.736   7.475 -0.2427 -0.3458 -0.9442
 5911TIP3    H239369   1.360   6.757   7.619 -0.2641  0.4388 -1.0458
 5912TIP3   OH239370   0.899   2.178   1.309  0.3791  0.4321  0.1153
 5912TIP3    H139371   0.903   2.269   1.340  2.5535  0.0805  1.0247
 5912TIP3    H239372   0.990   2.154   1.294 -0.2461 -1.2452 -1.2943
 5913TIP3   OH239373   1.628   6.309   7.752 -0.0137 -0.3108 -0.4587
 5913TIP3    H139374   1.532   6.313   7.751 -0.0902 -1.7520 -1.9910
 5913TIP3    H239375   1.654   6.339   7.665  1.1503  2.8832  0.8297
 5914TIP3   OH239376   6.775   1.693   1.787  0.3681 -0.6014 -0.2286
 5914TIP3    H139377   6.689   1.698   1.828 -0.1945 -1.1826 -1.2810
 5914TIP3    H239378   6.806   1.604   1.808  0.7879 -0.3361  0.2868
 5915TIP3   OH239379   6.529   4.707   8.148  0.2097 -0.5768  1.2691
 5915TIP3    H139380   6.572   4.789   8.122  0.2774 -0.6712  1.0862
 5915TIP3    H239381   6.447   4.735   8.189  0.1932 -0.4221  1.1296
 5916TIP3   OH239382   5.251   4.061   2.040 -0.5198  0.3466  1.0422
 5916TIP3    H139383   5.162   4.028   2.033 -0.2114 -0.6259  1.4549
 5916TIP3    H239384   5.284   4.026   2.123  1.2692 -2.0234 -0.5260
 5917TIP3   OH239385   0.668   6.274   8.548 -0.2061  0.6445  0.1670
 5917TIP3    H139386   0.575   6.255   8.561 -0.0928  0.5640  0.9319
 5917TIP3    H239387   0.701   6.291   8.636  0.2605  1.8382 -0.2210
 5918TIP3   OH239388   1.572   4.108   6.388  0.3829  0.2013 -0.2890
 5918TIP3    H139389   1.583   4.192   6.432 -2.0709  0.5934 -0.2859
 5918TIP3    H239390   1.610   4.122   6.301  0.7373  1.0315 -0.0114
 5919TIP3   OH239391   0.657   2.382   1.262  0.0067  0.3420  0.0058
 5919TIP3    H139392   0.691   2.293   1.266  0.5627  0.6035  2.7973
 5919TIP3    H239393   0.636   2.395   1.169  0.8572 -2.3030 -0.6484
 5920TIP3   OH239394   3.596   5.697   0.172  0.7419 -0.2324 -0.0322
 5920TIP3    H139395   3.533   5.632   0.142  0.4985 -0.4087  0.8491
 5920TIP3    H239396   3.616   5.672   0.262  2.9362 -0.8676 -0.6258
 5921TIP3   OH239397   5.626   6.621   7.050  0.0309 -0.0282 -0.1561
 5921TIP3    H139398   5.675   6.669   7.117  2.0325 -0.8088 -0.9812
 5921TIP3    H239399   5.540   6.605   7.090  0.6810  0.7417  1.6590
 5922TIP3   OH239400   0.678   3.751   7.614 -0.5434 -0.0504 -0.1867
 5922TIP3    H139401   0.613   3.688   7.647  1.3839 -2.0294  0.0504
 5922TIP3    H239402   0.705   3.714   7.530  0.6850  0.4382 -0.0137
 5923TIP3   OH239403   4.871   1.306   7.127 -0.2336 -0.7604  0.1476
 5923TIP3    H139404   4.851   1.367   7.199  0.7353 -1.3373  0.9380
 5923TIP3    H239405   4.965   1.318   7.112 -0.5232 -0.2194 -1.4608
 5924TIP3   OH239406   3.599   4.145   0.761  0.4729 -0.5159  0.2004
 5924TIP3    H139407   3.634   4.061   0.730 -0.3699 -0.2316 -1.6455
 5924TIP3    H239408   3.518   4.122   0.807 -0.6598 -0.6278 -1.7659
 5925TIP3   OH239409   2.313   5.262   1.740  0.1594 -0.0489  0.5614
 5925TIP3    H139410   2.219   5.245   1.742 -0.2583  1.4569 -1.8485
 5925TIP3    H239411   2.322   5.351   1.773  0.7841 -0.2822  1.0397
 5926TIP3   OH239412   2.794   6.256   0.947  0.9418 -0.1397 -0.1979
 5926TIP3    H139413   2.805   6.199   1.023  0.6323  0.1393  0.0626
 5926TIP3    H239414   2.746   6.203   0.883  0.2256 -0.0243  0.2290
 5927TIP3   OH239415   1.015   4.078   0.962  0.4407 -0.0277  0.1531
 5927TIP3    H139416   1.053   4.032   0.887  1.0700  0.9327 -0.1311
 5927TIP3    H239417   0.936   4.029   0.983  0.3644 -0.4174 -1.0166
 5928TIP3   OH239418   1.919   6.106   1.339 -1.0936 -0.4233 -0.3134
 5928TIP3    H139419   2.001   6.113   1.290  0.5419 -0.3141  2.2158
 5928TIP3    H239420   1.894   6.014   1.330  0.2273 -0.8592  0.1636
 5929TIP3   OH239421   0.031   3.353   0.175  0.2358 -0.0213 -0.0812
 5929TIP3    H139422   0.032   3.413   0.250 -0.2834 -0.4765  0.2995
 5929TIP3    H239423   0.027   3.266   0.215  0.0619 -0.2751 -0.6457
 5930TIP3   OH239424   3.808   5.835   0.445  0.0761 -0.1437 -0.0574
 5930TIP3    H139425   3.833   5.883   0.366 -0.1432 -1.2164 -0.8015
 5930TIP3    H239426   3.727   5.877   0.474  1.3304  1.7437  0.9558
 5931TIP3   OH239427   5.135   0.903   1.045 -0.4653  0.2522 -0.7697
 5931TIP3    H139428   5.107   0.985   1.005 -0.8259  0.6137  0.1751
 5931TIP3    H239429   5.058   0.847   1.043 -0.3864  0.1490 -0.8982
 5932TIP3   OH239430   1.887   2.525   7.255  1.0540 -0.1773  0.4329
 5932TIP3    H139431   1.953   2.456   7.260 -0.3775 -1.6563  0.1554
 5932TIP3    H239432   1.849   2.515   7.167  0.7526  0.9058  0.4341
 5933TIP3   OH239433   3.156   2.359   1.822 -0.8772 -0.1522 -0.1671
 5933TIP3    H139434   3.129   2.284   1.875  1.8761  0.1664  1.9068
 5933TIP3    H239435   3.217   2.323   1.758 -0.6068  0.1261 -0.0674
 5934TIP3   OH239436   3.805   4.586   7.328  0.2627  0.4593 -0.5104
 5934TIP3    H139437   3.772   4.590   7.238  0.4999  2.1539 -0.5655
 5934TIP3    H239438   3.831   4.495   7.340 -0.2571  0.0778 -1.9770
 5935TIP3   OH239439   1.839   1.691   1.275  0.1660  0.5553  0.1125
 5935TIP3    H139440   1.761   1.655   1.233  0.3698  1.0182 -0.6984
 5935TIP3    H239441   1.867   1.624   1.337 -0.0498 -0.2341 -0.6181
 5936TIP3   OH239442   4.470   0.640   7.334 -0.7467 -0.2878 -0.1223
 5936TIP3    H139443   4.413   0.703   7.290 -0.7094 -1.1757 -1.5164
 5936TIP3    H239444   4.414   0.564   7.348 -0.3311 -0.5809 -0.0444
 5937TIP3   OH239445   5.980   6.046   7.804 -0.0872 -0.3553  0.2706
 5937TIP3    H139446   5.932   5.978   7.851  0.4537  1.6189  4.0775
 5937TIP3    H239447   5.924   6.067   7.729 -3.2847 -0.8574  2.3074
 5938TIP3   OH239448   0.418   2.544   7.049  0.4424 -0.0183  0.0190
 5938TIP3    H139449   0.451   2.526   6.961 -1.6032 -0.9863 -0.5964
 5938TIP3    H239450   0.356   2.474   7.067  1.1244 -0.0983  2.4562
 5939TIP3   OH239451   2.170   1.781   0.076 -0.1566 -0.7519 -0.1682
 5939TIP3    H139452   2.146   1.782  -0.017  1.7673  0.3199 -0.6963
 5939TIP3    H239453   2.086   1.786   0.122 -1.1073 -0.3684 -1.8543
 5940TIP3   OH239454   6.066   5.534   0.030 -0.7837  0.4136  0.0014
 5940TIP3    H139455   6.061   5.464   0.095  2.1420 -0.8156 -0.9450
 5940TIP3    H239456   6.094   5.611   0.079 -2.3176  0.5437  0.7492
 5941TIP3   OH239457   5.142   3.764   2.339 -0.1240  0.5306  0.1791
 5941TIP3    H139458   5.146   3.735   2.248  0.8364 -1.0746  0.6918
 5941TIP3    H239459   5.049   3.783   2.354 -0.5921 -0.9267 -0.6520
 5942TIP3   OH239460   4.493   1.211   0.261  0.4393  0.2759  0.3345
 5942TIP3    H139461   4.461   1.285   0.312  1.1649  0.3753  0.6629
 5942TIP3    H239462   4.584   1.202   0.287  0.3817 -0.6860  0.2462
 5943TIP3   OH239463   3.195   4.233   0.713  0.3731 -0.0966 -0.2800
 5943TIP3    H139464   3.192   4.223   0.618  0.5879  1.1673 -0.4370
 5943TIP3    H239465   3.284   4.264   0.731  0.4951 -0.8110  0.3920
 5944TIP3   OH239466   6.780   2.809   0.056 -0.0401  0.1251 -0.2003
 5944TIP3    H139467   6.774   2.746  -0.016  0.2054 -0.7085  0.4804
 5944TIP3    H239468   6.760   2.893   0.017 -2.1369 -0.5980 -0.8087
 5945TIP3   OH239469   2.476   4.317   1.638 -0.3012 -0.1503 -0.0217
 5945TIP3    H139470   2.468   4.244   1.700  2.5302 -1.4654 -1.0262
 5945TIP3    H239471   2.477   4.275   1.552 -2.3649  1.4813 -0.9274
 5946TIP3   OH239472   3.901   5.137   8.332  0.3329 -0.2781 -0.3300
 5946TIP3    H139473   3.945   5.195   8.394  2.2000 -0.8744 -1.0360
 5946TIP3    H239474   3.887   5.191   8.254 -0.0916 -0.1239 -0.1499
 5947TIP3   OH239475   3.969   6.578   8.266 -0.2943 -0.1407  0.0537
 5947TIP3    H139476   3.893   6.542   8.310 -0.0978 -1.9949 -1.0336
 5947TIP3    H239477   3.934   6.623   8.189 -0.3861  0.0812  0.2270
 5948TIP3   OH239478   6.060   2.372   7.750  0.5223  0.1474  0.3092
 5948TIP3    H139479   6.029   2.375   7.841 -0.0195 -1.0683  0.1809
 5948TIP3    H239480   6.137   2.315   7.753  1.0674  0.8561  0.1424
 5949TIP3   OH239481   5.001   3.494   6.340  0.3010  0.4697  0.0199
 5949TIP3    H139482   4.934   3.548   6.299  0.0357  0.4749  0.4509
 5949TIP3    H239483   4.973   3.404   6.323 -0.6729  0.4582  1.5369
 5950TIP3   OH239484   5.054   2.233   6.969  0.5343  0.4193  0.4807
 5950TIP3    H139485   5.084   2.270   7.052  1.7965  1.5495 -0.4417
 5950TIP3    H239486   5.125   2.175   6.941  0.2607  0.2912  0.0387
 5951TIP3   OH239487   6.080   1.655   0.206  0.0730  0.0144 -0.5129
 5951TIP3    H139488   6.060   1.594   0.135  2.1937 -0.7021 -0.5620
 5951TIP3    H239489   6.131   1.725   0.164 -0.3551  0.6262 -0.0375
 5952TIP3   OH239490   5.350   0.438   0.778  0.3341  0.0278  0.1268
 5952TIP3    H139491   5.335   0.507   0.714 -0.5921 -0.1913  0.0946
 5952TIP3    H239492   5.370   0.484   0.859  1.5306  0.3056 -0.3109
 5953TIP3   OH239493   5.731   0.615   6.854 -0.4559  0.0444  0.2474
 5953TIP3    H139494   5.713   0.587   6.764  1.6526 -1.1866  0.1342
 5953TIP3    H239495   5.703   0.541   6.908 -0.6497  0.3061  0.5091
 5954TIP3   OH239496   0.686   3.260   7.272  0.8461  0.1650 -0.0712
 5954TIP3    H139497   0.778   3.277   7.253  0.6298  1.2231 -0.2727
 5954TIP3    H239498   0.679   3.271   7.367  1.2152 -1.4749  0.1709
 5955TIP3   OH239499   1.306   2.287   0.167 -0.4753 -0.0631 -0.2641
 5955TIP3    H139500   1.379   2.232   0.135 -0.5307 -0.5522  0.4291
 5955TIP3    H239501   1.235   2.269   0.105 -0.8431 -1.6335  0.5566
 5956TIP3   OH239502   3.833   5.546   7.181  0.0192  0.2992 -0.0323
 5956TIP3    H139503   3.892   5.500   7.240  0.9084  1.5159  0.0758
 5956TIP3    H239504   3.889   5.611   7.138 -1.4360  2.2200  0.8492
 5957TIP3   OH239505   0.509   5.631   1.258 -0.0214  0.0557  0.0649
 5957TIP3    H139506   0.518   5.536   1.266  1.8786  0.2685  1.0794
 5957TIP3    H239507   0.464   5.644   1.174  1.1586 -1.6923 -0.9092
 5958TIP3   OH239508   4.189   2.015   0.651 -0.2336 -0.0652 -0.3285
 5958TIP3    H139509   4.127   1.960   0.604  0.8044 -0.7956 -0.8904
 5958TIP3    H239510   4.256   2.037   0.586  0.9650 -0.6708  0.6446
 5959TIP3   OH239511   3.501   3.406   6.541 -0.5420  0.3426 -0.0781
 5959TIP3    H139512   3.477   3.329   6.489 -1.4485  0.6501 -0.1400
 5959TIP3    H239513   3.473   3.480   6.487 -1.3882  0.6706  0.7714
 5960TIP3   OH239514   1.198   1.769   0.368  0.0787 -0.0028  0.2366
 5960TIP3    H139515   1.126   1.781   0.430  0.0309  1.0468 -0.0054
 5960TIP3    H239516   1.155   1.739   0.288  0.0278 -0.3551  0.3922
 5961TIP3   OH239517   2.733   2.099   7.839 -0.0983 -0.2750 -0.2197
 5961TIP3    H139518   2.650   2.081   7.794 -1.1955  1.8571  0.8075
 5961TIP3    H239519   2.733   2.038   7.914 -1.2895  0.4047  0.3721
 5962TIP3   OH239520   0.878   1.063   0.075 -0.0804 -0.0747 -0.1431
 5962TIP3    H139521   0.922   1.053   0.159 -0.4428 -0.4348  0.0121
 5962TIP3    H239522   0.948   1.056   0.010  0.1152 -0.4552  0.1050
 5963TIP3   OH239523   2.392   6.552   8.240  0.3476  0.2616  0.0657
 5963TIP3    H139524   2.301   6.536   8.265 -0.2167 -2.8452 -3.2325
 5963TIP3    H239525   2.444   6.508   8.307 -0.4837  1.7284  1.7596
 5964TIP3   OH239526   5.143   5.509   2.152  0.2397 -0.0616  0.0513
 5964TIP3    H139527   5.224   5.510   2.102  1.4692  0.6994  1.9328
 5964TIP3    H239528   5.147   5.589   2.206 -2.2395  0.5387 -0.5133
 5965TIP3   OH239529   5.510   0.062   1.445 -0.4533  0.7608  0.0268
 5965TIP3    H139530   5.484   0.063   1.537  0.4311 -1.0080  0.3433
 5965TIP3    H239531   5.598   0.101   1.445 -0.0345 -0.1757  0.0900
 5966TIP3   OH239532   6.229   4.828   7.935  0.2750  0.9869 -0.0280
 5966TIP3    H139533   6.283   4.878   7.873 -0.1911  1.3886 -0.1164
 5966TIP3    H239534   6.255   4.736   7.921  0.2251  1.0813 -0.7745
 5967TIP3   OH239535   2.201   0.636   0.838 -0.2758 -0.3314 -0.2194
 5967TIP3    H139536   2.284   0.592   0.855 -0.6742 -1.1644 -0.3441
 5967TIP3    H239537   2.197   0.645   0.743  0.1602  0.7032 -0.1444
 5968TIP3   OH239538   1.844   1.493   8.571 -0.2024  0.1810  0.3086
 5968TIP3    H139539   1.844   1.587   8.550 -1.7391  0.2326  0.4364
 5968TIP3    H239540   1.832   1.490   8.666  1.9336 -0.1391  0.6131
 5969TIP3   OH239541   0.583   3.314   8.585 -0.0540 -0.2978 -0.0200
 5969TIP3    H139542   0.600   3.346   8.496  1.6566  0.9455  0.7195
 5969TIP3    H239543   0.514   3.371   8.618  0.0751 -0.0600 -0.1589
 5970TIP3   OH239544   1.798   1.186   7.308  0.1832 -0.3980 -0.1679
 5970TIP3    H139545   1.803   1.280   7.327  2.9289 -0.6099  0.5055
 5970TIP3    H239546   1.808   1.180   7.213  2.4929 -0.0715  0.0098
 5971TIP3   OH239547   3.007   2.356   8.515  0.2401 -0.3164 -0.0237
 5971TIP3    H139548   3.056   2.436   8.495  3.8416 -1.9463  1.4643
 5971TIP3    H239549   2.963   2.376   8.598 -1.0100  0.8693 -0.9187
 5972TIP3   OH239550   0.215   5.634   1.498  0.3277 -1.0047  0.2492
 5972TIP3    H139551   0.242   5.695   1.566 -0.5203 -1.1219  0.7104
 5972TIP3    H239552   0.127   5.606   1.525  0.3127 -1.6753 -0.4675
 5973TIP3   OH239553   4.394   4.273   7.816 -0.5907 -0.0810 -0.1174
 5973TIP3    H139554   4.469   4.326   7.842 -1.5210  1.2009  0.0306
 5973TIP3    H239555   4.431   4.208   7.755  1.1517 -1.4498  2.2135
 5974TIP3   OH239556   5.472   3.382   1.479 -0.1794  0.1054 -0.2628
 5974TIP3    H139557   5.481   3.331   1.398 -1.5748  0.5452 -0.7309
 5974TIP3    H239558   5.379   3.376   1.500  0.0066  0.7700  0.8049
 5975TIP3   OH239559   3.775   0.190   6.703 -0.4625  0.3468  0.1405
 5975TIP3    H139560   3.679   0.185   6.706 -0.4788 -2.7801  4.4985
 5975TIP3    H239561   3.795   0.278   6.733 -2.0500  0.5291  0.7914
 5976TIP3   OH239562   0.322   1.836   7.842  0.0591 -0.0267 -0.0183
 5976TIP3    H139563   0.307   1.810   7.751 -1.4228  0.4355  0.0776
 5976TIP3    H239564   0.266   1.778   7.894  0.8655 -0.2665  0.6139
 5977TIP3   OH239565   0.190   4.560   5.543  0.1468 -0.4880 -0.2514
 5977TIP3    H139566   0.132   4.576   5.617  1.6169  2.2531  0.4558
 5977TIP3    H239567   0.272   4.531   5.583  0.3673 -0.8402 -0.9451
 5978TIP3   OH239568   2.344   3.293   1.465  0.2217 -0.0262 -0.3008
 5978TIP3    H139569   2.275   3.251   1.516 -0.7744  0.0705 -1.5377
 5978TIP3    H239570   2.415   3.228   1.465  0.4215  0.1393  1.5182
 5979TIP3   OH239571   4.053   6.021   0.164  0.4597 -0.6150  0.4202
 5979TIP3    H139572   3.990   6.053   0.229 -0.3917 -0.7949 -0.2963
 5979TIP3    H239573   4.007   6.029   0.081  1.3101 -0.9745 -0.0933
 5980TIP3   OH239574   1.467   4.738   0.977  0.1681 -0.0900 -0.2111
 5980TIP3    H139575   1.434   4.656   0.940 -0.6515  0.7090 -1.3263
 5980TIP3    H239576   1.448   4.803   0.910  1.2236  0.9447  0.4659
 5981TIP3   OH239577   2.878   0.700   0.619 -0.1263 -0.6251 -0.0551
 5981TIP3    H139578   2.805   0.760   0.602  1.0926  1.4284  1.3892
 5981TIP3    H239579   2.849   0.647   0.692 -0.3682 -0.1520  0.1983
 5982TIP3   OH239580   0.101   0.037   8.018 -0.3661 -0.0185 -0.0009
 5982TIP3    H139581   0.034  -0.016   8.062  0.5111  0.3768  1.9272
 5982TIP3    H239582   0.058   0.067   7.938 -2.0030 -0.9412  0.4638
 5983TIP3   OH239583   3.496   1.450   7.024  0.0853  0.2581  0.1473
 5983TIP3    H139584   3.520   1.487   6.940  1.0867  0.4925  0.5245
 5983TIP3    H239585   3.437   1.515   7.062  1.7429  1.4821  0.7569
 5984TIP3   OH239586   0.137   4.867   1.001  0.4598 -0.9114 -0.2320
 5984TIP3    H139587   0.092   4.942   1.040 -0.2008  0.0885 -2.7519
 5984TIP3    H239588   0.220   4.862   1.048 -0.5041 -0.1864  1.6606
 5985TIP3   OH239589   2.461   3.001   7.283 -0.1382  0.3045 -0.1743
 5985TIP3    H139590   2.381   3.036   7.243 -0.1575  1.4916  0.8652
 5985TIP3    H239591   2.507   3.077   7.318  1.6167 -0.3141 -0.9875
 5986TIP3   OH239592   1.992   5.541   1.435  0.3965  0.4081  0.1887
 5986TIP3    H139593   1.972   5.617   1.489 -1.4232  0.2980 -0.2714
 5986TIP3    H239594   2.082   5.555   1.406 -0.3654  3.1625 -1.1326
 5987TIP3   OH239595   1.943   4.430   1.595 -0.1934  0.1260 -0.4788
 5987TIP3    H139596   2.023   4.482   1.606  0.0291 -0.2719 -0.1895
 5987TIP3    H239597   1.875   4.481   1.640  0.1642 -0.1638  0.4247
 5988TIP3   OH239598   4.775   0.300   1.603 -0.3957 -0.2669 -0.4295
 5988TIP3    H139599   4.833   0.247   1.549 -0.2999 -0.1807 -0.4121
 5988TIP3    H239600   4.693   0.305   1.554  0.2415  1.2689 -1.4090
 5989TIP3   OH239601   1.331   0.477   7.240 -0.3696  0.1893  0.3293
 5989TIP3    H139602   1.309   0.388   7.268 -0.6064  0.0157 -0.3866
 5989TIP3    H239603   1.425   0.474   7.223 -0.8261 -0.8223 -2.7176
 5990TIP3   OH239604   3.854   6.865   6.584  0.3506  0.8439  0.5315
 5990TIP3    H139605   3.835   6.918   6.661  0.1463 -0.2973  1.2913
 5990TIP3    H239606   3.774   6.867   6.532 -0.2122  0.0222  1.3325
 5991TIP3   OH239607   5.835   2.924   7.015  0.1684 -0.0314 -0.2912
 5991TIP3    H139608   5.825   2.829   7.021 -0.3235 -0.0411 -1.0534
 5991TIP3    H239609   5.763   2.952   6.959 -0.8245  1.0301  1.4288
 5992TIP3   OH239610   1.611   2.993   7.011  0.1634  0.1576  0.4220
 5992TIP3    H139611   1.703   3.014   7.024  0.1371  0.2546  0.4540
 5992TIP3    H239612   1.611   2.914   6.957  0.2662  0.0719  0.5483
 5993TIP3   OH239613   0.253   6.473   8.345  0.0366  0.1945 -0.1343
 5993TIP3    H139614   0.252   6.389   8.390 -2.1259  1.3631  2.2823
 5993TIP3    H239615   0.303   6.531   8.403 -1.2926  1.3219 -0.0538
 5994TIP3   OH239616   5.033   5.481   7.307  0.1830  0.3704 -0.2117
 5994TIP3    H139617   4.984   5.402   7.328  0.7355 -0.0468 -0.4738
 5994TIP3    H239618   5.119   5.468   7.347  0.6190  0.3856 -1.1261
 5995TIP3   OH239619   2.904   5.871   7.489 -0.1701 -0.4905  0.2695
 5995TIP3    H139620   2.993   5.892   7.462 -0.6314 -0.0149 -0.9649
 5995TIP3    H239621   2.867   5.824   7.414 -0.3192 -2.5678  1.5477
 5996TIP3   OH239622   2.113   4.864   1.707  0.4253 -0.4512 -0.1950
 5996TIP3    H139623   2.035   4.900   1.749  0.0503 -1.0433 -0.3646
 5996TIP3    H239624   2.158   4.815   1.776 -0.6612 -2.1825 -0.6407
 5997TIP3   OH239625   4.020   3.351   7.279 -0.3593  0.4237 -0.0790
 5997TIP3    H139626   4.058   3.266   7.301 -1.2161  0.4108  1.4522
 5997TIP3    H239627   4.003   3.345   7.185 -0.2907 -1.0546 -0.0222
 5998TIP3   OH239628   2.944   1.950   1.096 -0.0233  0.4642  0.1163
 5998TIP3    H139629   3.011   1.995   1.148  1.2985 -1.6255  0.3322
 5998TIP3    H239630   2.930   1.867   1.141 -1.0834 -0.1165 -1.2109
 5999TIP3   OH239631   3.032   2.283   8.111 -0.1202 -0.7544  0.2893
 5999TIP3    H139632   3.066   2.274   8.200 -0.7420  1.6644  0.8242
 5999TIP3    H239633   2.937   2.276   8.120 -0.2511  0.4867 -0.0332
 6000TIP3   OH239634   4.675   4.622   8.053 -0.0596 -0.5003  0.4309
 6000TIP3    H139635   4.755   4.638   8.103 -0.3128  0.5489  0.5157
 6000TIP3    H239636   4.616   4.692   8.078 -0.0124  0.3943 -1.7236
 6001TIP3   OH239637   0.008   0.744   0.120 -0.5363 -0.0565 -0.8105
 6001TIP3    H139638   0.055   0.710   0.045 -2.0275 -0.1192 -1.7595
 6001TIP3    H239639   0.031   0.836   0.124  0.6811 -0.3550 -0.4332
 6002TIP3   OH239640   4.322   6.695   6.512  0.4389  0.5858 -0.1035
 6002TIP3    H139641   4.231   6.674   6.530  0.8075 -0.1137  1.0429
 6002TIP3    H239642   4.328   6.790   6.525  0.1051  0.4798  0.9259
 6003TIP3   OH239643   1.229   2.399   1.187  0.3979 -0.0196  0.4757
 6003TIP3    H139644   1.300   2.454   1.218 -0.5126  1.8320 -0.5819
 6003TIP3    H239645   1.159   2.412   1.252  1.0219 -2.0159  1.6440
 6004TIP3   OH239646   4.597   2.684   1.917  0.6323  0.5901 -0.6586
 6004TIP3    H139647   4.650   2.640   1.984 -0.6831 -0.5004 -0.2615
 6004TIP3    H239648   4.594   2.776   1.945 -0.0938  0.1136  0.9823
 6005TIP3   OH239649   1.056   4.374   7.674 -0.3152 -0.0745 -0.0200
 6005TIP3    H139650   1.005   4.366   7.755  0.7557 -0.6724  0.6297
 6005TIP3    H239651   0.994   4.357   7.604 -1.2632  0.4174  0.6732
 6006TIP3   OH239652   5.290   0.575   0.253 -0.2397 -0.1690  0.1995
 6006TIP3    H139653   5.358   0.514   0.225 -0.3730 -0.8746  1.3248
 6006TIP3    H239654   5.286   0.641   0.184  1.7232 -0.0010  0.1935
 6007TIP3   OH239655   3.358   4.256   2.144  0.1174  0.0663  0.6332
 6007TIP3    H139656   3.369   4.209   2.061  1.3375  0.0539  0.7753
 6007TIP3    H239657   3.276   4.224   2.180  0.5925 -1.4874  0.4105
 6008TIP3   OH239658   4.554   3.199   8.194  0.1675 -0.0835  0.2975
 6008TIP3    H139659   4.483   3.194   8.129  0.4370 -0.3053  0.0171
 6008TIP3    H239660   4.629   3.160   8.150  0.8408  1.3663  0.0853
 6009TIP3   OH239661   2.094   5.310   8.316 -0.2817 -0.4202 -0.1904
 6009TIP3    H139662   2.037   5.353   8.379 -1.5649 -0.4720 -1.2776
 6009TIP3    H239663   2.183   5.330   8.347 -0.8260  1.9890  0.0110
 6010TIP3   OH239664   1.536   4.628   0.067 -0.2146  0.1217 -0.5129
 6010TIP3    H139665   1.499   4.681  -0.003 -2.5635  1.4866  1.5734
 6010TIP3    H239666   1.478   4.643   0.142  0.9278 -2.8621  1.1719
 6011TIP3   OH239667   3.770   3.506   8.507  0.2372  0.2245  0.3924
 6011TIP3    H139668   3.734   3.509   8.596  0.2457 -0.2168  0.4132
 6011TIP3    H239669   3.811   3.420   8.501  0.0375  0.1639 -0.1207
 6012TIP3   OH239670   6.788   0.195   1.872  0.5476 -0.6660 -0.3868
 6012TIP3    H139671   6.844   0.245   1.814 -0.2522 -1.4827 -1.9062
 6012TIP3    H239672   6.822   0.214   1.960  1.2284  1.2680 -1.0232
 6013TIP3   OH239673   4.683   1.924   6.193 -0.6996  0.1879  0.3710
 6013TIP3    H139674   4.609   1.908   6.135 -0.4152  1.6013 -0.4230
 6013TIP3    H239675   4.726   1.839   6.202 -0.1081  0.1118 -2.3960
 6014TIP3   OH239676   6.261   5.825   1.640  0.1815  0.1347  0.6625
 6014TIP3    H139677   6.239   5.749   1.587 -0.3113 -0.3329  1.5165
 6014TIP3    H239678   6.339   5.862   1.599 -1.6904  1.4179 -2.0432
 6015TIP3   OH239679   0.210   0.976   7.722 -0.5041  0.3717 -0.2116
 6015TIP3    H139680   0.191   1.054   7.670 -1.1507  0.5240  0.2452
 6015TIP3    H239681   0.239   1.010   7.807 -0.2487  0.1211 -0.1953
 6016TIP3   OH239682   0.948   4.656   1.988  0.0289 -0.0975  0.2705
 6016TIP3    H139683   0.889   4.584   1.966 -0.9223  0.0814  2.0422
 6016TIP3    H239684   0.892   4.734   1.990  0.6100  0.3222  0.4938
 6017TIP3   OH239685   3.266   6.381   5.910 -0.6209  0.2224  0.7237
 6017TIP3    H139686   3.238   6.467   5.881 -0.6495 -0.0325 -0.0109
 6017TIP3    H239687   3.186   6.329   5.912 -0.7536  0.4314  2.0083
 6018TIP3   OH239688   1.661   5.640   0.041 -0.6299  0.0494  0.6166
 6018TIP3    H139689   1.682   5.707  -0.024 -0.6836 -1.1776 -0.7084
 6018TIP3    H239690   1.668   5.557  -0.007  0.0691 -0.9563  2.3630
 6019TIP3   OH239691   3.965   4.582   6.766  0.5251  0.1381  0.2401
 6019TIP3    H139692   4.052   4.594   6.727  0.1819  1.5718 -0.1389
 6019TIP3    H239693   3.904   4.602   6.694 -0.1193  0.1327  0.7752
 6020TIP3   OH239694   6.571   0.429   7.919  0.4839  0.2911 -0.3769
 6020TIP3    H139695   6.661   0.428   7.952  0.3457  2.1205  0.1803
 6020TIP3    H239696   6.568   0.504   7.860 -0.6411  0.1886 -0.4688
 6021TIP3   OH239697   4.170   4.351   0.677  0.1647 -0.1900  0.2508
 6021TIP3    H139698   4.131   4.264   0.692 -0.9040 -0.2079 -2.1851
 6021TIP3    H239699   4.213   4.372   0.759 -0.9795 -2.2996  1.4825
 6022TIP3   OH239700   5.244   4.103   6.822 -0.3867 -0.2575  0.0695
 6022TIP3    H139701   5.187   4.031   6.798  0.4166 -0.0623 -2.7606
 6022TIP3    H239702   5.333   4.068   6.813  0.1303  1.5812 -3.8621
 6023TIP3   OH239703   1.576   0.940   8.235  0.2000 -0.3241 -0.1865
 6023TIP3    H139704   1.481   0.951   8.242  0.2843 -0.7022  1.9428
 6023TIP3    H239705   1.601   0.996   8.161 -1.7527 -0.7958 -1.2688
 6024TIP3   OH239706   1.933   1.210   6.840 -0.1141  0.1929  0.6452
 6024TIP3    H139707   1.903   1.164   6.762  1.2576 -1.7818  1.2087
 6024TIP3    H239708   1.900   1.299   6.830 -2.7514 -0.8267 -0.6070
 6025TIP3   OH239709   2.301   4.406   7.834  0.9845  0.4159  0.1334
 6025TIP3    H139710   2.372   4.461   7.803 -0.0419  1.2954 -0.7189
 6025TIP3    H239711   2.226   4.428   7.779  0.0280 -0.4720  1.0065
 6026TIP3   OH239712   4.494   2.122   8.561 -0.5016  0.3342  0.2444
 6026TIP3    H139713   4.424   2.165   8.611  0.0074  1.9731 -0.3616
 6026TIP3    H239714   4.488   2.162   8.474  1.4865  0.9233  0.3230
 6027TIP3   OH239715   0.716   0.963   6.895  0.0783 -0.3350  0.5970
 6027TIP3    H139716   0.684   0.957   6.985 -0.3355 -1.2701  0.4043
 6027TIP3    H239717   0.807   0.935   6.899  0.7938  1.8833  1.0747
 6028TIP3   OH239718   3.853   4.854   6.534 -0.4659 -1.4141 -0.3540
 6028TIP3    H139719   3.829   4.838   6.443 -0.6323  0.7302 -0.7350
 6028TIP3    H239720   3.814   4.781   6.582 -0.1425 -2.7297 -2.0015
 6029TIP3   OH239721   0.590   6.433   1.187 -0.0945  0.2217  0.2127
 6029TIP3    H139722   0.629   6.350   1.161  0.8016  1.1019 -1.4392
 6029TIP3    H239723   0.557   6.418   1.275 -0.3288 -1.9878 -0.2034
 6030TIP3   OH239724   0.788   5.061   0.756  0.2625  0.0106  0.4941
 6030TIP3    H139725   0.750   5.103   0.834 -0.9326 -1.0502  0.5002
 6030TIP3    H239726   0.729   5.083   0.685  1.4812  1.1786 -0.2099
 6031TIP3   OH239727   3.521   5.808   6.542 -0.2880 -0.1604  0.2178
 6031TIP3    H139728   3.605   5.845   6.571 -0.9983  0.6728  1.2694
 6031TIP3    H239729   3.523   5.819   6.447  0.8883 -0.3799  0.1899
 6032TIP3   OH239730   6.176   4.420   0.251  0.6878  0.0364  0.0335
 6032TIP3    H139731   6.206   4.437   0.340 -0.1139 -1.3605  0.6077
 6032TIP3    H239732   6.110   4.351   0.261  0.3713  0.0614 -1.6116
 6033TIP3   OH239733   4.007   2.996   8.318  0.2434 -0.3594  0.7162
 6033TIP3    H139734   4.072   2.938   8.279 -0.8784 -0.4739 -1.0975
 6033TIP3    H239735   3.925   2.947   8.312 -0.6127  1.1022 -0.2681
 6034TIP3   OH239736   1.282   2.962   0.854  0.0703 -0.3154 -0.2501
 6034TIP3    H139737   1.326   3.024   0.795 -1.0229  0.2045 -0.5349
 6034TIP3    H239738   1.268   2.884   0.801  0.4029 -0.3942 -0.2295
 6035TIP3   OH239739   5.832   1.568   1.380  0.4764  0.4053  0.0435
 6035TIP3    H139740   5.784   1.530   1.307  1.1267 -1.5538  0.5473
 6035TIP3    H239741   5.788   1.535   1.458  1.1623  0.5737  0.5168
 6036TIP3   OH239742   5.806   5.705   8.333 -0.1010  0.2157  0.0955
 6036TIP3    H139743   5.878   5.761   8.364  0.1132  1.0474 -1.7973
 6036TIP3    H239744   5.751   5.763   8.281  0.0295 -1.2727 -1.7910
 6037TIP3   OH239745   1.720   1.491   0.875 -0.6385 -0.2917  0.7352
 6037TIP3    H139746   1.767   1.511   0.794  0.8346  0.3531  1.7029
 6037TIP3    H239747   1.711   1.396   0.875 -0.4582 -0.3140 -0.0798
 6038TIP3   OH239748   2.070   4.052   8.201 -0.4687  0.5916  0.3920
 6038TIP3    H139749   2.102   3.979   8.148 -0.7202  0.3650  0.5497
 6038TIP3    H239750   2.061   4.016   8.289 -0.4309  0.8582  0.5069
 6039TIP3   OH239751   5.362   4.726   2.833 -0.0096  0.1030  0.2471
 6039TIP3    H139752   5.316   4.774   2.765 -0.6093 -2.0071 -0.9092
 6039TIP3    H239753   5.433   4.680   2.787  0.2170 -0.5475  1.2109
 6040TIP3   OH239754   2.648   4.538   1.363  0.2182 -0.3501  0.0482
 6040TIP3    H139755   2.672   4.558   1.454 -0.5683 -0.7187  0.3462
 6040TIP3    H239756   2.626   4.622   1.324  0.9419 -0.1391  0.0755
 6041TIP3   OH239757   0.644   5.900   0.445  0.4391 -0.2363  0.0657
 6041TIP3    H139758   0.575   5.837   0.463 -0.5241  0.1925 -1.9095
 6041TIP3    H239759   0.599   5.984   0.436  1.4676  0.4107  0.6569
 6042TIP3   OH239760   0.148   4.248   7.132 -0.0453 -0.2225 -0.6690
 6042TIP3    H139761   0.131   4.325   7.078  1.1098 -0.3326 -1.2318
 6042TIP3    H239762   0.222   4.274   7.187  0.0469 -0.7735 -0.5292
 6043TIP3   OH239763   5.484   1.661   0.167 -0.0229 -0.4496 -0.0392
 6043TIP3    H139764   5.481   1.756   0.177  0.2649 -0.5496  1.1147
 6043TIP3    H239765   5.424   1.642   0.095 -1.1609  0.4741  0.6541
 6044TIP3   OH239766   3.590   2.026   6.745 -0.3520  0.3688  0.6046
 6044TIP3    H139767   3.645   2.088   6.697 -0.2144 -0.0575  0.2028
 6044TIP3    H239768   3.543   1.978   6.677 -2.0211  1.4127  0.9574
 6045TIP3   OH239769   0.254   2.912   1.117 -0.1911  0.5869 -0.2160
 6045TIP3    H139770   0.200   2.859   1.058 -0.9489  1.6188 -0.4843
 6045TIP3    H239771   0.299   2.848   1.172  0.3365 -0.4020 -1.7291
 6046TIP3   OH239772   3.553   4.962   8.365 -0.0418 -0.3213 -0.1537
 6046TIP3    H139773   3.461   4.942   8.347  0.1749 -0.6068 -1.0078
 6046TIP3    H239774   3.559   5.057   8.360  0.0384 -0.3897 -1.8765
 6047TIP3   OH239775   1.248   3.484   1.377  0.3816 -0.1882  0.1382
 6047TIP3    H139776   1.246   3.560   1.434 -1.1187 -0.6885  0.8129
 6047TIP3    H239777   1.241   3.520   1.288  1.0301  0.5129  0.3659
 6048TIP3   OH239778   6.909   4.199   0.741 -0.3004  0.2229  0.0350
 6048TIP3    H139779   6.821   4.233   0.760 -1.1008 -1.7911  0.2174
 6048TIP3    H239780   6.934   4.154   0.822  0.4036 -0.1920 -0.4112
 6049TIP3   OH239781   5.100   0.408   1.044 -0.7479  0.3644 -0.0147
 6049TIP3    H139782   5.087   0.317   1.072  2.2442 -0.4579 -0.8904
 6049TIP3    H239783   5.054   0.413   0.960  1.0326 -1.1906 -1.1857
 6050TIP3   OH239784   3.523   0.558   0.598 -0.1539 -0.4697 -0.1834
 6050TIP3    H139785   3.567   0.485   0.641  1.4169  0.2485 -0.5093
 6050TIP3    H239786   3.432   0.550   0.625  0.5905 -0.5162  2.6340
 6051TIP3   OH239787   5.738   0.324   7.632 -0.1794 -0.3142  0.3467
 6051TIP3    H139788   5.833   0.314   7.629 -0.0385  0.9573  0.0247
 6051TIP3    H239789   5.715   0.305   7.723  0.5389  0.5575  0.7211
 6052TIP3   OH239790   2.541   2.303   7.542 -0.2257 -0.5028 -0.0953
 6052TIP3    H139791   2.607   2.302   7.613  0.8802  1.5682 -0.9963
 6052TIP3    H239792   2.565   2.378   7.489 -2.2313 -0.8391 -1.5815
 6053TIP3   OH239793   4.455   6.016   0.322  0.0129  0.3181  0.4901
 6053TIP3    H139794   4.443   6.099   0.367  0.2105  1.5817 -1.6248
 6053TIP3    H239795   4.541   6.023   0.281  0.0938 -0.9927  0.3967
 6054TIP3   OH239796   2.688   5.548   1.327  0.3310 -0.3147  0.5676
 6054TIP3    H139797   2.703   5.541   1.232 -0.3523 -1.2769  0.5086
 6054TIP3    H239798   2.750   5.486   1.365  1.2564  0.7488  0.8378
 6055TIP3   OH239799   2.986   5.999   7.193 -0.1356 -0.1950 -0.3367
 6055TIP3    H139800   3.067   6.028   7.150 -0.3302  0.4619 -0.2748
 6055TIP3    H239801   2.964   5.917   7.150 -0.0416  0.1879 -1.1345
 6056TIP3   OH239802   5.485   0.349   8.328 -0.4436 -0.3634  0.2392
 6056TIP3    H139803   5.503   0.437   8.359  1.0288  0.4937 -2.6814
 6056TIP3    H239804   5.407   0.357   8.273  0.0597 -0.6971 -0.5587
 6057TIP3   OH239805   0.166   4.558   6.695 -0.1877 -0.2517 -0.5882
 6057TIP3    H139806   0.102   4.614   6.650 -0.0876  0.2676 -0.0928
 6057TIP3    H239807   0.250   4.579   6.655 -0.3766 -1.3176 -1.6099
 6058TIP3   OH239808   3.691   3.384   8.104  0.3430 -0.1485 -0.6527
 6058TIP3    H139809   3.627   3.401   8.035  1.0168  1.4318 -0.9321
 6058TIP3    H239810   3.679   3.456   8.166  0.2008 -1.1812  0.5734
 6059TIP3   OH239811   5.618   1.383   1.885 -0.1107  0.1234  0.4931
 6059TIP3    H139812   5.707   1.353   1.866 -0.1062  0.1760  0.4320
 6059TIP3    H239813   5.581   1.312   1.938  0.2487  0.4799  1.2384
 6060TIP3   OH239814   6.832   6.775   0.548  0.1111 -0.3012  0.1629
 6060TIP3    H139815   6.879   6.702   0.590 -1.3922 -1.1642  0.4070
 6060TIP3    H239816   6.787   6.818   0.620 -1.3817 -0.9561 -0.3409
 6061TIP3   OH239817   1.286   0.767   7.522 -0.1195 -0.1818 -0.1089
 6061TIP3    H139818   1.302   0.677   7.551 -0.2008 -0.0997  0.1970
 6061TIP3    H239819   1.335   0.821   7.585 -0.7072  0.0211  0.1778
 6062TIP3   OH239820   5.912   0.750   8.578 -0.0451 -0.1162 -0.1039
 6062TIP3    H139821   5.850   0.823   8.585 -0.1284  0.0163 -1.8370
 6062TIP3    H239822   5.924   0.721   8.668 -1.6287  0.6905  0.4126
 6063TIP3   OH239823   0.078   2.173   2.185  0.0659  0.1624  0.4826
 6063TIP3    H139824   0.004   2.135   2.231  1.1609 -1.8724  0.6651
 6063TIP3    H239825   0.131   2.098   2.158  0.5714  1.3554 -2.2533
 6064TIP3   OH239826   4.472   4.015   1.001  0.1327 -0.2914  0.6040
 6064TIP3    H139827   4.506   4.085   0.945 -2.1419  1.1724  0.9077
 6064TIP3    H239828   4.488   3.935   0.951 -0.2875  0.8005 -1.3973
 6065TIP3   OH239829   4.569   2.467   1.358 -0.3321 -0.3047  0.4903
 6065TIP3    H139830   4.533   2.380   1.374 -0.7205 -0.1575  0.4222
 6065TIP3    H239831   4.643   2.474   1.418 -0.6458 -0.4630  0.8988
 6066TIP3   OH239832   1.255   1.491   1.366 -0.7165 -0.2304 -0.5299
 6066TIP3    H139833   1.328   1.537   1.408 -0.3444 -0.6249 -0.7354
 6066TIP3    H239834   1.180   1.548   1.380 -0.2366  0.5291 -0.9237
 6067TIP3   OH239835   1.198   6.886   8.257  0.6237 -0.0113  0.0207
 6067TIP3    H139836   1.262   6.939   8.210 -0.0492  1.9330  1.1530
 6067TIP3    H239837   1.187   6.931   8.341 -1.0126 -1.2208  0.5124
 6068TIP3   OH239838   6.639   4.608   7.794 -0.3141 -0.0226 -0.0778
 6068TIP3    H139839   6.549   4.638   7.808 -0.0418  1.0465 -0.4689
 6068TIP3    H239840   6.637   4.515   7.815 -1.1656  0.2955  1.4268
 6069TIP3   OH239841   4.806   6.903   0.888  0.6340 -0.3618  0.4363
 6069TIP3    H139842   4.899   6.923   0.899  0.6152  0.0096 -0.0384
 6069TIP3    H239843   4.795   6.896   0.793  0.6421 -2.6435  0.5479
 6070TIP3   OH239844   0.749   2.932   7.288  0.0001 -0.0058  0.3389
 6070TIP3    H139845   0.660   2.965   7.278 -0.6716 -1.6242  0.6692
 6070TIP3    H239846   0.752   2.895   7.376  0.6602 -0.9413 -0.0580
 6071TIP3   OH239847   1.474   1.577   7.237  0.2356  0.0065  0.5393
 6071TIP3    H139848   1.515   1.534   7.162  0.9853  1.4956  0.0518
 6071TIP3    H239849   1.418   1.510   7.276 -0.2405 -0.7694 -1.4004
 6072TIP3   OH239850   1.080   3.074   2.584  0.6024 -0.7702 -0.6417
 6072TIP3    H139851   1.157   3.120   2.617  1.0100 -1.4922 -0.5555
 6072TIP3    H239852   1.070   3.105   2.494  1.2467 -0.9726 -0.7885
 6073TIP3   OH239853   0.346   2.744   6.545 -0.0040 -0.4129 -0.2414
 6073TIP3    H139854   0.272   2.714   6.598  0.0229  0.9105  0.5927
 6073TIP3    H239855   0.423   2.722   6.598  0.0242  0.8995  0.2986
 6074TIP3   OH239856   2.602   4.080   6.602 -0.5206  0.5794  0.5001
 6074TIP3    H139857   2.554   4.098   6.683 -3.1371  0.9841 -1.0255
 6074TIP3    H239858   2.546   4.020   6.553  0.8373  0.5606 -1.1556
 6075TIP3   OH239859   3.645   5.730   7.396  0.4759 -0.1613 -0.3115
 6075TIP3    H139860   3.670   5.814   7.358  1.5584 -0.0894  0.5195
 6075TIP3    H239861   3.619   5.750   7.486 -0.9371 -0.4882 -0.6236
 6076TIP3   OH239862   6.771   5.920   0.953  0.2944  0.8167  0.1824
 6076TIP3    H139863   6.815   5.870   1.022  0.6746 -0.5430 -0.9865
 6076TIP3    H239864   6.826   5.907   0.875 -1.2512  0.4452 -0.9086
 6077TIP3   OH239865   1.693   2.737   7.581 -0.1236  0.3032 -0.0105
 6077TIP3    H139866   1.631   2.731   7.655  0.4054  0.3523  0.4420
 6077TIP3    H239867   1.643   2.706   7.506 -1.2107  1.8358  0.0305
 6078TIP3   OH239868   3.201   5.155   0.887 -0.1834  0.4220 -0.5436
 6078TIP3    H139869   3.217   5.225   0.950  0.5094 -0.9577  0.9037
 6078TIP3    H239870   3.119   5.179   0.844 -0.6237  1.4855  0.8206
 6079TIP3   OH239871   1.783   2.071   0.311  0.4131  0.6662 -0.5736
 6079TIP3    H139872   1.878   2.062   0.324  0.0755 -0.1993  1.8220
 6079TIP3    H239873   1.763   2.159   0.342  0.3102  0.5258 -0.2437
 6080TIP3   OH239874   4.550   1.075   2.298 -0.1362 -0.3088 -0.3543
 6080TIP3    H139875   4.583   1.084   2.387 -1.1845 -0.3504  0.0533
 6080TIP3    H239876   4.606   1.131   2.245 -3.2968  5.0811  1.2649
 6081TIP3   OH239877   0.641   0.744   0.112  0.1057  0.0437 -0.3431
 6081TIP3    H139878   0.595   0.746   0.027  0.1540 -1.3834 -0.4313
 6081TIP3    H239879   0.597   0.674   0.161  1.5743 -0.7286 -0.0806
 6082TIP3   OH239880   4.880   5.788   8.641  0.0157 -0.1374  0.7430
 6082TIP3    H139881   4.962   5.755   8.603 -0.9509 -0.9906 -0.6837
 6082TIP3    H239882   4.860   5.726   8.711  0.5599  0.0558  1.0771
 6083TIP3   OH239883   4.078   4.655   7.382  0.5562 -0.1144 -0.2039
 6083TIP3    H139884   4.057   4.625   7.470  1.5693 -0.3037 -0.0104
 6083TIP3    H239885   4.002   4.631   7.329  0.7089 -1.7169  0.2366
 6084TIP3   OH239886   0.610   5.137   8.140 -0.2259  0.4578  0.2865
 6084TIP3    H139887   0.651   5.091   8.067  1.4926  1.6618  0.4509
 6084TIP3    H239888   0.528   5.089   8.155  0.5051 -1.2610 -0.8684
 6085TIP3   OH239889   6.691   5.355   6.717  0.4695  0.4338 -0.2515
 6085TIP3    H139890   6.654   5.336   6.631 -0.7005  1.7200 -0.0552
 6085TIP3    H239891   6.760   5.289   6.728 -1.0229 -1.3549 -1.0808
 6086TIP3   OH239892   6.239   5.760   0.121  0.3572  0.4490 -0.0512
 6086TIP3    H139893   6.261   5.844   0.080  0.3757  0.5833  0.2364
 6086TIP3    H239894   6.210   5.783   0.209 -2.1816  0.3868 -0.8050
 6087TIP3   OH239895   2.643   5.758   6.807 -0.4354  0.7734 -0.1476
 6087TIP3    H139896   2.685   5.812   6.741  0.9820  0.6531  0.6021
 6087TIP3    H239897   2.623   5.676   6.762  2.3411 -0.0902 -0.0312
 6088TIP3   OH239898   1.732   4.891   8.418 -0.4425 -0.0055  0.0866
 6088TIP3    H139899   1.753   4.966   8.362 -0.0483  0.0694  0.3306
 6088TIP3    H239900   1.791   4.900   8.493 -0.4182 -0.5379  0.1359
 6089TIP3   OH239901   0.131   3.548   6.926 -0.0283 -0.4232 -0.5368
 6089TIP3    H139902   0.212   3.599   6.929  0.2982 -0.9385  2.1057
 6089TIP3    H239903   0.062   3.613   6.910  0.6754  0.4013 -0.2885
 6090TIP3   OH239904   0.056   4.853   0.459 -0.2798  0.0233  0.4093
 6090TIP3    H139905   0.134   4.909   0.459  0.1858 -0.5892 -1.1025
 6090TIP3    H239906   0.041   4.834   0.552  1.9297 -0.6132  0.6987
 6091TIP3   OH239907   2.630   6.726   7.290 -0.0379  0.3027 -1.0331
 6091TIP3    H139908   2.669   6.640   7.272 -1.1440 -0.6240  0.7131
 6091TIP3    H239909   2.537   6.708   7.300 -0.0366  1.2821  1.5572
 6092TIP3   OH239910   4.934   6.096   0.923 -0.2382 -0.0255 -0.3795
 6092TIP3    H139911   4.999   6.125   0.859  1.5207 -1.4564  0.6338
 6092TIP3    H239912   4.913   6.174   0.974  0.8575  0.4287 -0.6038
 6093TIP3   OH239913   1.847   6.247   7.888 -0.3465  0.2935  0.0477
 6093TIP3    H139914   1.826   6.298   7.966 -0.4065 -1.5594  1.3015
 6093TIP3    H239915   1.799   6.290   7.817  0.7606  2.8364  0.7064
 6094TIP3   OH239916   2.966   6.618   8.169 -0.0181  0.1870 -0.2563
 6094TIP3    H139917   3.052   6.645   8.137  1.2314 -0.4840  2.3039
 6094TIP3    H239918   2.926   6.699   8.201 -0.2904  0.4629 -1.2524
 6095TIP3   OH239919   5.250   0.412   8.208  1.0363  0.1728 -0.3941
 6095TIP3    H139920   5.225   0.490   8.257  3.5819  0.6157  0.3162
 6095TIP3    H239921   5.167   0.380   8.171 -0.3835  1.9887  1.0108
 6096TIP3   OH239922   1.290   4.946   7.976 -0.2741 -0.4409 -0.5455
 6096TIP3    H139923   1.347   4.979   7.907 -1.0577  4.2658  0.7525
 6096TIP3    H239924   1.350   4.907   8.040  1.8871  4.5024  0.8995
 6097TIP3   OH239925   4.142   2.818   0.980  0.2494 -0.5369  0.3456
 6097TIP3    H139926   4.189   2.860   1.052  0.4211  0.0156 -0.0809
 6097TIP3    H239927   4.183   2.732   0.972  1.2257 -0.0447 -0.0531
 6098TIP3   OH239928   5.370   1.203   7.052  0.0364  0.5523 -0.5820
 6098TIP3    H139929   5.331   1.138   6.993  0.2982  0.4826 -0.6771
 6098TIP3    H239930   5.464   1.196   7.038  0.3521 -1.3398  1.7162
 6099TIP3   OH239931   6.525   2.819   6.323  0.3972  0.3406 -0.0062
 6099TIP3    H139932   6.459   2.887   6.340  0.7890  0.8482 -0.4799
 6099TIP3    H239933   6.601   2.846   6.375  1.2064  1.2912 -1.6044
 6100TIP3   OH239934   2.547   5.419   7.583 -0.1797 -0.1125 -0.2674
 6100TIP3    H139935   2.517   5.509   7.584  0.7502  0.2365 -1.3929
 6100TIP3    H239936   2.642   5.424   7.593 -0.1928 -1.0214  0.5038
 6101TIP3   OH239937   0.386   5.513   8.422  0.1400  0.5537  0.4045
 6101TIP3    H139938   0.412   5.425   8.394  2.2273  1.0599  0.6057
 6101TIP3    H239939   0.414   5.570   8.351  0.0512  1.2071  0.8868
 6102TIP3   OH239940   0.936   3.100   6.226  0.1299  0.0636  0.4819
 6102TIP3    H139941   0.869   3.164   6.250 -0.8115 -0.3560 -0.9225
 6102TIP3    H239942   0.916   3.076   6.136  0.8716 -1.7178  0.7401
 6103TIP3   OH239943   3.227   1.906   0.515  0.5475 -0.0714 -0.7233
 6103TIP3    H139944   3.147   1.857   0.534  0.8832 -0.7082 -0.9060
 6103TIP3    H239945   3.251   1.945   0.599  0.2482 -0.1845 -0.5812
 6104TIP3   OH239946   5.161   4.498   1.519  0.7815 -0.1054  0.1702
 6104TIP3    H139947   5.120   4.572   1.563  0.8169  1.6615 -2.5933
 6104TIP3    H239948   5.242   4.483   1.569  0.7974  1.7425  0.7730
 6105TIP3   OH239949   3.518   6.601   0.288  0.4801  0.2688  0.0996
 6105TIP3    H139950   3.504   6.695   0.294 -1.1293  0.0363  0.4594
 6105TIP3    H239951   3.505   6.569   0.378  0.0765 -0.4001 -0.1894
 6106TIP3   OH239952   1.710   0.556   1.740 -0.7325 -0.4590 -0.0622
 6106TIP3    H139953   1.768   0.512   1.802  0.3614  2.4871  1.1592
 6106TIP3    H239954   1.632   0.576   1.791 -1.4213 -1.3209 -0.7418
 6107TIP3   OH239955   6.223   1.004   7.927 -0.1070 -0.0859  0.3773
 6107TIP3    H139956   6.255   0.924   7.886 -2.0651 -0.3659 -0.7803
 6107TIP3    H239957   6.220   1.068   7.856  0.2036  0.6278  0.9957
 6108TIP3   OH239958   5.244   0.958   1.567  0.0067 -0.2371  0.2204
 6108TIP3    H139959   5.173   1.018   1.590 -1.2490 -1.4126 -0.4296
 6108TIP3    H239960   5.236   0.946   1.472  1.1776 -0.2893  0.1049
 6109TIP3   OH239961   0.397   0.283   8.136  0.2817  1.2669  0.1796
 6109TIP3    H139962   0.488   0.311   8.138  0.7583 -0.1237 -0.7297
 6109TIP3    H239963   0.362   0.306   8.222  1.6713  1.1889  0.7820
 6110TIP3   OH239964   1.248   2.140   8.523  0.3105 -0.3863  0.2670
 6110TIP3    H139965   1.177   2.117   8.583  0.0988  0.9762  0.5629
 6110TIP3    H239966   1.225   2.226   8.489  2.0618  0.3241  0.7707
 6111TIP3   OH239967   2.236   1.653   2.159  0.8765 -0.3857 -0.2465
 6111TIP3    H139968   2.253   1.743   2.187  0.8265 -0.7161  0.8816
 6111TIP3    H239969   2.144   1.638   2.181  1.5175 -1.5262  1.9616
 6112TIP3   OH239970   4.685   5.747   8.456 -0.5988  0.2221  0.1300
 6112TIP3    H139971   4.738   5.766   8.533  0.4041 -0.6588 -0.3260
 6112TIP3    H239972   4.743   5.763   8.382 -0.9257 -0.8524 -0.3788
 6113TIP3   OH239973   1.149   6.849   0.644  0.4495  0.0859  0.3972
 6113TIP3    H139974   1.222   6.818   0.698  1.1636  0.8044 -0.1264
 6113TIP3    H239975   1.131   6.777   0.584 -0.9237 -1.0626  2.1114
 6114TIP3   OH239976   0.565   6.914   1.249  0.3558 -0.0996  0.0769
 6114TIP3    H139977   0.478   6.919   1.290  0.2817 -0.0488 -0.0861
 6114TIP3    H239978   0.616   6.858   1.308  0.3539  0.2614  0.4226
 6115TIP3   OH239979   5.699   2.385   7.638 -0.1086 -0.6904  0.0624
 6115TIP3    H139980   5.699   2.467   7.689 -0.2528 -0.6639  0.0193
 6115TIP3    H239981   5.609   2.376   7.608  0.0240 -0.5979 -0.3632
 6116TIP3   OH239982   2.336   5.242   0.757  0.5318 -0.4353 -0.1566
 6116TIP3    H139983   2.283   5.163   0.766  0.7435 -0.6141 -0.4862
 6116TIP3    H239984   2.425   5.210   0.740  0.7788 -0.1385  0.5415
 6117TIP3   OH239985   6.829   0.000   6.374 -0.4153  0.2314 -0.1866
 6117TIP3    H139986   6.827  -0.069   6.307  1.2075  0.8662 -0.9409
 6117TIP3    H239987   6.829   0.082   6.324  3.1782  0.7295  0.3854
 6118TIP3   OH239988   4.050   5.822   8.346 -0.2379 -0.2595  0.3581
 6118TIP3    H139989   4.002   5.847   8.267  0.2438 -1.1574 -0.2379
 6118TIP3    H239990   4.003   5.744   8.378  1.9272 -2.4755 -1.4206
 6119TIP3   OH239991   4.579   6.688   6.412 -0.3155  0.3485 -0.0177
 6119TIP3    H139992   4.486   6.678   6.431 -0.5179  0.9679 -0.6502
 6119TIP3    H239993   4.601   6.775   6.444  0.6269 -0.6835  2.3291
 6120TIP3   OH239994   1.553   3.684   7.830  0.0639 -0.4821  0.2321
 6120TIP3    H139995   1.471   3.682   7.879  0.5674  2.6874  1.4953
 6120TIP3    H239996   1.527   3.672   7.738 -1.5688 -1.2393  0.7585
 6121TIP3   OH239997   4.406   4.969   1.401 -0.1583  0.1394  0.6513
 6121TIP3    H139998   4.397   4.972   1.306  2.1951  0.1934  0.3800
 6121TIP3    H239999   4.431   4.878   1.419 -2.6823 -0.4652  1.4981
 6122TIP3   OH240000   3.312   4.025   2.486  0.4637 -0.5374  0.4244
 6122TIP3    H140001   3.398   3.995   2.514  0.1112 -1.3554  0.6540
 6122TIP3    H240002   3.295   4.102   2.540  0.2965 -1.4153  1.6549
 6123TIP3   OH240003   2.747   4.075   1.352  0.3342  0.0053 -0.4294
 6123TIP3    H140004   2.675   4.012   1.345  2.7565 -2.8608 -1.4569
 6123TIP3    H240005   2.760   4.086   1.446 -1.7844  1.1253 -0.1966
 6124TIP3   OH240006   4.154   3.279   1.698  0.0612 -0.1963 -0.1224
 6124TIP3    H140007   4.234   3.254   1.652  0.6625  0.0867  0.7541
 6124TIP3    H240008   4.131   3.201   1.749 -0.2605 -0.2924 -0.4042
 6125TIP3   OH240009   5.228   4.823   1.889 -0.3609  0.4895  0.6218
 6125TIP3    H140010   5.227   4.758   1.959  0.6086  1.1259  1.2502
 6125TIP3    H240011   5.320   4.826   1.861 -0.9959 -1.1313 -2.0024
 6126TIP3   OH240012   0.292   0.303   7.887 -0.6431  0.1447  1.0125
 6126TIP3    H140013   0.294   0.211   7.859  0.3405  0.5845 -0.4664
 6126TIP3    H240014   0.330   0.302   7.975 -0.4876 -0.8505  0.9473
 6127TIP3   OH240015   2.049   3.044   0.585  0.1233 -0.2241  0.4871
 6127TIP3    H140016   2.040   3.136   0.558  1.6727  0.3641  1.8087
 6127TIP3    H240017   1.959   3.011   0.587 -0.3023  0.5470 -2.2382
 6128TIP3   OH240018   5.193   1.833   6.953 -0.0054  0.2850  0.4501
 6128TIP3    H140019   5.234   1.919   6.948  0.0037  0.2120 -1.3513
 6128TIP3    H240020   5.103   1.848   6.924 -0.1756 -0.2118  0.7065
 6129TIP3   OH240021   5.266   5.384   8.462  0.2423 -0.1787  0.1462
 6129TIP3    H140022   5.275   5.318   8.532 -0.2932  1.5232  1.9129
 6129TIP3    H240023   5.311   5.461   8.497 -2.0191  1.4742 -0.3479
 6130TIP3   OH240024   4.741   5.079   6.833  0.1088 -0.5486 -0.0509
 6130TIP3    H140025   4.779   5.091   6.920 -1.4467 -1.8227  0.8560
 6130TIP3    H240026   4.799   5.016   6.790  1.6236  1.0375 -0.4992
 6131TIP3   OH240027   1.645   6.734   7.589  0.2049  0.2700  0.3470
 6131TIP3    H140028   1.557   6.728   7.553 -0.5775 -1.9244  2.3526
 6131TIP3    H240029   1.701   6.691   7.525 -0.3919  0.4723 -0.3176
 6132TIP3   OH240030   1.260   0.977   8.303  0.2274  0.1577 -0.3523
 6132TIP3    H140031   1.227   0.893   8.336  0.1241  0.1826 -0.3938
 6132TIP3    H240032   1.210   0.993   8.223 -1.9687  1.7436  1.2219
 6133TIP3   OH240033   0.794   3.379   1.667  0.6939  0.2493  0.0441
 6133TIP3    H140034   0.717   3.408   1.715  0.8436  0.2521  0.2867
 6133TIP3    H240035   0.833   3.459   1.632  1.0920  0.3441  0.6907
 6134TIP3   OH240036   3.433   6.401   0.790 -0.8850  0.1634 -0.9291
 6134TIP3    H140037   3.400   6.311   0.799 -0.0575  0.0258  1.1513
 6134TIP3    H240038   3.393   6.449   0.862  0.0783  1.0244 -0.9483
 6135TIP3   OH240039   2.125   6.769   8.421  0.5737  0.6829 -0.3136
 6135TIP3    H140040   2.147   6.691   8.471 -2.5235  0.1147  0.3974
 6135TIP3    H240041   2.144   6.842   8.480  1.1520  0.3090 -0.0349
 6136TIP3   OH240042   6.253   6.759   6.373  0.5285 -0.9693 -0.4314
 6136TIP3    H140043   6.349   6.766   6.368  0.8083 -1.9183  2.0563
 6136TIP3    H240044   6.231   6.686   6.315  1.5547 -1.9315  0.3404
 6137TIP3   OH240045   2.289   2.874   1.774 -0.7530 -0.2688 -0.1084
 6137TIP3    H140046   2.308   2.827   1.855  1.5478  2.0707  0.8477
 6137TIP3    H240047   2.356   2.843   1.712 -1.2398 -0.5712 -0.4917
 6138TIP3   OH240048   4.078   4.057   0.742 -0.3898  0.4769  0.4222
 6138TIP3    H140049   4.035   4.007   0.812  0.9861 -0.3262  0.7243
 6138TIP3    H240050   4.007   4.076   0.681 -1.2085 -0.7491  0.9246
 6139TIP3   OH240051   0.032   5.978   0.750 -0.3381  0.5497  0.4886
 6139TIP3    H140052   0.087   6.031   0.692  0.3307 -0.9965 -0.3801
 6139TIP3    H240053   0.092   5.912   0.785 -1.3645 -0.3819  0.5518
 6140TIP3   OH240054   3.198   0.094   6.141 -0.5317  0.2795 -0.3112
 6140TIP3    H140055   3.104   0.108   6.143 -0.7191 -0.9199  0.1808
 6140TIP3    H240056   3.229   0.129   6.225 -0.4901  0.9479 -0.6013
 6141TIP3   OH240057   5.752   0.764   1.751  0.2904  0.2338 -0.0005
 6141TIP3    H140058   5.698   0.684   1.755  0.9240 -0.2136 -0.2704
 6141TIP3    H240059   5.705   0.827   1.805  0.2938 -0.6361  1.0540
 6142TIP3   OH240060   0.476   3.100   0.714  0.1909 -0.1722 -0.2884
 6142TIP3    H140061   0.431   3.184   0.707 -1.4241 -0.9816 -0.3887
 6142TIP3    H240062   0.405   3.037   0.725  1.3266 -1.5729 -0.6917
 6143TIP3   OH240063   5.125   6.495   7.325  0.1264 -0.2752  0.4649
 6143TIP3    H140064   5.045   6.529   7.286  0.4010 -0.2191 -0.0518
 6143TIP3    H240065   5.141   6.413   7.279  1.0467  0.3228 -0.3075
 6144TIP3   OH240066   3.328   2.009   7.104  0.1836  0.1550 -0.4937
 6144TIP3    H140067   3.236   2.015   7.128  0.0681  1.3135 -1.1604
 6144TIP3    H240068   3.335   2.059   7.023  1.3671 -0.0758 -0.5494
 6145TIP3   OH240069   4.385   4.848   6.610  0.5021 -0.0692 -0.3546
 6145TIP3    H140070   4.461   4.903   6.590  1.1674 -0.0263  1.9521
 6145TIP3    H240071   4.423   4.764   6.637 -0.4313 -1.0934 -2.0768
 6146TIP3   OH240072   6.288   4.316   7.783  0.2325 -0.4337 -0.2442
 6146TIP3    H140073   6.325   4.284   7.865  1.1121 -0.4110 -0.6285
 6146TIP3    H240074   6.357   4.303   7.718  0.3320  1.4805 -0.5780
 6147TIP3   OH240075   4.929   1.053   2.081  0.0780  0.2746  0.7190
 6147TIP3    H140076   4.947   1.056   2.175 -0.7782  2.4657  0.8772
 6147TIP3    H240077   4.848   1.103   2.070 -0.0339 -0.2232 -1.1616
 6148TIP3   OH240078   1.827   3.997   0.221  0.0990  0.1018 -0.2173
 6148TIP3    H140079   1.820   4.046   0.302 -0.1225  0.7753 -0.6354
 6148TIP3    H240080   1.768   4.042   0.160  1.7273  0.8473 -1.3424
 6149TIP3   OH240081   1.374   0.602   0.665 -0.0352 -0.4271 -0.0769
 6149TIP3    H140082   1.322   0.544   0.721  0.2760 -1.5577 -0.9168
 6149TIP3    H240083   1.463   0.593   0.697 -0.0797  0.0834  0.1925
 6150TIP3   OH240084   5.308   3.907   8.619 -0.1304 -0.4269 -0.1207
 6150TIP3    H140085   5.369   3.839   8.589  2.3264  1.9748 -0.9966
 6150TIP3    H240086   5.353   3.989   8.598 -2.4857  1.4798  1.8408
 6151TIP3   OH240087   4.916   1.348   7.538  0.0521  0.4288 -0.4932
 6151TIP3    H140088   4.870   1.404   7.476 -0.6680  2.5728  1.7833
 6151TIP3    H240089   4.991   1.313   7.489 -2.4434 -1.0891 -3.5720
 6152TIP3   OH240090   5.637   0.258   7.919 -0.2093  0.0158  0.0988
 6152TIP3    H140091   5.731   0.237   7.920  0.2706  1.7740  3.0676
 6152TIP3    H240092   5.600   0.207   7.991 -1.1999  0.6226  0.0314
 6153TIP3   OH240093   2.391   6.811   0.863 -0.0304  0.3555  0.6676
 6153TIP3    H140094   2.309   6.850   0.892  0.3149 -0.4085  2.8581
 6153TIP3    H240095   2.364   6.733   0.813 -0.6342  0.6909  0.4614
 6154TIP3   OH240096   2.837   2.831   6.513 -0.0667 -0.2243  0.2591
 6154TIP3    H140097   2.929   2.807   6.499 -0.0116  0.2842 -0.2712
 6154TIP3    H240098   2.788   2.755   6.482  0.1946 -0.9444  1.5426
 6155TIP3   OH240099   0.173   4.422   7.431 -0.3534  1.0833  0.0301
 6155TIP3    H140100   0.220   4.460   7.504 -0.0618  0.1136  0.3715
 6155TIP3    H240101   0.239   4.413   7.362 -0.1509  0.2514  0.3139
 6156TIP3   OH240102   4.785   4.129   8.479  0.0607  0.1212  0.7344
 6156TIP3    H140103   4.721   4.176   8.425  0.1233 -1.1529 -0.4854
 6156TIP3    H240104   4.869   4.165   8.451  0.4711 -3.0617 -2.8873
 6157TIP3   OH240105   6.762   0.015   8.249 -0.4818 -0.5079  0.2862
 6157TIP3    H140106   6.757  -0.007   8.343 -1.7517  0.1008  0.3837
 6157TIP3    H240107   6.786   0.108   8.248  3.0787 -1.3219 -0.0923
 6158TIP3   OH240108   5.338   3.537   8.410 -0.0275 -0.6483 -0.0785
 6158TIP3    H140109   5.313   3.470   8.473  4.1662 -1.9458  0.4975
 6158TIP3    H240110   5.393   3.492   8.346 -2.2412  1.0884 -3.5068
 6159TIP3   OH240111   1.899   3.441   6.085  0.4606 -0.2956 -0.4005
 6159TIP3    H140112   1.872   3.361   6.130  1.8186 -1.1669 -1.0740
 6159TIP3    H240113   1.818   3.476   6.048 -0.0291 -1.8355 -0.8381
 6160TIP3   OH240114   6.093   3.667   7.250  0.2045 -0.2279 -0.4317
 6160TIP3    H140115   6.086   3.760   7.229  0.3059 -0.2913 -0.7563
 6160TIP3    H240116   6.105   3.625   7.165  0.7569 -0.4804 -0.2259
 6161TIP3   OH240117   0.935   5.537   0.523  0.1365  0.4665  0.0587
 6161TIP3    H140118   0.875   5.542   0.449 -0.7519  1.4771  0.8201
 6161TIP3    H240119   0.982   5.455   0.511  1.0714  1.2862 -2.4118
 6162TIP3   OH240120   2.316   4.327   0.211  0.4228 -0.1910 -0.0146
 6162TIP3    H140121   2.293   4.290   0.125  1.8100 -0.8626 -0.1370
 6162TIP3    H240122   2.379   4.264   0.247 -0.4598 -0.1267  1.6946
 6163TIP3   OH240123   2.463   1.444   0.397  0.1389  0.2905 -0.2391
 6163TIP3    H140124   2.461   1.525   0.347  0.4548  0.7074  0.4048
 6163TIP3    H240125   2.549   1.406   0.379 -0.1120 -0.0343 -0.7479
 6164TIP3   OH240126   1.282   2.351   0.745  0.0808  0.3955  0.6065
 6164TIP3    H140127   1.214   2.380   0.806 -0.3585  2.3063 -0.7068
 6164TIP3    H240128   1.237   2.289   0.687 -0.1852  0.5844  0.6092
 6165TIP3   OH240129   2.460   6.666   8.634  0.3025 -0.3858  0.6244
 6165TIP3    H140130   2.505   6.626   8.559 -0.3196  0.7733 -0.4128
 6165TIP3    H240131   2.508   6.633   8.710  0.7710 -1.8471 -0.2418
 6166TIP3   OH240132   4.162   1.350   0.081 -0.2176  0.6470  0.4006
 6166TIP3    H140133   4.115   1.305   0.011 -0.8038  0.8653  0.6432
 6166TIP3    H240134   4.176   1.283   0.148  1.5199  0.1026 -0.4662
 6167TIP3   OH240135   5.580   3.661   6.892 -0.9103  0.5269  0.4227
 6167TIP3    H140136   5.651   3.648   6.955  0.1333  0.0193 -0.8112
 6167TIP3    H240137   5.543   3.574   6.879 -2.9084  1.0141  2.2819
 6168TIP3   OH240138   1.292   5.427   8.575  0.0539 -0.1690  0.1266
 6168TIP3    H140139   1.275   5.410   8.667  1.2348  0.7094  0.5315
 6168TIP3    H240140   1.379   5.391   8.559  0.0739  0.1421 -0.5085
 6169TIP3   OH240141   0.084   2.154   0.999  0.3844 -0.2773 -0.0183
 6169TIP3    H140142   0.003   2.187   1.037  0.2982  0.0909 -0.5065
 6169TIP3    H240143   0.066   2.149   0.905  1.0614  0.2325 -0.1856
 6170TIP3   OH240144   0.372   4.076   7.945  0.4644  0.5823  0.1206
 6170TIP3    H140145   0.325   4.004   7.988  0.2441  0.8784  0.3806
 6170TIP3    H240146   0.336   4.078   7.857  1.9825 -1.0074 -0.5940
 6171TIP3   OH240147   6.367   5.168   1.180  0.0393 -0.0938  0.3602
 6171TIP3    H140148   6.384   5.118   1.260  1.9949 -0.0048  0.0492
 6171TIP3    H240149   6.412   5.251   1.193  1.8046 -0.6816 -1.4209
 6172TIP3   OH240150   1.591   1.721   7.735 -0.0455  0.5582  0.3480
 6172TIP3    H140151   1.549   1.807   7.747  2.1332  1.5545  1.4566
 6172TIP3    H240152   1.637   1.729   7.652  0.8622  0.8265  0.8568
 6173TIP3   OH240153   3.947   2.204   8.331  0.3278  0.5966  0.0302
 6173TIP3    H140154   3.961   2.125   8.279 -1.0168 -0.6745  1.5235
 6173TIP3    H240155   3.864   2.240   8.299 -1.7155 -1.4474  2.6735
 6174TIP3   OH240156   6.377   0.339   1.493 -0.1318 -0.5563  0.4275
 6174TIP3    H140157   6.379   0.243   1.486 -2.7218 -0.5928 -0.8983
 6174TIP3    H240158   6.379   0.356   1.587  0.2731 -1.9110  0.6920
 6175TIP3   OH240159   4.318   4.149   2.150 -0.0675 -0.3304  0.7744
 6175TIP3    H140160   4.401   4.106   2.127  1.0855  1.5338  1.2633
 6175TIP3    H240161   4.262   4.134   2.074  1.6521  0.6261 -0.7737
 6176TIP3   OH240162   0.517   5.523   0.929 -0.1955 -0.2919 -0.3285
 6176TIP3    H140163   0.525   5.437   0.969  0.1744 -0.1665 -0.1315
 6176TIP3    H240164   0.523   5.506   0.835  0.1474 -0.4506 -0.2776
 6177TIP3   OH240165   1.793   6.017   7.750  0.6096  0.1487 -0.1515
 6177TIP3    H140166   1.868   5.996   7.695  0.1206 -0.9514 -0.4304
 6177TIP3    H240167   1.825   6.083   7.811  2.0123 -0.8121  0.1982
 6178TIP3   OH240168   0.442   4.428   0.225  0.5979 -0.1354  0.2201
 6178TIP3    H140169   0.521   4.421   0.279 -0.5497  1.5428  2.2458
 6178TIP3    H240170   0.370   4.429   0.288 -0.8734  1.1836 -1.3972
 6179TIP3   OH240171   1.572   3.687   7.315 -0.0636  0.1502 -0.6465
 6179TIP3    H140172   1.509   3.746   7.274 -1.4869 -0.9367 -0.1279
 6179TIP3    H240173   1.534   3.668   7.401  1.2622 -0.1228 -0.0916
 6180TIP3   OH240174   0.875   6.136   1.414  0.6827  0.5272  0.2491
 6180TIP3    H140175   0.899   6.219   1.374 -0.9613 -0.5321 -3.4213
 6180TIP3    H240176   0.788   6.153   1.452 -0.4057  0.2330 -1.9329
 6181TIP3   OH240177   5.184   5.979   7.770  0.1672 -0.7892 -0.1382
 6181TIP3    H140178   5.268   6.019   7.793  0.4858  0.1272 -2.6464
 6181TIP3    H240179   5.161   5.927   7.848  1.6506  1.1222  1.6979
 6182TIP3   OH240180   2.772   4.406   6.299 -1.0077  0.1827 -0.1506
 6182TIP3    H140181   2.866   4.395   6.310 -1.1545 -0.6280  0.4194
 6182TIP3    H240182   2.752   4.365   6.215 -1.0954 -1.3350  0.5640
 6183TIP3   OH240183   1.237   3.509   0.455 -0.3295 -0.0529 -0.4535
 6183TIP3    H140184   1.163   3.565   0.479  0.7670  1.0971  0.4719
 6183TIP3    H240185   1.198   3.429   0.421 -2.0055  1.6715 -2.9265
 6184TIP3   OH240186   3.066   0.350   1.591  0.7913  0.1044 -0.2093
 6184TIP3    H140187   3.140   0.317   1.643 -0.1936 -1.9554 -0.0135
 6184TIP3    H240188   2.990   0.341   1.649 -0.1643 -1.1825 -1.5850
 6185TIP3   OH240189   4.643   1.344   1.636 -0.5528  0.1276 -0.0412
 6185TIP3    H140190   4.596   1.278   1.586 -0.0718 -0.9070  0.8410
 6185TIP3    H240191   4.581   1.373   1.703 -1.2262  1.5722 -1.2221
 6186TIP3   OH240192   3.672   4.624   8.427 -0.2461  0.3153  0.1920
 6186TIP3    H140193   3.656   4.690   8.494 -0.4054  0.4084  0.0636
 6186TIP3    H240194   3.755   4.584   8.452 -0.5124  0.0510  0.6905
 6187TIP3   OH240195   1.325   2.733   6.593  0.4862  0.2280 -0.4516
 6187TIP3    H140196   1.312   2.653   6.542 -0.2611  0.4294 -0.5937
 6187TIP3    H240197   1.390   2.783   6.543  0.7516 -0.1642 -0.5041
 6188TIP3   OH240198   1.527   4.829   7.902  0.5036 -0.2135 -0.3911
 6188TIP3    H140199   1.617   4.857   7.916 -0.2531  2.1999  0.2493
 6188TIP3    H240200   1.529   4.734   7.913  2.7219 -0.0767  0.9912
 6189TIP3   OH240201   2.528   5.604   0.721 -0.0249  0.0883 -0.1182
 6189TIP3    H140202   2.448   5.605   0.774  0.3323  0.0619  0.4322
 6189TIP3    H240203   2.572   5.523   0.747  0.8170  0.7467  0.5515
 6190TIP3   OH240204   5.802   2.640   0.568 -0.2615  0.0045 -0.3393
 6190TIP3    H140205   5.814   2.664   0.660 -0.7048 -1.5100  0.1444
 6190TIP3    H240206   5.884   2.595   0.544 -0.6778 -0.8357 -0.2429
 6191TIP3   OH240207   3.559   5.528   7.188  0.2755 -0.1706 -0.2473
 6191TIP3    H140208   3.529   5.605   7.235  0.1648  0.6135 -1.5626
 6191TIP3    H240209   3.654   5.533   7.192  0.3322  1.3406 -2.3101
 6192TIP3   OH240210   2.243   2.917   7.519  0.4295  0.0740 -0.1191
 6192TIP3    H140211   2.306   2.990   7.521  0.3348  0.1515  0.9971
 6192TIP3    H240212   2.227   2.897   7.612  0.5225 -1.4382 -0.4071
 6193TIP3   OH240213   6.840   4.596   6.408 -0.1313 -0.0622  0.7663
 6193TIP3    H140214   6.764   4.568   6.459 -2.8486  1.9771 -1.8168
 6193TIP3    H240215   6.873   4.516   6.367 -1.7834 -0.8262  0.8800
 6194TIP3   OH240216   1.052   3.178   0.866  0.1489  0.1836  0.3851
 6194TIP3    H140217   1.100   3.130   0.934  0.9405  0.4686  0.0350
 6194TIP3    H240218   1.009   3.249   0.912  1.3098  0.8374  0.4860
 6195TIP3   OH240219   3.387   3.076   2.358  0.2420 -0.3615  0.5125
 6195TIP3    H140220   3.367   3.134   2.431 -0.9428 -0.6660  0.4445
 6195TIP3    H240221   3.325   3.004   2.367  1.0085 -1.1064  0.0012
 6196TIP3   OH240222   1.008   0.859   7.906  0.3423  0.0714 -0.1287
 6196TIP3    H140223   0.962   0.896   7.981 -1.1496 -1.5937 -0.1810
 6196TIP3    H240224   1.091   0.907   7.903  1.0822 -0.7349  3.3936
 6197TIP3   OH240225   2.072   1.048   8.302 -0.6318 -0.0990 -0.2669
 6197TIP3    H140226   2.057   1.045   8.396 -1.1580 -0.7367 -0.3691
 6197TIP3    H240227   2.167   1.040   8.293 -0.6870 -1.4081  0.1636
 6198TIP3   OH240228   6.690   3.115   6.680  0.5261  0.0107 -0.2373
 6198TIP3    H140229   6.731   3.069   6.753  0.8322  1.0454  0.2706
 6198TIP3    H240230   6.598   3.087   6.681  0.7356 -0.6613 -0.0169
 6199TIP3   OH240231   6.642   2.766   1.753  0.0255  0.0172  0.3788
 6199TIP3    H140232   6.652   2.745   1.660  2.6239  1.0437  0.3512
 6199TIP3    H240233   6.650   2.682   1.797 -1.3554 -0.4973 -0.3041
 6200TIP3   OH240234   3.764   3.770   8.616 -0.3404 -0.4254 -1.1647
 6200TIP3    H140235   3.751   3.753   8.710  0.5015  0.5768 -0.8459
 6200TIP3    H240236   3.765   3.683   8.576 -1.6032 -0.8270 -0.3809
 6201TIP3   OH240237   2.080   6.535   0.864  0.0228 -0.4537 -0.3528
 6201TIP3    H140238   2.158   6.534   0.808  1.2260 -0.8410  1.2513
 6201TIP3    H240239   2.009   6.508   0.806  0.8869  0.8357 -2.0927
 6202TIP3   OH240240   1.150   6.002   6.210 -0.7764  0.4039  0.4374
 6202TIP3    H140241   1.203   6.082   6.203  1.8213 -1.1723  0.7895
 6202TIP3    H240242   1.159   5.961   6.124 -0.9642 -0.1616  0.6870
 6203TIP3   OH240243   6.887   5.044   8.410 -0.5357 -0.1608  0.5437
 6203TIP3    H140244   6.859   4.964   8.454 -0.6838  0.0888  0.9074
 6203TIP3    H240245   6.848   5.115   8.462 -3.2903  0.1179 -1.6947
 6204TIP3   OH240246   4.222   2.771   0.394 -0.0054 -0.0255 -0.2149
 6204TIP3    H140247   4.170   2.850   0.407 -0.8549 -0.8154  1.5680
 6204TIP3    H240248   4.229   2.762   0.299 -2.6244  0.4400 -0.5227
 6205TIP3   OH240249   6.129   6.138   7.373  0.0348 -0.5606  0.2031
 6205TIP3    H140250   6.101   6.136   7.281  1.3509 -2.6062 -0.2230
 6205TIP3    H240251   6.162   6.226   7.386 -3.0683  0.8127 -0.3049
 6206TIP3   OH240252   1.606   5.787   7.647 -0.8629  0.1004 -0.2910
 6206TIP3    H140253   1.686   5.768   7.696 -0.1591 -0.1087 -1.4957
 6206TIP3    H240254   1.567   5.861   7.693 -0.3387 -0.2271  0.7139
 6207TIP3   OH240255   1.069   2.717   0.579 -0.4421  0.0615  0.1534
 6207TIP3    H140256   1.010   2.771   0.631 -0.0742  1.8531 -1.2041
 6207TIP3    H240257   1.153   2.762   0.583 -0.1017 -0.4510 -0.9677
 6208TIP3   OH240258   5.576   4.380   0.018  0.6801 -0.1840 -0.0780
 6208TIP3    H140259   5.662   4.394   0.056  0.7009 -0.8960  0.1478
 6208TIP3    H240260   5.515   4.405   0.088  0.6873  0.8617 -0.4295
 6209TIP3   OH240261   6.679   3.449   7.571  0.3589  0.4267  0.4972
 6209TIP3    H140262   6.666   3.355   7.556 -1.4945  0.4159  1.9066
 6209TIP3    H240263   6.591   3.487   7.569  1.1371  2.3170 -0.9343
 6210TIP3   OH240264   5.880   1.443   0.582  0.4053 -0.2651 -0.4206
 6210TIP3    H140265   5.798   1.427   0.629 -0.2638 -1.8053 -2.0187
 6210TIP3    H240266   5.864   1.521   0.531  0.4361  0.2315  0.3068
 6211TIP3   OH240267   0.319   2.602   2.351 -0.4342 -0.0433  0.3556
 6211TIP3    H140268   0.333   2.696   2.363 -1.6636  0.3987 -1.1893
 6211TIP3    H240269   0.224   2.593   2.346 -0.3196 -1.3256  0.1159
 6212TIP3   OH240270   6.542   6.103   1.424  0.0496 -0.5178 -0.0355
 6212TIP3    H140271   6.472   6.148   1.378 -0.5861 -1.4475 -0.0019
 6212TIP3    H240272   6.588   6.172   1.472 -0.9342  0.0740  0.0681
 6213TIP3   OH240273   4.560   1.550   0.188  0.2164  0.5069 -0.2673
 6213TIP3    H140274   4.563   1.546   0.092  0.8795  0.7148 -0.2611
 6213TIP3    H240275   4.643   1.512   0.216 -0.1629  0.0455  0.2434
 6214TIP3   OH240276   3.661   5.577   0.419 -0.6215 -0.4939 -0.1386
 6214TIP3    H140277   3.735   5.630   0.448  0.2968 -0.9302 -1.5954
 6214TIP3    H240278   3.623   5.543   0.500  1.0780 -0.6652  0.6366
 6215TIP3   OH240279   0.193   1.024   6.796 -0.0052  0.1376  0.1714
 6215TIP3    H140280   0.189   0.938   6.754 -0.7566 -0.2904  1.0596
 6215TIP3    H240281   0.238   1.008   6.879 -0.3111  0.5553  0.4253
 6216TIP3   OH240282   4.407   1.419   1.078  0.0464 -0.1729  0.2742
 6216TIP3    H140283   4.494   1.458   1.083  0.6542 -1.4483  0.1732
 6216TIP3    H240284   4.355   1.466   1.143  1.6033 -1.3213  2.4684
 6217TIP3   OH240285   1.331   0.122   8.465 -0.2062  0.2774  0.2766
 6217TIP3    H140286   1.399   0.190   8.472 -1.1402  1.4782 -1.4884
 6217TIP3    H240287   1.377   0.040   8.481  0.9889  1.2667  2.3981
 6218TIP3   OH240288   5.452   3.073   8.216  0.0889 -0.1332 -0.0447
 6218TIP3    H140289   5.498   3.147   8.256  0.8137 -0.5164 -0.1465
 6218TIP3    H240290   5.487   2.996   8.261 -0.2386 -0.4524 -0.3344
 6219TIP3   OH240291   5.545   1.799   1.377 -0.5500 -0.5784 -0.2289
 6219TIP3    H140292   5.596   1.825   1.454 -1.4314  0.8100 -0.0736
 6219TIP3    H240293   5.544   1.878   1.322 -1.2789 -1.0539 -0.9056
 6220TIP3   OH240294   5.230   6.899   7.136  0.3730 -0.4829  0.5121
 6220TIP3    H140295   5.145   6.872   7.101  0.1491  0.7075  0.1092
 6220TIP3    H240296   5.271   6.947   7.064  0.5283  0.7082  1.3771
 6221TIP3   OH240297   2.764   1.023   0.831  0.3226 -0.2811 -0.4407
 6221TIP3    H140298   2.772   0.996   0.740 -1.0509  1.3142 -1.0951
 6221TIP3    H240299   2.782   1.117   0.830  0.6696 -0.3078  1.0106
 6222TIP3   OH240300   0.735   6.870   7.334  0.4484  0.8123  0.6232
 6222TIP3    H140301   0.749   6.789   7.285 -1.8970  0.1129  0.9981
 6222TIP3    H240302   0.780   6.856   7.418 -0.5626 -0.4383  0.9825
 6223TIP3   OH240303   6.458   2.109   2.256 -0.4378 -0.1139  0.5903
 6223TIP3    H140304   6.438   2.203   2.262  1.0726  0.2073  1.2126
 6223TIP3    H240305   6.400   2.076   2.189 -1.3373  1.1831  0.6970
 6224TIP3   OH240306   2.966   6.457   0.882 -0.4215 -0.2365 -0.4036
 6224TIP3    H140307   2.934   6.532   0.932 -1.7939 -1.3059  0.3797
 6224TIP3    H240308   2.908   6.385   0.906  0.1214 -1.2772 -2.0507
 6225TIP3   OH240309   1.576   3.435   6.603 -0.3152 -0.3424  0.4480
 6225TIP3    H140310   1.496   3.453   6.553 -0.6074 -0.8466  0.7212
 6225TIP3    H240311   1.642   3.414   6.536 -0.2710  0.5589  0.1937
 6226TIP3   OH240312   6.535   3.230   8.477  0.5969 -0.5424  0.5945
 6226TIP3    H140313   6.490   3.305   8.516 -2.0107 -1.7341  0.0540
 6226TIP3    H240314   6.624   3.236   8.512 -0.3517  1.0281  3.0849
 6227TIP3   OH240315   1.073   6.390   1.088 -0.3926 -0.2375  0.1695
 6227TIP3    H140316   1.138   6.426   1.148  0.1134  0.7982 -0.9559
 6227TIP3    H240317   1.000   6.364   1.145  0.0416  0.7537  1.2196
 6228TIP3   OH240318   5.970   1.335   6.246 -0.0078  0.1088  0.0972
 6228TIP3    H140319   5.970   1.241   6.230 -0.4306 -0.1603  1.5000
 6228TIP3    H240320   6.057   1.354   6.281  0.1275  0.2639 -0.3246
 6229TIP3   OH240321   1.711   6.106   1.121  0.7734  0.4440  0.2595
 6229TIP3    H140322   1.716   6.190   1.167 -1.1279  1.0847 -0.6023
 6229TIP3    H240323   1.706   6.130   1.029 -0.7961 -0.5465  0.0607
 6230TIP3   OH240324   6.652   4.803   6.442 -0.1912  0.7258  0.3009
 6230TIP3    H140325   6.677   4.839   6.526  0.0913 -0.5327  0.7764
 6230TIP3    H240326   6.724   4.745   6.418 -1.7096 -1.4673  0.7741
 6231TIP3   OH240327   2.072   3.560   8.385 -0.6417  0.5524  0.0976
 6231TIP3    H140328   2.042   3.497   8.450 -0.9700  1.5604  0.9442
 6231TIP3    H240329   2.009   3.551   8.313 -1.5493  0.9195  0.8295
 6232TIP3   OH240330   3.728   6.435   8.106  0.2337  0.2154 -0.4276
 6232TIP3    H140331   3.783   6.420   8.182  0.2437  0.3851 -0.3998
 6232TIP3    H240332   3.706   6.348   8.073 -0.3029  0.1280  0.1494
 6233TIP3   OH240333   2.504   5.110   1.846  0.2216 -0.3202  0.0659
 6233TIP3    H140334   2.423   5.143   1.807 -0.6728 -2.0675  0.3656
 6233TIP3    H240335   2.483   5.022   1.876  2.3475 -0.9759 -0.1764
 6234TIP3   OH240336   0.460   0.716   7.210  0.1849  0.4331  0.1342
 6234TIP3    H140337   0.486   0.675   7.292 -0.3090  0.4608  0.3089
 6234TIP3    H240338   0.472   0.648   7.144 -0.2093  0.1446  0.3581
 6235TIP3   OH240339   2.078   3.137   0.874  0.1316 -0.7143 -0.5977
 6235TIP3    H140340   2.097   3.124   0.781 -0.9746 -2.8406 -0.5874
 6235TIP3    H240341   2.041   3.225   0.879  1.5339 -0.0045 -1.9189
 6236TIP3   OH240342   6.348   1.179   7.645  0.5182 -0.1743 -0.6702
 6236TIP3    H140343   6.377   1.214   7.561 -1.5586  0.0042 -1.3881
 6236TIP3    H240344   6.322   1.089   7.626 -2.7686  0.6991 -1.0473
 6237TIP3   OH240345   0.805   4.116   1.208  0.2540 -0.7120 -0.2054
 6237TIP3    H140346   0.723   4.125   1.258  0.0612 -2.5207 -0.1243
 6237TIP3    H240347   0.868   4.169   1.256 -0.6430  0.0172  0.2225
 6238TIP3   OH240348   5.605   5.251   2.251  0.1693 -0.3851  0.1134
 6238TIP3    H140349   5.646   5.167   2.272  0.2204 -0.6493 -0.9684
 6238TIP3    H240350   5.645   5.313   2.311  2.1913 -0.6264 -0.8879
 6239TIP3   OH240351   1.251   4.289   6.761 -0.3905 -0.2013 -0.3317
 6239TIP3    H140352   1.232   4.361   6.821  0.4522 -1.4924  1.5940
 6239TIP3    H240353   1.289   4.331   6.683 -3.9848  1.7907 -1.2348
 6240TIP3   OH240354   0.563   5.489   6.769  0.8352  0.4696 -0.2363
 6240TIP3    H140355   0.512   5.549   6.715  0.6528  0.0072 -0.5817
 6240TIP3    H240356   0.558   5.526   6.857 -2.3283 -0.9344  0.3013
 6241TIP3   OH240357   5.874   3.188   8.156 -0.3884  0.4817  0.5522
 6241TIP3    H140358   5.845   3.200   8.246 -1.3287 -0.6480  0.4177
 6241TIP3    H240359   5.964   3.221   8.155  0.6028 -1.9367  2.5734
 6242TIP3   OH240360   2.936   6.071   6.904  0.3359 -0.1684  0.1167
 6242TIP3    H140361   2.923   5.979   6.881  0.3574 -0.3485  0.8231
 6242TIP3    H240362   3.009   6.071   6.965 -0.2413  0.2208  0.8254
 6243TIP3   OH240363   1.964   1.605   8.090 -0.1906 -0.1951 -0.2651
 6243TIP3    H140364   1.885   1.568   8.052 -0.2727  0.4887 -0.7773
 6243TIP3    H240365   2.000   1.661   8.022  0.4083 -0.0205  0.1790
 6244TIP3   OH240366   4.188   5.555   7.253  0.1113  0.0670  0.0006
 6244TIP3    H140367   4.187   5.559   7.157 -0.7962  1.0218  0.0214
 6244TIP3    H240368   4.280   5.558   7.277  0.3128  1.1011 -0.8262
 6245TIP3   OH240369   0.827   4.748   0.878  0.2738 -0.3427  0.2275
 6245TIP3    H140370   0.833   4.836   0.841  0.3084 -1.3444 -2.3720
 6245TIP3    H240371   0.888   4.696   0.826  0.4886 -1.8688  1.9005
 6246TIP3   OH240372   2.961   4.221   7.864  0.2389  0.2582  0.6140
 6246TIP3    H140373   2.891   4.168   7.903 -0.6213 -0.2664 -1.4747
 6246TIP3    H240374   3.038   4.203   7.918 -0.9710 -0.0033  2.3209
 6247TIP3   OH240375   0.176   2.357   7.983 -0.5726  0.3896  0.2937
 6247TIP3    H140376   0.185   2.275   7.935 -1.3711  1.0156 -0.9643
 6247TIP3    H240377   0.133   2.332   8.065 -2.4535 -0.2278 -0.8301
 6248TIP3   OH240378   3.275   2.433   8.242 -0.4001  0.5611  0.5295
 6248TIP3    H140379   3.300   2.374   8.313 -0.0954 -0.2346 -0.2343
 6248TIP3    H240380   3.265   2.518   8.285 -1.3492 -0.1275  1.7416
 6249TIP3   OH240381   4.093   5.976   0.543 -0.6888  0.1581 -0.4918
 6249TIP3    H140382   4.073   6.000   0.633  0.3146  0.6300 -0.3743
 6249TIP3    H240383   4.022   6.013   0.491 -0.1864  1.7393 -0.1031
 6250TIP3   OH240384   4.433   0.952   7.859 -0.2355 -0.3653 -0.3338
 6250TIP3    H140385   4.372   0.927   7.928  0.2665 -0.0973  0.2232
 6250TIP3    H240386   4.484   1.024   7.898  0.4762 -0.6320 -0.7511
 6251TIP3   OH240387   4.224   4.569   0.066  0.3330 -0.4704 -0.2779
 6251TIP3    H140388   4.168   4.518   0.125  1.5043 -2.6266 -0.9295
 6251TIP3    H240389   4.311   4.532   0.077  1.3033  1.5061 -0.7428
 6252TIP3   OH240390   1.853   3.568   0.708 -0.2743 -0.1024 -0.2697
 6252TIP3    H140391   1.790   3.593   0.775 -3.2436  0.0292 -2.8694
 6252TIP3    H240392   1.905   3.647   0.692  0.1204  0.0089  1.3870
 6253TIP3   OH240393   0.603   1.988   6.279  0.5718  0.2921 -0.1144
 6253TIP3    H140394   0.577   2.072   6.242  0.0402  0.3108  0.2855
 6253TIP3    H240395   0.523   1.934   6.274  0.1380  0.6446  1.9915
 6254TIP3   OH240396   0.384   4.387   6.264  0.2505 -0.2057  0.0338
 6254TIP3    H140397   0.302   4.413   6.222  1.4902 -0.1591 -2.5099
 6254TIP3    H240398   0.423   4.470   6.292 -0.0956 -0.1458  0.3489
 6255TIP3   OH240399   3.297   6.629   7.391 -0.4240  0.5835  0.4865
 6255TIP3    H140400   3.232   6.662   7.454  0.1746  0.5020  1.1631
 6255TIP3    H240401   3.267   6.540   7.371 -0.1718  0.2986  1.3125
 6256TIP3   OH240402   3.649   4.297   7.871 -0.3485 -0.2158  0.4011
 6256TIP3    H140403   3.559   4.311   7.898 -0.6146 -1.0245 -0.0286
 6256TIP3    H240404   3.701   4.312   7.950 -0.7217  1.5473  0.3562
 6257TIP3   OH240405   2.152   0.025   8.210 -0.4927 -0.0408  0.2443
 6257TIP3    H140406   2.183  -0.023   8.134 -0.5228 -1.1922  0.9305
 6257TIP3    H240407   2.130  -0.043   8.274  1.7372  0.9182  2.1627
 6258TIP3   OH240408   0.084   2.818   6.708 -0.1309  0.4508  0.1757
 6258TIP3    H140409   0.035   2.766   6.771 -0.4413  0.6094  0.0662
 6258TIP3    H240410   0.096   2.759   6.633  0.5795  0.1298  0.5314
 6259TIP3   OH240411   4.853   3.087   0.585  0.0004  0.5463 -0.1663
 6259TIP3    H140412   4.884   3.078   0.495 -1.8913  3.9775 -1.3508
 6259TIP3    H240413   4.764   3.051   0.583  0.4417 -0.6246  0.7283
 6260TIP3   OH240414   3.663   2.448   6.783 -0.3736 -0.0832  0.0481
 6260TIP3    H140415   3.753   2.465   6.813 -0.7285 -0.3381  1.3225
 6260TIP3    H240416   3.668   2.362   6.740  0.2672  0.5598 -1.2135
 6261TIP3   OH240417   3.588   1.606   8.499 -0.1989  0.5588  0.0467
 6261TIP3    H140418   3.588   1.671   8.569 -2.1856  0.5001  0.1476
 6261TIP3    H240419   3.558   1.525   8.541 -0.4090  0.2577 -0.6639
 6262TIP3   OH240420   1.772   2.748   8.019 -0.4465  0.1295 -0.1817
 6262TIP3    H140421   1.779   2.822   7.959  1.9665 -0.3854 -0.6028
 6262TIP3    H240422   1.751   2.788   8.104  0.4477  1.2807 -0.4864
 6263TIP3   OH240423   2.507   1.454   7.241 -0.2451  0.0942 -0.0651
 6263TIP3    H140424   2.433   1.482   7.295 -1.1809 -1.2673 -0.5851
 6263TIP3    H240425   2.498   1.504   7.160 -0.1640  0.4729  0.1594
 6264TIP3   OH240426   0.750   4.809   1.455 -0.5138 -0.1758  0.1800
 6264TIP3    H140427   0.664   4.814   1.413  0.1298 -0.5452 -1.2577
 6264TIP3    H240428   0.765   4.716   1.468 -0.8796 -0.0532  1.6889
 6265TIP3   OH240429   1.511   2.101   7.999 -0.0511  1.5464  0.6229
 6265TIP3    H140430   1.458   2.108   7.920 -1.1525 -0.2547  1.1460
 6265TIP3    H240431   1.601   2.109   7.969 -0.4377  0.7107 -0.8528
 6266TIP3   OH240432   6.107   3.804   2.724  0.5188 -0.3743 -0.0863
 6266TIP3    H140433   6.049   3.847   2.661  0.8063  0.8778  0.4641
 6266TIP3    H240434   6.159   3.744   2.672 -0.2587 -0.4313 -0.8157
 6267TIP3   OH240435   3.967   0.714   1.856 -0.1657 -0.1178 -0.2667
 6267TIP3    H140436   3.956   0.673   1.770 -0.2169  0.1315 -0.3799
 6267TIP3    H240437   4.043   0.671   1.894  0.6507  0.6662 -0.9668
 6268TIP3   OH240438   3.545   1.040   0.153 -0.5934 -0.1868  0.0094
 6268TIP3    H140439   3.468   1.081   0.191 -0.5162  0.3993 -0.4472
 6268TIP3    H240440   3.536   0.947   0.173 -2.2525 -0.3804 -1.3987
 6269TIP3   OH240441   3.379   1.775   0.761  0.2410  0.0454 -0.4613
 6269TIP3    H140442   3.422   1.861   0.754 -0.8759  0.5076 -2.4949
 6269TIP3    H240443   3.299   1.792   0.811  0.7391 -0.1389  0.4200
 6270TIP3   OH240444   4.478   2.865   0.402 -0.2073  0.0144  0.0530
 6270TIP3    H140445   4.383   2.860   0.415 -0.5237  2.2104 -0.9150
 6270TIP3    H240446   4.488   2.867   0.306  0.9344 -1.4254  0.1176
 6271TIP3   OH240447   4.864   6.268   7.208 -0.1636 -0.3550 -0.5048
 6271TIP3    H140448   4.954   6.293   7.228 -0.3109 -0.8248  0.8104
 6271TIP3    H240449   4.834   6.334   7.145  0.1470  1.5432  1.2584
 6272TIP3   OH240450   5.989   2.422   0.624 -0.4345 -0.6890  0.2237
 6272TIP3    H140451   6.060   2.360   0.604 -0.4488 -0.3289 -0.9980
 6272TIP3    H240452   6.002   2.443   0.717  2.3187  0.9062 -0.4085
 6273TIP3   OH240453   1.498   3.773   1.683 -0.4601 -0.1698 -0.3347
 6273TIP3    H140454   1.426   3.737   1.632 -0.1474 -1.2081 -0.0786
 6273TIP3    H240455   1.538   3.696   1.725  0.3173  0.4727  0.1296
 6274TIP3   OH240456   4.936   1.819   6.838 -0.1601  0.4274  0.4400
 6274TIP3    H140457   4.936   1.912   6.814 -1.6718  0.4054  0.2769
 6274TIP3    H240458   4.931   1.773   6.754  1.3590  0.1464  0.4693
 6275TIP3   OH240459   0.451   4.174   0.596 -0.3278  0.0285  0.3026
 6275TIP3    H140460   0.533   4.143   0.557 -1.1470 -0.0505 -1.4657
 6275TIP3    H240461   0.458   4.269   0.595  0.8094  0.0389  2.6613
 6276TIP3   OH240462   0.064   6.350   7.588  0.1241  0.1832 -0.4318
 6276TIP3    H140463  -0.012   6.306   7.625  1.7930 -1.6000  1.1546
 6276TIP3    H240464   0.063   6.327   7.495 -1.6548  0.8731 -0.6177
 6277TIP3   OH240465   0.036   0.567   0.533  0.0403  0.5343 -0.0254
 6277TIP3    H140466  -0.031   0.596   0.472 -0.3993 -0.9627 -0.2758
 6277TIP3    H240467   0.020   0.618   0.612 -3.3864 -1.8647  1.0396
 6278TIP3   OH240468   2.753   1.671   8.077  0.2367 -0.1480  0.4895
 6278TIP3    H140469   2.746   1.601   8.012 -0.6700  1.6277 -1.4463
 6278TIP3    H240470   2.828   1.723   8.047 -0.6309  1.0904  0.4471
 6279TIP3   OH240471   2.848   2.372   1.980  0.2595  0.1693  0.2286
 6279TIP3    H140472   2.870   2.465   1.974 -0.1561  0.1787 -2.1849
 6279TIP3    H240473   2.761   2.371   2.021  0.4864  0.7974  0.7439
 6280TIP3   OH240474   2.794   5.557   1.055  0.4033 -0.2641 -0.2706
 6280TIP3    H140475   2.776   5.515   0.970 -1.5712  0.0312 -0.0460
 6280TIP3    H240476   2.787   5.651   1.037  1.5084 -0.1306 -0.0744
 6281TIP3   OH240477   0.347   1.239   1.957 -0.3464  0.3981  0.1122
 6281TIP3    H140478   0.363   1.253   2.050 -0.1502 -0.1469  0.1632
 6281TIP3    H240479   0.405   1.302   1.913  0.6768 -0.3643  0.3327
 6282TIP3   OH240480   1.697   0.695   8.341  0.2090 -0.0557  0.2977
 6282TIP3    H140481   1.651   0.709   8.424 -0.0754  1.0409 -0.0310
 6282TIP3    H240482   1.680   0.774   8.290  2.8088  0.5932  0.2993
 6283TIP3   OH240483   2.986   1.012   0.991 -0.6065 -0.0670 -0.3868
 6283TIP3    H140484   3.053   1.080   0.997 -1.4355  0.6695  0.8488
 6283TIP3    H240485   2.932   1.037   0.916  0.6438 -0.8429 -1.6014
 6284TIP3   OH240486   2.928   4.286   6.058  0.2006 -0.1865 -0.5114
 6284TIP3    H140487   2.842   4.257   6.027  0.9278 -1.4814 -1.4442
 6284TIP3    H240488   2.937   4.375   6.025 -0.2959 -0.4747 -1.4686
 6285TIP3   OH240489   1.072   6.693   7.477 -0.2279  0.0583  0.5848
 6285TIP3    H140490   1.072   6.743   7.558  0.6693  1.1097 -0.0267
 6285TIP3    H240491   0.980   6.669   7.464 -0.4255  0.1092  1.7593
 6286TIP3   OH240492   1.838   5.432   2.224  0.1874  0.8763 -0.2899
 6286TIP3    H140493   1.762   5.401   2.176 -0.2893  0.7289  0.5407
 6286TIP3    H240494   1.852   5.366   2.292  1.9178  0.1640 -1.2708
 6287TIP3   OH240495   6.866   0.058   0.329  0.3075  0.5249 -0.2436
 6287TIP3    H140496   6.778   0.057   0.292 -0.2144  1.3685  0.9033
 6287TIP3    H240497   6.858   0.008   0.411  0.5741  1.6171  0.4750
 6288TIP3   OH240498   1.263   4.909   6.988 -0.4246  0.8445 -0.0426
 6288TIP3    H140499   1.260   4.965   7.066 -0.0696 -0.7626  1.1922
 6288TIP3    H240500   1.324   4.839   7.012  0.5786  0.8971 -2.2069
 6289TIP3   OH240501   2.089   4.205   5.935 -0.2506  0.5204  0.6194
 6289TIP3    H140502   2.115   4.119   5.968  1.0056  0.5999 -0.1082
 6289TIP3    H240503   2.004   4.222   5.976 -0.0098 -0.5846  1.6224
 6290TIP3   OH240504   3.612   6.551   1.571 -0.2363 -0.4245  0.2294
 6290TIP3    H140505   3.594   6.457   1.572 -2.7546 -0.0260 -0.0625
 6290TIP3    H240506   3.599   6.578   1.662 -1.9194 -0.0266 -0.0967
 6291TIP3   OH240507   2.116   4.200   1.550 -0.2189 -0.0120  0.1952
 6291TIP3    H140508   2.141   4.172   1.638  1.0424  0.9666  0.1708
 6291TIP3    H240509   2.082   4.289   1.562  1.0400  0.5728 -0.4395
 6292TIP3   OH240510   1.018   3.362   0.142  0.2582  0.4759  0.4045
 6292TIP3    H140511   1.069   3.428   0.096  0.5929  0.0049  0.0832
 6292TIP3    H240512   1.064   3.350   0.225  0.9103 -0.2010 -0.0250
 6293TIP3   OH240513   1.815   3.025   7.468  0.3569 -0.0639 -0.0722
 6293TIP3    H140514   1.772   3.046   7.385  0.5051 -0.6236 -0.2958
 6293TIP3    H240515   1.806   2.930   7.477 -0.2591  0.0709  0.8940
 6294TIP3   OH240516   2.403   5.988   6.503 -0.2808 -0.2353 -0.0426
 6294TIP3    H140517   2.392   5.905   6.457  0.8161 -0.5594  0.2326
 6294TIP3    H240518   2.341   6.048   6.462 -1.9535 -1.4885  0.5305
 6295TIP3   OH240519   2.422   0.811   0.555  0.2803 -0.2626 -0.1246
 6295TIP3    H140520   2.454   0.887   0.507 -1.9813  1.3659  0.7606
 6295TIP3    H240521   2.459   0.821   0.643  0.7553 -0.7405 -0.2647
 6296TIP3   OH240522   5.925   6.700   7.854  0.8697 -0.1765  0.0719
 6296TIP3    H140523   5.959   6.621   7.813  0.0921 -0.0395 -0.8700
 6296TIP3    H240524   5.860   6.669   7.917  1.2628 -0.3246  0.4137
 6297TIP3   OH240525   0.093   3.523   0.377  0.4333 -0.0629 -0.4673
 6297TIP3    H140526   0.168   3.488   0.426 -2.0973 -1.9734  2.4437
 6297TIP3    H240527   0.088   3.614   0.405  0.9271 -0.2753  0.3773
 6298TIP3   OH240528   1.236   2.183   1.007  0.4668 -0.9985  0.3100
 6298TIP3    H140529   1.250   2.246   1.078 -1.4272  1.1947 -1.0855
 6298TIP3    H240530   1.147   2.152   1.019  0.1232 -0.6162 -1.0041
 6299TIP3   OH240531   5.990   6.847   7.032 -0.3144  0.7904  0.0086
 6299TIP3    H140532   5.930   6.838   7.106 -1.4147  1.1469 -0.8197
 6299TIP3    H240533   5.988   6.762   6.989 -1.3623  1.2257 -0.8446
 6300TIP3   OH240534   2.539   1.830   1.233 -0.2042  0.3346  0.1947
 6300TIP3    H140535   2.629   1.825   1.265 -0.1341 -1.0258 -0.1477
 6300TIP3    H240536   2.545   1.885   1.155  0.0391  1.5809  1.0591
 6301TIP3   OH240537   5.097   1.924   0.988 -0.5283 -0.6081  0.2778
 6301TIP3    H140538   5.049   1.996   1.029  1.0149  0.9701 -0.5860
 6301TIP3    H240539   5.041   1.897   0.915 -0.3850  0.8460 -0.3897
 6302TIP3   OH240540   6.241   2.058   7.001  0.3727  0.5105 -0.4386
 6302TIP3    H140541   6.290   1.985   7.039 -0.6139  0.8400  1.6400
 6302TIP3    H240542   6.210   2.026   6.917  0.0888 -1.4344  0.3600
 6303TIP3   OH240543   2.277   6.027   1.847 -0.1586  0.3480 -0.0172
 6303TIP3    H140544   2.357   5.999   1.801 -1.1991  0.1505 -1.8091
 6303TIP3    H240545   2.303   6.032   1.939  2.2074  1.2961 -0.6478
 6304TIP3   OH240546   0.752   5.455   6.581 -0.0656 -0.4071 -0.2592
 6304TIP3    H140547   0.816   5.526   6.579  1.3123 -1.5842  0.3200
 6304TIP3    H240548   0.673   5.495   6.618  0.3729  1.0229 -0.7829
 6305TIP3   OH240549   4.367   4.607   0.362  1.0295 -0.3602 -0.1777
 6305TIP3    H140550   4.345   4.515   0.349  0.4899 -0.1781 -0.5895
 6305TIP3    H240551   4.289   4.645   0.401  1.1451 -0.0152 -0.2778
 6306TIP3   OH240552   5.249   5.785   8.527  0.3554  0.3144  0.4976
 6306TIP3    H140553   5.233   5.734   8.606 -0.3479 -0.9702 -0.4288
 6306TIP3    H240554   5.339   5.762   8.502  0.6596  0.8998  1.0381
 6307TIP3   OH240555   6.118   3.188   1.842  0.4553 -0.1019 -0.5147
 6307TIP3    H140556   6.157   3.200   1.929  0.2182 -0.4078 -0.3656
 6307TIP3    H240557   6.188   3.147   1.791  0.1735 -1.1475 -0.0990
 6308TIP3   OH240558   2.136   2.747   1.259  0.1718 -0.2256 -0.2381
 6308TIP3    H140559   2.106   2.749   1.168 -0.8480 -1.6202  0.0340
 6308TIP3    H240560   2.185   2.828   1.270 -0.4578  0.4001 -1.7760
 6309TIP3   OH240561   1.215   5.990   7.396 -0.0578  0.0593 -0.2232
 6309TIP3    H140562   1.179   6.007   7.483  2.0691  0.6594  0.6078
 6309TIP3    H240563   1.204   5.896   7.383  1.0613 -0.3517  1.4584
 6310TIP3   OH240564   6.218   1.404   7.305 -0.0810  0.6463 -0.0908
 6310TIP3    H140565   6.292   1.351   7.335 -1.2652 -0.7028  0.5402
 6310TIP3    H240566   6.211   1.473   7.371  0.6692  0.8699 -0.2270
 6311TIP3   OH240567   5.697   3.833   7.752 -0.6540  0.1789 -0.6912
 6311TIP3    H140568   5.619   3.792   7.789 -1.0688  1.2959 -0.2804
 6311TIP3    H240569   5.761   3.763   7.748 -0.5276 -0.0137  2.3320
 6312TIP3   OH240570   1.898   5.759   1.590  0.2371 -0.0963 -0.1682
 6312TIP3    H140571   1.918   5.738   1.682  2.2826  0.7370 -0.3700
 6312TIP3    H240572   1.867   5.850   1.593  0.8667  0.1276 -0.3528
 6313TIP3   OH240573   3.074   2.915   0.706  0.2194  0.5175  0.6515
 6313TIP3    H140574   3.002   2.950   0.654 -0.0092  0.4126  0.8979
 6313TIP3    H240575   3.036   2.898   0.792  0.3820 -0.1291  0.6011
 6314TIP3   OH240576   3.674   2.044   7.825  0.1352 -0.4710 -0.1695
 6314TIP3    H140577   3.600   2.104   7.816  0.2110 -0.3463  0.0190
 6314TIP3    H240578   3.640   1.959   7.798  0.0562 -0.3233 -0.5450
 6315TIP3   OH240579   4.865   1.034   7.853 -0.0126 -0.1417  0.1066
 6315TIP3    H140580   4.946   1.083   7.848  0.2525 -0.6979 -1.7923
 6315TIP3    H240581   4.803   1.084   7.800 -0.6402 -0.2667  0.6936
 6316TIP3   OH240582   4.698   6.203   1.762  0.6168  0.3067 -0.5053
 6316TIP3    H140583   4.700   6.214   1.857 -0.9052  1.4117 -0.5604
 6316TIP3    H240584   4.697   6.108   1.749 -0.6573  0.1236  0.6618
 6317TIP3   OH240585   6.188   3.303   1.451  0.1515  0.1103 -0.2852
 6317TIP3    H140586   6.217   3.385   1.492 -0.2304 -0.3082  0.8569
 6317TIP3    H240587   6.199   3.318   1.357  0.0589  1.4864 -0.0995
 6318TIP3   OH240588   6.643   4.932   8.039  0.1390  0.0032  0.2156
 6318TIP3    H140589   6.681   5.005   8.088 -3.1236  1.4330  0.8414
 6318TIP3    H240590   6.604   4.974   7.962 -1.7891 -1.0229  0.5826
 6319TIP3   OH240591   5.704   6.558   6.807 -0.0797 -0.2541  0.1759
 6319TIP3    H140592   5.703   6.592   6.896  3.2016  2.1539 -0.5276
 6319TIP3    H240593   5.791   6.518   6.798 -0.2043 -0.1390 -2.0236
 6320TIP3   OH240594   4.548   6.642   0.475 -0.3792  0.5985  0.1688
 6320TIP3    H140595   4.577   6.596   0.554 -2.3198  0.7988  1.0330
 6320TIP3    H240596   4.628   6.651   0.423  0.8126 -0.1816  1.7679
 6321TIP3   OH240597   0.459   2.815   2.521  0.1057  0.2481  0.1564
 6321TIP3    H140598   0.544   2.773   2.508  0.1668 -0.6079  2.8191
 6321TIP3    H240599   0.463   2.851   2.609 -1.6248  1.9099 -0.3805
 6322TIP3   OH240600   5.590   0.627   0.064 -0.0101  0.5429  0.4724
 6322TIP3    H140601   5.681   0.597   0.064 -0.9503 -2.6924  0.8546
 6322TIP3    H240602   5.540   0.551   0.094 -2.9888  1.7680 -0.9902
 6323TIP3   OH240603   1.777   3.961   8.176  0.2873  0.5803  0.0319
 6323TIP3    H140604   1.844   3.920   8.121 -1.8323 -1.3686 -1.2516
 6323TIP3    H240605   1.753   3.894   8.240 -0.6788  1.1171  0.2493
 6324TIP3   OH240606   3.580   1.025   7.307  0.6943 -0.0043  0.0012
 6324TIP3    H140607   3.664   1.011   7.351  1.0461 -0.8824 -0.9166
 6324TIP3    H240608   3.601   1.081   7.232 -0.1050  2.5409  1.5530
 6325TIP3   OH240609   5.112   2.182   8.021  0.1439  0.3171 -0.4486
 6325TIP3    H140610   5.155   2.262   7.992  1.6167 -0.4429 -0.4238
 6325TIP3    H240611   5.175   2.112   8.003 -0.5790 -0.6860  0.7412
 6326TIP3   OH240612   6.699   1.049   6.922  0.1232  0.1314  0.3267
 6326TIP3    H140613   6.659   0.968   6.892  0.1887 -0.0014  0.5897
 6326TIP3    H240614   6.634   1.088   6.981  1.0776 -1.0100  2.2464
 6327TIP3   OH240615   4.901   6.084   7.937  0.6731  0.1848  0.4470
 6327TIP3    H140616   4.923   6.045   8.022 -1.2981  0.7600  1.2772
 6327TIP3    H240617   4.845   6.019   7.895  0.9111  0.2935 -0.0405
 6328TIP3   OH240618   3.306   3.176   7.827  0.3074 -0.7108  0.1320
 6328TIP3    H140619   3.229   3.125   7.854 -0.3104  0.4392  0.6049
 6328TIP3    H240620   3.380   3.131   7.870 -0.1717 -1.4167  0.2456
 6329TIP3   OH240621   1.701   0.101   6.675  0.1396 -0.6031  0.4205
 6329TIP3    H140622   1.677   0.056   6.757 -1.3207 -0.5846  0.0292
 6329TIP3    H240623   1.625   0.088   6.618  1.3260 -1.0365 -1.1284
 6330TIP3   OH240624   3.920   5.228   8.056 -0.6437 -0.0645  0.1398
 6330TIP3    H140625   3.870   5.254   7.978 -0.8139  3.2763  1.1818
 6330TIP3    H240626   4.001   5.192   8.021 -1.6456 -0.7951 -1.5679
 6331TIP3   OH240627   0.561   4.682   6.956  0.3237 -0.0673  0.0363
 6331TIP3    H140628   0.528   4.594   6.976 -1.3447  0.4173 -0.3586
 6331TIP3    H240629   0.556   4.688   6.860  0.9600  0.2654  0.0225
 6332TIP3   OH240630   5.277   6.266   6.603  0.6823 -0.3350  0.4278
 6332TIP3    H140631   5.348   6.318   6.641 -0.1356  0.6161  0.7005
 6332TIP3    H240632   5.210   6.263   6.673  0.4211 -1.1452  0.1522
 6333TIP3   OH240633   4.839   5.378   1.543 -0.7707 -0.0483  0.2802
 6333TIP3    H140634   4.793   5.355   1.462 -0.7004 -0.4286  0.3444
 6333TIP3    H240635   4.779   5.436   1.589  0.2573  2.3414 -1.2321
 6334TIP3   OH240636   1.412   0.668   8.234 -0.2077 -0.1797 -0.2157
 6334TIP3    H140637   1.321   0.696   8.222  0.1318  1.6233  1.1398
 6334TIP3    H240638   1.416   0.637   8.324  0.1568 -1.9370 -0.7849
 6335TIP3   OH240639   1.169   6.415   0.750  0.3294 -0.1324 -0.4314
 6335TIP3    H140640   1.126   6.339   0.711  0.5606 -0.3727 -0.2209
 6335TIP3    H240641   1.263   6.397   0.742  0.4921 -1.7442  3.1294
 6336TIP3   OH240642   1.084   3.465   6.816  0.2754  0.3422 -0.4411
 6336TIP3    H140643   1.043   3.419   6.743  0.5947  1.9854 -1.7095
 6336TIP3    H240644   1.029   3.543   6.829  0.5275  0.3466  0.7309
 6337TIP3   OH240645   4.018   4.437   0.445  0.1512 -0.1560  0.0104
 6337TIP3    H140646   4.069   4.417   0.523  2.2238 -0.3720 -1.3050
 6337TIP3    H240647   4.002   4.351   0.405  1.2667  0.0911 -1.0325
 6338TIP3   OH240648   0.279   4.759   5.850 -0.8209  0.7272  0.4838
 6338TIP3    H140649   0.197   4.721   5.817 -0.6224  0.5471  0.1916
 6338TIP3    H240650   0.347   4.702   5.814 -0.6496 -0.1416  2.0929
 6339TIP3   OH240651   2.664   6.393   7.831  0.4343  0.2309 -0.7687
 6339TIP3    H140652   2.592   6.429   7.779  0.4585  0.6399 -0.5192
 6339TIP3    H240653   2.623   6.329   7.889  0.0007  1.6168  0.5297
 6340TIP3   OH240654   5.682   3.712   0.844 -0.1143 -0.2265  0.2504
 6340TIP3    H140655   5.629   3.770   0.899 -1.1529 -1.8018  0.9985
 6340TIP3    H240656   5.755   3.686   0.900  0.3517  0.3597 -0.0847
 6341TIP3   OH240657   2.175   1.145   7.372  0.6556  0.3359  0.4760
 6341TIP3    H140658   2.260   1.184   7.388  0.5553  0.9377 -0.3770
 6341TIP3    H240659   2.140   1.126   7.459  0.5098  2.5551  0.9411
 6342TIP3   OH240660   0.156   0.588   6.507 -0.5001 -0.1160  0.4587
 6342TIP3    H140661   0.194   0.643   6.576 -1.2560  1.1838 -0.1398
 6342TIP3    H240662   0.063   0.608   6.509 -0.7177 -1.0342 -0.0982
 6343TIP3   OH240663   3.391   0.521   8.059 -0.3552 -0.0003 -0.1843
 6343TIP3    H140664   3.381   0.427   8.045 -1.2630 -0.2936  2.0009
 6343TIP3    H240665   3.374   0.560   7.973 -1.3232 -1.7552 -0.8386
 6344TIP3   OH240666   4.057   1.368   7.737  0.2423  0.2185  0.1369
 6344TIP3    H140667   4.016   1.329   7.814  1.7019  1.2588  1.5064
 6344TIP3    H240668   4.104   1.296   7.696 -0.1779 -0.2512  0.4694
 6345TIP3   OH240669   0.119   5.810   8.378 -0.5031 -0.3421 -0.6181
 6345TIP3    H140670   0.187   5.866   8.341 -1.5666  1.9484  0.7231
 6345TIP3    H240671   0.166   5.749   8.434  0.5310  0.5742 -0.4601
 6346TIP3   OH240672   2.223   0.416   8.270 -0.1551 -0.6468 -0.2008
 6346TIP3    H140673   2.134   0.401   8.237 -0.0028 -2.2900  0.0812
 6346TIP3    H240674   2.212   0.478   8.342 -0.6377  2.0512 -2.3886
 6347TIP3   OH240675   0.613   2.663   8.628 -0.2873  0.2669  0.1757
 6347TIP3    H140676   0.593   2.700   8.542 -1.2586 -1.0556 -0.2103
 6347TIP3    H240677   0.696   2.616   8.616  0.7789  1.9657  0.5855
 6348TIP3   OH240678   6.159   2.534   6.910 -0.1330 -0.5814 -0.0808
 6348TIP3    H140679   6.119   2.582   6.837  0.4107  1.1864  0.7350
 6348TIP3    H240680   6.092   2.537   6.978  0.4002  0.1764  0.4188
 6349TIP3   OH240681   0.820   5.354   7.062 -0.1597 -0.4138 -0.4043
 6349TIP3    H140682   0.730   5.378   7.042 -0.2433  0.2276  0.6380
 6349TIP3    H240683   0.816   5.315   7.150  0.5663 -0.3936 -0.3542
 6350TIP3   OH240684   0.440   0.750   8.085 -0.2472  0.0644 -0.0264
 6350TIP3    H140685   0.372   0.757   8.152 -1.8089 -0.2473 -1.4941
 6350TIP3    H240686   0.521   0.773   8.130 -1.3743  0.8516  1.7033
 6351TIP3   OH240687   5.102   0.197   0.645 -0.7414 -0.3322  0.0748
 6351TIP3    H140688   5.137   0.218   0.731 -0.1692 -2.4783  0.4220
 6351TIP3    H240689   5.010   0.222   0.649 -0.3979  0.8625  0.8164
 6352TIP3   OH240690   3.092   0.210   8.620 -0.1129  0.0625 -0.5274
 6352TIP3    H140691   3.125   0.280   8.677 -0.4693  0.0987 -0.3664
 6352TIP3    H240692   3.130   0.130   8.656 -0.1860  0.1063 -0.3524
 6353TIP3   OH240693   6.490   6.740   7.641 -0.1538  0.1711  0.2457
 6353TIP3    H140694   6.518   6.648   7.649  0.6849  0.2867 -1.0937
 6353TIP3    H240695   6.572   6.790   7.646 -0.6787  0.9537  1.9482
 6354TIP3   OH240696   3.192   3.010   1.273 -0.0950  0.1077  0.4498
 6354TIP3    H140697   3.234   3.075   1.217 -2.2093  1.4826  0.3609
 6354TIP3    H240698   3.257   2.993   1.341  0.7376  1.9276  0.1836
 6355TIP3   OH240699   5.963   2.986   7.793 -0.0926 -0.1056  0.2459
 6355TIP3    H140700   5.873   2.964   7.819 -0.1768 -0.2733 -0.1671
 6355TIP3    H240701   5.975   3.076   7.823 -0.0513 -0.4111  1.1816
 6356TIP3   OH240702   5.304   4.871   0.087  0.0138  0.2749  0.3574
 6356TIP3    H140703   5.351   4.923   0.152  0.8567  0.8444 -0.6756
 6356TIP3    H240704   5.344   4.895   0.004 -0.5165 -1.0187 -0.2984
 6357TIP3   OH240705   5.266   5.122   7.931 -0.0220 -0.2240 -0.0593
 6357TIP3    H140706   5.351   5.129   7.887 -0.2556  2.6537 -0.2396
 6357TIP3    H240707   5.203   5.153   7.866 -0.9341 -0.2149  0.8108
 6358TIP3   OH240708   0.948   0.287   8.095  0.0992 -0.6334 -0.2012
 6358TIP3    H140709   0.950   0.191   8.097 -1.1863 -0.7033 -0.9607
 6358TIP3    H240710   0.923   0.308   8.005 -0.9027  0.3723  0.2937
 6359TIP3   OH240711   3.059   6.007   0.228 -0.3330  0.4608  0.3493
 6359TIP3    H140712   2.991   6.045   0.171  0.5279  2.6085  0.6464
 6359TIP3    H240713   3.073   6.073   0.296  2.8930  0.6799 -0.3755
 6360TIP3   OH240714   4.266   3.103   7.480 -0.1857 -0.2435  0.3585
 6360TIP3    H140715   4.295   3.025   7.433 -1.1733 -0.3113 -0.1681
 6360TIP3    H240716   4.171   3.091   7.490 -0.3742  0.9743  0.1112
 6361TIP3   OH240717   3.060   6.140   8.034  0.8108 -0.0853 -0.1395
 6361TIP3    H140718   2.986   6.200   8.049  1.2854  0.5712 -0.3752
 6361TIP3    H240719   3.038   6.095   7.952  1.3807  1.2378 -1.0557
 6362TIP3   OH240720   3.534   5.357   7.453 -0.1642  0.5695  0.0773
 6362TIP3    H140721   3.493   5.433   7.494 -1.1082  0.4236 -0.5601
 6362TIP3    H240722   3.619   5.389   7.423 -1.0116  1.7175 -1.2088
 6363TIP3   OH240723   3.078   5.756   6.749 -0.1067  0.0455 -0.4411
 6363TIP3    H140724   3.150   5.698   6.772 -0.3817 -1.0353 -2.0841
 6363TIP3    H240725   3.028   5.767   6.830  1.2076 -0.1676  0.4250
 6364TIP3   OH240726   4.616   4.176   6.754 -0.0401  0.1714  0.0037
 6364TIP3    H140727   4.564   4.112   6.802 -1.1253  0.5815 -0.6004
 6364TIP3    H240728   4.674   4.124   6.699 -0.2720 -0.2902  0.1980
 6365TIP3   OH240729   0.810   4.567   0.501  0.3231 -0.1949  0.3562
 6365TIP3    H140730   0.773   4.653   0.522  0.2765  0.4781 -2.1925
 6365TIP3    H240731   0.880   4.554   0.565 -1.5691  0.3589  2.6629
 6366TIP3   OH240732   3.797   6.352   1.714 -0.1262 -0.4857 -0.5853
 6366TIP3    H140733   3.869   6.377   1.772 -0.6889 -2.2088  0.9547
 6366TIP3    H240734   3.735   6.425   1.720  0.4481 -0.0277 -0.0763
 6367TIP3   OH240735   2.998   6.594   6.630 -0.4186 -0.1422 -0.1864
 6367TIP3    H140736   2.989   6.644   6.548 -2.0841  0.6977  0.4676
 6367TIP3    H240737   2.978   6.504   6.604  2.0913 -0.4880 -1.2686
 6368TIP3   OH240738   0.173   1.371   6.470  0.5471  0.4119 -0.3113
 6368TIP3    H140739   0.240   1.324   6.520  0.8448  2.6687  1.5790
 6368TIP3    H240740   0.090   1.341   6.506  0.6867  0.3681 -0.0272
 6369TIP3   OH240741   1.173   0.489   6.113 -0.4367 -0.1066  0.3507
 6369TIP3    H140742   1.109   0.420   6.095  0.3278 -1.0782  1.1974
 6369TIP3    H240743   1.224   0.456   6.187  0.0532  1.3174  0.6842
 6370TIP3   OH240744   1.723   1.110   7.015  0.1920  0.0069  0.4296
 6370TIP3    H140745   1.657   1.066   6.960 -1.2095  2.7471 -0.2775
 6370TIP3    H240746   1.790   1.139   6.953 -1.3931  3.1076 -0.0795
 6371TIP3   OH240747   3.552   0.849   6.230 -0.4020  0.1458  0.2961
 6371TIP3    H140748   3.639   0.848   6.270  0.2196 -1.8933 -0.9761
 6371TIP3    H240749   3.537   0.941   6.207  1.9094  0.3760 -0.4937
 6372TIP3   OH240750   1.527   3.731   6.196  0.2565  0.8392 -0.4812
 6372TIP3    H140751   1.514   3.647   6.151  0.3827  0.0199  0.9498
 6372TIP3    H240752   1.466   3.791   6.154 -2.7722 -0.9610  1.0281
 6373TIP3   OH240753   4.496   6.288   7.283  0.1424  0.0132  0.2668
 6373TIP3    H140754   4.401   6.277   7.286  0.1942 -0.8533 -0.6713
 6373TIP3    H240755   4.509   6.366   7.229 -0.0498  0.4341  0.8273
 6374TIP3   OH240756   5.366   6.680   1.840  0.3182  0.2832 -0.2508
 6374TIP3    H140757   5.381   6.717   1.927 -0.9467 -1.6854  0.8799
 6374TIP3    H240758   5.299   6.737   1.801 -1.0313 -0.2791  1.1500
 6375TIP3   OH240759   2.231   1.781   1.495  0.3355 -0.1840 -0.3110
 6375TIP3    H140760   2.197   1.727   1.566  1.2056 -1.0794 -0.5530
 6375TIP3    H240761   2.197   1.868   1.513 -0.4292 -0.6363  0.5431
 6376TIP3   OH240762   1.607   4.086   7.790  0.2020 -0.4148  0.1956
 6376TIP3    H140763   1.683   4.073   7.733 -0.1993  1.1340 -0.7521
 6376TIP3    H240764   1.627   4.166   7.838  0.5677 -1.7405  2.3600
 6377TIP3   OH240765   3.863   1.935   1.825 -0.9818  0.1884 -0.0990
 6377TIP3    H140766   3.903   1.881   1.893  1.7051 -0.3124 -1.9255
 6377TIP3    H240767   3.871   2.024   1.858  3.6283  0.3704 -1.0197
 6378TIP3   OH240768   2.636   2.892   1.193  0.0557  0.2978 -0.5375
 6378TIP3    H140769   2.673   2.931   1.272  0.0214 -0.6062 -0.0606
 6378TIP3    H240770   2.705   2.836   1.159 -0.1254  0.2524 -0.8334
 6379TIP3   OH240771   5.672   0.606   8.064  0.1589 -0.3732  0.3861
 6379TIP3    H140772   5.684   0.515   8.037 -1.6351 -0.7132  0.6298
 6379TIP3    H240773   5.578   0.620   8.062  0.3464  1.2517  1.1293
 6380TIP3   OH240774   3.689   3.152   7.072  0.0108 -0.1464  0.4752
 6380TIP3    H140775   3.741   3.079   7.107  1.5842  1.8230  2.6259
 6380TIP3    H240776   3.636   3.181   7.147  1.5256  2.5929  0.6287
 6381TIP3   OH240777   1.875   5.917   7.316  0.0844  0.3981  0.1485
 6381TIP3    H140778   1.882   5.826   7.286 -0.2395 -0.6747  2.9531
 6381TIP3    H240779   1.799   5.916   7.374  0.9434  2.1050  1.3681
 6382TIP3   OH240780   6.498   4.753   7.224  0.0752 -0.0922  0.2931
 6382TIP3    H140781   6.428   4.809   7.257  0.2512  0.5431 -0.3610
 6382TIP3    H240782   6.554   4.737   7.299 -0.5235 -0.2151  0.7141
 6383TIP3   OH240783   3.537   1.387   0.963  0.0187  0.0111 -0.8525
 6383TIP3    H140784   3.566   1.407   1.052 -0.6072 -0.8255 -0.4476
 6383TIP3    H240785   3.552   1.468   0.914 -1.0675  1.0153  0.3767
 6384TIP3   OH240786   4.623   4.861   8.264  0.1630 -0.0575 -1.0586
 6384TIP3    H140787   4.613   4.799   8.335 -0.2184 -0.5328 -1.5205
 6384TIP3    H240788   4.704   4.908   8.284 -0.0846  0.0046 -0.1770
 6385TIP3   OH240789   2.052   4.007   0.052  0.1970 -0.0588 -0.4658
 6385TIP3    H140790   1.963   3.988   0.084  0.6533 -3.7805 -0.9620
 6385TIP3    H240791   2.108   3.996   0.129  0.4878 -0.6422 -0.7554
 6386TIP3   OH240792   3.133   3.437   7.681 -0.1012  0.2705 -0.1335
 6386TIP3    H140793   3.146   3.456   7.774 -1.9177 -0.9483  0.4231
 6386TIP3    H240794   3.212   3.391   7.655 -0.3520 -1.0550  1.3178
 6387TIP3   OH240795   1.308   4.351   0.858 -0.0052 -0.3647  0.4840
 6387TIP3    H140796   1.356   4.405   0.796  0.3405  0.0954  1.1368
 6387TIP3    H240797   1.260   4.288   0.804  1.0868 -0.6311 -0.1949
 6388TIP3   OH240798   0.584   0.768   8.466  0.0081  0.5278 -0.0670
 6388TIP3    H140799   0.615   0.851   8.503  0.4277  0.4512 -0.2375
 6388TIP3    H240800   0.647   0.748   8.396 -1.9000  1.7594 -2.3069
 6389TIP3   OH240801   5.662   2.395   1.798  0.2707  0.2320  0.4323
 6389TIP3    H140802   5.719   2.319   1.810  0.2448  0.3186  1.1497
 6389TIP3    H240803   5.663   2.439   1.883  1.3456  1.7761 -0.3416
 6390TIP3   OH240804   2.877   3.410   0.637 -0.1476 -0.0381 -0.0406
 6390TIP3    H140805   2.957   3.444   0.596 -0.3895 -0.2196 -0.6703
 6390TIP3    H240806   2.845   3.483   0.690  0.2889  0.1245  0.0064
 6391TIP3   OH240807   1.299   4.452   2.322  0.5112 -0.3891 -0.1488
 6391TIP3    H140808   1.294   4.539   2.283  0.7824 -0.2584  0.1148
 6391TIP3    H240809   1.390   4.442   2.349  0.1865 -0.1973  1.0944
 6392TIP3   OH240810   6.535   4.488   7.189 -0.0437 -0.5025 -0.1910
 6392TIP3    H140811   6.548   4.546   7.264 -0.3854  0.7972 -1.1010
 6392TIP3    H240812   6.617   4.439   7.183  1.0464  1.2644 -0.5367
 6393TIP3   OH240813   1.210   4.655   2.536  0.2074 -0.2794 -0.6042
 6393TIP3    H140814   1.187   4.578   2.484  0.4299 -2.5414  2.4164
 6393TIP3    H240815   1.304   4.664   2.524  0.1417 -0.2903 -1.1689
 6394TIP3   OH240816   4.378   3.424   2.073  0.0552 -0.7263  0.5506
 6394TIP3    H140817   4.392   3.449   1.981  0.3346  1.8729  1.2292
 6394TIP3    H240818   4.295   3.465   2.096  0.0379 -1.2824  1.5092
 6395TIP3   OH240819   2.189   4.840   6.923 -0.3881 -0.1969 -0.1302
 6395TIP3    H140820   2.245   4.908   6.885  1.0655 -1.7040 -0.7678
 6395TIP3    H240821   2.212   4.760   6.876 -0.8727 -1.4963  1.7303
 6396TIP3   OH240822   1.531   6.537   7.161  0.5305 -0.2529 -0.3335
 6396TIP3    H140823   1.519   6.466   7.224  0.4834 -1.4745 -1.6909
 6396TIP3    H240824   1.615   6.518   7.119 -0.2654 -0.4723 -1.8933
 6397TIP3   OH240825   5.112   6.765   0.253 -0.4548  0.3538  0.0818
 6397TIP3    H140826   5.082   6.700   0.189 -0.7397  1.3266 -0.8092
 6397TIP3    H240827   5.066   6.742   0.334  0.0728 -1.0282  0.0099
 6398TIP3   OH240828   5.953   1.298   0.972 -0.1261  0.4349 -0.3859
 6398TIP3    H140829   6.030   1.331   0.927  0.8359 -0.0912  0.8126
 6398TIP3    H240830   5.958   1.336   1.060 -1.9274  1.4086 -0.6660
 6399TIP3   OH240831   6.809   0.117   7.018  0.1030  0.2325  0.2900
 6399TIP3    H140832   6.792   0.067   7.098  1.2051  0.8025  0.9042
 6399TIP3    H240833   6.902   0.101   6.999 -0.4531 -1.0247 -1.7044
 6400TIP3   OH240834   0.310   0.639   0.664  0.2695  0.1477  0.0151
 6400TIP3    H140835   0.278   0.630   0.574 -1.8447  0.1854  0.7118
 6400TIP3    H240836   0.285   0.728   0.690 -0.6934 -0.4109  1.1544
 6401TIP3   OH240837   2.891   4.709   2.253  0.3181 -0.0404 -0.6426
 6401TIP3    H140838   2.940   4.629   2.233  1.5973  0.7896 -0.9769
 6401TIP3    H240839   2.834   4.685   2.326 -0.1312 -1.5413 -1.4439
 6402TIP3   OH240840   2.929   4.250   7.576  0.0080  0.1068  0.3213
 6402TIP3    H140841   3.008   4.221   7.531  0.3208  1.1141  0.1906
 6402TIP3    H240842   2.955   4.259   7.668 -0.7817 -2.5235  0.9014
 6403TIP3   OH240843   1.866   2.563   0.785  0.5292 -0.1535  0.1800
 6403TIP3    H140844   1.859   2.544   0.879 -0.4879 -1.3698 -0.1105
 6403TIP3    H240845   1.849   2.657   0.778 -0.2399 -0.2071  1.1459
 6404TIP3   OH240846   5.333   1.265   0.331  0.9956  0.3075 -0.2856
 6404TIP3    H140847   5.371   1.183   0.301  1.2491  0.3475 -0.0888
 6404TIP3    H240848   5.407   1.327   0.329  0.9419  0.3894  0.0949
 6405TIP3   OH240849   0.303   5.897   0.041  0.7394 -0.0669 -0.2396
 6405TIP3    H140850   0.220   5.936   0.071 -0.0548 -2.1669  0.4824
 6405TIP3    H240851   0.354   5.971   0.010 -0.8597  1.4782  0.6157
 6406TIP3   OH240852   0.732   4.988   7.253  0.1538  0.3505  0.3934
 6406TIP3    H140853   0.788   4.964   7.179 -0.2178 -1.3755  0.6203
 6406TIP3    H240854   0.753   4.923   7.321 -1.9945 -0.2617  0.5425
 6407TIP3   OH240855   3.482   3.579   8.458  0.5226  0.0998 -0.3099
 6407TIP3    H140856   3.474   3.673   8.471 -0.5563  0.0427 -0.4782
 6407TIP3    H240857   3.570   3.567   8.422  1.0167  0.9395  0.5761
 6408TIP3   OH240858   6.504   2.071   8.632 -0.0377  0.2139 -0.0944
 6408TIP3    H140859   6.482   2.114   8.714 -0.7599  0.9967 -0.6752
 6408TIP3    H240860   6.566   2.003   8.656  0.7774  1.2715  0.9315
 6409TIP3   OH240861   0.034   0.852   8.034 -0.3328 -0.2632 -0.0885
 6409TIP3    H140862  -0.029   0.856   8.106 -1.1571  1.1090 -0.8314
 6409TIP3    H240863  -0.012   0.890   7.959  1.1650  0.2431 -0.8126
 6410TIP3   OH240864   1.733   3.075   0.836 -0.5082  0.1519  0.0426
 6410TIP3    H140865   1.690   3.040   0.914  1.6678 -0.3234  1.1126
 6410TIP3    H240866   1.812   3.118   0.870 -0.6796  1.9536 -1.7027
 6411TIP3   OH240867   3.943   2.476   6.776  0.2163  0.2885  0.2422
 6411TIP3    H140868   4.027   2.507   6.810 -0.2823  0.0496  1.7246
 6411TIP3    H240869   3.963   2.390   6.737  0.2265 -1.1119  3.0756
 6412TIP3   OH240870   3.815   0.881   6.301 -0.1044  0.3566  0.1714
 6412TIP3    H140871   3.867   0.802   6.312 -0.6172  0.1230  0.9596
 6412TIP3    H240872   3.876   0.953   6.318  0.4292  0.1523 -0.8097
 6413TIP3   OH240873   4.732   6.232   7.451  0.3237 -0.8031  0.1232
 6413TIP3    H140874   4.805   6.218   7.391  1.0563  0.7716  0.5976
 6413TIP3    H240875   4.657   6.248   7.394  0.3658 -2.2336 -0.3678
 6414TIP3   OH240876   2.514   2.110   0.182 -0.4562 -0.2110  0.4088
 6414TIP3    H140877   2.527   2.021   0.216 -1.9652 -0.8045 -0.4771
 6414TIP3    H240878   2.511   2.165   0.260 -0.5820 -1.0919  1.0455
 6415TIP3   OH240879   5.991   6.442   2.655 -0.2722  0.1314  0.0471
 6415TIP3    H140880   6.047   6.380   2.609 -0.6634 -0.8835  0.8752
 6415TIP3    H240881   5.939   6.483   2.586  1.6635  1.3287 -0.7686
 6416TIP3   OH240882   0.857   1.731   8.143  0.3429 -0.0284 -0.1150
 6416TIP3    H140883   0.803   1.809   8.154  2.6243  2.1248 -2.6021
 6416TIP3    H240884   0.909   1.726   8.223 -1.0580 -0.0603  0.8028
 6417TIP3   OH240885   5.833   0.694   7.210  0.7620  0.0639 -0.6875
 6417TIP3    H140886   5.812   0.603   7.233 -2.5033  0.8870  0.1135
 6417TIP3    H240887   5.926   0.692   7.185  2.1369 -2.7185  3.5276
 6418TIP3   OH240888   6.233   1.667   0.475 -0.1136 -0.7116 -0.6920
 6418TIP3    H140889   6.259   1.587   0.429 -0.2575 -0.7805 -0.6544
 6418TIP3    H240890   6.185   1.717   0.409  1.5137  0.1651 -1.2600
 6419TIP3   OH240891   5.333   5.306   8.174  0.1877  0.0509 -0.2680
 6419TIP3    H140892   5.364   5.219   8.150  0.7726 -0.2035  1.3102
 6419TIP3    H240893   5.350   5.313   8.268 -1.6431  1.1134  0.0504
 6420TIP3   OH240894   2.801   0.495   8.622 -0.4585  0.3166  0.1791
 6420TIP3    H140895   2.785   0.526   8.711 -1.6517  0.6107 -0.1125
 6420TIP3    H240896   2.737   0.424   8.610 -0.4766  0.4434 -0.5164
 6421TIP3   OH240897   3.496   0.647   0.945  0.0157  0.9505 -0.9546
 6421TIP3    H140898   3.560   0.620   0.879 -0.4952  1.8500 -1.8617
 6421TIP3    H240899   3.547   0.657   1.025  0.9978  1.5173 -1.6224
 6422TIP3   OH240900   5.613   6.523   0.364 -0.2205 -0.2702 -0.2879
 6422TIP3    H140901   5.704   6.554   0.364  0.3488 -1.7811  0.6869
 6422TIP3    H240902   5.621   6.428   0.354 -1.8160 -0.2658 -2.1266
 6423TIP3   OH240903   4.381   0.956   0.370 -0.3234 -0.3281 -0.0475
 6423TIP3    H140904   4.299   0.940   0.417 -0.2537  0.7006  0.4446
 6423TIP3    H240905   4.383   1.050   0.355  0.7274 -0.3521 -0.1417
 6424TIP3   OH240906   4.107   1.114   7.533  0.0827 -0.3374  1.0135
 6424TIP3    H140907   4.143   1.035   7.575  0.3766 -0.2809  0.8750
 6424TIP3    H240908   4.180   1.147   7.480 -0.1921 -0.2373  0.7009
 6425TIP3   OH240909   5.085   0.700   6.177 -0.1981 -0.0048  0.2267
 6425TIP3    H140910   5.064   0.787   6.208 -0.2444  0.1987 -0.3613
 6425TIP3    H240911   5.180   0.698   6.171 -0.0992 -0.5037  1.6773
 6426TIP3   OH240912   6.533   5.809   0.416 -0.1795 -0.3338 -0.3407
 6426TIP3    H140913   6.593   5.846   0.352 -1.5308 -0.1945 -1.5891
 6426TIP3    H240914   6.506   5.725   0.378 -0.9474 -0.2926  0.0818
 6427TIP3   OH240915   3.944   6.131   1.566 -0.6208 -0.1096  0.0512
 6427TIP3    H140916   3.895   6.212   1.553  1.0684  0.7385 -1.5846
 6427TIP3    H240917   4.001   6.149   1.640  0.5636  0.6627 -1.0130
 6428TIP3   OH240918   4.222   5.261   1.090 -0.3188 -0.5966 -0.3340
 6428TIP3    H140919   4.180   5.335   1.046  0.9514 -0.1489 -0.8454
 6428TIP3    H240920   4.289   5.231   1.028  0.8458 -0.5823  0.8652
 6429TIP3   OH240921   2.317   5.706   7.332  0.4772  0.3322 -0.2309
 6429TIP3    H140922   2.318   5.780   7.271  0.8011  1.1036  0.6915
 6429TIP3    H240923   2.299   5.629   7.277 -0.9885  1.2227 -1.0523
 6430TIP3   OH240924   6.734   0.412   0.654  0.5995  0.0428 -0.3344
 6430TIP3    H140925   6.766   0.482   0.711  0.7753 -0.2925 -0.0213
 6430TIP3    H240926   6.791   0.414   0.578  0.3669  0.4895 -0.5033
 6431TIP3   OH240927   4.293   0.119   7.772  0.6772  0.6878  0.1683
 6431TIP3    H140928   4.229   0.100   7.841  0.3762 -1.2810 -0.5781
 6431TIP3    H240929   4.241   0.154   7.700  0.7876  1.3539  0.4075
 6432TIP3   OH240930   3.988   4.520   1.830 -0.9461  0.7921 -0.0115
 6432TIP3    H140931   3.937   4.474   1.764  2.3884  0.6228 -2.7295
 6432TIP3    H240932   3.983   4.612   1.804  0.6570  0.6877 -0.7729
 6433TIP3   OH240933   5.712   2.065   2.613 -0.0439  0.5266  0.3724
 6433TIP3    H140934   5.668   2.084   2.696  1.2453 -1.2678  1.5537
 6433TIP3    H240935   5.805   2.069   2.634  0.3532  1.4922 -1.3824
 6434TIP3   OH240936   3.203   6.213   6.589 -1.2466 -0.3387 -0.5509
 6434TIP3    H140937   3.212   6.118   6.587 -0.8162 -0.3937  1.6328
 6434TIP3    H240938   3.237   6.242   6.504  0.9300 -1.9691 -0.3250
 6435TIP3   OH240939   1.354   1.870   8.346 -0.2289 -0.7204  0.3889
 6435TIP3    H140940   1.334   1.808   8.416 -1.0924 -0.2861  0.5408
 6435TIP3    H240941   1.339   1.956   8.386 -0.8235 -0.4733 -0.3620
 6436TIP3   OH240942   2.843   2.068   0.894 -0.2772 -0.5054  0.4324
 6436TIP3    H140943   2.904   2.064   0.820 -0.5922 -1.5596  0.2072
 6436TIP3    H240944   2.886   2.019   0.963 -0.6465 -0.8416  0.4305
 6437TIP3   OH240945   1.963   5.755   0.245 -0.1370 -0.3523 -0.0021
 6437TIP3    H140946   1.891   5.722   0.299 -1.5803  0.2285 -1.4848
 6437TIP3    H240947   1.975   5.686   0.179 -0.3935  0.2360 -0.6713
 6438TIP3   OH240948   1.154   1.201   0.482 -0.0341 -0.2479 -0.0442
 6438TIP3    H140949   1.116   1.250   0.555 -1.9469 -0.2925 -0.9528
 6438TIP3    H240950   1.112   1.115   0.485  3.0802 -1.8861  1.3694
 6439TIP3   OH240951   5.652   2.134   0.443 -0.3665  0.1855  0.1181
 6439TIP3    H140952   5.682   2.171   0.360  0.4077 -0.9150 -0.1143
 6439TIP3    H240953   5.578   2.190   0.469  0.4874  1.6061 -0.4153
 6440TIP3   OH240954   4.103   4.705   2.475  0.0755  0.6915  0.1899
 6440TIP3    H140955   4.027   4.760   2.494  0.3514  1.2225 -0.2320
 6440TIP3    H240956   4.092   4.629   2.533 -1.2564  0.3058 -0.5371
 6441TIP3   OH240957   1.213   3.996   1.690  0.6712 -0.1205 -0.1493
 6441TIP3    H140958   1.166   4.011   1.772 -1.6729 -1.0409 -1.2339
 6441TIP3    H240959   1.197   3.903   1.670  1.8008 -0.0913 -1.2905
 6442TIP3   OH240960   1.882   1.030   8.601  0.2030 -0.0021  0.2896
 6442TIP3    H140961   1.863   1.034   8.695  2.2514 -0.2288  0.7591
 6442TIP3    H240962   1.818   1.088   8.561  0.3524  1.4289  2.0231
 6443TIP3   OH240963   4.843   4.670   7.713 -0.2955  0.5611 -0.0499
 6443TIP3    H140964   4.894   4.611   7.769 -0.8903  0.8983  0.8610
 6443TIP3    H240965   4.777   4.614   7.673  0.1563  0.3112 -0.4643
 6444TIP3   OH240966   2.528   3.424   7.999  0.2119  0.4516 -0.0747
 6444TIP3    H140967   2.451   3.367   7.996  0.7459 -0.2591 -0.8500
 6444TIP3    H240968   2.601   3.366   7.974  1.1088  0.9329  1.3203
 6445TIP3   OH240969   0.830   2.110   8.626 -0.3803  0.3065  0.0251
 6445TIP3    H140970   0.832   2.018   8.598 -0.0497  0.2590  0.2006
 6445TIP3    H240971   0.743   2.121   8.666  0.0021 -0.2393  1.0281
 6446TIP3   OH240972   1.000   1.266   7.712  0.4934  0.1873  0.6943
 6446TIP3    H140973   1.084   1.226   7.734  1.6120  2.0924  0.1345
 6446TIP3    H240974   1.018   1.360   7.715 -0.9137  0.6358 -2.0926
 6447TIP3   OH240975   6.646   0.446   8.192  0.1138 -0.0108  0.7707
 6447TIP3    H140976   6.585   0.453   8.265 -0.3131 -2.2877  0.6986
 6447TIP3    H240977   6.591   0.447   8.114  0.2628 -0.7684  0.6457
 6448TIP3   OH240978   0.077   2.114   6.697  0.9807  0.2549 -0.1273
 6448TIP3    H140979  -0.011   2.113   6.736  1.4999 -0.8097  1.0913
 6448TIP3    H240980   0.063   2.139   6.606 -0.6755 -0.7776 -0.1861
 6449TIP3   OH240981   0.813   5.567   2.199  0.2465 -0.5984 -0.0116
 6449TIP3    H140982   0.775   5.508   2.134 -0.5731 -0.4231  0.2954
 6449TIP3    H240983   0.743   5.628   2.220 -0.5346 -2.3249  3.0801
 6450TIP3   OH240984   1.907   5.786   2.075 -0.0001 -0.0215  0.1835
 6450TIP3    H140985   1.961   5.856   2.040  0.3167 -0.7252 -0.7766
 6450TIP3    H240986   1.967   5.733   2.128  0.0077 -0.1698  0.0288
 6451TIP3   OH240987   0.853   0.910   6.294 -0.3282 -0.3014  0.6352
 6451TIP3    H140988   0.860   0.838   6.231  2.3317  1.3059 -1.1185
 6451TIP3    H240989   0.939   0.951   6.292 -0.6122  0.7759  4.2889
 6452TIP3   OH240990   0.848   6.857   1.873  0.1377 -0.6376  0.3295
 6452TIP3    H140991   0.875   6.801   1.946  0.1173  0.9106  1.5894
 6452TIP3    H240992   0.869   6.946   1.903 -1.2335  0.1601 -0.9586
 6453TIP3   OH240993   0.609   0.208   2.066 -0.0588  0.8124 -0.0847
 6453TIP3    H140994   0.614   0.269   2.140 -0.0935  0.8981 -0.1532
 6453TIP3    H240995   0.518   0.212   2.037  0.0625  1.1344 -0.4314
 6454TIP3   OH240996   3.658   6.877   8.257  0.2229  0.1087  0.1322
 6454TIP3    H140997   3.659   6.969   8.284  0.5305  0.8018 -2.0593
 6454TIP3    H240998   3.743   6.863   8.216  0.0426 -1.0541  0.1275
 6455TIP3   OH240999   6.668   0.333   0.998  0.4217 -0.0005  0.1051
 6455TIP3    H141000   6.705   0.419   0.980 -0.1488  0.3681  0.6575
 6455TIP3    H241001   6.664   0.328   1.094  1.7258 -1.1926  0.1458
 6456TIP3   OH241002   2.498   0.740   8.536 -0.4314  0.1960 -0.0150
 6456TIP3    H141003   2.545   0.723   8.455 -1.4204 -0.7677 -0.4154
 6456TIP3    H241004   2.419   0.687   8.529 -0.2339 -0.4307  1.8623
 6457TIP3   OH241005   1.581   2.864   8.224 -0.0078 -0.6239 -0.1723
 6457TIP3    H141006   1.538   2.817   8.296  0.6127  1.2174  1.4897
 6457TIP3    H241007   1.509   2.895   8.170 -0.6152 -0.3092  0.7884
 6458TIP3   OH241008   4.312   5.812   0.506 -0.2907  0.3646  0.4844
 6458TIP3    H141009   4.383   5.865   0.470  0.6243 -0.1654  1.4487
 6458TIP3    H241010   4.238   5.872   0.512  0.4662  1.3029  0.7320
 6459TIP3   OH241011   4.836   4.368   1.932  0.0374 -0.4129 -0.1711
 6459TIP3    H141012   4.829   4.416   1.849  1.0385  0.5197  0.2538
 6459TIP3    H241013   4.930   4.359   1.947 -0.1338 -1.8361  0.1693
 6460TIP3   OH241014   0.327   1.597   7.116  0.2910  0.2869  0.2331
 6460TIP3    H141015   0.343   1.560   7.029  1.0330 -2.1331  1.3079
 6460TIP3    H241016   0.231   1.600   7.124  0.1390  2.4519 -1.3325
 6461TIP3   OH241017   6.212   1.242   6.759  0.6667  0.2545 -0.1080
 6461TIP3    H141018   6.122   1.250   6.729  0.8024  0.2600 -0.5136
 6461TIP3    H241019   6.258   1.314   6.716  0.6321  0.9587  0.9842
 6462TIP3   OH241020   5.194   2.689   2.112  0.1151 -0.3600  0.0375
 6462TIP3    H141021   5.188   2.775   2.152  0.1534 -0.4399  0.2181
 6462TIP3    H241022   5.283   2.685   2.077  0.0591 -0.2633 -0.1174
 6463TIP3   OH241023   4.626   4.414   0.417  0.1095 -0.0036  0.0458
 6463TIP3    H141024   4.664   4.478   0.356  1.8332 -0.5587  0.4793
 6463TIP3    H241025   4.668   4.331   0.393 -0.2942 -0.5075  1.0422
 6464TIP3   OH241026   5.353   3.525   0.167 -0.1551 -0.2963 -0.4607
 6464TIP3    H141027   5.352   3.456   0.233  0.2417  0.9247  0.8687
 6464TIP3    H241028   5.432   3.576   0.186 -0.8644  1.0145 -0.8764
 6465TIP3   OH241029   5.687   5.745   7.068 -0.6810  0.0954 -0.0131
 6465TIP3    H141030   5.592   5.737   7.056 -0.4356 -0.6516 -1.7494
 6465TIP3    H241031   5.697   5.815   7.133 -2.4652 -1.4298  2.0418
 6466TIP3   OH241032   3.832   6.631   2.239  0.4170 -0.2102  0.0809
 6466TIP3    H141033   3.897   6.584   2.291 -1.1242  0.0873  2.4570
 6466TIP3    H241034   3.772   6.564   2.208 -1.3819 -0.0699  2.8805
 6467TIP3   OH241035   1.306   6.533   0.974  0.1289  0.5898 -1.0021
 6467TIP3    H141036   1.244   6.473   0.933 -1.5716  0.8066  1.1282
 6467TIP3    H241037   1.356   6.479   1.035 -1.2000  1.1968  0.7017
 6468TIP3   OH241038   5.172   5.094   2.006 -0.1037  0.2429 -0.2780
 6468TIP3    H141039   5.227   5.127   2.077  0.4808  1.6615 -1.3619
 6468TIP3    H241040   5.219   5.016   1.974  0.5229  0.6035 -0.2491
 6469TIP3   OH241041   1.208   2.246   8.160  0.0109  0.4577 -0.6782
 6469TIP3    H141042   1.297   2.236   8.195 -0.3980 -0.3311  0.1550
 6469TIP3    H241043   1.195   2.169   8.105 -0.2920  0.3738 -0.4930
 6470TIP3   OH241044   1.865   4.497   5.889  0.0370 -0.3475  0.0927
 6470TIP3    H141045   1.875   4.421   5.947 -1.2788 -1.0630 -0.5710
 6470TIP3    H241046   1.784   4.539   5.916  0.1458  0.1369 -0.3059
 6471TIP3   OH241047   5.439   4.214   0.981 -0.0599  0.3832 -0.1047
 6471TIP3    H141048   5.420   4.158   0.905 -2.5837  0.0280  0.7115
 6471TIP3    H241049   5.459   4.299   0.943 -0.0002 -0.0978 -1.2124
 6472TIP3   OH241050   5.809   1.444   7.149  0.1917 -0.2127 -0.5352
 6472TIP3    H141051   5.806   1.360   7.195  0.0814  0.4921  0.7674
 6472TIP3    H241052   5.861   1.426   7.071  1.8205 -1.0360  0.6821
 6473TIP3   OH241053   1.817   4.140   0.548 -0.4542 -0.3194  0.5522
 6473TIP3    H141054   1.793   4.174   0.634 -0.1009  0.0604  0.5057
 6473TIP3    H241055   1.786   4.207   0.486  1.2989  0.5350  0.5308
 6474TIP3   OH241056   6.284   0.145   6.801 -0.3907  0.1089  0.2850
 6474TIP3    H141057   6.287   0.134   6.896  1.0173 -0.8119  0.1571
 6474TIP3    H241058   6.375   0.157   6.774 -0.6993 -0.2421 -1.0165
 6475TIP3   OH241059   1.415   2.043   7.503  0.0395  0.1593  0.2939
 6475TIP3    H141060   1.356   2.100   7.453 -0.4372 -1.4868 -1.0917
 6475TIP3    H241061   1.371   1.959   7.505  1.2900 -0.4967  1.2647
 6476TIP3   OH241062   4.647   1.523   0.903  0.1949  0.6038 -0.0085
 6476TIP3    H141063   4.673   1.468   0.829 -0.9277  0.4636 -0.3168
 6476TIP3    H241064   4.723   1.523   0.961  0.5896 -0.4097 -0.5058
 6477TIP3   OH241065   4.928   4.445   7.816  0.1709  0.0842 -0.0561
 6477TIP3    H141066   4.965   4.476   7.898  1.4682  2.7692 -1.5067
 6477TIP3    H241067   4.972   4.361   7.801  2.9113  1.3317  0.2125
 6478TIP3   OH241068   4.845   2.477   7.300  0.4061  0.2141  0.5673
 6478TIP3    H141069   4.826   2.384   7.305 -1.2595  0.6174  3.1183
 6478TIP3    H241070   4.931   2.486   7.342 -0.3300  0.0162  2.1873
 6479TIP3   OH241071   5.371   3.961   0.853  0.2595  0.3512  0.2975
 6479TIP3    H141072   5.438   3.912   0.901 -0.0429 -0.3845 -0.0229
 6479TIP3    H241073   5.288   3.925   0.884  0.0343  0.6244  0.0161
 6480TIP3   OH241074   1.580   3.020   0.357  0.1951  0.3373 -0.6031
 6480TIP3    H141075   1.524   3.059   0.424  1.3133  2.2207 -0.6798
 6480TIP3    H241076   1.527   3.018   0.278  0.2035  2.1602 -0.6946
 6481TIP3   OH241077   2.476   5.726   7.030  0.0109  0.2803 -0.4400
 6481TIP3    H141078   2.553   5.713   6.975 -0.0063 -1.9236 -0.0067
 6481TIP3    H241079   2.482   5.818   7.058  2.5194  0.1541 -0.3639
 6482TIP3   OH241080   5.743   0.065   0.252 -0.1068  0.1986 -0.0517
 6482TIP3    H141081   5.757   0.034   0.162 -1.0407  0.6269 -0.3646
 6482TIP3    H241082   5.812   0.023   0.303  0.8162  0.4294 -1.0719
 6483TIP3   OH241083   6.617   3.711   1.860  0.1658  0.4342 -0.6618
 6483TIP3    H141084   6.698   3.725   1.811 -0.0819  0.8057 -0.9700
 6483TIP3    H241085   6.614   3.784   1.922 -0.5797  1.1668 -1.5296
 6484TIP3   OH241086   5.397   0.732   6.225  0.5129 -0.2259 -0.3612
 6484TIP3    H141087   5.458   0.805   6.230  2.4183 -1.6400 -1.6416
 6484TIP3    H241088   5.449   0.659   6.193 -1.3529 -2.1314  0.6752
 6485TIP3   OH241089   1.640   1.940   8.271  0.2143  0.0517 -0.2656
 6485TIP3    H141090   1.574   1.966   8.208  0.1331 -1.3816 -0.8149
 6485TIP3    H241091   1.600   1.869   8.321  0.4938  0.7630  1.0068
 6486TIP3   OH241092   5.888   2.751   7.967  0.3220 -0.1411  0.0375
 6486TIP3    H141093   5.820   2.811   7.995  0.3097  0.5679 -1.3963
 6486TIP3    H241094   5.967   2.804   7.963  0.1570  0.0523 -2.0055
 6487TIP3   OH241095   5.026   1.217   8.296  0.0595  0.1814 -0.5308
 6487TIP3    H141096   4.998   1.195   8.207 -0.8915  2.3888 -0.8471
 6487TIP3    H241097   5.062   1.306   8.288  1.1557 -0.0773  1.0876
 6488TIP3   OH241098   5.152   1.934   1.267 -0.0270  0.3421 -0.0618
 6488TIP3    H141099   5.243   1.908   1.274 -0.0638  0.4219  0.8498
 6488TIP3    H241100   5.155   2.027   1.243  0.1779  0.9210  2.0414
 6489TIP3   OH241101   0.536   2.490   2.550 -0.3863 -0.2401 -0.2792
 6489TIP3    H141102   0.612   2.532   2.509 -0.0662 -0.7192 -0.1927
 6489TIP3    H241103   0.474   2.561   2.564  0.9061  0.6098  1.6629
 6490TIP3   OH241104   2.819   0.774   8.339  0.0297 -0.6688  0.2810
 6490TIP3    H141105   2.866   0.804   8.261  0.2651  1.5049  1.1737
 6490TIP3    H241106   2.737   0.738   8.305 -1.0166  2.5023 -0.9220
 6491TIP3   OH241107   4.828   2.159   7.321 -0.1482 -0.3577 -0.0645
 6491TIP3    H141108   4.906   2.104   7.312 -0.3726 -0.5310 -1.0153
 6491TIP3    H241109   4.770   2.108   7.377 -0.5334 -1.3086 -1.2960
 6492TIP3   OH241110   2.632   2.473   2.254 -0.6976  0.7772 -0.4141
 6492TIP3    H141111   2.577   2.426   2.317  0.5810 -0.0281  0.1517
 6492TIP3    H241112   2.701   2.513   2.308  0.8212 -0.4886 -1.3361
 6493TIP3   OH241113   5.729   6.625   8.054 -0.4575 -0.9722 -0.2172
 6493TIP3    H141114   5.639   6.655   8.058 -0.2668 -0.3603 -0.3880
 6493TIP3    H241115   5.723   6.530   8.060 -1.0568 -0.8885  0.6466
 6494TIP3   OH241116   1.072   1.001   8.538 -0.1138  0.2788  0.2867
 6494TIP3    H141117   1.121   1.074   8.501  1.1946 -0.5060  0.4001
 6494TIP3    H241118   1.080   0.932   8.472 -0.2243 -0.1821  0.7535
 6495TIP3   OH241119   0.782   6.576   1.052 -0.1358  0.6505  0.1732
 6495TIP3    H141120   0.817   6.612   1.133  1.3171 -1.0896  0.3957
 6495TIP3    H241121   0.715   6.514   1.079 -2.7173  3.1069 -0.2094
 6496TIP3   OH241122   6.263   4.557   7.918  0.8436  0.2556  0.2009
 6496TIP3    H141123   6.287   4.490   7.854 -2.4942 -0.4071 -0.5188
 6496TIP3    H241124   6.291   4.521   8.002 -1.3112 -2.3848 -0.1076
 6497TIP3   OH241125   2.126   6.005   7.404 -0.8347 -0.2944  0.5586
 6497TIP3    H141126   2.036   5.980   7.384 -0.1951 -2.8039  0.4270
 6497TIP3    H241127   2.177   5.971   7.330  0.3325  0.1407  1.1423
 6498TIP3   OH241128   0.352   3.996   6.433  0.1911  0.0558  0.8783
 6498TIP3    H141129   0.278   4.056   6.422 -0.4848 -0.6765  1.3791
 6498TIP3    H241130   0.426   4.042   6.394 -1.0383 -0.2902 -2.0907
 6499TIP3   OH241131   3.283   0.663   8.278  0.1733  0.3620  0.0243
 6499TIP3    H141132   3.308   0.611   8.354  0.4353  1.5107  0.7420
 6499TIP3    H241133   3.298   0.605   8.203 -3.3247 -2.1020  0.9636
 6500TIP3   OH241134   2.689   0.235   0.811  0.3189  0.1004 -0.2505
 6500TIP3    H141135   2.705   0.158   0.757  2.6122 -0.6105  1.2999
 6500TIP3    H241136   2.603   0.219   0.850 -0.1248 -0.6741 -1.4955
 6501TIP3   OH241137   3.987   0.420   0.731 -0.3109  1.1205  0.2196
 6501TIP3    H141138   4.058   0.482   0.715  0.2894  1.4108  3.2638
 6501TIP3    H241139   4.025   0.335   0.712  0.4627  1.3759  0.5559
 6502TIP3   OH241140   1.860   3.891   1.265 -0.0997 -0.1157  0.4937
 6502TIP3    H141141   1.812   3.813   1.238 -0.0989 -0.1308  0.5357
 6502TIP3    H241142   1.911   3.916   1.188 -1.2054  0.7020 -0.0134
 6503TIP3   OH241143   5.628   1.340   0.121 -0.2961  0.4058 -0.8575
 6503TIP3    H141144   5.630   1.371   0.030  0.4880 -0.4059 -1.1386
 6503TIP3    H241145   5.718   1.354   0.152 -0.2846 -0.3122 -0.5601
 6504TIP3   OH241146   0.025   1.683   6.859 -0.0334 -0.4187  0.1928
 6504TIP3    H141147  -0.059   1.639   6.851  0.3682 -1.1267 -0.2713
 6504TIP3    H241148   0.069   1.667   6.775  0.6063 -0.1521  0.4656
 6505TIP3   OH241149   2.968   4.276   1.019  0.7788  0.2387 -0.4021
 6505TIP3    H141150   2.935   4.287   1.109 -0.6085 -1.4413 -0.6440
 6505TIP3    H241151   3.060   4.252   1.030  0.7141  0.3706  0.5533
 6506TIP3   OH241152   3.214   2.754   1.062  0.1693 -0.4089 -0.1174
 6506TIP3    H141153   3.200   2.842   1.096 -0.0311 -1.1183  1.7568
 6506TIP3    H241154   3.146   2.700   1.103  0.7557 -1.5785 -0.6060
 6507TIP3   OH241155   1.001   0.805   0.680 -0.1169 -0.1447  0.5049
 6507TIP3    H141156   1.018   0.712   0.667 -0.6167  0.0220 -1.7207
 6507TIP3    H241157   1.030   0.822   0.769 -0.3342 -2.4985  1.1022
 6508TIP3   OH241158   6.338   6.548   1.065  0.3336  0.4997  0.4340
 6508TIP3    H141159   6.316   6.516   0.977  0.1678  2.0152 -0.1215
 6508TIP3    H241160   6.428   6.519   1.080  0.2899  0.0480 -0.1503
 6509TIP3   OH241161   0.567   0.900   0.822 -0.4300  0.4433  0.0473
 6509TIP3    H141162   0.578   0.950   0.902 -0.6741 -1.1099  1.1003
 6509TIP3    H241163   0.621   0.945   0.757  0.4250  1.2654  1.2952
 6510TIP3   OH241164   1.328   5.002   0.103  0.6285  0.3895  0.1921
 6510TIP3    H141165   1.395   5.058   0.142  1.3045  0.4311 -0.9837
 6510TIP3    H241166   1.291   5.055   0.033 -1.2396  0.6805  1.3406
 6511TIP3   OH241167   3.039   5.225   1.137  0.0932  0.5810 -0.4532
 6511TIP3    H141168   2.963   5.173   1.164 -0.3036  1.2948 -0.1485
 6511TIP3    H241169   3.010   5.272   1.059  1.1470 -1.2480 -2.0409
 6512TIP3   OH241170   6.225   4.899   8.392 -0.0109  0.2596  0.1749
 6512TIP3    H141171   6.297   4.837   8.401 -0.0330  0.3477  0.9709
 6512TIP3    H241172   6.184   4.876   8.308  0.8743  0.1493 -0.2411
 6513TIP3   OH241173   4.477   5.549   1.090  0.1656 -0.4071  0.3585
 6513TIP3    H141174   4.532   5.526   1.015  0.2448 -1.3323  0.6897
 6513TIP3    H241175   4.391   5.568   1.051  0.8770  1.8567 -0.2526
 6514TIP3   OH241176   6.756   5.577   1.329 -0.5464 -0.4533  0.1509
 6514TIP3    H141177   6.778   5.578   1.422 -0.8036 -1.6427  0.2446
 6514TIP3    H241178   6.835   5.609   1.285 -0.6364  0.7115  0.7957
 6515TIP3   OH241179   6.450   4.135   1.051 -0.6683 -0.0885  0.0806
 6515TIP3    H141180   6.356   4.140   1.036 -0.9114 -1.5305  0.9193
 6515TIP3    H241181   6.458   4.100   1.140  0.6712  0.6490  0.2769
 6516TIP3   OH241182   3.413   2.224   8.401  0.6544  0.3080  0.5339
 6516TIP3    H141183   3.470   2.149   8.382 -0.5931 -0.4360 -0.4111
 6516TIP3    H241184   3.406   2.225   8.496  0.4972 -0.9279  0.5515
 6517TIP3   OH241185   2.565   0.072   1.300 -0.3800  0.1138 -0.0606
 6517TIP3    H141186   2.568   0.166   1.320  1.4601  0.2618 -0.8005
 6517TIP3    H241187   2.657   0.048   1.288 -0.7783 -1.9018  0.5879
 6518TIP3   OH241188   0.035   6.102   0.103  0.3284 -0.2145  0.2102
 6518TIP3    H141189  -0.054   6.095   0.138 -0.8375  2.0470 -1.9749
 6518TIP3    H241190   0.049   6.020   0.056  0.7014 -1.9235  3.0541
 6519TIP3   OH241191   4.371   6.088   0.687 -0.5662 -0.1092 -0.1868
 6519TIP3    H141192   4.467   6.094   0.686 -0.4448 -1.5293  0.5913
 6519TIP3    H241193   4.343   6.136   0.609  0.6368  2.2499  0.7100
 6520TIP3   OH241194   4.177   2.603   7.906  0.4690 -0.6466  0.1324
 6520TIP3    H141195   4.111   2.577   7.971  1.6836 -0.0613  1.6861
 6520TIP3    H241196   4.184   2.698   7.916 -0.2366 -0.3576 -1.8063
 6521TIP3   OH241197   4.314   1.933   1.774  0.0017  1.1695 -0.4444
 6521TIP3    H141198   4.386   1.880   1.808 -0.1456  1.3918  0.2230
 6521TIP3    H241199   4.237   1.876   1.782 -0.5113  2.1057  2.0622
 6522TIP3   OH241200   3.299   3.636   6.433 -0.1024  0.2795  0.1172
 6522TIP3    H141201   3.369   3.659   6.371  0.4970 -0.4997  0.4932
 6522TIP3    H241202   3.224   3.688   6.404  0.4534  0.6679 -0.6671
 6523TIP3   OH241203   2.945   2.065   1.592  0.5462 -1.1525 -0.6344
 6523TIP3    H141204   2.983   2.152   1.600 -2.3532  0.1437  0.3736
 6523TIP3    H241205   2.977   2.018   1.669 -1.4637  0.6248  1.4087
 6524TIP3   OH241206   0.466   0.773   0.435 -0.2729  0.2150 -0.3684
 6524TIP3    H141207   0.420   0.691   0.418  1.1657 -1.1602  1.8337
 6524TIP3    H241208   0.402   0.827   0.481  0.2098 -1.8494  3.0902
 6525TIP3   OH241209   0.431   0.505   1.219 -0.3681 -0.0298  0.2675
 6525TIP3    H141210   0.369   0.466   1.158 -0.1973 -3.0490  1.8425
 6525TIP3    H241211   0.378   0.560   1.276 -0.8403  1.0782 -1.1732
 6526TIP3   OH241212   1.465   5.362   7.212 -0.0015 -0.2132  0.0869
 6526TIP3    H141213   1.448   5.423   7.140  1.8075  0.2440  0.0011
 6526TIP3    H241214   1.381   5.355   7.257 -1.3033 -0.8253 -2.2761
 6527TIP3   OH241215   0.009   1.208   8.172  0.3575  0.6572 -0.0336
 6527TIP3    H141216   0.067   1.144   8.213 -0.2391  0.2874  0.2420
 6527TIP3    H241217   0.004   1.181   8.081 -1.7497 -1.1171  0.5403
 6528TIP3   OH241218   3.489   0.520   2.048 -0.2521  0.3763  0.5357
 6528TIP3    H141219   3.543   0.599   2.051  1.6563 -0.8201  0.0827
 6528TIP3    H241220   3.542   0.458   1.997 -1.1914 -1.5146  1.7555
 6529TIP3   OH241221   1.169   1.265   8.503 -0.1166  0.0281  0.3716
 6529TIP3    H141222   1.146   1.291   8.592  0.1968 -0.8106  0.7048
 6529TIP3    H241223   1.162   1.346   8.452 -0.9967  0.3666  1.0108
 6530TIP3   OH241224   2.873   5.701   0.101 -0.3768  0.2026 -0.7536
 6530TIP3    H141225   2.942   5.744   0.052  0.9137 -0.1144  0.7078
 6530TIP3    H241226   2.818   5.773   0.133  0.0248  0.5527 -0.8399
 6531TIP3   OH241227   4.588   5.316   7.424  0.5399 -0.3973  0.4937
 6531TIP3    H141228   4.558   5.339   7.512 -0.8860 -0.2120 -0.0187
 6531TIP3    H241229   4.512   5.277   7.381  0.9552  0.2518 -0.9225
 6532TIP3   OH241230   6.740   5.924   1.312  0.4446 -0.4946  0.3631
 6532TIP3    H141231   6.698   5.938   1.397  1.2030  0.6104  0.5863
 6532TIP3    H241232   6.667   5.908   1.251 -0.3988  1.8004  0.6589
 6533TIP3   OH241233   0.633   6.051   1.526 -0.1778  0.3424 -0.5279
 6533TIP3    H141234   0.612   6.043   1.619  3.0468  0.5768  0.3129
 6533TIP3    H241235   0.547   6.064   1.484 -1.7127  0.6706  2.4054
 6534TIP3   OH241236   1.608   2.976   1.356 -0.5775 -0.0414 -0.5339
 6534TIP3    H141237   1.666   2.957   1.430  1.1362 -1.5956 -2.1740
 6534TIP3    H241238   1.575   3.064   1.373  0.8994  0.2166  1.3448
 6535TIP3   OH241239   6.007   4.140   8.110  0.0861 -0.2732 -0.4253
 6535TIP3    H141240   6.058   4.186   8.177  1.1470 -1.7249 -0.1762
 6535TIP3    H241241   5.916   4.148   8.139  0.4651 -0.2719  0.8336
 6536TIP3   OH241242   1.377   2.311   6.560  0.1522 -0.0579  0.0964
 6536TIP3    H141243   1.331   2.235   6.596 -0.1302  0.6505  1.3038
 6536TIP3    H241244   1.469   2.289   6.568  0.1955  0.6507  2.7982
 6537TIP3   OH241245   5.540   6.299   0.930  0.0126  0.8197 -0.6607
 6537TIP3    H141246   5.522   6.347   1.011  0.7804 -2.3453  1.5988
 6537TIP3    H241247   5.454   6.284   0.891 -0.5151  1.2159  0.3258
 6538TIP3   OH241248   4.740   6.043   8.283  0.1719 -0.6308 -0.0472
 6538TIP3    H141249   4.677   6.056   8.354 -0.6647  0.0433 -0.8743
 6538TIP3    H241250   4.687   6.053   8.203  1.3954  0.3120 -0.7743
 6539TIP3   OH241251   3.244   1.421   6.083 -0.0782  0.2323 -0.5028
 6539TIP3    H141252   3.196   1.350   6.126 -1.3306  0.7255 -1.0459
 6539TIP3    H241253   3.201   1.431   5.998  0.6124  1.0914 -0.7627
 6540TIP3   OH241254   2.734   2.567   7.178 -0.0754  0.6054 -0.1275
 6540TIP3    H141255   2.795   2.533   7.113 -1.4484 -0.4129 -0.9415
 6540TIP3    H241256   2.729   2.661   7.160  0.4806  0.5318 -0.6813
 6541TIP3   OH241257   4.923   4.504   0.335 -0.2127 -0.0116  0.8146
 6541TIP3    H141258   4.911   4.426   0.389  1.1217 -0.0487  1.1027
 6541TIP3    H241259   5.018   4.508   0.320 -0.3111  1.3092  0.4267
 6542TIP3   OH241260   0.384   3.525   1.485  0.3028  0.0522  0.2459
 6542TIP3    H141261   0.446   3.564   1.546 -0.3957  1.7211 -0.0583
 6542TIP3    H241262   0.438   3.485   1.418  1.0606  0.0391  0.8516
 6543TIP3   OH241263   0.035   5.182   0.814 -0.0175 -0.1729 -0.2238
 6543TIP3    H141264  -0.056   5.157   0.798 -0.2017  0.0619  0.4038
 6543TIP3    H241265   0.050   5.158   0.906 -0.4172  2.5634  0.6465
 6544TIP3   OH241266   1.129   1.906   7.267  0.2867 -0.1320  0.4444
 6544TIP3    H141267   1.140   1.979   7.327 -0.4860 -0.7171  1.3189
 6544TIP3    H241268   1.054   1.930   7.213  0.7064  0.1962  0.0015
 6545TIP3   OH241269   2.776   2.885   1.821  0.1522  0.2708 -0.5646
 6545TIP3    H141270   2.863   2.853   1.799  0.7270  1.7678 -0.5749
 6545TIP3    H241271   2.786   2.980   1.829 -0.8672  0.2209  2.2890
 6546TIP3   OH241272   2.035   2.524   6.447 -0.0639  0.4811 -0.3921
 6546TIP3    H141273   2.030   2.620   6.450  1.0771  0.5846 -1.0788
 6546TIP3    H241274   2.123   2.504   6.479 -0.3820 -0.3622 -0.0335
 6547TIP3   OH241275   6.145   0.550   0.747 -0.2469 -0.4732  0.1733
 6547TIP3    H141276   6.210   0.612   0.716 -0.8841  0.6508  1.0262
 6547TIP3    H241277   6.196   0.482   0.791  0.6920 -2.1028 -3.1131
 6548TIP3   OH241278   2.333   1.026   1.463  0.0151 -0.2308  0.1096
 6548TIP3    H141279   2.350   1.027   1.369  0.1705  1.1295  0.1346
 6548TIP3    H241280   2.363   1.111   1.494 -0.0587 -0.6462  1.3944
 6549TIP3   OH241281   6.319   5.931   7.307 -0.4666 -0.5281 -0.2072
 6549TIP3    H141282   6.306   5.975   7.391  2.0065 -0.0216  0.0058
 6549TIP3    H241283   6.344   6.001   7.246 -2.0176 -0.9173 -1.3499
 6550TIP3   OH241284   0.986   4.585   0.715 -0.3833  0.0361 -0.0234
 6550TIP3    H141285   0.979   4.510   0.774 -0.4929  0.6649  0.7770
 6550TIP3    H241286   1.069   4.626   0.739 -1.2219  1.2712  0.8819
 6551TIP3   OH241287   1.298   2.862   0.574 -0.1606  0.2086 -0.1538
 6551TIP3    H141288   1.360   2.794   0.548 -0.5305 -0.8229  1.5605
 6551TIP3    H241289   1.318   2.936   0.515  3.7445  0.5165  1.2834
 6552TIP3   OH241290   6.655   0.456   0.053 -0.1671  0.4811 -0.0563
 6552TIP3    H141291   6.609   0.398   0.114 -0.0819  0.0608 -0.3809
 6552TIP3    H241292   6.607   0.539   0.058 -1.7751 -0.3119 -1.3050
 6553TIP3   OH241293   6.688   6.225   7.225 -0.1659 -0.5997 -0.0951
 6553TIP3    H141294   6.709   6.246   7.134  2.7453 -2.5417 -0.0117
 6553TIP3    H241295   6.602   6.184   7.221  0.0798 -1.0217 -2.0615
 6554TIP3   OH241296   1.992   3.063   1.350 -0.0775  0.4295  0.1010
 6554TIP3    H141297   2.082   3.063   1.319 -0.4015 -0.3545 -0.8870
 6554TIP3    H241298   1.979   2.976   1.388 -0.8864 -0.0774 -1.2526
 6555TIP3   OH241299   4.673   2.974   1.650 -0.0683  0.0064  0.2495
 6555TIP3    H141300   4.749   2.953   1.596 -0.5808 -0.8126 -0.1575
 6555TIP3    H241301   4.695   2.938   1.736  0.6224  1.0583  0.5349
 6556TIP3   OH241302   4.257   2.144   7.360 -0.1527 -0.5557  0.4110
 6556TIP3    H141303   4.192   2.074   7.372 -0.0756 -1.1162 -1.8907
 6556TIP3    H241304   4.342   2.100   7.367 -0.0888 -0.5130 -0.0525
 6557TIP3   OH241305   6.011   5.057   2.592  0.0440 -0.1168  0.5139
 6557TIP3    H141306   5.984   4.965   2.602  0.0200 -0.1077  0.5331
 6557TIP3    H241307   5.989   5.097   2.676 -0.0597 -0.0643  0.4630
 6558TIP3   OH241308   2.911   4.065   7.182  0.2257 -0.9085 -0.1227
 6558TIP3    H141309   2.972   4.054   7.255 -0.2375 -2.1438  0.1107
 6558TIP3    H241310   2.958   4.120   7.119  0.6199  0.2228  1.1023
 6559TIP3   OH241311   0.586   1.622   8.187 -0.2549 -0.2761  0.3570
 6559TIP3    H141312   0.527   1.674   8.242  0.5977 -0.1567  1.1635
 6559TIP3    H241313   0.634   1.687   8.136 -0.7010 -0.3708 -0.2020
 6560TIP3   OH241314   5.223   2.207   7.359  0.1029 -0.3558  0.1969
 6560TIP3    H141315   5.310   2.170   7.374  0.3984  0.8975  1.8522
 6560TIP3    H241316   5.165   2.131   7.358  1.0058 -1.0814  0.8748
 6561TIP3   OH241317   1.753   1.653   7.184  0.6002  0.4128  0.4683
 6561TIP3    H141318   1.698   1.730   7.167 -2.4245 -1.9670 -1.7884
 6561TIP3    H241319   1.700   1.600   7.244  0.7945 -1.5265 -0.9815
 6562TIP3   OH241320   0.097   4.486   6.938 -0.3596  0.0032 -0.3736
 6562TIP3    H141321   0.159   4.519   6.872 -0.6802  0.1705 -0.5953
 6562TIP3    H241322   0.016   4.472   6.889 -0.5105 -0.1652 -0.0751
 6563TIP3   OH241323   6.651   5.859   8.406  0.4547  0.1212 -0.3187
 6563TIP3    H141324   6.612   5.822   8.327  2.0651  0.1172 -1.1671
 6563TIP3    H241325   6.660   5.784   8.465 -0.4392  0.0533 -0.2663
 6564TIP3   OH241326   4.947   0.337   8.177  0.3378 -0.5024  0.2259
 6564TIP3    H141327   4.858   0.349   8.210 -0.7441  0.5373 -2.7613
 6564TIP3    H241328   4.936   0.284   8.097  2.1327  1.1384 -1.2038
 6565TIP3   OH241329   1.194   3.051   1.096  0.1735 -0.1235 -0.5390
 6565TIP3    H141330   1.244   2.983   1.051  0.0464 -0.6078  0.0376
 6565TIP3    H241331   1.260   3.103   1.142  0.2157 -0.2987 -0.3986
 6566TIP3   OH241332   5.081   3.386   6.854  0.2882 -0.2443  0.9795
 6566TIP3    H141333   5.122   3.329   6.789  1.0773  0.9936  0.3459
 6566TIP3    H241334   5.154   3.419   6.906 -0.0588  0.8017  0.8205
 6567TIP3   OH241335   5.563   6.049   1.834 -0.0050 -0.2481  0.3299
 6567TIP3    H141336   5.477   6.046   1.792 -0.4831 -0.8531  1.3015
 6567TIP3    H241337   5.567   5.968   1.885  0.1149  0.9037  2.2534
 6568TIP3   OH241338   1.244   5.244   7.559 -0.3221  0.0833 -0.7437
 6568TIP3    H141339   1.272   5.205   7.642 -2.3597 -1.4691 -0.6944
 6568TIP3    H241340   1.321   5.290   7.527  0.8322 -0.1505  1.4953
 6569TIP3   OH241341   0.412   3.702   0.369 -0.2445  0.1256 -0.0379
 6569TIP3    H141342   0.502   3.723   0.344 -0.7522  1.0506 -1.1351
 6569TIP3    H241343   0.411   3.710   0.465  0.9436 -0.3726  0.0301
 6570TIP3   OH241344   2.149   4.908   7.180 -0.1404 -0.3216 -0.3067
 6570TIP3    H141345   2.093   4.983   7.161  0.8435  0.2906 -0.8440
 6570TIP3    H241346   2.154   4.859   7.098 -0.5811 -0.8609 -0.0239
 6571TIP3   OH241347   6.737   0.437   7.320 -0.5795  0.4636  0.0725
 6571TIP3    H141348   6.736   0.529   7.346 -0.8024  0.3439  0.4850
 6571TIP3    H241349   6.829   0.411   7.330 -0.4576  0.7163 -0.3284
 6572TIP3   OH241350   0.289   2.189   0.151  0.0614 -0.3329  0.0018
 6572TIP3    H141351   0.350   2.262   0.137  0.0084 -0.2841  0.0247
 6572TIP3    H241352   0.246   2.177   0.066  1.3775 -1.5348 -0.5307
 6573TIP3   OH241353   2.338   1.420   2.080 -0.2291  0.1292  0.7008
 6573TIP3    H141354   2.280   1.353   2.116 -1.0153 -0.8294 -2.0768
 6573TIP3    H241355   2.308   1.501   2.121 -1.0779 -0.8233  2.0797
 6574TIP3   OH241356   6.200   0.768   1.696  0.3195 -0.0759  0.3530
 6574TIP3    H141357   6.182   0.684   1.653 -0.3905 -0.0508  0.5788
 6574TIP3    H241358   6.257   0.746   1.769  0.6037 -0.2825  0.0702
 6575TIP3   OH241359   1.150   3.565   0.010  0.5548  0.4358  0.2093
 6575TIP3    H141360   1.144   3.575  -0.085  0.6111  0.8967  0.2533
 6575TIP3    H241361   1.183   3.649   0.041 -1.9160  1.2699  0.8877
 6576TIP3   OH241362   1.121   4.967   1.951  0.5837  1.0797  0.1019
 6576TIP3    H141363   1.033   4.978   1.986  0.8042  1.9183  0.4208
 6576TIP3    H241364   1.109   4.947   1.858  0.0660  1.2679  0.1299
 6577TIP3   OH241365   3.106   5.165   8.403  0.0231  0.6799  0.3927
 6577TIP3    H141366   3.139   5.199   8.486  0.6044  0.3371  0.3050
 6577TIP3    H241367   3.072   5.078   8.425 -0.6698  0.9570  0.4468
 6578TIP3   OH241368   5.033   5.818   0.445 -0.0255 -0.6855 -0.3825
 6578TIP3    H141369   4.961   5.881   0.454  0.3190 -0.1572 -1.2432
 6578TIP3    H241370   4.994   5.744   0.399  0.6071  0.8010 -3.5787
 6579TIP3   OH241371   1.545   4.696   1.293  0.1103 -0.1927 -0.0542
 6579TIP3    H141372   1.607   4.736   1.354 -1.1055  0.6968  0.6305
 6579TIP3    H241373   1.504   4.625   1.342 -1.4909  1.0629  0.5224
 6580TIP3   OH241374   6.111   6.733   0.105 -0.4676 -0.3158  0.2274
 6580TIP3    H141375   6.135   6.700   0.191 -1.3733 -2.1993 -0.1876
 6580TIP3    H241376   6.195   6.752   0.062  0.3543 -3.8902 -0.1256
 6581TIP3   OH241377   6.237   1.485   8.460  0.5980  0.1042 -0.7871
 6581TIP3    H141378   6.325   1.508   8.489 -0.3574  1.9548  0.9161
 6581TIP3    H241379   6.222   1.540   8.382  0.3579  1.0970 -0.0559
 6582TIP3   OH241380   2.633   3.870   2.371 -0.6020 -0.2885 -0.7296
 6582TIP3    H141381   2.675   3.797   2.417  1.3172  1.5109  0.6200
 6582TIP3    H241382   2.688   3.945   2.393 -2.2145  1.4821 -2.4387
 6583TIP3   OH241383   4.936   4.030   2.070 -0.0938 -0.3836  0.3682
 6583TIP3    H141384   4.855   3.994   2.032 -0.5736 -0.7630  1.6882
 6583TIP3    H241385   4.906   4.077   2.148  0.8762  0.2637  0.3556
 6584TIP3   OH241386   4.250   5.911   0.849  0.3297  0.4882  0.2567
 6584TIP3    H141387   4.158   5.935   0.842  0.1311 -0.5964 -1.2611
 6584TIP3    H241388   4.296   5.977   0.796  0.3679  0.6515  0.4899
 6585TIP3   OH241389   3.408   1.767   0.346  0.1325 -0.0345  0.1776
 6585TIP3    H141390   3.444   1.683   0.377 -1.0497 -0.1602  1.2976
 6585TIP3    H241391   3.363   1.803   0.422  0.5127  1.5839 -0.3300
 6586TIP3   OH241392   6.237   3.646   6.628 -0.2393 -0.1955  0.1352
 6586TIP3    H141393   6.233   3.674   6.720 -1.0927 -2.3538  0.8091
 6586TIP3    H241394   6.327   3.665   6.602  0.4388 -0.8077  1.8566
 6587TIP3   OH241395   5.999   2.464   8.604 -0.0506  0.0320  0.0073
 6587TIP3    H141396   5.972   2.373   8.591 -0.6665 -0.1543  2.1926
 6587TIP3    H241397   6.090   2.459   8.632 -0.4675 -0.0390  1.4042
 6588TIP3   OH241398   1.124   0.870   0.934 -0.0619 -0.1216 -0.1392
 6588TIP3    H141399   1.097   0.793   0.986 -2.4207  0.2846 -0.6398
 6588TIP3    H241400   1.101   0.945   0.989 -2.5232  0.3145 -1.6040
 6589TIP3   OH241401   4.626   6.047   8.025 -0.0395  0.1661 -0.5174
 6589TIP3    H141402   4.571   6.120   8.053  1.1508  1.0144 -0.3455
 6589TIP3    H241403   4.659   6.073   7.940  0.4213 -0.1609 -0.4415
 6590TIP3   OH241404   0.249   1.228   0.067  0.4845 -0.4918 -0.0532
 6590TIP3    H141405   0.282   1.263  -0.015  0.0969 -1.5815 -0.6994
 6590TIP3    H241406   0.327   1.203   0.116  0.7041 -0.3442 -0.3273
 6591TIP3   OH241407   3.887   2.136   2.008 -0.6284  0.8091 -0.2714
 6591TIP3    H141408   3.911   2.064   2.066 -1.0159 -0.0901 -1.1855
 6591TIP3    H241409   3.811   2.176   2.048 -0.8964  0.1922 -0.1529
 6592TIP3   OH241410   5.522   5.008   0.567  0.4538  0.0951 -0.0224
 6592TIP3    H141411   5.571   4.959   0.633 -2.2347 -1.3504  1.0673
 6592TIP3    H241412   5.547   5.099   0.580  2.7199 -0.5508  0.4884
 6593TIP3   OH241413   3.491   1.779   7.145 -0.2176  0.4215 -0.3617
 6593TIP3    H141414   3.492   1.770   7.050 -2.5235  0.4250 -0.4481
 6593TIP3    H241415   3.432   1.853   7.161 -1.5295 -0.8589  1.0907
 6594TIP3   OH241416   6.519   2.841   1.135  0.0142  0.2561 -0.1882
 6594TIP3    H141417   6.513   2.856   1.040 -0.2523 -0.7927 -0.3546
 6594TIP3    H241418   6.457   2.904   1.173 -0.1842  0.4013 -0.7387
 6595TIP3   OH241419   2.918   3.515   0.014 -0.4579 -0.1166  0.0373
 6595TIP3    H141420   2.853   3.540  -0.052 -0.5046 -0.6386 -0.1209
 6595TIP3    H241421   2.992   3.573  -0.002 -1.7641  2.1926  1.7859
 6596TIP3   OH241422   1.602   1.109   8.032  0.4703  0.0956  0.1794
 6596TIP3    H141423   1.567   1.197   8.020  0.4781  0.0985  0.1772
 6596TIP3    H241424   1.694   1.116   8.006 -0.1045 -0.4627 -2.2988
 6597TIP3   OH241425   2.260   5.127   7.879 -0.6556  0.1499  0.0166
 6597TIP3    H141426   2.191   5.133   7.945 -0.4956  0.6208  0.1441
 6597TIP3    H241427   2.276   5.217   7.852 -1.7576 -0.1540 -1.7563
 6598TIP3   OH241428   6.564   3.941   2.014  0.2582  0.2139  0.1160
 6598TIP3    H141429   6.513   3.906   2.087  0.5029 -0.7742 -0.1649
 6598TIP3    H241430   6.615   4.013   2.052 -0.7006  0.6547  0.5856
 6599TIP3   OH241431   2.077   1.100   7.636  0.5115 -0.4559 -0.9753
 6599TIP3    H141432   2.019   1.174   7.619 -1.7646 -1.9786 -0.4019
 6599TIP3    H241433   2.107   1.113   7.726 -0.0208 -0.3217 -0.8155
 6600TIP3   OH241434   2.130   6.911   7.184  0.3063  0.0962 -0.0867
 6600TIP3    H141435   2.170   6.828   7.159 -0.7161 -0.0105 -1.4511
 6600TIP3    H241436   2.177   6.977   7.133  0.1035  0.1923 -0.1501
 6601TIP3   OH241437   5.970   5.260   1.354 -0.0393  0.4180  0.3334
 6601TIP3    H141438   5.989   5.214   1.272 -1.3513 -1.3110  0.9157
 6601TIP3    H241439   5.883   5.297   1.341 -1.0663 -1.4452  1.5156
 6602TIP3   OH241440   6.477   4.302   0.493 -0.5721  0.5815  0.0761
 6602TIP3    H141441   6.536   4.265   0.427  1.0178  0.9787  1.2307
 6602TIP3    H241442   6.501   4.394   0.498 -0.5359  0.5133  1.3386
 6603TIP3   OH241443   4.477   4.693   0.916  0.0438 -0.2694  0.7369
 6603TIP3    H141444   4.538   4.622   0.934 -0.4160 -0.7934  0.2879
 6603TIP3    H241445   4.513   4.737   0.838 -0.8569 -1.4456 -0.3852
 6604TIP3   OH241446   0.558   1.526   1.180  0.3500 -0.3270  0.2643
 6604TIP3    H141447   0.619   1.590   1.144 -0.4696 -0.2607 -1.0435
 6604TIP3    H241448   0.570   1.534   1.275  1.2066  0.8201  0.0901
 6605TIP3   OH241449   2.616   5.526   1.729  0.0811 -0.2074  0.5998
 6605TIP3    H141450   2.546   5.585   1.702 -0.6497 -1.7235 -1.0938
 6605TIP3    H241451   2.592   5.499   1.817 -0.8333  0.2307  0.4964
 6606TIP3   OH241452   5.976   3.592   6.607  0.4515 -0.3997  0.1598
 6606TIP3    H141453   5.946   3.517   6.555 -0.2397 -0.3168  0.4282
 6606TIP3    H241454   6.072   3.590   6.600  0.3959 -0.8362 -0.4869
 6607TIP3   OH241455   4.846   1.586   8.342  0.3743  0.4068  0.2270
 6607TIP3    H141456   4.938   1.570   8.321  0.3834  0.4708  0.2176
 6607TIP3    H241457   4.842   1.579   8.438  0.1302 -0.9304  0.1414
 6608TIP3   OH241458   2.682   6.155   0.690  0.5394  0.2938 -0.1964
 6608TIP3    H141459   2.610   6.168   0.628  0.5965 -0.8948 -0.5323
 6608TIP3    H241460   2.661   6.073   0.734  0.2250  1.3715  1.7734
 6609TIP3   OH241461   2.221   6.702   6.237  0.0939  0.0386 -0.3145
 6609TIP3    H141462   2.257   6.777   6.190  0.3877 -0.2492 -0.5563
 6609TIP3    H241463   2.296   6.644   6.251  0.0189  0.1352  0.5496
 6610TIP3   OH241464   6.049   6.272   0.260  0.2021  0.2096 -0.2318
 6610TIP3    H141465   6.035   6.301   0.349 -1.3011 -0.6977 -0.1465
 6610TIP3    H241466   6.125   6.214   0.266 -0.2025 -0.2516  0.5559
 6611TIP3   OH241467   0.691   1.625   6.733 -0.0515 -0.1640  0.4832
 6611TIP3    H141468   0.776   1.663   6.756  0.4348 -1.2762  0.5978
 6611TIP3    H241469   0.706   1.530   6.734 -0.3744 -0.3901 -2.8101
 6612TIP3   OH241470   6.721   2.906   8.312  0.4334  0.2286 -0.2604
 6612TIP3    H141471   6.654   2.930   8.376  0.0769 -0.0003 -0.5421
 6612TIP3    H241472   6.708   2.968   8.240  0.8635  0.5163 -0.0897
 6613TIP3   OH241473   1.016   0.193   1.942 -0.1131 -0.3303 -0.0179
 6613TIP3    H141474   0.959   0.171   2.016  0.2951  1.1763  0.7852
 6613TIP3    H241475   1.092   0.137   1.954  0.5477  0.8163  1.5152
 6614TIP3   OH241476   2.219   0.565   8.495  0.5186 -0.2341  0.3601
 6614TIP3    H141477   2.143   0.623   8.498 -0.5393 -1.4905 -0.9516
 6614TIP3    H241478   2.224   0.528   8.583  0.3912  0.7922  0.8150
 6615TIP3   OH241479   3.355   3.761   1.426  0.4824  0.0191 -0.3808
 6615TIP3    H141480   3.364   3.776   1.521  0.3503 -0.2415 -0.3254
 6615TIP3    H241481   3.280   3.701   1.419  0.4069  0.1473 -0.6599
 6616TIP3   OH241482   4.396   4.880   1.108 -0.4285  0.1141 -0.5234
 6616TIP3    H141483   4.425   4.810   1.050 -2.5594  0.1013 -1.6758
 6616TIP3    H241484   4.301   4.878   1.102 -0.5890  2.9958 -0.4751
 6617TIP3   OH241485   0.540   5.503   0.668 -0.2482  0.6090  0.4339
 6617TIP3    H141486   0.615   5.464   0.622  0.1554  0.2762  1.3336
 6617TIP3    H241487   0.471   5.437   0.661 -0.5400  1.0192 -0.6050
 6618TIP3   OH241488   3.082   3.714   7.972 -0.3647 -0.6273  0.2539
 6618TIP3    H141489   3.058   3.776   7.904 -0.8389  0.3000  1.2304
 6618TIP3    H241490   3.175   3.729   7.987 -0.0844 -1.3387 -0.6626
 6619TIP3   OH241491   3.952   3.929   7.823  0.0860  0.1410 -0.0163
 6619TIP3    H141492   4.020   3.996   7.812 -0.0453  0.3184  0.2232
 6619TIP3    H241493   3.871   3.973   7.795  0.1139 -0.1701 -0.6036
 6620TIP3   OH241494   0.740   6.170   6.792  0.3201  0.1701 -0.8611
 6620TIP3    H141495   0.647   6.160   6.769 -0.1488 -0.7561  1.2645
 6620TIP3    H241496   0.742   6.248   6.848  1.0360  0.8451 -1.7847
 6621TIP3   OH241497   0.098   6.209   7.045 -0.2063 -0.1408  0.1578
 6621TIP3    H141498   0.173   6.149   7.051 -1.3874 -1.5412  2.5582
 6621TIP3    H241499   0.086   6.223   6.951  2.6173 -0.4031 -0.3327
 6622TIP3   OH241500   6.698   1.671   1.431 -0.0096  0.0627 -0.4141
 6622TIP3    H141501   6.789   1.692   1.454 -0.4153 -0.2673  1.7673
 6622TIP3    H241502   6.677   1.595   1.486 -1.8146  0.5777 -0.3336
 6623TIP3   OH241503   5.737   6.364   8.111  0.0515  0.4913 -0.0647
 6623TIP3    H141504   5.728   6.283   8.061  0.7509 -0.2118  0.9020
 6623TIP3    H241505   5.751   6.335   8.201 -0.7817  1.7180  0.4823
 6624TIP3   OH241506   0.777   1.169   1.816  0.3491  0.3076 -0.4418
 6624TIP3    H141507   0.783   1.248   1.762  0.9899  0.8137  0.3542
 6624TIP3    H241508   0.757   1.201   1.904 -0.3656 -0.4894 -0.3073
 6625TIP3   OH241509   4.249   0.227   6.762 -0.7348 -0.3009  0.1635
 6625TIP3    H141510   4.187   0.297   6.778 -0.2423  0.1695  0.0357
 6625TIP3    H241511   4.216   0.153   6.813 -2.1195 -0.4711 -0.9170
 6626TIP3   OH241512   3.172   6.311   0.156  0.3472  0.0511 -0.5096
 6626TIP3    H141513   3.162   6.274   0.244  0.9148  0.9607 -0.0496
 6626TIP3    H241514   3.170   6.235   0.098 -0.2846 -0.5397  0.2679
 6627TIP3   OH241515   2.887   5.379   8.146  0.4350  0.4101 -0.0867
 6627TIP3    H141516   2.828   5.346   8.214 -1.5007  2.2419 -0.7845
 6627TIP3    H241517   2.934   5.451   8.188 -1.8380  2.5402 -0.9679
 6628TIP3   OH241518   4.614   4.420   7.877 -0.2471  0.0313 -0.4490
 6628TIP3    H141519   4.706   4.414   7.849 -0.9176 -0.7334 -2.7205
 6628TIP3    H241520   4.607   4.507   7.915  1.2633  0.3932 -0.9089
 6629TIP3   OH241521   6.812   1.110   2.046 -0.9859 -0.9633 -0.5422
 6629TIP3    H141522   6.874   1.139   1.978 -0.8948  2.5506  0.8507
 6629TIP3    H241523   6.726   1.121   2.006 -0.9436  1.2763 -0.1266
 6630TIP3   OH241524   0.327   0.296   8.418  0.2928  0.0007  0.1802
 6630TIP3    H141525   0.323   0.342   8.502 -1.2556  0.6086 -0.1913
 6630TIP3    H241526   0.247   0.244   8.415  0.6019 -0.4476 -0.6775
 6631TIP3   OH241527   3.541   3.988   0.117  0.1487 -0.4681 -0.3129
 6631TIP3    H141528   3.525   3.945   0.200  1.2335 -1.6573 -0.6840
 6631TIP3    H241529   3.514   4.079   0.131 -1.3252 -1.0394  0.7791
 6632TIP3   OH241530   5.885   6.875   1.481  0.0983  0.1472  0.2536
 6632TIP3    H141531   5.940   6.834   1.415  0.8385 -0.7806  1.4095
 6632TIP3    H241532   5.929   6.857   1.564 -0.9612  1.0181  1.0340
 6633TIP3   OH241533   5.111   0.800   8.533  0.3176 -0.1187 -1.1018
 6633TIP3    H141534   5.031   0.837   8.571  1.1029 -0.3560  0.8966
 6633TIP3    H241535   5.173   0.797   8.606  1.8042 -0.9806 -2.3416
 6634TIP3   OH241536   1.529   5.674   0.274  0.0837  0.3349  0.0076
 6634TIP3    H141537   1.536   5.651   0.182  0.8395 -0.6339  0.2867
 6634TIP3    H241538   1.619   5.668   0.308 -0.4661 -1.6926  1.3157
 6635TIP3   OH241539   5.196   3.579   6.183  0.1990 -0.2759  0.3762
 6635TIP3    H141540   5.138   3.528   6.240 -0.6765 -2.0886 -1.9578
 6635TIP3    H241541   5.275   3.526   6.177  0.5955  0.2957  0.5173
 6636TIP3   OH241542   5.523   3.510   7.174  0.2178  0.0922 -0.2581
 6636TIP3    H141543   5.569   3.429   7.153 -0.0457 -0.4105  0.9826
 6636TIP3    H241544   5.587   3.579   7.159  0.8039 -0.4397 -0.2589
 6637TIP3   OH241545   0.031   6.227   7.301 -0.0397  0.3717 -0.4366
 6637TIP3    H141546   0.074   6.211   7.217  0.0371 -1.2974 -0.1209
 6637TIP3    H241547  -0.062   6.212   7.283 -0.1233  0.8628 -0.4146
 6638TIP3   OH241548   5.400   2.765   0.224  0.2292 -0.9058  0.3955
 6638TIP3    H141549   5.423   2.707   0.297  0.4352  0.9557  1.8860
 6638TIP3    H241550   5.374   2.847   0.266 -0.8315 -0.1499 -1.6002
 6639TIP3   OH241551   2.993   1.518   8.285  0.5115  0.1382 -0.6514
 6639TIP3    H141552   3.065   1.565   8.243  0.2453  1.1107 -0.0336
 6639TIP3    H241553   2.918   1.533   8.228  0.1543  1.4441  0.1313
 6640TIP3   OH241554   3.395   5.119   7.431  0.4391  0.2600  0.5178
 6640TIP3    H141555   3.439   5.056   7.373 -2.4918  0.0482 -1.6928
 6640TIP3    H241556   3.429   5.204   7.404 -0.2639  0.0881 -1.0161
 6641TIP3   OH241557   0.435   6.605   1.037  0.2403 -0.5817 -0.6942
 6641TIP3    H141558   0.497   6.534   1.057  1.1301  0.2534 -0.3990
 6641TIP3    H241559   0.410   6.639   1.123 -1.2635 -1.3999 -0.7686
 6642TIP3   OH241560   6.722   1.902   0.555 -0.0395 -0.5979 -0.2477
 6642TIP3    H141561   6.704   1.987   0.514  0.7983 -1.2208 -1.9820
 6642TIP3    H241562   6.684   1.910   0.643  2.4132  2.5847  0.7414
 6643TIP3   OH241563   0.955   3.401   8.062  0.3359  0.2402 -0.3627
 6643TIP3    H141564   1.048   3.418   8.046 -0.1333  1.1235 -2.5992
 6643TIP3    H241565   0.950   3.307   8.079  1.5423 -0.0262 -1.3310
 6644TIP3   OH241566   5.553   3.466   0.687 -0.3925 -0.2432  0.1036
 6644TIP3    H141567   5.492   3.533   0.657  1.1798  0.8011 -0.9107
 6644TIP3    H241568   5.604   3.508   0.756  0.4675 -0.4398 -0.3969
 6645TIP3   OH241569   0.709   1.397   8.284 -0.8941 -0.0919  0.1175
 6645TIP3    H141570   0.627   1.352   8.306 -1.0805 -0.8382 -1.9007
 6645TIP3    H241571   0.683   1.469   8.228 -0.2946  0.7043  0.8381
 6646TIP3   OH241572   0.987   1.875   7.526 -0.0907 -0.2041  0.2100
 6646TIP3    H141573   0.936   1.797   7.549 -1.2156  0.2691 -0.5414
 6646TIP3    H241574   0.988   1.875   7.430  1.9402 -0.5474  0.1821
 6647TIP3   OH241575   1.062   5.751   1.775 -0.0902 -0.0892 -0.0426
 6647TIP3    H141576   1.099   5.826   1.730 -1.8410 -0.3354 -2.0459
 6647TIP3    H241577   1.125   5.731   1.845  1.9800  1.2690 -1.4108
 6648TIP3   OH241578   5.048   0.439   6.814  0.2688  0.3113  0.7442
 6648TIP3    H141579   5.001   0.450   6.731  1.7735  1.6951  0.0181
 6648TIP3    H241580   4.983   0.404   6.874 -0.9634 -0.4010 -0.9251
 6649TIP3   OH241581   0.425   5.198   6.703  0.1744  0.5233  0.1354
 6649TIP3    H141582   0.377   5.186   6.621 -0.8504  0.4836  0.7251
 6649TIP3    H241583   0.451   5.290   6.702  3.4095 -0.2536 -1.9202
 6650TIP3   OH241584   3.559   6.262   8.444  0.3368 -0.3351 -0.1174
 6650TIP3    H141585   3.542   6.342   8.394  0.1055 -0.5390 -0.3681
 6650TIP3    H241586   3.514   6.193   8.395 -1.4795 -0.2705  1.3248
 6651TIP3   OH241587   5.721   5.036   8.250  0.4022  0.8543  0.0825
 6651TIP3    H141588   5.727   5.030   8.345  0.1989  0.3446  0.0670
 6651TIP3    H241589   5.802   5.080   8.224  1.9512 -1.6347  0.2674
 6652TIP3   OH241590   0.197   4.341   0.671 -0.4663  0.1057 -0.0729
 6652TIP3    H141591   0.117   4.288   0.677 -0.1454 -0.3412  0.3565
 6652TIP3    H241592   0.264   4.288   0.715 -0.4454  1.4710  1.6535
 6653TIP3   OH241593   2.018   5.130   7.373 -0.0418  0.0761 -0.0165
 6653TIP3    H141594   2.030   5.171   7.459  0.1244  0.1197 -0.0595
 6653TIP3    H241595   2.041   5.199   7.310 -1.3009  0.4214 -0.1250
 6654TIP3   OH241596   3.803   2.316   1.237 -0.2800  0.0325  0.1358
 6654TIP3    H141597   3.868   2.368   1.188 -0.9376  0.3688 -0.3989
 6654TIP3    H241598   3.760   2.379   1.294  0.5951 -0.3900  1.2959
 6655TIP3   OH241599   0.841   0.632   1.954 -0.2114 -0.0327 -0.2985
 6655TIP3    H141600   0.846   0.724   1.979 -0.5355 -0.1787  0.3306
 6655TIP3    H241601   0.749   0.619   1.929 -0.2260 -0.2437 -0.1364
 6656TIP3   OH241602   3.826   5.507   1.496 -0.1060 -0.0582 -0.0050
 6656TIP3    H141603   3.788   5.553   1.570 -0.5969  0.3451 -0.5025
 6656TIP3    H241604   3.817   5.568   1.423 -2.3048 -1.5614 -1.0738
 6657TIP3   OH241605   0.290   3.104   7.840 -0.3480 -0.0285  0.1940
 6657TIP3    H141606   0.270   3.141   7.754  1.2758  2.0416  0.6043
 6657TIP3    H241607   0.218   3.132   7.896 -0.5041  0.1767 -0.1100
 6658TIP3   OH241608   2.851   1.708   0.837  0.2325 -0.0361 -0.0688
 6658TIP3    H141609   2.824   1.658   0.760 -0.1130 -1.6928  1.0837
 6658TIP3    H241610   2.770   1.746   0.871  0.1650 -0.4809  0.2747
 6659TIP3   OH241611   4.827   0.862   1.257 -0.5635 -0.2929 -0.1570
 6659TIP3    H141612   4.823   0.832   1.348 -1.7677 -2.0297 -0.7149
 6659TIP3    H241613   4.835   0.781   1.206  1.1903  0.7208 -1.5714
 6660TIP3   OH241614   5.202   2.859   8.335  0.0060 -0.4799  0.1663
 6660TIP3    H141615   5.160   2.854   8.421  0.7441  0.1234  0.5818
 6660TIP3    H241616   5.289   2.896   8.353  0.1518 -0.2934 -0.8475
 6661TIP3   OH241617   5.579   3.922   1.054 -0.4245 -0.5489  0.4058
 6661TIP3    H141618   5.652   3.933   1.115 -0.4648 -2.3815  0.8494
 6661TIP3    H241619   5.505   3.899   1.110 -1.0936  0.1937 -0.1465
 6662TIP3   OH241620   3.300   2.835   1.866 -0.3972  0.8265 -0.5410
 6662TIP3    H141621   3.244   2.798   1.934 -0.2447  0.4821 -0.5982
 6662TIP3    H241622   3.359   2.894   1.913  2.2669 -2.2028  0.2868
 6663TIP3   OH241623   1.069   4.573   6.891  0.0480  0.5556  0.1132
 6663TIP3    H141624   1.038   4.661   6.872 -1.1708  0.0281 -0.4114
 6663TIP3    H241625   1.035   4.519   6.820  1.4422 -0.2213 -0.0076
 6664TIP3   OH241626   6.874   0.599   8.194 -0.0618  0.4840 -0.2980
 6664TIP3    H141627   6.934   0.574   8.124 -0.9404  0.4521 -1.0595
 6664TIP3    H241628   6.795   0.547   8.179 -1.0296  1.9320 -0.5025
 6665TIP3   OH241629   0.856   5.006   2.019  0.2807 -0.0900 -0.2155
 6665TIP3    H141630   0.782   5.022   1.961  0.2703  0.1653 -0.1350
 6665TIP3    H241631   0.828   4.932   2.074  1.2792 -2.0862 -2.2352
 6666TIP3   OH241632   5.342   5.487   1.107  0.5079  0.2361  0.2193
 6666TIP3    H141633   5.357   5.490   1.013 -0.3654 -0.2148  0.0481
 6666TIP3    H241634   5.254   5.523   1.118 -0.9130 -2.9467  0.4397
 6667TIP3   OH241635   6.858   6.777   6.638  0.6586 -0.0451 -0.4450
 6667TIP3    H141636   6.909   6.701   6.608 -1.0232 -0.9665 -1.1278
 6667TIP3    H241637   6.859   6.837   6.564  0.4690 -0.2105 -0.5821
 6668TIP3   OH241638   3.144   6.173   0.995  0.3923  0.5985 -0.2878
 6668TIP3    H141639   3.099   6.220   1.065 -0.6812 -1.0829  0.2022
 6668TIP3    H241640   3.237   6.188   1.011  0.0934  2.9907 -0.4992
 6669TIP3   OH241641   0.242   2.520   0.068 -0.4206 -0.5397 -0.6641
 6669TIP3    H141642   0.195   2.485  -0.008 -1.7734 -1.2015  0.4493
 6669TIP3    H241643   0.177   2.572   0.115  0.4514  0.0041 -0.0333
 6670TIP3   OH241644   3.222   5.337   7.848  0.1891  0.0261 -0.5458
 6670TIP3    H141645   3.250   5.421   7.810  0.0275  0.2720 -0.1283
 6670TIP3    H241646   3.286   5.274   7.816 -1.0690 -0.1721 -2.9171
 6671TIP3   OH241647   1.948   0.204   0.990  0.6476  0.4491 -0.2928
 6671TIP3    H141648   1.918   0.266   1.056 -1.9745 -0.7124 -0.2870
 6671TIP3    H241649   1.906   0.232   0.909  0.7553 -0.3645 -0.6433
 6672TIP3   OH241650   1.724   2.309   8.442  0.1861  0.2847  0.4980
 6672TIP3    H141651   1.645   2.258   8.460  1.1314 -1.0839  0.9827
 6672TIP3    H241652   1.791   2.243   8.425  0.9275  1.4297 -1.3040
 6673TIP3   OH241653   2.121   6.512   2.073 -0.1257 -0.0283 -0.3910
 6673TIP3    H141654   2.096   6.605   2.078  0.4032  0.3139 -2.6778
 6673TIP3    H241655   2.196   6.511   2.013 -0.7287 -2.0107 -1.1895
 6674TIP3   OH241656   3.461   4.288   2.404 -0.5183 -0.1232  0.1106
 6674TIP3    H141657   3.424   4.228   2.468  0.0123 -1.0783 -0.4533
 6674TIP3    H241658   3.417   4.267   2.322 -0.5815  0.5052 -0.0238
 6675TIP3   OH241659   5.999   4.860   0.361  0.1057  0.8465 -0.3250
 6675TIP3    H141660   5.984   4.785   0.304 -0.8849  0.7409  0.0607
 6675TIP3    H241661   6.011   4.822   0.448 -0.4251  1.1263 -0.1240
 6676TIP3   OH241662   6.343   6.612   6.719 -0.8148  0.1938 -0.4775
 6676TIP3    H141663   6.333   6.630   6.812 -2.1958 -1.9438 -0.1472
 6676TIP3    H241664   6.423   6.659   6.694  1.1928 -1.3793  2.3995
 6677TIP3   OH241665   4.943   2.695   1.986 -0.0231  0.0348 -0.0058
 6677TIP3    H141666   4.887   2.677   2.061 -0.5914  0.7414 -0.2472
 6677TIP3    H241667   5.031   2.671   2.016 -0.4589 -1.2437  0.3168
 6678TIP3   OH241668   0.295   4.493   7.928 -0.2345  0.2398 -0.0598
 6678TIP3    H141669   0.297   4.588   7.945 -2.7074  0.7741 -2.0231
 6678TIP3    H241670   0.232   4.459   7.991 -0.7966  0.2678 -0.5930
 6679TIP3   OH241671   1.679   4.497   6.130  0.2346  0.3261 -0.2176
 6679TIP3    H141672   1.648   4.407   6.123  1.5203 -0.0374 -1.8096
 6679TIP3    H241673   1.607   4.543   6.173 -1.3649 -1.0192 -1.2976
 6680TIP3   OH241674   4.331   6.188   0.976  0.2376 -0.0247 -0.3724
 6680TIP3    H141675   4.423   6.164   0.978  0.4454  0.7547 -0.3819
 6680TIP3    H241676   4.297   6.148   0.896  0.8672  0.7403 -1.0325
 6681TIP3   OH241677   5.360   1.281   6.410  0.2206  0.4578  1.0707
 6681TIP3    H141678   5.317   1.244   6.487  0.2049  2.3818  2.0634
 6681TIP3    H241679   5.352   1.376   6.421 -0.8392  0.8304 -1.9275
 6682TIP3   OH241680   3.315   3.134   6.706 -0.0641 -0.0180  0.4508
 6682TIP3    H141681   3.235   3.087   6.728  0.4414 -0.4579  1.4036
 6682TIP3    H241682   3.381   3.097   6.764  0.5153  1.3315  0.6842
 6683TIP3   OH241683   0.885   5.588   1.630 -0.3698 -0.5756 -0.0822
 6683TIP3    H141684   0.869   5.650   1.558  2.5285 -1.5684 -1.7609
 6683TIP3    H241685   0.954   5.629   1.682 -0.3128 -1.2176  0.3584
 6684TIP3   OH241686   5.075   5.418   0.396  0.2199 -0.0563  0.1524
 6684TIP3    H141687   5.025   5.443   0.474 -0.8253 -2.0333  0.2106
 6684TIP3    H241688   5.049   5.481   0.330  1.0397  1.5938  1.3422
 6685TIP3   OH241689   0.088   4.177   7.563 -0.0200  0.1469  0.1314
 6685TIP3    H141690   0.079   4.118   7.488  1.3513  0.0128  0.0358
 6685TIP3    H241691   0.120   4.259   7.525  0.5253  0.1300  0.5367
 6686TIP3   OH241692   2.670   6.651   8.172 -0.1521 -0.0745  0.0917
 6686TIP3    H141693   2.754   6.614   8.200 -0.4356 -1.1228 -0.3916
 6686TIP3    H241694   2.625   6.578   8.129 -0.9850  0.6873 -0.3563
 6687TIP3   OH241695   3.038   3.998   0.685 -0.2672  0.1658 -0.3377
 6687TIP3    H141696   3.035   3.986   0.590 -2.8252  0.4302 -0.3807
 6687TIP3    H241697   3.067   4.089   0.697 -0.4452  0.3024 -0.9132
 6688TIP3   OH241698   0.299   0.691   1.527  0.4312  0.2068 -0.2378
 6688TIP3    H141699   0.307   0.786   1.516 -0.7134  0.5388  1.4825
 6688TIP3    H241700   0.246   0.663   1.453 -0.9349  1.2455  0.2917
 6689TIP3   OH241701   3.471   3.857   8.496  0.2389 -0.0716  0.1589
 6689TIP3    H141702   3.455   3.947   8.468 -0.4760 -0.1423  0.3166
 6689TIP3    H241703   3.543   3.864   8.558  0.4491  0.3431 -0.1282
 6690TIP3   OH241704   0.832   6.618   7.561 -0.0519  0.5006  0.4206
 6690TIP3    H141705   0.804   6.546   7.618  0.3274  0.6206  0.7655
 6690TIP3    H241706   0.812   6.697   7.610  1.5953  0.5794  1.0427
 6691TIP3   OH241707   2.767   1.632   0.572 -0.0708  0.5203  0.4567
 6691TIP3    H141708   2.679   1.641   0.534 -0.7895  0.7758  2.0773
 6691TIP3    H241709   2.802   1.552   0.533 -2.0662 -1.0425  1.6714
 6692TIP3   OH241710   3.271   1.610   0.115  0.6217 -0.1394  0.3025
 6692TIP3    H141711   3.186   1.607   0.159 -0.2960  0.8847 -1.3389
 6692TIP3    H241712   3.323   1.670   0.168 -0.2422  0.5514  0.3910
 6693TIP3   OH241713   6.458   6.831   0.163 -0.1133  0.3704 -0.0409
 6693TIP3    H141714   6.533   6.788   0.203  0.6323  1.8358  0.1781
 6693TIP3    H241715   6.486   6.921   0.148 -1.6690  0.8360 -0.3735
 6694TIP3   OH241716   2.610   1.615   1.846  0.0369 -0.3240  0.7945
 6694TIP3    H141717   2.596   1.649   1.934 -0.6572 -1.1712  1.0183
 6694TIP3    H241718   2.609   1.693   1.790  0.6914  0.2415  1.5455
 6695TIP3   OH241719   2.543   2.815   7.092  0.5282  0.1288  0.0400
 6695TIP3    H141720   2.536   2.868   7.172  1.3400  1.1353 -0.5291
 6695TIP3    H241721   2.611   2.858   7.041  0.9949 -1.3017 -0.5959
 6696TIP3   OH241722   2.710   3.334   8.292  0.9832 -0.3101  0.4911
 6696TIP3    H141723   2.750   3.262   8.339  0.4875 -0.7638  0.2309
 6696TIP3    H241724   2.629   3.297   8.256  0.7912  0.3353  0.2444
 6697TIP3   OH241725   6.372   0.713   8.100  0.1129  0.4471  0.2255
 6697TIP3    H141726   6.353   0.747   8.187 -0.2574 -1.6486  1.0268
 6697TIP3    H241727   6.440   0.770   8.066  0.1267  1.4313  1.8148
 6698TIP3   OH241728   4.552   4.577   1.201 -0.5320  0.2878 -0.2700
 6698TIP3    H141729   4.523   4.497   1.246 -0.6640  0.0679 -0.7362
 6698TIP3    H241730   4.553   4.644   1.269 -0.5310 -0.0870  0.1025
 6699TIP3   OH241731   2.942   5.798   7.981  0.2802  0.6469  0.3600
 6699TIP3    H141732   2.939   5.794   7.885  2.8285  0.7694  0.2051
 6699TIP3    H241733   2.919   5.888   8.001 -2.8448  0.0300  0.1327
 6700TIP3   OH241734   1.942   3.201   8.612 -0.4348  0.1111  0.4187
 6700TIP3    H141735   1.997   3.122   8.612 -0.9379 -0.2450  0.6976
 6700TIP3    H241736   1.854   3.169   8.590 -0.0628  1.0368 -3.1804
 6701TIP3   OH241737   4.309   6.454   1.101  0.5012  0.4020 -0.4163
 6701TIP3    H141738   4.329   6.362   1.120 -3.9424 -0.5262  0.9237
 6701TIP3    H241739   4.365   6.504   1.161  2.3088 -1.4289 -0.4917
 6702TIP3   OH241740   2.224   5.492   6.007  0.2375  0.0316  0.2374
 6702TIP3    H141741   2.318   5.503   6.017  0.1556  0.6697  0.2995
 6702TIP3    H241742   2.204   5.529   5.921  0.3717 -2.1217 -0.8036
 6703TIP3   OH241743   2.679   4.199   5.956  0.3026  0.1723  0.7660
 6703TIP3    H141744   2.635   4.117   5.977  0.0240  0.1830  0.2402
 6703TIP3    H241745   2.608   4.257   5.927  0.8799 -0.5043 -2.3064
 6704TIP3   OH241746   4.460   4.365   8.630 -0.6717 -0.9465 -0.0429
 6704TIP3    H141747   4.404   4.387   8.556 -1.9216 -1.9456  0.5575
 6704TIP3    H241748   4.545   4.403   8.609 -1.6928  1.0911 -0.7594
 6705TIP3   OH241749   4.571   3.909   0.597  0.2063  0.2552  0.5189
 6705TIP3    H141750   4.512   3.856   0.544  0.0152  2.0346 -1.1234
 6705TIP3    H241751   4.659   3.883   0.568  0.1227  0.5532 -0.0071
 6706TIP3   OH241752   4.974   6.742   8.188 -0.1647  0.0811 -0.0673
 6706TIP3    H141753   5.052   6.717   8.139  0.0951 -0.5492  0.6377
 6706TIP3    H241754   4.906   6.682   8.156  0.2787 -1.0874  1.1061
 6707TIP3   OH241755   2.297   1.795   7.138 -0.0661 -0.0984  0.0979
 6707TIP3    H141756   2.383   1.797   7.098 -0.1801  1.4993 -0.1124
 6707TIP3    H241757   2.305   1.848   7.217 -0.8834  0.2040 -0.0035
 6708TIP3   OH241758   2.913   6.468   0.616  0.1651 -0.2553 -0.6304
 6708TIP3    H141759   2.910   6.469   0.712  1.6440 -1.2793 -0.5453
 6708TIP3    H241760   2.980   6.532   0.594 -1.1378  1.0278 -1.0972
 6709TIP3   OH241761   0.126   4.764   6.501 -0.0219 -0.1621 -0.5805
 6709TIP3    H141762   0.057   4.712   6.459  0.7873 -0.4090 -1.6394
 6709TIP3    H241763   0.192   4.776   6.433  0.4023  1.1709  0.0353
 6710TIP3   OH241764   6.136   2.119   7.794  0.3841 -0.5424  0.4968
 6710TIP3    H141765   6.167   2.046   7.740 -1.0611 -1.1337  0.4137
 6710TIP3    H241766   6.130   2.083   7.883  1.2974 -0.0139  0.7859
 6711TIP3   OH241767   2.033   3.949   0.576 -0.0605  0.6490  0.0392
 6711TIP3    H141768   1.963   4.013   0.591  0.1180  0.5061  1.7120
 6711TIP3    H241769   2.114   3.997   0.593  0.0808  0.0511  1.1593
 6712TIP3   OH241770   3.908   1.841   8.037  0.2451 -0.0052  0.5196
 6712TIP3    H141771   3.966   1.765   8.028  1.1134  0.5801  0.9954
 6712TIP3    H241772   3.855   1.841   7.958  0.9678 -0.5017  0.0286
 6713TIP3   OH241773   2.069   2.122   7.112  0.6015 -0.1426 -0.4329
 6713TIP3    H141774   2.053   2.052   7.048  1.3999 -0.9225  0.2067
 6713TIP3    H241775   2.164   2.135   7.111  0.4558  1.0994 -0.6943
 6714TIP3   OH241776   0.991   2.091   1.047  0.3382  0.1751  0.4131
 6714TIP3    H141777   0.898   2.110   1.061  0.2547  1.6079 -1.5408
 6714TIP3    H241778   0.996   1.995   1.044 -1.4002  0.0647 -0.9538
 6715TIP3   OH241779   6.517   2.598   7.861 -0.7749  0.1647  0.0087
 6715TIP3    H141780   6.612   2.605   7.856 -0.4815 -2.5767  0.0544
 6715TIP3    H241781   6.485   2.673   7.812  1.4043  0.9737 -0.3051
 6716TIP3   OH241782   0.498   5.628   7.852  0.0059  0.2097  0.3637
 6716TIP3    H141783   0.415   5.595   7.887 -0.2938 -0.7988 -1.1777
 6716TIP3    H241784   0.558   5.553   7.859  0.3752  0.4849  0.1831
 6717TIP3   OH241785   3.126   3.680   8.594  0.2403 -0.1766  0.3384
 6717TIP3    H141786   3.062   3.707   8.528 -0.4424 -1.2154  0.5464
 6717TIP3    H241787   3.122   3.748   8.661 -0.2690  0.0342  0.0981
 6718TIP3   OH241788   1.632   3.280   1.251 -0.1476  0.4352 -0.3557
 6718TIP3    H141789   1.543   3.289   1.284 -0.5952 -0.7157 -1.2179
 6718TIP3    H241790   1.627   3.312   1.161  0.1299 -0.3568 -0.6572
 6719TIP3   OH241791   6.011   5.356   7.736 -0.0227 -0.6795  0.3397
 6719TIP3    H141792   6.021   5.261   7.724  0.6535 -0.6647  0.7201
 6719TIP3    H241793   6.053   5.394   7.659 -1.1608 -0.6909 -0.3176
 6720TIP3   OH241794   6.416   6.250   8.080 -0.6034  0.3558  0.5540
 6720TIP3    H141795   6.497   6.214   8.045  0.1227  1.8458  0.6510
 6720TIP3    H241796   6.355   6.249   8.006 -0.6468 -1.1277  0.5821
 6721TIP3   OH241797   5.780   1.689   7.011 -0.1059 -0.1341  0.1827
 6721TIP3    H141798   5.817   1.634   7.080  1.1114  0.2036 -0.1683
 6721TIP3    H241799   5.849   1.753   6.991 -1.3528  1.3236  0.3456
 6722TIP3   OH241800   3.204   6.727   6.894 -0.6025  0.3993 -0.1969
 6722TIP3    H141801   3.267   6.664   6.930 -0.4571 -0.2251 -1.4752
 6722TIP3    H241802   3.235   6.742   6.804 -0.0041  3.1503  0.3944
 6723TIP3   OH241803   3.851   6.839   7.150 -0.4189  0.3912  0.1018
 6723TIP3    H141804   3.818   6.749   7.142 -0.6661  0.4061  0.8727
 6723TIP3    H241805   3.875   6.863   7.060  1.2044 -1.0260  0.1074
 6724TIP3   OH241806   2.222   1.266   0.391 -0.2936  0.7166 -0.3372
 6724TIP3    H141807   2.226   1.219   0.307  0.1509  0.0691  0.0308
 6724TIP3    H241808   2.296   1.326   0.387 -0.4581  0.9067 -0.5361
 6725TIP3   OH241809   0.942   5.083   8.628  0.4455  0.5918  0.1428
 6725TIP3    H141810   0.893   5.160   8.599 -0.9061  0.1709  1.2434
 6725TIP3    H241811   0.887   5.008   8.603  1.0735  0.0439  0.3621
 6726TIP3   OH241812   0.539   3.110   0.285 -0.7262  0.1965 -0.1558
 6726TIP3    H141813   0.585   3.180   0.238 -2.5087  1.6683  0.1409
 6726TIP3    H241814   0.527   3.041   0.220  1.4712 -0.0877 -0.3377
 6727TIP3   OH241815   2.500   0.355   6.812  0.1750 -0.2497  0.0663
 6727TIP3    H141816   2.515   0.266   6.779 -2.6029 -1.0544  0.7210
 6727TIP3    H241817   2.506   0.410   6.734  0.1579 -1.2508 -0.6660
 6728TIP3   OH241818   3.436   4.768   7.485  0.3702  0.5150  0.0646
 6728TIP3    H141819   3.526   4.793   7.505  0.3469  0.2644  0.4851
 6728TIP3    H241820   3.414   4.818   7.406  0.9579  0.3884 -0.1815
 6729TIP3   OH241821   4.502   1.184   8.060 -0.2838  0.0316 -0.2429
 6729TIP3    H141822   4.454   1.225   8.132  0.3170  0.6777 -0.1903
 6729TIP3    H241823   4.557   1.118   8.102 -1.0842 -0.6865 -0.2999
 6730TIP3   OH241824   1.057   3.016   7.453  0.3583  0.6906 -0.2673
 6730TIP3    H141825   1.064   2.940   7.396  0.2656  0.3246  0.1962
 6730TIP3    H241826   1.127   3.004   7.518 -2.6113 -1.7229  2.9197
 6731TIP3   OH241827   3.217   0.568   7.817 -0.2150 -0.4999 -0.0724
 6731TIP3    H141828   3.146   0.509   7.843  1.6527 -2.3360  1.1128
 6731TIP3    H241829   3.205   0.580   7.723 -1.2775 -1.8667 -0.1388
 6732TIP3   OH241830   1.898   0.204   7.499 -0.4759  0.6311  0.3205
 6732TIP3    H141831   1.870   0.123   7.541  3.0844 -0.7085  0.4428
 6732TIP3    H241832   1.886   0.188   7.405 -1.5508  0.7407  0.4314
 6733TIP3   OH241833   5.160   5.207   1.591 -0.2391 -1.0778  0.3296
 6733TIP3    H141834   5.097   5.156   1.642 -1.4567  0.7449  0.7457
 6733TIP3    H241835   5.220   5.142   1.555 -1.5552 -2.7618  1.0405
 6734TIP3   OH241836   0.181   1.641   6.607  0.1150  0.4484 -0.2732
 6734TIP3    H141837   0.141   1.607   6.527 -0.8507 -1.2174  0.8597
 6734TIP3    H241838   0.272   1.612   6.603  0.0013  0.1330 -0.6164
 6735TIP3   OH241839   3.026   0.350   0.651 -0.2038 -0.3378  0.3603
 6735TIP3    H141840   3.080   0.309   0.719  0.2713 -0.7220 -0.2398
 6735TIP3    H241841   2.972   0.414   0.698  0.6985 -0.0252  0.9834
 6736TIP3   OH241842   0.522   2.703   8.317  0.2837 -0.8678  0.4598
 6736TIP3    H141843   0.507   2.709   8.223  1.1713  0.3639  0.3670
 6736TIP3    H241844   0.455   2.760   8.355 -0.7625 -2.1920  0.6799
 6737TIP3   OH241845   3.428   6.759   7.854  0.1768  0.7937 -0.6486
 6737TIP3    H141846   3.448   6.838   7.904 -1.5711  0.4807  0.6368
 6737TIP3    H241847   3.336   6.768   7.831  0.2165 -0.4173 -1.3667
 6738TIP3   OH241848   2.136   2.988   1.597  0.3069 -0.0964 -0.3592
 6738TIP3    H141849   2.200   2.955   1.660  1.1273  0.9854 -0.6092
 6738TIP3    H241850   2.097   3.063   1.641 -1.9414 -1.6067  0.4367
 6739TIP3   OH241851   6.528   1.394   6.335 -0.2077  0.0890  0.1864
 6739TIP3    H141852   6.550   1.430   6.249 -1.2163 -2.7657 -1.3823
 6739TIP3    H241853   6.438   1.363   6.325 -0.9519  1.1224  2.8290
 6740TIP3   OH241854   4.527   0.705   0.545  0.1259  0.3261 -0.3130
 6740TIP3    H141855   4.512   0.786   0.496 -0.8200  0.1128 -0.4031
 6740TIP3    H241856   4.577   0.649   0.485 -1.3402 -0.0732 -1.2096
 6741TIP3   OH241857   2.280   1.289   8.460 -0.7070 -0.1692  0.1881
 6741TIP3    H141858   2.309   1.202   8.433  2.7795  1.3336 -1.6605
 6741TIP3    H241859   2.315   1.299   8.549  1.6677  0.2761 -0.6976
 6742TIP3   OH241860   2.671   5.978   7.651 -0.6518 -0.1488  0.1963
 6742TIP3    H141861   2.737   5.927   7.604  0.1658 -0.8346  1.9681
 6742TIP3    H241862   2.673   6.064   7.610 -1.6259 -1.2921 -2.4754
 6743TIP3   OH241863   4.309   5.317   8.205  0.4676  0.2852 -0.1663
 6743TIP3    H141864   4.259   5.317   8.124  0.1101  0.7377  0.0539
 6743TIP3    H241865   4.400   5.311   8.176  0.3131 -0.1474 -0.5788
 6744TIP3   OH241866   1.398   4.844   6.485  0.3618  0.1436  0.1959
 6744TIP3    H141867   1.377   4.903   6.413  1.7139  0.8441  0.3552
 6744TIP3    H241868   1.365   4.759   6.457 -1.6504  0.9459 -0.0307
 6745TIP3   OH241869   3.316   5.422   7.211  0.1442 -0.1075 -0.3111
 6745TIP3    H141870   3.409   5.437   7.192  0.6026  0.5466  2.0671
 6745TIP3    H241871   3.279   5.391   7.129  2.0333  1.5196 -1.8726
 6746TIP3   OH241872   5.377   2.025   8.143 -0.0308  0.3726 -0.1029
 6746TIP3    H141873   5.396   2.107   8.190  0.1373  1.4646 -1.9583
 6746TIP3    H241874   5.440   2.024   8.071 -2.0416  0.2696 -1.9873
 6747TIP3   OH241875   2.691   4.921   2.144 -0.0177  0.0046  0.0526
 6747TIP3    H141876   2.748   4.946   2.072 -0.2592 -0.0718 -0.1654
 6747TIP3    H241877   2.741   4.855   2.192  0.4802  0.6519  0.4356
 6748TIP3   OH241878   1.416   2.566   1.312  0.1042  0.0207  0.4644
 6748TIP3    H141879   1.511   2.555   1.302  0.0550  0.0229 -0.0550
 6748TIP3    H241880   1.397   2.648   1.267 -0.2796 -0.4802 -0.3078
 6749TIP3   OH241881   1.394   5.312   1.773  0.4490  0.4749 -0.4212
 6749TIP3    H141882   1.387   5.244   1.705  1.0171 -0.1104  0.0873
 6749TIP3    H241883   1.477   5.293   1.817  0.0647  0.8077  0.4734
 6750TIP3   OH241884   5.002   1.917   8.254 -0.2589  0.4230 -0.0416
 6750TIP3    H141885   4.937   1.863   8.299 -0.2318 -0.6830 -1.2708
 6750TIP3    H241886   5.086   1.879   8.279 -0.1115  1.2335  0.7555
 6751TIP3   OH241887   5.366   6.583   7.141 -0.2795 -0.8339 -0.5562
 6751TIP3    H141888   5.349   6.496   7.177 -0.7687 -1.2459 -1.7314
 6751TIP3    H241889   5.360   6.642   7.216  2.6838 -2.0471  0.8192
 6752TIP3   OH241890   3.244   3.112   8.120 -0.3733  0.2470  0.1020
 6752TIP3    H141891   3.309   3.168   8.164 -0.8895  1.7854 -1.0253
 6752TIP3    H241892   3.198   3.171   8.061  0.1038 -1.6560 -2.3252
 6753TIP3   OH241893   2.651   3.243   8.617 -0.5843  0.3060  0.1715
 6753TIP3    H141894   2.744   3.252   8.637 -0.3698 -0.1587 -0.5829
 6753TIP3    H241895   2.607   3.257   8.701  0.3900 -3.9658  1.6731
 6754TIP3   OH241896   2.891   3.163   8.402  0.2304 -0.1585 -0.2202
 6754TIP3    H141897   2.910   3.096   8.336  0.5470  1.0839 -1.4209
 6754TIP3    H241898   2.977   3.195   8.430  0.1139 -0.8328  1.0080
 6755TIP3   OH241899   0.355   3.561   8.336 -0.0477 -0.3684  0.0789
 6755TIP3    H141900   0.372   3.647   8.297  1.0651 -0.5521  0.1131
 6755TIP3    H241901   0.422   3.504   8.297 -1.5994 -1.5513 -0.9839
 6756TIP3   OH241902   5.062   6.481   7.787  0.7913 -0.5076  0.2051
 6756TIP3    H141903   4.995   6.464   7.853 -0.3114 -0.0176 -0.7661
 6756TIP3    H241904   5.050   6.412   7.721  0.7444  0.0273 -0.3524
 6757TIP3   OH241905   0.181   2.267   7.650 -0.3037 -0.0387 -0.1430
 6757TIP3    H141906   0.244   2.218   7.703  0.7964  0.4135 -0.9889
 6757TIP3    H241907   0.132   2.200   7.602  0.6259 -0.3502 -0.6761
 6758TIP3   OH241908   6.563   6.433   7.410  0.4125 -0.1050  0.2083
 6758TIP3    H141909   6.495   6.470   7.354  1.4711  2.3364  0.3744
 6758TIP3    H241910   6.634   6.411   7.350  1.3854  2.1271  0.4433
 6759TIP3   OH241911   2.559   4.647   0.497 -0.0760  0.0863  0.2360
 6759TIP3    H141912   2.544   4.559   0.462  0.4924  0.6833 -1.6348
 6759TIP3    H241913   2.645   4.643   0.537  0.7385  0.1890 -1.4118
 6760TIP3   OH241914   2.483   2.713   1.611  0.1763 -0.0682 -0.5116
 6760TIP3    H141915   2.545   2.781   1.586 -1.3480  1.3483 -0.6236
 6760TIP3    H241916   2.429   2.699   1.533  0.1622 -1.0731 -0.3401
 6761TIP3   OH241917   6.648   1.341   8.277 -0.0255  0.2065  0.2098
 6761TIP3    H141918   6.738   1.317   8.256  0.1515 -0.0055  1.1296
 6761TIP3    H241919   6.599   1.260   8.267  0.4315 -0.4501  2.5365
 6762TIP3   OH241920   5.389   2.013   1.619 -0.0934  0.8270 -0.4892
 6762TIP3    H141921   5.479   1.987   1.599 -0.1727  0.3718 -0.2831
 6762TIP3    H241922   5.350   1.935   1.660 -0.3184  1.3113  0.2338
 6763TIP3   OH241923   4.118   4.862   1.066 -0.2819  0.2515 -0.0401
 6763TIP3    H141924   4.054   4.923   1.102 -0.5195  0.0385 -0.0965
 6763TIP3    H241925   4.105   4.867   0.971 -0.8558 -0.4717 -0.0118
 6764TIP3   OH241926   0.995   2.765   0.143 -0.5655 -0.1909  0.6226
 6764TIP3    H141927   0.975   2.848   0.187 -0.0231  1.0206 -1.2981
 6764TIP3    H241928   0.911   2.719   0.140 -0.9572  0.4384  1.3926
 6765TIP3   OH241929   0.130   4.254   0.280  0.4453  0.0250  0.0276
 6765TIP3    H141930   0.127   4.162   0.253 -0.4094 -0.3197  1.2589
 6765TIP3    H241931   0.061   4.263   0.345  0.6024  1.5201  0.0222
 6766TIP3   OH241932   0.988   5.003   0.594  0.8095 -0.0370 -0.1006
 6766TIP3    H141933   0.923   5.027   0.660  0.6872 -1.8203  0.4579
 6766TIP3    H241934   0.938   4.957   0.527  1.0259  1.2735 -1.2010
 6767TIP3   OH241935   4.047   5.495   0.259 -0.6705  1.0882 -0.0465
 6767TIP3    H141936   4.008   5.408   0.250 -0.8383  1.2034 -0.4522
 6767TIP3    H241937   4.028   5.521   0.349 -2.2300  1.4645 -0.4561
 6768TIP3   OH241938   3.344   2.223   0.045 -0.1352 -0.2752 -0.0314
 6768TIP3    H141939   3.347   2.147   0.103  1.0252  0.5095  0.9890
 6768TIP3    H241940   3.264   2.270   0.072  1.3307  1.0647  2.3162
 6769TIP3   OH241941   6.854   5.569   1.578 -0.6202  0.1679 -0.0085
 6769TIP3    H141942   6.882   5.524   1.658  0.6110 -0.0803 -0.5691
 6769TIP3    H241943   6.765   5.599   1.598 -1.0953 -1.6378  0.7390
 6770TIP3   OH241944   5.225   2.421   2.672  0.4046  0.4674 -0.0984
 6770TIP3    H141945   5.187   2.335   2.653 -1.2309  0.3956  2.8232
 6770TIP3    H241946   5.313   2.401   2.705  0.1927 -0.0719  0.1649
 6771TIP3   OH241947   2.656   0.602   7.524  0.1739  0.2031  0.0916
 6771TIP3    H141948   2.670   0.656   7.446  1.3216  1.3064  0.9998
 6771TIP3    H241949   2.629   0.517   7.491 -0.6433  1.0179 -1.4457
 6772TIP3   OH241950   2.748   0.063   1.576  0.3256 -0.0911 -0.3673
 6772TIP3    H141951   2.672   0.013   1.608  0.3010 -0.9438 -1.7045
 6772TIP3    H241952   2.766   0.125   1.647 -1.0447 -0.4845  0.3776
 6773TIP3   OH241953   2.052   1.819   1.723 -0.6767  0.5192 -0.2856
 6773TIP3    H141954   1.969   1.772   1.730 -0.4506 -0.1349 -1.6125
 6773TIP3    H241955   2.107   1.781   1.791 -0.4037 -1.4151 -1.4967
 6774TIP3   OH241956   1.378   1.274   7.225  0.5106  0.0404  0.0242
 6774TIP3    H141957   1.308   1.331   7.195 -0.3547 -0.8347  0.3244
 6774TIP3    H241958   1.452   1.295   7.168 -0.3976  0.0449 -1.1964
 6775TIP3   OH241959   2.268   2.110   0.546  0.2349  0.5852  0.2534
 6775TIP3    H141960   2.249   2.081   0.636  2.3661  0.5570  0.7373
 6775TIP3    H241961   2.278   2.205   0.553 -1.6742  0.8857 -0.3990
 6776TIP3   OH241962   6.126   0.361   1.306  0.0878  0.4996 -0.2573
 6776TIP3    H141963   6.134   0.289   1.369  1.9882 -0.5973 -1.6444
 6776TIP3    H241964   6.033   0.360   1.281  0.0410 -1.4114 -0.1571
 6777TIP3   OH241965   4.117   5.209   7.583  0.1947  0.2488  0.5671
 6777TIP3    H141966   4.068   5.136   7.623  0.4707  0.1231  0.6748
 6777TIP3    H241967   4.075   5.287   7.618 -0.9368  0.1765 -0.5151
 6778TIP3   OH241968   6.724   1.520   0.222 -0.4472 -0.7407 -0.2695
 6778TIP3    H141969   6.652   1.565   0.265  0.5695 -0.2988  1.0637
 6778TIP3    H241970   6.791   1.588   0.209  0.5654 -1.5448  0.5179
 6779TIP3   OH241971   0.793   0.243   7.568 -0.9860 -0.2249 -0.4746
 6779TIP3    H141972   0.722   0.246   7.504 -1.4844  0.9832  0.1103
 6779TIP3    H241973   0.837   0.327   7.561  0.3599 -0.9094 -0.7527
 6780TIP3   OH241974   2.806   2.329   7.637  0.0335  0.4553 -0.2683
 6780TIP3    H141975   2.891   2.355   7.601  0.4792 -0.9064 -0.2438
 6780TIP3    H241976   2.828   2.268   7.708 -0.9746  0.0214 -0.3189
 6781TIP3   OH241977   4.877   4.726   1.855 -0.1271  0.1669  0.3331
 6781TIP3    H141978   4.930   4.803   1.874  0.5245 -0.3671  0.7603
 6781TIP3    H241979   4.857   4.689   1.941  0.5052 -0.7406  0.1056
 6782TIP3   OH241980   2.401   0.636   1.518 -0.5594 -0.0155  0.0670
 6782TIP3    H141981   2.328   0.697   1.509  0.4036  1.1489 -0.0904
 6782TIP3    H241982   2.424   0.612   1.428 -1.3475 -1.1381  0.1502
 6783TIP3   OH241983   6.131   0.350   1.673 -0.4218 -0.1769  0.0807
 6783TIP3    H141984   6.056   0.403   1.697  1.4358  1.8805  1.8376
 6783TIP3    H241985   6.094   0.271   1.633 -3.4513  0.7044  0.9142
 6784TIP3   OH241986   3.467   0.725   1.246  0.0979 -0.5501  0.1651
 6784TIP3    H141987   3.490   0.632   1.250  1.1287 -0.2493  1.9997
 6784TIP3    H241988   3.546   0.771   1.274 -0.4102  0.8944 -0.6733
 6785TIP3   OH241989   5.338   0.767   6.510  0.4832  0.0998  0.1286
 6785TIP3    H141990   5.334   0.739   6.418  0.4423  0.8700 -0.1105
 6785TIP3    H241991   5.428   0.745   6.537  0.5154 -0.0744 -0.1078
 6786TIP3   OH241992   0.137   4.194   1.229 -0.5092  0.0500 -0.2392
 6786TIP3    H141993   0.209   4.135   1.252 -0.8971  0.1223  1.2298
 6786TIP3    H241994   0.180   4.271   1.191  0.2066  0.1431  0.7245
 6787TIP3   OH241995   4.408   0.283   7.194  0.2127  0.7056 -0.0505
 6787TIP3    H141996   4.416   0.300   7.288  0.6883 -2.4537  0.6205
 6787TIP3    H241997   4.337   0.219   7.188  1.9713 -1.2648 -1.4326
 6788TIP3   OH241998   6.233   4.839   0.746 -0.4064 -0.3511  0.3940
 6788TIP3    H141999   6.224   4.813   0.837 -0.3031 -1.3623  0.1260
 6788TIP3    H242000   6.290   4.772   0.707 -0.5257  0.0078 -0.4325
 6789TIP3   OH242001   1.183   4.600   1.447 -0.1403  0.0607  0.4525
 6789TIP3    H142002   1.252   4.543   1.414 -0.6624  1.1610 -2.8641
 6789TIP3    H242003   1.128   4.543   1.500  0.9752 -1.7992 -0.3178
 6790TIP3   OH242004   2.043   0.353   8.095 -0.0692  0.5022 -0.2047
 6790TIP3    H142005   2.117   0.364   8.036 -0.3454 -0.5384 -0.7687
 6790TIP3    H242006   1.966   0.350   8.038 -0.7772  3.1596  0.4635
 6791TIP3   OH242007   2.150   6.786   1.490  0.2517  0.1441 -0.1691
 6791TIP3    H142008   2.054   6.783   1.480  0.0185  0.3243  1.6567
 6791TIP3    H242009   2.170   6.715   1.550  1.3431 -0.1456 -0.8429
 6792TIP3   OH242010   5.503   3.944   1.957  0.3035 -0.4098 -0.0635
 6792TIP3    H142011   5.595   3.926   1.940  0.0654  0.2747 -2.4636
 6792TIP3    H242012   5.473   3.993   1.880 -1.6843  0.7807  1.3565
 6793TIP3   OH242013   0.009   2.909   6.250  0.8134 -0.4975  0.2960
 6793TIP3    H142014  -0.024   2.999   6.248 -2.7978 -1.6838  0.2143
 6793TIP3    H242015   0.043   2.894   6.162 -1.3341 -0.0846 -0.6689
 6794TIP3   OH242016   5.714   5.910   8.538  0.8041  0.3431 -0.4518
 6794TIP3    H142017   5.638   5.856   8.513  0.0600  1.6646 -1.1396
 6794TIP3    H242018   5.777   5.847   8.574 -0.8973 -0.6859  0.8456
 6795TIP3   OH242019   3.203   6.423   7.922 -0.4269  0.5882  0.2961
 6795TIP3    H142020   3.215   6.508   7.966  0.9775  1.4988 -1.6897
 6795TIP3    H242021   3.118   6.431   7.879 -1.4319  0.0017  2.0940
 6796TIP3   OH242022   4.013   3.987   1.439  0.0932  0.3748  0.1676
 6796TIP3    H142023   4.050   4.026   1.360  1.7001 -1.3214  0.0115
 6796TIP3    H242024   3.954   3.919   1.407  0.6237 -0.2080  0.3991
 6797TIP3   OH242025   1.960   0.746   1.819 -0.1059  0.7197  0.1036
 6797TIP3    H142026   1.916   0.682   1.764  0.6072 -1.6758  2.0859
 6797TIP3    H242027   1.898   0.763   1.891 -0.0956  1.9364 -0.1543
 6798TIP3   OH242028   6.589   6.540   0.036 -0.0531 -0.0201 -0.2064
 6798TIP3    H142029   6.511   6.541   0.091 -0.4213  1.7875 -0.7012
 6798TIP3    H242030   6.566   6.482  -0.037  0.0149 -1.4774  0.8787
 6799TIP3   OH242031   6.896   3.777   8.147  0.0898 -0.0667 -0.0426
 6799TIP3    H142032   6.856   3.782   8.060 -1.0619 -0.3874  0.4494
 6799TIP3    H242033   6.884   3.686   8.173  1.4963 -0.2652 -0.0216
 6800TIP3   OH242034   2.372   0.347   8.048 -0.7851 -0.2346  0.1838
 6800TIP3    H142035   2.335   0.378   8.130 -2.0278 -1.8094  0.2716
 6800TIP3    H242036   2.421   0.422   8.013 -0.6278  0.6077  2.1013
 6801TIP3   OH242037   0.152   6.084   7.823 -0.4830  0.1623  0.0424
 6801TIP3    H142038   0.161   5.997   7.784 -1.0123 -0.1565  0.6278
 6801TIP3    H242039   0.240   6.123   7.814 -0.5052 -0.0321 -1.1362
 6802TIP3   OH242040   4.639   2.016   1.465 -0.0198  0.6707 -0.0532
 6802TIP3    H142041   4.591   1.983   1.389 -0.1019  0.6145  0.0231
 6802TIP3    H242042   4.729   1.989   1.451  0.2489  1.8828 -0.8505
 6803TIP3   OH242043   6.553   2.316   0.232 -0.1996 -0.0740  0.3033
 6803TIP3    H142044   6.480   2.254   0.238 -0.4619  0.3033  1.1423
 6803TIP3    H242045   6.543   2.355   0.145  0.6333 -1.9931 -0.7329
 6804TIP3   OH242046   6.729   1.565   7.975 -0.0939 -0.3711  0.1647
 6804TIP3    H142047   6.698   1.652   7.950  1.8872 -0.3136 -2.4529
 6804TIP3    H242048   6.792   1.581   8.046 -0.5611  0.2017  0.4565
 6805TIP3   OH242049   6.897   1.754   7.537 -0.3213  0.5397  0.4381
 6805TIP3    H142050   6.912   1.687   7.604  2.0908  0.5466 -0.0150
 6805TIP3    H242051   6.803   1.746   7.517 -0.1488 -2.8366  0.3014
 6806TIP3   OH242052   6.578   2.498   8.140 -0.1594 -0.6201 -0.0772
 6806TIP3    H142053   6.486   2.482   8.161 -0.5181  1.0936 -0.1206
 6806TIP3    H242054   6.576   2.526   8.048  0.1602  0.9368  0.3550
 6807TIP3   OH242055   6.250   4.283   0.000 -0.3562  0.0426 -0.3133
 6807TIP3    H142056   6.295   4.240   0.073 -0.2340  1.5597  0.5452
 6807TIP3    H242057   6.161   4.247   0.003 -0.2436 -0.1942  0.3537
 6808TIP3   OH242058   5.212   1.045   8.418  0.4270 -0.1870  0.3541
 6808TIP3    H142059   5.153   1.092   8.359  1.4386  0.6905  0.0044
 6808TIP3    H242060   5.172   0.959   8.429 -0.0316 -0.2004 -1.2400
 6809TIP3   OH242061   4.662   2.213   8.069  0.5197  0.3403 -0.4824
 6809TIP3    H142062   4.733   2.278   8.071 -0.4543  1.5856 -2.6573
 6809TIP3    H242063   4.706   2.131   8.048  1.5801  0.6028  0.5823
 6810TIP3   OH242064   4.138   5.333   6.157 -0.4345 -0.8433  0.0970
 6810TIP3    H142065   4.219   5.371   6.122 -0.1163  0.6312  2.2749
 6810TIP3    H242066   4.068   5.380   6.112 -0.0983 -1.0774 -0.6987
 6811TIP3   OH242067   2.221   6.755   1.861  0.4112  0.0827  0.4295
 6811TIP3    H142068   2.143   6.757   1.806  0.2855 -0.4174  0.5851
 6811TIP3    H242069   2.246   6.847   1.870  0.6572  0.1498 -0.7669
 6812TIP3   OH242070   4.540   5.956   1.146  0.4238 -0.1745  0.0966
 6812TIP3    H142071   4.496   6.019   1.204  1.2625 -0.0138  0.5704
 6812TIP3    H242072   4.539   5.997   1.060 -0.3389 -0.1698  0.1015
 6813TIP3   OH242073   4.277   2.389   2.268  0.3952  0.0455 -0.4053
 6813TIP3    H142074   4.230   2.361   2.346  0.1053  0.2678 -0.4987
 6813TIP3    H242075   4.367   2.403   2.297  0.0441  1.2497  0.1452
 6814TIP3   OH242076   5.924   6.691   6.484 -0.1245  0.0377  0.7454
 6814TIP3    H142077   5.948   6.723   6.397 -2.8550  0.9363  0.2208
 6814TIP3    H242078   5.973   6.748   6.544 -0.3234  1.2703 -0.2086
 6815TIP3   OH242079   4.133   0.445   7.146  0.2647 -0.4550  0.4698
 6815TIP3    H142080   4.135   0.439   7.051 -0.2952 -0.0930  0.4323
 6815TIP3    H242081   4.129   0.354   7.176  1.1747 -0.6027  0.1745
 6816TIP3   OH242082   1.502   1.612   1.451 -0.0130 -0.1011 -0.1666
 6816TIP3    H142083   1.565   1.589   1.382  0.2817 -1.9422  0.6388
 6816TIP3    H242084   1.548   1.592   1.533 -1.9673 -2.6964  0.4320
 6817TIP3   OH242085   5.644   5.600   1.880 -0.4301  0.0008 -0.9007
 6817TIP3    H142086   5.602   5.561   1.804 -3.1869 -2.0584  1.4530
 6817TIP3    H242087   5.658   5.527   1.941 -2.1517  1.9646  2.1526
 6818TIP3   OH242088   1.258   3.892   1.981  0.6613 -0.2835 -0.2177
 6818TIP3    H142089   1.348   3.924   1.987  0.1081  1.2124  0.5541
 6818TIP3    H242090   1.254   3.819   2.042  1.5945 -1.0344 -1.0121
 6819TIP3   OH242091   1.852   4.172   7.178 -0.1063 -0.1257  0.0036
 6819TIP3    H142092   1.927   4.201   7.230 -0.1952  0.1393 -0.0134
 6819TIP3    H242093   1.801   4.252   7.163  0.2032 -0.0975 -0.9509
 6820TIP3   OH242094   4.276   6.190   0.125 -0.4865 -0.0075  0.5321
 6820TIP3    H142095   4.359   6.163   0.163  0.3016  1.1172 -0.3351
 6820TIP3    H242096   4.215   6.120   0.148  0.2080  0.0802  2.8812
 6821TIP3   OH242097   6.851   4.898   7.335 -0.6745  0.3270  0.5134
 6821TIP3    H142098   6.854   4.802   7.337 -2.1180  0.1877 -1.4016
 6821TIP3    H242099   6.936   4.924   7.301 -0.2255 -0.2489  1.1683
 6822TIP3   OH242100   4.185   2.587   8.559 -0.1585  0.4788  0.1113
 6822TIP3    H142101   4.205   2.503   8.599 -2.0569 -1.2483 -2.2818
 6822TIP3    H242102   4.216   2.652   8.622  3.8581 -1.9014  0.8954
 6823TIP3   OH242103   1.267   0.522   7.638 -0.0773  0.3824 -0.0856
 6823TIP3    H142104   1.317   0.498   7.716 -0.7603  0.6075  0.4317
 6823TIP3    H242105   1.245   0.438   7.597 -0.7947  0.2059  0.6554
 6824TIP3   OH242106   6.716   2.020   6.466 -0.0220  0.0960  0.3645
 6824TIP3    H142107   6.761   2.099   6.435  0.9255 -0.2256  0.9102
 6824TIP3    H242108   6.770   1.948   6.435 -0.7781 -0.3484  0.0511
 6825TIP3   OH242109   2.127   0.571   2.242 -0.3293  0.1323  0.3329
 6825TIP3    H142110   2.078   0.568   2.324  0.2094  0.1309  0.6613
 6825TIP3    H242111   2.187   0.644   2.252 -0.0330 -0.0713  0.0690
 6826TIP3   OH242112   4.528   1.752   8.530 -0.1398 -0.3376  0.1603
 6826TIP3    H142113   4.454   1.813   8.528 -0.1965 -0.4127 -0.4336
 6826TIP3    H242114   4.603   1.806   8.554 -0.2448 -0.0898 -0.0572
 6827TIP3   OH242115   5.813   3.403   1.343  0.6528  0.1421 -0.0291
 6827TIP3    H142116   5.869   3.464   1.392  0.3366 -0.2665  0.8587
 6827TIP3    H242117   5.733   3.452   1.326 -0.4181 -0.5963  2.4231
 6828TIP3   OH242118   4.331   1.095   1.889 -0.3982 -0.7833  0.2451
 6828TIP3    H142119   4.326   1.046   1.971 -0.9296 -0.0660  0.6462
 6828TIP3    H242120   4.380   1.174   1.910 -0.0215 -0.8744 -0.2692
 6829TIP3   OH242121   3.165   3.944   7.757 -0.2072 -0.5999  0.2582
 6829TIP3    H142122   3.191   3.979   7.842 -1.4469  0.8711  0.0781
 6829TIP3    H242123   3.224   3.985   7.695 -1.3489  0.8722  0.0999
 6830TIP3   OH242124   6.010   1.031   0.133 -0.0084 -0.0064  0.1270
 6830TIP3    H142125   6.065   0.969   0.084  0.0228 -0.4578  0.7202
 6830TIP3    H242126   6.066   1.107   0.146 -0.1014  0.2229 -0.7541
 6831TIP3   OH242127   3.126   4.892   7.442  0.0244 -0.2266  0.2236
 6831TIP3    H142128   3.158   4.935   7.522 -1.2239 -0.3544  0.8136
 6831TIP3    H242129   3.102   4.804   7.470 -1.3623  0.0438 -0.0707
 6832TIP3   OH242130   1.841   0.389   1.888 -0.0053  0.3765  0.3936
 6832TIP3    H142131   1.858   0.379   1.981 -0.5395  0.0256  0.4545
 6832TIP3    H242132   1.891   0.318   1.847  2.3730  2.0487  0.1567
 6833TIP3   OH242133   1.910   6.141   2.102 -0.4436  0.0071  0.2509
 6833TIP3    H142134   1.826   6.174   2.071 -0.3980 -0.9362 -0.9404
 6833TIP3    H242135   1.887   6.084   2.176 -0.8578 -0.1475  0.0079
 6834TIP3   OH242136   1.558   4.094   6.813  0.0779 -0.0492 -0.4809
 6834TIP3    H142137   1.634   4.147   6.790  0.1246  0.7849  1.4255
 6834TIP3    H242138   1.593   4.006   6.826  0.2284 -0.2992 -2.2550
 6835TIP3   OH242139   0.758   5.309   8.643 -0.4296  0.1422  0.6340
 6835TIP3    H142140   0.733   5.398   8.668  1.3993  0.4103  1.6711
 6835TIP3    H242141   0.747   5.307   8.547  0.6861  1.9136  0.4254
 6836TIP3   OH242142   3.612   5.451   0.700  0.0059  0.3256  0.3634
 6836TIP3    H142143   3.701   5.422   0.721 -0.3964  0.4362  2.3184
 6836TIP3    H242144   3.590   5.514   0.768 -1.0445  1.4281 -0.9438
 6837TIP3   OH242145   0.065   5.298   7.541  0.6684 -0.4482  0.2569
 6837TIP3    H142146   0.158   5.312   7.561  0.8321  1.2081 -1.3695
 6837TIP3    H242147   0.024   5.281   7.626  2.2828 -0.0976  1.1447
 6838TIP3   OH242148   5.769   6.200   7.658 -0.1175 -0.3699  0.1530
 6838TIP3    H142149   5.729   6.209   7.571 -0.9938  0.3317  0.6090
 6838TIP3    H242150   5.727   6.268   7.711  0.0673 -1.0815  1.2538
 6839TIP3   OH242151   2.784   6.910   7.995 -0.1317  0.4388 -0.3181
 6839TIP3    H142152   2.814   6.881   8.082 -0.7578  0.0968 -0.2161
 6839TIP3    H242153   2.724   6.842   7.966  1.8825 -0.7303 -2.0956
 6840TIP3   OH242154   3.138   0.788   0.720  0.3412  0.1654 -0.0863
 6840TIP3    H142155   3.063   0.761   0.667  0.6121 -1.2911  0.2461
 6840TIP3    H242156   3.133   0.733   0.799 -0.3816  2.6346  1.7367
 6841TIP3   OH242157   1.283   4.171   7.781 -0.8647 -0.3253  0.3512
 6841TIP3    H142158   1.216   4.235   7.755 -1.0307 -0.5660  0.1761
 6841TIP3    H242159   1.343   4.220   7.837 -0.0485  0.4186 -1.1137
 6842TIP3   OH242160   3.483   1.217   6.664 -0.5061  0.1970 -0.0673
 6842TIP3    H142161   3.454   1.175   6.745  0.8576 -1.2183 -0.2689
 6842TIP3    H242162   3.568   1.255   6.686 -0.0224 -0.3930 -0.8867
 6843TIP3   OH242163   5.273   6.868   0.671 -0.8683 -0.8202  0.6243
 6843TIP3    H142164   5.256   6.949   0.720 -1.1444 -0.5113  0.0254
 6843TIP3    H242165   5.246   6.799   0.731 -1.6094 -0.4300  0.7666
 6844TIP3   OH242166   2.403   4.905   1.006 -0.2932 -0.3293  0.1041
 6844TIP3    H142167   2.480   4.862   1.043 -0.1712  0.7273  1.1345
 6844TIP3    H242168   2.391   4.984   1.060 -0.9023  0.5742 -1.2948
 6845TIP3   OH242169   1.279   1.947   2.098  0.3984  0.7383  0.2830
 6845TIP3    H142170   1.331   1.973   2.174  1.3539 -0.8901  0.2202
 6845TIP3    H242171   1.300   1.855   2.084 -0.4327  0.7648 -1.4292
 6846TIP3   OH242172   3.016   3.853   6.703  0.0069 -0.6408  0.3560
 6846TIP3    H142173   3.030   3.780   6.643 -0.7840 -0.2197 -0.3540
 6846TIP3    H242174   3.012   3.812   6.790  1.4788 -1.2218  0.1873
 6847TIP3   OH242175   3.839   6.454   1.007 -0.0345  0.0242 -0.5694
 6847TIP3    H142176   3.886   6.485   0.929 -0.7496 -0.5883 -1.2626
 6847TIP3    H242177   3.793   6.532   1.039  1.2435  0.5784 -0.0103
 6848TIP3   OH242178   2.665   5.818   7.295  0.6354  0.1431  0.2642
 6848TIP3    H142179   2.676   5.757   7.222 -0.2967 -1.6198  1.5081
 6848TIP3    H242180   2.620   5.894   7.256 -2.1168 -1.7728 -0.6203
 6849TIP3   OH242181   1.626   6.898   6.901  0.2907 -0.2820 -0.5076
 6849TIP3    H142182   1.663   6.946   6.975 -0.5180 -1.7344  0.9184
 6849TIP3    H242183   1.539   6.936   6.889  0.8073  0.6597 -1.4453
 6850TIP3   OH242184   0.794   5.411   7.658 -0.9157 -0.1947  0.0387
 6850TIP3    H142185   0.889   5.408   7.675 -0.7494 -1.6179 -0.9817
 6850TIP3    H242186   0.781   5.491   7.607 -0.2493 -0.0786  0.0399
 6851TIP3   OH242187   1.093   0.572   0.759 -0.2678  0.5708 -0.1098
 6851TIP3    H142188   1.090   0.589   0.853 -1.2737 -0.5754  0.0882
 6851TIP3    H242189   1.048   0.488   0.748  2.2524 -0.7240 -1.2965
 6852TIP3   OH242190   4.587   4.861   0.734  0.0120 -0.1750  0.2644
 6852TIP3    H142191   4.603   4.943   0.782  2.6333 -0.6354  0.3549
 6852TIP3    H242192   4.564   4.889   0.646  0.0226  0.6555  0.5183
 6853TIP3   OH242193   4.837   3.258   7.019  0.1686  0.2865 -0.2895
 6853TIP3    H142194   4.762   3.217   7.062  1.4038 -1.8057  0.0002
 6853TIP3    H242195   4.869   3.321   7.084 -0.5854  0.3179  0.0699
 6854TIP3   OH242196   5.964   0.412   6.059  0.2104  0.3924 -0.3905
 6854TIP3    H142197   5.959   0.468   5.982  0.5824 -0.1203 -0.7988
 6854TIP3    H242198   5.901   0.450   6.120  0.4617  1.2504 -0.6498
 6855TIP3   OH242199   6.831   3.372   0.536  0.1915 -0.5822 -0.0683
 6855TIP3    H142200   6.877   3.426   0.472 -0.2350  0.1358  0.2165
 6855TIP3    H242201   6.858   3.283   0.516  2.2942 -0.1443  0.5770
 6856TIP3   OH242202   0.703   6.331   7.012 -0.2000  0.3049  0.1193
 6856TIP3    H142203   0.664   6.302   7.094  0.7236 -1.1433  0.0702
 6856TIP3    H242204   0.792   6.356   7.035 -0.1367  0.5165 -0.3322
 6857TIP3   OH242205   2.581   1.153   1.795 -0.0116  0.2578 -0.0174
 6857TIP3    H142206   2.621   1.211   1.730 -0.2839  0.4667  0.0022
 6857TIP3    H242207   2.538   1.085   1.742  1.8174 -0.9693 -0.0310
 6858TIP3   OH242208   1.174   3.286   7.115 -0.1492  0.1969  0.5436
 6858TIP3    H142209   1.187   3.197   7.084  1.3399  0.1935  1.1197
 6858TIP3    H242210   1.106   3.279   7.182 -1.6500 -0.1471 -0.9512
 6859TIP3   OH242211   6.901   3.337   6.824  0.4532  0.3329 -0.2047
 6859TIP3    H142212   6.953   3.409   6.860  0.4771  0.3386 -0.2508
 6859TIP3    H242213   6.954   3.259   6.840 -0.8444 -0.0868  2.4759
 6860TIP3   OH242214   1.876   1.167   6.381  0.0180 -0.7407  0.1062
 6860TIP3    H142215   1.878   1.136   6.290 -1.2392  1.3423 -0.7029
 6860TIP3    H242216   1.786   1.151   6.410 -0.1105  0.2664  0.3171
 6861TIP3   OH242217   2.542   2.708   0.323 -0.3345 -0.1944  0.1730
 6861TIP3    H142218   2.517   2.663   0.404  0.6825 -0.8884  0.1214
 6861TIP3    H242219   2.543   2.639   0.257  1.7110 -0.2407  0.1890
 6862TIP3   OH242220   1.975   4.090   0.848 -0.2540  0.0647 -0.0769
 6862TIP3    H142221   2.038   4.103   0.919 -0.2417  1.8098 -0.3587
 6862TIP3    H242222   2.013   4.136   0.774 -0.7104 -0.9585 -0.9764
 6863TIP3   OH242223   2.288   3.755   7.054  0.2311 -0.2920 -0.9582
 6863TIP3    H142224   2.228   3.822   7.019  0.3220  2.4650  3.4200
 6863TIP3    H242225   2.232   3.699   7.107  1.0852  1.0861  1.5407
 6864TIP3   OH242226   5.538   2.678   0.990 -0.0236 -0.3613  0.6000
 6864TIP3    H142227   5.475   2.689   1.061  0.2499 -1.3843  1.0155
 6864TIP3    H242228   5.489   2.699   0.910 -0.0173  2.0102  1.1276
 6865TIP3   OH242229   6.006   6.855   0.791 -0.3816 -0.2061  0.1788
 6865TIP3    H142230   6.085   6.898   0.823 -0.9586  0.0644  1.2760
 6865TIP3    H242231   5.965   6.818   0.869 -1.3496 -0.3313 -0.3722
 6866TIP3   OH242232   4.402   5.928   8.361 -0.0922 -0.0797 -0.0566
 6866TIP3    H142233   4.367   6.014   8.384 -0.0682  0.1874 -0.9714
 6866TIP3    H242234   4.486   5.924   8.406  0.0403  0.5080 -0.2332
 6867TIP3   OH242235   2.755   0.958   1.127  0.7115 -0.3918 -0.9666
 6867TIP3    H142236   2.839   0.984   1.089  1.8811 -1.9842  0.4062
 6867TIP3    H242237   2.710   0.911   1.056  0.8566  0.6523 -1.7726
 6868TIP3   OH242238   1.367   6.087   1.208 -0.2415 -0.3205  0.2525
 6868TIP3    H142239   1.339   5.996   1.218  1.7899 -1.0782 -0.4630
 6868TIP3    H242240   1.431   6.085   1.137 -0.2523  1.6967  0.1411
 6869TIP3   OH242241   4.573   2.447   8.540 -0.2310 -0.0044 -0.1825
 6869TIP3    H142242   4.510   2.442   8.468 -1.0788  0.0426  0.5399
 6869TIP3    H242243   4.658   2.429   8.499 -1.1035 -5.0893 -0.4920
 6870TIP3   OH242244   5.589   4.580   1.522 -0.0978 -0.4098  0.1283
 6870TIP3    H142245   5.661   4.559   1.463 -0.8334  0.6447 -1.1923
 6870TIP3    H242246   5.580   4.502   1.577 -0.0488 -1.8616 -1.8310
 6871TIP3   OH242247   6.246   6.616   8.392 -0.2222 -0.4416 -0.2723
 6871TIP3    H142248   6.256   6.663   8.475 -1.4369 -0.1789 -0.2510
 6871TIP3    H242249   6.204   6.679   8.334  0.3059 -0.7386 -0.9854
 6872TIP3   OH242250   6.031   6.902   6.357 -0.2528  0.6958  0.4599
 6872TIP3    H142251   6.056   6.987   6.319  1.4705 -0.2858 -0.7427
 6872TIP3    H242252   6.113   6.868   6.393 -0.8686 -0.6167  0.6516
 6873TIP3   OH242253   3.402   2.315   2.052 -0.2267  0.3341 -0.0808
 6873TIP3    H142254   3.371   2.388   1.998 -2.6614 -0.4903  0.0811
 6873TIP3    H242255   3.379   2.236   2.003  0.6314 -0.3779  0.6196
 6874TIP3   OH242256   5.605   4.326   6.393 -0.5740 -0.0323 -0.7175
 6874TIP3    H142257   5.529   4.316   6.336 -1.5669 -1.5039  0.7828
 6874TIP3    H242258   5.667   4.260   6.362  0.4211  1.5523 -2.3167
 6875TIP3   OH242259   0.086   0.414   7.373 -0.7482  0.1002  0.0021
 6875TIP3    H142260   0.082   0.383   7.464 -0.9732  1.4328  0.4637
 6875TIP3    H242261   0.178   0.403   7.348 -0.5775  0.2213  0.5705
 6876TIP3   OH242262   0.388   4.977   1.171  0.7879  0.0943 -0.1891
 6876TIP3    H142263   0.451   4.933   1.114  1.6612  0.1709  0.6797
 6876TIP3    H242264   0.432   5.058   1.198 -0.7670  1.5401 -1.7106
 6877TIP3   OH242265   0.856   1.499   0.277  0.2929 -1.1977  0.1531
 6877TIP3    H142266   0.926   1.444   0.240  1.0641  0.0379 -0.2683
 6877TIP3    H242267   0.776   1.468   0.234  1.0054 -0.6003 -1.6664
 6878TIP3   OH242268   2.153   2.851   7.757 -0.2318 -0.1557  0.8739
 6878TIP3    H142269   2.131   2.878   7.846 -0.9181 -0.6373  0.8569
 6878TIP3    H242270   2.080   2.794   7.730  0.2782 -0.5270  0.2406
 6879TIP3   OH242271   2.819   1.262   7.166 -0.1901 -0.3103 -0.0938
 6879TIP3    H142272   2.914   1.249   7.159  0.4288  2.4073  1.8138
 6879TIP3    H242273   2.797   1.234   7.255 -0.9804  0.0783 -0.1564
 6880TIP3   OH242274   5.011   4.006   7.255 -0.3424 -0.2627 -0.0992
 6880TIP3    H142275   4.974   4.006   7.167  2.7511  2.6559 -1.6749
 6880TIP3    H242276   5.065   3.926   7.259 -0.6628 -0.5134 -0.7755
 6881TIP3   OH242277   0.672   1.738   7.092  0.1455 -0.1615  0.1296
 6881TIP3    H142278   0.617   1.768   7.020  0.6471 -0.9958 -0.6312
 6881TIP3    H242279   0.618   1.749   7.170 -0.2118  1.2676 -0.2979
 6882TIP3   OH242280   3.496   2.867   0.413  0.6256  0.2791  0.4517
 6882TIP3    H142281   3.574   2.840   0.365  1.1589  1.6012  0.5269
 6882TIP3    H242282   3.524   2.869   0.505  0.1687 -0.3459  0.6102
 6883TIP3   OH242283   4.977   4.264   0.495  0.2515  0.3088 -0.7607
 6883TIP3    H142284   5.044   4.330   0.473  0.8724  0.1968  0.7100
 6883TIP3    H242285   4.957   4.280   0.587  0.4586 -1.5991 -0.3452
 6884TIP3   OH242286   5.122   3.850   0.902  0.1197 -0.0930  0.1629
 6884TIP3    H142287   5.148   3.762   0.931 -1.6235 -0.1360  1.8064
 6884TIP3    H242288   5.049   3.834   0.842 -0.4591  0.2363  0.7751
 6885TIP3   OH242289   2.955   1.112   0.618  0.4489 -0.4026 -0.0111
 6885TIP3    H142290   2.955   1.208   0.618 -1.0021 -0.3845 -0.5142
 6885TIP3    H242291   3.022   1.089   0.553 -1.2846  0.3521 -2.2002
 6886TIP3   OH242292   6.126   2.979   7.154 -0.1637 -0.1784 -0.7573
 6886TIP3    H142293   6.145   2.913   7.221 -0.5976  0.5249  0.0748
 6886TIP3    H242294   6.198   2.972   7.092  1.3324  0.5294  0.8384
 6887TIP3   OH242295   3.170   5.339   8.625 -0.1799 -0.4252  0.3638
 6887TIP3    H142296   3.200   5.424   8.592 -0.9925  0.8705  2.7490
 6887TIP3    H242297   3.250   5.291   8.643  0.2995 -0.0406 -0.6413
 6888TIP3   OH242298   5.127   4.954   8.090  0.3541  0.5967 -0.1867
 6888TIP3    H142299   5.186   5.024   8.061  0.2818  0.1905 -1.3346
 6888TIP3    H242300   5.088   4.920   8.010 -2.1843  1.4623  0.5626
 6889TIP3   OH242301   3.082   1.736   6.252  0.1289 -0.5541 -0.7234
 6889TIP3    H142302   3.127   1.773   6.176  0.4335 -1.4616 -0.9965
 6889TIP3    H242303   3.029   1.809   6.286  1.0102  0.2419 -1.0022
 6890TIP3   OH242304   5.951   2.649   7.571 -0.2388  0.8164  0.7642
 6890TIP3    H142305   5.882   2.637   7.636 -0.5995  0.6129  0.3475
 6890TIP3    H242306   5.976   2.741   7.579 -1.2061  1.1294  0.2833
 6891TIP3   OH242307   5.384   1.365   1.398 -0.4135  0.3634  0.0913
 6891TIP3    H142308   5.353   1.329   1.314  0.1203  0.4252 -0.1381
 6891TIP3    H242309   5.337   1.447   1.408 -0.3106  0.4696 -0.2687
 6892TIP3   OH242310   2.114   6.759   0.466 -0.4713 -0.4153 -0.6257
 6892TIP3    H142311   2.120   6.669   0.497 -0.7212 -0.5890 -1.0723
 6892TIP3    H242312   2.160   6.810   0.532  1.3610 -1.0829 -1.3032
 6893TIP3   OH242313   2.321   5.117   7.117  0.0296  0.3280  0.0796
 6893TIP3    H142314   2.315   5.125   7.021  0.8150  2.8900  0.1621
 6893TIP3    H242315   2.240   5.155   7.149 -0.2413 -0.5508  0.4625
 6894TIP3   OH242316   0.859   0.573   0.020  0.0053 -0.0998  0.3248
 6894TIP3    H142317   0.927   0.624  -0.023  0.0983 -1.2585 -0.9638
 6894TIP3    H242318   0.792   0.638   0.043  0.5382  0.7414 -0.4235
 6895TIP3   OH242319   4.386   3.684   2.509  0.4388 -0.6644  0.9248
 6895TIP3    H142320   4.463   3.628   2.505  0.4485 -0.8036  2.6301
 6895TIP3    H242321   4.416   3.763   2.553 -0.2795 -0.5158  1.1522
 6896TIP3   OH242322   2.576   1.429   7.553  0.2827 -0.8620 -0.0545
 6896TIP3    H142323   2.569   1.467   7.465 -2.0364 -1.8728 -0.3832
 6896TIP3    H242324   2.658   1.464   7.588 -0.4509  2.3918 -1.2535
 6897TIP3   OH242325   4.912   1.946   1.406 -0.1926 -0.2235  0.6322
 6897TIP3    H142326   4.884   1.873   1.350 -0.7523  0.4831 -0.0386
 6897TIP3    H242327   4.998   1.971   1.372  0.2764 -0.9422  1.2502
 6898TIP3   OH242328   6.125   3.928   0.157  0.0357  0.9262 -0.2411
 6898TIP3    H142329   6.068   4.000   0.131 -0.8509 -0.2752 -1.7218
 6898TIP3    H242330   6.153   3.888   0.075  1.4344  0.2545  0.5247
 6899TIP3   OH242331   5.358   6.052   2.571  0.2752 -0.3801  0.2983
 6899TIP3    H142332   5.279   6.013   2.533 -0.3589  0.3709  0.8133
 6899TIP3    H242333   5.376   5.998   2.648  0.5786 -0.8763 -0.1156
 6900TIP3   OH242334   2.908   6.245   1.847  0.1075 -0.3276  0.2454
 6900TIP3    H142335   2.845   6.176   1.871 -0.8514  0.2466 -0.5293
 6900TIP3    H242336   2.866   6.290   1.774  1.5703 -0.0986 -0.4647
 6901TIP3   OH242337   2.612   5.521   8.253 -0.0673 -0.2784 -0.0709
 6901TIP3    H142338   2.697   5.551   8.220 -0.8340  1.5550 -0.4829
 6901TIP3    H242339   2.574   5.598   8.295 -1.2653 -1.2487  0.6904
 6902TIP3   OH242340   3.154   4.106   0.408  0.3997 -0.3793  0.3324
 6902TIP3    H142341   3.189   4.195   0.405 -2.6117  1.0847  2.6356
 6902TIP3    H242342   3.113   4.094   0.322  1.1678  0.2980 -0.1428
 6903TIP3   OH242343   4.004   5.500   1.151  0.6986  0.2017 -0.1760
 6903TIP3    H142344   3.931   5.440   1.135  1.3406 -0.6979  0.2067
 6903TIP3    H242345   3.968   5.567   1.209 -0.2110  0.5953 -1.1516
 6904TIP3   OH242346   0.895   3.191   7.760  0.0434  0.1503  0.9032
 6904TIP3    H142347   0.868   3.172   7.850 -2.4216 -2.1090 -0.1604
 6904TIP3    H242348   0.988   3.213   7.766  0.3489 -1.4666  3.8342
 6905TIP3   OH242349   2.789   0.459   8.067  0.7116 -0.7262 -0.1029
 6905TIP3    H142350   2.729   0.385   8.054 -1.6858  1.3269 -1.6623
 6905TIP3    H242351   2.786   0.476   8.161 -2.2587  0.0431 -0.2319
 6906TIP3   OH242352   2.244   2.666   7.205  0.1573  0.1385 -0.3397
 6906TIP3    H142353   2.169   2.725   7.214 -1.4707 -1.7985 -0.5583
 6906TIP3    H242354   2.283   2.689   7.121 -0.9580  0.3806 -0.8155
 6907TIP3   OH242355   4.531   0.879   1.817  0.0960  0.0296 -0.0928
 6907TIP3    H142356   4.436   0.867   1.813  0.2876 -1.6119 -0.0846
 6907TIP3    H242357   4.565   0.836   1.739  0.6792  2.9123 -1.5645
 6908TIP3   OH242358   6.312   3.128   7.301  0.5934  0.2013  0.2207
 6908TIP3    H142359   6.305   3.112   7.207  0.0594 -1.6279  0.5280
 6908TIP3    H242360   6.249   3.198   7.319  2.5165  2.4347 -1.1206
 6909TIP3   OH242361   2.365   5.342   8.349  0.0148 -0.3352 -0.5365
 6909TIP3    H142362   2.434   5.389   8.302 -0.3172  0.0291 -0.6737
 6909TIP3    H242363   2.409   5.299   8.421  0.4612 -0.5146 -0.9179
 6910TIP3   OH242364   5.569   1.561   6.334 -0.3427 -0.3911  0.3781
 6910TIP3    H142365   5.483   1.550   6.376 -0.6019 -2.0343 -0.5119
 6910TIP3    H242366   5.553   1.621   6.262 -0.8571 -1.0238 -0.0468
 6911TIP3   OH242367   1.341   2.553   2.189  0.7717 -0.5762 -0.3160
 6911TIP3    H142368   1.252   2.586   2.203  0.6416 -0.8587 -0.4684
 6911TIP3    H242369   1.384   2.620   2.136  0.3422 -0.8973 -1.0797
 6912TIP3   OH242370   6.132   3.987   1.078  0.1429 -0.0526  0.3464
 6912TIP3    H142371   6.044   3.954   1.065  1.1616 -1.8308 -3.2830
 6912TIP3    H242372   6.183   3.911   1.105  0.7807  0.8192  1.7738
 6913TIP3   OH242373   4.218   1.642   7.814  0.0176  0.3827 -0.9880
 6913TIP3    H142374   4.306   1.678   7.831 -0.4882  0.7871  1.0114
 6913TIP3    H242375   4.223   1.552   7.845 -0.3199  0.4602 -0.7083
 6914TIP3   OH242376   5.697   2.843   0.440  0.2340  0.1756  0.1270
 6914TIP3    H142377   5.633   2.884   0.497 -1.0698  0.2449 -1.3105
 6914TIP3    H242378   5.728   2.766   0.489 -1.8798 -0.5617  0.3863
 6915TIP3   OH242379   5.899   2.641   8.375  0.0644 -0.0512 -0.4822
 6915TIP3    H142380   5.895   2.652   8.470 -0.0464  1.1526 -0.6126
 6915TIP3    H242381   5.925   2.549   8.363 -1.7605 -0.7918  0.6872
 6916TIP3   OH242382   1.451   4.055   1.382 -0.1340  0.2608 -0.0089
 6916TIP3    H142383   1.363   4.024   1.363  0.0970 -1.1088  1.0085
 6916TIP3    H242384   1.504   4.022   1.309 -0.5206  1.5644 -0.9184
 6917TIP3   OH242385   4.853   0.951   1.648 -0.1678  0.2011 -0.2744
 6917TIP3    H142386   4.854   0.954   1.743 -0.4257  0.3831 -0.2758
 6917TIP3    H242387   4.932   0.999   1.622  0.3429 -0.5426 -0.1449
 6918TIP3   OH242388   5.404   2.601   0.428 -0.4742  0.0749  0.0243
 6918TIP3    H142389   5.334   2.540   0.451 -1.5277  0.4349 -1.9851
 6918TIP3    H242390   5.485   2.555   0.451 -1.2645 -1.8692 -0.8676
 6919TIP3   OH242391   1.994   5.095   0.972 -0.0965  0.3260  0.1030
 6919TIP3    H142392   2.014   5.003   0.987 -1.0442  0.1937  0.6320
 6919TIP3    H242393   1.984   5.103   0.878 -2.1925 -0.6180  0.1806
 6920TIP3   OH242394   3.175   5.698   1.037 -0.2710  0.0162 -0.0774
 6920TIP3    H142395   3.199   5.766   0.974 -0.3526 -0.1938 -0.3330
 6920TIP3    H242396   3.175   5.617   0.987  1.0113 -0.3641  0.4738
 6921TIP3   OH242397   0.188   0.851   7.418  0.3232  0.3082 -0.3449
 6921TIP3    H142398   0.216   0.942   7.408 -0.0105  0.5691  0.9543
 6921TIP3    H242399   0.266   0.805   7.450  0.2461  0.3164 -0.1448
 6922TIP3   OH242400   5.579   5.892   1.353  0.5113 -0.1996  0.4158
 6922TIP3    H142401   5.573   5.886   1.258  0.5165  2.6434  0.1320
 6922TIP3    H242402   5.511   5.833   1.386  0.6553 -1.3835 -1.3151
 6923TIP3   OH242403   1.119   3.801   8.315 -0.0618  0.0277 -0.1323
 6923TIP3    H142404   1.158   3.731   8.264 -2.4233  0.0942 -2.2225
 6923TIP3    H242405   1.138   3.881   8.266  0.1043  0.4903  0.6581
 6924TIP3   OH242406   2.427   6.675   6.887  0.2755  0.0552 -0.2190
 6924TIP3    H142407   2.451   6.696   6.797  3.1404  0.1892  0.4994
 6924TIP3    H242408   2.445   6.755   6.936  0.6202 -0.6195  0.7723
 6925TIP3   OH242409   1.874   1.496   0.630 -0.0845  0.4263  0.1535
 6925TIP3    H142410   1.883   1.478   0.536  0.0541  1.2689  0.0013
 6925TIP3    H242411   1.958   1.535   0.655 -1.3814  3.7826 -0.2192
 6926TIP3   OH242412   1.130   5.631   6.809  0.3370  0.2808  0.2686
 6926TIP3    H142413   1.152   5.722   6.793 -0.6816  0.7580  1.4305
 6926TIP3    H242414   1.213   5.584   6.802  1.5115  1.7550  2.8771
 6927TIP3   OH242415   3.748   1.145   1.297 -0.2098  0.2076  0.2802
 6927TIP3    H142416   3.824   1.203   1.300 -0.0573  0.0211  0.1233
 6927TIP3    H242417   3.675   1.197   1.330 -0.8722  1.6638 -3.0557
 6928TIP3   OH242418   3.121   2.366   0.174  0.6347 -0.0293 -0.0243
 6928TIP3    H142419   3.193   2.394   0.230  2.2241  2.8095 -3.1292
 6928TIP3    H242420   3.065   2.444   0.165  0.0975 -0.5636 -1.7826
 6929TIP3   OH242421   5.917   2.521   1.679 -0.0108 -0.4046  0.5830
 6929TIP3    H142422   5.826   2.494   1.690 -0.1627 -0.3817 -0.5227
 6929TIP3    H242423   5.966   2.438   1.682  0.1353 -0.3041  2.7417
 6930TIP3   OH242424   5.796   1.184   1.821  0.1707 -0.0945 -0.0843
 6930TIP3    H142425   5.848   1.107   1.843  0.8122  0.3089 -0.1528
 6930TIP3    H242426   5.706   1.158   1.838  0.5843  0.2821  3.4358
 6931TIP3   OH242427   3.488   1.166   1.673 -0.5610  0.8382 -0.2870
 6931TIP3    H142428   3.493   1.146   1.766 -1.9170  0.6233 -0.2478
 6931TIP3    H242429   3.449   1.088   1.634  2.6472 -0.3269 -1.5050
 6932TIP3   OH242430   6.774   2.640   1.557  0.4265  0.4034  0.0877
 6932TIP3    H142431   6.771   2.548   1.533  3.5732  0.4658 -0.9223
 6932TIP3    H242432   6.849   2.676   1.509 -0.9396  3.6259  0.0759
 6933TIP3   OH242433   6.583   6.178   7.478 -0.7910 -0.2533  0.0014
 6933TIP3    H142434   6.585   6.272   7.459  0.5887 -0.7337 -2.6049
 6933TIP3    H242435   6.649   6.140   7.421  0.2203 -2.6118  2.5131
 6934TIP3   OH242436   1.004   1.990   2.248  0.1209  0.2163 -0.1385
 6934TIP3    H142437   1.094   1.980   2.217 -0.0613 -0.0968 -0.5755
 6934TIP3    H242438   0.957   1.916   2.210 -0.3867  0.5438 -0.1572
 6935TIP3   OH242439   6.117   0.728   8.391 -0.3964  0.0092 -0.4249
 6935TIP3    H142440   6.130   0.635   8.375 -1.0247  0.1949 -2.3265
 6935TIP3    H242441   6.055   0.732   8.464  0.2158 -1.0271  0.1724
 6936TIP3   OH242442   4.164   6.553   2.138  0.0136 -0.3128 -0.0057
 6936TIP3    H142443   4.201   6.474   2.176  0.6366  0.6936  1.5826
 6936TIP3    H242444   4.161   6.616   2.210  2.7069  2.2362 -1.8777
 6937TIP3   OH242445   0.897   4.217   2.075  0.0429 -0.0398  0.0083
 6937TIP3    H142446   0.820   4.202   2.021 -1.6699  3.6466  1.0987
 6937TIP3    H242447   0.870   4.194   2.163 -0.2283  2.0974  0.5417
 6938TIP3   OH242448   5.038   0.596   1.234 -0.1542 -0.3717  0.2321
 6938TIP3    H142449   5.057   0.524   1.174  1.6991  1.9321 -2.1995
 6938TIP3    H242450   5.076   0.568   1.318  1.0094 -1.9970 -0.7777
 6939TIP3   OH242451   1.915   6.622   6.802 -0.2339  0.4777 -0.5504
 6939TIP3    H142452   1.894   6.659   6.716  0.8323  0.7505 -0.6998
 6939TIP3    H242453   1.941   6.698   6.855 -2.3202  0.5443  0.4960
 6940TIP3   OH242454   0.535   3.880   1.042  0.0397  0.4294 -0.4024
 6940TIP3    H142455   0.451   3.892   1.000  0.1300  0.7429 -0.4986
 6940TIP3    H242456   0.518   3.897   1.135 -0.6128 -2.3517  0.0535
 6941TIP3   OH242457   4.654   6.898   7.103 -0.3128 -0.2448  0.1246
 6941TIP3    H142458   4.730   6.911   7.160 -0.8560 -0.6123  0.9694
 6941TIP3    H242459   4.681   6.932   7.018  0.3288  0.8669  0.7480
 6942TIP3   OH242460   6.098   6.421   7.460  0.6104 -0.2261 -0.3557
 6942TIP3    H142461   6.013   6.411   7.416  0.3030  2.3854 -0.5183
 6942TIP3    H242462   6.081   6.401   7.552 -0.5788  1.5876 -0.1278
 6943TIP3   OH242463   2.703   1.353   0.441 -0.3469 -0.0984 -0.2484
 6943TIP3    H142464   2.733   1.300   0.367 -2.4174 -1.6594 -0.0777
 6943TIP3    H242465   2.763   1.330   0.512  1.9225  1.7270 -1.4359
 6944TIP3   OH242466   6.315   1.739   1.039  0.1912  0.1616 -0.2571
 6944TIP3    H142467   6.383   1.745   1.106  0.0093  0.6821 -0.1114
 6944TIP3    H242468   6.343   1.668   0.982  1.1866  0.7835 -0.5602
 6945TIP3   OH242469   2.126   3.313   7.137 -0.3316  0.5907 -0.4852
 6945TIP3    H142470   2.148   3.238   7.192 -0.4755  0.4392 -0.6332
 6945TIP3    H242471   2.037   3.296   7.108 -0.3062  0.7406 -0.6510
 6946TIP3   OH242472   3.410   0.933   0.421 -0.2434  1.0002  0.0265
 6946TIP3    H142473   3.379   0.867   0.359 -1.0670  2.5282 -1.2857
 6946TIP3    H242474   3.500   0.909   0.440 -0.1488  0.1718 -1.3628
 6947TIP3   OH242475   2.043   2.961   6.235  0.5024  0.5620  0.0873
 6947TIP3    H142476   1.996   2.933   6.157 -1.4975  2.1751  0.6222
 6947TIP3    H242477   2.008   2.906   6.305 -0.9828  2.0003  0.5502
 6948TIP3   OH242478   1.105   5.293   1.650  0.5159  0.1474 -0.1336
 6948TIP3    H142479   1.129   5.207   1.615  0.4123  0.8011 -1.9053
 6948TIP3    H242480   1.018   5.281   1.687 -0.3911 -0.0915 -2.2103
 6949TIP3   OH242481   0.603   2.990   1.933 -0.7047 -0.3995 -0.9220
 6949TIP3    H142482   0.511   3.008   1.916 -0.5566  1.4068 -0.0870
 6949TIP3    H242483   0.646   3.002   1.849 -1.0353  0.4051 -0.9884
 6950TIP3   OH242484   0.050   3.654   0.045  0.1056  0.0207  0.3085
 6950TIP3    H142485   0.090   3.705  -0.025 -1.2600  2.2348  1.0574
 6950TIP3    H242486   0.086   3.691   0.126  0.0326 -1.0727  0.8673
 6951TIP3   OH242487   1.913   0.449   0.688  0.0640 -0.2356  0.1897
 6951TIP3    H142488   1.928   0.531   0.735 -0.8748 -1.2603  2.3836
 6951TIP3    H242489   1.890   0.476   0.599  0.3537  1.8423  0.7039
 6952TIP3   OH242490   2.095   2.772   0.994  0.4207 -0.1777 -0.2384
 6952TIP3    H142491   2.037   2.788   0.920 -0.7845 -0.7432  0.5556
 6952TIP3    H242492   2.182   2.762   0.955  0.1919  1.7191 -1.3580
 6953TIP3   OH242493   4.024   6.277   1.332  0.1779 -0.4469  0.0008
 6953TIP3    H142494   4.113   6.309   1.348  0.9002 -1.4555 -1.7650
 6953TIP3    H242495   4.022   6.189   1.369 -0.5740  0.0908  1.3191
 6954TIP3   OH242496   1.647   5.942   0.111 -0.1314 -0.1681 -0.0196
 6954TIP3    H142497   1.641   5.860   0.160 -2.5981  0.2217  0.4554
 6954TIP3    H242498   1.556   5.962   0.086  0.6533  1.3434 -1.9464
 6955TIP3   OH242499   5.233   0.139   0.409 -0.1946 -0.1346 -0.3744
 6955TIP3    H142500   5.206   0.157   0.499  0.2461  3.5045 -0.8174
 6955TIP3    H242501   5.152   0.140   0.359 -0.3290 -1.0290 -0.1852
 6956TIP3   OH242502   5.316   5.295   0.761 -0.1703 -0.1268 -0.1058
 6956TIP3    H142503   5.297   5.204   0.783 -0.5847  0.1709  0.8288
 6956TIP3    H242504   5.232   5.340   0.771  0.7360  1.1178  3.5422
 6957TIP3   OH242505   3.696   0.306   0.636  0.2562 -0.6532  0.7702
 6957TIP3    H142506   3.768   0.366   0.616 -0.1334 -0.0901  1.0258
 6957TIP3    H242507   3.739   0.226   0.665  0.7879 -0.5422  0.3071
 6958TIP3   OH242508   1.379   0.843   7.236 -0.0638 -0.4804  0.5436
 6958TIP3    H142509   1.470   0.861   7.213 -0.3253 -0.3268 -0.3822
 6958TIP3    H242510   1.384   0.806   7.324  1.0244 -1.7986 -0.0400
 6959TIP3   OH242511   3.875   5.937   7.336  0.4509  0.2772 -0.2303
 6959TIP3    H142512   3.925   5.877   7.281  0.1005 -0.7662  0.5520
 6959TIP3    H242513   3.901   6.025   7.307  1.8264 -0.2450 -0.6276
 6960TIP3   OH242514   6.200   1.434   0.902 -0.5664 -0.0077  0.0944
 6960TIP3    H142515   6.253   1.419   0.980  0.0158  0.4607 -0.2027
 6960TIP3    H242516   6.163   1.521   0.914  0.4487  0.5530 -0.6600
 6961TIP3   OH242517   4.184   1.870   5.932 -0.1817  0.3285 -0.0493
 6961TIP3    H142518   4.144   1.941   5.881 -0.7252 -0.1556 -0.3074
 6961TIP3    H242519   4.127   1.859   6.007 -1.8645 -1.8591 -1.5309
 6962TIP3   OH242520   4.925   3.932   0.707 -0.3604  0.1919  1.5022
 6962TIP3    H142521   4.940   4.026   0.723  0.4124  0.2506  0.5147
 6962TIP3    H242522   4.940   3.922   0.613  0.0289 -1.0215  1.6881
 6963TIP3   OH242523   5.314   2.515   7.442 -0.0242 -0.0704  0.1589
 6963TIP3    H142524   5.238   2.574   7.452 -0.0741 -0.1547  0.2757
 6963TIP3    H242525   5.317   2.496   7.348  0.3795  0.6317  0.0232
 6964TIP3   OH242526   6.014   1.718   6.739  0.2472  0.0686 -0.1787
 6964TIP3    H142527   5.927   1.737   6.702  1.4530 -0.1096 -3.4360
 6964TIP3    H242528   6.051   1.652   6.680  2.7143  0.3287  0.9541
 6965TIP3   OH242529   5.683   5.461   7.260  0.1866  0.3526  0.4791
 6965TIP3    H142530   5.644   5.418   7.336  0.3774  1.2465  1.0957
 6965TIP3    H242531   5.609   5.481   7.203  0.0892 -0.7396  0.1980
 6966TIP3   OH242532   0.988   6.370   7.542  0.3198  0.4554  0.6233
 6966TIP3    H142533   1.040   6.436   7.589  1.5915  0.3823 -0.6076
 6966TIP3    H242534   0.904   6.369   7.587  0.9259  1.5561  1.8521
 6967TIP3   OH242535   4.889   3.461   1.124 -0.7678  0.0870 -0.6651
 6967TIP3    H142536   4.893   3.434   1.216  0.5953 -3.4486 -1.6017
 6967TIP3    H242537   4.958   3.527   1.115 -0.9655  0.5318  0.8254
 6968TIP3   OH242538   5.789   5.948   0.904 -0.2881 -0.5219 -0.0192
 6968TIP3    H142539   5.809   5.989   0.987  1.2840 -0.2627 -0.4835
 6968TIP3    H242540   5.821   6.010   0.838  1.1831 -1.9649 -0.7438
 6969TIP3   OH242541   2.977   4.376   6.772 -0.3864 -0.0068  0.5276
 6969TIP3    H142542   2.928   4.408   6.696 -0.0186  1.0224  0.7090
 6969TIP3    H242543   2.955   4.283   6.777 -0.7979  0.0183 -0.5439
 6970TIP3   OH242544   6.517   2.029   1.920 -0.1401  0.2758 -0.2920
 6970TIP3    H142545   6.461   2.026   1.998 -1.8176  1.5392 -1.3807
 6970TIP3    H242546   6.592   1.973   1.942 -1.6189 -1.1467  1.3782
 6971TIP3   OH242547   5.296   4.234   0.223 -0.5661  0.3645  0.1377
 6971TIP3    H142548   5.377   4.185   0.235 -0.4643  0.5187  0.0842
 6971TIP3    H242549   5.228   4.167   0.212 -0.4384  0.2363  0.1293
 6972TIP3   OH242550   3.765   6.167   1.051  0.0516 -0.6203 -0.3520
 6972TIP3    H142551   3.783   6.260   1.060 -0.9183 -0.3460 -1.0972
 6972TIP3    H242552   3.735   6.140   1.138 -0.2506 -0.1005 -0.2925
 6973TIP3   OH242553   1.029   2.279   7.083 -0.5491  0.3887  0.2310
 6973TIP3    H142554   1.072   2.267   7.167  0.7225 -0.3060 -0.4739
 6973TIP3    H242555   0.969   2.204   7.076  0.3725 -0.3473 -0.0569
 6974TIP3   OH242556   2.776   4.224   1.598  0.4912 -0.2313  0.0727
 6974TIP3    H142557   2.744   4.164   1.665 -0.4418  0.4922  0.2920
 6974TIP3    H242558   2.734   4.308   1.619 -1.4021 -0.4269 -2.5636
 6975TIP3   OH242559   4.919   0.786   7.751  0.5363  0.2455  0.3357
 6975TIP3    H142560   4.889   0.860   7.804 -1.4400 -0.9433  0.9877
 6975TIP3    H242561   4.938   0.717   7.815  1.0366 -0.2563 -0.3369
 6976TIP3   OH242562   2.458   6.223   0.545  0.9210 -0.2961  0.0448
 6976TIP3    H142563   2.422   6.241   0.631  2.2734 -1.5231  0.9066
 6976TIP3    H242564   2.426   6.294   0.490 -0.7572 -0.0201  1.3135
 6977TIP3   OH242565   3.585   2.622   0.238  0.0063 -0.0839 -0.0311
 6977TIP3    H142566   3.549   2.534   0.223  0.1837 -0.2274  0.3821
 6977TIP3    H242567   3.556   2.673   0.162 -0.8416 -0.2673  0.1607
 6978TIP3   OH242568   0.471   3.094   7.571 -0.2814 -0.1128 -0.1548
 6978TIP3    H142569   0.376   3.099   7.569 -0.2306  1.2651 -1.6234
 6978TIP3    H242570   0.491   3.009   7.532 -0.8964 -1.2676  1.9068
 6979TIP3   OH242571   3.553   6.907   0.404 -0.2399  0.1636 -0.3231
 6979TIP3    H142572   3.636   6.859   0.398 -0.0177  0.4909  0.1039
 6979TIP3    H242573   3.578   6.999   0.410 -0.6919  0.4841 -2.4072
 6980TIP3   OH242574   5.719   3.011   0.829 -0.3477  0.2005  0.0874
 6980TIP3    H142575   5.803   3.047   0.803 -0.7642  0.0505 -1.5550
 6980TIP3    H242576   5.697   3.057   0.910  0.3252  1.7791 -0.5912
 6981TIP3   OH242577   4.693   6.028   0.204 -0.2373 -0.1742 -0.6750
 6981TIP3    H142578   4.718   5.938   0.225  0.7649  0.2225 -0.0761
 6981TIP3    H242579   4.762   6.082   0.244  0.2175  0.7852 -2.6188
 6982TIP3   OH242580   3.258   1.930   6.700 -0.0802  0.4463 -0.2685
 6982TIP3    H142581   3.315   1.924   6.623  1.6250  3.2212  0.6220
 6982TIP3    H242582   3.179   1.973   6.668 -0.4551 -0.6789 -0.9124
 6983TIP3   OH242583   6.094   4.903   7.304 -0.2688 -0.2674  0.2495
 6983TIP3    H142584   6.060   4.865   7.223  1.5241 -1.5459  0.0225
 6983TIP3    H242585   6.016   4.924   7.355 -1.4166 -1.5665 -0.8665
 6984TIP3   OH242586   5.326   2.697   1.209 -0.3180  0.5542  0.5047
 6984TIP3    H142587   5.382   2.635   1.257 -1.6381 -0.9111  0.2257
 6984TIP3    H242588   5.243   2.652   1.199 -0.0244  0.5217 -3.5782
 6985TIP3   OH242589   2.393   2.414   8.310  0.0762 -0.1900  0.3229
 6985TIP3    H142590   2.337   2.361   8.365 -1.6593  0.0698 -1.1022
 6985TIP3    H242591   2.384   2.377   8.222  0.7217  0.9572 -0.2652
 6986TIP3   OH242592   1.773   3.164   2.202 -0.4829  0.0620  0.1042
 6986TIP3    H142593   1.717   3.205   2.136  0.5477 -0.5490 -1.1975
 6986TIP3    H242594   1.727   3.177   2.284 -2.1642  0.2324 -0.8246
 6987TIP3   OH242595   3.453   3.143   1.693 -0.0477  0.2749 -0.3318
 6987TIP3    H142596   3.526   3.205   1.694 -1.3415  1.8646  0.6558
 6987TIP3    H242597   3.475   3.078   1.758  0.9887  0.1030 -0.8374
 6988TIP3   OH242598   3.532   5.900   1.226 -0.0540  0.2756  0.2032
 6988TIP3    H142599   3.506   5.809   1.239  2.5978 -0.3165  2.0581
 6988TIP3    H242600   3.594   5.897   1.153 -1.1329  0.8837 -0.7745
 6989TIP3   OH242601   4.441   0.994   6.740 -0.1439 -0.2241  0.2814
 6989TIP3    H142602   4.515   1.014   6.683  0.0934  0.0767  0.6869
 6989TIP3    H242603   4.475   1.008   6.829 -1.2170  1.8184  0.4400
 6990TIP3   OH242604   1.567   2.519   0.266  0.0980 -0.3586  0.3717
 6990TIP3    H142605   1.496   2.506   0.328 -0.5230  0.8597 -0.0558
 6990TIP3    H242606   1.532   2.489   0.182 -0.0228  0.4894  0.1085
 6991TIP3   OH242607   5.060   5.191   0.609  0.1707  0.0316  0.3726
 6991TIP3    H142608   5.070   5.171   0.702  1.8603 -0.5878  0.0851
 6991TIP3    H242609   5.108   5.122   0.563 -0.0684  0.6971 -0.9464
 6992TIP3   OH242610   3.531   3.829   7.757 -0.6781 -0.2609 -0.2652
 6992TIP3    H142611   3.596   3.900   7.760 -0.8693 -0.1094  0.5676
 6992TIP3    H242612   3.534   3.797   7.667 -2.2703  2.3781 -1.3578
 6993TIP3   OH242613   1.970   5.743   1.023  0.9266 -0.2688  0.1321
 6993TIP3    H142614   2.062   5.726   1.042  0.7810 -0.9177  0.2621
 6993TIP3    H242615   1.933   5.769   1.108  0.8728 -0.5284  0.1885
 6994TIP3   OH242616   0.043   2.729   1.372  0.2533  0.2839  0.2180
 6994TIP3    H142617   0.068   2.675   1.297 -0.0344  0.5797 -0.0939
 6994TIP3    H242618  -0.024   2.788   1.338  1.5195  1.7804  0.1867
 6995TIP3   OH242619   3.922   2.684   1.398 -0.2448 -0.6523 -0.3516
 6995TIP3    H142620   3.928   2.621   1.326  0.1317 -0.3798 -0.5614
 6995TIP3    H242621   4.013   2.706   1.418 -0.3458 -0.7869  0.2633
 6996TIP3   OH242622   1.441   1.393   0.623 -0.5136 -0.0422  0.4109
 6996TIP3    H142623   1.422   1.311   0.578 -1.3812 -0.3741  1.3485
 6996TIP3    H242624   1.407   1.461   0.564 -3.0103 -0.5365  1.1734
 6997TIP3   OH242625   6.141   5.490   6.354 -0.2898  0.1839 -0.5632
 6997TIP3    H142626   6.152   5.547   6.430  1.3334 -2.9172  1.7562
 6997TIP3    H242627   6.066   5.526   6.307 -2.0534  1.7057  3.0618
 6998TIP3   OH242628   0.191   4.542   6.101 -0.0031 -0.5003  0.5121
 6998TIP3    H142629   0.223   4.622   6.142  1.0395 -0.7712  0.2610
 6998TIP3    H242630   0.120   4.571   6.044  0.0176  0.1738  0.8223
 6999TIP3   OH242631   0.487   5.267   0.265 -0.8684 -0.0966  0.1291
 6999TIP3    H142632   0.398   5.272   0.232 -1.7397  0.5847  2.3809
 6999TIP3    H242633   0.525   5.353   0.245 -1.1374  0.0531  0.2545
 7000TIP3   OH242634   4.056   0.873   8.520 -0.4966 -0.0924  0.0723
 7000TIP3    H142635   4.139   0.832   8.541 -0.2190 -0.0906 -0.9605
 7000TIP3    H242636   4.079   0.958   8.483 -0.9493 -0.1691 -0.3996
 7001TIP3   OH242637   0.807   2.617   1.312 -0.1027  0.0017  0.1107
 7001TIP3    H142638   0.760   2.533   1.308  0.1423 -0.1318  0.0221
 7001TIP3    H242639   0.788   2.651   1.399 -0.6792  0.1309 -0.0588
 7002TIP3   OH242640   3.109   4.649   8.038 -0.5424  0.5073  0.1509
 7002TIP3    H142641   3.201   4.667   8.058 -0.9343  0.6806  1.9937
 7002TIP3    H242642   3.093   4.696   7.956  0.5681  1.9684  0.7069
 7003TIP3   OH242643   0.479   3.335   7.857  0.5146 -1.0368  0.1777
 7003TIP3    H142644   0.444   3.330   7.945  0.2021 -0.8598  0.0657
 7003TIP3    H242645   0.419   3.282   7.804 -1.1475  1.3558 -0.4917
 7004TIP3   OH242646   3.977   4.583   7.640 -0.4711  0.1069  0.1115
 7004TIP3    H142647   3.925   4.657   7.673  0.4555  0.4378  0.9095
 7004TIP3    H242648   3.939   4.506   7.682 -0.8396  0.2494  0.0391
 7005TIP3   OH242649   1.401   2.608   8.644  0.2044 -0.5136 -0.0556
 7005TIP3    H142650   1.365   2.656   8.718  0.7249 -0.9217  0.4697
 7005TIP3    H242651   1.476   2.660   8.616  1.3409 -1.4536  1.1050
 7006TIP3   OH242652   3.674   6.666   0.045  0.6199 -0.4478 -0.6516
 7006TIP3    H142653   3.690   6.759   0.028  0.8083 -0.1878  0.8127
 7006TIP3    H242654   3.709   6.651   0.132 -1.1286 -1.4400 -0.0695
 7007TIP3   OH242655   2.724   5.949   8.440  0.3081 -0.0106  0.3526
 7007TIP3    H142656   2.767   5.952   8.526  0.7352 -1.2123  0.1956
 7007TIP3    H242657   2.637   5.913   8.459  0.3041 -0.0172  0.3207
 7008TIP3   OH242658   4.360   5.815   1.899 -0.4243 -0.8543 -0.2176
 7008TIP3    H142659   4.327   5.737   1.943 -3.2725  1.8199  2.9137
 7008TIP3    H242660   4.425   5.850   1.959  0.2029 -0.3277 -1.1826
 7009TIP3   OH242661   0.784   4.463   1.130  0.9772  0.7149  0.0619
 7009TIP3    H142662   0.737   4.414   1.198  0.2901  1.1054 -0.1263
 7009TIP3    H242663   0.793   4.401   1.058  0.3413  0.7746 -0.0757
 7010TIP3   OH242664   4.182   2.566   6.869  0.2480  0.7003  0.3337
 7010TIP3    H142665   4.220   2.588   6.954  0.4737  0.1389  0.3858
 7010TIP3    H242666   4.255   2.574   6.807  0.9371 -1.9554  0.6666
 7011TIP3   OH242667   4.805   4.681   0.670 -0.0440 -0.2019 -0.4363
 7011TIP3    H142668   4.795   4.606   0.728  0.3920 -0.3219 -0.5156
 7011TIP3    H242669   4.719   4.723   0.671  0.6906  1.5820  2.7546
 7012TIP3   OH242670   6.637   3.223   7.024 -0.0195  0.1725 -0.0984
 7012TIP3    H142671   6.562   3.163   7.017  0.5635 -0.4299 -1.8324
 7012TIP3    H242672   6.701   3.187   6.963  1.8339  0.4912  1.5789
 7013TIP3   OH242673   0.389   2.557   6.345 -0.0869 -0.3463 -0.2720
 7013TIP3    H142674   0.353   2.633   6.392 -2.1465 -1.4598  0.0751
 7013TIP3    H242675   0.445   2.514   6.410  0.4775  0.4235 -0.2267
 7014TIP3   OH242676   5.812   4.838   7.355  0.0715 -0.2303 -0.2503
 7014TIP3    H142677   5.782   4.897   7.286 -0.5094 -0.3662 -0.1223
 7014TIP3    H242678   5.856   4.767   7.309 -0.3201 -0.3249 -0.4842
 7015TIP3   OH242679   5.034   4.772   8.644  0.4330  0.2031 -0.5874
 7015TIP3    H142680   5.050   4.700   8.583 -0.8506 -0.1865 -0.4941
 7015TIP3    H242681   5.003   4.730   8.724 -0.0516  0.8275 -0.4358
 7016TIP3   OH242682   3.444   0.784   7.020  0.0859 -1.3359  0.0283
 7016TIP3    H142683   3.389   0.756   7.093 -0.7338  0.6758  0.2435
 7016TIP3    H242684   3.383   0.806   6.950  0.8338 -2.6803 -1.0952
 7017TIP3   OH242685   5.727   3.474   2.155  0.2003 -0.3498 -0.6750
 7017TIP3    H142686   5.817   3.506   2.146  0.1363  0.0979  0.1585
 7017TIP3    H242687   5.683   3.541   2.208  0.0188 -1.7022  0.9646
 7018TIP3   OH242688   6.795   4.808   1.323  0.0508 -0.1391  0.4630
 7018TIP3    H142689   6.881   4.800   1.281 -0.0397 -0.4348  0.3329
 7018TIP3    H242690   6.797   4.745   1.394 -0.3337 -0.6811 -0.0044
 7019TIP3   OH242691   0.294   0.422   6.351  0.0426 -0.2935  0.0760
 7019TIP3    H142692   0.223   0.470   6.395 -0.7444  1.7256 -3.0906
 7019TIP3    H242693   0.374   0.452   6.394 -0.7941 -0.5398  1.9024
 7020TIP3   OH242694   6.186   5.165   0.241  0.1158  1.0057 -0.0169
 7020TIP3    H142695   6.271   5.208   0.232  1.3262 -1.1125  0.4696
 7020TIP3    H242696   6.180   5.143   0.334 -1.6530  2.3741  0.2322
 7021TIP3   OH242697   0.162   6.558   0.603  0.1913  0.0730 -0.3958
 7021TIP3    H142698   0.187   6.497   0.534 -1.4706 -0.8982 -0.1927
 7021TIP3    H242699   0.108   6.507   0.662 -1.2008  1.7045 -0.1784
 7022TIP3   OH242700   4.917   2.462   0.500 -0.4690 -0.2292 -0.2962
 7022TIP3    H142701   4.915   2.383   0.554 -1.6791 -0.3792 -0.5323
 7022TIP3    H242702   4.933   2.431   0.412 -0.6544 -0.1911 -0.3448
 7023TIP3   OH242703   0.932   6.011   0.159 -0.2732 -0.0305 -0.5607
 7023TIP3    H142704   0.937   5.917   0.175 -3.0729 -0.0419  0.8961
 7023TIP3    H242705   0.923   6.019   0.065  0.8882 -1.1243 -0.7910
 7024TIP3   OH242706   1.644   5.581   0.616  0.0215 -0.0049  0.1221
 7024TIP3    H142707   1.585   5.656   0.626 -0.2232 -0.2164  0.2777
 7024TIP3    H242708   1.660   5.551   0.705 -2.1380 -1.8728 -0.0122
 7025TIP3   OH242709   5.495   0.548   1.513 -0.7414  0.5656  0.1351
 7025TIP3    H142710   5.539   0.513   1.590  0.5610 -0.3199 -0.9613
 7025TIP3    H242711   5.515   0.642   1.514  1.5582  0.1439 -0.5200
 7026TIP3   OH242712   6.675   2.956   2.268  0.4724 -0.2468  0.0174
 7026TIP3    H142713   6.744   3.017   2.293  0.0486  0.7822 -1.1954
 7026TIP3    H242714   6.711   2.870   2.286  1.6207  0.3069  0.4815
 7027TIP3   OH242715   0.968   1.684   1.475  0.5492 -0.1826 -0.0218
 7027TIP3    H142716   0.994   1.722   1.560 -0.2010 -0.7511  0.4713
 7027TIP3    H242717   0.952   1.760   1.419 -0.1098  0.2246  0.6999
 7028TIP3   OH242718   1.309   3.268   0.773 -0.3050 -0.0300 -0.4936
 7028TIP3    H142719   1.310   3.362   0.757 -0.9681 -0.2068 -1.6894
 7028TIP3    H242720   1.223   3.252   0.811  0.1081 -0.0522  0.4524
 7029TIP3   OH242721   6.368   0.798   7.078 -0.3612 -0.1434  0.2638
 7029TIP3    H142722   6.362   0.883   7.035  1.2556  0.1824  0.6393
 7029TIP3    H242723   6.448   0.759   7.044 -0.1818 -0.7769  1.3635
 7030TIP3   OH242724   5.903   1.341   2.078 -0.0385 -0.1006  0.0927
 7030TIP3    H142725   5.948   1.345   2.162 -0.0486  1.1888  0.0537
 7030TIP3    H242726   5.927   1.255   2.042 -1.6466 -1.5732  2.2774
 7031TIP3   OH242727   5.555   2.946   2.059 -0.5700  0.1053 -0.4707
 7031TIP3    H142728   5.528   2.855   2.041 -0.8301  0.1296 -0.2184
 7031TIP3    H242729   5.506   2.970   2.138  0.2244  0.1362  0.0330
 7032TIP3   OH242730   2.636   1.950   0.577 -0.7546  0.6809  0.2450
 7032TIP3    H142731   2.555   1.931   0.531 -0.6726  0.2039  0.2918
 7032TIP3    H242732   2.694   1.878   0.554  0.1722  1.7638 -0.9919
 7033TIP3   OH242733   0.219   1.311   2.506 -0.0620 -0.2457  0.4116
 7033TIP3    H142734   0.137   1.303   2.458 -0.4768  0.0447  1.0604
 7033TIP3    H242735   0.252   1.398   2.484  0.7166 -0.8397 -0.8376
 7034TIP3   OH242736   4.202   0.253   8.403  0.4434 -0.0614  0.0516
 7034TIP3    H142737   4.272   0.313   8.430  0.0933  0.0425  0.7549
 7034TIP3    H242738   4.188   0.196   8.479  1.1787 -1.4484 -0.8142
 7035TIP3   OH242739   1.897   6.333   6.538  0.4057 -0.1254 -0.8011
 7035TIP3    H142740   1.881   6.267   6.471 -0.5978 -0.7514  0.0270
 7035TIP3    H242741   1.817   6.385   6.541  0.0944 -0.6392  0.4882
 7036TIP3   OH242742   4.812   5.171   7.108  0.2425  0.5511  0.1554
 7036TIP3    H142743   4.829   5.204   7.197  0.5089  1.6746 -0.2916
 7036TIP3    H242744   4.891   5.193   7.059 -1.1062  2.9123 -1.1470
 7037TIP3   OH242745   2.195   6.343   0.361  0.1013 -0.2096  0.0308
 7037TIP3    H142746   2.139   6.350   0.283 -0.8652  0.2126  0.7482
 7037TIP3    H242747   2.275   6.390   0.336 -0.4171  0.4015 -0.5292
 7038TIP3   OH242748   4.685   1.065   8.342  0.7976 -0.0464  0.2477
 7038TIP3    H142749   4.699   1.077   8.436  2.4169  1.6446 -0.1483
 7038TIP3    H242750   4.719   1.146   8.302 -0.6220 -0.3446 -1.7368
 7039TIP3   OH242751   4.931   5.425   6.161 -0.0321 -0.1590  0.4105
 7039TIP3    H142752   4.965   5.465   6.241  0.2332 -2.0013  1.2837
 7039TIP3    H242753   4.844   5.394   6.184 -0.8598  1.2073 -0.7058
 7040TIP3   OH242754   3.702   4.078   7.727 -0.2680  0.2436  0.0183
 7040TIP3    H142755   3.680   4.164   7.763  0.5180  0.4794 -0.0602
 7040TIP3    H242756   3.702   4.090   7.632  0.0898  0.2207  0.0134
 7041TIP3   OH242757   4.605   4.726   0.332 -0.3696 -0.2992 -0.5551
 7041TIP3    H142758   4.623   4.732   0.238 -1.4152 -1.1210 -0.8294
 7041TIP3    H242759   4.522   4.679   0.337  0.2402 -1.2779  0.8288
 7042TIP3   OH242760   4.660   1.977   0.575  0.0564  0.5401 -0.2196
 7042TIP3    H142761   4.683   1.887   0.599  0.5921  0.8901  0.6296
 7042TIP3    H242762   4.721   2.031   0.625  0.2310  1.3593 -1.2908
 7043TIP3   OH242763   3.487   5.794   6.959 -0.0556  0.0165  0.5842
 7043TIP3    H142764   3.582   5.802   6.965 -0.2154  3.0099  0.9443
 7043TIP3    H242765   3.455   5.832   7.041 -1.5702  0.1042 -0.0228
 7044TIP3   OH242766   0.230   2.389   6.590 -0.0489 -0.0223 -0.0235
 7044TIP3    H142767   0.295   2.335   6.544  0.6268  1.8339 -1.3608
 7044TIP3    H242768   0.161   2.404   6.525 -1.4626 -1.2996  1.1330
 7045TIP3   OH242769   1.540   5.022   1.297  0.4633 -0.5270  0.2621
 7045TIP3    H142770   1.496   5.105   1.315  1.5505  0.4222 -1.2058
 7045TIP3    H242771   1.470   4.962   1.275 -0.1853  1.0337 -2.3985
 7046TIP3   OH242772   0.772   5.919   1.269  0.2849  0.4338 -0.2183
 7046TIP3    H142773   0.817   5.968   1.338  1.4196 -0.3690 -0.3662
 7046TIP3    H242774   0.680   5.943   1.279  0.6726  1.7757  0.3752
 7047TIP3   OH242775   5.902   5.512   6.541 -0.1464 -0.1033  0.1250
 7047TIP3    H142776   5.859   5.427   6.551  0.7987 -0.8139 -1.5652
 7047TIP3    H242777   5.923   5.539   6.630 -3.1618 -0.1637  0.9808
 7048TIP3   OH242778   6.367   6.454   0.595 -0.2108 -0.0171  0.3452
 7048TIP3    H142779   6.372   6.444   0.500 -2.9278  1.5259 -0.0883
 7048TIP3    H242780   6.422   6.530   0.614  1.3850 -1.1116  0.2391
 7049TIP3   OH242781   2.216   0.168   0.147 -0.1646  0.1658  0.1526
 7049TIP3    H142782   2.239   0.100   0.084 -0.7138  1.6424 -1.7772
 7049TIP3    H242783   2.139   0.133   0.193 -0.2633 -0.6368 -0.5899
 7050TIP3   OH242784   3.954   2.371   1.536  0.0451 -0.1574 -0.0697
 7050TIP3    H142785   4.049   2.382   1.529  0.0759 -0.1068  0.3855
 7050TIP3    H242786   3.917   2.441   1.483  0.2556  0.4991  0.6472
 7051TIP3   OH242787   2.711   4.112   0.976  0.0241  0.3072  0.3533
 7051TIP3    H142788   2.744   4.083   0.890 -1.4104 -0.9868  0.1886
 7051TIP3    H242789   2.790   4.138   1.024  0.8939  0.7979 -1.2452
 7052TIP3   OH242790   1.094   3.638   7.047  0.0907 -0.2304 -0.7516
 7052TIP3    H142791   1.139   3.579   6.986  0.8430 -2.2991  1.5955
 7052TIP3    H242792   1.005   3.603   7.052  0.6582 -1.6135  0.9866
 7053TIP3   OH242793   0.737   6.690   0.387 -0.2062  0.3770 -0.0804
 7053TIP3    H142794   0.699   6.612   0.426  0.2938 -0.4869 -1.2474
 7053TIP3    H242795   0.757   6.748   0.461 -1.1196 -0.3519  0.7505
 7054TIP3   OH242796   5.991   1.061   7.576 -0.2641 -0.0040  0.6795
 7054TIP3    H142797   5.929   1.005   7.528 -1.2227  2.6171 -1.3528
 7054TIP3    H242798   6.077   1.022   7.559 -0.5993  0.5012 -2.9645
 7055TIP3   OH242799   2.121   6.128   1.164 -0.1055 -0.3464 -0.0781
 7055TIP3    H142800   2.083   6.104   1.079 -0.4551 -1.3941  0.3549
 7055TIP3    H242801   2.213   6.147   1.145 -0.3136  0.0041 -0.7763
 7056TIP3   OH242802   3.781   0.531   0.095  0.0674 -0.6835  0.4863
 7056TIP3    H142803   3.845   0.477   0.142  0.6825 -0.3183  0.0805
 7056TIP3    H242804   3.818   0.619   0.096 -0.8386 -0.2905  0.9800
 7057TIP3   OH242805   0.786   0.061   8.335 -0.2854  0.0646 -0.4318
 7057TIP3    H142806   0.863   0.041   8.389 -1.2316 -1.1040  0.5434
 7057TIP3    H242807   0.725   0.104   8.394 -0.2824  1.3044 -1.2881
 7058TIP3   OH242808   1.052   5.710   7.945  0.0471 -0.4695 -0.5566
 7058TIP3    H142809   1.105   5.785   7.972 -1.0855  0.0045  0.4244
 7058TIP3    H242810   1.102   5.633   7.971  0.3567 -0.0314  0.1492
 7059TIP3   OH242811   0.851   4.798   7.413  0.0663  0.9678  0.1260
 7059TIP3    H142812   0.859   4.720   7.469 -0.9187 -0.0133 -1.0286
 7059TIP3    H242813   0.922   4.790   7.350 -0.0327  0.9933  0.0097
 7060TIP3   OH242814   4.170   0.018   8.580 -0.1691 -0.0145 -0.2416
 7060TIP3    H142815   4.109  -0.009   8.649 -0.2722  0.3674 -0.1789
 7060TIP3    H242816   4.240  -0.047   8.582 -0.6591 -0.5514 -0.4274
 7061TIP3   OH242817   5.460   1.204   6.164 -0.0729  0.6058  0.4494
 7061TIP3    H142818   5.426   1.199   6.253 -1.9203  1.5877 -0.1377
 7061TIP3    H242819   5.420   1.283   6.127  2.4969  1.5651 -0.5285
 7062TIP3   OH242820   3.256   4.535   6.742 -0.2339 -0.6074  0.1334
 7062TIP3    H142821   3.235   4.507   6.653 -0.1688 -0.6228  0.1226
 7062TIP3    H242822   3.196   4.486   6.798 -1.1565  0.3581  0.0066
 7063TIP3   OH242823   5.316   4.056   7.387  0.2561 -0.1611 -0.3591
 7063TIP3    H142824   5.368   4.024   7.461  2.2716  0.2533 -1.5264
 7063TIP3    H242825   5.379   4.068   7.317 -1.4487  0.4026 -1.8748
 7064TIP3   OH242826   0.994   3.537   8.407  0.0505 -0.0882 -0.4847
 7064TIP3    H142827   1.023   3.594   8.337  0.2634  2.1302  1.2918
 7064TIP3    H242828   0.899   3.547   8.411  0.0378 -0.2088 -0.4544
 7065TIP3   OH242829   5.565   6.352   7.770  0.0046  0.4365 -0.4132
 7065TIP3    H142830   5.533   6.407   7.842 -0.7446  0.8641 -1.0657
 7065TIP3    H242831   5.486   6.319   7.728  0.4467 -0.3134 -0.6716
 7066TIP3   OH242832   5.686   1.300   1.438 -1.0184  0.4432  0.8682
 7066TIP3    H142833   5.695   1.274   1.347  0.8806  1.8064  0.6119
 7066TIP3    H242834   5.595   1.282   1.459 -1.1429 -1.2832 -0.8298
 7067TIP3   OH242835   6.157   3.515   8.305  0.3664  0.1908 -0.1384
 7067TIP3    H142836   6.083   3.541   8.250  0.1140  1.3507  0.7094
 7067TIP3    H242837   6.118   3.498   8.391  1.1439  1.4913  0.5040
 7068TIP3   OH242838   0.410   3.007   6.734 -0.3531 -0.3569 -0.0894
 7068TIP3    H142839   0.359   2.996   6.653  1.0419 -0.3535 -0.9962
 7068TIP3    H242840   0.430   2.917   6.761  1.7525 -0.3664 -1.4654
 7069TIP3   OH242841   2.532   1.187   7.236  0.1599  0.4376  0.2989
 7069TIP3    H142842   2.595   1.169   7.306 -0.1940  2.1219  1.1211
 7069TIP3    H242843   2.524   1.283   7.236 -2.5138  0.2967  0.3524
 7070TIP3   OH242844   6.469   4.176   0.220 -0.7052 -0.0847 -0.2658
 7070TIP3    H142845   6.518   4.104   0.180  1.0067  0.2540  1.1069
 7070TIP3    H242846   6.398   4.134   0.267 -1.1760 -0.6746 -1.4642
 7071TIP3   OH242847   0.245   5.912   0.936  0.4601 -0.3738  0.3783
 7071TIP3    H142848   0.308   5.978   0.905 -0.3350  0.5548  0.6670
 7071TIP3    H242849   0.186   5.961   0.993 -1.2322 -0.9519 -0.8085
 7072TIP3   OH242850   2.104   1.348   0.862  0.1347  0.3938  0.3802
 7072TIP3    H142851   2.121   1.370   0.954  0.1371  1.3607  0.1680
 7072TIP3    H242852   2.093   1.433   0.820  0.4148 -0.0357 -0.5722
 7073TIP3   OH242853   6.493   3.765   7.265 -0.2887  0.0257  0.2090
 7073TIP3    H142854   6.566   3.809   7.221 -0.2612 -0.0580  0.1713
 7073TIP3    H242855   6.513   3.774   7.358  0.3496 -0.9847  0.1837
 7074TIP3   OH242856   4.081   4.586   1.123 -0.7067  0.6606  0.7487
 7074TIP3    H142857   4.075   4.681   1.115 -1.2407  0.5230 -0.8932
 7074TIP3    H242858   4.011   4.552   1.067 -0.3367 -0.7134  1.0655
 7075TIP3   OH242859   1.269   6.127   6.856  0.1399 -0.3171 -0.2010
 7075TIP3    H142860   1.207   6.075   6.907 -0.5408  0.5252 -0.1655
 7075TIP3    H242861   1.242   6.115   6.765  0.6506 -0.8824 -0.2904
 7076TIP3   OH242862   0.796   0.807   7.456 -0.6101  0.1906 -0.0715
 7076TIP3    H142863   0.722   0.767   7.502 -0.9793  1.1149  0.1493
 7076TIP3    H242864   0.818   0.884   7.508  0.4482 -0.0211 -0.1947
 7077TIP3   OH242865   4.667   1.634   7.151  0.2246 -0.1655  0.1884
 7077TIP3    H142866   4.578   1.599   7.160  0.6571 -1.4448 -0.2833
 7077TIP3    H242867   4.659   1.698   7.080 -0.0784 -1.2666 -0.8232
 7078TIP3   OH242868   0.663   4.034   8.528  0.0886 -0.7646  0.1680
 7078TIP3    H142869   0.634   4.125   8.522 -0.8583 -1.0939 -0.4710
 7078TIP3    H242870   0.693   4.012   8.440  0.1610 -1.1154  0.2780
 7079TIP3   OH242871   1.597   2.562   7.341 -0.0182 -0.0910 -0.5348
 7079TIP3    H142872   1.692   2.567   7.330  0.0684  1.6916  0.6262
 7079TIP3    H242873   1.562   2.599   7.260  0.3558  1.4438 -0.0265
 7080TIP3   OH242874   0.790   6.026   7.449  0.1925  0.0198  0.1406
 7080TIP3    H142875   0.702   6.051   7.476  0.4710 -0.2418  1.3262
 7080TIP3    H242876   0.848   6.090   7.491  0.5831  0.0973 -0.5014
 7081TIP3   OH242877   5.887   0.846   7.438 -0.0180 -0.0238  0.1827
 7081TIP3    H142878   5.935   0.779   7.486 -0.0741 -0.2254 -0.0415
 7081TIP3    H242879   5.884   0.814   7.348  1.7236  1.2220 -0.3711
 7082TIP3   OH242880   4.109   5.145   7.239  0.6791 -0.2692 -0.4778
 7082TIP3    H142881   4.084   5.061   7.202  1.1615 -0.5162 -0.2566
 7082TIP3    H242882   4.183   5.125   7.296 -1.9004 -0.4472  3.1668
 7083TIP3   OH242883   3.896   5.476   6.104 -0.0815  0.3345 -0.0696
 7083TIP3    H142884   3.895   5.543   6.036 -0.7275 -0.6197 -1.0221
 7083TIP3    H242885   3.813   5.486   6.150 -1.5041 -1.5895 -2.0431
 7084TIP3   OH242886   3.768   5.977   1.389 -0.1293  0.0522  0.6921
 7084TIP3    H142887   3.801   5.924   1.316  1.6365  0.4907  1.1170
 7084TIP3    H242888   3.748   6.062   1.349  1.2805  0.4430  0.7581
 7085TIP3   OH242889   1.894   1.088   0.959 -0.1031  0.3368  0.6310
 7085TIP3    H142890   1.868   1.023   1.025 -2.2569  0.4662 -0.0220
 7085TIP3    H242891   1.971   1.130   0.997 -0.4764 -0.5108  2.4740
 7086TIP3   OH242892   3.050   6.864   1.209 -0.5860 -0.1682 -0.2384
 7086TIP3    H142893   3.066   6.779   1.169 -0.5961 -0.0892 -0.4108
 7086TIP3    H242894   3.098   6.926   1.154 -0.9959 -0.0012 -0.4088
 7087TIP3   OH242895   0.155   2.789   8.003  0.0935 -0.4438  0.0356
 7087TIP3    H142896   0.077   2.792   8.058  1.5424 -0.8831  2.2170
 7087TIP3    H242897   0.150   2.705   7.957 -1.3546  0.1311 -0.9400
 7088TIP3   OH242898   2.532   4.309   8.022  0.4349 -0.0231  0.0717
 7088TIP3    H142899   2.593   4.360   7.969  0.0116 -1.0075 -1.4313
 7088TIP3    H242900   2.516   4.364   8.099  1.9210  0.9746 -0.2786
 7089TIP3   OH242901   2.091   0.416   7.803  0.0751  0.2344  0.2047
 7089TIP3    H142902   2.006   0.448   7.773  0.1346  0.9560  0.7531
 7089TIP3    H242903   2.148   0.424   7.727 -0.3283 -0.1801 -0.1457
 7090TIP3   OH242904   5.713   5.948   0.597 -0.2817 -0.3004 -0.0421
 7090TIP3    H142905   5.700   6.021   0.657 -0.5354 -1.3814  1.2785
 7090TIP3    H242906   5.741   5.876   0.653 -1.6099 -1.6729 -1.0506
 7091TIP3   OH242907   0.439   6.460   1.818 -0.1074  0.4411 -0.1525
 7091TIP3    H142908   0.375   6.475   1.887 -0.2393  0.5333 -0.2935
 7091TIP3    H242909   0.515   6.424   1.863 -0.9839 -1.6187 -0.2215
 7092TIP3   OH242910   2.932   3.857   8.438 -0.2608 -0.3883 -0.5142
 7092TIP3    H142911   2.916   3.949   8.456  0.2535 -0.3731 -0.1400
 7092TIP3    H242912   2.962   3.855   8.347  1.5131  0.0137  0.0427
 7093TIP3   OH242913   0.211   2.228   1.242  0.1880  0.0993  0.1456
 7093TIP3    H142914   0.138   2.223   1.304 -0.5105  1.2302 -0.5334
 7093TIP3    H242915   0.174   2.198   1.159 -0.2084  2.7071 -0.7312
 7094TIP3   OH242916   5.329   5.928   8.292 -0.1115 -0.0179 -0.2159
 7094TIP3    H142917   5.269   5.868   8.248 -1.0170  1.5489 -1.1805
 7094TIP3    H242918   5.319   5.907   8.385 -0.5396 -1.2148 -0.5096
 7095TIP3   OH242919   0.006   0.975   0.427  0.0603  0.8181  0.3252
 7095TIP3    H142920  -0.045   1.056   0.433  2.2966  2.3679 -0.3659
 7095TIP3    H242921   0.018   0.960   0.334 -1.3341 -1.0783  0.3732
 7096TIP3   OH242922   2.094   3.735   0.757  0.3913 -0.1100 -0.0445
 7096TIP3    H142923   2.072   3.820   0.720  1.2131 -0.0465 -0.4036
 7096TIP3    H242924   2.169   3.705   0.706 -0.5638 -1.5671 -0.6882
 7097TIP3   OH242925   1.085   4.746   8.526 -0.9636  0.2984  0.1903
 7097TIP3    H142926   0.991   4.740   8.510 -0.8524 -1.6026  0.0244
 7097TIP3    H242927   1.124   4.688   8.461  0.1845 -0.2970  1.3567
 7098TIP3   OH242928   0.752   4.061   0.949  0.1512 -0.5590 -0.5662
 7098TIP3    H142929   0.775   4.108   1.029 -0.6924 -0.4400 -0.3938
 7098TIP3    H242930   0.687   3.997   0.976 -1.1818  0.3954 -1.3777
 7099TIP3   OH242931   2.380   2.710   7.432  0.2615 -0.4617 -0.0839
 7099TIP3    H142932   2.323   2.774   7.474  4.3901  2.9101  1.2327
 7099TIP3    H242933   2.347   2.703   7.342 -1.9120  1.5422  0.4734
 7100TIP3   OH242934   6.326   6.460   7.294 -0.1310  0.2943 -0.4543
 7100TIP3    H142935   6.286   6.435   7.210 -0.2027  0.6601 -0.5323
 7100TIP3    H242936   6.260   6.437   7.360 -0.1581  0.1926 -0.5172
 7101TIP3   OH242937   3.673   4.930   1.669 -0.0846  0.1559  0.7194
 7101TIP3    H142938   3.601   4.867   1.668  0.0273  0.0124 -0.5552
 7101TIP3    H242939   3.639   5.006   1.716 -1.2899  0.3188 -0.3785
 7102TIP3   OH242940   5.389   1.200   1.610 -0.0045  0.3419 -0.4275
 7102TIP3    H142941   5.387   1.254   1.531 -0.2290  0.2933 -0.4570
 7102TIP3    H242942   5.356   1.114   1.581 -1.3334  0.6826 -0.0143
 7103TIP3   OH242943   3.186   5.192   7.165 -0.2634  0.2841  0.1991
 7103TIP3    H142944   3.130   5.164   7.238  0.0833  0.6260  0.6025
 7103TIP3    H242945   3.272   5.204   7.205  0.8009 -2.8640 -0.9117
 7104TIP3   OH242946   5.346   5.604   1.955  0.4548  0.3854 -0.3301
 7104TIP3    H142947   5.331   5.512   1.936 -0.6304  0.1102  1.6490
 7104TIP3    H242948   5.442   5.613   1.957  0.6818  0.0788 -3.7244
 7105TIP3   OH242949   4.350   0.323   1.129  0.3209  0.2858 -0.0100
 7105TIP3    H142950   4.318   0.254   1.072  0.7666 -0.8992  1.1106
 7105TIP3    H242951   4.426   0.359   1.083  0.0477  0.0700 -0.6374
 7106TIP3   OH242952   5.667   3.928   0.038  0.5169  0.6850  0.3128
 7106TIP3    H142953   5.656   3.844  -0.007  0.6185  0.1744  1.1952
 7106TIP3    H242954   5.733   3.974  -0.013 -1.7519  1.5823 -2.0056
 7107TIP3   OH242955   3.684   4.842   0.937  0.1343 -0.1760 -0.0967
 7107TIP3    H142956   3.626   4.913   0.910  1.0243  1.5052  2.0364
 7107TIP3    H242957   3.753   4.841   0.871 -0.8470 -0.3160 -1.1429
 7108TIP3   OH242958   5.814   6.326   8.418 -0.0678  0.0881 -0.6144
 7108TIP3    H142959   5.850   6.343   8.505 -2.0676  1.3126  0.0423
 7108TIP3    H242960   5.821   6.232   8.407 -1.7709 -0.4404  1.8758
 7109TIP3   OH242961   3.554   3.222   2.005  0.4954 -0.2300 -0.1069
 7109TIP3    H142962   3.572   3.274   2.083  0.1544 -1.7589  1.0539
 7109TIP3    H242963   3.623   3.245   1.944  0.6250  1.2024  0.5300
 7110TIP3   OH242964   6.815   6.522   0.724  0.4170 -0.2638 -0.2170
 7110TIP3    H142965   6.786   6.440   0.684 -1.2175  0.3550 -0.4023
 7110TIP3    H242966   6.799   6.511   0.817 -0.9196  0.2056 -0.3524
 7111TIP3   OH242967   1.847   2.700   0.088 -0.3969  0.0006  0.1725
 7111TIP3    H142968   1.878   2.610   0.094 -3.7223 -1.3255 -0.5822
 7111TIP3    H242969   1.797   2.713   0.168 -0.4486  0.9987 -0.0109
 7112TIP3   OH242970   1.281   0.830   6.956 -0.2025 -0.0313 -0.1131
 7112TIP3    H142971   1.285   0.866   7.045 -0.8329 -0.0254 -0.0853
 7112TIP3    H242972   1.328   0.894   6.902  0.2632 -0.0813  0.2275
 7113TIP3   OH242973   4.125   6.175   8.273 -0.8676  0.0838  0.5198
 7113TIP3    H142974   4.045   6.144   8.229  0.0462  1.0466 -2.0084
 7113TIP3    H242975   4.196   6.140   8.221  0.2690  2.4501  0.3499
 7114TIP3   OH242976   0.103   4.434   2.226  0.0028 -0.1826  0.2615
 7114TIP3    H142977   0.182   4.442   2.279  0.4379  1.0589 -0.5316
 7114TIP3    H242978   0.135   4.410   2.139 -0.6163 -1.0847  0.2671
 7115TIP3   OH242979   0.046   2.654   6.509  0.3237 -0.2819 -0.1103
 7115TIP3    H142980   0.017   2.697   6.428  0.7162 -1.2228 -0.7720
 7115TIP3    H242981   0.053   2.561   6.485  0.4827 -0.5628  0.9997
 7116TIP3   OH242982   3.977   1.755   7.764  0.1911 -0.3064 -0.5550
 7116TIP3    H142983   4.055   1.701   7.777 -0.0035 -0.2819  0.7975
 7116TIP3    H242984   4.011   1.837   7.729  0.6750 -0.6103 -0.8140
 7117TIP3   OH242985   6.761   6.754   8.501  0.0065 -0.4575 -0.1918
 7117TIP3    H142986   6.667   6.771   8.500 -0.2412 -1.7721 -0.3901
 7117TIP3    H242987   6.783   6.742   8.593 -0.4654 -2.3922 -0.2992
 7118TIP3   OH242988   4.490   2.125   1.678  0.7909  0.5409  0.1361
 7118TIP3    H142989   4.427   2.052   1.677  0.4307  0.8455 -0.9227
 7118TIP3    H242990   4.543   2.112   1.599 -0.0897  2.0944 -0.7580
 7119TIP3   OH242991   5.109   2.846   6.851 -0.0650 -0.2194  0.4330
 7119TIP3    H142992   5.068   2.897   6.921  1.2846  0.4763  0.7491
 7119TIP3    H242993   5.035   2.805   6.805 -1.0991  0.8083  1.1079
 7120TIP3   OH242994   2.458   5.789   0.466 -0.2421  0.3551 -0.2989
 7120TIP3    H142995   2.390   5.725   0.486 -0.4739  0.5748 -0.3714
 7120TIP3    H242996   2.422   5.840   0.393 -0.5131  1.2380  0.4219
 7121TIP3   OH242997   1.476   6.482   8.393 -0.5140 -0.6447  0.3307
 7121TIP3    H142998   1.395   6.472   8.342  0.0117 -0.2050 -0.6126
 7121TIP3    H242999   1.543   6.500   8.328  0.5687 -2.0975  0.9955
 7122TIP3   OH243000   4.801   3.896   1.123  0.2011 -0.1626  0.1821
 7122TIP3    H143001   4.803   3.830   1.191 -0.0734 -0.7249 -0.3485
 7122TIP3    H243002   4.800   3.847   1.041  0.9308  0.5058 -0.2476
 7123TIP3   OH243003   4.918   3.012   8.229 -0.0372 -0.0946  0.5205
 7123TIP3    H143004   4.994   3.055   8.189 -1.2415  0.6885 -1.0284
 7123TIP3    H243005   4.948   2.923   8.248  1.5530  0.4852  0.8732
 7124TIP3   OH243006   6.807   4.642   1.591  0.0657  0.2140  0.1642
 7124TIP3    H143007   6.770   4.593   1.664 -0.2818  0.0644 -0.1080
 7124TIP3    H243008   6.785   4.589   1.514  2.2396 -0.7657  0.1139
 7125TIP3   OH243009   2.266   6.198   1.442 -0.2782 -0.3867  0.5697
 7125TIP3    H143010   2.238   6.262   1.378  0.1594 -1.7099 -1.0117
 7125TIP3    H243011   2.262   6.244   1.526 -0.7018  1.4403 -0.4118
 7126TIP3   OH243012   3.067   2.613   8.491  0.3546  0.0191  0.2732
 7126TIP3    H143013   2.995   2.655   8.444  0.8142  0.7250  0.1925
 7126TIP3    H243014   3.139   2.676   8.487  0.9740 -0.6738  0.3753
 7127TIP3   OH243015   3.504   1.999   1.843  0.4560 -0.3943 -0.5367
 7127TIP3    H143016   3.424   2.013   1.792 -0.1944  0.9411  0.7748
 7127TIP3    H243017   3.551   2.083   1.837  1.9930 -1.2820 -1.6233
 7128TIP3   OH243018   6.754   4.484   2.285 -0.7196  0.3401  0.0348
 7128TIP3    H143019   6.721   4.407   2.330  0.1842  0.4646  0.9291
 7128TIP3    H243020   6.849   4.472   2.281 -0.6194  1.1420 -0.3098
 7129TIP3   OH243021   2.807   5.492   7.568  0.0898 -0.6718 -0.2515
 7129TIP3    H143022   2.876   5.553   7.595 -1.1149  0.3140  0.6937
 7129TIP3    H243023   2.846   5.406   7.582  1.1434 -0.1471  0.2356
 7130TIP3   OH243024   3.709   4.003   1.660 -0.0408 -0.2107  0.0229
 7130TIP3    H143025   3.699   4.098   1.662  1.0343 -0.1072  1.4441
 7130TIP3    H243026   3.634   3.970   1.709  1.2931  0.1049  2.4026
 7131TIP3   OH243027   0.317   1.177   0.464 -0.7692  0.8130  0.1183
 7131TIP3    H143028   0.288   1.192   0.374 -1.5035 -1.3229 -0.0559
 7131TIP3    H243029   0.310   1.082   0.476  1.5128  0.7533  1.6933
 7132TIP3   OH243030   6.842   1.050   6.662 -0.3194  0.5012  0.1715
 7132TIP3    H143031   6.932   1.060   6.692 -0.4800 -0.3457  0.9743
 7132TIP3    H243032   6.789   1.073   6.738 -0.7464 -0.5668  0.2148
 7133TIP3   OH243033   3.151   6.214   1.946 -0.0784 -0.4537 -0.1343
 7133TIP3    H143034   3.077   6.258   1.905  0.0065  0.4308  0.6258
 7133TIP3    H243035   3.114   6.134   1.983 -1.0741  0.8021  1.7570
 7134TIP3   OH243036   3.283   0.184   6.382  0.4825 -0.8179  0.0622
 7134TIP3    H143037   3.321   0.120   6.442 -2.0863 -1.8174  0.7768
 7134TIP3    H243038   3.290   0.268   6.428  1.9772 -0.9080  0.0370
 7135TIP3   OH243039   2.585   4.336   1.947  0.3235  0.3354  0.1582
 7135TIP3    H143040   2.545   4.269   1.891 -0.9715  0.1478  1.2552
 7135TIP3    H243041   2.609   4.290   2.027 -0.9234  1.1965  1.0835
 7136TIP3   OH243042   4.470   6.620   7.344  0.5028  0.3592  0.6484
 7136TIP3    H143043   4.451   6.711   7.321 -0.1816  0.6308  2.1721
 7136TIP3    H243044   4.501   6.580   7.262 -2.7506  0.9612 -1.0405
 7137TIP3   OH243045   0.621   6.389   7.338  0.1480  0.2227 -0.3252
 7137TIP3    H143046   0.582   6.385   7.426  0.2364  1.9125 -0.1901
 7137TIP3    H243047   0.549   6.363   7.280 -0.7679  1.8188  0.0459
 7138TIP3   OH243048   6.090   0.039   1.083  0.6565  0.0464 -0.0935
 7138TIP3    H143049   6.147   0.027   1.008  0.4757 -1.4420 -0.0176
 7138TIP3    H243050   6.061   0.131   1.077 -1.9283 -0.7727 -3.6858
 7139TIP3   OH243051   6.902   1.342   0.406  0.2553 -0.1434  0.2803
 7139TIP3    H143052   6.890   1.288   0.485  0.1141  2.0243  1.8293
 7139TIP3    H243053   6.815   1.379   0.389  0.3408 -0.4076 -0.7897
 7140TIP3   OH243054   3.570   4.636   0.425  0.3087 -0.2140  0.1982
 7140TIP3    H143055   3.556   4.681   0.508  0.5497  1.0349 -0.4265
 7140TIP3    H243056   3.485   4.595   0.405  0.1635 -0.2574  0.8905
 7141TIP3   OH243057   3.776   2.427   7.146  0.3633 -0.0332  0.0906
 7141TIP3    H143058   3.771   2.450   7.239 -3.7555 -2.0670  0.6146
 7141TIP3    H243059   3.845   2.360   7.141  1.7748  1.2656  1.2927
 7142TIP3   OH243060   1.255   2.725   6.974 -0.1831 -0.1310 -0.1781
 7142TIP3    H143061   1.251   2.634   6.943  0.3978 -0.9402  1.9838
 7142TIP3    H243062   1.168   2.760   6.954  0.5843  0.0112 -4.1606
 7143TIP3   OH243063   1.724   4.325   7.902 -0.7204 -0.2334 -0.2072
 7143TIP3    H143064   1.798   4.276   7.938  0.4007  0.9438 -0.8166
 7143TIP3    H243065   1.762   4.408   7.873 -2.0612 -0.0798 -1.6692
 7144TIP3   OH243066   3.933   3.919   7.470 -0.1745  0.4176  0.6925
 7144TIP3    H143067   3.935   3.825   7.452 -0.4097  0.8201 -1.9864
 7144TIP3    H243068   4.013   3.937   7.518  1.8273 -0.6886 -1.9542
 7145TIP3   OH243069   2.269   0.742   6.436  0.3545 -0.3975  0.4988
 7145TIP3    H143070   2.195   0.752   6.497  1.0127  1.3789  1.0424
 7145TIP3    H243071   2.323   0.819   6.450  2.0776 -1.4093 -0.2593
 7146TIP3   OH243072   1.225   1.607   0.596  0.1154 -0.0637  0.4205
 7146TIP3    H143073   1.184   1.671   0.538 -0.4755 -0.5176  0.3262
 7146TIP3    H243074   1.265   1.660   0.665 -1.7548  0.3753  1.2402
 7147TIP3   OH243075   2.565   0.180   8.322 -0.8427 -0.4695 -0.1165
 7147TIP3    H143076   2.585   0.091   8.293 -1.2435 -0.8395  0.7029
 7147TIP3    H243077   2.470   0.180   8.336 -0.7811 -0.0637  0.3511
 7148TIP3   OH243078   2.136   6.275   7.508 -0.2890  0.6957  0.2129
 7148TIP3    H143079   2.222   6.311   7.487 -0.0214 -0.5248 -0.8583
 7148TIP3    H243080   2.142   6.182   7.489 -1.7219  0.5010  0.5430
 7149TIP3   OH243081   4.062   3.717   8.463 -0.5971  0.3705  0.0087
 7149TIP3    H143082   4.123   3.660   8.510  0.5840  2.1869  0.8252
 7149TIP3    H243083   4.020   3.660   8.399  0.0259 -1.5254  1.2034
 7150TIP3   OH243084   6.086   3.578   8.563  0.1674 -0.5290 -0.1362
 7150TIP3    H143085   6.125   3.580   8.650 -1.1416 -0.6368  0.4827
 7150TIP3    H243086   6.099   3.666   8.528  0.3625 -0.3768  0.3231
 7151TIP3   OH243087   6.072   4.453   1.148 -0.2050  0.1665 -0.1386
 7151TIP3    H143088   6.135   4.524   1.161  0.0708 -0.1064  0.0479
 7151TIP3    H243089   6.001   4.492   1.098  0.2759  0.3947 -0.6505
 7152TIP3   OH243090   1.771   0.025   8.478 -0.3693  0.1039 -0.1962
 7152TIP3    H143091   1.832   0.097   8.461  0.5734 -0.3239  1.1870
 7152TIP3    H243092   1.733   0.006   8.392  1.6929  0.1953 -1.2186
 7153TIP3   OH243093   0.569   0.062   6.402 -0.0867 -0.0987 -0.2945
 7153TIP3    H143094   0.652   0.023   6.429 -1.1019 -2.0152  0.2688
 7153TIP3    H243095   0.576   0.154   6.426  1.2961 -0.5438  1.1184
 7154TIP3   OH243096   1.954   0.206   7.207 -0.3712 -0.2230 -0.1241
 7154TIP3    H143097   2.014   0.133   7.195  0.2847 -0.1760  2.4226
 7154TIP3    H243098   1.981   0.270   7.141  1.2110 -0.9119 -0.1954
 7155TIP3   OH243099   6.240   2.997   8.146  0.3026 -0.2542  0.6327
 7155TIP3    H143100   6.189   2.992   8.228 -0.7763  2.3233  0.2144
 7155TIP3    H243101   6.318   3.046   8.170 -0.2103  0.8677  0.0736
 7156TIP3   OH243102   6.216   5.990   6.980  0.4703  0.6143 -0.2746
 7156TIP3    H143103   6.202   5.898   6.954 -1.9846  0.8916 -0.1912
 7156TIP3    H243104   6.164   6.040   6.917 -0.7733  1.7033  1.5329
 7157TIP3   OH243105   3.200   1.302   8.136  0.3119 -0.1687 -0.0759
 7157TIP3    H143106   3.249   1.303   8.054 -1.8623 -0.1667 -1.4452
 7157TIP3    H243107   3.120   1.253   8.116 -0.8699  0.9077  1.6926
 7158TIP3   OH243108   0.461   1.775   7.279 -0.0030  0.4860 -0.1921
 7158TIP3    H143109   0.411   1.705   7.237  0.8133 -0.5288  0.4896
 7158TIP3    H243110   0.422   1.856   7.245  1.0012 -0.2345 -3.4464
 7159TIP3   OH243111   6.309   0.189   7.481  0.5863  0.0862  0.0156
 7159TIP3    H143112   6.316   0.115   7.541  1.4761  1.0223  1.1057
 7159TIP3    H243113   6.267   0.153   7.403 -0.0160 -1.3024  0.9519
 7160TIP3   OH243114   5.523   1.766   2.031  0.0359 -0.2121  0.4313
 7160TIP3    H143115   5.459   1.711   1.987  1.6003 -1.6041 -0.2441
 7160TIP3    H243116   5.472   1.832   2.077 -1.7821 -0.0466 -1.6716
 7161TIP3   OH243117   6.387   1.297   0.017 -0.1585 -0.2054  0.0437
 7161TIP3    H143118   6.347   1.374   0.058 -0.3466 -0.0196 -0.4715
 7161TIP3    H243119   6.454   1.334  -0.041 -0.5716 -0.3916 -0.5661
 7162TIP3   OH243120   1.161   2.035   7.972  0.1430  0.0542 -0.1404
 7162TIP3    H143121   1.092   1.994   7.920 -1.4566 -0.5203  2.2587
 7162TIP3    H243122   1.217   2.079   7.908 -0.8198 -1.8456 -2.4119
 7163TIP3   OH243123   5.157   3.183   1.357  0.3094  0.0517  0.6955
 7163TIP3    H143124   5.073   3.212   1.322  0.5146  0.3415  0.4273
 7163TIP3    H243125   5.139   3.098   1.397 -0.2540  0.4311  1.2671
 7164TIP3   OH243126   3.134   4.164   7.028 -0.0372  0.1725 -0.7929
 7164TIP3    H143127   3.162   4.073   7.017  1.3947  0.5532 -0.6278
 7164TIP3    H243128   3.186   4.212   6.964  1.0272  1.1546  0.7453
 7165TIP3   OH243129   2.747   4.892   1.815  0.5521  0.1967 -0.6097
 7165TIP3    H143130   2.779   4.879   1.726 -0.0792  1.7493 -1.1108
 7165TIP3    H243131   2.803   4.961   1.851 -1.7622  2.6375 -1.3533
 7166TIP3   OH243132   0.531   5.680   2.236 -0.8550  0.1038  0.7815
 7166TIP3    H143133   0.505   5.596   2.274 -1.7006  0.8613  1.9710
 7166TIP3    H243134   0.450   5.732   2.237 -0.3898  0.8754 -0.1088
 7167TIP3   OH243135   3.080   4.111   8.199 -0.2088  0.6399 -0.3534
 7167TIP3    H143136   3.082   4.044   8.267 -0.0553 -0.8526 -1.7464
 7167TIP3    H243137   3.150   4.172   8.223  0.5596 -0.4497  0.2519
 7168TIP3   OH243138   3.235   2.851   8.506  0.3682 -0.3875  0.9030
 7168TIP3    H143139   3.196   2.872   8.591 -0.9373 -0.0025  0.2409
 7168TIP3    H243140   3.192   2.910   8.444  0.4220 -1.4495 -0.2014
 7169TIP3   OH243141   2.377   4.220   1.406  0.0424  0.1668  0.1139
 7169TIP3    H143142   2.387   4.126   1.388  3.2431  0.2511  0.8572
 7169TIP3    H243143   2.289   4.228   1.443 -0.2382 -2.5912  0.2657
 7170TIP3   OH243144   4.845   2.417   7.771 -0.2519 -0.2540  0.3731
 7170TIP3    H143145   4.897   2.340   7.753 -0.1775 -0.2007  0.3594
 7170TIP3    H243146   4.900   2.471   7.828 -0.2251 -0.1210  0.2234
 7171TIP3   OH243147   1.302   4.440   8.172 -0.1120 -0.3277 -0.0091
 7171TIP3    H143148   1.243   4.501   8.217  0.6767  0.1481  0.3830
 7171TIP3    H243149   1.276   4.353   8.204 -0.1763 -0.0682  0.6458
 7172TIP3   OH243150   0.790   4.799   2.200  0.0099 -0.3456 -0.3459
 7172TIP3    H143151   0.723   4.736   2.172 -0.3350 -0.5591  0.8997
 7172TIP3    H243152   0.842   4.751   2.264  0.3843  0.3180 -0.1486
 7173TIP3   OH243153   1.753   6.670   8.553 -0.2686 -0.8492 -0.1686
 7173TIP3    H143154   1.722   6.663   8.644 -0.8044 -0.1092 -0.2876
 7173TIP3    H243155   1.810   6.746   8.553  0.5340 -1.4337 -0.2456
 7174TIP3   OH243156   3.210   3.404   7.381  0.0158 -0.0640 -0.6433
 7174TIP3    H143157   3.154   3.449   7.444  1.2726  3.4559 -1.7946
 7174TIP3    H243158   3.278   3.364   7.435  0.6416  2.2201  0.4213
 7175TIP3   OH243159   3.991   2.957   0.787 -0.5962 -0.0097 -0.2207
 7175TIP3    H143160   4.047   2.888   0.822 -0.2552  0.6379  0.5646
 7175TIP3    H243161   3.968   2.928   0.699  2.1760  0.3598 -1.1622
 7176TIP3   OH243162   5.640   5.937   7.259  0.1981  0.8403 -0.0852
 7176TIP3    H143163   5.593   5.912   7.338 -0.0523 -0.3923 -0.5936
 7176TIP3    H243164   5.733   5.924   7.281  0.0766 -0.7133 -0.3507
 7177TIP3   OH243165   2.091   1.330   8.133 -0.0532 -0.7143 -0.1049
 7177TIP3    H143166   2.040   1.412   8.134  0.9821 -0.0495  1.0463
 7177TIP3    H243167   2.065   1.285   8.214 -2.5136 -2.8166 -1.8947
 7178TIP3   OH243168   2.434   2.630   6.907 -0.1620 -0.0755 -0.2102
 7178TIP3    H143169   2.512   2.583   6.878  0.5757  1.9627 -1.7879
 7178TIP3    H243170   2.464   2.685   6.979 -0.4598 -0.2788  0.0703
 7179TIP3   OH243171   1.366   2.909   6.805  0.6249  0.0694 -0.2897
 7179TIP3    H143172   1.345   2.843   6.739  1.9460 -1.7391  1.0157
 7179TIP3    H243173   1.312   2.887   6.880  1.0064  0.5346  0.1330
 7180TIP3   OH243174   6.810   3.143   6.297  0.2076 -0.3233  0.5564
 7180TIP3    H143175   6.724   3.167   6.332 -0.0643 -1.1683  0.4988
 7180TIP3    H243176   6.861   3.224   6.300 -1.3099  0.7890 -1.6691
 7181TIP3   OH243177   5.329   2.544   8.268 -0.5452 -0.3734  0.2600
 7181TIP3    H143178   5.306   2.618   8.213 -1.1527 -0.0793  0.8898
 7181TIP3    H243179   5.395   2.578   8.329  0.0504 -0.6698 -0.2062
 7182TIP3   OH243180   1.998   5.654   8.497 -0.1060  0.0942 -0.0462
 7182TIP3    H143181   2.039   5.588   8.554  0.7035 -0.2145 -0.9673
 7182TIP3    H243182   2.040   5.736   8.522  1.6039 -0.3106 -1.4167
 7183LIG      O43183   0.766   4.165   3.851  0.0914 -0.4965 -0.8930
 7183LIG     C143184   0.864   4.228   3.936 -0.4962  0.4262 -0.7694
 7183LIG     C243185   0.803   4.350   4.008 -0.7765 -0.4679  0.4717
 7183LIG     C343186   0.908   4.118   4.027 -0.0994 -1.2426  0.4994
 7183LIG     H143187   0.945   4.260   3.866 -0.0335  0.8488 -0.0470
 7183LIG     H243188   0.753   4.320   4.102  1.1858 -2.1284  1.0806
 7183LIG     H343189   0.736   4.407   3.940  0.2968  0.7970  0.4294
 7183LIG     H443190   0.891   4.413   4.035 -0.4642  0.0801 -1.6556
 7183LIG     H543191   0.953   4.033   3.972  0.1925 -1.0975  0.5146
 7183LIG     H643192   0.812   4.081   4.072 -1.6238  0.7163 -0.9607
 7183LIG     H743193   0.969   4.144   4.116  1.6482 -0.7576 -0.7962
 7183LIG     H843194   0.708   4.233   3.815  1.2923  1.2496  0.3659
   6.91527   6.91527   8.64382
