Title
43194
    1CHL1    C3    1   3.339   6.387   5.841 -0.6518 -1.2886 -0.3118
    1CHL1    H3    2   3.437   6.439   5.854 -0.6417 -1.4684  0.4040
    1CHL1    O3    3   3.301   6.373   5.975 -0.4572  0.3951 -0.3655
    1CHL1   H3'    4   3.208   6.398   5.980 -0.3221  0.9336 -0.4716
    1CHL1    C4    5   3.255   6.488   5.769 -0.0720  0.1719  0.0042
    1CHL1   H4A    6   3.147   6.460   5.775 -0.4913  1.4294 -1.1619
    1CHL1   H4B    7   3.268   6.589   5.813  0.3206 -0.9609  2.6817
    1CHL1    C5    8   3.290   6.498   5.618 -0.2473 -0.3367 -0.1037
    1CHL1    C6    9   3.321   6.613   5.553 -0.1362 -0.0801 -0.0368
    1CHL1    H6   10   3.333   6.709   5.606  0.0299  1.1179 -2.1538
    1CHL1    C7   11   3.340   6.627   5.407  0.2506  0.0594 -0.0795
    1CHL1   H7A   12   3.279   6.712   5.370  0.1940 -1.3919 -3.7771
    1CHL1   H7B   13   3.449   6.641   5.385  0.2159  0.4226 -0.0297
    1CHL1    C8   14   3.295   6.505   5.333  0.3562  0.6957  0.9704
    1CHL1    H8   15   3.185   6.501   5.319  0.4155 -3.6917  0.2400
    1CHL1   C14   16   3.364   6.510   5.192 -0.1602 -0.4349 -1.2602
    1CHL1   H14   17   3.475   6.508   5.192 -0.1356  0.5234 -0.6369
    1CHL1   C15   18   3.340   6.626   5.097  0.3342  0.5260 -0.9818
    1CHL1  H15A   19   3.231   6.648   5.091  0.0548 -0.8774 -1.4865
    1CHL1  H15B   20   3.390   6.723   5.120 -1.3461  0.6954  2.7171
    1CHL1   C16   21   3.385   6.580   4.960  0.0459 -0.2559  0.2605
    1CHL1  H16A   22   3.308   6.611   4.886  0.9241 -1.3667 -1.1927
    1CHL1  H16B   23   3.487   6.621   4.947  0.3733 -0.6293  1.4969
    1CHL1   C17   24   3.397   6.425   4.970 -0.7401 -0.7477  0.3323
    1CHL1   H17   25   3.507   6.407   4.975 -0.7088 -0.3030  1.5423
    1CHL1   C13   26   3.339   6.386   5.112 -0.5424 -0.3175  0.5233
    1CHL1   C18   27   3.192   6.369   5.089 -0.6079  0.0082  0.2210
    1CHL1  H18A   28   3.148   6.464   5.054 -0.2633  0.1098  0.0624
    1CHL1  H18B   29   3.174   6.289   5.014  0.8032  1.4724 -1.7789
    1CHL1  H18C   30   3.135   6.338   5.180  0.5429  1.0290  1.3289
    1CHL1   C12   31   3.403   6.259   5.183  0.0551 -0.0742 -0.1496
    1CHL1  H12A   32   3.386   6.162   5.130  0.6568 -0.5284  0.4837
    1CHL1  H12B   33   3.511   6.284   5.183 -0.5737  3.0103  1.4806
    1CHL1   C11   34   3.340   6.247   5.320  0.2481 -0.0599  0.0832
    1CHL1  H11A   35   3.241   6.200   5.302 -0.1274  1.2462 -1.5543
    1CHL1  H11B   36   3.410   6.178   5.370  1.7432  1.1669 -0.2204
    1CHL1    C9   37   3.340   6.379   5.398  0.0569  0.6498  0.1146
    1CHL1    H9   38   3.446   6.406   5.411 -0.3620  0.8906  4.5158
    1CHL1   C10   39   3.287   6.361   5.543  0.0461 -0.1217  0.0506
    1CHL1   C19   40   3.140   6.316   5.542 -0.1059 -0.1459 -0.0928
    1CHL1  H19A   41   3.081   6.402   5.502  2.4385  1.4609 -0.6581
    1CHL1  H19B   42   3.128   6.222   5.484 -0.5458 -0.0110 -0.2268
    1CHL1  H19C   43   3.089   6.296   5.638  0.9787 -0.1901  0.4803
    1CHL1    C1   44   3.372   6.264   5.624  0.2898  0.7190 -0.2705
    1CHL1   H1A   45   3.370   6.161   5.582  0.4424  0.3767  0.5571
    1CHL1   H1B   46   3.478   6.292   5.609  0.8730 -0.2860  1.7492
    1CHL1    C2   47   3.347   6.253   5.774  0.2127  0.9558  0.2527
    1CHL1   H2A   48   3.419   6.187   5.826 -0.1387  0.2725 -0.1135
    1CHL1   H2B   49   3.244   6.214   5.790  1.0183 -1.4299 -0.1121
    1CHL1   C20   50   3.360   6.359   4.839 -0.2682  0.1554  0.3876
    1CHL1   H20   51   3.253   6.379   4.819 -0.5767 -0.3481  1.4598
    1CHL1   C21   52   3.389   6.204   4.847  0.1805  0.1186 -0.0784
    1CHL1  H21A   53   3.319   6.159   4.920 -1.4678  2.8789  0.1664
    1CHL1  H21B   54   3.492   6.177   4.880 -0.5145  1.4541  3.6452
    1CHL1  H21C   55   3.361   6.159   4.750  0.7381 -0.3483 -0.0363
    1CHL1   C22   56   3.457   6.417   4.724  0.5510 -0.7562  0.1483
    1CHL1  H22A   57   3.419   6.521   4.712 -0.2163 -1.0068  0.3589
    1CHL1  H22B   58   3.564   6.418   4.754  0.0552  1.4512  2.1030
    1CHL1   C23   59   3.465   6.338   4.590  0.0337  0.3322  0.0010
    1CHL1  H23A   60   3.552   6.269   4.589  1.8409  2.4126  2.2211
    1CHL1  H23B   61   3.368   6.289   4.567  0.1276 -1.1142  2.3887
    1CHL1   C24   62   3.497   6.433   4.476 -0.1727  0.3451  0.0054
    1CHL1  H24A   63   3.410   6.497   4.448  1.6855  2.7853 -0.5589
    1CHL1  H24B   64   3.577   6.506   4.503 -0.5261  0.6437  0.2620
    1CHL1   C25   65   3.527   6.361   4.336 -0.2642 -0.1281  0.7466
    1CHL1   H25   66   3.446   6.287   4.320 -1.3553  0.8389  1.5775
    1CHL1   C26   67   3.547   6.469   4.226 -0.0618  0.0348 -0.7156
    1CHL1  H26A   68   3.584   6.415   4.136  0.2827 -0.5941 -0.2090
    1CHL1  H26B   69   3.466   6.534   4.187  0.0629  0.8522  0.3483
    1CHL1  H26C   70   3.627   6.539   4.254  1.4399 -1.1519 -1.8547
    1CHL1   C27   71   3.666   6.292   4.344  0.1958 -0.2799  0.1123
    1CHL1  H27A   72   3.751   6.351   4.385 -0.8583  1.9056 -0.6882
    1CHL1  H27B   73   3.663   6.190   4.387  0.7016 -0.2223  0.2953
    1CHL1  H27C   74   3.691   6.269   4.239 -1.2376  2.2365 -0.8820
    2CHL1    C3   75   6.273   1.369   6.070 -0.1218  0.6751  1.2060
    2CHL1    H3   76   6.307   1.264   6.081 -0.0040  0.6684  0.7967
    2CHL1    O3   77   6.233   1.436   6.188  0.0531 -0.0102 -0.5697
    2CHL1   H3'   78   6.171   1.500   6.152 -3.3130 -3.0086 -0.6640
    2CHL1    C4   79   6.372   1.455   5.993  0.0470 -0.2843 -0.3342
    2CHL1   H4A   80   6.323   1.554   5.983  1.0287  0.3957  1.0849
    2CHL1   H4B   81   6.463   1.467   6.057  1.9602 -1.0715 -2.7567
    2CHL1    C5   82   6.419   1.400   5.862 -0.9461  0.0456  0.0783
    2CHL1    C6   83   6.544   1.363   5.824 -0.7344 -0.5169 -0.5986
    2CHL1    H6   84   6.615   1.367   5.909 -1.3622  0.5840 -0.1035
    2CHL1    C7   85   6.586   1.325   5.685  0.0531  0.1384 -0.3349
    2CHL1   H7A   86   6.683   1.374   5.663  1.6926 -2.7165 -0.0148
    2CHL1   H7B   87   6.594   1.214   5.681 -1.0972  0.0867 -2.5044
    2CHL1    C8   88   6.470   1.359   5.586 -0.0769 -0.0005  0.7854
    2CHL1    H8   89   6.472   1.470   5.581 -0.6994 -0.0360 -0.4299
    2CHL1   C14   90   6.490   1.292   5.453 -0.6018  0.0550 -0.3123
    2CHL1   H14   91   6.486   1.184   5.479  0.4726  0.2969  1.0143
    2CHL1   C15   92   6.633   1.313   5.389 -0.0052  0.5226 -0.3667
    2CHL1  H15A   93   6.655   1.421   5.388  0.1135  0.5471  1.4173
    2CHL1  H15B   94   6.713   1.260   5.446  0.0654  1.6557  0.6273
    2CHL1   C16   95   6.615   1.276   5.242  0.2302  0.1403  0.4857
    2CHL1  H16A   96   6.632   1.366   5.178  3.2995 -1.8957 -1.8440
    2CHL1  H16B   97   6.683   1.193   5.213 -1.6513 -2.2089  2.3317
    2CHL1   C17   98   6.462   1.226   5.229 -0.2196 -0.1438  0.0531
    2CHL1   H17   99   6.456   1.119   5.256  0.4555  0.1171  1.3244
    2CHL1   C13  100   6.388   1.299   5.343  0.3143 -0.1270  0.2337
    2CHL1   C18  101   6.366   1.441   5.296 -1.0893  0.1769  0.1659
    2CHL1  H18A  102   6.349   1.515   5.377  1.0832  0.5567  0.3166
    2CHL1  H18B  103   6.441   1.484   5.227 -0.0541 -0.3760  0.9192
    2CHL1  H18C  104   6.270   1.440   5.239 -0.8246 -0.4321 -0.2822
    2CHL1   C12  105   6.262   1.234   5.399 -0.3889  0.5792 -0.0882
    2CHL1  H12A  106   6.175   1.229   5.330 -2.8569 -0.2608  2.8769
    2CHL1  H12B  107   6.293   1.133   5.433 -0.1458 -0.1452 -2.2788
    2CHL1   C11  108   6.220   1.313   5.526  0.4155  0.0820  0.0047
    2CHL1  H11A  109   6.191   1.418   5.505 -0.3553  0.2701  1.7703
    2CHL1  H11B  110   6.132   1.264   5.573 -0.5915 -0.5819 -2.4194
    2CHL1    C9  111   6.336   1.312   5.638  0.2438 -0.2907  0.0854
    2CHL1    H9  112   6.347   1.207   5.674 -0.0732 -0.6901 -0.9403
    2CHL1   C10  113   6.295   1.378   5.766  0.5075 -0.2842  0.0161
    2CHL1   C19  114   6.235   1.517   5.730  0.0875 -0.1146 -0.4785
    2CHL1  H19A  115   6.137   1.506   5.679 -0.2167  2.2929 -0.5355
    2CHL1  H19B  116   6.218   1.583   5.818  0.6833  0.9027 -1.1091
    2CHL1  H19C  117   6.302   1.572   5.660  0.9872  2.4292  2.1529
    2CHL1    C1  118   6.184   1.287   5.841 -1.2993 -0.7728 -1.0156
    2CHL1   H1A  119   6.093   1.297   5.778  0.8150  1.0167 -4.0331
    2CHL1   H1B  120   6.224   1.183   5.851  1.0675  0.1939  0.4921
    2CHL1    C2  121   6.146   1.349   5.984  0.1494  0.4456  1.3471
    2CHL1   H2A  122   6.087   1.275   6.042  1.4602 -1.5314  0.2515
    2CHL1   H2B  123   6.099   1.449   5.972 -1.3676 -0.5794 -3.9170
    2CHL1   C20  124   6.408   1.243   5.078 -0.4235  0.1053 -0.4327
    2CHL1   H20  125   6.424   1.349   5.047  0.7488 -0.2028 -0.9536
    2CHL1   C21  126   6.260   1.198   5.070 -0.1021 -0.2079  0.3704
    2CHL1  H21A  127   6.217   1.222   4.970 -0.3118  2.2903  1.0027
    2CHL1  H21B  128   6.206   1.267   5.139  0.2450  0.3743  0.0677
    2CHL1  H21C  129   6.238   1.091   5.089  0.6246 -0.0300  2.4891
    2CHL1   C22  130   6.487   1.154   4.979  0.1294  0.9427  0.4568
    2CHL1  H22A  131   6.597   1.164   4.991  0.1174  0.3807  1.1072
    2CHL1  H22B  132   6.460   1.050   5.008  0.5683  1.1667  1.7439
    2CHL1   C23  133   6.477   1.197   4.824  0.3668  0.7229  0.0321
    2CHL1  H23A  134   6.529   1.123   4.759  2.3303  1.7843  0.3043
    2CHL1  H23B  135   6.369   1.187   4.800  0.4807 -1.1706  0.1788
    2CHL1   C24  136   6.518   1.336   4.785 -0.8370 -0.2001  0.0109
    2CHL1  H24A  137   6.471   1.404   4.860  0.8131  0.3318  0.6155
    2CHL1  H24B  138   6.627   1.351   4.804 -0.9836 -0.4463  1.1200
    2CHL1   C25  139   6.470   1.400   4.655 -0.3636  0.0150  0.2779
    2CHL1   H25  140   6.361   1.381   4.663 -0.1686 -0.3160  4.1741
    2CHL1   C26  141   6.508   1.551   4.653  0.4630  0.0308 -0.3894
    2CHL1  H26A  142   6.502   1.581   4.546 -0.9451  0.5029 -0.1898
    2CHL1  H26B  143   6.444   1.617   4.716 -0.1706 -0.6872 -0.2693
    2CHL1  H26C  144   6.612   1.572   4.688 -0.5226  1.7187  1.7825
    2CHL1   C27  145   6.528   1.323   4.536  0.3209  0.1720 -0.9377
    2CHL1  H27A  146   6.509   1.363   4.434 -1.6909 -0.2432 -0.7544
    2CHL1  H27B  147   6.639   1.326   4.544  0.5525  0.3581 -3.3553
    2CHL1  H27C  148   6.494   1.218   4.533  0.6644  0.0706 -2.1586
    3CHL1    C3  149   6.670   1.704   5.987 -0.1459  0.2985 -0.4474
    3CHL1    H3  150   6.664   1.593   5.975 -0.4799  0.4910 -2.2942
    3CHL1    O3  151   6.646   1.732   6.126 -0.1737  0.2139 -0.1618
    3CHL1   H3'  152   6.650   1.828   6.130 -1.1186  0.3520 -1.6567
    3CHL1    C4  153   6.812   1.763   5.940  0.3646  0.0078  0.3121
    3CHL1   H4A  154   6.820   1.872   5.960 -0.4245 -0.0018  0.7111
    3CHL1   H4B  155   6.886   1.720   6.010 -0.6372 -2.4501 -0.0229
    3CHL1    C5  156   6.839   1.725   5.797  1.3449  0.3002  0.6300
    3CHL1    C6  157   6.937   1.648   5.760 -0.1286  0.2325 -0.8862
    3CHL1    H6  158   7.013   1.618   5.834 -0.9331  0.6741  0.1445
    3CHL1    C7  159   6.981   1.634   5.621  0.2113 -0.3155  0.0052
    3CHL1   H7A  160   7.092   1.642   5.611  0.0265  0.4650 -1.6645
    3CHL1   H7B  161   6.957   1.529   5.592 -0.0790  0.1260 -1.4318
    3CHL1    C8  162   6.905   1.727   5.523  0.5031  0.1501  0.2177
    3CHL1    H8  163   6.950   1.828   5.516 -0.2217  0.4711  0.1833
    3CHL1   C14  164   6.917   1.679   5.385 -0.3860  0.3711  0.7261
    3CHL1   H14  165   6.881   1.574   5.386  0.9218 -0.0935  1.0075
    3CHL1   C15  166   7.060   1.654   5.333  0.0802  0.1359  0.0932
    3CHL1  H15A  167   7.110   1.746   5.370 -1.9913  1.2539  0.2538
    3CHL1  H15B  168   7.101   1.565   5.385 -2.1630 -0.7345  0.4651
    3CHL1   C16  169   7.041   1.638   5.186  0.1150 -0.2340 -0.0562
    3CHL1  H16A  170   7.088   1.725   5.135 -2.0651  2.6284  2.4618
    3CHL1  H16B  171   7.088   1.550   5.137 -0.4685 -0.7154  0.2360
    3CHL1   C17  172   6.891   1.655   5.160 -0.3258 -0.3916  0.2768
    3CHL1   H17  173   6.849   1.552   5.168  0.1481 -0.7095 -1.1569
    3CHL1   C13  174   6.841   1.746   5.274 -0.3244  0.5816  0.2203
    3CHL1   C18  175   6.882   1.894   5.251 -0.5010 -0.5443 -0.2707
    3CHL1  H18A  176   6.841   1.966   5.325 -1.4989  2.0395 -3.1124
    3CHL1  H18B  177   6.990   1.917   5.259 -0.9305  2.5236 -1.6525
    3CHL1  H18C  178   6.850   1.934   5.152  0.7699  3.0191  0.6006
    3CHL1   C12  179   6.692   1.737   5.314  0.1745  0.7218 -0.4696
    3CHL1  H12A  180   6.628   1.792   5.241 -0.5816  1.4750  0.7267
    3CHL1  H12B  181   6.657   1.632   5.320  1.9559  0.1648  0.7595
    3CHL1   C11  182   6.670   1.801   5.453 -0.0915 -0.5432 -0.1943
    3CHL1  H11A  183   6.685   1.911   5.450 -2.4135 -0.1764 -0.7226
    3CHL1  H11B  184   6.562   1.804   5.480 -0.0995 -0.5437 -0.2271
    3CHL1    C9  185   6.757   1.730   5.561 -0.1466  0.1954 -0.2629
    3CHL1    H9  186   6.719   1.626   5.572  1.4490 -0.1796  2.3857
    3CHL1   C10  187   6.730   1.787   5.705 -0.0592 -0.7696 -0.1307
    3CHL1   C19  188   6.744   1.942   5.710  0.0194 -0.4177  0.8470
    3CHL1  H19A  189   6.849   1.974   5.692 -0.6798  1.1319 -0.8458
    3CHL1  H19B  190   6.684   1.995   5.633  0.0662 -2.2573 -0.5227
    3CHL1  H19C  191   6.711   1.991   5.804  2.1890  1.7171  0.5888
    3CHL1    C1  192   6.593   1.748   5.762 -0.3565 -0.4986 -0.3683
    3CHL1   H1A  193   6.523   1.820   5.715  1.0598  0.5427 -0.9813
    3CHL1   H1B  194   6.572   1.641   5.740 -0.5328 -0.3221 -1.0690
    3CHL1    C2  195   6.568   1.773   5.909  0.0908 -0.3167  0.6352
    3CHL1   H2A  196   6.464   1.739   5.927 -0.6360  0.7549 -1.1902
    3CHL1   H2B  197   6.572   1.883   5.917 -1.3856 -0.1253 -0.7007
    3CHL1   C20  198   6.871   1.703   5.012  0.5804 -0.3707  0.5021
    3CHL1   H20  199   6.924   1.800   4.996 -0.0486 -0.0371  0.3960
    3CHL1   C21  200   6.722   1.703   4.981 -0.8232  0.2287  0.1992
    3CHL1  H21A  201   6.698   1.711   4.872 -0.7605  0.5253  0.2073
    3CHL1  H21B  202   6.668   1.787   5.029 -0.7318  2.3012 -2.9840
    3CHL1  H21C  203   6.682   1.607   5.021 -3.8609  0.2103 -2.4324
    3CHL1   C22  204   6.935   1.598   4.914 -0.2793  0.3170 -0.6880
    3CHL1  H22A  205   7.039   1.568   4.940 -0.6663 -0.5637 -0.0760
    3CHL1  H22B  206   6.872   1.506   4.917 -0.8045  0.6734  1.7922
    3CHL1   C23  207   6.936   1.633   4.761  0.1037  0.0434  0.2118
    3CHL1  H23A  208   6.833   1.655   4.726  0.4482 -0.4409 -1.1924
    3CHL1  H23B  209   6.988   1.730   4.748  1.7852 -0.7983  0.4172
    3CHL1   C24  210   7.001   1.516   4.677  0.4308 -0.1790  0.3702
    3CHL1  H24A  211   7.109   1.529   4.700  0.7553  0.7881 -1.4673
    3CHL1  H24B  212   6.959   1.418   4.708  0.7085 -0.3007  0.3627
    3CHL1   C25  213   7.000   1.539   4.524 -0.0378 -0.1084 -0.8065
    3CHL1   H25  214   7.034   1.642   4.502  0.7361 -0.5084 -1.5759
    3CHL1   C26  215   7.099   1.459   4.444 -0.6902 -0.4618  0.1385
    3CHL1  H26A  216   7.053   1.440   4.345  0.8456 -0.3044 -0.6315
    3CHL1  H26B  217   7.198   1.506   4.423 -0.5899 -1.0540 -0.7501
    3CHL1  H26C  218   7.118   1.364   4.499 -1.6621 -1.3452 -1.0206
    3CHL1   C27  219   6.860   1.550   4.466  1.3032  0.5879  0.4658
    3CHL1  H27A  220   6.798   1.630   4.512 -0.4244 -0.8694  0.7942
    3CHL1  H27B  221   6.870   1.573   4.358  0.3660 -0.0423  0.2297
    3CHL1  H27C  222   6.807   1.453   4.460  0.7308  0.9498 -0.5110
    4CHL1    C3  223   4.615   1.424   5.784 -0.3860 -0.2438  0.5458
    4CHL1    H3  224   4.724   1.404   5.784 -0.5505 -1.1545  0.9996
    4CHL1    O3  225   4.585   1.455   5.925  0.4261  0.0526 -0.4498
    4CHL1   H3'  226   4.492   1.479   5.924  0.6126  1.0678  1.6893
    4CHL1    C4  227   4.604   1.552   5.711 -0.3334  0.3269  0.0472
    4CHL1   H4A  228   4.515   1.607   5.751 -1.2668 -1.4569  0.5142
    4CHL1   H4B  229   4.683   1.626   5.736 -0.8862  1.7588 -2.1401
    4CHL1    C5  230   4.601   1.544   5.559  0.2448  0.3010  0.1328
    4CHL1    C6  231   4.690   1.616   5.487 -0.1949 -0.1651 -0.0059
    4CHL1    H6  232   4.758   1.686   5.537 -1.0073  0.1273  0.7132
    4CHL1    C7  233   4.705   1.609   5.333  0.3619  0.0195  0.4315
    4CHL1   H7A  234   4.713   1.710   5.288 -0.3200 -0.0623  0.1220
    4CHL1   H7B  235   4.794   1.546   5.311 -0.4919 -1.7402  1.7227
    4CHL1    C8  236   4.582   1.537   5.270  0.5039  0.6544  0.1129
    4CHL1    H8  237   4.489   1.598   5.277 -1.2055 -1.9846  2.2751
    4CHL1   C14  238   4.611   1.509   5.128 -0.0323 -0.7214  0.5289
    4CHL1   H14  239   4.700   1.444   5.136 -0.1184 -0.6511  2.6718
    4CHL1   C15  240   4.657   1.625   5.035 -0.1418  0.0553 -0.6378
    4CHL1  H15A  241   4.589   1.711   5.053 -0.4200 -0.5014  1.1386
    4CHL1  H15B  242   4.763   1.651   5.056  0.3794 -1.0075 -1.8086
    4CHL1   C16  243   4.642   1.576   4.895  0.3255 -0.1009  0.3865
    4CHL1  H16A  244   4.588   1.651   4.834  1.0708  0.1295 -0.0111
    4CHL1  H16B  245   4.735   1.551   4.839 -0.9170  0.1678 -1.9028
    4CHL1   C17  246   4.566   1.441   4.906 -0.3493 -0.1608  0.4047
    4CHL1   H17  247   4.652   1.371   4.907  0.6870  1.0170 -1.0483
    4CHL1   C13  248   4.503   1.437   5.052  0.8058  0.2060 -0.3212
    4CHL1   C18  249   4.369   1.518   5.038  0.0905 -0.1185  0.1046
    4CHL1  H18A  250   4.345   1.549   5.142 -0.3751 -0.3306  0.0638
    4CHL1  H18B  251   4.379   1.611   4.978 -2.5787  0.0335 -0.2454
    4CHL1  H18C  252   4.285   1.459   4.997  0.7637 -2.1362  1.4805
    4CHL1   C12  253   4.483   1.293   5.121  0.7971  0.1747  0.1182
    4CHL1  H12A  254   4.403   1.226   5.082 -0.8292  1.5663  0.9683
    4CHL1  H12B  255   4.580   1.238   5.124  0.5238 -0.2845  2.9893
    4CHL1   C11  256   4.457   1.315   5.271 -0.0016  0.6692  0.8045
    4CHL1  H11A  257   4.355   1.353   5.292  0.0874  0.8327  0.9563
    4CHL1  H11B  258   4.465   1.215   5.318  0.7399  1.0475  1.5157
    4CHL1    C9  259   4.558   1.405   5.348 -0.5066  0.2681  0.3077
    4CHL1    H9  260   4.654   1.351   5.352 -0.7583 -0.2476 -0.4924
    4CHL1   C10  261   4.514   1.429   5.497 -0.4915  1.0897  0.1739
    4CHL1   C19  262   4.371   1.488   5.509 -0.4523  0.0586 -0.1631
    4CHL1  H19A  263   4.290   1.423   5.469 -1.0579 -0.1567  1.3337
    4CHL1  H19B  264   4.352   1.510   5.617  0.6628  2.2367 -0.3611
    4CHL1  H19C  265   4.376   1.587   5.458  0.4209 -0.2813 -0.7506
    4CHL1    C1  266   4.536   1.293   5.576 -0.2413  0.6779 -0.0965
    4CHL1   H1A  267   4.452   1.226   5.549 -2.0121  1.9482  1.9014
    4CHL1   H1B  268   4.636   1.250   5.555  0.1263  0.1145  2.4153
    4CHL1    C2  269   4.533   1.307   5.732  1.0874  0.2965  0.4162
    4CHL1   H2A  270   4.550   1.206   5.776  1.0250 -0.2106 -0.6949
    4CHL1   H2B  271   4.427   1.330   5.758 -0.1106 -3.3720 -0.6827
    4CHL1   C20  272   4.483   1.412   4.782 -0.6271  0.2596 -0.0960
    4CHL1   H20  273   4.393   1.477   4.789 -1.4628 -1.0001  2.3476
    4CHL1   C21  274   4.453   1.259   4.789 -0.6501  0.7817  0.2228
    4CHL1  H21A  275   4.415   1.226   4.888  1.6105  0.5945  1.0721
    4CHL1  H21B  276   4.538   1.200   4.749 -0.2919  1.5419 -0.1621
    4CHL1  H21C  277   4.374   1.232   4.715  0.7822  0.5670 -1.2727
    4CHL1   C22  278   4.558   1.451   4.653  0.2342  1.2969  0.3219
    4CHL1  H22A  279   4.554   1.562   4.650 -0.7950  1.2584 -1.9600
    4CHL1  H22B  280   4.657   1.402   4.664 -0.6915 -0.9304 -0.5779
    4CHL1   C23  281   4.508   1.396   4.521 -0.3845  0.0103  0.0136
    4CHL1  H23A  282   4.587   1.441   4.457  2.2501 -1.8870  1.7374
    4CHL1  H23B  283   4.498   1.286   4.528 -1.5529  0.0689 -0.5817
    4CHL1   C24  284   4.373   1.476   4.493 -0.0359  0.1574  0.5276
    4CHL1  H24A  285   4.288   1.443   4.556 -0.1502  0.6920  0.6593
    4CHL1  H24B  286   4.395   1.579   4.528  0.5302 -0.4728  2.1340
    4CHL1   C25  287   4.330   1.474   4.339 -0.0346 -0.5174 -0.1738
    4CHL1   H25  288   4.237   1.535   4.328  0.0746 -0.4317 -0.6540
    4CHL1   C26  289   4.425   1.549   4.244 -0.6780 -0.3231 -0.0152
    4CHL1  H26A  290   4.521   1.501   4.216  0.0833  0.2685  1.4696
    4CHL1  H26B  291   4.364   1.569   4.153  1.2734 -2.3485 -1.8803
    4CHL1  H26C  292   4.450   1.648   4.289 -1.2833 -0.9300  1.6999
    4CHL1   C27  293   4.294   1.339   4.290 -0.1663  0.4359 -0.0692
    4CHL1  H27A  294   4.228   1.351   4.202 -0.5597  3.4785  0.5260
    4CHL1  H27B  295   4.381   1.272   4.274  1.5897  2.5855  0.0940
    4CHL1  H27C  296   4.231   1.295   4.371 -0.9153 -0.0638 -0.9022
    5CHL1    C3  297   3.098   2.816   5.701  0.4169 -0.0911  0.6320
    5CHL1    H3  298   3.194   2.761   5.695  0.9828  0.9604 -0.2801
    5CHL1    O3  299   3.081   2.845   5.835  0.4011 -0.1180 -0.4246
    5CHL1   H3'  300   3.011   2.911   5.835  1.3416  0.9488  0.8720
    5CHL1    C4  301   3.113   2.948   5.629 -0.1134  0.0731  0.3949
    5CHL1   H4A  302   3.021   3.008   5.645 -1.1710 -0.9962 -1.2594
    5CHL1   H4B  303   3.190   3.009   5.681 -0.5854  1.1295 -0.1040
    5CHL1    C5  304   3.133   2.927   5.485  0.2949  0.6260  0.2947
    5CHL1    C6  305   3.248   2.969   5.427  0.0176 -0.1362 -0.5720
    5CHL1    H6  306   3.309   3.032   5.494  0.2748 -0.0379 -0.8984
    5CHL1    C7  307   3.293   2.954   5.282  0.1381 -0.7695 -0.2454
    5CHL1   H7A  308   3.333   3.047   5.237 -1.1087 -0.0199  0.1558
    5CHL1   H7B  309   3.362   2.870   5.257  1.1789  0.4447 -1.6531
    5CHL1    C8  310   3.164   2.919   5.201  0.2400  0.3157  0.4026
    5CHL1    H8  311   3.114   3.018   5.197 -0.3675 -0.0088 -0.2044
    5CHL1   C14  312   3.213   2.874   5.065  0.1567 -0.4612 -0.5055
    5CHL1   H14  313   3.258   2.774   5.082  0.6315  0.1175  2.0211
    5CHL1   C15  314   3.327   2.951   4.996 -0.0961 -0.6556  0.5116
    5CHL1  H15A  315   3.319   3.061   5.006  2.7478 -0.3614  0.2750
    5CHL1  H15B  316   3.422   2.919   5.044  1.3809  1.4407 -0.8638
    5CHL1   C16  317   3.304   2.922   4.845 -0.6941  0.6488 -0.5549
    5CHL1  H16A  318   3.281   3.008   4.779 -1.9477  0.2797 -0.6240
    5CHL1  H16B  319   3.388   2.864   4.802 -0.8363 -0.7483  0.9649
    5CHL1   C17  320   3.182   2.827   4.834  0.9367 -0.3573 -0.3462
    5CHL1   H17  321   3.226   2.726   4.846  1.8176  0.1454  0.9039
    5CHL1   C13  322   3.100   2.848   4.967  0.7550 -0.1857 -0.0484
    5CHL1   C18  323   3.019   2.979   4.952 -0.0709  0.0657  0.8076
    5CHL1  H18A  324   2.930   2.957   4.890  0.2500  0.1555  0.3164
    5CHL1  H18B  325   2.987   3.024   5.049  0.9274 -0.0361  1.1853
    5CHL1  H18C  326   3.079   3.062   4.910 -0.8250 -0.9704 -2.6204
    5CHL1   C12  327   3.021   2.733   5.017  0.1383 -0.5465  0.4205
    5CHL1  H12A  328   2.940   2.723   4.943  1.9443 -0.9323 -1.5942
    5CHL1  H12B  329   3.088   2.644   5.016 -0.4304 -0.9937  1.0907
    5CHL1   C11  330   2.972   2.753   5.160 -0.1592 -0.6344  0.6354
    5CHL1  H11A  331   2.884   2.821   5.163  0.0111 -0.3378 -0.6298
    5CHL1  H11B  332   2.943   2.651   5.193 -0.9684 -0.5509  0.2127
    5CHL1    C9  333   3.079   2.811   5.260 -0.5686  0.2634  0.0942
    5CHL1    H9  334   3.145   2.722   5.265 -0.9158  0.0734  1.7113
    5CHL1   C10  335   3.035   2.837   5.403 -0.2965  0.0655  0.2013
    5CHL1   C19  336   2.911   2.927   5.406 -0.6152 -0.2690 -0.0352
    5CHL1  H19A  337   2.935   3.013   5.339  1.8894 -0.2567  0.7859
    5CHL1  H19B  338   2.824   2.874   5.360 -0.4393 -0.2626 -0.3769
    5CHL1  H19C  339   2.872   2.950   5.507 -0.1303 -0.5686  0.2206
    5CHL1    C1  340   3.002   2.705   5.492 -0.4543 -0.4099 -0.0999
    5CHL1   H1A  341   2.915   2.642   5.462 -0.6313 -0.3872  0.3544
    5CHL1   H1B  342   3.090   2.638   5.485  0.0395 -0.0592  2.1407
    5CHL1    C2  343   2.986   2.729   5.643  0.2087 -0.9237  0.0055
    5CHL1   H2A  344   2.972   2.632   5.695  0.6008 -0.2092  1.4789
    5CHL1   H2B  345   2.885   2.773   5.660  0.7245 -0.2860  1.5609
    5CHL1   C20  346   3.117   2.825   4.692  0.4525 -0.4854 -1.0069
    5CHL1   H20  347   3.082   2.927   4.668 -0.9322 -0.2648  1.5678
    5CHL1   C21  348   2.998   2.723   4.682 -0.5998 -0.5048 -0.0193
    5CHL1  H21A  349   2.965   2.724   4.575  0.2184  1.4164 -0.2981
    5CHL1  H21B  350   2.909   2.750   4.743  0.7108 -0.8171  2.1148
    5CHL1  H21C  351   3.036   2.628   4.724 -0.2354  0.1340  1.1327
    5CHL1   C22  352   3.215   2.796   4.574  0.0423 -0.2200 -0.0889
    5CHL1  H22A  353   3.163   2.787   4.476  1.0911  0.6895 -0.7463
    5CHL1  H22B  354   3.290   2.876   4.560 -1.9533  2.0670  1.4530
    5CHL1   C23  355   3.270   2.661   4.583 -0.0550 -0.7591  0.7968
    5CHL1  H23A  356   3.339   2.648   4.670  0.4353  1.6260  0.8389
    5CHL1  H23B  357   3.187   2.587   4.593  1.4921 -2.3765  2.7370
    5CHL1   C24  358   3.344   2.614   4.456 -0.5132  0.0923 -0.2868
    5CHL1  H24A  359   3.280   2.630   4.367 -1.1037  0.8065  0.2545
    5CHL1  H24B  360   3.440   2.671   4.452 -0.8331  0.6582 -0.0695
    5CHL1   C25  361   3.380   2.468   4.461 -0.1623  0.4033 -1.0893
    5CHL1   H25  362   3.431   2.453   4.363 -0.6956 -0.9298 -1.1884
    5CHL1   C26  363   3.479   2.431   4.572  0.2187  0.5726  0.3267
    5CHL1  H26A  364   3.576   2.484   4.565  0.8767 -0.6886 -0.6099
    5CHL1  H26B  365   3.438   2.436   4.675 -1.6392 -1.5065 -0.2311
    5CHL1  H26C  366   3.505   2.325   4.554  1.6452  1.1689 -1.3412
    5CHL1   C27  367   3.251   2.379   4.471  0.6172  0.3463 -0.3022
    5CHL1  H27A  368   3.276   2.275   4.441 -0.6450  0.6428 -2.5189
    5CHL1  H27B  369   3.210   2.371   4.574  0.7183 -0.1213 -0.2986
    5CHL1  H27C  370   3.167   2.419   4.411  0.3090  0.1788  0.0185
    6CHL1    C3  371   2.015   5.535   5.911  0.2456 -0.0017  0.3026
    6CHL1    H3  372   2.071   5.441   5.888 -0.6855 -0.6353  0.5940
    6CHL1    O3  373   2.034   5.560   6.054 -0.1107 -0.0995 -0.2362
    6CHL1   H3'  374   2.015   5.475   6.095  1.4381 -0.8731 -1.0309
    6CHL1    C4  375   2.079   5.652   5.830 -0.1657 -0.2963  0.6543
    6CHL1   H4A  376   2.012   5.736   5.858  0.2432 -0.2015  1.3869
    6CHL1   H4B  377   2.186   5.675   5.847 -0.3451  0.2019  1.1355
    6CHL1    C5  378   2.059   5.637   5.674 -0.6613 -0.5270  0.1851
    6CHL1    C6  379   2.165   5.632   5.594  0.2657 -0.5711  0.1382
    6CHL1    H6  380   2.266   5.630   5.636  0.2815  0.1367  0.1360
    6CHL1    C7  381   2.139   5.640   5.446 -0.1155 -0.6315 -0.7732
    6CHL1   H7A  382   2.204   5.714   5.395 -1.4928  1.2868  0.1501
    6CHL1   H7B  383   2.158   5.538   5.405 -0.8053 -1.4119  0.7590
    6CHL1    C8  384   1.997   5.673   5.403  0.4765 -0.1065  0.0166
    6CHL1    H8  385   1.974   5.781   5.415 -1.5855 -0.4022 -0.8510
    6CHL1   C14  386   1.976   5.638   5.255  0.1906  0.7921 -0.3546
    6CHL1   H14  387   1.996   5.529   5.242  2.3997  1.2343 -1.0474
    6CHL1   C15  388   2.076   5.702   5.160  0.3133 -0.0510  0.6815
    6CHL1  H15A  389   2.066   5.809   5.189 -1.1944  0.2119 -0.6397
    6CHL1  H15B  390   2.177   5.658   5.171  0.1127 -0.6445  0.1618
    6CHL1   C16  391   2.006   5.696   5.026  0.4923 -0.4664  0.0811
    6CHL1  H16A  392   1.997   5.801   4.991  0.8768  0.1003  1.6319
    6CHL1  H16B  393   2.069   5.642   4.951 -0.0785  0.7988 -1.3547
    6CHL1   C17  394   1.867   5.626   5.050  0.1646  0.0528  0.0127
    6CHL1   H17  395   1.890   5.517   5.049  0.5512  0.1303  0.2827
    6CHL1   C13  396   1.835   5.661   5.198 -0.5699 -0.0136  0.5377
    6CHL1   C18  397   1.795   5.809   5.212  0.0057 -0.5037  0.2880
    6CHL1  H18A  398   1.769   5.839   5.316 -0.9387  2.8836 -0.7655
    6CHL1  H18B  399   1.866   5.887   5.178 -2.2956  2.0539  0.9223
    6CHL1  H18C  400   1.708   5.822   5.143  0.4025  2.8797  0.2535
    6CHL1   C12  401   1.740   5.577   5.274  0.1138  0.8800  0.6299
    6CHL1  H12A  402   1.635   5.579   5.237  0.2531  2.1808  0.2551
    6CHL1  H12B  403   1.762   5.468   5.262 -0.1642  1.0304 -1.9291
    6CHL1   C11  404   1.745   5.604   5.429 -0.3085  0.5113  0.7230
    6CHL1  H11A  405   1.693   5.701   5.443 -1.3432  0.2298 -0.9280
    6CHL1  H11B  406   1.685   5.528   5.483 -1.4928  1.2452  0.4708
    6CHL1    C9  407   1.893   5.592   5.484 -0.3037  0.0114 -0.0945
    6CHL1    H9  408   1.907   5.482   5.473 -2.9467 -0.4429  0.2825
    6CHL1   C10  409   1.908   5.617   5.638 -0.2488 -0.6900  0.6764
    6CHL1   C19  410   1.834   5.752   5.660  0.4644 -0.3977  0.6649
    6CHL1  H19A  411   1.726   5.727   5.656  0.7516 -1.6618  0.3048
    6CHL1  H19B  412   1.861   5.798   5.758  1.1305 -0.9599  0.7568
    6CHL1  H19C  413   1.856   5.833   5.588 -0.0062  0.5554  1.5616
    6CHL1    C1  414   1.845   5.503   5.727 -1.0558 -0.4449  0.0196
    6CHL1   H1A  415   1.737   5.495   5.702 -0.8765 -0.3143 -0.8381
    6CHL1   H1B  416   1.894   5.407   5.702  0.0494 -0.4597  2.0601
    6CHL1    C2  417   1.863   5.507   5.882 -0.4555  0.1360  0.5676
    6CHL1   H2A  418   1.832   5.416   5.938  1.2680  0.1472  1.6157
    6CHL1   H2B  419   1.789   5.575   5.928 -0.8249 -1.9768  3.3833
    6CHL1   C20  420   1.772   5.664   4.937 -0.6470  0.0437 -0.0721
    6CHL1   H20  421   1.756   5.773   4.947 -0.7848 -0.1857  3.8907
    6CHL1   C21  422   1.628   5.592   4.966 -0.5573 -0.5220  0.2392
    6CHL1  H21A  423   1.635   5.495   5.018  1.0395 -0.3569  0.3812
    6CHL1  H21B  424   1.566   5.591   4.873  0.7844 -0.1156 -0.6930
    6CHL1  H21C  425   1.574   5.652   5.043 -0.6538 -1.2472  0.7476
    6CHL1   C22  426   1.817   5.634   4.788 -0.1459  0.5453 -0.1235
    6CHL1  H22A  427   1.916   5.682   4.772  0.3769 -0.4264  0.1503
    6CHL1  H22B  428   1.845   5.527   4.795 -0.8033  0.4585  1.2967
    6CHL1   C23  429   1.723   5.648   4.663 -0.3816 -0.3137  0.4605
    6CHL1  H23A  430   1.780   5.622   4.571 -0.9823  0.6085 -0.1830
    6CHL1  H23B  431   1.642   5.573   4.674 -0.8205 -0.4963 -2.9409
    6CHL1   C24  432   1.661   5.788   4.637  0.1729 -0.0321  0.7730
    6CHL1  H24A  433   1.575   5.786   4.567  0.3029  1.3624  0.5413
    6CHL1  H24B  434   1.613   5.823   4.730 -1.9456  0.7085 -0.5414
    6CHL1   C25  435   1.755   5.902   4.590  0.5721  0.1166  0.0161
    6CHL1   H25  436   1.834   5.916   4.667  2.7840 -1.9347 -1.6889
    6CHL1   C26  437   1.848   5.874   4.470 -0.2522  0.3374  0.5304
    6CHL1  H26A  438   1.914   5.963   4.469 -0.7264  0.7269  1.9816
    6CHL1  H26B  439   1.903   5.779   4.492  0.4676  0.1771 -1.6639
    6CHL1  H26C  440   1.793   5.871   4.374  1.2791  0.3498 -0.3855
    6CHL1   C27  441   1.687   6.037   4.581  0.3498  0.1696 -0.4441
    6CHL1  H27A  442   1.590   6.025   4.529 -1.2847 -1.2535  2.6354
    6CHL1  H27B  443   1.654   6.069   4.682 -1.3054  1.0057 -1.2042
    6CHL1  H27C  444   1.748   6.109   4.523  1.0936 -0.9275 -1.0595
    7CHL1    C3  445   1.604   1.902   5.786 -0.0032 -0.2402 -0.1784
    7CHL1    H3  446   1.582   2.008   5.808 -3.2145 -0.7447 -0.4012
    7CHL1    O3  447   1.581   1.826   5.899 -0.2519  0.4572 -0.7023
    7CHL1   H3'  448   1.550   1.889   5.965  0.4015 -1.0968  1.1958
    7CHL1    C4  449   1.506   1.848   5.678 -0.0077 -0.2763  0.1213
    7CHL1   H4A  450   1.504   1.738   5.687  3.2233 -0.5563 -0.9977
    7CHL1   H4B  451   1.400   1.870   5.703 -0.4460 -2.3391  0.2110
    7CHL1    C5  452   1.545   1.885   5.533  0.2550 -0.1710  0.1020
    7CHL1    C6  453   1.453   1.939   5.459 -0.1335  0.5102  0.5448
    7CHL1    H6  454   1.347   1.945   5.490  0.1579  0.0216  1.6859
    7CHL1    C7  455   1.477   1.991   5.321 -1.3221  0.1209  0.2653
    7CHL1   H7A  456   1.382   1.974   5.266 -1.3991  0.1271  0.3974
    7CHL1   H7B  457   1.498   2.100   5.325  1.4746 -0.3206 -0.3149
    7CHL1    C8  458   1.609   1.934   5.261 -0.5101 -0.2660  0.1270
    7CHL1    H8  459   1.598   1.824   5.250 -0.9284 -0.3400  1.2069
    7CHL1   C14  460   1.640   2.004   5.130 -0.5891  0.5831 -0.4155
    7CHL1   H14  461   1.640   2.112   5.152 -2.7100  0.5019  0.1667
    7CHL1   C15  462   1.532   1.984   5.023 -0.9479 -0.2323 -0.3563
    7CHL1  H15A  463   1.503   1.877   5.019 -0.9733 -0.2212 -0.4699
    7CHL1  H15B  464   1.441   2.047   5.033 -1.3376 -0.2342 -3.0237
    7CHL1   C16  465   1.607   2.028   4.894  0.0347 -0.7746  0.6690
    7CHL1  H16A  466   1.572   1.958   4.814  0.6643 -1.0517  0.6324
    7CHL1  H16B  467   1.580   2.132   4.868  0.3854 -1.1996 -1.6601
    7CHL1   C17  468   1.760   2.036   4.927 -0.0498 -0.1402 -0.0576
    7CHL1   H17  469   1.777   2.145   4.927 -2.6182  0.4907 -4.3556
    7CHL1   C13  470   1.775   1.967   5.065 -0.5527  0.1228 -0.4967
    7CHL1   C18  471   1.783   1.812   5.046 -0.1133  0.3009  0.2872
    7CHL1  H18A  472   1.702   1.769   4.983 -1.6978  1.6208  1.3395
    7CHL1  H18B  473   1.878   1.789   4.992 -1.0246 -1.9034 -0.4586
    7CHL1  H18C  474   1.781   1.755   5.141 -0.7108  0.1476  0.1832
    7CHL1   C12  475   1.885   2.019   5.158  0.5568  0.4359 -0.1415
    7CHL1  H12A  476   1.990   2.001   5.125  0.1123 -2.0618 -0.3747
    7CHL1  H12B  477   1.875   2.130   5.157 -0.3718  0.3581 -0.2611
    7CHL1   C11  478   1.868   1.958   5.301 -0.2536  0.6545  0.0913
    7CHL1  H11A  479   1.889   1.849   5.291 -0.1888  0.7585 -1.0234
    7CHL1  H11B  480   1.945   2.005   5.366  1.2269 -0.7731 -0.5495
    7CHL1    C9  481   1.723   1.959   5.359 -0.3484 -0.3445  0.2211
    7CHL1    H9  482   1.708   2.068   5.378 -0.0135 -0.1668 -0.5021
    7CHL1   C10  483   1.698   1.880   5.491  0.5265  0.3959  0.3498
    7CHL1   C19  484   1.735   1.732   5.469 -0.9559 -0.0876  0.5954
    7CHL1  H19A  485   1.843   1.722   5.447 -1.0391  0.1632  0.0517
    7CHL1  H19B  486   1.708   1.672   5.558  0.7415 -3.1089 -0.7704
    7CHL1  H19C  487   1.679   1.687   5.384 -2.4684  1.6838  0.5772
    7CHL1    C1  488   1.784   1.949   5.603  0.0867  0.4798 -0.2760
    7CHL1   H1A  489   1.893   1.940   5.587  0.1710 -0.3480  0.6902
    7CHL1   H1B  490   1.764   2.059   5.603  0.4032  0.5942  2.4959
    7CHL1    C2  491   1.751   1.891   5.745 -0.2779  0.7711 -1.4425
    7CHL1   H2A  492   1.801   1.944   5.829 -2.1933 -0.2325  0.4131
    7CHL1   H2B  493   1.789   1.787   5.752  1.3978  1.4663  3.5253
    7CHL1   C20  494   1.849   1.986   4.806  0.1218 -0.2632 -0.0407
    7CHL1   H20  495   1.836   1.877   4.791  1.4830 -0.2861 -1.2531
    7CHL1   C21  496   2.001   2.003   4.843  0.2732 -0.1899 -0.2833
    7CHL1  H21A  497   2.027   2.109   4.866 -0.9610  0.0904 -0.1223
    7CHL1  H21B  498   2.065   1.981   4.755 -1.4583  1.0018 -1.9373
    7CHL1  H21C  499   2.023   1.933   4.926  1.6192  0.4193 -0.1064
    7CHL1   C22  500   1.815   2.069   4.679  0.6865  0.6745  0.7971
    7CHL1  H22A  501   1.707   2.083   4.661  0.9242  1.7942  0.1106
    7CHL1  H22B  502   1.838   2.178   4.686 -1.7914  1.3555 -0.5020
    7CHL1   C23  503   1.884   2.014   4.543 -0.3384  0.0770  0.5232
    7CHL1  H23A  504   1.994   2.030   4.544 -0.6929  3.1145  0.4288
    7CHL1  H23B  505   1.858   1.906   4.536  0.2500 -0.0620  0.4721
    7CHL1   C24  506   1.831   2.087   4.421  0.4704  0.4455  0.9698
    7CHL1  H24A  507   1.720   2.091   4.430  0.3848  0.3463  0.0453
    7CHL1  H24B  508   1.860   2.194   4.410 -1.5916  1.0569  1.0812
    7CHL1   C25  509   1.867   2.007   4.288 -0.0304 -0.0454  0.2894
    7CHL1   H25  510   1.978   2.001   4.279  0.1669  1.1859  1.6233
    7CHL1   C26  511   1.813   1.864   4.284  0.4102  0.3919 -0.3816
    7CHL1  H26A  512   1.874   1.789   4.339  1.6317 -0.6490 -2.9749
    7CHL1  H26B  513   1.706   1.861   4.313  0.2521 -1.8094 -0.9959
    7CHL1  H26C  514   1.820   1.824   4.181  1.7115  1.2257 -0.6378
    7CHL1   C27  515   1.815   2.066   4.162  0.6288 -0.2382 -0.0840
    7CHL1  H27A  516   1.705   2.052   4.154  0.4602  0.5446  0.7280
    7CHL1  H27B  517   1.839   2.173   4.142  0.2369 -0.4288 -1.6639
    7CHL1  H27C  518   1.860   2.011   4.077  0.9747 -0.3816  0.1939
    8CHL1    C3  519   3.879   6.574   5.745 -0.6378  0.8900  0.1478
    8CHL1    H3  520   3.956   6.496   5.760 -0.6962  0.5360 -1.2548
    8CHL1    O3  521   3.859   6.639   5.868 -0.1718  0.4577 -0.1008
    8CHL1   H3'  522   3.825   6.728   5.855 -2.7055 -0.5043 -0.5503
    8CHL1    C4  523   3.930   6.674   5.651 -0.8504  0.5189 -0.3010
    8CHL1   H4A  524   3.858   6.755   5.628 -0.7577  0.6070 -0.2812
    8CHL1   H4B  525   4.020   6.726   5.689 -0.5795  1.1892 -1.8181
    8CHL1    C5  526   3.957   6.621   5.518  0.7125 -0.0282  0.3802
    8CHL1    C6  527   4.080   6.638   5.458  0.6973 -0.5695  1.1244
    8CHL1    H6  528   4.164   6.684   5.512  1.2371 -0.3328  0.1080
    8CHL1    C7  529   4.115   6.596   5.315 -0.8987 -0.3255 -0.7679
    8CHL1   H7A  530   4.174   6.663   5.250  1.9487 -1.3060  0.6418
    8CHL1   H7B  531   4.180   6.508   5.335  0.0781  0.7339  0.9356
    8CHL1    C8  532   3.987   6.551   5.238  0.0094 -0.4586  0.4275
    8CHL1    H8  533   3.939   6.645   5.204  0.6479 -0.1002  0.4854
    8CHL1   C14  534   4.033   6.480   5.109 -0.1682  0.1746 -0.1782
    8CHL1   H14  535   4.095   6.394   5.141 -1.0159  0.1417  1.4926
    8CHL1   C15  536   4.124   6.563   5.016 -0.3615 -0.2160  0.9080
    8CHL1  H15A  537   4.105   6.672   5.000 -4.0239 -1.1184 -2.5665
    8CHL1  H15B  538   4.229   6.549   5.051  0.0161  0.3556  0.0581
    8CHL1   C16  539   4.107   6.493   4.874  0.0652 -0.3716  0.3312
    8CHL1  H16A  540   4.079   6.562   4.792  0.5957  1.1299  1.3667
    8CHL1  H16B  541   4.200   6.441   4.843 -0.4306 -0.3701 -1.2211
    8CHL1   C17  542   3.999   6.386   4.905 -0.1477 -0.0350 -0.0959
    8CHL1   H17  543   4.067   6.302   4.929  0.4473 -0.2438 -2.2913
    8CHL1   C13  544   3.913   6.428   5.031 -0.1431  0.0824 -0.4375
    8CHL1   C18  545   3.826   6.545   4.978  0.7424 -0.0097 -0.1743
    8CHL1  H18A  546   3.786   6.604   5.063 -2.6612 -0.5542 -1.2197
    8CHL1  H18B  547   3.887   6.617   4.919  0.8029  0.6324  0.6693
    8CHL1  H18C  548   3.744   6.507   4.913 -0.3517 -0.2405  1.2922
    8CHL1   C12  549   3.841   6.324   5.119  0.9566 -0.1195  0.3429
    8CHL1  H12A  550   3.747   6.293   5.069  0.9344  1.7682 -0.8429
    8CHL1  H12B  551   3.908   6.243   5.157  0.0224  0.2304  2.9391
    8CHL1   C11  552   3.787   6.390   5.247  0.1771  0.1782 -0.0983
    8CHL1  H11A  553   3.699   6.451   5.218  1.6768  1.6669 -1.6741
    8CHL1  H11B  554   3.744   6.305   5.304  1.9448 -1.3664 -0.9517
    8CHL1    C9  555   3.894   6.470   5.329  0.0741 -1.1038 -0.2218
    8CHL1    H9  556   3.958   6.390   5.372  1.1134  0.1807  0.7290
    8CHL1   C10  557   3.833   6.555   5.454  0.1846  0.3702 -0.6941
    8CHL1   C19  558   3.748   6.674   5.402 -0.3653 -0.2327  0.6274
    8CHL1  H19A  559   3.806   6.755   5.352 -1.7915 -0.7422 -2.0925
    8CHL1  H19B  560   3.680   6.640   5.320 -0.2797 -0.2939  0.5824
    8CHL1  H19C  561   3.691   6.718   5.487 -1.1230 -2.0173  1.0827
    8CHL1    C1  562   3.760   6.450   5.551  0.1716 -0.1906  1.4174
    8CHL1   H1A  563   3.666   6.413   5.503 -0.6651  1.5592  1.6398
    8CHL1   H1B  564   3.819   6.356   5.553  0.8466  0.0266 -1.8879
    8CHL1    C2  565   3.747   6.512   5.691 -0.6949  0.1828  0.0055
    8CHL1   H2A  566   3.709   6.435   5.761 -0.3560  0.1389  0.1461
    8CHL1   H2B  567   3.669   6.590   5.679 -0.3566  0.4607 -0.4084
    8CHL1   C20  568   3.927   6.342   4.774  0.7802  0.1676  0.1228
    8CHL1   H20  569   3.872   6.428   4.730 -0.5018 -0.3324  0.6901
    8CHL1   C21  570   3.815   6.237   4.811 -0.2250  0.4675  0.0029
    8CHL1  H21A  571   3.770   6.211   4.713 -0.8461  2.1522 -0.1778
    8CHL1  H21B  572   3.735   6.282   4.873 -0.5089  1.3586 -0.9961
    8CHL1  H21C  573   3.861   6.153   4.868 -0.7700 -0.1162 -0.4077
    8CHL1   C22  574   4.033   6.287   4.675 -0.5757  0.3003 -0.5672
    8CHL1  H22A  575   4.098   6.369   4.638 -1.3264  0.6120 -1.2012
    8CHL1  H22B  576   4.104   6.215   4.722  0.6358  1.4520 -0.5665
    8CHL1   C23  577   3.980   6.214   4.545  0.5733 -0.5692  0.3230
    8CHL1  H23A  578   3.924   6.125   4.583 -1.2383 -0.0742 -1.0539
    8CHL1  H23B  579   3.907   6.284   4.501  0.2861 -1.4506 -0.6471
    8CHL1   C24  580   4.082   6.169   4.438  0.3283  0.3904  0.4509
    8CHL1  H24A  581   4.149   6.255   4.416 -1.6095  1.2170 -2.8891
    8CHL1  H24B  582   4.152   6.091   4.475  0.9421 -1.0311 -3.2964
    8CHL1   C25  583   4.000   6.109   4.320 -0.7332 -0.1122 -0.4197
    8CHL1   H25  584   3.922   6.184   4.296 -0.3160  1.5753  2.9671
    8CHL1   C26  585   4.094   6.094   4.206 -0.6294 -0.0246  0.9271
    8CHL1  H26A  586   4.044   6.052   4.116  1.3568  1.4023 -0.9515
    8CHL1  H26B  587   4.140   6.192   4.182 -1.4214  0.4285  1.2169
    8CHL1  H26C  588   4.174   6.021   4.229 -1.2506 -1.2008 -0.5163
    8CHL1   C27  589   3.935   5.978   4.344 -0.3023  0.2204 -0.5128
    8CHL1  H27A  590   3.857   5.984   4.422 -1.2727  0.0646 -1.4448
    8CHL1  H27B  591   3.886   5.936   4.253 -2.7034  2.3801 -0.3536
    8CHL1  H27C  592   4.014   5.906   4.372 -0.4061  0.3258  0.0575
    9CHL1    C3  593   0.667   2.470   5.642 -0.0339  0.0993  0.2151
    9CHL1    H3  594   0.667   2.578   5.618  2.0453  0.0882 -0.0337
    9CHL1    O3  595   0.652   2.448   5.779 -0.2151  0.0438 -0.0381
    9CHL1   H3'  596   0.738   2.431   5.820 -0.9930 -1.1439  1.1759
    9CHL1    C4  597   0.552   2.394   5.570 -0.1811 -0.3107 -0.0016
    9CHL1   H4A  598   0.546   2.293   5.616 -1.4673  0.2856  1.1853
    9CHL1   H4B  599   0.463   2.455   5.594  0.6743  1.7938 -1.7930
    9CHL1    C5  600   0.564   2.384   5.417  0.1354 -0.0915  0.9947
    9CHL1    C6  601   0.466   2.436   5.337  0.1367  0.7350 -0.3770
    9CHL1    H6  602   0.377   2.469   5.392 -0.3577 -0.0357 -0.7072
    9CHL1    C7  603   0.458   2.420   5.186 -0.3959 -0.3006 -0.6579
    9CHL1   H7A  604   0.358   2.383   5.157  0.0759 -1.8363 -0.4125
    9CHL1   H7B  605   0.474   2.526   5.154  1.3807  0.3769  2.1561
    9CHL1    C8  606   0.574   2.337   5.123 -0.2650 -0.0982 -0.1724
    9CHL1    H8  607   0.549   2.229   5.132  0.9488 -0.5210 -1.4455
    9CHL1   C14  608   0.592   2.371   4.980  0.1312  0.0072 -0.3467
    9CHL1   H14  609   0.626   2.476   4.972 -1.6413  0.5523 -1.1451
    9CHL1   C15  610   0.477   2.376   4.875  0.4597 -0.3140  0.0549
    9CHL1  H15A  611   0.420   2.288   4.912  0.7018  0.7897  3.3325
    9CHL1  H15B  612   0.413   2.466   4.885 -1.1033 -1.4758  0.9229
    9CHL1   C16  613   0.541   2.361   4.737  0.6627  0.4366  0.4918
    9CHL1  H16A  614   0.517   2.256   4.708 -0.6810  0.6187  0.9082
    9CHL1  H16B  615   0.504   2.432   4.661 -0.7277 -0.6754  0.0710
    9CHL1   C17  616   0.690   2.371   4.767 -0.7204  0.3621 -0.6019
    9CHL1   H17  617   0.719   2.477   4.786 -3.3640  0.9434  0.5806
    9CHL1   C13  618   0.703   2.301   4.909 -0.7233 -0.3588 -0.2812
    9CHL1   C18  619   0.671   2.148   4.903 -0.1243 -0.8358  0.0498
    9CHL1  H18A  620   0.744   2.094   4.840 -0.7658  0.4388 -1.8875
    9CHL1  H18B  621   0.683   2.098   5.001  0.0179 -1.4164 -0.2597
    9CHL1  H18C  622   0.567   2.124   4.870 -0.5057 -0.9034  1.2614
    9CHL1   C12  623   0.841   2.332   4.981  0.1018  0.0230  0.0062
    9CHL1  H12A  624   0.918   2.266   4.934 -1.0404  0.7772 -3.1662
    9CHL1  H12B  625   0.867   2.437   4.960  1.3141  0.1235  1.7333
    9CHL1   C11  626   0.832   2.311   5.134  0.1058  0.2882 -0.0970
    9CHL1  H11A  627   0.846   2.203   5.155  2.5034  0.3375 -1.0601
    9CHL1  H11B  628   0.924   2.360   5.174  1.5020 -1.7548 -0.6138
    9CHL1    C9  629   0.703   2.371   5.203 -0.0825 -0.2678 -0.4516
    9CHL1    H9  630   0.703   2.482   5.196 -1.6147 -0.2989 -1.4762
    9CHL1   C10  631   0.694   2.333   5.357 -0.0248  0.0682 -0.2305
    9CHL1   C19  632   0.705   2.178   5.371 -0.6551  0.3101 -0.4164
    9CHL1  H19A  633   0.662   2.125   5.284 -1.2523 -1.2351  0.7832
    9CHL1  H19B  634   0.815   2.161   5.381 -0.2443  1.6871 -2.0576
    9CHL1  H19C  635   0.675   2.139   5.470  1.3765  3.0890  1.4573
    9CHL1    C1  636   0.806   2.406   5.439 -0.8105  0.6496 -0.0028
    9CHL1   H1A  637   0.899   2.352   5.409 -1.7484 -1.5140  0.8026
    9CHL1   H1B  638   0.805   2.513   5.408 -0.7013  1.1112  1.5251
    9CHL1    C2  639   0.799   2.411   5.595  0.0780  0.3067  0.1749
    9CHL1   H2A  640   0.892   2.451   5.640  1.0861  0.5690 -2.0274
    9CHL1   H2B  641   0.799   2.303   5.623 -0.3308 -0.3597 -2.1802
    9CHL1   C20  642   0.789   2.318   4.670 -0.3365  0.3200  0.6162
    9CHL1   H20  643   0.874   2.282   4.732 -0.4089  0.9824  1.1141
    9CHL1   C21  644   0.821   2.434   4.581  0.6083 -0.0717 -0.3177
    9CHL1  H21A  645   0.729   2.480   4.538  0.5550  1.2195  1.1068
    9CHL1  H21B  646   0.874   2.403   4.488  1.8351 -1.8407  0.9137
    9CHL1  H21C  647   0.869   2.523   4.629 -1.7133  0.8554  0.4111
    9CHL1   C22  648   0.739   2.204   4.581 -0.4547  0.2445  0.3699
    9CHL1  H22A  649   0.658   2.137   4.617 -0.9078  0.1896 -0.7064
    9CHL1  H22B  650   0.697   2.253   4.491 -0.3757 -0.3172  0.0245
    9CHL1   C23  651   0.845   2.105   4.521 -0.0499 -0.0401  0.1041
    9CHL1  H23A  652   0.939   2.159   4.497  0.3091 -0.5212  0.4315
    9CHL1  H23B  653   0.864   2.030   4.600  2.8725 -0.3096 -0.7438
    9CHL1   C24  654   0.802   2.033   4.386 -0.0121 -0.1316  0.5783
    9CHL1  H24A  655   0.698   1.997   4.400  0.1236 -0.3895  0.9474
    9CHL1  H24B  656   0.802   2.100   4.298  2.8180 -2.8284 -1.6827
    9CHL1   C25  657   0.893   1.912   4.349  0.5962 -0.2355  0.0401
    9CHL1   H25  658   0.988   1.958   4.315 -1.1524  2.5003 -1.5444
    9CHL1   C26  659   0.910   1.807   4.460  0.1301  0.5097 -0.2260
    9CHL1  H26A  660   0.814   1.753   4.462 -0.8130  2.0985  2.0516
    9CHL1  H26B  661   0.997   1.738   4.455 -0.8135 -0.7316  0.2233
    9CHL1  H26C  662   0.905   1.842   4.565  0.0478 -2.0830  0.7075
    9CHL1   C27  663   0.834   1.834   4.229  0.1651  0.2440 -0.2089
    9CHL1  H27A  664   0.729   1.802   4.250  0.2551 -0.0665 -0.2225
    9CHL1  H27B  665   0.820   1.883   4.130 -2.8226 -0.8240 -0.4209
    9CHL1  H27C  666   0.892   1.744   4.200 -1.6110 -0.4753 -1.7708
   10CHL1    C3  667   5.267   2.718   6.081  0.3444  0.1629  0.4944
   10CHL1    H3  668   5.249   2.814   6.027  2.3950 -0.1650 -0.9144
   10CHL1    O3  669   5.249   2.736   6.216 -0.0997  0.3083 -0.1512
   10CHL1   H3'  670   5.223   2.647   6.241 -2.1109  0.3291 -1.9472
   10CHL1    C4  671   5.158   2.615   6.036 -0.2766 -0.5619 -0.3323
   10CHL1   H4A  672   5.156   2.524   6.100 -2.7379 -1.1417 -1.1249
   10CHL1   H4B  673   5.060   2.665   6.044 -1.2727 -2.3385 -0.7766
   10CHL1    C5  674   5.177   2.572   5.884 -0.5832  0.1360 -0.4107
   10CHL1    C6  675   5.082   2.584   5.794  0.4483 -0.3999  0.1442
   10CHL1    H6  676   4.980   2.603   5.828  0.1056 -0.1618 -0.9684
   10CHL1    C7  677   5.100   2.546   5.652  0.4654  0.2739 -0.2348
   10CHL1   H7A  678   5.009   2.497   5.612  0.9548 -0.3288 -0.6285
   10CHL1   H7B  679   5.112   2.637   5.590 -0.1786  0.6074  0.1108
   10CHL1    C8  680   5.218   2.449   5.629  0.1622  0.2649  0.0224
   10CHL1    H8  681   5.189   2.352   5.676 -1.3646  1.2794  1.2667
   10CHL1   C14  682   5.234   2.444   5.477 -0.4331  0.3845  0.5462
   10CHL1   H14  683   5.266   2.545   5.444 -1.5676  1.1804  1.7865
   10CHL1   C15  684   5.111   2.402   5.396 -0.3185  0.3151 -0.7701
   10CHL1  H15A  685   5.062   2.317   5.447  0.1312 -0.9328 -2.3160
   10CHL1  H15B  686   5.040   2.485   5.377 -0.3751  0.3505 -0.3987
   10CHL1   C16  687   5.172   2.361   5.260 -0.5028 -0.5995  0.5103
   10CHL1  H16A  688   5.138   2.257   5.242 -0.9370 -0.7269  1.8781
   10CHL1  H16B  689   5.154   2.431   5.176  1.9607  2.4021  2.2761
   10CHL1   C17  690   5.328   2.372   5.277 -0.4526 -0.4194 -0.3629
   10CHL1   H17  691   5.366   2.475   5.260 -1.0069 -0.3485 -1.1964
   10CHL1   C13  692   5.348   2.351   5.429 -0.0881 -0.8467 -0.6190
   10CHL1   C18  693   5.334   2.202   5.469  0.2906 -0.2657 -0.0553
   10CHL1  H18A  694   5.322   2.194   5.580 -1.8579  0.5391 -0.1848
   10CHL1  H18B  695   5.251   2.149   5.419 -0.9089  0.7231  0.8185
   10CHL1  H18C  696   5.426   2.155   5.428 -0.6781 -1.0782 -1.3356
   10CHL1   C12  697   5.482   2.411   5.495 -0.5768 -0.1401 -0.3203
   10CHL1  H12A  698   5.571   2.354   5.463  0.9121  2.0711 -0.3063
   10CHL1  H12B  699   5.492   2.517   5.466  1.4500 -0.3379 -0.4595
   10CHL1   C11  700   5.468   2.408   5.650  0.1043 -0.0769 -0.0918
   10CHL1  H11A  701   5.456   2.301   5.677 -0.1959 -0.3518 -1.2554
   10CHL1  H11B  702   5.562   2.437   5.701  0.9083 -1.4668 -0.7445
   10CHL1    C9  703   5.343   2.497   5.698  0.3756 -0.4895 -0.2933
   10CHL1    H9  704   5.357   2.599   5.656  0.9113  0.1397  1.3397
   10CHL1   C10  705   5.322   2.527   5.855  0.1864  0.3128  0.5349
   10CHL1   C19  706   5.332   2.389   5.922  0.6523  0.5934 -0.5054
   10CHL1  H19A  707   5.437   2.355   5.919  0.1991 -1.0046  0.5338
   10CHL1  H19B  708   5.302   2.397   6.029 -4.0310 -1.2707 -1.4352
   10CHL1  H19C  709   5.267   2.308   5.881  1.0484 -0.4816  0.9271
   10CHL1    C1  710   5.428   2.622   5.914 -0.5254  0.5334  0.1531
   10CHL1   H1A  711   5.524   2.566   5.923 -0.4053  0.9310  1.5112
   10CHL1   H1B  712   5.434   2.719   5.859 -1.5984 -0.6475 -2.2183
   10CHL1    C2  713   5.410   2.657   6.060 -0.3313 -0.5199  0.2027
   10CHL1   H2A  714   5.488   2.729   6.092 -1.3484  0.5338  0.3460
   10CHL1   H2B  715   5.430   2.567   6.123  2.0906 -1.9197 -2.3261
   10CHL1   C20  716   5.405   2.289   5.182 -0.1814  0.2357 -0.5831
   10CHL1   H20  717   5.382   2.183   5.210 -0.8289 -0.2889 -2.8495
   10CHL1   C21  718   5.547   2.324   5.185  0.0860 -0.6284 -0.2109
   10CHL1  H21A  719   5.612   2.289   5.268  0.2206  2.3628  1.0584
   10CHL1  H21B  720   5.569   2.432   5.170 -0.0758 -0.5260  0.2535
   10CHL1  H21C  721   5.589   2.267   5.100  0.6345 -0.2936 -0.1673
   10CHL1   C22  722   5.347   2.297   5.034 -0.7865 -0.2534 -0.1738
   10CHL1  H22A  723   5.387   2.209   4.980 -3.0584 -1.4415 -0.0243
   10CHL1  H22B  724   5.238   2.275   5.033 -1.1672  1.3889  0.7476
   10CHL1   C23  725   5.374   2.426   4.961 -0.0981  0.7944  0.3186
   10CHL1  H23A  726   5.320   2.507   5.015 -3.6705 -2.6282  2.3679
   10CHL1  H23B  727   5.483   2.445   4.970  0.3675 -1.1837 -0.7539
   10CHL1   C24  728   5.322   2.429   4.814  0.3338 -0.2449  0.5203
   10CHL1  H24A  729   5.367   2.347   4.754 -1.8212 -1.1598  0.0691
   10CHL1  H24B  730   5.215   2.402   4.823 -0.0069 -0.8084 -3.4965
   10CHL1   C25  731   5.330   2.560   4.727  0.1253  0.1026 -0.1818
   10CHL1   H25  732   5.434   2.597   4.731 -0.1033  0.9722 -1.6357
   10CHL1   C26  733   5.299   2.547   4.572 -0.5344  0.1010 -0.1434
   10CHL1  H26A  734   5.193   2.567   4.547 -0.0163  0.8343 -1.8890
   10CHL1  H26B  735   5.358   2.616   4.508 -1.9419  2.0890  0.5961
   10CHL1  H26C  736   5.318   2.442   4.543 -1.3293  0.5410 -2.4805
   10CHL1   C27  737   5.258   2.676   4.788  0.1189  0.3859  0.6921
   10CHL1  H27A  738   5.273   2.761   4.717  0.7080 -0.1627  0.1475
   10CHL1  H27B  739   5.149   2.652   4.784  0.1846  0.1845 -0.3455
   10CHL1  H27C  740   5.295   2.712   4.886  3.3434  0.6870 -0.5274
   11CHL1    C3  741   4.375   0.374   5.821 -0.5364 -0.0110  0.2982
   11CHL1    H3  742   4.456   0.439   5.782  0.5048 -1.2946  0.2263
   11CHL1    O3  743   4.356   0.388   5.964 -0.4197  0.1395  0.2704
   11CHL1   H3'  744   4.389   0.303   5.992  0.4020 -0.1123 -1.3320
   11CHL1    C4  745   4.243   0.406   5.752 -0.2713 -0.2969  0.1083
   11CHL1   H4A  746   4.154   0.356   5.795  0.2310 -0.0021  1.5407
   11CHL1   H4B  747   4.215   0.512   5.770 -0.7747 -0.3618 -0.2574
   11CHL1    C5  748   4.240   0.371   5.603  0.4886 -0.8851 -0.0789
   11CHL1    C6  749   4.211   0.462   5.507  0.6669  0.1873  0.2432
   11CHL1    H6  750   4.191   0.565   5.541  1.7176  1.1232 -1.8125
   11CHL1    C7  751   4.204   0.430   5.360 -0.7831 -0.1285 -0.6597
   11CHL1   H7A  752   4.119   0.470   5.300  1.3688 -0.5330 -4.2703
   11CHL1   H7B  753   4.295   0.470   5.310  0.4190 -0.2737  1.3050
   11CHL1    C8  754   4.209   0.280   5.333 -0.6027 -0.0747  0.5113
   11CHL1    H8  755   4.102   0.251   5.341 -1.6737  3.0203 -0.9847
   11CHL1   C14  756   4.251   0.249   5.189 -0.3779  0.0460  0.4416
   11CHL1   H14  757   4.356   0.280   5.169 -0.5085 -0.4787 -1.2202
   11CHL1   C15  758   4.172   0.321   5.076  0.1716 -0.2953 -0.2302
   11CHL1  H15A  759   4.066   0.329   5.109 -0.3036 -1.5978 -1.3138
   11CHL1  H15B  760   4.218   0.419   5.053  0.1319 -0.1729  0.2159
   11CHL1   C16  761   4.194   0.233   4.945  0.5977 -0.2138  1.0357
   11CHL1  H16A  762   4.094   0.192   4.920  1.1383 -0.1025 -1.5812
   11CHL1  H16B  763   4.224   0.294   4.858 -1.0658 -0.6136  0.1551
   11CHL1   C17  764   4.282   0.115   4.996 -0.1212 -1.0793  0.4682
   11CHL1   H17  765   4.388   0.150   4.993 -0.5638  0.4001  0.9489
   11CHL1   C13  766   4.250   0.105   5.145 -0.2834 -0.5387 -0.5118
   11CHL1   C18  767   4.108   0.042   5.159  0.1227  0.5895 -0.1765
   11CHL1  H18A  768   4.109  -0.065   5.129  0.0453  0.6790 -0.5026
   11CHL1  H18B  769   4.067   0.045   5.262 -0.9841  1.5729 -0.6227
   11CHL1  H18C  770   4.035   0.085   5.086 -0.8151 -0.3978  0.1576
   11CHL1   C12  771   4.356   0.027   5.231 -0.0358  0.3163 -0.4985
   11CHL1  H12A  772   4.345  -0.081   5.208 -1.8113 -0.1917  2.2164
   11CHL1  H12B  773   4.459   0.058   5.206 -0.0734  1.5568  0.7610
   11CHL1   C11  774   4.332   0.052   5.385 -0.3039 -0.2294  0.6224
   11CHL1  H11A  775   4.249  -0.012   5.422 -0.2677  1.3034  3.6600
   11CHL1  H11B  776   4.417   0.009   5.443 -1.1946 -1.1479  1.2803
   11CHL1    C9  777   4.307   0.198   5.425  0.3982 -0.5845  0.4865
   11CHL1    H9  778   4.404   0.245   5.398 -0.3766  0.6440 -0.2472
   11CHL1   C10  779   4.283   0.224   5.571 -0.1831 -0.5440  0.9434
   11CHL1   C19  780   4.163   0.141   5.619  0.2817  0.6853  0.1747
   11CHL1  H19A  781   4.090   0.137   5.535  0.7802  0.1733 -0.2385
   11CHL1  H19B  782   4.192   0.035   5.638 -1.2455  0.2233  0.0772
   11CHL1  H19C  783   4.115   0.180   5.712  2.1888  0.7899  1.1615
   11CHL1    C1  784   4.409   0.191   5.652 -0.4960 -0.5862  0.4886
   11CHL1   H1A  785   4.433   0.083   5.652 -1.0955 -0.7224  0.2387
   11CHL1   H1B  786   4.492   0.245   5.602 -1.8016 -0.2171 -1.3762
   11CHL1    C2  787   4.408   0.228   5.801 -0.5582  0.1581 -0.0920
   11CHL1   H2A  788   4.501   0.191   5.849 -0.5160  0.2588 -0.0980
   11CHL1   H2B  789   4.327   0.169   5.851  0.4732 -1.9531 -0.8013
   11CHL1   C20  790   4.276  -0.005   4.903 -0.4243  0.7435  0.2961
   11CHL1   H20  791   4.187  -0.066   4.929 -0.7091  1.9098  2.3259
   11CHL1   C21  792   4.409  -0.093   4.920  0.3636 -0.0391 -0.0594
   11CHL1  H21A  793   4.412  -0.171   4.841 -1.3800  0.7249 -0.9287
   11CHL1  H21B  794   4.414  -0.137   5.022  0.5683 -0.5886 -0.3010
   11CHL1  H21C  795   4.489  -0.018   4.904 -0.7681  1.1968 -0.1203
   11CHL1   C22  796   4.249   0.019   4.754 -0.4433 -0.1353  0.3005
   11CHL1  H22A  797   4.182   0.105   4.733  0.5929  0.1963 -1.9416
   11CHL1  H22B  798   4.347   0.043   4.708 -0.0517 -0.2221  1.0810
   11CHL1   C23  799   4.175  -0.097   4.693 -0.2969 -0.1799 -0.9838
   11CHL1  H23A  800   4.231  -0.193   4.698  2.1965  1.2101 -0.5406
   11CHL1  H23B  801   4.080  -0.119   4.746 -1.6830  3.1420 -1.7940
   11CHL1   C24  802   4.132  -0.072   4.545 -0.3367 -0.3891 -0.4055
   11CHL1  H24A  803   4.070   0.020   4.539 -2.0240 -1.5802 -2.8687
   11CHL1  H24B  804   4.229  -0.059   4.493 -1.0736 -2.6593 -2.5314
   11CHL1   C25  805   4.057  -0.189   4.481  0.5808 -0.4877 -0.1063
   11CHL1   H25  806   3.962  -0.210   4.535  0.7667  0.1413  0.4669
   11CHL1   C26  807   4.002  -0.150   4.336 -0.3238  0.1388  0.1092
   11CHL1  H26A  808   3.927  -0.069   4.341 -0.5515 -0.0301 -0.4706
   11CHL1  H26B  809   4.082  -0.102   4.275 -1.6649  1.4451 -0.6776
   11CHL1  H26C  810   3.957  -0.236   4.283 -2.3679 -0.3059  2.4303
   11CHL1   C27  811   4.130  -0.326   4.471 -0.3057  0.5562 -0.4701
   11CHL1  H27A  812   4.061  -0.407   4.439  0.9373 -0.3529 -0.9268
   11CHL1  H27B  813   4.217  -0.330   4.402 -0.1984  2.3950 -0.5097
   11CHL1  H27C  814   4.171  -0.355   4.570  1.9373 -0.8711 -1.7422
   12CHL1    C3  815   5.112   0.965   5.600 -0.1966  0.0048  0.6714
   12CHL1    H3  816   5.140   1.072   5.592 -0.8255  0.5063  3.8467
   12CHL1    O3  817   5.127   0.927   5.737 -0.1587  0.4219  0.2635
   12CHL1   H3'  818   5.089   0.839   5.744  0.8633  0.0118  0.9462
   12CHL1    C4  819   4.962   0.947   5.570  0.4784  0.2255  0.9104
   12CHL1   H4A  820   4.926   0.845   5.596 -1.8956  1.0615  1.1982
   12CHL1   H4B  821   4.895   1.010   5.633 -1.0706 -1.4683  1.0482
   12CHL1    C5  822   4.941   0.972   5.420  0.5375 -0.3926 -0.7205
   12CHL1    C6  823   4.849   1.055   5.370  0.1157 -0.6849  0.3610
   12CHL1    H6  824   4.787   1.116   5.436 -0.9889 -0.2042 -1.0753
   12CHL1    C7  825   4.835   1.085   5.219  0.1989  0.1771  0.3915
   12CHL1   H7A  826   4.725   1.089   5.204 -0.0583 -3.4096  0.3523
   12CHL1   H7B  827   4.873   1.186   5.192  1.1881 -1.2736 -4.6359
   12CHL1    C8  828   4.896   0.975   5.127  0.0622  0.7449  0.7981
   12CHL1    H8  829   4.826   0.890   5.111 -0.6472  1.8060 -2.6789
   12CHL1   C14  830   4.912   1.032   4.981  0.0134  0.2393 -0.1353
   12CHL1   H14  831   4.993   1.107   4.974 -1.2376  1.4459 -3.3588
   12CHL1   C15  832   4.789   1.094   4.920 -0.1736  0.1115 -1.0187
   12CHL1  H15A  833   4.695   1.039   4.940  1.0076 -0.9721  2.3263
   12CHL1  H15B  834   4.784   1.199   4.956  0.4138  0.2228 -1.2532
   12CHL1   C16  835   4.822   1.102   4.766  0.7339 -0.4442 -0.5274
   12CHL1  H16A  836   4.744   1.055   4.702 -0.1588  1.1762 -0.6707
   12CHL1  H16B  837   4.832   1.200   4.715 -2.5623 -0.0590 -0.6442
   12CHL1   C17  838   4.955   1.023   4.750  0.4633  0.5416  0.1770
   12CHL1   H17  839   5.033   1.100   4.764  0.4190  0.2948  1.9884
   12CHL1   C13  840   4.965   0.929   4.881  0.8897 -0.9441  0.0783
   12CHL1   C18  841   4.874   0.810   4.865  0.5052  0.1365 -0.2647
   12CHL1  H18A  842   4.853   0.758   4.960  0.2415 -0.5409 -0.6863
   12CHL1  H18B  843   4.774   0.841   4.829 -0.3770  0.3048  2.1995
   12CHL1  H18C  844   4.899   0.730   4.791 -1.2283 -3.0020  2.3064
   12CHL1   C12  845   5.107   0.888   4.925  0.6808  0.4019  0.0625
   12CHL1  H12A  846   5.145   0.801   4.868 -1.4585 -1.6065  1.5360
   12CHL1  H12B  847   5.192   0.960   4.935  2.0592 -1.2162  0.3619
   12CHL1   C11  848   5.099   0.832   5.071  0.4900 -0.1816  0.5927
   12CHL1  H11A  849   5.046   0.734   5.065  0.7684 -0.3403  0.7397
   12CHL1  H11B  850   5.202   0.822   5.110  0.3413  1.1996  1.3867
   12CHL1    C9  851   5.025   0.925   5.171 -0.0413 -0.1668 -0.2053
   12CHL1    H9  852   5.080   1.021   5.181 -0.5256 -0.0710  2.4239
   12CHL1   C10  853   5.031   0.882   5.326 -0.0182  0.3087  0.2009
   12CHL1   C19  854   4.979   0.733   5.333  0.2955 -0.0951 -0.9830
   12CHL1  H19A  855   4.879   0.716   5.288 -0.5256  0.6936  0.4828
   12CHL1  H19B  856   5.053   0.674   5.274  0.9890 -0.3401  0.1053
   12CHL1  H19C  857   4.972   0.694   5.436  2.5040  0.9934 -0.3620
   12CHL1    C1  858   5.179   0.884   5.371 -0.1801 -0.2258  0.4977
   12CHL1   H1A  859   5.227   0.801   5.314  1.5418  0.2730  1.1455
   12CHL1   H1B  860   5.218   0.977   5.323 -1.6061 -0.6332 -1.5538
   12CHL1    C2  861   5.203   0.870   5.518  0.6281  0.2897  0.5474
   12CHL1   H2A  862   5.308   0.897   5.543  1.2258 -2.0979  0.8954
   12CHL1   H2B  863   5.181   0.763   5.539  0.0027  0.2226 -0.4123
   12CHL1   C20  864   4.983   0.959   4.614  0.0729 -0.9205  0.1261
   12CHL1   H20  865   4.935   0.860   4.603  1.5912 -1.5638 -1.2140
   12CHL1   C21  866   5.138   0.933   4.601 -0.3103  0.0005  0.3266
   12CHL1  H21A  867   5.194   1.024   4.630 -0.1305 -0.3512  1.1151
   12CHL1  H21B  868   5.153   0.916   4.492 -1.8876  0.3999  0.0250
   12CHL1  H21C  869   5.169   0.850   4.668 -1.4674 -1.5419 -0.9767
   12CHL1   C22  870   4.928   1.040   4.494  0.3223  0.4375 -0.0218
   12CHL1  H22A  871   4.946   0.982   4.401  1.7509  3.5038 -1.8225
   12CHL1  H22B  872   4.819   1.048   4.513  0.3667  2.4474 -0.3910
   12CHL1   C23  873   4.983   1.184   4.476 -0.7974  0.2959  0.3829
   12CHL1  H23A  874   4.975   1.226   4.578 -1.1120 -0.0247  0.4917
   12CHL1  H23B  875   5.093   1.170   4.468 -0.9459 -2.1539  1.5600
   12CHL1   C24  876   4.902   1.260   4.374 -0.4267  0.0502 -0.9045
   12CHL1  H24A  877   4.912   1.211   4.275  0.2645  1.7085 -1.6880
   12CHL1  H24B  878   4.796   1.256   4.410  0.4579 -0.6718  1.9081
   12CHL1   C25  879   4.947   1.402   4.355 -0.0638 -0.3015 -0.1461
   12CHL1   H25  880   4.963   1.458   4.450  1.5154 -0.1786 -0.4599
   12CHL1   C26  881   5.089   1.408   4.305 -0.4648 -0.0164 -0.2122
   12CHL1  H26A  882   5.098   1.354   4.208  3.2047  0.2782 -0.1580
   12CHL1  H26B  883   5.113   1.516   4.292 -0.7830  0.0164 -0.5404
   12CHL1  H26C  884   5.166   1.363   4.371  1.5234  0.3702 -2.1360
   12CHL1   C27  885   4.847   1.489   4.272 -0.7630  0.1938 -0.1934
   12CHL1  H27A  886   4.888   1.591   4.261  0.5841 -0.1756  1.0064
   12CHL1  H27B  887   4.834   1.433   4.177  0.5934 -2.0424  0.8472
   12CHL1  H27C  888   4.746   1.492   4.317 -0.7693 -1.1486 -0.0585
   13CHL1    C3  889   5.562   1.095   5.780 -0.2390 -0.5036  0.0054
   13CHL1    H3  890   5.599   0.994   5.753  0.1102 -0.0818 -1.1393
   13CHL1    O3  891   5.552   1.110   5.920 -0.7212  0.6104  0.0781
   13CHL1   H3'  892   5.494   1.038   5.946  1.2448 -1.5126 -1.0643
   13CHL1    C4  893   5.671   1.201   5.737  0.3889 -0.4769 -0.1397
   13CHL1   H4A  894   5.638   1.298   5.781 -1.1503 -0.4902 -1.1676
   13CHL1   H4B  895   5.761   1.165   5.792  0.0905 -1.3950 -0.2234
   13CHL1    C5  896   5.694   1.200   5.590  0.7903 -0.2037  0.6388
   13CHL1    C6  897   5.813   1.166   5.532  0.4888  0.1138  0.0481
   13CHL1    H6  898   5.896   1.145   5.600 -0.5897  0.9827  1.6871
   13CHL1    C7  899   5.828   1.171   5.380  0.2050 -0.4387 -0.3837
   13CHL1   H7A  900   5.925   1.219   5.355  0.3554 -1.2146 -1.3886
   13CHL1   H7B  901   5.837   1.067   5.339  0.2093  0.1624 -1.9872
   13CHL1    C8  902   5.712   1.243   5.308  1.1753 -0.4807 -0.5114
   13CHL1    H8  903   5.718   1.353   5.323 -0.2993 -0.0177 -2.8992
   13CHL1   C14  904   5.717   1.206   5.165  0.1800 -0.5530  0.4743
   13CHL1   H14  905   5.703   1.096   5.164  0.3843 -0.5764  0.2877
   13CHL1   C15  906   5.853   1.217   5.085  0.3633  0.1576  0.0526
   13CHL1  H15A  907   5.908   1.312   5.100 -0.4655  0.7188 -0.4595
   13CHL1  H15B  908   5.930   1.144   5.121  0.6947  0.7664  0.5952
   13CHL1   C16  909   5.810   1.192   4.944 -0.5242 -0.0655 -0.3241
   13CHL1  H16A  910   5.862   1.274   4.890 -0.5171 -0.1217 -0.4035
   13CHL1  H16B  911   5.837   1.091   4.905 -0.8039  0.3367 -1.6135
   13CHL1   C17  912   5.654   1.198   4.935 -0.1458 -0.2813 -0.3572
   13CHL1   H17  913   5.626   1.091   4.941  1.4933 -0.7762 -1.0726
   13CHL1   C13  914   5.608   1.262   5.071 -0.5116 -0.3040  0.4783
   13CHL1   C18  915   5.628   1.422   5.078 -0.4171  0.8149  0.0097
   13CHL1  H18A  916   5.735   1.451   5.075  0.1890 -1.2690 -0.0564
   13CHL1  H18B  917   5.580   1.461   4.986 -0.0352  0.0354 -0.5291
   13CHL1  H18C  918   5.583   1.465   5.170  0.4155  1.2592  0.2146
   13CHL1   C12  919   5.471   1.215   5.122 -0.0520 -0.0707  0.5776
   13CHL1  H12A  920   5.393   1.266   5.060 -1.4520  0.2679  2.5221
   13CHL1  H12B  921   5.461   1.105   5.116 -0.8597 -0.1204  2.3071
   13CHL1   C11  922   5.459   1.252   5.270 -0.2397  0.8300 -0.4498
   13CHL1  H11A  923   5.450   1.363   5.268 -3.0464  0.6494 -0.5563
   13CHL1  H11B  924   5.363   1.214   5.310 -1.0971  3.1416 -0.1530
   13CHL1    C9  925   5.574   1.196   5.361  0.0698  0.0629  0.6864
   13CHL1    H9  926   5.580   1.087   5.342  2.4089  0.3945 -0.8987
   13CHL1   C10  927   5.551   1.219   5.515 -0.9518 -0.5145  0.0059
   13CHL1   C19  928   5.493   1.361   5.533  0.4493 -0.0707 -0.1148
   13CHL1  H19A  929   5.482   1.396   5.638  0.5470  0.9203 -0.4244
   13CHL1  H19B  930   5.542   1.440   5.473 -1.9333  0.3259 -1.6603
   13CHL1  H19C  931   5.389   1.357   5.495  0.4623  0.0332 -0.1605
   13CHL1    C1  932   5.442   1.122   5.565 -0.2349  0.7953 -0.2414
   13CHL1   H1A  933   5.348   1.128   5.506 -1.6655  0.1928  1.8730
   13CHL1   H1B  934   5.478   1.018   5.550 -2.2112  0.0944 -0.3589
   13CHL1    C2  935   5.424   1.113   5.717  0.2126 -0.2018 -0.1935
   13CHL1   H2A  936   5.362   1.020   5.726  0.1398 -0.0928  0.4384
   13CHL1   H2B  937   5.370   1.203   5.754  0.1584 -0.6125  0.7600
   13CHL1   C20  938   5.611   1.261   4.806  0.1616  0.3274 -0.0044
   13CHL1   H20  939   5.649   1.365   4.798 -2.4696  1.4100  0.5974
   13CHL1   C21  940   5.456   1.264   4.791 -0.0879  0.4258  0.1272
   13CHL1  H21A  941   5.425   1.158   4.782  0.0607  0.0331  3.0952
   13CHL1  H21B  942   5.434   1.307   4.692  0.2452 -1.1272 -0.6554
   13CHL1  H21C  943   5.404   1.324   4.869  0.7460  1.0892  0.1866
   13CHL1   C22  944   5.666   1.180   4.684 -0.2887  0.5895 -0.0968
   13CHL1  H22A  945   5.777   1.181   4.691 -0.2759  1.2031 -0.2981
   13CHL1  H22B  946   5.625   1.077   4.686 -0.9439  0.8193 -1.0773
   13CHL1   C23  947   5.630   1.232   4.536  0.1250  0.2438 -0.2604
   13CHL1  H23A  948   5.673   1.167   4.457  0.5755 -1.8054  1.6074
   13CHL1  H23B  949   5.521   1.217   4.519 -0.2030  0.8260  1.2332
   13CHL1   C24  950   5.654   1.383   4.517  0.4725  0.2678 -0.5381
   13CHL1  H24A  951   5.607   1.436   4.602  0.4262 -0.7314  0.0760
   13CHL1  H24B  952   5.762   1.401   4.537  0.3349  1.3799 -0.7749
   13CHL1   C25  953   5.604   1.443   4.385 -0.2731 -1.1922  0.0013
   13CHL1   H25  954   5.669   1.397   4.307  0.0185 -1.3647  0.3462
   13CHL1   C26  955   5.464   1.391   4.344  0.1911  0.5037  0.7413
   13CHL1  H26A  956   5.429   1.442   4.252 -2.0757  1.1956  1.9022
   13CHL1  H26B  957   5.470   1.281   4.329  0.8944  0.6262  0.0858
   13CHL1  H26C  958   5.386   1.421   4.417 -0.5573 -1.3074  0.7468
   13CHL1   C27  959   5.608   1.597   4.394 -0.2495 -0.2543  0.5536
   13CHL1  H27A  960   5.603   1.637   4.290  1.5346  0.1314  0.5826
   13CHL1  H27B  961   5.526   1.633   4.460  1.6565  2.2813  1.7261
   13CHL1  H27C  962   5.704   1.629   4.441 -0.3362  2.1157 -0.7241
   14CHL1    C3  963   3.128   5.573   6.110 -0.1882 -0.0492  0.2771
   14CHL1    H3  964   3.096   5.677   6.084  0.1449  0.2311  0.9732
   14CHL1    O3  965   3.148   5.555   6.249  0.6029 -0.3066 -0.5038
   14CHL1   H3'  966   3.173   5.464   6.264 -1.3936 -0.8586 -0.1796
   14CHL1    C4  967   3.020   5.467   6.063  0.8981  0.1739 -0.2071
   14CHL1   H4A  968   3.052   5.377   6.120 -0.2938  0.0806  0.3503
   14CHL1   H4B  969   2.917   5.496   6.095  0.6739  1.3197 -1.7936
   14CHL1    C5  970   3.022   5.458   5.905 -0.3289 -0.1001 -0.8145
   14CHL1    C6  971   2.911   5.491   5.839 -0.2536  0.1624 -0.0301
   14CHL1    H6  972   2.829   5.531   5.901  0.3189  1.1370  0.1264
   14CHL1    C7  973   2.906   5.480   5.691  0.4966  0.3141  0.5178
   14CHL1   H7A  974   2.808   5.440   5.656 -0.8256  3.7065 -0.0386
   14CHL1   H7B  975   2.918   5.583   5.651 -0.9697  0.5738  0.6770
   14CHL1    C8  976   3.013   5.399   5.618 -0.6551  0.7682 -0.0088
   14CHL1    H8  977   2.999   5.291   5.636  0.4821 -0.1347 -3.7641
   14CHL1   C14  978   3.019   5.442   5.466 -0.1547  0.7896 -0.0864
   14CHL1   H14  979   3.050   5.549   5.464 -1.1163  1.1174  1.0872
   14CHL1   C15  980   2.890   5.449   5.382  0.5991 -0.7539  0.6672
   14CHL1  H15A  981   2.819   5.367   5.405 -2.4388  1.7217  0.7320
   14CHL1  H15B  982   2.832   5.543   5.386 -0.6421 -1.4916  4.9618
   14CHL1   C16  983   2.935   5.429   5.241 -0.3506  0.3905  0.2713
   14CHL1  H16A  984   2.911   5.326   5.207  1.5279  0.2229 -0.7220
   14CHL1  H16B  985   2.900   5.501   5.163 -0.8537  0.9133  0.9693
   14CHL1   C17  986   3.091   5.425   5.246  0.4405  0.5006 -0.0327
   14CHL1   H17  987   3.125   5.531   5.239  1.1619  0.2488 -0.4715
   14CHL1   C13  988   3.130   5.375   5.386  0.6962  0.4019 -0.1718
   14CHL1   C18  989   3.101   5.217   5.397 -0.7651  0.6098  0.4083
   14CHL1  H18A  990   3.011   5.189   5.338 -0.9620 -1.6917  1.6869
   14CHL1  H18B  991   3.188   5.161   5.357 -1.0859 -0.6761  1.4784
   14CHL1  H18C  992   3.075   5.172   5.495 -1.2391  0.6550  0.3066
   14CHL1   C12  993   3.272   5.415   5.444  0.2451  0.4162  0.4021
   14CHL1  H12A  994   3.354   5.360   5.392 -0.0169 -0.0083  0.4342
   14CHL1  H12B  995   3.282   5.523   5.418 -1.4881  0.3249 -0.8530
   14CHL1   C11  996   3.272   5.376   5.589  0.9857 -0.3992 -0.8288
   14CHL1  H11A  997   3.277   5.265   5.598 -2.1511 -0.8254 -2.9086
   14CHL1  H11B  998   3.367   5.422   5.623  1.1456 -0.7676 -0.7722
   14CHL1    C9  999   3.146   5.436   5.679  0.2839  0.0655  0.0083
   14CHL1    H9 1000   3.154   5.543   5.650 -1.0176  0.0886 -0.3046
   14CHL1   C10 1001   3.160   5.425   5.838 -0.4714 -0.0714  0.5935
   14CHL1   C19 1002   3.214   5.280   5.874 -0.2341  0.6442  1.1002
   14CHL1  H19A 1003   3.137   5.204   5.850 -0.1509 -0.1543  3.1857
   14CHL1  H19B 1004   3.302   5.259   5.809 -1.4434 -1.6728  0.0549
   14CHL1  H19C 1005   3.232   5.273   5.983 -2.0695  0.0110  1.4015
   14CHL1    C1 1006   3.258   5.533   5.885 -0.1852  0.7710  0.6331
   14CHL1   H1A 1007   3.358   5.497   5.852 -1.1229 -0.3063 -1.1478
   14CHL1   H1B 1008   3.222   5.625   5.835 -1.7531 -0.4902 -0.6570
   14CHL1    C2 1009   3.260   5.555   6.040 -0.7498  0.3768  0.2055
   14CHL1   H2A 1010   3.330   5.638   6.064  0.3422 -0.7005  0.8800
   14CHL1   H2B 1011   3.288   5.458   6.085 -0.5635  0.7849  0.9947
   14CHL1   C20 1012   3.143   5.351   5.120 -1.1449  0.3476 -0.0229
   14CHL1   H20 1013   3.104   5.247   5.122 -1.3406  0.4071 -0.5060
   14CHL1   C21 1014   3.300   5.336   5.121 -0.7631 -0.1849  0.0511
   14CHL1  H21A 1015   3.343   5.275   5.038 -0.9310  1.2232 -1.1208
   14CHL1  H21B 1016   3.337   5.275   5.206 -2.6143 -0.5312  0.6430
   14CHL1  H21C 1017   3.349   5.436   5.117  0.0809 -0.6026 -0.3697
   14CHL1   C22 1018   3.094   5.431   4.996  0.6260  0.4074  0.2510
   14CHL1  H22A 1019   2.983   5.428   4.991  0.6244 -1.4186  0.4395
   14CHL1  H22B 1020   3.143   5.530   4.989  0.4776  0.3547 -2.8016
   14CHL1   C23 1021   3.137   5.360   4.862  0.5088 -0.3555 -0.3989
   14CHL1  H23A 1022   3.244   5.388   4.857  1.2985 -2.5368  2.2358
   14CHL1  H23B 1023   3.124   5.250   4.869 -0.5872 -0.3623 -1.9149
   14CHL1   C24 1024   3.059   5.418   4.742  0.0641 -0.5072  0.2589
   14CHL1  H24A 1025   2.951   5.410   4.771 -0.1546  0.8209 -0.1279
   14CHL1  H24B 1026   3.078   5.527   4.731 -1.3830 -0.2130  0.3701
   14CHL1   C25 1027   3.096   5.334   4.611 -0.3969  0.5787 -0.5408
   14CHL1   H25 1028   3.069   5.228   4.628 -0.1171  0.7704  1.3791
   14CHL1   C26 1029   3.002   5.395   4.505  0.5843  0.1604  0.2526
   14CHL1  H26A 1030   2.893   5.371   4.509  1.0005 -1.6996  1.8276
   14CHL1  H26B 1031   3.024   5.504   4.500  0.8507  0.1940  1.8406
   14CHL1  H26C 1032   3.038   5.363   4.405 -0.7979  0.5723 -0.4141
   14CHL1   C27 1033   3.240   5.359   4.565  0.0119  0.3730 -0.2995
   14CHL1  H27A 1034   3.272   5.465   4.560  0.6291  0.2837  1.3313
   14CHL1  H27B 1035   3.300   5.296   4.634 -0.7704  1.1877  1.1586
   14CHL1  H27C 1036   3.258   5.328   4.460  0.7951 -1.0520  0.2246
   15CHL1    C3 1037   3.901   1.714   5.826 -0.0090 -0.4143  0.2708
   15CHL1    H3 1038   3.971   1.798   5.845 -2.5639  2.5319 -2.1744
   15CHL1    O3 1039   3.846   1.691   5.956  0.0459 -0.2766  0.1365
   15CHL1   H3' 1040   3.761   1.646   5.957  0.0791 -0.3934 -1.0332
   15CHL1    C4 1041   3.786   1.782   5.743 -0.4524  0.8558 -0.9244
   15CHL1   H4A 1042   3.698   1.715   5.732  0.4496 -0.4938 -0.3113
   15CHL1   H4B 1043   3.744   1.867   5.801 -0.3998  0.6785 -0.6250
   15CHL1    C5 1044   3.837   1.803   5.605 -0.4268  0.4584 -0.4343
   15CHL1    C6 1045   3.830   1.924   5.556  0.5644  0.1585  0.3699
   15CHL1    H6 1046   3.785   2.006   5.615  2.2074 -0.0869  2.0553
   15CHL1    C7 1047   3.879   1.969   5.422  0.0826 -0.4677  0.0095
   15CHL1   H7A 1048   3.813   2.049   5.382 -0.2134  0.0390  1.4525
   15CHL1   H7B 1049   3.976   2.021   5.440  0.1766 -0.7925  0.4489
   15CHL1    C8 1050   3.888   1.848   5.328 -0.1362 -0.9507  0.5265
   15CHL1    H8 1051   3.785   1.820   5.300 -0.4177  2.0163 -1.9464
   15CHL1   C14 1052   3.951   1.898   5.191  0.3378 -0.1040  0.1893
   15CHL1   H14 1053   4.051   1.938   5.218  0.7221 -0.1849 -1.0398
   15CHL1   C15 1054   3.879   2.005   5.108 -0.3288  0.2561 -0.8343
   15CHL1  H15A 1055   3.770   1.988   5.118 -0.3475  0.8709  0.1351
   15CHL1  H15B 1056   3.900   2.105   5.150 -2.0153  0.3546 -0.1688
   15CHL1   C16 1057   3.934   1.997   4.970 -0.0951  0.0773 -0.1460
   15CHL1  H16A 1058   3.846   1.990   4.902 -1.2446 -1.7741  1.4212
   15CHL1  H16B 1059   3.987   2.092   4.950 -2.0940  1.6986  1.8210
   15CHL1   C17 1060   4.025   1.874   4.967  0.7989  0.7410  0.1078
   15CHL1   H17 1061   4.126   1.913   4.992  1.5821 -1.7774  1.1624
   15CHL1   C13 1062   3.977   1.792   5.089 -0.5932  0.0835  0.4496
   15CHL1   C18 1063   3.861   1.705   5.041 -0.2068  0.0213  0.5435
   15CHL1  H18A 1064   3.799   1.645   5.110 -0.9191 -3.3305 -2.7328
   15CHL1  H18B 1065   3.792   1.766   4.979 -0.0220  0.1931  0.5047
   15CHL1  H18C 1066   3.907   1.627   4.977 -0.2189 -1.5016  2.3246
   15CHL1   C12 1067   4.080   1.695   5.160 -0.5681 -0.0662  0.3996
   15CHL1  H12A 1068   4.124   1.611   5.101  2.5634  3.0537 -2.1338
   15CHL1  H12B 1069   4.165   1.763   5.184 -0.1105  0.0086 -1.3322
   15CHL1   C11 1070   4.032   1.637   5.293 -0.0740  0.2241 -0.5308
   15CHL1  H11A 1071   3.957   1.558   5.267  0.2751 -0.2462 -0.1180
   15CHL1  H11B 1072   4.122   1.588   5.336  0.6068  0.3239 -1.8000
   15CHL1    C9 1073   3.974   1.740   5.391 -0.3802  0.0848 -0.6165
   15CHL1    H9 1074   4.064   1.802   5.412 -0.2431 -0.3474  0.1210
   15CHL1   C10 1075   3.912   1.693   5.532 -0.4951  0.4237  0.3605
   15CHL1   C19 1076   3.805   1.588   5.498  0.8253 -0.1990 -0.4715
   15CHL1  H19A 1077   3.743   1.566   5.588 -0.2673  0.8333 -0.9447
   15CHL1  H19B 1078   3.729   1.632   5.429  1.2415  1.8458  0.3130
   15CHL1  H19C 1079   3.847   1.492   5.461  1.8420  0.1299 -0.1918
   15CHL1    C1 1080   4.011   1.617   5.627  0.3466 -0.4054  0.6118
   15CHL1   H1A 1081   4.022   1.524   5.568 -1.5502  0.0246 -0.4875
   15CHL1   H1B 1082   4.106   1.675   5.626 -0.0127  0.1683 -0.1471
   15CHL1    C2 1083   3.960   1.590   5.769  0.4377  0.1826 -0.6892
   15CHL1   H2A 1084   4.046   1.568   5.836 -0.3094  1.7652  0.8803
   15CHL1   H2B 1085   3.890   1.504   5.766  0.5869 -0.1083  1.6860
   15CHL1   C20 1086   4.023   1.809   4.822 -0.7179 -0.4642 -0.1182
   15CHL1   H20 1087   3.933   1.746   4.802 -0.7392 -0.2819 -0.5863
   15CHL1   C21 1088   4.141   1.711   4.819 -0.9013 -0.1859 -0.5604
   15CHL1  H21A 1089   4.138   1.659   4.721 -2.9353  1.2527 -1.3391
   15CHL1  H21B 1090   4.123   1.636   4.899  1.1203 -1.2605 -1.0510
   15CHL1  H21C 1091   4.246   1.746   4.832 -0.9770 -0.5980  1.6822
   15CHL1   C22 1092   4.036   1.918   4.714  0.4846 -0.2678  0.5022
   15CHL1  H22A 1093   3.934   1.948   4.681 -0.9731 -2.9087  2.2427
   15CHL1  H22B 1094   4.091   2.009   4.744  0.5090 -0.6753  1.7744
   15CHL1   C23 1095   4.097   1.873   4.582  0.8285  0.0104 -0.0564
   15CHL1  H23A 1096   4.206   1.851   4.594  0.9521  1.0945  0.9714
   15CHL1  H23B 1097   4.050   1.781   4.542  1.1211  0.5482 -1.7239
   15CHL1   C24 1098   4.089   1.975   4.465 -0.3555  0.0192  0.1962
   15CHL1  H24A 1099   3.982   1.983   4.436 -0.8881  1.3923  2.2894
   15CHL1  H24B 1100   4.134   2.073   4.492 -0.8841  0.5136 -0.6861
   15CHL1   C25 1101   4.171   1.932   4.342 -0.5791  0.1685 -0.1816
   15CHL1   H25 1102   4.168   1.822   4.335 -0.2031  0.1796 -0.5286
   15CHL1   C26 1103   4.126   1.986   4.206  0.0025 -0.7919 -0.4029
   15CHL1  H26A 1104   4.185   1.950   4.120  1.0334  0.1003 -0.0863
   15CHL1  H26B 1105   4.019   1.960   4.187 -0.2767 -0.8639  1.1177
   15CHL1  H26C 1106   4.137   2.096   4.210  1.5134 -0.9561  1.5627
   15CHL1   C27 1107   4.319   1.974   4.363  0.3899  0.5592 -0.2743
   15CHL1  H27A 1108   4.370   1.909   4.288 -2.4212 -2.1538  0.0002
   15CHL1  H27B 1109   4.347   2.081   4.348  0.6864  0.1659 -3.2263
   15CHL1  H27C 1110   4.340   1.942   4.467 -1.0372 -0.9036 -0.3907
   16CHL1    C3 1111   2.359   0.983   5.629  0.2493 -0.3358  0.6512
   16CHL1    H3 1112   2.381   0.874   5.627  0.5838 -0.3361  2.7981
   16CHL1    O3 1113   2.393   1.040   5.754 -0.4083  0.5686 -0.2169
   16CHL1   H3' 1114   2.363   1.131   5.746 -1.3527  0.1751 -1.4002
   16CHL1    C4 1115   2.431   1.053   5.512 -0.8792  0.0110 -0.6410
   16CHL1   H4A 1116   2.409   1.162   5.521 -0.7756  0.0976 -1.3780
   16CHL1   H4B 1117   2.540   1.039   5.526 -1.3157 -2.1694  1.1275
   16CHL1    C5 1118   2.379   1.004   5.381 -0.4696  0.5269 -0.4081
   16CHL1    C6 1119   2.465   0.961   5.284 -0.3146  0.3172  0.9047
   16CHL1    H6 1120   2.573   0.954   5.306 -0.0978  0.7835  0.0267
   16CHL1    C7 1121   2.429   0.923   5.145 -0.1674  0.5019  0.1156
   16CHL1   H7A 1122   2.504   0.967   5.076  1.7533  0.9406  2.3425
   16CHL1   H7B 1123   2.429   0.814   5.127  1.2436  0.0830  2.2784
   16CHL1    C8 1124   2.282   0.983   5.114 -0.8618  0.6170 -0.3318
   16CHL1    H8 1125   2.298   1.093   5.112 -0.9777  0.7585  2.7509
   16CHL1   C14 1126   2.238   0.915   4.987  0.0845 -0.9411  0.0004
   16CHL1   H14 1127   2.242   0.805   5.002 -0.5794 -1.0995 -0.8511
   16CHL1   C15 1128   2.325   0.952   4.865  0.4164  0.1688 -0.5420
   16CHL1  H15A 1129   2.334   1.062   4.861  1.4847  0.1001 -0.1614
   16CHL1  H15B 1130   2.420   0.896   4.875 -0.4538 -1.0313  2.1773
   16CHL1   C16 1131   2.252   0.916   4.737 -0.6905 -0.3715  0.2992
   16CHL1  H16A 1132   2.257   1.001   4.665 -0.6166  0.1901  0.9574
   16CHL1  H16B 1133   2.291   0.823   4.691 -0.6041 -0.9701  1.5450
   16CHL1   C17 1134   2.102   0.896   4.791 -0.7212 -0.2433  0.3137
   16CHL1   H17 1135   2.088   0.787   4.805 -2.0978 -0.1526 -0.1914
   16CHL1   C13 1136   2.098   0.954   4.936 -0.9410 -0.5398  0.2905
   16CHL1   C18 1137   2.071   1.110   4.926  0.6253  0.8890 -0.2822
   16CHL1  H18A 1138   2.139   1.148   4.847  0.6554 -0.4805 -0.9421
   16CHL1  H18B 1139   1.964   1.128   4.903 -0.6609 -3.5334  1.2227
   16CHL1  H18C 1140   2.086   1.159   5.024  0.6091 -1.8157  1.1625
   16CHL1   C12 1141   2.010   0.887   5.046 -0.3046 -0.4147  0.1833
   16CHL1  H12A 1142   1.901   0.891   5.027 -0.6421  1.6050  2.1717
   16CHL1  H12B 1143   2.026   0.777   5.051  0.2051 -0.3938 -0.6718
   16CHL1   C11 1144   2.036   0.945   5.191  0.3610 -0.2216 -0.0512
   16CHL1  H11A 1145   2.016   1.054   5.192  2.3221  0.1872 -0.5505
   16CHL1  H11B 1146   1.963   0.899   5.261  0.0845 -0.3430 -0.4179
   16CHL1    C9 1147   2.188   0.945   5.231  0.3179  0.2115 -0.5251
   16CHL1    H9 1148   2.210   0.838   5.250 -0.4333 -0.0263 -0.9720
   16CHL1   C10 1149   2.231   1.017   5.366  0.5409 -0.0221  0.5655
   16CHL1   C19 1150   2.174   1.165   5.360  0.2139  0.3722  0.0909
   16CHL1  H19A 1151   2.229   1.238   5.423 -0.0431  0.2522  0.4625
   16CHL1  H19B 1152   2.174   1.210   5.259 -0.3111  1.8232  0.7140
   16CHL1  H19C 1153   2.067   1.166   5.390  0.3498 -0.1108  0.6296
   16CHL1    C1 1154   2.162   0.945   5.483  0.1788  0.1600 -0.4005
   16CHL1   H1A 1155   2.053   0.956   5.464  0.1933  0.8118 -0.1305
   16CHL1   H1B 1156   2.179   0.835   5.489  2.8901  0.5320 -0.1835
   16CHL1    C2 1157   2.207   0.993   5.620 -0.2024 -0.2126  0.1152
   16CHL1   H2A 1158   2.165   0.940   5.709 -0.1470  0.6788  0.6872
   16CHL1   H2B 1159   2.180   1.099   5.637 -2.9654 -0.6704 -0.8824
   16CHL1   C20 1160   2.000   0.956   4.686 -0.3409 -0.3662  0.1163
   16CHL1   H20 1161   2.015   1.066   4.675 -0.2944 -0.6815 -4.6495
   16CHL1   C21 1162   1.861   0.922   4.731 -0.1747 -0.0661 -0.2946
   16CHL1  H21A 1163   1.845   0.958   4.835  0.0015  0.0984 -0.3230
   16CHL1  H21B 1164   1.832   0.814   4.736  0.4531 -0.2821 -1.1383
   16CHL1  H21C 1165   1.778   0.965   4.672 -1.4886 -0.2218  1.3528
   16CHL1   C22 1166   2.021   0.892   4.547  0.0212 -0.6415 -0.1292
   16CHL1  H22A 1167   2.125   0.903   4.510  0.4824 -1.9241  0.7180
   16CHL1  H22B 1168   1.998   0.783   4.555 -0.0051 -0.5310  1.7478
   16CHL1   C23 1169   1.939   0.956   4.441 -0.8912  0.6567  0.5763
   16CHL1  H23A 1170   1.831   0.941   4.462 -1.5883  2.4931 -1.3991
   16CHL1  H23B 1171   1.956   1.065   4.438  2.4260  0.2318 -0.7672
   16CHL1   C24 1172   1.973   0.895   4.302  0.1240  0.3979  0.1378
   16CHL1  H24A 1173   2.083   0.897   4.285  0.3520 -0.5845  1.3161
   16CHL1  H24B 1174   1.944   0.788   4.303 -0.5896  0.5875  0.6368
   16CHL1   C25 1175   1.902   0.959   4.181 -0.2228 -0.0013 -0.8620
   16CHL1   H25 1176   1.935   1.065   4.176  0.5869 -0.3045 -2.5925
   16CHL1   C26 1177   1.938   0.902   4.044 -0.0057  0.2837  0.1428
   16CHL1  H26A 1178   1.893   0.801   4.032  2.1021 -0.6958  0.0289
   16CHL1  H26B 1179   1.901   0.967   3.962  1.9624  2.6664  1.0044
   16CHL1  H26C 1180   2.047   0.884   4.027 -0.1317  0.7317 -1.1881
   16CHL1   C27 1181   1.752   0.951   4.186  0.6088 -0.1299  0.4320
   16CHL1  H27A 1182   1.706   0.997   4.096 -0.0388  1.6889  1.6103
   16CHL1  H27B 1183   1.712   0.848   4.194  0.7399 -0.1717  0.5694
   16CHL1  H27C 1184   1.709   1.015   4.267  0.2278  0.5485 -0.2857
   17CHL1    C3 1185   3.588   5.795   6.071 -0.0687  0.7401  0.0456
   17CHL1    H3 1186   3.568   5.690   6.043  1.7900 -0.2070  1.9411
   17CHL1    O3 1187   3.579   5.813   6.207  0.3306 -0.2585 -0.3057
   17CHL1   H3' 1188   3.496   5.778   6.242  0.0083  1.0553  0.2946
   17CHL1    C4 1189   3.725   5.845   6.023 -0.3870 -0.3061  0.6581
   17CHL1   H4A 1190   3.733   5.950   6.057 -1.3651 -0.2372  0.6959
   17CHL1   H4B 1191   3.799   5.787   6.082  0.2073  0.4819  0.7062
   17CHL1    C5 1192   3.744   5.826   5.871 -0.2595  0.4437 -0.0418
   17CHL1    C6 1193   3.841   5.759   5.813 -0.3673  0.2200 -0.5062
   17CHL1    H6 1194   3.915   5.699   5.867 -0.3819 -1.1769 -1.9684
   17CHL1    C7 1195   3.861   5.753   5.659  0.3814 -0.3543 -1.2106
   17CHL1   H7A 1196   3.967   5.765   5.628  0.1499  0.5582 -1.7129
   17CHL1   H7B 1197   3.845   5.651   5.621  1.5017 -0.9575 -0.1447
   17CHL1    C8 1198   3.779   5.849   5.578 -0.4583 -0.1036  0.0462
   17CHL1    H8 1199   3.823   5.951   5.570 -1.8372  0.4309 -1.0939
   17CHL1   C14 1200   3.762   5.800   5.430 -0.5993 -0.0965  0.0100
   17CHL1   H14 1201   3.714   5.701   5.444 -0.1098 -0.2781  0.4380
   17CHL1   C15 1202   3.893   5.762   5.350 -0.0847  0.7354  0.0404
   17CHL1  H15A 1203   3.976   5.835   5.360 -0.4772  1.5387 -2.0455
   17CHL1  H15B 1204   3.913   5.665   5.400  0.6591  1.2837  0.8401
   17CHL1   C16 1205   3.855   5.754   5.204 -0.4514  0.0185 -0.0259
   17CHL1  H16A 1206   3.923   5.821   5.147 -0.9478  0.5069 -0.0565
   17CHL1  H16B 1207   3.858   5.653   5.160  0.4105 -1.4746  3.1518
   17CHL1   C17 1208   3.701   5.796   5.205 -0.6413 -0.2098 -0.8801
   17CHL1   H17 1209   3.649   5.698   5.212  1.4332 -1.4106 -1.5778
   17CHL1   C13 1210   3.677   5.881   5.334 -0.4124  0.7805  0.0236
   17CHL1   C18 1211   3.739   6.022   5.317  0.3728  0.0029  0.4571
   17CHL1  H18A 1212   3.849   6.016   5.303  0.3626 -1.2565  0.7936
   17CHL1  H18B 1213   3.685   6.071   5.234  0.1628  1.3374  1.3535
   17CHL1  H18C 1214   3.709   6.083   5.405  1.6930  0.5018  0.5794
   17CHL1   C12 1215   3.542   5.887   5.405  0.0934  0.1083 -0.0002
   17CHL1  H12A 1216   3.470   5.951   5.349  2.1443  3.2074  0.7034
   17CHL1  H12B 1217   3.506   5.782   5.410  2.1974 -0.6155  1.5258
   17CHL1   C11 1218   3.542   5.934   5.549 -0.1625 -0.6335 -1.0453
   17CHL1  H11A 1219   3.577   6.040   5.550  0.6142 -0.8524  0.9952
   17CHL1  H11B 1220   3.440   5.938   5.593  0.3091  0.4293  0.0217
   17CHL1    C9 1221   3.641   5.859   5.637  0.1266 -0.3698 -1.0993
   17CHL1    H9 1222   3.591   5.760   5.646  0.1497 -0.2743  0.4113
   17CHL1   C10 1223   3.636   5.898   5.791 -0.7324 -0.4586  0.5854
   17CHL1   C19 1224   3.671   6.052   5.805  0.1483 -0.1898 -0.0977
   17CHL1  H19A 1225   3.665   6.075   5.914 -0.1027 -3.2277  0.6231
   17CHL1  H19B 1226   3.771   6.082   5.768  0.2902  3.2796  2.5469
   17CHL1  H19C 1227   3.597   6.114   5.751  0.5041  1.5866  1.3528
   17CHL1    C1 1228   3.495   5.853   5.847  0.0317 -0.3083 -0.2905
   17CHL1   H1A 1229   3.424   5.925   5.800  1.1003  0.6796 -0.4239
   17CHL1   H1B 1230   3.462   5.756   5.804 -1.1204  0.3164 -0.8664
   17CHL1    C2 1231   3.473   5.870   5.998  0.1573  0.6823  0.2592
   17CHL1   H2A 1232   3.372   5.839   6.031 -0.4685  2.1828 -0.1851
   17CHL1   H2B 1233   3.487   5.973   6.038 -0.7986  1.2653 -0.8688
   17CHL1   C20 1234   3.648   5.854   5.073 -0.3799 -0.0003  0.2791
   17CHL1   H20 1235   3.686   5.958   5.064  0.4732 -0.3119  0.2098
   17CHL1   C21 1236   3.499   5.849   5.079 -0.4984  0.2552  0.7142
   17CHL1  H21A 1237   3.448   5.933   5.131 -0.0000  0.7222  0.4552
   17CHL1  H21B 1238   3.466   5.757   5.132 -1.0915 -0.2423 -0.4690
   17CHL1  H21C 1239   3.450   5.841   4.979  0.0129 -2.0647  0.5982
   17CHL1   C22 1240   3.702   5.784   4.943  0.3985  0.3034 -0.4753
   17CHL1  H22A 1241   3.810   5.757   4.952  0.7529  2.3238  3.2521
   17CHL1  H22B 1242   3.648   5.687   4.930 -0.2340  0.6997 -0.8635
   17CHL1   C23 1243   3.669   5.868   4.818  0.6012  0.2960  0.2389
   17CHL1  H23A 1244   3.563   5.881   4.786  0.3599 -0.7272  0.5928
   17CHL1  H23B 1245   3.714   5.967   4.840 -0.9559  0.9877  0.4426
   17CHL1   C24 1246   3.744   5.830   4.684  0.6880 -0.7649 -0.0621
   17CHL1  H24A 1247   3.699   5.894   4.606 -0.2627 -0.6178  0.5878
   17CHL1  H24B 1248   3.845   5.865   4.715  1.4614 -1.3072 -1.8621
   17CHL1   C25 1249   3.730   5.685   4.635 -0.0998 -0.9829  0.4128
   17CHL1   H25 1250   3.785   5.619   4.706  1.5645  1.9921  2.0845
   17CHL1   C26 1251   3.583   5.648   4.623 -1.1114  0.7641  0.4752
   17CHL1  H26A 1252   3.529   5.727   4.566  2.3316  2.0663 -1.2563
   17CHL1  H26B 1253   3.563   5.547   4.582 -2.3020  0.8901  0.6988
   17CHL1  H26C 1254   3.543   5.648   4.727 -1.1793  2.0140  0.4647
   17CHL1   C27 1255   3.791   5.660   4.497 -0.4863  0.6099  0.0917
   17CHL1  H27A 1256   3.734   5.716   4.420 -3.8547 -1.5299  0.8074
   17CHL1  H27B 1257   3.897   5.692   4.495 -0.7419  1.4885 -0.0388
   17CHL1  H27C 1258   3.785   5.554   4.465 -1.1753  0.4748  0.6277
   18CHL1    C3 1259   4.934   6.850   5.681 -0.0508 -0.3488 -0.2819
   18CHL1    H3 1260   4.974   6.748   5.699 -2.7729 -1.2578  1.1554
   18CHL1    O3 1261   4.936   6.920   5.805 -0.5280  0.0584 -0.3170
   18CHL1   H3' 1262   4.848   6.900   5.836 -0.2744 -0.7882 -0.1091
   18CHL1    C4 1263   5.012   6.929   5.578  0.1288 -0.0842 -0.6784
   18CHL1   H4A 1264   4.974   7.033   5.584 -1.3421 -0.6301 -0.0768
   18CHL1   H4B 1265   5.116   6.943   5.615 -0.0068  2.7448 -1.1957
   18CHL1    C5 1266   5.004   6.885   5.433  0.5735  0.4560 -0.1822
   18CHL1    C6 1267   5.117   6.849   5.370  1.1442  0.1069  0.2052
   18CHL1    H6 1268   5.212   6.867   5.422  1.4354 -0.4894 -0.1073
   18CHL1    C7 1269   5.113   6.789   5.233 -0.0290  0.8969 -0.7495
   18CHL1   H7A 1270   5.192   6.836   5.170  2.4023  0.1373  1.5555
   18CHL1   H7B 1271   5.139   6.682   5.242  2.5773  1.4347 -1.1321
   18CHL1    C8 1272   4.976   6.814   5.157 -0.4588 -0.0780  1.0182
   18CHL1    H8 1273   4.963   6.923   5.140 -0.9598 -0.2277  0.4293
   18CHL1   C14 1274   4.982   6.735   5.030  0.4475 -0.1818  0.3143
   18CHL1   H14 1275   4.977   6.631   5.069 -2.3422 -0.1799  0.1747
   18CHL1   C15 1276   5.106   6.740   4.932 -0.4359  0.3418  0.1381
   18CHL1  H15A 1277   5.142   6.844   4.922  0.1405 -0.0214 -2.2550
   18CHL1  H15B 1278   5.184   6.665   4.958 -0.6900 -0.4441 -1.2560
   18CHL1   C16 1279   5.045   6.693   4.798 -0.1272  0.3087 -0.8569
   18CHL1  H16A 1280   5.043   6.781   4.731 -1.4251  0.6679 -0.3745
   18CHL1  H16B 1281   5.100   6.611   4.747 -1.5713  0.3325 -2.5441
   18CHL1   C17 1282   4.897   6.654   4.830  0.2994 -0.4813  0.3191
   18CHL1   H17 1283   4.911   6.554   4.876  2.9756 -0.6497 -0.6859
   18CHL1   C13 1284   4.856   6.747   4.949  0.5173  0.5404  0.7163
   18CHL1   C18 1285   4.841   6.887   4.887 -0.1146  0.4472 -0.1613
   18CHL1  H18A 1286   4.815   6.962   4.965  0.2980 -0.2568  0.6720
   18CHL1  H18B 1287   4.926   6.915   4.821 -1.4122  0.2671 -1.9811
   18CHL1  H18C 1288   4.756   6.881   4.815  0.2928  2.6023 -0.9112
   18CHL1   C12 1289   4.734   6.702   5.030 -0.4381 -0.4480  0.5134
   18CHL1  H12A 1290   4.638   6.729   4.980  0.0592 -0.5113 -0.4924
   18CHL1  H12B 1291   4.739   6.592   5.036 -0.4377 -0.5125 -0.5509
   18CHL1   C11 1292   4.731   6.756   5.180  0.5864 -0.7506 -0.8108
   18CHL1  H11A 1293   4.695   6.860   5.167 -0.1638 -1.0356 -1.0176
   18CHL1  H11B 1294   4.658   6.702   5.243 -0.5057  0.0726 -1.3456
   18CHL1    C9 1295   4.864   6.772   5.248  0.5913 -0.2290 -0.1514
   18CHL1    H9 1296   4.888   6.672   5.290  1.1639  0.6597  1.7734
   18CHL1   C10 1297   4.858   6.858   5.382 -0.6398  0.3068  0.1646
   18CHL1   C19 1298   4.795   6.994   5.351  0.7293 -0.5334  0.6458
   18CHL1  H19A 1299   4.826   7.070   5.425  1.9053  0.1798 -0.5409
   18CHL1  H19B 1300   4.830   7.027   5.251  0.2487 -0.1494  0.6002
   18CHL1  H19C 1301   4.685   7.002   5.340  0.7075 -0.9530  0.5155
   18CHL1    C1 1302   4.778   6.780   5.490 -0.1730 -0.1434  0.8346
   18CHL1   H1A 1303   4.670   6.770   5.467  0.0517 -0.6473 -0.0714
   18CHL1   H1B 1304   4.816   6.676   5.502 -0.7417 -0.4114  0.3960
   18CHL1    C2 1305   4.789   6.842   5.627 -0.0731  0.0450 -0.3040
   18CHL1   H2A 1306   4.730   6.783   5.700 -0.2163 -1.0627 -1.2766
   18CHL1   H2B 1307   4.745   6.944   5.623  0.0969  0.2463  1.9108
   18CHL1   C20 1308   4.821   6.643   4.702 -0.2154  0.5530 -0.0373
   18CHL1   H20 1309   4.827   6.744   4.657  0.5747  0.9673  0.9575
   18CHL1   C21 1310   4.678   6.589   4.718  0.0682  0.0634  0.2261
   18CHL1  H21A 1311   4.629   6.532   4.636 -3.1487  2.1387  0.5217
   18CHL1  H21B 1312   4.619   6.679   4.745 -2.0023 -0.9897 -0.5841
   18CHL1  H21C 1313   4.691   6.513   4.798  1.0932 -2.3703 -2.1072
   18CHL1   C22 1314   4.888   6.558   4.586  0.1295  0.2191  0.6415
   18CHL1  H22A 1315   4.988   6.602   4.568  0.6367 -1.8593 -2.3670
   18CHL1  H22B 1316   4.902   6.448   4.600  1.1895  0.2002 -0.4801
   18CHL1   C23 1317   4.825   6.591   4.447  0.6158  0.3887 -0.3705
   18CHL1  H23A 1318   4.721   6.552   4.457 -0.1035  2.5792  1.4690
   18CHL1  H23B 1319   4.823   6.702   4.444 -3.1202  0.4610 -0.4755
   18CHL1   C24 1320   4.894   6.516   4.334 -0.3974 -0.2028  0.3210
   18CHL1  H24A 1321   5.004   6.511   4.350 -0.2456 -0.9628 -0.8721
   18CHL1  H24B 1322   4.856   6.412   4.340  0.6460 -0.7543 -1.7680
   18CHL1   C25 1323   4.859   6.558   4.192  0.2274  0.1676  0.2875
   18CHL1   H25 1324   4.919   6.491   4.127 -0.7845 -2.3275  1.7922
   18CHL1   C26 1325   4.708   6.548   4.171  0.1012 -0.1119  0.3828
   18CHL1  H26A 1326   4.679   6.445   4.199  2.7664 -0.8523  0.6729
   18CHL1  H26B 1327   4.660   6.632   4.228  2.3876  0.1451  2.0536
   18CHL1  H26C 1328   4.693   6.574   4.064 -0.6266 -0.2725  0.4374
   18CHL1   C27 1329   4.902   6.706   4.169  0.0804 -0.1115 -0.0619
   18CHL1  H27A 1330   5.009   6.717   4.195  0.7164 -2.1905 -1.5499
   18CHL1  H27B 1331   4.889   6.733   4.062 -0.0380 -0.2249 -0.0770
   18CHL1  H27C 1332   4.842   6.776   4.232 -0.2369  0.0805 -0.5720
   19CHL1    C3 1333   3.779   5.280   6.092 -0.5385  0.0756 -0.1147
   19CHL1    H3 1334   3.854   5.198   6.099 -1.4234 -0.6715  0.9931
   19CHL1    O3 1335   3.759   5.318   6.228  0.0210  0.4670  0.0171
   19CHL1   H3' 1336   3.774   5.412   6.236 -0.0325  0.4617  0.1841
   19CHL1    C4 1337   3.839   5.399   6.001 -1.0888  0.4136  0.0317
   19CHL1   H4A 1338   3.768   5.482   6.025  0.5917  1.3613  2.1190
   19CHL1   H4B 1339   3.938   5.438   6.034 -0.3711 -0.9059 -0.5214
   19CHL1    C5 1340   3.850   5.377   5.857 -0.1359  0.1693  0.0035
   19CHL1    C6 1341   3.957   5.395   5.779  0.1354  0.1283 -1.3873
   19CHL1    H6 1342   4.049   5.431   5.829 -0.0115  3.3070 -3.1562
   19CHL1    C7 1343   3.953   5.376   5.631 -0.8597 -0.1272  0.3150
   19CHL1   H7A 1344   4.002   5.468   5.595 -0.4737  0.4737  2.2302
   19CHL1   H7B 1345   4.019   5.292   5.601 -1.0579  0.3981 -1.6916
   19CHL1    C8 1346   3.817   5.353   5.567  0.0239  0.9689  0.2888
   19CHL1    H8 1347   3.768   5.450   5.545 -2.7932 -0.4347 -0.0133
   19CHL1   C14 1348   3.842   5.281   5.433  0.9329  0.0878 -0.1660
   19CHL1   H14 1349   3.881   5.180   5.457 -0.4800 -0.1917  1.1493
   19CHL1   C15 1350   3.935   5.356   5.332  0.4399 -0.4711  0.5268
   19CHL1  H15A 1351   3.928   5.467   5.335  3.1135 -0.2033 -0.7586
   19CHL1  H15B 1352   4.041   5.349   5.362  1.3624  1.3318 -1.9572
   19CHL1   C16 1353   3.908   5.292   5.201 -0.0395  0.2582 -0.3892
   19CHL1  H16A 1354   3.894   5.370   5.123 -2.9251 -0.0348 -0.2352
   19CHL1  H16B 1355   3.985   5.216   5.171  0.7223  0.6175  0.6061
   19CHL1   C17 1356   3.785   5.206   5.227 -0.1916  0.0554  0.0974
   19CHL1   H17 1357   3.840   5.112   5.252 -0.4270 -0.1936 -0.3108
   19CHL1   C13 1358   3.716   5.260   5.349  0.5170  0.4508 -0.5166
   19CHL1   C18 1359   3.639   5.388   5.324 -0.3391 -0.2549 -0.3996
   19CHL1  H18A 1360   3.553   5.362   5.258 -0.3932 -0.4125 -0.2672
   19CHL1  H18B 1361   3.607   5.447   5.413  1.2074  0.1733 -0.0966
   19CHL1  H18C 1362   3.704   5.460   5.269 -0.5359  0.1544 -0.1075
   19CHL1   C12 1363   3.629   5.157   5.433  0.1931 -0.7603  0.1015
   19CHL1  H12A 1364   3.533   5.167   5.378 -1.3522  0.8640  2.8523
   19CHL1  H12B 1365   3.671   5.055   5.442  0.0405 -0.9079 -0.7303
   19CHL1   C11 1366   3.611   5.213   5.577  0.2954 -0.3773  0.8119
   19CHL1  H11A 1367   3.538   5.297   5.569 -0.6293 -1.3401 -1.6965
   19CHL1  H11B 1368   3.549   5.135   5.627 -2.9523  1.0397 -0.7103
   19CHL1    C9 1369   3.737   5.252   5.658  0.3596 -0.1515  1.0227
   19CHL1    H9 1370   3.802   5.162   5.668 -0.6475 -0.7788  2.2951
   19CHL1   C10 1371   3.715   5.314   5.797  0.3972 -0.1442 -0.6481
   19CHL1   C19 1372   3.604   5.430   5.796  0.2422 -0.1539  0.2892
   19CHL1  H19A 1373   3.586   5.478   5.894  0.1529  1.6178 -0.5552
   19CHL1  H19B 1374   3.635   5.508   5.724 -0.2160 -1.0903 -0.9626
   19CHL1  H19C 1375   3.512   5.374   5.765  0.6245 -0.9438  0.5508
   19CHL1    C1 1376   3.659   5.196   5.883 -0.2131  0.2517  0.4799
   19CHL1   H1A 1377   3.552   5.177   5.858 -0.1803 -0.1477  0.6334
   19CHL1   H1B 1378   3.710   5.101   5.857  1.0664  1.2916 -1.0582
   19CHL1    C2 1379   3.654   5.215   6.034 -0.1609 -0.1244 -0.2962
   19CHL1   H2A 1380   3.633   5.119   6.085 -2.1100 -0.0329 -0.8690
   19CHL1   H2B 1381   3.568   5.283   6.050  0.4506  0.8234 -0.9558
   19CHL1   C20 1382   3.699   5.188   5.101  0.5848  0.1198 -0.2199
   19CHL1   H20 1383   3.624   5.268   5.088  1.0479  0.7726  0.9165
   19CHL1   C21 1384   3.637   5.051   5.114  0.9897  0.2323 -0.5318
   19CHL1  H21A 1385   3.602   5.036   5.218 -0.6049 -1.5538 -1.2760
   19CHL1  H21B 1386   3.709   4.973   5.082 -2.0768 -1.8924 -2.7762
   19CHL1  H21C 1387   3.554   5.061   5.041  2.8683  0.8887 -2.6879
   19CHL1   C22 1388   3.785   5.195   4.974 -0.5330  0.1103  0.2768
   19CHL1  H22A 1389   3.814   5.302   4.959 -2.5269  0.6831  0.2688
   19CHL1  H22B 1390   3.875   5.131   4.973 -1.5951 -1.6696 -3.9214
   19CHL1   C23 1391   3.717   5.164   4.839  0.2619  1.1952  0.6970
   19CHL1  H23A 1392   3.706   5.053   4.843  2.7197  0.8779  0.0922
   19CHL1  H23B 1393   3.613   5.203   4.829 -0.4742 -0.5819  0.9702
   19CHL1   C24 1394   3.794   5.220   4.722 -0.7776 -0.0146  0.3205
   19CHL1  H24A 1395   3.770   5.329   4.720 -0.8592 -0.0437 -0.9778
   19CHL1  H24B 1396   3.902   5.196   4.733 -0.7640  0.4470  1.4133
   19CHL1   C25 1397   3.755   5.152   4.587  0.0946  0.3039  0.2444
   19CHL1   H25 1398   3.768   5.043   4.604  0.0392  0.3841  0.8050
   19CHL1   C26 1399   3.607   5.178   4.550  0.0373  0.2273  0.3019
   19CHL1  H26A 1400   3.572   5.280   4.578 -2.2589 -0.6120  0.7154
   19CHL1  H26B 1401   3.595   5.173   4.440  0.2382  0.2293  0.2792
   19CHL1  H26C 1402   3.540   5.111   4.609  0.4878 -0.1762  0.3634
   19CHL1   C27 1403   3.847   5.191   4.470  0.5962 -0.6685  0.0498
   19CHL1  H27A 1404   3.833   5.293   4.429  2.2422 -0.3482  0.2286
   19CHL1  H27B 1405   3.951   5.175   4.506  0.4070 -3.4717 -0.3958
   19CHL1  H27C 1406   3.833   5.126   4.381  0.0027  0.2561 -0.5523
   20CHL1    C3 1407   1.565   0.789   5.536  0.1328 -0.9802 -0.0200
   20CHL1    H3 1408   1.614   0.833   5.446  0.9523 -1.1510  0.3347
   20CHL1    O3 1409   1.539   0.893   5.623 -0.4144 -0.3083 -0.8365
   20CHL1   H3' 1410   1.619   0.917   5.670 -1.9780  4.1319  0.1356
   20CHL1    C4 1411   1.440   0.729   5.490 -0.0395  0.3524  0.4257
   20CHL1   H4A 1412   1.385   0.701   5.583  0.2039 -0.7258  0.2559
   20CHL1   H4B 1413   1.383   0.807   5.435 -0.6749 -0.7444 -0.4985
   20CHL1    C5 1414   1.452   0.599   5.411 -0.1880  0.4838  0.5130
   20CHL1    C6 1415   1.392   0.592   5.291 -0.9553 -0.3362 -0.6485
   20CHL1    H6 1416   1.337   0.685   5.269  0.9944  1.7872  2.5631
   20CHL1    C7 1417   1.389   0.483   5.194 -0.2588 -0.2769  0.9621
   20CHL1   H7A 1418   1.283   0.458   5.171 -0.6110  1.7941  0.0002
   20CHL1   H7B 1419   1.447   0.508   5.102 -1.9698 -2.3401 -0.7872
   20CHL1    C8 1420   1.457   0.358   5.248 -0.1198  0.0007 -0.6092
   20CHL1    H8 1421   1.380   0.307   5.310  1.4841 -0.5987  0.9782
   20CHL1   C14 1422   1.505   0.267   5.137  0.2775  0.2458  0.0986
   20CHL1   H14 1423   1.582   0.321   5.077  1.8866 -1.0828  0.8923
   20CHL1   C15 1424   1.398   0.215   5.025 -0.3184  0.0294 -0.2456
   20CHL1  H15A 1425   1.320   0.167   5.088  1.7639 -0.9608  1.6989
   20CHL1  H15B 1426   1.352   0.300   4.969  2.1964  0.5340 -1.6626
   20CHL1   C16 1427   1.473   0.112   4.952  0.4474  0.2623  0.0353
   20CHL1  H16A 1428   1.406   0.023   4.942  0.6474  0.2591 -1.5550
   20CHL1  H16B 1429   1.506   0.134   4.848 -1.0457 -1.5004 -0.8913
   20CHL1   C17 1430   1.595   0.071   5.036  0.1718 -0.5857 -0.2379
   20CHL1   H17 1431   1.682   0.116   4.983 -1.4502  0.2977 -2.2604
   20CHL1   C13 1432   1.576   0.140   5.176  0.3156 -0.1821 -0.1792
   20CHL1   C18 1433   1.483   0.050   5.256  0.5770  0.1947  0.1438
   20CHL1  H18A 1434   1.444   0.100   5.347  1.1409 -0.1561  0.5922
   20CHL1  H18B 1435   1.390   0.015   5.206 -0.3603  1.6378  0.8178
   20CHL1  H18C 1436   1.528  -0.049   5.282 -2.5846 -1.8593 -1.6004
   20CHL1   C12 1437   1.697   0.177   5.256 -0.2495  0.1233  0.0068
   20CHL1  H12A 1438   1.737   0.081   5.295 -3.5475 -0.9560  1.0806
   20CHL1  H12B 1439   1.770   0.211   5.181  0.1919 -2.8730 -1.0684
   20CHL1   C11 1440   1.659   0.269   5.378 -0.9635  0.2344 -0.0250
   20CHL1  H11A 1441   1.604   0.205   5.449  0.1708 -0.9491 -0.1738
   20CHL1  H11B 1442   1.746   0.315   5.430 -0.3617 -0.3946 -0.4584
   20CHL1    C9 1443   1.582   0.389   5.329 -0.0139 -0.6997  0.0275
   20CHL1    H9 1444   1.652   0.446   5.264 -0.5667 -1.0430 -0.8797
   20CHL1   C10 1445   1.551   0.488   5.454 -0.6469  0.0469 -0.5895
   20CHL1   C19 1446   1.486   0.405   5.568 -0.0389 -0.2479 -0.5826
   20CHL1  H19A 1447   1.481   0.476   5.653 -2.6280  1.6896 -2.1891
   20CHL1  H19B 1448   1.384   0.370   5.541 -1.7817  4.8513 -1.7858
   20CHL1  H19C 1449   1.551   0.326   5.612  0.5880  0.9738  0.7612
   20CHL1    C1 1450   1.668   0.563   5.505 -0.4029 -0.3483 -0.1603
   20CHL1   H1A 1451   1.736   0.494   5.561  0.1798  0.1588 -0.2321
   20CHL1   H1B 1452   1.728   0.602   5.420  1.9453  0.5917  1.8051
   20CHL1    C2 1453   1.653   0.679   5.604  0.3557 -0.0539 -0.6720
   20CHL1   H2A 1454   1.752   0.716   5.636 -0.2239 -0.2459  1.4751
   20CHL1   H2B 1455   1.604   0.639   5.695  0.0421  1.0269 -0.3459
   20CHL1   C20 1456   1.627  -0.085   5.026  0.4535 -0.0957  0.0306
   20CHL1   H20 1457   1.548  -0.145   5.076 -0.3493  2.5401  2.2309
   20CHL1   C21 1458   1.749  -0.126   5.095 -0.8583 -0.1485 -0.7591
   20CHL1  H21A 1459   1.783  -0.229   5.073  0.6842  0.4569 -1.3853
   20CHL1  H21B 1460   1.751  -0.103   5.204 -1.0400  0.0633 -0.8007
   20CHL1  H21C 1461   1.829  -0.053   5.067  1.4254 -1.0945  2.6412
   20CHL1   C22 1462   1.625  -0.142   4.877 -0.3110  0.1939  0.5923
   20CHL1  H22A 1463   1.624  -0.253   4.880  0.6323 -0.0186 -2.6196
   20CHL1  H22B 1464   1.524  -0.118   4.838 -0.9495 -1.5215  1.1343
   20CHL1   C23 1465   1.726  -0.101   4.763 -0.4421  0.1476  0.2572
   20CHL1  H23A 1466   1.713   0.007   4.742 -1.6283  0.1382  0.8723
   20CHL1  H23B 1467   1.832  -0.125   4.784 -0.1150 -0.7525 -2.0688
   20CHL1   C24 1468   1.694  -0.167   4.627 -0.1568  0.0282  0.5348
   20CHL1  H24A 1469   1.657  -0.272   4.638  2.7677 -1.2699 -0.8741
   20CHL1  H24B 1470   1.607  -0.117   4.581 -0.0164 -1.9084 -2.0721
   20CHL1   C25 1471   1.796  -0.166   4.509 -0.6963 -0.4750  0.3565
   20CHL1   H25 1472   1.890  -0.205   4.553 -0.9050 -0.8240  0.4909
   20CHL1   C26 1473   1.750  -0.263   4.396 -0.1182 -0.9191  0.2235
   20CHL1  H26A 1474   1.662  -0.244   4.331  1.2895  2.0224 -1.0000
   20CHL1  H26B 1475   1.826  -0.281   4.316 -2.0401 -2.9219 -1.2789
   20CHL1  H26C 1476   1.748  -0.365   4.440  0.5130 -1.5801 -1.1966
   20CHL1   C27 1477   1.816  -0.023   4.451 -0.2812  0.7055 -0.6723
   20CHL1  H27A 1478   1.863   0.039   4.530 -2.6287 -1.4366  2.6745
   20CHL1  H27B 1479   1.885  -0.020   4.364  0.5639  0.7047 -0.0109
   20CHL1  H27C 1480   1.723   0.025   4.412 -0.1190 -1.0813 -3.5328
   21CHL1    C3 1481   0.703   1.831   5.768 -0.4439 -0.1731  0.2222
   21CHL1    H3 1482   0.616   1.898   5.750  0.2851 -0.0829 -3.8910
   21CHL1    O3 1483   0.740   1.834   5.904  0.6472  0.1118 -0.0263
   21CHL1   H3' 1484   0.746   1.747   5.943  2.0582  0.4499  0.5823
   21CHL1    C4 1485   0.656   1.690   5.737  0.3013  0.0494 -0.1535
   21CHL1   H4A 1486   0.743   1.623   5.753  0.4591  0.0403 -1.0032
   21CHL1   H4B 1487   0.582   1.661   5.814  2.1195 -1.8518  0.9726
   21CHL1    C5 1488   0.622   1.667   5.593  0.0033  0.5193  0.5180
   21CHL1    C6 1489   0.501   1.623   5.555 -0.3324 -0.1463  0.9187
   21CHL1    H6 1490   0.427   1.598   5.633 -0.8153 -1.4696  0.0656
   21CHL1    C7 1491   0.465   1.588   5.413 -0.5783  0.4318  0.2143
   21CHL1   H7A 1492   0.408   1.495   5.395 -1.3878  1.1548 -1.0963
   21CHL1   H7B 1493   0.387   1.657   5.375 -1.3866 -1.6605 -2.2346
   21CHL1    C8 1494   0.585   1.587   5.320  0.6897  0.1628  0.8052
   21CHL1    H8 1495   0.638   1.491   5.340 -0.8697 -1.1941 -1.1790
   21CHL1   C14 1496   0.543   1.583   5.172  0.4453  0.3702  0.2498
   21CHL1   H14 1497   0.503   1.686   5.160 -2.3899 -0.2577  2.9593
   21CHL1   C15 1498   0.435   1.478   5.129  0.3397 -0.3738  0.0707
   21CHL1  H15A 1499   0.456   1.385   5.185 -0.7631 -0.1880  0.8274
   21CHL1  H15B 1500   0.331   1.508   5.156  0.9944  0.9178  1.3157
   21CHL1   C16 1501   0.458   1.460   4.977  0.2384  0.7056 -0.1000
   21CHL1  H16A 1502   0.471   1.354   4.945  1.1901  0.5787  0.6575
   21CHL1  H16B 1503   0.367   1.488   4.921 -1.1668 -1.7921  0.7850
   21CHL1   C17 1504   0.577   1.552   4.940 -0.5857  0.0108  0.0128
   21CHL1   H17 1505   0.532   1.651   4.914 -0.9669 -0.0878  0.2778
   21CHL1   C13 1506   0.658   1.567   5.077  0.6444 -0.4277 -0.6723
   21CHL1   C18 1507   0.735   1.434   5.101  0.3468 -0.1877 -0.5431
   21CHL1  H18A 1508   0.802   1.436   5.189 -0.4765 -0.6831  0.1066
   21CHL1  H18B 1509   0.672   1.344   5.110 -0.0049  0.2083  1.4731
   21CHL1  H18C 1510   0.796   1.414   5.010 -0.3944  0.5816 -1.2315
   21CHL1   C12 1511   0.735   1.699   5.094 -0.6435  0.2032  0.0667
   21CHL1  H12A 1512   0.813   1.714   5.017 -1.9738  3.9632 -0.8008
   21CHL1  H12B 1513   0.665   1.782   5.070 -0.1880  0.4024 -0.5905
   21CHL1   C11 1514   0.797   1.715   5.231 -0.9834 -0.3398  1.0010
   21CHL1  H11A 1515   0.867   1.631   5.250  1.2458  1.1577 -0.0847
   21CHL1  H11B 1516   0.854   1.810   5.241  1.1848 -1.0665 -2.7545
   21CHL1    C9 1517   0.684   1.702   5.344  0.0155 -0.0428  0.5022
   21CHL1    H9 1518   0.627   1.793   5.315  1.6291  1.7359  2.5718
   21CHL1   C10 1519   0.731   1.710   5.491 -0.2165 -0.7050  0.0626
   21CHL1   C19 1520   0.860   1.627   5.507 -0.0687  0.5826 -0.4918
   21CHL1  H19A 1521   0.895   1.627   5.613  0.8472  0.8760 -0.7817
   21CHL1  H19B 1522   0.836   1.522   5.481  1.0236  0.2858 -0.3688
   21CHL1  H19C 1523   0.943   1.665   5.445  1.4102 -2.6967 -0.7196
   21CHL1    C1 1524   0.772   1.855   5.522 -0.3364  0.0978  0.1406
   21CHL1   H1A 1525   0.852   1.888   5.453 -0.6262 -0.8446 -0.6672
   21CHL1   H1B 1526   0.680   1.916   5.506 -0.1599  0.0529 -1.1345
   21CHL1    C2 1527   0.814   1.871   5.669 -0.0380 -0.0412 -0.0367
   21CHL1   H2A 1528   0.851   1.973   5.689 -0.0137 -0.1396  0.4181
   21CHL1   H2B 1529   0.900   1.804   5.691  1.4302  0.9782 -2.2218
   21CHL1   C20 1530   0.642   1.499   4.813  0.3477 -0.3533  0.5196
   21CHL1   H20 1531   0.683   1.397   4.833  0.5582 -1.0069 -2.5882
   21CHL1   C21 1532   0.758   1.598   4.774 -0.0849  0.4394  0.2690
   21CHL1  H21A 1533   0.721   1.702   4.774  1.5335  1.0476 -0.9603
   21CHL1  H21B 1534   0.792   1.563   4.674  0.8777 -0.7857  0.9948
   21CHL1  H21C 1535   0.842   1.592   4.846 -0.1682  2.0024  0.5296
   21CHL1   C22 1536   0.549   1.476   4.696 -0.0722  0.4892 -0.0403
   21CHL1  H22A 1537   0.455   1.425   4.724 -0.3671  1.4965  0.8394
   21CHL1  H22B 1538   0.512   1.570   4.650 -0.6867  0.9668  1.3644
   21CHL1   C23 1539   0.608   1.400   4.577 -0.2368  0.0931  0.2965
   21CHL1  H23A 1540   0.684   1.470   4.536 -1.1326  1.0265  0.1949
   21CHL1  H23B 1541   0.666   1.310   4.606  0.8209  0.4863 -0.5537
   21CHL1   C24 1542   0.512   1.376   4.462  0.2038 -0.2418  0.1885
   21CHL1  H24A 1543   0.414   1.329   4.485  0.1666 -0.8875 -1.2333
   21CHL1  H24B 1544   0.480   1.479   4.436  0.0240 -0.1482  0.7693
   21CHL1   C25 1545   0.586   1.314   4.345  0.0898 -0.3434 -0.4001
   21CHL1   H25 1546   0.640   1.227   4.389  1.5226 -0.0747 -1.5551
   21CHL1   C26 1547   0.483   1.264   4.238 -0.3995  1.0570 -0.1811
   21CHL1  H26A 1548   0.430   1.173   4.272  1.5073 -0.1739 -0.3442
   21CHL1  H26B 1549   0.405   1.340   4.218 -2.4172 -0.7011  0.5679
   21CHL1  H26C 1550   0.531   1.223   4.147 -1.7128  1.1095 -0.9139
   21CHL1   C27 1551   0.684   1.408   4.281 -0.6435 -0.2088 -0.2312
   21CHL1  H27A 1552   0.753   1.452   4.355 -1.2519  0.9148 -0.3210
   21CHL1  H27B 1553   0.766   1.360   4.224  1.7218  0.4286  2.4298
   21CHL1  H27C 1554   0.636   1.486   4.218  1.2241 -0.2335 -1.7697
   22CHL1    C3 1555   0.525   4.005   5.784 -0.1630  0.3909 -0.0311
   22CHL1    H3 1556   0.634   4.017   5.796 -0.3777  4.4905 -0.7592
   22CHL1    O3 1557   0.472   3.987   5.913 -0.1842 -0.3192 -0.1352
   22CHL1   H3' 1558   0.462   3.892   5.922 -2.7352 -0.0739  0.3816
   22CHL1    C4 1559   0.475   4.140   5.738 -0.2495 -0.4725  0.1320
   22CHL1   H4A 1560   0.365   4.140   5.757 -0.2113  0.2641  0.3799
   22CHL1   H4B 1561   0.507   4.214   5.814 -1.3229 -0.3171  0.4622
   22CHL1    C5 1562   0.508   4.170   5.594 -0.2617 -0.3352 -0.1421
   22CHL1    C6 1563   0.572   4.285   5.557 -0.6521  0.1163 -0.6186
   22CHL1    H6 1564   0.589   4.366   5.629 -0.7762 -0.2993 -0.1100
   22CHL1    C7 1565   0.607   4.322   5.419 -0.1169 -0.8465  0.5173
   22CHL1   H7A 1566   0.563   4.424   5.415 -0.2043 -0.8188  1.8932
   22CHL1   H7B 1567   0.716   4.319   5.398 -0.4562 -1.1848 -1.3505
   22CHL1    C8 1568   0.539   4.227   5.318 -0.0791  0.6416 -0.0725
   22CHL1    H8 1569   0.431   4.248   5.308 -0.4738 -0.9583  0.5202
   22CHL1   C14 1570   0.618   4.237   5.185  0.8686  0.5903  0.3128
   22CHL1   H14 1571   0.721   4.200   5.205  0.6927 -0.5694 -0.7941
   22CHL1   C15 1572   0.628   4.380   5.113 -0.1853 -0.4002 -0.3007
   22CHL1  H15A 1573   0.550   4.455   5.139  0.1627 -0.5596  1.2827
   22CHL1  H15B 1574   0.725   4.426   5.140 -0.3211 -0.2567 -0.0507
   22CHL1   C16 1575   0.648   4.344   4.969 -0.0817 -0.0229 -0.7448
   22CHL1  H16A 1576   0.562   4.389   4.915 -0.8460 -0.8039 -0.1995
   22CHL1  H16B 1577   0.732   4.395   4.916  2.8481 -3.6831 -0.0983
   22CHL1   C17 1578   0.650   4.191   4.956 -0.6863 -0.0966  0.1839
   22CHL1   H17 1579   0.753   4.161   4.986 -0.5184 -0.2007 -0.4861
   22CHL1   C13 1580   0.559   4.154   5.074 -0.1156  0.2694  0.7518
   22CHL1   C18 1581   0.409   4.195   5.038 -0.3747  0.4726 -0.1129
   22CHL1  H18A 1582   0.378   4.146   4.943  0.4366  2.1020 -1.2663
   22CHL1  H18B 1583   0.349   4.157   5.124 -0.4973  1.3351  0.1942
   22CHL1  H18C 1584   0.385   4.303   5.042 -1.1043  0.3050  0.3681
   22CHL1   C12 1585   0.579   4.005   5.114  0.7637  0.1231 -0.0868
   22CHL1  H12A 1586   0.552   3.933   5.034 -0.6364  0.0380  0.4331
   22CHL1  H12B 1587   0.686   3.977   5.123  0.7992  0.1838 -0.3111
   22CHL1   C11 1588   0.519   3.975   5.250  0.6991 -0.1694 -1.0290
   22CHL1  H11A 1589   0.408   3.973   5.243  0.6759 -1.4448 -0.5482
   22CHL1  H11B 1590   0.555   3.873   5.273  1.3636  0.4173  0.7263
   22CHL1    C9 1591   0.559   4.076   5.361  0.1659  0.2986 -0.9435
   22CHL1    H9 1592   0.667   4.060   5.381  0.0169  0.4920  0.0699
   22CHL1   C10 1593   0.485   4.055   5.496 -0.1893  0.1847 -0.0215
   22CHL1   C19 1594   0.328   4.060   5.487  0.0090  0.0286 -0.3524
   22CHL1  H19A 1595   0.286   4.045   5.589  1.2904 -0.4247  0.1395
   22CHL1  H19B 1596   0.297   4.160   5.452  0.1453 -0.5271 -2.1393
   22CHL1  H19C 1597   0.292   3.985   5.414 -0.1949  0.8155 -1.0706
   22CHL1    C1 1598   0.531   3.922   5.543 -0.3123  0.5808 -0.3196
   22CHL1   H1A 1599   0.482   3.844   5.481  2.1633 -2.0609  0.8110
   22CHL1   H1B 1600   0.641   3.907   5.536 -0.4531 -0.8815  0.1520
   22CHL1    C2 1601   0.496   3.890   5.686 -0.2703 -0.4338  0.8748
   22CHL1   H2A 1602   0.551   3.798   5.713  1.1459  1.0797  3.6515
   22CHL1   H2B 1603   0.387   3.873   5.684 -0.8074  2.5100  0.6687
   22CHL1   C20 1604   0.632   4.131   4.817  0.2302  0.9028  0.1616
   22CHL1   H20 1605   0.532   4.084   4.813  0.1121  0.9780  1.7261
   22CHL1   C21 1606   0.729   4.013   4.805 -0.1939 -0.1932 -0.0274
   22CHL1  H21A 1607   0.706   3.936   4.728  0.5006  0.4313 -0.8758
   22CHL1  H21B 1608   0.738   3.972   4.908 -2.5525 -0.6381  0.0445
   22CHL1  H21C 1609   0.830   4.052   4.782 -0.5747  0.1900 -1.0681
   22CHL1   C22 1610   0.664   4.226   4.703  0.3845  0.2103  0.1411
   22CHL1  H22A 1611   0.584   4.302   4.716 -0.0437 -0.4412  1.4939
   22CHL1  H22B 1612   0.767   4.260   4.729  0.6698 -0.9107  0.5265
   22CHL1   C23 1613   0.657   4.168   4.559 -0.6932  0.1432 -0.0071
   22CHL1  H23A 1614   0.740   4.094   4.553 -0.4951  0.0195  2.8155
   22CHL1  H23B 1615   0.567   4.106   4.536  0.5176 -1.8130  0.2703
   22CHL1   C24 1616   0.673   4.278   4.457  0.3938 -0.3118  0.9040
   22CHL1  H24A 1617   0.588   4.348   4.473  1.2841  1.1123 -0.2986
   22CHL1  H24B 1618   0.767   4.332   4.484  0.0976  1.3436 -1.1789
   22CHL1   C25 1619   0.691   4.234   4.312 -0.1917  0.1892  0.8218
   22CHL1   H25 1620   0.785   4.182   4.285 -0.5157 -0.1609  0.3462
   22CHL1   C26 1621   0.585   4.132   4.263 -0.1163 -0.2835  0.0118
   22CHL1  H26A 1622   0.489   4.186   4.252 -0.4377 -0.1338  2.8507
   22CHL1  H26B 1623   0.623   4.092   4.167 -0.4412  2.4049 -1.3291
   22CHL1  H26C 1624   0.565   4.043   4.327 -2.6180  0.0848 -0.1724
   22CHL1   C27 1625   0.684   4.355   4.220 -0.2003  0.7086 -0.4153
   22CHL1  H27A 1626   0.675   4.327   4.113  1.5800 -0.5868 -0.2676
   22CHL1  H27B 1627   0.601   4.423   4.248 -0.3793  0.7980 -1.1403
   22CHL1  H27C 1628   0.775   4.418   4.230 -1.3159  2.3468 -0.1176
   23CHL1    C3 1629   1.941   2.679   5.511 -0.2515 -0.4094 -0.4251
   23CHL1    H3 1630   1.837   2.642   5.500 -0.4984  0.0772  0.2172
   23CHL1    O3 1631   1.975   2.662   5.648 -0.0237  0.2298 -0.3336
   23CHL1   H3' 1632   2.070   2.672   5.644 -0.2231  2.5321 -0.4158
   23CHL1    C4 1633   2.042   2.605   5.432  0.5986  0.6087 -0.4810
   23CHL1   H4A 1634   2.149   2.631   5.444  0.8326  0.6235 -2.3221
   23CHL1   H4B 1635   2.054   2.500   5.466 -0.9829  0.3672 -0.5646
   23CHL1    C5 1636   2.005   2.610   5.288 -0.2122  0.8411  0.5801
   23CHL1    C6 1637   1.964   2.494   5.216  0.5674 -0.0713 -0.1251
   23CHL1    H6 1638   1.953   2.403   5.276 -0.1283  0.3841  0.4492
   23CHL1    C7 1639   1.946   2.497   5.066  1.0450  0.8770 -0.9388
   23CHL1   H7A 1640   1.986   2.404   5.019  0.4659  0.2594 -0.2381
   23CHL1   H7B 1641   1.837   2.492   5.045  0.8700 -0.9402  0.1096
   23CHL1    C8 1642   1.995   2.628   5.004  0.1800  0.5332 -0.2668
   23CHL1    H8 1643   2.104   2.610   5.005 -0.0769 -1.2357  0.2318
   23CHL1   C14 1644   1.956   2.635   4.855 -0.1328  0.2589 -0.6021
   23CHL1   H14 1645   1.846   2.639   4.846 -0.4078 -2.3099  0.7018
   23CHL1   C15 1646   1.988   2.513   4.765 -0.1742 -0.4324  0.6807
   23CHL1  H15A 1647   2.094   2.489   4.787 -0.2813 -1.9077 -0.2325
   23CHL1  H15B 1648   1.915   2.432   4.787  0.3903 -1.3012 -0.5233
   23CHL1   C16 1649   1.969   2.571   4.618  0.4752 -0.0252 -0.2816
   23CHL1  H16A 1650   2.062   2.552   4.561 -0.7552  0.6030 -2.6375
   23CHL1  H16B 1651   1.874   2.534   4.574 -0.3202  0.9319  0.5894
   23CHL1   C17 1652   1.957   2.729   4.637 -1.0239  0.3173  0.1675
   23CHL1   H17 1653   1.849   2.753   4.639 -1.3143 -0.9186  1.9797
   23CHL1   C13 1654   2.007   2.758   4.779 -0.2317 -0.1194 -0.9733
   23CHL1   C18 1655   2.161   2.771   4.783 -0.3466 -0.6182  0.4450
   23CHL1  H18A 1656   2.193   2.870   4.745  0.7746 -1.0632  0.1997
   23CHL1  H18B 1657   2.199   2.755   4.886  0.6296  0.2954  0.2478
   23CHL1  H18C 1658   2.213   2.695   4.722  1.6111  0.5780  0.5565
   23CHL1   C12 1659   1.942   2.885   4.844  0.7907  0.1634  0.2522
   23CHL1  H12A 1660   1.968   2.981   4.794 -0.1005 -0.7064 -2.0345
   23CHL1  H12B 1661   1.831   2.880   4.835  0.8937 -0.3520 -0.8060
   23CHL1   C11 1662   1.977   2.884   4.997  0.2221  0.3444 -0.0856
   23CHL1  H11A 1663   2.086   2.905   4.996  0.0272  1.4602 -1.7657
   23CHL1  H11B 1664   1.923   2.971   5.040  0.8910 -0.0099  1.5395
   23CHL1    C9 1665   1.953   2.751   5.084 -0.5971 -0.2666  0.6654
   23CHL1    H9 1666   1.843   2.740   5.098 -0.8236 -1.1047 -1.4455
   23CHL1   C10 1667   2.004   2.752   5.224  0.2076  0.0252  0.0096
   23CHL1   C19 1668   2.145   2.812   5.231 -0.9524  0.1562 -0.1123
   23CHL1  H19A 1669   2.135   2.922   5.219  0.0260  0.1876 -0.8008
   23CHL1  H19B 1670   2.192   2.802   5.331 -1.5019  3.1146  0.5248
   23CHL1  H19C 1671   2.216   2.774   5.154  1.0864  1.7619  0.8927
   23CHL1    C1 1672   1.907   2.833   5.313 -0.4096  0.1546  0.0244
   23CHL1   H1A 1673   1.907   2.940   5.286  2.0238  0.3457  0.5558
   23CHL1   H1B 1674   1.804   2.792   5.312  0.5546 -2.4682 -1.1913
   23CHL1    C2 1675   1.940   2.830   5.464 -0.4239  0.6964  0.0401
   23CHL1   H2A 1676   1.864   2.885   5.524  0.0958  1.1537  0.2922
   23CHL1   H2B 1677   2.042   2.873   5.473 -0.0031 -0.5254  1.4821
   23CHL1   C20 1678   2.015   2.812   4.516  0.5219 -0.6466  0.6043
   23CHL1   H20 1679   2.117   2.846   4.543  0.1826 -1.1351  2.7249
   23CHL1   C21 1680   1.919   2.937   4.496 -0.4784 -0.3352 -0.0044
   23CHL1  H21A 1681   1.818   2.897   4.473  0.0126 -2.1220  0.7431
   23CHL1  H21B 1682   1.962   2.993   4.411  0.8527 -2.2322 -0.6553
   23CHL1  H21C 1683   1.922   2.998   4.589 -1.0671 -0.6912  0.2555
   23CHL1   C22 1684   2.027   2.743   4.376 -0.0981 -0.5126 -0.0092
   23CHL1  H22A 1685   2.106   2.790   4.312  0.7067 -2.9832 -0.9477
   23CHL1  H22B 1686   2.074   2.642   4.381 -0.3654 -0.7035 -1.0546
   23CHL1   C23 1687   1.897   2.727   4.292  0.3945  0.0446 -0.9542
   23CHL1  H23A 1688   1.827   2.656   4.340  0.8022  0.6054  0.5427
   23CHL1  H23B 1689   1.847   2.825   4.274 -2.3006 -1.0760 -0.0990
   23CHL1   C24 1690   1.925   2.658   4.158  0.1736 -0.2134  0.7206
   23CHL1  H24A 1691   1.831   2.634   4.105  1.0269 -3.1312  0.3603
   23CHL1  H24B 1692   1.985   2.727   4.095 -0.2817 -1.0055 -0.6088
   23CHL1   C25 1693   2.010   2.524   4.163  0.6082 -0.4197 -0.0962
   23CHL1   H25 1694   2.112   2.550   4.198 -0.4294 -0.0786  2.9401
   23CHL1   C26 1695   1.950   2.417   4.257  0.0055  0.3892 -0.2570
   23CHL1  H26A 1696   2.025   2.338   4.279  0.0493  0.3130 -0.6640
   23CHL1  H26B 1697   1.913   2.464   4.351  0.3441 -1.0528  0.6301
   23CHL1  H26C 1698   1.856   2.372   4.218  0.2085  1.1328 -1.6657
   23CHL1   C27 1699   2.025   2.468   4.022  0.0324 -0.1794  0.3581
   23CHL1  H27A 1700   2.063   2.542   3.949  1.6450 -0.7623  0.5551
   23CHL1  H27B 1701   2.095   2.382   4.023  0.7600  0.3631 -1.1908
   23CHL1  H27C 1702   1.928   2.432   3.983  0.3051 -1.3973  0.7629
   24CHL1    C3 1703   0.789   5.198   5.617  0.1128  0.6607  1.2017
   24CHL1    H3 1704   0.747   5.097   5.600  0.6931  0.6490 -0.3463
   24CHL1    O3 1705   0.824   5.211   5.751 -0.1289  0.7633 -0.7953
   24CHL1   H3' 1706   0.755   5.165   5.800  2.3566 -2.6015 -0.0961
   24CHL1    C4 1707   0.917   5.204   5.532 -0.5701  0.6161 -0.0048
   24CHL1   H4A 1708   0.971   5.299   5.553 -2.3304  1.4951  0.8410
   24CHL1   H4B 1709   0.969   5.114   5.570 -1.5144  0.8074  1.8911
   24CHL1    C5 1710   0.898   5.192   5.382  0.0794  0.7936  0.3251
   24CHL1    C6 1711   0.941   5.089   5.307  0.1362 -0.3641  0.9399
   24CHL1    H6 1712   1.002   5.018   5.364 -2.5385 -1.6617  2.4090
   24CHL1    C7 1713   0.916   5.072   5.159  0.0992  0.1949 -0.4253
   24CHL1   H7A 1714   1.003   5.048   5.094 -1.1946  1.6049 -2.8136
   24CHL1   H7B 1715   0.854   4.981   5.147 -1.2703  1.3253 -2.6359
   24CHL1    C8 1716   0.848   5.200   5.094 -0.1921 -0.0423 -0.6371
   24CHL1    H8 1717   0.926   5.278   5.082 -1.7429  1.8442  0.8728
   24CHL1   C14 1718   0.785   5.175   4.958  0.1418  0.3853 -0.4039
   24CHL1   H14 1719   0.695   5.118   4.990  1.4510 -0.3563  2.2795
   24CHL1   C15 1720   0.864   5.098   4.857 -0.0092  1.2284 -0.0696
   24CHL1  H15A 1721   0.966   5.141   4.851  0.0767  1.1137  0.5715
   24CHL1  H15B 1722   0.872   4.990   4.882 -0.7555  1.1503 -0.1442
   24CHL1   C16 1723   0.793   5.129   4.725  0.2484  0.5526  0.7946
   24CHL1  H16A 1724   0.865   5.179   4.657 -2.4616  2.8010 -0.6158
   24CHL1  H16B 1725   0.752   5.034   4.685  1.3346 -0.3964  1.8497
   24CHL1   C17 1726   0.676   5.229   4.757 -0.3811 -0.0711 -0.5862
   24CHL1   H17 1727   0.588   5.170   4.788 -0.7229  0.5908 -0.2797
   24CHL1   C13 1728   0.720   5.299   4.891 -0.0877  0.4410 -0.6671
   24CHL1   C18 1729   0.825   5.409   4.862  0.6477  0.0869  0.0805
   24CHL1  H18A 1730   0.779   5.493   4.806 -2.0380 -1.9229 -0.9453
   24CHL1  H18B 1731   0.855   5.464   4.954 -0.8956 -0.3076  0.8484
   24CHL1  H18C 1732   0.915   5.379   4.803  1.5549  2.0377  0.3774
   24CHL1   C12 1733   0.610   5.349   4.984 -0.0277 -0.5017 -0.2144
   24CHL1  H12A 1734   0.556   5.434   4.938  0.5902 -0.1237 -0.2543
   24CHL1  H12B 1735   0.546   5.260   5.001 -0.3939 -0.5016 -1.5137
   24CHL1   C11 1736   0.663   5.384   5.125  0.6618 -0.3733  0.4876
   24CHL1  H11A 1737   0.730   5.471   5.115  0.6722 -0.3675  0.5977
   24CHL1  H11B 1738   0.588   5.414   5.202  1.3213  1.9409  0.3011
   24CHL1    C9 1739   0.737   5.264   5.187  0.6556  0.2588  0.4665
   24CHL1    H9 1740   0.665   5.182   5.208  0.5296  0.3733  0.4827
   24CHL1   C10 1741   0.797   5.293   5.325 -0.7657 -0.5221 -0.4135
   24CHL1   C19 1742   0.875   5.429   5.323  0.3664  0.3815 -0.2237
   24CHL1  H19A 1743   0.806   5.516   5.312 -2.5019 -1.8243 -0.8979
   24CHL1  H19B 1744   0.932   5.451   5.416 -0.1215  0.8093 -0.0187
   24CHL1  H19C 1745   0.945   5.426   5.237  0.0293 -1.1642 -0.4766
   24CHL1    C1 1746   0.675   5.306   5.420  0.3177  1.0402  0.1552
   24CHL1   H1A 1747   0.625   5.405   5.405  0.2609  0.8472 -0.9734
   24CHL1   H1B 1748   0.609   5.221   5.391 -0.5355  2.6494 -3.1112
   24CHL1    C2 1749   0.695   5.301   5.571  0.2594  0.0291 -0.8164
   24CHL1   H2A 1750   0.598   5.266   5.613  2.2231 -1.0217  3.3050
   24CHL1   H2B 1751   0.724   5.399   5.613 -2.3629  0.5631 -0.0388
   24CHL1   C20 1752   0.615   5.307   4.640 -0.0889 -0.7868  0.1837
   24CHL1   H20 1753   0.684   5.392   4.621 -3.3952  2.3220  0.9370
   24CHL1   C21 1754   0.474   5.369   4.671  0.8240  0.0521 -0.2170
   24CHL1  H21A 1755   0.480   5.457   4.738 -2.0655  0.7342 -0.7112
   24CHL1  H21B 1756   0.405   5.304   4.729 -1.7478  0.5535 -2.4721
   24CHL1  H21C 1757   0.419   5.406   4.582 -0.8080 -0.4089  0.5566
   24CHL1   C22 1758   0.608   5.234   4.503  0.4334  0.1059  0.5123
   24CHL1  H22A 1759   0.702   5.175   4.489 -0.6372 -1.2051 -1.6524
   24CHL1  H22B 1760   0.519   5.169   4.494  1.4485 -1.2806  0.1994
   24CHL1   C23 1761   0.599   5.325   4.378  0.0631  0.4526 -0.5837
   24CHL1  H23A 1762   0.496   5.367   4.380 -0.6358 -1.0829  3.2047
   24CHL1  H23B 1763   0.674   5.406   4.392  2.2187 -1.2464 -1.7145
   24CHL1   C24 1764   0.642   5.252   4.249  0.3721  0.3597 -0.2058
   24CHL1  H24A 1765   0.737   5.201   4.275  0.3542  0.4252 -0.0139
   24CHL1  H24B 1766   0.561   5.178   4.232  1.7589 -1.1515 -0.5495
   24CHL1   C25 1767   0.661   5.332   4.116 -0.7924 -1.1669  0.3014
   24CHL1   H25 1768   0.577   5.405   4.109  0.9211  0.8003 -1.1242
   24CHL1   C26 1769   0.796   5.417   4.127  0.2804  0.1974 -0.3109
   24CHL1  H26A 1770   0.786   5.480   4.036 -1.9782  1.0142  0.4332
   24CHL1  H26B 1771   0.794   5.476   4.221  1.4766  0.1008 -0.2062
   24CHL1  H26C 1772   0.882   5.347   4.127 -0.0703 -0.2626 -1.9213
   24CHL1   C27 1773   0.662   5.240   3.992  0.6312 -0.0468  0.4103
   24CHL1  H27A 1774   0.561   5.195   3.979  0.4430  0.0491  1.4862
   24CHL1  H27B 1775   0.689   5.305   3.905 -1.2396  0.6721  0.3205
   24CHL1  H27C 1776   0.742   5.164   4.002  0.5514 -0.2978 -0.6687
   25CHL1    C3 1777   6.363   2.450   5.561 -1.2943  0.0851  0.9013
   25CHL1    H3 1778   6.305   2.544   5.560  0.4490  1.2080  1.1949
   25CHL1    O3 1779   6.368   2.415   5.698 -0.4745 -0.0220  0.2388
   25CHL1   H3' 1780   6.413   2.486   5.745  1.2523 -0.1590 -1.1094
   25CHL1    C4 1781   6.304   2.342   5.475  0.3470  0.4510  0.5581
   25CHL1   H4A 1782   6.362   2.249   5.495  0.6840  0.3535 -0.8058
   25CHL1   H4B 1783   6.204   2.314   5.515  1.1032 -1.1721  1.4623
   25CHL1    C5 1784   6.307   2.373   5.321  0.1321  0.5294 -0.5126
   25CHL1    C6 1785   6.191   2.359   5.257  0.7482 -0.1786 -0.5334
   25CHL1    H6 1786   6.101   2.331   5.315  0.6441  0.9618 -0.1172
   25CHL1    C7 1787   6.175   2.380   5.111 -0.3188  0.3030 -0.5533
   25CHL1   H7A 1788   6.121   2.295   5.065  1.0431  0.4456 -2.5301
   25CHL1   H7B 1789   6.104   2.466   5.106 -0.3361  0.3712  0.5823
   25CHL1    C8 1790   6.303   2.403   5.040 -0.5815 -0.1196  0.3186
   25CHL1    H8 1791   6.358   2.307   5.023  2.4030  1.7524 -1.5665
   25CHL1   C14 1792   6.285   2.457   4.893  0.3584 -0.5120 -0.7028
   25CHL1   H14 1793   6.235   2.551   4.925  1.6830  0.3408 -1.0769
   25CHL1   C15 1794   6.193   2.378   4.803  0.5437  0.4096  0.4893
   25CHL1  H15A 1795   6.208   2.268   4.807  2.2721  0.6458  1.5138
   25CHL1  H15B 1796   6.090   2.396   4.842  0.8665 -0.3067  1.7377
   25CHL1   C16 1797   6.228   2.443   4.664 -0.1463 -0.1597 -0.2375
   25CHL1  H16A 1798   6.261   2.356   4.602  1.0511  1.6871 -2.3318
   25CHL1  H16B 1799   6.142   2.483   4.606 -2.2122 -2.6052  0.9417
   25CHL1   C17 1800   6.352   2.533   4.684  0.4611 -0.8487  0.5707
   25CHL1   H17 1801   6.316   2.635   4.707  0.1731 -0.8662  0.1986
   25CHL1   C13 1802   6.409   2.484   4.820 -0.2060 -0.0222  0.3337
   25CHL1   C18 1803   6.487   2.353   4.798  0.1259  0.2518  0.2442
   25CHL1  H18A 1804   6.418   2.279   4.754 -0.5392  2.4276 -2.6684
   25CHL1  H18B 1805   6.582   2.363   4.741 -0.3402  0.9196 -0.4220
   25CHL1  H18C 1806   6.511   2.308   4.897  2.7250 -0.6509 -0.6994
   25CHL1   C12 1807   6.493   2.593   4.896 -0.2603  0.3621 -0.0977
   25CHL1  H12A 1808   6.591   2.604   4.845 -0.4711  3.7865 -0.0397
   25CHL1  H12B 1809   6.448   2.694   4.905  1.9012  1.2504  1.5657
   25CHL1   C11 1810   6.525   2.536   5.037 -0.1537  0.6708  0.6429
   25CHL1  H11A 1811   6.606   2.461   5.037 -0.6442  0.0518  2.9955
   25CHL1  H11B 1812   6.565   2.620   5.098 -0.4344  1.6889 -0.5166
   25CHL1    C9 1813   6.401   2.487   5.122 -0.3558 -0.3329 -0.9467
   25CHL1    H9 1814   6.343   2.577   5.151  1.1749  0.4076 -0.1107
   25CHL1   C10 1815   6.441   2.423   5.257  0.1197 -0.1223  0.4335
   25CHL1   C19 1816   6.542   2.312   5.233 -0.0563  0.5751 -0.6685
   25CHL1  H19A 1817   6.646   2.352   5.242  1.1494 -2.4157 -0.4108
   25CHL1  H19B 1818   6.523   2.239   5.314 -0.4012 -0.6171 -1.7941
   25CHL1  H19C 1819   6.532   2.255   5.138  4.0006 -0.4968 -0.6247
   25CHL1    C1 1820   6.499   2.526   5.351  0.0842  0.2138  0.0831
   25CHL1   H1A 1821   6.605   2.555   5.331  0.5365 -0.0854  1.9253
   25CHL1   H1B 1822   6.428   2.612   5.347 -0.1958  0.0040  0.5748
   25CHL1    C2 1823   6.504   2.490   5.500 -0.3413  1.0850  0.7706
   25CHL1   H2A 1824   6.531   2.584   5.552  0.7891  0.3094  1.6161
   25CHL1   H2B 1825   6.572   2.406   5.526 -1.7373 -0.6197 -0.7273
   25CHL1   C20 1826   6.452   2.556   4.567 -0.2704  0.8581 -0.4230
   25CHL1   H20 1827   6.541   2.597   4.619 -1.5343 -0.6958  3.3121
   25CHL1   C21 1828   6.405   2.672   4.475  0.5628 -0.1679 -0.8678
   25CHL1  H21A 1829   6.402   2.766   4.534  0.8015 -0.8759  0.3254
   25CHL1  H21B 1830   6.302   2.655   4.438  0.7477 -0.6638 -1.1684
   25CHL1  H21C 1831   6.484   2.676   4.397  1.0589 -2.7097 -0.5733
   25CHL1   C22 1832   6.496   2.440   4.472  0.4279 -0.1732 -0.1361
   25CHL1  H22A 1833   6.494   2.349   4.536  0.8663 -1.1288 -1.4523
   25CHL1  H22B 1834   6.413   2.430   4.400 -0.1753  3.5561 -0.1565
   25CHL1   C23 1835   6.632   2.459   4.417  0.5608 -0.1033  0.3389
   25CHL1  H23A 1836   6.633   2.551   4.355  0.0621  1.6730  2.8141
   25CHL1  H23B 1837   6.713   2.471   4.492  3.3800  2.1916 -2.7913
   25CHL1   C24 1838   6.678   2.339   4.331 -0.1263 -0.4079 -0.2782
   25CHL1  H24A 1839   6.788   2.346   4.310 -0.1494 -1.3337 -0.7341
   25CHL1  H24B 1840   6.663   2.246   4.390  0.2058 -0.0549  0.3744
   25CHL1   C25 1841   6.609   2.328   4.193  0.3965  0.1075 -0.1402
   25CHL1   H25 1842   6.503   2.329   4.226  0.0326 -0.8150 -1.2329
   25CHL1   C26 1843   6.623   2.453   4.110 -0.3658  0.0812 -0.9273
   25CHL1  H26A 1844   6.564   2.538   4.150  0.5524 -0.8031  2.6942
   25CHL1  H26B 1845   6.730   2.480   4.096 -0.1415  0.7255  1.5913
   25CHL1  H26C 1846   6.577   2.433   4.011 -0.9510 -3.6484 -0.0595
   25CHL1   C27 1847   6.630   2.198   4.108 -0.1470 -0.0240  0.2825
   25CHL1  H27A 1848   6.571   2.199   4.014 -0.6094  0.2249  0.5756
   25CHL1  H27B 1849   6.736   2.190   4.077 -0.1177  0.7915  0.1572
   25CHL1  H27C 1850   6.590   2.106   4.157  0.9185 -0.8566 -0.3670
   26CHL1    C3 1851   5.881   0.156   5.751  0.0865  0.9156 -0.2208
   26CHL1    H3 1852   5.855   0.058   5.706  0.4200  0.2823  0.9136
   26CHL1    O3 1853   5.882   0.145   5.893  0.6003  0.6093 -0.6291
   26CHL1   H3' 1854   5.968   0.180   5.918  1.3376 -1.6273  0.1979
   26CHL1    C4 1855   6.028   0.186   5.703  0.3560  0.0322  0.3182
   26CHL1   H4A 1856   6.059   0.287   5.739 -0.8455  1.2077 -1.7671
   26CHL1   H4B 1857   6.096   0.109   5.745  0.2896 -0.9905 -1.3805
   26CHL1    C5 1858   6.037   0.177   5.554 -0.0929  0.0760  0.6808
   26CHL1    C6 1859   6.095   0.082   5.493 -0.5267  0.1515  0.3099
   26CHL1    H6 1860   6.146  -0.006   5.536  0.6718  0.5489 -0.2617
   26CHL1    C7 1861   6.114   0.066   5.345  0.0814  0.6685 -0.0485
   26CHL1   H7A 1862   6.220   0.082   5.317  0.0745  0.4332 -0.2180
   26CHL1   H7B 1863   6.071  -0.030   5.309  0.7917 -0.0640  1.0046
   26CHL1    C8 1864   6.050   0.190   5.267  0.4797 -0.1376 -0.0097
   26CHL1    H8 1865   6.136   0.259   5.262  1.1636 -1.0382 -1.3853
   26CHL1   C14 1866   6.012   0.154   5.120  0.4261 -0.0796  1.0377
   26CHL1   H14 1867   5.931   0.078   5.123 -0.2735  0.6842  3.1559
   26CHL1   C15 1868   6.113   0.100   5.022  0.5142 -0.9567 -0.5914
   26CHL1  H15A 1869   6.214   0.146   5.031  1.3371 -2.6719 -0.7355
   26CHL1  H15B 1870   6.120  -0.009   5.044  0.4900 -0.8462 -0.0147
   26CHL1   C16 1871   6.055   0.129   4.881 -0.0774 -0.0239  0.1406
   26CHL1  H16A 1872   6.127   0.190   4.822  0.1089 -1.6741 -1.4208
   26CHL1  H16B 1873   6.046   0.035   4.823 -3.9711  0.1034  0.2492
   26CHL1   C17 1874   5.926   0.214   4.908  0.3141  0.2810 -0.4366
   26CHL1   H17 1875   5.845   0.139   4.920  1.0315 -0.4209  0.1174
   26CHL1   C13 1876   5.960   0.273   5.046 -0.2125  0.1381  0.2168
   26CHL1   C18 1877   6.066   0.389   5.031 -0.2879 -0.0686 -0.5397
   26CHL1  H18A 1878   6.115   0.395   5.130 -0.2258  0.6696 -0.6086
   26CHL1  H18B 1879   6.142   0.373   4.952  0.2237  1.4743 -0.3987
   26CHL1  H18C 1880   6.025   0.492   5.016  3.4958  1.5897 -0.7066
   26CHL1   C12 1881   5.838   0.319   5.121  0.4003  0.5232  0.0859
   26CHL1  H12A 1882   5.811   0.412   5.066  0.2685  0.3169 -0.1998
   26CHL1  H12B 1883   5.757   0.243   5.114  0.2975  0.7617 -1.8384
   26CHL1   C11 1884   5.858   0.363   5.264  0.3965 -0.2780  0.7819
   26CHL1  H11A 1885   5.920   0.454   5.252  0.6694 -0.7090 -1.4933
   26CHL1  H11B 1886   5.759   0.379   5.312  0.5404 -0.2683  1.0777
   26CHL1    C9 1887   5.927   0.246   5.339 -0.9933 -0.5105  0.5377
   26CHL1    H9 1888   5.851   0.167   5.350 -3.1608  1.6520  2.1077
   26CHL1   C10 1889   5.955   0.288   5.484  0.0521 -0.7852 -0.0542
   26CHL1   C19 1890   6.040   0.421   5.495 -0.3032 -0.3647  0.5532
   26CHL1  H19A 1891   6.135   0.408   5.439 -1.2647  0.2362 -1.3058
   26CHL1  H19B 1892   5.987   0.507   5.448  1.0085  0.6744  0.9240
   26CHL1  H19C 1893   6.061   0.457   5.597 -1.0236 -0.2615  0.6726
   26CHL1    C1 1894   5.819   0.314   5.559  0.0906 -0.0736 -0.4475
   26CHL1   H1A 1895   5.794   0.422   5.546 -1.2230 -0.3268 -0.1947
   26CHL1   H1B 1896   5.740   0.260   5.503 -2.2486  1.6177  1.0252
   26CHL1    C2 1897   5.797   0.280   5.708 -0.3706 -0.2966 -0.1869
   26CHL1   H2A 1898   5.690   0.260   5.731 -0.4406  1.5029  1.3321
   26CHL1   H2B 1899   5.842   0.361   5.769 -1.0133 -0.9012  1.1315
   26CHL1   C20 1900   5.883   0.315   4.800 -0.7086 -0.1863 -0.2801
   26CHL1   H20 1901   5.950   0.403   4.806 -1.3951  0.5469 -2.4235
   26CHL1   C21 1902   5.745   0.372   4.807 -0.2505 -0.3498 -0.6402
   26CHL1  H21A 1903   5.744   0.455   4.880  1.4007 -1.0839  0.2678
   26CHL1  H21B 1904   5.662   0.300   4.823 -0.2180 -0.1134  0.7125
   26CHL1  H21C 1905   5.726   0.402   4.701  1.3700 -0.3679 -0.9550
   26CHL1   C22 1906   5.898   0.261   4.654  0.0089  0.1573 -0.0716
   26CHL1  H22A 1907   5.877   0.340   4.578  0.7732 -1.3582 -1.9490
   26CHL1  H22B 1908   6.001   0.231   4.627  0.4399  1.1356  0.4718
   26CHL1   C23 1909   5.809   0.128   4.630 -0.2303  0.1209 -0.4732
   26CHL1  H23A 1910   5.871   0.037   4.643 -2.5522 -1.6706 -1.1774
   26CHL1  H23B 1911   5.728   0.127   4.706 -0.4330  2.1078 -0.5952
   26CHL1   C24 1912   5.739   0.112   4.489 -0.4182  0.0154 -0.4803
   26CHL1  H24A 1913   5.683   0.016   4.493 -1.2128  0.5022  0.7241
   26CHL1  H24B 1914   5.666   0.196   4.486  0.0995  0.5511  1.1095
   26CHL1   C25 1915   5.834   0.107   4.370  0.2242 -0.3530  0.1576
   26CHL1   H25 1916   5.890   0.203   4.377 -1.2125  0.6050 -1.0026
   26CHL1   C26 1917   5.936  -0.008   4.371  0.3164 -0.5211  0.8716
   26CHL1  H26A 1918   6.041   0.023   4.349  0.7973 -2.1130  0.7456
   26CHL1  H26B 1919   5.923  -0.073   4.461  1.3768 -1.6325  0.2645
   26CHL1  H26C 1920   5.912  -0.072   4.283  0.7465  1.5439 -0.8137
   26CHL1   C27 1921   5.756   0.109   4.235 -0.0926 -0.3768  0.4678
   26CHL1  H27A 1922   5.725   0.009   4.200  0.3121  0.0944 -1.3096
   26CHL1  H27B 1923   5.670   0.177   4.253  0.9993  1.0964  0.4060
   26CHL1  H27C 1924   5.817   0.151   4.152 -1.0121 -1.4379 -0.7850
   27CHL1    C3 1925   2.315   4.643   5.660 -0.6755 -0.2852 -0.4061
   27CHL1    H3 1926   2.265   4.544   5.656  0.2356 -0.8685  1.4526
   27CHL1    O3 1927   2.389   4.664   5.781  0.2205 -0.7478 -0.3214
   27CHL1   H3' 1928   2.449   4.589   5.780  2.3427  0.8012  1.5246
   27CHL1    C4 1929   2.418   4.634   5.549  0.4649  0.4316 -0.0671
   27CHL1   H4A 1930   2.486   4.721   5.544 -0.3546  1.1547  0.9722
   27CHL1   H4B 1931   2.489   4.550   5.567 -0.0556  0.5195  2.7383
   27CHL1    C5 1932   2.350   4.624   5.415  0.2402 -0.0344  0.2662
   27CHL1    C6 1933   2.380   4.530   5.326  0.2716  0.4628 -0.1514
   27CHL1    H6 1934   2.457   4.457   5.356  2.1787  2.8609  1.1119
   27CHL1    C7 1935   2.313   4.523   5.196 -0.0549  0.3120  0.3277
   27CHL1   H7A 1936   2.392   4.480   5.130 -2.5263 -2.0548 -1.3131
   27CHL1   H7B 1937   2.230   4.451   5.180  1.8054 -1.3719 -2.7267
   27CHL1    C8 1938   2.268   4.664   5.138 -0.7415  0.1597 -0.4750
   27CHL1    H8 1939   2.361   4.719   5.115 -0.2818 -1.3044 -2.4131
   27CHL1   C14 1940   2.201   4.648   5.007 -0.0237  0.2324  0.4673
   27CHL1   H14 1941   2.121   4.573   5.021 -1.8183  2.3118  2.0918
   27CHL1   C15 1942   2.287   4.580   4.897  0.0600  0.7905  1.1029
   27CHL1  H15A 1943   2.388   4.620   4.874  0.9055 -0.8215  1.8412
   27CHL1  H15B 1944   2.288   4.471   4.919  0.4575 -0.5312 -4.1455
   27CHL1   C16 1945   2.196   4.597   4.770 -1.0259 -0.2858 -0.1007
   27CHL1  H16A 1946   2.248   4.628   4.676 -0.3420 -3.5751 -0.9085
   27CHL1  H16B 1947   2.149   4.502   4.739 -1.2537 -0.0597 -0.4599
   27CHL1   C17 1948   2.091   4.703   4.815  0.0078  0.4654  0.5219
   27CHL1   H17 1949   2.004   4.639   4.842  0.7696 -0.4265  0.9094
   27CHL1   C13 1950   2.142   4.770   4.944 -0.5645 -0.2018  0.4792
   27CHL1   C18 1951   2.248   4.876   4.891  0.2682 -0.4149 -0.6091
   27CHL1  H18A 1952   2.310   4.909   4.978 -1.2146  0.5845  0.1024
   27CHL1  H18B 1953   2.326   4.837   4.822  1.0865 -1.8887  1.0540
   27CHL1  H18C 1954   2.198   4.966   4.850 -2.1982 -1.0599  0.7958
   27CHL1   C12 1955   2.044   4.832   5.049 -0.1605  0.2051 -0.8562
   27CHL1  H12A 1956   1.997   4.929   5.020 -0.3768  0.1058 -0.8375
   27CHL1  H12B 1957   1.955   4.771   5.074 -0.0580  0.9496  1.6586
   27CHL1   C11 1958   2.115   4.863   5.179  0.8241  0.6189 -0.4548
   27CHL1  H11A 1959   2.194   4.940   5.168  1.5694  0.1934  1.4974
   27CHL1  H11B 1960   2.050   4.912   5.255 -0.9162 -1.4038 -0.5357
   27CHL1    C9 1961   2.175   4.732   5.242 -0.1616 -0.6542  0.2864
   27CHL1    H9 1962   2.085   4.669   5.261 -0.2704 -0.3389  0.8449
   27CHL1   C10 1963   2.249   4.739   5.380  0.7257 -0.2168 -0.0337
   27CHL1   C19 1964   2.328   4.880   5.374 -0.0005 -0.4547 -0.2811
   27CHL1  H19A 1965   2.396   4.886   5.462 -0.6820 -1.2579  0.3208
   27CHL1  H19B 1966   2.389   4.888   5.281 -0.6186  0.9644 -0.5895
   27CHL1  H19C 1967   2.257   4.965   5.378 -0.6255 -1.0062  1.3447
   27CHL1    C1 1968   2.148   4.732   5.498  0.4695 -0.3586  0.1889
   27CHL1   H1A 1969   2.084   4.822   5.487 -1.0282 -0.9096  3.2120
   27CHL1   H1B 1970   2.085   4.640   5.503  1.9068 -1.3204  1.9497
   27CHL1    C2 1971   2.213   4.752   5.638  0.2743  0.4407 -0.1916
   27CHL1   H2A 1972   2.132   4.734   5.712  0.4727 -1.6126 -0.4278
   27CHL1   H2B 1973   2.263   4.851   5.639  0.0822  0.5376  0.0492
   27CHL1   C20 1974   2.035   4.779   4.692 -0.1158 -1.0374  0.2384
   27CHL1   H20 1975   2.119   4.835   4.647 -0.4642  0.0871  0.9687
   27CHL1   C21 1976   1.928   4.868   4.738  0.5694  0.3330  0.0443
   27CHL1  H21A 1977   1.972   4.950   4.799 -1.2265  1.3654  0.0544
   27CHL1  H21B 1978   1.840   4.820   4.788 -0.1852  0.7005 -0.8973
   27CHL1  H21C 1979   1.876   4.912   4.651 -2.6367 -3.1174 -0.0582
   27CHL1   C22 1980   1.982   4.671   4.586 -0.4063 -0.0410 -0.2394
   27CHL1  H22A 1981   2.072   4.628   4.537  1.5986  2.8274  0.6158
   27CHL1  H22B 1982   1.925   4.590   4.636  3.1833 -2.5655  0.1134
   27CHL1   C23 1983   1.901   4.727   4.474 -0.1586 -0.1133  0.1499
   27CHL1  H23A 1984   1.802   4.758   4.513 -0.7997 -0.7360 -0.9555
   27CHL1  H23B 1985   1.947   4.819   4.433  2.2661 -1.3543 -0.1156
   27CHL1   C24 1986   1.898   4.625   4.359 -0.0132 -0.0198 -0.0966
   27CHL1  H24A 1987   2.002   4.588   4.345  0.7967  2.5455 -1.5773
   27CHL1  H24B 1988   1.821   4.550   4.385  0.9963 -0.8821  0.4919
   27CHL1   C25 1989   1.850   4.693   4.226  0.0480 -0.4278 -0.4721
   27CHL1   H25 1990   1.924   4.767   4.190  2.7497 -3.0951 -0.7959
   27CHL1   C26 1991   1.844   4.585   4.112 -0.6317 -0.3305  0.1201
   27CHL1  H26A 1992   1.951   4.570   4.088 -0.3179 -1.0092  1.7679
   27CHL1  H26B 1993   1.787   4.497   4.149  2.5201 -0.8346  4.6228
   27CHL1  H26C 1994   1.808   4.630   4.017  2.1336  0.2839 -0.7280
   27CHL1   C27 1995   1.715   4.771   4.221 -0.4727  0.1142  0.1520
   27CHL1  H27A 1996   1.706   4.814   4.119  2.6911  1.1163  0.1721
   27CHL1  H27B 1997   1.635   4.698   4.246 -0.3941 -0.7334 -1.8849
   27CHL1  H27C 1998   1.725   4.860   4.286  2.8781  0.7196 -0.9768
   28CHL1    C3 1999   2.523   0.029   6.000  0.7126 -0.0833  0.1716
   28CHL1    H3 2000   2.416   0.059   5.992  0.0099 -2.4920 -0.0598
   28CHL1    O3 2001   2.538  -0.036   6.123  0.1362 -0.3672 -0.0517
   28CHL1   H3' 2002   2.486   0.016   6.185 -0.6995  0.7392 -1.6170
   28CHL1    C4 2003   2.566  -0.055   5.883  0.0218 -0.2876  0.2513
   28CHL1   H4A 2004   2.665  -0.094   5.914  0.0194 -0.5775 -0.0951
   28CHL1   H4B 2005   2.498  -0.143   5.884  1.9850 -1.8746  0.7636
   28CHL1    C5 2006   2.564   0.017   5.747 -0.0884 -0.3108 -0.2111
   28CHL1    C6 2007   2.496  -0.030   5.643  0.4839  0.7905 -0.5002
   28CHL1    H6 2008   2.438  -0.122   5.660  2.2567 -0.3717 -0.4819
   28CHL1    C7 2009   2.483   0.040   5.518 -0.5840  0.0215  0.7971
   28CHL1   H7A 2010   2.481  -0.038   5.439 -1.7860  0.2263  0.6126
   28CHL1   H7B 2011   2.388   0.096   5.522 -0.4152  0.2362  3.0063
   28CHL1    C8 2012   2.590   0.151   5.489  1.0556 -0.0849 -0.7848
   28CHL1    H8 2013   2.684   0.095   5.472  1.4477 -0.1763  1.4976
   28CHL1   C14 2014   2.551   0.240   5.367 -0.4198 -1.1900 -0.2639
   28CHL1   H14 2015   2.455   0.283   5.404 -1.4079 -1.8755 -1.8823
   28CHL1   C15 2016   2.516   0.163   5.237  0.1798  0.1720  0.3816
   28CHL1  H15A 2017   2.591   0.086   5.209  0.0092  0.2885 -0.4142
   28CHL1  H15B 2018   2.414   0.119   5.248 -0.8208  1.9750 -1.1702
   28CHL1   C16 2019   2.519   0.277   5.136  0.6718 -0.1423 -0.0740
   28CHL1  H16A 2020   2.577   0.246   5.046  2.2762 -2.5723  1.6790
   28CHL1  H16B 2021   2.421   0.318   5.102  1.5580  1.2053 -1.0987
   28CHL1   C17 2022   2.567   0.407   5.209  0.0160  0.0740  0.6280
   28CHL1   H17 2023   2.475   0.458   5.245 -0.3764  0.1440 -0.4249
   28CHL1   C13 2024   2.645   0.355   5.338  0.6334 -0.5334 -0.8110
   28CHL1   C18 2025   2.785   0.314   5.299  0.1172  0.1283  0.4457
   28CHL1  H18A 2026   2.794   0.239   5.217  0.7034  0.6911 -0.0149
   28CHL1  H18B 2027   2.836   0.407   5.267  1.8212 -1.7030 -2.6717
   28CHL1  H18C 2028   2.844   0.272   5.384 -0.8419 -0.4138  0.8607
   28CHL1   C12 2029   2.642   0.446   5.468 -0.2294  0.9036 -0.2572
   28CHL1  H12A 2030   2.713   0.531   5.463  0.2997  0.4403 -0.7624
   28CHL1  H12B 2031   2.540   0.487   5.479 -0.8998 -0.9381  0.9271
   28CHL1   C11 2032   2.682   0.361   5.595  0.1612 -0.1656  0.7941
   28CHL1  H11A 2033   2.791   0.338   5.594  0.7115  2.1309 -0.5009
   28CHL1  H11B 2034   2.656   0.423   5.684 -0.3145 -0.8303  1.1211
   28CHL1    C9 2035   2.595   0.235   5.615  0.0320  0.4538 -0.8290
   28CHL1    H9 2036   2.495   0.281   5.631  0.0670  0.7018 -1.2923
   28CHL1   C10 2037   2.633   0.158   5.752 -0.3754 -0.3063 -0.1810
   28CHL1   C19 2038   2.793   0.140   5.753  0.4185  0.2397  0.0643
   28CHL1  H19A 2039   2.828   0.070   5.832  0.7071 -1.9004 -1.8648
   28CHL1  H19B 2040   2.825   0.109   5.652  3.6084  0.1968  0.9582
   28CHL1  H19C 2041   2.848   0.233   5.778 -1.1643  1.0009  0.8701
   28CHL1    C1 2042   2.584   0.236   5.878 -0.4466  0.5186  0.1751
   28CHL1   H1A 2043   2.641   0.331   5.875  0.5234 -0.0312  0.7946
   28CHL1   H1B 2044   2.479   0.273   5.871 -0.3873  0.4737 -1.2804
   28CHL1    C2 2045   2.603   0.157   6.010  0.4623 -0.2186 -0.5667
   28CHL1   H2A 2046   2.570   0.216   6.099  1.1398  1.7688 -1.5770
   28CHL1   H2B 2047   2.713   0.146   6.018  0.4598 -0.6637 -1.0837
   28CHL1   C20 2048   2.644   0.513   5.120  0.4694  0.8032  0.2428
   28CHL1   H20 2049   2.736   0.464   5.082 -0.3237 -1.2138  0.8219
   28CHL1   C21 2050   2.683   0.642   5.199  0.8594  0.9751 -0.0016
   28CHL1  H21A 2051   2.752   0.610   5.280 -0.8584 -0.3426  1.0179
   28CHL1  H21B 2052   2.595   0.688   5.249 -0.5164 -1.8660  0.4268
   28CHL1  H21C 2053   2.732   0.727   5.148  0.0866  0.7618 -1.1438
   28CHL1   C22 2054   2.576   0.548   4.992  0.9615 -0.0570  0.0082
   28CHL1  H22A 2055   2.561   0.458   4.929 -1.8434  0.8957 -0.8582
   28CHL1  H22B 2056   2.480   0.600   5.013  0.6748 -1.3848  2.2177
   28CHL1   C23 2057   2.663   0.632   4.902  0.6409  0.0301  0.2002
   28CHL1  H23A 2058   2.683   0.730   4.951 -0.1969  1.0741 -1.4567
   28CHL1  H23B 2059   2.761   0.585   4.877  0.9841  1.5957 -1.6919
   28CHL1   C24 2060   2.604   0.669   4.767  0.0523 -0.4999  0.6341
   28CHL1  H24A 2061   2.578   0.578   4.709 -1.6792  0.3792 -0.0380
   28CHL1  H24B 2062   2.512   0.727   4.789 -0.2474  0.0774 -1.8718
   28CHL1   C25 2063   2.705   0.756   4.684  0.1699  0.0094  0.1225
   28CHL1   H25 2064   2.795   0.694   4.665  0.7945  1.7186 -3.3146
   28CHL1   C26 2065   2.643   0.792   4.552 -0.1985 -0.3629 -0.3511
   28CHL1  H26A 2066   2.608   0.706   4.490  0.6903 -2.4089  1.8613
   28CHL1  H26B 2067   2.554   0.847   4.589 -0.1160 -0.1585 -0.4556
   28CHL1  H26C 2068   2.689   0.869   4.486  0.1159 -1.3544 -1.3308
   28CHL1   C27 2069   2.747   0.889   4.744  0.4436  0.0142 -0.1528
   28CHL1  H27A 2070   2.661   0.949   4.778 -0.4592 -1.1848 -0.2454
   28CHL1  H27B 2071   2.807   0.875   4.836  0.0376  0.7201  0.2217
   28CHL1  H27C 2072   2.799   0.953   4.669  0.3516 -0.6717 -0.8161
   29CHL1    C3 2073   0.005   3.337   2.848  0.3280  0.2155  0.0891
   29CHL1    H3 2074   0.084   3.414   2.835  0.2534  0.2041 -0.4507
   29CHL1    O3 2075  -0.006   3.292   2.714  0.5052  0.2912  0.1769
   29CHL1   H3' 2076   0.074   3.241   2.698  0.6190  0.6232 -0.3233
   29CHL1    C4 2077   0.062   3.234   2.942  0.9295 -0.1838 -0.4234
   29CHL1   H4A 2078  -0.019   3.158   2.941  2.0516 -1.4532  1.0480
   29CHL1   H4B 2079   0.142   3.167   2.905  0.6334 -0.8305  0.0854
   29CHL1    C5 2080   0.079   3.291   3.081 -0.2010  0.0545  0.0688
   29CHL1    C6 2081   0.195   3.289   3.149  0.4257 -0.3824  0.2138
   29CHL1    H6 2082   0.285   3.248   3.101 -0.6546 -1.9708 -0.5465
   29CHL1    C7 2083   0.214   3.335   3.291 -0.5608  0.0911 -0.3862
   29CHL1   H7A 2084   0.279   3.260   3.340 -1.3172 -0.0576  0.4205
   29CHL1   H7B 2085   0.269   3.431   3.299 -0.5264 -0.1170  3.0083
   29CHL1    C8 2086   0.082   3.342   3.364 -0.4442  0.1120 -0.0502
   29CHL1    H8 2087   0.050   3.238   3.387 -0.7490 -0.6606 -3.4947
   29CHL1   C14 2088   0.108   3.419   3.490  1.0093 -0.0611  0.3382
   29CHL1   H14 2089   0.149   3.520   3.466 -2.7716  1.5960  0.0498
   29CHL1   C15 2090   0.204   3.348   3.586  0.4379  0.0855  0.0276
   29CHL1  H15A 2091   0.176   3.241   3.603  0.9189 -0.0143  0.2023
   29CHL1  H15B 2092   0.307   3.347   3.545  0.4430  0.6797  0.0213
   29CHL1   C16 2093   0.198   3.437   3.710  0.0243  0.1138  0.2296
   29CHL1  H16A 2094   0.194   3.373   3.801  2.6924 -0.1222  0.2473
   29CHL1  H16B 2095   0.288   3.497   3.733 -0.4379  0.9891 -0.1891
   29CHL1   C17 2096   0.068   3.519   3.697 -0.7176  0.1201  0.4055
   29CHL1   H17 2097   0.096   3.620   3.659  0.0115 -0.4200 -0.5527
   29CHL1   C13 2098  -0.012   3.452   3.580 -0.0885  0.1651 -0.9782
   29CHL1   C18 2099  -0.068   3.323   3.648  0.4579 -0.4192  0.6642
   29CHL1  H18A 2100  -0.092   3.241   3.577 -2.1416 -0.2193  1.2210
   29CHL1  H18B 2101   0.001   3.281   3.725  2.0738  2.3266  0.8474
   29CHL1  H18C 2102  -0.163   3.327   3.706 -0.7206 -1.2402 -1.1057
   29CHL1   C12 2103  -0.121   3.529   3.501 -0.8075 -0.2413  0.5693
   29CHL1  H12A 2104  -0.215   3.560   3.552 -0.7661  1.2724 -0.2367
   29CHL1  H12B 2105  -0.070   3.622   3.469 -2.4358 -0.5689 -3.6295
   29CHL1   C11 2106  -0.155   3.452   3.370 -0.1267  0.2281  0.0665
   29CHL1  H11A 2107  -0.222   3.365   3.385 -0.9211  0.4142 -2.0753
   29CHL1  H11B 2108  -0.215   3.519   3.305 -0.6963  0.0047  0.3576
   29CHL1    C9 2109  -0.025   3.413   3.283  0.5189  0.0778 -0.5650
   29CHL1    H9 2110   0.010   3.514   3.252 -3.0144  1.3308 -0.9917
   29CHL1   C10 2111  -0.050   3.340   3.144  0.6597 -0.0276  0.2999
   29CHL1   C19 2112  -0.141   3.224   3.176  0.5035 -0.5084 -0.3139
   29CHL1  H19A 2113  -0.107   3.160   3.259 -0.5324 -0.6614  0.0020
   29CHL1  H19B 2114  -0.242   3.257   3.208 -0.2725  0.0825 -3.0640
   29CHL1  H19C 2115  -0.158   3.164   3.084  3.4005  0.5462 -1.6617
   29CHL1    C1 2116  -0.126   3.434   3.044 -0.1855 -0.1266  0.7319
   29CHL1   H1A 2117  -0.230   3.457   3.074  1.1186  4.3322  2.8597
   29CHL1   H1B 2118  -0.074   3.532   3.032 -0.8287  0.0254 -1.2983
   29CHL1    C2 2119  -0.131   3.383   2.901  0.3419  0.0480 -0.5578
   29CHL1   H2A 2120  -0.177   3.461   2.837 -3.4438 -1.0255  0.5531
   29CHL1   H2B 2121  -0.204   3.299   2.892  0.4675 -0.0719 -0.4497
   29CHL1   C20 2122   0.002   3.550   3.832  0.4116  0.0868  0.2551
   29CHL1   H20 2123  -0.015   3.450   3.878 -2.0872  0.2357 -0.2309
   29CHL1   C21 2124  -0.141   3.603   3.818 -0.2319 -0.4320  0.4934
   29CHL1  H21A 2125  -0.191   3.627   3.914 -3.5407 -0.0029 -1.2143
   29CHL1  H21B 2126  -0.203   3.523   3.773  0.6280 -0.0264 -1.5566
   29CHL1  H21C 2127  -0.132   3.699   3.762  3.4053 -0.1511  1.2602
   29CHL1   C22 2128   0.089   3.646   3.920 -0.0521  0.3634  0.0642
   29CHL1  H22A 2129   0.169   3.585   3.968  0.0100  1.4516  1.3797
   29CHL1  H22B 2130   0.136   3.721   3.853  0.8218 -0.7900 -0.6664
   29CHL1   C23 2131   0.026   3.721   4.032 -1.0140  0.0600  0.1561
   29CHL1  H23A 2132  -0.050   3.795   3.999 -0.7284  0.2013 -0.1919
   29CHL1  H23B 2133  -0.025   3.642   4.091 -0.3737 -2.0936 -1.9726
   29CHL1   C24 2134   0.132   3.793   4.123  0.7211 -0.0341  1.0451
   29CHL1  H24A 2135   0.091   3.816   4.224 -0.0656 -1.1822  1.0087
   29CHL1  H24B 2136   0.228   3.738   4.130 -0.1310 -1.4233  2.1856
   29CHL1   C25 2137   0.173   3.932   4.058 -0.4868  0.3525  0.2227
   29CHL1   H25 2138   0.182   3.901   3.952  2.1668 -2.0157  1.0107
   29CHL1   C26 2139   0.078   4.041   4.101  0.2852 -0.3155  0.3670
   29CHL1  H26A 2140   0.112   4.042   4.207  2.1370  2.5380 -0.1464
   29CHL1  H26B 2141   0.103   4.135   4.048 -0.9496 -1.6731 -2.8852
   29CHL1  H26C 2142  -0.024   4.003   4.078  0.8028 -1.8153  0.4084
   29CHL1   C27 2143   0.321   3.970   4.100 -0.5467  0.1083 -0.4268
   29CHL1  H27A 2144   0.338   3.955   4.209 -1.4697 -0.2702 -0.3334
   29CHL1  H27B 2145   0.390   3.910   4.037  2.8642  1.5839  1.5975
   29CHL1  H27C 2146   0.334   4.079   4.081 -1.4103  0.0066 -1.6841
   30CHL1    C3 2147   1.451   1.025   2.715 -0.3193 -0.0698 -0.2461
   30CHL1    H3 2148   1.547   1.039   2.770  1.6475 -0.9368 -3.2521
   30CHL1    O3 2149   1.487   1.080   2.588  0.4101  0.1676 -0.1757
   30CHL1   H3' 2150   1.400   1.095   2.549  0.4256 -1.0845 -0.7390
   30CHL1    C4 2151   1.413   0.880   2.703 -0.0982  0.4079  0.3377
   30CHL1   H4A 2152   1.334   0.854   2.630  1.3505  1.0452 -1.5428
   30CHL1   H4B 2153   1.493   0.828   2.646 -1.9254  0.0085 -1.9961
   30CHL1    C5 2154   1.388   0.831   2.843  0.1417  0.2557  0.3015
   30CHL1    C6 2155   1.452   0.728   2.900 -0.1183 -0.2594  0.3001
   30CHL1    H6 2156   1.530   0.674   2.844  1.3298  1.4001  0.6644
   30CHL1    C7 2157   1.413   0.676   3.036 -0.0415 -0.2680  0.6138
   30CHL1   H7A 2158   1.402   0.565   3.027 -2.3764 -0.1195  1.0457
   30CHL1   H7B 2159   1.497   0.701   3.104  0.5436 -0.4030 -0.0369
   30CHL1    C8 2160   1.282   0.730   3.092  0.4058  0.1766 -0.7124
   30CHL1    H8 2161   1.197   0.673   3.050 -1.3841  1.4632  0.9882
   30CHL1   C14 2162   1.272   0.703   3.246  0.0047 -1.2789 -0.6044
   30CHL1   H14 2163   1.350   0.774   3.280 -1.5849  0.4798 -0.4335
   30CHL1   C15 2164   1.298   0.563   3.291 -0.0573 -0.7322  0.0597
   30CHL1  H15A 2165   1.241   0.500   3.219  2.8933 -1.9162 -1.4013
   30CHL1  H15B 2166   1.403   0.528   3.283  0.5060  0.7240  0.7157
   30CHL1   C16 2167   1.252   0.560   3.436  1.1521  0.1109 -0.0230
   30CHL1  H16A 2168   1.172   0.484   3.452  0.5674  0.4971 -1.0049
   30CHL1  H16B 2169   1.343   0.549   3.498  0.2524 -1.6044  1.0688
   30CHL1   C17 2170   1.184   0.695   3.467  0.3534 -1.3267  0.1784
   30CHL1   H17 2171   1.260   0.765   3.507 -1.3247  0.9757 -0.4584
   30CHL1   C13 2172   1.144   0.752   3.323 -0.8826  0.6826  0.1050
   30CHL1   C18 2173   1.029   0.668   3.267  0.7056 -0.1146  0.1751
   30CHL1  H18A 2174   1.020   0.688   3.158 -0.5097  2.4912  0.6781
   30CHL1  H18B 2175   1.043   0.558   3.276  0.7875 -0.0914  0.3383
   30CHL1  H18C 2176   0.937   0.698   3.322 -0.3708  0.8670 -2.0291
   30CHL1   C12 2177   1.135   0.904   3.300 -0.5756 -0.3419 -0.2903
   30CHL1  H12A 2178   1.037   0.940   3.339  1.5622  2.6742  2.9048
   30CHL1  H12B 2179   1.228   0.945   3.344 -0.7313 -1.8642  1.5821
   30CHL1   C11 2180   1.139   0.935   3.146  0.4207 -1.3484 -0.6897
   30CHL1  H11A 2181   1.054   0.884   3.096 -2.3968  0.9469  1.3864
   30CHL1  H11B 2182   1.117   1.044   3.142 -0.5727 -1.4801  0.3412
   30CHL1    C9 2183   1.266   0.876   3.072  0.2760 -0.3768 -0.2167
   30CHL1    H9 2184   1.357   0.919   3.118 -0.3328  0.1733  0.5042
   30CHL1   C10 2185   1.279   0.914   2.919  0.9306 -0.2019 -0.4864
   30CHL1   C19 2186   1.145   0.885   2.847  0.1107  0.3834 -0.4610
   30CHL1  H19A 2187   1.158   0.925   2.744  0.4360 -0.7328 -0.8736
   30CHL1  H19B 2188   1.136   0.775   2.835 -0.8743  0.7251 -3.9405
   30CHL1  H19C 2189   1.056   0.929   2.897  0.1675  2.5982 -2.1302
   30CHL1    C1 2190   1.315   1.066   2.921 -0.5309  0.3854 -0.2561
   30CHL1   H1A 2191   1.234   1.132   2.959 -0.2519  0.7823 -0.3482
   30CHL1   H1B 2192   1.396   1.084   2.995  2.5746  0.2736 -3.3898
   30CHL1    C2 2193   1.345   1.117   2.783  0.1198  0.2698 -0.3463
   30CHL1   H2A 2194   1.388   1.220   2.785 -1.5074  1.0172  2.3305
   30CHL1   H2B 2195   1.257   1.126   2.716  0.8261 -2.7797 -1.8263
   30CHL1   C20 2196   1.068   0.689   3.566 -0.7967 -0.4370 -0.3195
   30CHL1   H20 2197   0.993   0.617   3.527  0.7888 -2.0334 -0.5343
   30CHL1   C21 2198   1.025   0.828   3.602 -0.2798 -0.4879  0.3190
   30CHL1  H21A 2199   1.110   0.892   3.634 -0.4599 -1.4000  2.8743
   30CHL1  H21B 2200   0.945   0.831   3.679  0.3232 -0.2567  0.9450
   30CHL1  H21C 2201   0.979   0.880   3.515 -0.2599  1.5545  1.4683
   30CHL1   C22 2202   1.109   0.619   3.697 -0.2442  0.3958  0.4079
   30CHL1  H22A 2203   1.127   0.513   3.671  1.8498  0.5040  1.1882
   30CHL1  H22B 2204   1.203   0.669   3.727  0.2278  0.1840 -0.6627
   30CHL1   C23 2205   1.017   0.617   3.818 -0.4756 -0.1073 -0.3461
   30CHL1  H23A 2206   1.019   0.718   3.863  0.4393  0.3364 -1.3342
   30CHL1  H23B 2207   0.916   0.587   3.784  0.1117 -0.8988 -1.4957
   30CHL1   C24 2208   1.062   0.503   3.914  0.5407  0.2121 -0.1185
   30CHL1  H24A 2209   1.013   0.408   3.884 -1.2370  0.5823  1.3781
   30CHL1  H24B 2210   1.171   0.493   3.893  1.2226  0.5595  2.8306
   30CHL1   C25 2211   1.042   0.528   4.065 -0.4650 -0.5762 -0.6230
   30CHL1   H25 2212   1.060   0.636   4.084  1.3446 -1.0589  0.6536
   30CHL1   C26 2213   0.896   0.508   4.113 -0.4584 -0.1332 -0.5920
   30CHL1  H26A 2214   0.882   0.398   4.114  0.3201 -0.3058 -2.8817
   30CHL1  H26B 2215   0.879   0.540   4.218 -2.2763 -0.1893 -0.8466
   30CHL1  H26C 2216   0.819   0.553   4.048 -0.9415 -0.7425 -0.4489
   30CHL1   C27 2217   1.151   0.457   4.156 -0.4256  0.1658 -0.0638
   30CHL1  H27A 2218   1.155   0.348   4.137  2.1200  0.0307  0.9343
   30CHL1  H27B 2219   1.254   0.491   4.135 -0.5857  0.1071 -1.0182
   30CHL1  H27C 2220   1.131   0.476   4.264 -0.0819  0.3439 -0.0331
   31CHL1    C3 2221   2.348   6.536   2.799  1.0417  0.2801 -0.3002
   31CHL1    H3 2222   2.447   6.494   2.830 -0.1430 -1.7389  0.9642
   31CHL1    O3 2223   2.336   6.506   2.662  0.0496  0.0049 -0.1310
   31CHL1   H3' 2224   2.373   6.417   2.657  0.8520  0.3842 -1.2230
   31CHL1    C4 2225   2.239   6.444   2.875 -0.3344  0.1960  0.4164
   31CHL1   H4A 2226   2.145   6.479   2.828  0.4558  1.1257 -0.5227
   31CHL1   H4B 2227   2.270   6.342   2.843  1.3694  1.3307 -1.8893
   31CHL1    C5 2228   2.248   6.467   3.025 -0.6078  0.1030  0.0315
   31CHL1    C6 2229   2.285   6.365   3.108 -0.0861 -0.5742 -0.0058
   31CHL1    H6 2230   2.312   6.267   3.068 -1.8071 -0.9449 -0.3282
   31CHL1    C7 2231   2.282   6.381   3.257 -0.1177 -0.3300 -0.1627
   31CHL1   H7A 2232   2.226   6.296   3.302 -2.7748  1.2101 -0.4046
   31CHL1   H7B 2233   2.389   6.378   3.290 -0.0846  3.4409  0.5176
   31CHL1    C8 2234   2.220   6.511   3.305  0.2567 -0.6517  0.4632
   31CHL1    H8 2235   2.110   6.495   3.302  0.0322  0.8584 -1.0367
   31CHL1   C14 2236   2.259   6.549   3.452 -1.0070  0.4979 -0.6983
   31CHL1   H14 2237   2.370   6.560   3.447 -0.4861 -2.6523  1.2944
   31CHL1   C15 2238   2.240   6.441   3.565  0.5572  0.5522  0.3268
   31CHL1  H15A 2239   2.146   6.383   3.557  0.3387  0.5299  2.5174
   31CHL1  H15B 2240   2.325   6.371   3.548  1.3088  1.4716  0.2290
   31CHL1   C16 2241   2.252   6.523   3.695  0.1565  0.4207 -0.3084
   31CHL1  H16A 2242   2.163   6.499   3.757 -0.1338 -2.4071 -1.6585
   31CHL1  H16B 2243   2.337   6.483   3.755 -2.1484 -3.6717  0.6187
   31CHL1   C17 2244   2.252   6.672   3.656 -0.7649 -0.7932  1.0515
   31CHL1   H17 2245   2.357   6.706   3.643  0.0742 -3.8659 -1.6805
   31CHL1   C13 2246   2.198   6.680   3.510 -0.5318  0.4191 -0.2988
   31CHL1   C18 2247   2.045   6.668   3.510  0.5142  0.1815 -0.3933
   31CHL1  H18A 2248   2.019   6.585   3.579  0.3669  0.4316 -0.1465
   31CHL1  H18B 2249   1.991   6.758   3.547  1.3256  0.1343  0.9864
   31CHL1  H18C 2250   2.000   6.650   3.410  0.3866  0.1561 -0.3320
   31CHL1   C12 2251   2.241   6.787   3.420  0.2839 -0.2357 -0.6290
   31CHL1  H12A 2252   2.220   6.892   3.447 -0.5755 -0.5327 -0.0979
   31CHL1  H12B 2253   2.352   6.786   3.417  0.3054  1.3897 -0.8659
   31CHL1   C11 2254   2.205   6.770   3.270 -1.1255  0.4036  0.9715
   31CHL1  H11A 2255   2.096   6.788   3.266 -0.8384  2.0830 -1.6982
   31CHL1  H11B 2256   2.255   6.850   3.211 -0.2991  0.5042  1.7762
   31CHL1    C9 2257   2.256   6.634   3.214  0.2848 -0.3784 -0.1425
   31CHL1    H9 2258   2.367   6.639   3.222  0.2273 -1.0123  1.1280
   31CHL1   C10 2259   2.216   6.607   3.065 -0.8988  0.6105 -0.5105
   31CHL1   C19 2260   2.070   6.643   3.035  0.0667  0.8494 -0.5080
   31CHL1  H19A 2261   2.048   6.638   2.926  0.1986  1.7486 -0.5796
   31CHL1  H19B 2262   2.001   6.570   3.083  0.9494  1.3902  1.6965
   31CHL1  H19C 2263   2.039   6.743   3.072 -2.4961 -0.4215  1.1019
   31CHL1    C1 2264   2.308   6.705   2.978 -0.1455 -0.1604 -0.3106
   31CHL1   H1A 2265   2.269   6.807   2.999  0.5793  0.3456 -1.3233
   31CHL1   H1B 2266   2.414   6.690   3.006  0.3190 -0.1688 -1.9877
   31CHL1    C2 2267   2.316   6.681   2.827 -0.2285  0.0049  0.4161
   31CHL1   H2A 2268   2.398   6.743   2.783 -1.1448  0.4822 -0.6585
   31CHL1   H2B 2269   2.223   6.730   2.790  0.2010  0.8570  0.4438
   31CHL1   C20 2270   2.190   6.759   3.766  0.0916  0.1560 -0.7467
   31CHL1   H20 2271   2.082   6.735   3.767 -0.2875  1.7452 -1.1774
   31CHL1   C21 2272   2.215   6.909   3.748  0.4290  0.4439  0.0943
   31CHL1  H21A 2273   2.139   6.973   3.798 -2.9404 -1.3876 -2.2423
   31CHL1  H21B 2274   2.193   6.942   3.644  1.2672  0.1029 -0.2034
   31CHL1  H21C 2275   2.321   6.934   3.770  0.7266 -1.1955  0.6671
   31CHL1   C22 2276   2.241   6.711   3.907 -0.9717  0.2720 -0.0249
   31CHL1  H22A 2277   2.196   6.613   3.936 -0.9446  0.3696  0.3459
   31CHL1  H22B 2278   2.350   6.693   3.896 -0.7183  2.1600 -1.0761
   31CHL1   C23 2279   2.206   6.793   4.031 -0.5255 -0.8006 -0.1839
   31CHL1  H23A 2280   2.221   6.900   4.003  3.7124 -1.4686 -1.2310
   31CHL1  H23B 2281   2.103   6.782   4.072 -0.5720  0.5250  0.1140
   31CHL1   C24 2282   2.297   6.749   4.150 -0.1772 -0.2471 -0.6483
   31CHL1  H24A 2283   2.300   6.638   4.158  0.2768 -0.1290  1.6628
   31CHL1  H24B 2284   2.398   6.788   4.124 -0.9628  0.9354 -2.0292
   31CHL1   C25 2285   2.270   6.815   4.293 -0.7267 -0.4335  0.0203
   31CHL1   H25 2286   2.239   6.919   4.268 -0.9011 -0.8483 -1.5968
   31CHL1   C26 2287   2.165   6.745   4.379  0.6015 -0.1877 -0.6719
   31CHL1  H26A 2288   2.163   6.780   4.484  1.7760 -1.0901 -0.3211
   31CHL1  H26B 2289   2.063   6.753   4.335  0.3556 -0.8759 -0.2485
   31CHL1  H26C 2290   2.190   6.637   4.387 -0.0035 -0.2347  1.1248
   31CHL1   C27 2291   2.398   6.819   4.376 -0.3957 -0.7191 -0.0443
   31CHL1  H27A 2292   2.365   6.861   4.474 -1.6257  2.1819 -1.5898
   31CHL1  H27B 2293   2.431   6.714   4.391 -1.8923 -1.4774 -1.7217
   31CHL1  H27C 2294   2.485   6.879   4.342 -1.2028  1.0455  0.8394
   32CHL1    C3 2295   1.085   5.840   2.508 -0.1015  0.0540  0.2023
   32CHL1    H3 2296   1.181   5.799   2.548 -0.7675 -0.5883  1.1948
   32CHL1    O3 2297   1.089   5.888   2.378  0.5914  0.2223  0.1442
   32CHL1   H3' 2298   1.003   5.927   2.363 -0.5528 -2.4955 -1.0542
   32CHL1    C4 2299   0.968   5.734   2.524  1.0642  0.0826 -0.3435
   32CHL1   H4A 2300   0.871   5.766   2.480  1.3099  0.1670 -0.8390
   32CHL1   H4B 2301   1.000   5.651   2.456  0.0657 -0.0446 -0.6854
   32CHL1    C5 2302   0.954   5.690   2.671 -0.4686 -0.4145  0.3140
   32CHL1    C6 2303   0.972   5.561   2.705  0.2249  0.5664  0.1814
   32CHL1    H6 2304   0.994   5.492   2.622  0.9985 -0.7048  1.3963
   32CHL1    C7 2305   0.946   5.503   2.837 -0.1625 -0.5139  0.3208
   32CHL1   H7A 2306   0.872   5.421   2.825 -2.3384  1.5338 -1.2045
   32CHL1   H7B 2307   1.042   5.469   2.881  1.6164  2.8014 -0.6568
   32CHL1    C8 2308   0.877   5.611   2.925 -0.1019  0.8040  0.2925
   32CHL1    H8 2309   0.768   5.621   2.905 -0.4575 -0.8980  1.2041
   32CHL1   C14 2310   0.885   5.578   3.067  0.6336  0.2342  1.0385
   32CHL1   H14 2311   0.991   5.594   3.094  1.1751  0.1892 -0.8936
   32CHL1   C15 2312   0.848   5.434   3.109 -0.4684  0.1123  0.4356
   32CHL1  H15A 2313   0.746   5.419   3.068 -1.5907 -1.1286  3.3879
   32CHL1  H15B 2314   0.922   5.359   3.073  0.1010  1.1220 -0.5532
   32CHL1   C16 2315   0.855   5.433   3.264  0.0586  0.0448 -0.8908
   32CHL1  H16A 2316   0.771   5.371   3.303  0.1340 -0.4676 -1.5356
   32CHL1  H16B 2317   0.947   5.397   3.314  0.2099  2.8864  1.1216
   32CHL1   C17 2318   0.839   5.584   3.308 -0.5987 -0.0831 -0.2099
   32CHL1   H17 2319   0.937   5.624   3.341 -0.6801  0.5352 -0.6927
   32CHL1   C13 2320   0.816   5.661   3.176 -0.2289 -0.4170  0.2654
   32CHL1   C18 2321   0.668   5.660   3.138 -0.5095 -0.1304 -0.6712
   32CHL1  H18A 2322   0.650   5.699   3.036 -2.1853 -1.4766 -0.9404
   32CHL1  H18B 2323   0.630   5.555   3.141  0.0083 -0.3507 -1.5398
   32CHL1  H18C 2324   0.605   5.721   3.205  1.4948  0.6164  0.6381
   32CHL1   C12 2325   0.887   5.799   3.153 -0.9172  0.2003 -0.3971
   32CHL1  H12A 2326   0.854   5.880   3.222 -0.9815  0.9919 -1.3284
   32CHL1  H12B 2327   0.994   5.783   3.177 -1.4191  0.2214  2.0746
   32CHL1   C11 2328   0.891   5.852   3.010 -0.0611 -0.0438  0.0547
   32CHL1  H11A 2329   0.795   5.905   2.991  0.3001  0.3428 -0.7777
   32CHL1  H11B 2330   0.962   5.937   3.000  0.6863 -0.7348 -0.6522
   32CHL1    C9 2331   0.932   5.745   2.904  0.4296 -0.5801  0.1123
   32CHL1    H9 2332   1.039   5.724   2.925  1.2447 -1.8465 -4.2988
   32CHL1   C10 2333   0.928   5.808   2.763 -0.1569  0.2406  0.6460
   32CHL1   C19 2334   0.777   5.849   2.736 -0.3823  0.3365  0.4762
   32CHL1  H19A 2335   0.763   5.873   2.629 -1.6570 -2.9071 -0.2211
   32CHL1  H19B 2336   0.721   5.755   2.756  0.2804 -0.1187  0.2018
   32CHL1  H19C 2337   0.733   5.921   2.809 -0.0064  2.0526 -0.9294
   32CHL1    C1 2338   1.031   5.924   2.744  0.2607  0.7935 -0.0494
   32CHL1   H1A 2339   0.995   6.013   2.801  0.8265  1.0270 -0.0495
   32CHL1   H1B 2340   1.129   5.894   2.787  0.3744 -1.3757 -1.6792
   32CHL1    C2 2341   1.059   5.960   2.598 -0.2034 -0.2134  0.1756
   32CHL1   H2A 2342   1.149   6.024   2.594 -0.8975  1.1258  3.1188
   32CHL1   H2B 2343   0.967   6.017   2.570 -1.0449 -0.9423  1.3523
   32CHL1   C20 2344   0.743   5.596   3.423 -0.0063 -0.3085  0.1387
   32CHL1   H20 2345   0.637   5.595   3.391  0.4705 -1.8216 -1.6062
   32CHL1   C21 2346   0.771   5.736   3.486 -0.2504  0.8041 -0.0787
   32CHL1  H21A 2347   0.880   5.746   3.504  0.4725 -1.7917 -2.2409
   32CHL1  H21B 2348   0.716   5.748   3.581  0.7817 -0.5683  0.7342
   32CHL1  H21C 2349   0.744   5.813   3.410 -1.2318 -0.2907 -0.8892
   32CHL1   C22 2350   0.763   5.487   3.530 -0.3432  0.3957 -0.8824
   32CHL1  H22A 2351   0.700   5.520   3.615 -1.0227 -0.5966 -0.9906
   32CHL1  H22B 2352   0.729   5.383   3.512  0.2387  0.0423 -0.0252
   32CHL1   C23 2353   0.900   5.485   3.596 -0.3292 -0.2702  0.2438
   32CHL1  H23A 2354   0.978   5.480   3.517 -1.7079  1.9224 -1.3593
   32CHL1  H23B 2355   0.923   5.582   3.645 -1.7781 -0.2773  0.9928
   32CHL1   C24 2356   0.903   5.368   3.698  0.0313 -0.4500  0.7195
   32CHL1  H24A 2357   0.821   5.394   3.769 -0.8225  2.1740 -1.0598
   32CHL1  H24B 2358   0.893   5.267   3.653 -1.9315 -0.1212  0.3393
   32CHL1   C25 2359   1.039   5.363   3.771 -0.3549  0.7247 -0.4756
   32CHL1   H25 2360   1.118   5.366   3.693 -0.3518  3.0012 -0.4802
   32CHL1   C26 2361   1.069   5.489   3.852 -0.5658  0.2725  0.3919
   32CHL1  H26A 2362   1.094   5.575   3.786 -0.2165  0.7975  1.1926
   32CHL1  H26B 2363   0.979   5.522   3.908 -1.2220  0.7401 -0.9115
   32CHL1  H26C 2364   1.153   5.474   3.924  0.2670 -1.8464 -0.9263
   32CHL1   C27 2365   1.054   5.228   3.853  0.3350 -0.2032  0.1071
   32CHL1  H27A 2366   1.157   5.225   3.895  0.4605  2.1534  0.0932
   32CHL1  H27B 2367   0.979   5.210   3.933  3.3802 -2.9659  2.6735
   32CHL1  H27C 2368   1.045   5.145   3.779  0.2243  0.1740 -0.3044
   33CHL1    C3 2369   6.277   5.501   2.632 -0.1275  0.6385 -0.3535
   33CHL1    H3 2370   6.177   5.539   2.660  0.9981  1.3221  3.4224
   33CHL1    O3 2371   6.306   5.507   2.493 -0.6251  0.2322 -0.1295
   33CHL1   H3' 2372   6.361   5.584   2.478 -2.0433  1.5385  1.0552
   33CHL1    C4 2373   6.383   5.586   2.700 -0.4417 -0.1289  0.6360
   33CHL1   H4A 2374   6.481   5.562   2.653 -1.3934 -2.1580 -0.4257
   33CHL1   H4B 2375   6.352   5.689   2.673 -1.7528 -0.2985  1.4067
   33CHL1    C5 2376   6.391   5.581   2.853  0.7136 -0.2707  0.3329
   33CHL1    C6 2377   6.372   5.695   2.929 -0.2699  0.4654  0.6407
   33CHL1    H6 2378   6.348   5.793   2.884  0.8294 -0.2304 -1.6010
   33CHL1    C7 2379   6.370   5.689   3.076  0.1167 -0.1455 -0.2760
   33CHL1   H7A 2380   6.419   5.778   3.120 -2.2649  0.7819  0.6682
   33CHL1   H7B 2381   6.268   5.695   3.118  0.4914  0.9592  0.5326
   33CHL1    C8 2382   6.438   5.567   3.139 -0.5605 -0.3849 -0.3807
   33CHL1    H8 2383   6.547   5.583   3.122 -0.9480  0.6067 -2.1660
   33CHL1   C14 2384   6.391   5.553   3.283 -0.4825 -0.2870  0.0789
   33CHL1   H14 2385   6.282   5.541   3.268 -0.8198  3.3570 -1.7730
   33CHL1   C15 2386   6.391   5.678   3.376 -0.7126  0.3111  0.5156
   33CHL1  H15A 2387   6.486   5.733   3.357  0.2604 -1.3813  0.2516
   33CHL1  H15B 2388   6.310   5.747   3.345  1.0229  1.8048 -0.9198
   33CHL1   C16 2389   6.386   5.619   3.513 -0.4418  0.1420  0.5505
   33CHL1  H16A 2390   6.480   5.654   3.561 -0.4436  1.6436 -0.4888
   33CHL1  H16B 2391   6.301   5.653   3.576 -1.8839 -1.6804 -0.3134
   33CHL1   C17 2392   6.372   5.461   3.485 -0.2181  0.1638  0.6824
   33CHL1   H17 2393   6.269   5.439   3.449  0.5134  0.8588 -2.1246
   33CHL1   C13 2394   6.446   5.439   3.358  0.3789  0.6266  0.0871
   33CHL1   C18 2395   6.598   5.450   3.386  0.0875  0.0653 -0.2250
   33CHL1  H18A 2396   6.624   5.383   3.470  1.9677 -0.7770 -1.4159
   33CHL1  H18B 2397   6.664   5.427   3.300  1.0186  1.5514  0.0537
   33CHL1  H18C 2398   6.623   5.553   3.419 -2.5324 -0.0111  2.4370
   33CHL1   C12 2399   6.434   5.306   3.278  0.1932  0.6442 -0.3082
   33CHL1  H12A 2400   6.477   5.213   3.321 -0.8489  0.4315  0.3143
   33CHL1  H12B 2401   6.324   5.288   3.274  0.3407 -0.1043 -1.7987
   33CHL1   C11 2402   6.478   5.327   3.135  0.1425  0.0983 -0.5290
   33CHL1  H11A 2403   6.588   5.342   3.134  0.4354 -1.3212  1.8130
   33CHL1  H11B 2404   6.470   5.224   3.093  1.5597 -1.1396  2.0081
   33CHL1    C9 2405   6.403   5.439   3.070 -0.1742 -0.2430  0.3668
   33CHL1    H9 2406   6.295   5.419   3.089 -0.2091 -0.7778 -0.3650
   33CHL1   C10 2407   6.409   5.445   2.917  0.3513  0.2980  0.7774
   33CHL1   C19 2408   6.552   5.396   2.866 -0.2004  0.8302 -0.3094
   33CHL1  H19A 2409   6.554   5.291   2.904  1.9030  0.3629 -1.5262
   33CHL1  H19B 2410   6.568   5.390   2.756  2.0840  1.4265 -0.0737
   33CHL1  H19C 2411   6.638   5.459   2.898  1.0568 -0.5328 -0.8962
   33CHL1    C1 2412   6.306   5.349   2.848  0.3803  0.0557 -0.2499
   33CHL1   H1A 2413   6.341   5.247   2.874  2.4483  0.3268 -1.7250
   33CHL1   H1B 2414   6.210   5.364   2.902 -0.2176 -2.6849 -0.4492
   33CHL1    C2 2415   6.293   5.358   2.689  0.0065  0.2116 -0.3028
   33CHL1   H2A 2416   6.197   5.310   2.661 -0.5939 -0.3290  2.4517
   33CHL1   H2B 2417   6.375   5.307   2.633 -1.6345  1.2198 -3.9564
   33CHL1   C20 2418   6.405   5.372   3.607  0.0589  0.3454 -0.2402
   33CHL1   H20 2419   6.471   5.295   3.560 -0.4017 -1.3278  1.6977
   33CHL1   C21 2420   6.276   5.298   3.661  0.1036  0.5851 -0.0062
   33CHL1  H21A 2421   6.209   5.384   3.683 -0.4783 -0.0628  0.8205
   33CHL1  H21B 2422   6.309   5.239   3.749 -2.2197  1.9192  1.8907
   33CHL1  H21C 2423   6.225   5.238   3.583 -1.1584  1.3111  0.2273
   33CHL1   C22 2424   6.490   5.438   3.711  0.2699  0.5614 -0.0341
   33CHL1  H22A 2425   6.573   5.496   3.665 -0.8937  1.4974 -1.0304
   33CHL1  H22B 2426   6.419   5.510   3.756 -0.5488 -0.0302 -0.3572
   33CHL1   C23 2427   6.546   5.350   3.822  0.6419 -0.1788  0.0408
   33CHL1  H23A 2428   6.475   5.278   3.868 -0.3504 -0.0296 -1.1943
   33CHL1  H23B 2429   6.636   5.302   3.776  0.1342 -1.7758  0.6498
   33CHL1   C24 2430   6.597   5.444   3.935 -0.0081  0.3984 -0.4689
   33CHL1  H24A 2431   6.666   5.516   3.886  0.3697  0.2578 -0.1425
   33CHL1  H24B 2432   6.510   5.511   3.954 -0.3463  0.4336 -2.0114
   33CHL1   C25 2433   6.651   5.369   4.056  0.5256  0.7846  0.2125
   33CHL1   H25 2434   6.704   5.280   4.015 -0.2728  0.1243  0.5794
   33CHL1   C26 2435   6.746   5.449   4.139  0.4206 -0.2026 -0.6306
   33CHL1  H26A 2436   6.805   5.374   4.197  1.5627  0.4253 -0.9716
   33CHL1  H26B 2437   6.796   5.518   4.070 -3.1386  0.7923 -2.4804
   33CHL1  H26C 2438   6.698   5.521   4.209  3.2914 -0.4942  1.8248
   33CHL1   C27 2439   6.539   5.310   4.147  0.6838 -0.2322 -0.4029
   33CHL1  H27A 2440   6.571   5.302   4.253  0.3561 -1.7304 -0.3933
   33CHL1  H27B 2441   6.456   5.383   4.148  1.8556  1.1383 -0.1380
   33CHL1  H27C 2442   6.505   5.218   4.095  1.1037 -0.6189 -0.0028
   34CHL1    C3 2443   3.333   6.284   2.700 -0.0099  0.4035  0.2937
   34CHL1    H3 2444   3.371   6.181   2.690 -1.6301 -0.0700 -1.7366
   34CHL1    O3 2445   3.293   6.315   2.565 -0.5220  0.1322 -0.3157
   34CHL1   H3' 2446   3.212   6.265   2.548 -0.7466  0.3550  0.0789
   34CHL1    C4 2447   3.204   6.286   2.782 -0.2344 -0.4710  0.1408
   34CHL1   H4A 2448   3.156   6.385   2.770 -0.2925 -0.5453 -0.2482
   34CHL1   H4B 2449   3.129   6.216   2.739 -0.5754  0.7681 -1.3707
   34CHL1    C5 2450   3.244   6.258   2.929  0.2282 -0.4136  0.0477
   34CHL1    C6 2451   3.192   6.156   2.996 -0.3661 -0.4958 -0.1168
   34CHL1    H6 2452   3.128   6.089   2.936  0.7369 -0.7187 -1.0856
   34CHL1    C7 2453   3.218   6.132   3.138 -0.5632 -0.4487  0.1150
   34CHL1   H7A 2454   3.132   6.090   3.194  1.1172  1.6438  4.7686
   34CHL1   H7B 2455   3.296   6.054   3.136  0.3097  0.4155 -0.2840
   34CHL1    C8 2456   3.278   6.256   3.207  0.1379 -1.1693 -0.0099
   34CHL1    H8 2457   3.198   6.333   3.215  0.3494 -0.8370 -1.0296
   34CHL1   C14 2458   3.338   6.217   3.339  0.1837 -0.1078 -0.4688
   34CHL1   H14 2459   3.429   6.155   3.325  0.4702 -0.2897  1.7503
   34CHL1   C15 2460   3.258   6.129   3.440  0.7510  0.1992 -0.0560
   34CHL1  H15A 2461   3.153   6.163   3.425  0.4285 -0.4970  0.5281
   34CHL1  H15B 2462   3.268   6.022   3.412 -0.2295 -0.1281  0.7637
   34CHL1   C16 2463   3.307   6.175   3.582  0.0848  0.2334  0.4675
   34CHL1  H16A 2464   3.223   6.222   3.638  0.2550  1.0212  0.0762
   34CHL1  H16B 2465   3.345   6.085   3.635  0.3842 -0.1036 -0.3020
   34CHL1   C17 2466   3.418   6.282   3.559 -0.1498  0.0215  0.2976
   34CHL1   H17 2467   3.512   6.230   3.531  0.6092  2.4914 -2.2816
   34CHL1   C13 2468   3.386   6.336   3.421 -0.6412  0.4855  0.0833
   34CHL1   C18 2469   3.273   6.450   3.447 -0.2443 -0.2059  0.3491
   34CHL1  H18A 2470   3.206   6.418   3.529 -1.8915 -0.9172 -1.2069
   34CHL1  H18B 2471   3.324   6.542   3.482  1.6765 -1.2181  0.2987
   34CHL1  H18C 2472   3.213   6.478   3.357  0.5962 -1.7879 -0.7367
   34CHL1   C12 2473   3.502   6.398   3.353 -0.3005 -0.1680  0.3697
   34CHL1  H12A 2474   3.533   6.494   3.401 -0.8622 -0.5570  1.5424
   34CHL1  H12B 2475   3.595   6.336   3.346  0.0690  0.5091 -1.1157
   34CHL1   C11 2476   3.468   6.432   3.204  0.3245 -0.1950  1.3146
   34CHL1  H11A 2477   3.408   6.525   3.212 -0.4338 -0.2294 -2.3956
   34CHL1  H11B 2478   3.564   6.445   3.151 -0.6640 -3.6680 -1.7484
   34CHL1    C9 2479   3.393   6.316   3.124  0.2717  0.2184 -0.2348
   34CHL1    H9 2480   3.463   6.231   3.110 -0.5074 -0.2807 -1.3251
   34CHL1   C10 2481   3.347   6.359   2.984  0.2170 -0.1574 -0.5552
   34CHL1   C19 2482   3.279   6.499   2.994 -0.3345 -0.0506  0.0921
   34CHL1  H19A 2483   3.351   6.584   3.002 -0.8308  0.2807  1.2199
   34CHL1  H19B 2484   3.210   6.515   2.908  0.1401 -0.8711 -0.4592
   34CHL1  H19C 2485   3.210   6.498   3.080  0.9767 -0.0633  1.1820
   34CHL1    C1 2486   3.469   6.356   2.888  0.5251  0.9704  0.0947
   34CHL1   H1A 2487   3.547   6.432   2.912  2.0362 -0.7302  0.8835
   34CHL1   H1B 2488   3.516   6.258   2.912 -0.7927  0.4359  0.5757
   34CHL1    C2 2489   3.441   6.383   2.742  0.0133 -0.1180  1.1603
   34CHL1   H2A 2490   3.535   6.364   2.685 -0.8258 -0.6188 -0.1074
   34CHL1   H2B 2491   3.408   6.484   2.708  2.3827  0.0401 -0.9863
   34CHL1   C20 2492   3.441   6.375   3.678 -0.1253 -0.1944  0.3371
   34CHL1   H20 2493   3.353   6.443   3.677 -0.6189 -0.7744 -1.5654
   34CHL1   C21 2494   3.575   6.457   3.666  0.1223 -0.4692 -0.1882
   34CHL1  H21A 2495   3.567   6.541   3.593  3.0258 -0.4139 -0.5673
   34CHL1  H21B 2496   3.660   6.392   3.638  1.9805  1.5812  0.3641
   34CHL1  H21C 2497   3.580   6.503   3.767  0.8105 -1.8514  0.4348
   34CHL1   C22 2498   3.439   6.299   3.807 -0.3789 -0.0361  0.3247
   34CHL1  H22A 2499   3.450   6.383   3.879  1.3125  1.1564 -1.2305
   34CHL1  H22B 2500   3.339   6.254   3.821 -0.2538 -0.6055 -0.4947
   34CHL1   C23 2501   3.557   6.203   3.823 -0.1184  0.0506 -0.1678
   34CHL1  H23A 2502   3.560   6.122   3.747  0.7845  0.0154 -0.1087
   34CHL1  H23B 2503   3.654   6.256   3.815 -1.1412  2.2001  0.7976
   34CHL1   C24 2504   3.539   6.136   3.966 -0.4310 -0.1307 -0.4672
   34CHL1  H24A 2505   3.568   6.209   4.045 -1.1051 -0.4469  0.0811
   34CHL1  H24B 2506   3.436   6.096   3.978 -0.1241 -1.7279 -2.6446
   34CHL1   C25 2507   3.624   6.016   3.983 -0.2487  0.7541 -0.4546
   34CHL1   H25 2508   3.596   5.934   3.913 -0.3340  0.8847 -0.5741
   34CHL1   C26 2509   3.773   6.055   3.979  1.1231  1.0854  0.4609
   34CHL1  H26A 2510   3.790   6.095   3.877 -1.6523  0.3379 -0.3861
   34CHL1  H26B 2511   3.793   6.128   4.060  0.0381  0.1456  1.6133
   34CHL1  H26C 2512   3.843   5.971   4.001 -0.5237 -0.0902  1.4168
   34CHL1   C27 2513   3.606   5.955   4.125  0.2212 -0.6169 -0.4546
   34CHL1  H27A 2514   3.663   5.861   4.139  0.4196 -0.6026 -1.1310
   34CHL1  H27B 2515   3.633   6.021   4.210  0.1904  0.3025 -1.1321
   34CHL1  H27C 2516   3.500   5.929   4.144 -0.7771  1.6403 -2.3705
   35CHL1    C3 2517   1.064   6.953   2.750 -0.1391  0.2145 -0.1131
   35CHL1    H3 2518   1.115   7.048   2.778  2.6466 -1.0316 -0.6153
   35CHL1    O3 2519   1.075   6.946   2.603  0.0429  0.7439 -0.2704
   35CHL1   H3' 2520   1.160   6.981   2.576 -0.1407  1.0228 -0.4999
   35CHL1    C4 2521   1.130   6.826   2.812 -0.1177 -0.8932  0.3160
   35CHL1   H4A 2522   1.096   6.735   2.759 -0.7987 -0.4490 -0.0215
   35CHL1   H4B 2523   1.239   6.836   2.791 -0.4007 -1.9312 -1.8382
   35CHL1    C5 2524   1.104   6.812   2.966 -1.0449 -0.4760 -0.1037
   35CHL1    C6 2525   1.199   6.819   3.059 -0.4316 -0.0683  0.6969
   35CHL1    H6 2526   1.304   6.819   3.026 -0.7199 -1.9334 -0.3383
   35CHL1    C7 2527   1.180   6.817   3.205 -0.2335 -0.5802 -0.0167
   35CHL1   H7A 2528   1.255   6.753   3.257  1.2409  0.3179 -0.9707
   35CHL1   H7B 2529   1.177   6.920   3.247 -0.7566 -0.7459  0.3655
   35CHL1    C8 2530   1.043   6.748   3.233  0.6027  0.5343 -0.3718
   35CHL1    H8 2531   1.047   6.642   3.200 -1.0302 -0.2446  1.6848
   35CHL1   C14 2532   1.007   6.740   3.382  0.2869 -0.1431  0.0302
   35CHL1   H14 2533   1.011   6.843   3.421 -1.6318 -0.8382  2.2732
   35CHL1   C15 2534   1.102   6.659   3.471 -0.1942 -0.2650 -0.4668
   35CHL1  H15A 2535   1.131   6.565   3.419  1.4056  0.2303 -0.5460
   35CHL1  H15B 2536   1.196   6.719   3.482 -1.0013  0.7259  1.7907
   35CHL1   C16 2537   1.024   6.634   3.601  0.3956 -0.3532 -0.2168
   35CHL1  H16A 2538   1.047   6.527   3.620 -2.7988 -1.1660 -0.3709
   35CHL1  H16B 2539   1.062   6.699   3.683 -1.7701  0.9288 -0.1774
   35CHL1   C17 2540   0.873   6.680   3.574 -0.1644 -0.0134 -0.1605
   35CHL1   H17 2541   0.861   6.787   3.603  1.4881  1.0635 -3.0466
   35CHL1   C13 2542   0.866   6.689   3.418 -0.3793  1.1281 -0.5793
   35CHL1   C18 2543   0.842   6.545   3.357 -0.5746 -0.1653 -0.5482
   35CHL1  H18A 2544   0.911   6.469   3.399  0.3099  0.3450 -1.0503
   35CHL1  H18B 2545   0.739   6.511   3.384 -1.1235 -0.1859 -2.4940
   35CHL1  H18C 2546   0.848   6.555   3.247  1.7827  5.1952 -0.2491
   35CHL1   C12 2547   0.769   6.789   3.357 -0.8103  0.4606 -1.0820
   35CHL1  H12A 2548   0.669   6.756   3.393 -0.3170 -0.0564 -0.1610
   35CHL1  H12B 2549   0.789   6.890   3.399  0.5932 -1.0821  2.3552
   35CHL1   C11 2550   0.784   6.792   3.199 -0.1054  0.6623 -0.4310
   35CHL1  H11A 2551   0.750   6.693   3.162  0.7436  0.1224  0.1826
   35CHL1  H11B 2552   0.716   6.869   3.158 -1.8801  0.1049  1.3190
   35CHL1    C9 2553   0.929   6.820   3.156 -0.0064 -0.6071 -0.3863
   35CHL1    H9 2554   0.948   6.924   3.190 -2.9858 -0.0246 -0.2994
   35CHL1   C10 2555   0.957   6.811   3.005  0.2337 -0.5354 -0.0579
   35CHL1   C19 2556   0.898   6.678   2.955  0.2161  0.4362 -0.1424
   35CHL1  H19A 2557   0.918   6.602   3.034  0.8136  0.5906 -0.1411
   35CHL1  H19B 2558   0.787   6.681   2.946 -0.0293 -0.1220  1.9724
   35CHL1  H19C 2559   0.930   6.646   2.854  2.6523  1.9988  0.0768
   35CHL1    C1 2560   0.895   6.939   2.939  0.4066  1.2309  0.0370
   35CHL1   H1A 2561   0.787   6.934   2.965  0.7621  0.6119  1.4604
   35CHL1   H1B 2562   0.932   7.034   2.983 -0.3251  1.1297  0.9048
   35CHL1    C2 2563   0.915   6.957   2.787  0.0670 -0.4221  0.6298
   35CHL1   H2A 2564   0.868   7.052   2.751  0.7795  0.0457  0.8985
   35CHL1   H2B 2565   0.863   6.875   2.734 -1.6596  0.0421  1.5266
   35CHL1   C20 2566   0.774   6.597   3.657  0.3384  0.5716  0.1868
   35CHL1   H20 2567   0.798   6.495   3.620  0.9126  0.6795  0.2490
   35CHL1   C21 2568   0.630   6.629   3.628 -0.4215  0.1826  0.4320
   35CHL1  H21A 2569   0.567   6.551   3.677  0.8208 -0.0365  1.7140
   35CHL1  H21B 2570   0.598   6.642   3.522 -2.9469 -1.8289  0.8419
   35CHL1  H21C 2571   0.615   6.728   3.676  0.2474 -0.4815  2.0441
   35CHL1   C22 2572   0.801   6.601   3.809 -0.2969  0.2850  0.8749
   35CHL1  H22A 2573   0.906   6.565   3.818 -0.9001 -2.0139 -0.4554
   35CHL1  H22B 2574   0.797   6.707   3.843  2.8502  0.5254  0.8621
   35CHL1   C23 2575   0.718   6.504   3.885 -0.7131  0.0688 -0.3932
   35CHL1  H23A 2576   0.613   6.537   3.897 -0.4859  0.9167 -0.6557
   35CHL1  H23B 2577   0.718   6.406   3.833  2.0606 -1.2534  1.8462
   35CHL1   C24 2578   0.759   6.473   4.031 -0.0901  0.3720 -0.2524
   35CHL1  H24A 2579   0.782   6.563   4.092  1.7820  2.5121 -3.7504
   35CHL1  H24B 2580   0.685   6.409   4.083  1.2473 -1.6120 -0.7009
   35CHL1   C25 2581   0.897   6.402   4.044 -0.0377  0.1075 -0.1886
   35CHL1   H25 2582   0.962   6.462   3.977 -0.3942  3.0005  1.8859
   35CHL1   C26 2583   0.951   6.411   4.191 -0.2612 -0.1713  0.3269
   35CHL1  H26A 2584   1.056   6.376   4.186 -0.2396 -0.2245  0.9891
   35CHL1  H26B 2585   0.953   6.513   4.235 -1.2729  0.1620 -0.3569
   35CHL1  H26C 2586   0.895   6.345   4.261 -1.9609  1.0571  0.2074
   35CHL1   C27 2587   0.891   6.262   3.988 -0.2731  0.3945 -0.6999
   35CHL1  H27A 2588   0.994   6.223   3.978 -0.8925 -1.4004 -0.6016
   35CHL1  H27B 2589   0.837   6.195   4.059  1.0209 -0.4525 -0.4768
   35CHL1  H27C 2590   0.842   6.260   3.887  0.3031 -1.9975 -1.0039
   36CHL1    C3 2591   1.050   0.043   5.975 -0.3705 -0.2409  0.3018
   36CHL1    H3 2592   1.138  -0.020   5.952 -0.9529 -1.3702  1.1138
   36CHL1    O3 2593   1.063   0.061   6.113 -0.0103 -0.3740 -0.5723
   36CHL1   H3' 2594   0.990   0.117   6.140  1.6504  0.9606  1.4243
   36CHL1    C4 2595   1.067   0.177   5.904  0.1303  0.2564 -0.2249
   36CHL1   H4A 2596   0.993   0.252   5.940  0.9041  1.1245 -0.4310
   36CHL1   H4B 2597   1.166   0.221   5.929  0.0417  0.9410 -1.0343
   36CHL1    C5 2598   1.038   0.162   5.757 -0.0031  0.1936  0.1571
   36CHL1    C6 2599   1.130   0.215   5.675  1.0859  0.4989 -0.0680
   36CHL1    H6 2600   1.218   0.261   5.722  0.8158  1.3841 -0.4076
   36CHL1    C7 2601   1.110   0.212   5.526 -0.0802 -0.0432 -0.4666
   36CHL1   H7A 2602   1.120   0.318   5.494 -0.1019  0.6162  1.5532
   36CHL1   H7B 2603   1.184   0.139   5.488  0.6511 -0.8287  2.2585
   36CHL1    C8 2604   0.965   0.169   5.480  0.3725 -0.0198  0.0560
   36CHL1    H8 2605   0.898   0.257   5.491 -0.6350 -0.6912 -0.5647
   36CHL1   C14 2606   0.966   0.137   5.332 -0.2056  0.5327 -0.1841
   36CHL1   H14 2607   1.036   0.051   5.330 -1.4957 -0.6257  1.4285
   36CHL1   C15 2608   1.046   0.227   5.232 -0.1261  0.1014  0.0441
   36CHL1  H15A 2609   1.023   0.335   5.241  1.8129  0.4621  1.2380
   36CHL1  H15B 2610   1.156   0.214   5.234 -0.2905 -2.2660 -1.9300
   36CHL1   C16 2611   1.005   0.168   5.096  0.1724  0.8608 -0.6607
   36CHL1  H16A 2612   0.944   0.244   5.042 -0.4423  0.8752  0.0395
   36CHL1  H16B 2613   1.101   0.151   5.042 -0.1154 -0.6533 -0.7253
   36CHL1   C17 2614   0.906   0.042   5.123  0.3305 -0.9912 -0.2710
   36CHL1   H17 2615   0.967  -0.046   5.153 -0.1386 -0.1331  3.7541
   36CHL1   C13 2616   0.846   0.078   5.271  0.3590 -0.3906 -0.4122
   36CHL1   C18 2617   0.745   0.186   5.250  0.4127  0.2677  0.2933
   36CHL1  H18A 2618   0.782   0.273   5.191  0.0995 -0.2203 -0.6530
   36CHL1  H18B 2619   0.646   0.150   5.215 -0.0983  0.2381  1.7316
   36CHL1  H18C 2620   0.724   0.231   5.349  1.9466  1.0503  0.2849
   36CHL1   C12 2621   0.801  -0.038   5.357 -0.3533 -0.3424 -0.1545
   36CHL1  H12A 2622   0.703  -0.072   5.318 -1.6519  0.9007  1.7847
   36CHL1  H12B 2623   0.878  -0.117   5.355  2.0721  1.8192  1.5570
   36CHL1   C11 2624   0.774  -0.006   5.505  0.2589  0.2544 -1.0396
   36CHL1  H11A 2625   0.702   0.078   5.519  0.8229  0.8741 -1.7526
   36CHL1  H11B 2626   0.740  -0.100   5.554  1.7288  0.6698  0.9063
   36CHL1    C9 2627   0.910   0.048   5.563  0.6876  0.3890  0.3759
   36CHL1    H9 2628   0.989  -0.029   5.549  0.1246 -0.0093 -0.6569
   36CHL1   C10 2629   0.911   0.079   5.716 -0.2023 -0.0702 -0.0680
   36CHL1   C19 2630   0.793   0.168   5.755 -0.1620  0.4278  0.1636
   36CHL1  H19A 2631   0.788   0.180   5.865 -2.8003  0.9702  0.0578
   36CHL1  H19B 2632   0.801   0.268   5.707  3.2349 -1.2533 -3.2759
   36CHL1  H19C 2633   0.701   0.114   5.724 -0.6640  0.4559  1.5355
   36CHL1    C1 2634   0.898  -0.050   5.795  0.1114  0.0420 -0.3714
   36CHL1   H1A 2635   0.797  -0.090   5.775 -0.1089  1.6313 -2.8689
   36CHL1   H1B 2636   0.971  -0.124   5.754  0.7778 -0.0012  0.8582
   36CHL1    C2 2637   0.915  -0.027   5.945  0.1778  0.5073  0.4446
   36CHL1   H2A 2638   0.911  -0.126   5.995 -1.0191  1.0636  1.4779
   36CHL1   H2B 2639   0.835   0.036   5.989 -0.4740 -0.7670  1.1288
   36CHL1   C20 2640   0.810   0.008   5.005 -0.3529  0.0188  0.7940
   36CHL1   H20 2641   0.769   0.107   4.975  0.3683 -0.1813 -1.0366
   36CHL1   C21 2642   0.694  -0.087   5.045  0.3741  0.6375 -0.4475
   36CHL1  H21A 2643   0.639  -0.113   4.952 -0.8521  0.4619  0.3041
   36CHL1  H21B 2644   0.619  -0.033   5.106 -0.9365 -2.3398  0.7468
   36CHL1  H21C 2645   0.736  -0.183   5.081  0.5289  0.9804  0.3000
   36CHL1   C22 2646   0.882  -0.055   4.880 -0.3316 -0.1501  0.4687
   36CHL1  H22A 2647   0.980  -0.004   4.884  0.6548 -2.0240  1.3107
   36CHL1  H22B 2648   0.900  -0.165   4.886 -0.1214 -0.1433 -0.0158
   36CHL1   C23 2649   0.806  -0.034   4.748 -0.7401 -0.5003 -0.1423
   36CHL1  H23A 2650   0.711  -0.090   4.763 -0.2540 -1.3287 -0.0904
   36CHL1  H23B 2651   0.787   0.075   4.739  0.2583 -0.3009  0.0122
   36CHL1   C24 2652   0.860  -0.096   4.619 -0.2312 -0.1745  0.3948
   36CHL1  H24A 2653   0.785  -0.069   4.541 -1.2604 -0.7555  1.1632
   36CHL1  H24B 2654   0.961  -0.059   4.589  0.7033 -2.6030  0.3628
   36CHL1   C25 2655   0.883  -0.247   4.604  0.5452 -0.4697 -0.2993
   36CHL1   H25 2656   0.938  -0.287   4.692 -1.8133 -0.9575  1.0430
   36CHL1   C26 2657   0.753  -0.329   4.593  0.9152 -0.3829  0.3495
   36CHL1  H26A 2658   0.699  -0.308   4.688 -0.2672  0.2461 -0.4364
   36CHL1  H26B 2659   0.687  -0.308   4.507  2.4967  0.6399 -0.6706
   36CHL1  H26C 2660   0.783  -0.436   4.594  1.6760 -0.2601 -2.1906
   36CHL1   C27 2661   0.964  -0.291   4.479 -0.5250 -0.4786  0.0876
   36CHL1  H27A 2662   0.990  -0.399   4.479 -0.9043 -0.5768 -0.7927
   36CHL1  H27B 2663   0.914  -0.265   4.384  1.2391 -1.3254 -1.1234
   36CHL1  H27C 2664   1.061  -0.236   4.482 -0.9115  0.3636 -1.6539
   37CHL1    C3 2665   4.054   6.387   2.453 -0.1404  0.1754 -0.1231
   37CHL1    H3 2666   4.020   6.493   2.447 -0.1498  0.1652 -0.2703
   37CHL1    O3 2667   4.073   6.349   2.317  0.1883 -0.3708 -0.3801
   37CHL1   H3' 2668   4.020   6.270   2.300  0.9783 -0.5263 -2.4324
   37CHL1    C4 2669   4.181   6.369   2.531  0.0658  0.0923  0.3471
   37CHL1   H4A 2670   4.228   6.270   2.516  1.3316  0.9515 -1.7990
   37CHL1   H4B 2671   4.261   6.429   2.482  1.1339 -1.1934  0.4371
   37CHL1    C5 2672   4.163   6.385   2.678  0.1227 -0.0752  0.4687
   37CHL1    C6 2673   4.231   6.482   2.739  0.4016 -0.2627 -0.6707
   37CHL1    H6 2674   4.300   6.539   2.676  1.8759 -1.8091 -0.5132
   37CHL1    C7 2675   4.217   6.509   2.889  0.4363  0.2688  0.1620
   37CHL1   H7A 2676   4.317   6.513   2.937 -0.7017 -0.1576  2.7251
   37CHL1   H7B 2677   4.147   6.591   2.916  0.9349  0.2349  1.6476
   37CHL1    C8 2678   4.159   6.385   2.963  0.2844  0.2818 -0.0404
   37CHL1    H8 2679   4.230   6.300   2.971 -1.4307 -1.0705  2.1830
   37CHL1   C14 2680   4.115   6.432   3.095  0.0492 -0.4305 -0.1319
   37CHL1   H14 2681   4.028   6.502   3.087 -0.6563 -1.1883  0.6841
   37CHL1   C15 2682   4.219   6.496   3.183 -0.4883 -0.5076 -0.0719
   37CHL1  H15A 2683   4.312   6.435   3.177 -0.5123 -0.4305 -4.9582
   37CHL1  H15B 2684   4.242   6.595   3.138 -0.9982 -1.0116 -1.5060
   37CHL1   C16 2685   4.152   6.500   3.319 -0.4623  0.1030  0.5730
   37CHL1  H16A 2686   4.222   6.459   3.395  0.4472  1.5266  0.5459
   37CHL1  H16B 2687   4.137   6.608   3.344 -0.8662  0.1591  0.0935
   37CHL1   C17 2688   4.023   6.419   3.308  0.4667 -0.3660 -0.7116
   37CHL1   H17 2689   3.930   6.475   3.285 -0.1068 -0.9915  0.0113
   37CHL1   C13 2690   4.035   6.338   3.184 -0.0335 -0.1791 -0.0528
   37CHL1   C18 2691   4.125   6.216   3.217 -0.0560  0.6988 -0.2633
   37CHL1  H18A 2692   4.070   6.140   3.276  0.0463  0.9352  0.1358
   37CHL1  H18B 2693   4.157   6.148   3.135 -0.5629 -1.6388  1.3888
   37CHL1  H18C 2694   4.218   6.236   3.273  1.8488  0.3601 -3.0687
   37CHL1   C12 2695   3.906   6.291   3.109 -0.6173 -0.9286  0.2328
   37CHL1  H12A 2696   3.856   6.214   3.173  0.7105  0.4690  3.1271
   37CHL1  H12B 2697   3.837   6.377   3.096 -1.7966 -2.0496 -1.3473
   37CHL1   C11 2698   3.947   6.235   2.971  0.1724  0.2827 -0.0699
   37CHL1  H11A 2699   3.997   6.140   2.998  1.5744  1.2736  1.0242
   37CHL1  H11B 2700   3.848   6.219   2.925  0.3654  3.3875 -1.8731
   37CHL1    C9 2701   4.031   6.331   2.889  0.0880 -0.6922 -0.5182
   37CHL1    H9 2702   3.973   6.425   2.873  0.9685  0.1154  0.9015
   37CHL1   C10 2703   4.061   6.291   2.742 -0.4401 -0.0315  0.0795
   37CHL1   C19 2704   4.106   6.148   2.747  0.5028 -0.1870 -0.2271
   37CHL1  H19A 2705   4.015   6.085   2.756  1.7388 -2.0133  0.1287
   37CHL1  H19B 2706   4.153   6.110   2.654  0.1971 -1.9966  0.3100
   37CHL1  H19C 2707   4.171   6.116   2.831 -1.6496 -0.7003  1.3468
   37CHL1    C1 2708   3.929   6.309   2.656 -0.3655 -0.8309 -0.6474
   37CHL1   H1A 2709   3.858   6.234   2.698 -0.1053 -0.1416  1.0734
   37CHL1   H1B 2710   3.887   6.409   2.681  1.1750  0.6973 -3.5505
   37CHL1    C2 2711   3.942   6.301   2.504  0.8866 -0.0955  0.0537
   37CHL1   H2A 2712   3.844   6.333   2.461  0.2796 -0.9759  0.7556
   37CHL1   H2B 2713   3.963   6.197   2.473 -0.2622 -0.4353  0.3547
   37CHL1   C20 2714   3.991   6.356   3.447  0.8398 -0.6204  0.8262
   37CHL1   H20 2715   4.074   6.287   3.476  1.5232 -0.6834 -1.1032
   37CHL1   C21 2716   3.871   6.263   3.429 -0.1560 -0.9606  0.3264
   37CHL1  H21A 2717   3.794   6.304   3.359 -1.0469  0.0050  1.8159
   37CHL1  H21B 2718   3.819   6.270   3.527  0.9083 -2.8506  1.0649
   37CHL1  H21C 2719   3.898   6.158   3.406 -0.0112 -1.0941  1.1034
   37CHL1   C22 2720   3.963   6.461   3.561  0.0641  1.0354  0.9009
   37CHL1  H22A 2721   4.052   6.527   3.563  0.3946  0.6137  0.5690
   37CHL1  H22B 2722   3.876   6.522   3.530 -0.3973  0.4291  0.9761
   37CHL1   C23 2723   3.937   6.411   3.704 -0.7694 -0.2050 -0.3194
   37CHL1  H23A 2724   3.843   6.352   3.699  0.8603 -2.9115 -1.4995
   37CHL1  H23B 2725   4.014   6.333   3.723  1.3146  1.6787 -0.6419
   37CHL1   C24 2726   3.914   6.521   3.809  0.1501 -0.7299 -0.5417
   37CHL1  H24A 2727   4.004   6.587   3.810  0.2473 -0.8658 -0.1704
   37CHL1  H24B 2728   3.832   6.588   3.774  0.7339 -0.4307 -1.3762
   37CHL1   C25 2729   3.875   6.483   3.952 -0.1919  0.2526  0.4998
   37CHL1   H25 2730   3.799   6.402   3.941  0.3876 -0.1962 -0.3234
   37CHL1   C26 2731   3.985   6.416   4.032  0.0615  0.6674 -0.1792
   37CHL1  H26A 2732   4.057   6.486   4.079  0.3144 -0.0478  0.5240
   37CHL1  H26B 2733   3.934   6.352   4.108 -0.4220 -0.7276 -1.6228
   37CHL1  H26C 2734   4.034   6.339   3.969  1.3270 -0.6453  2.2386
   37CHL1   C27 2735   3.823   6.595   4.044  0.1151  0.1943  0.2402
   37CHL1  H27A 2736   3.888   6.684   4.035 -1.5613  1.3631 -0.6973
   37CHL1  H27B 2737   3.724   6.628   4.007 -0.7213 -0.4415  1.8012
   37CHL1  H27C 2738   3.822   6.561   4.150 -0.7754 -1.6806 -0.3113
   38CHL1    C3 2739   2.370   0.269   2.940  0.3917 -0.4270  0.1550
   38CHL1    H3 2740   2.261   0.247   2.947 -0.0955  1.3809 -1.0152
   38CHL1    O3 2741   2.401   0.238   2.803 -0.3914  0.1435  0.6513
   38CHL1   H3' 2742   2.413   0.321   2.756  1.9559  1.3599  3.1484
   38CHL1    C4 2743   2.411   0.402   2.991 -0.4217 -0.5813 -0.2231
   38CHL1   H4A 2744   2.522   0.408   2.996 -0.1572 -4.3385  0.7940
   38CHL1   H4B 2745   2.382   0.475   2.912 -1.1934  0.1550  0.7200
   38CHL1    C5 2746   2.357   0.424   3.133 -0.3538 -0.5505  0.1161
   38CHL1    C6 2747   2.275   0.526   3.169 -0.7683  0.1162  0.9688
   38CHL1    H6 2748   2.252   0.593   3.085  0.8270  1.2919  1.4114
   38CHL1    C7 2749   2.225   0.557   3.300  0.4618 -0.5403 -0.3773
   38CHL1   H7A 2750   2.230   0.668   3.314 -1.2695 -0.6140  1.2720
   38CHL1   H7B 2751   2.116   0.537   3.305 -0.0947  2.0000 -0.8632
   38CHL1    C8 2752   2.303   0.483   3.407 -0.1903  0.0962  0.1335
   38CHL1    H8 2753   2.396   0.542   3.422 -1.8275  3.0102 -0.4332
   38CHL1   C14 2754   2.217   0.486   3.537 -0.0819 -0.0291  0.4504
   38CHL1   H14 2755   2.127   0.432   3.502  0.0901 -1.8227  2.4987
   38CHL1   C15 2756   2.158   0.613   3.594 -0.0645 -0.5168 -0.2085
   38CHL1  H15A 2757   2.243   0.684   3.601 -0.8918  0.6487 -1.4384
   38CHL1  H15B 2758   2.086   0.658   3.522  0.4914  2.9806  1.2545
   38CHL1   C16 2759   2.098   0.554   3.726 -0.9124  0.2494 -0.9163
   38CHL1  H16A 2760   2.103   0.644   3.792  2.0313  0.9791 -1.9992
   38CHL1  H16B 2761   1.991   0.527   3.709 -1.0289  1.5292 -2.4128
   38CHL1   C17 2762   2.171   0.421   3.768  0.1159 -0.7455  0.7556
   38CHL1   H17 2763   2.092   0.344   3.756 -0.2506 -0.4345  1.1248
   38CHL1   C13 2764   2.278   0.402   3.653  0.5314  0.7722 -0.4237
   38CHL1   C18 2765   2.419   0.460   3.697 -0.1767 -0.6230  0.5927
   38CHL1  H18A 2766   2.459   0.419   3.792 -1.4850  2.7582  2.7846
   38CHL1  H18B 2767   2.492   0.456   3.613  0.5153  0.5912  1.1171
   38CHL1  H18C 2768   2.413   0.566   3.730 -0.0150 -0.2582 -0.4901
   38CHL1   C12 2769   2.291   0.258   3.605 -0.2322 -0.0430  0.1481
   38CHL1  H12A 2770   2.327   0.197   3.690  0.9342 -0.2060 -0.4537
   38CHL1  H12B 2771   2.190   0.216   3.583 -0.1438  0.2439 -0.8930
   38CHL1   C11 2772   2.368   0.241   3.481 -1.1926 -0.6723  0.9297
   38CHL1  H11A 2773   2.477   0.253   3.502 -1.2812 -0.0988  1.0758
   38CHL1  H11B 2774   2.364   0.134   3.450  1.2180 -0.3124 -1.0322
   38CHL1    C9 2775   2.329   0.334   3.368  0.5335  0.0429 -0.0064
   38CHL1    H9 2776   2.228   0.295   3.342  1.0278 -0.6585 -0.9508
   38CHL1   C10 2777   2.405   0.320   3.236 -0.0233 -0.2411  0.0491
   38CHL1   C19 2778   2.555   0.355   3.263  0.1507  0.5485 -0.2239
   38CHL1  H19A 2779   2.609   0.365   3.167  0.2781  1.0067 -0.1064
   38CHL1  H19B 2780   2.572   0.442   3.329 -1.9690  0.9473 -0.1198
   38CHL1  H19C 2781   2.607   0.269   3.311 -0.1583  0.5970  0.2077
   38CHL1    C1 2782   2.376   0.180   3.167 -0.1074  0.1203 -0.3630
   38CHL1   H1A 2783   2.418   0.101   3.233 -3.0566 -0.3491  1.1037
   38CHL1   H1B 2784   2.268   0.155   3.166 -0.2283  0.1802  2.3440
   38CHL1    C2 2785   2.438   0.164   3.030  0.2381 -0.0608 -0.6136
   38CHL1   H2A 2786   2.419   0.064   2.986 -0.1120  1.0872 -3.2434
   38CHL1   H2B 2787   2.546   0.178   3.048  0.2680  0.0161 -0.8631
   38CHL1   C20 2788   2.207   0.406   3.913 -0.1935  0.1528 -0.2681
   38CHL1   H20 2789   2.296   0.464   3.946  0.5129 -0.5572 -0.8991
   38CHL1   C21 2790   2.251   0.262   3.945  1.3459 -0.3143  0.1691
   38CHL1  H21A 2791   2.340   0.235   3.883  1.5791 -0.7580  0.6841
   38CHL1  H21B 2792   2.169   0.193   3.916  1.9220 -0.4510 -1.2463
   38CHL1  H21C 2793   2.276   0.249   4.053 -1.7516 -0.8456  0.9060
   38CHL1   C22 2794   2.089   0.457   4.005  0.0496 -0.1115  0.0335
   38CHL1  H22A 2795   2.083   0.567   3.992 -3.0580 -0.3098 -0.8831
   38CHL1  H22B 2796   1.989   0.421   3.975 -1.0643 -1.1139  4.3182
   38CHL1   C23 2797   2.086   0.409   4.147 -0.5179  0.6832 -0.1760
   38CHL1  H23A 2798   2.058   0.301   4.151 -2.4491  1.1630  3.3489
   38CHL1  H23B 2799   2.184   0.440   4.189  0.5455 -0.0700 -1.9400
   38CHL1   C24 2800   1.969   0.485   4.214 -0.0300  0.0439  0.0537
   38CHL1  H24A 2801   1.990   0.593   4.200  0.2676 -0.3534 -3.7852
   38CHL1  H24B 2802   1.871   0.459   4.168 -0.2342 -0.7719  0.9305
   38CHL1   C25 2803   1.961   0.464   4.368 -1.1187 -0.3230 -0.2099
   38CHL1   H25 2804   2.045   0.520   4.415 -0.5899  0.4892 -2.0146
   38CHL1   C26 2805   1.835   0.520   4.436  1.0463  0.0740  0.2889
   38CHL1  H26A 2806   1.848   0.496   4.544 -0.9292 -2.3589  0.0683
   38CHL1  H26B 2807   1.833   0.631   4.426 -1.9547  0.1038  0.1397
   38CHL1  H26C 2808   1.745   0.467   4.399  0.1697  0.5872  1.5967
   38CHL1   C27 2809   1.985   0.316   4.406  0.9312  0.4849 -0.2012
   38CHL1  H27A 2810   1.918   0.249   4.349 -0.3288  0.3513  1.3824
   38CHL1  H27B 2811   2.083   0.271   4.376  0.6786 -2.2283  2.5825
   38CHL1  H27C 2812   1.965   0.298   4.514  0.8573  2.6039  0.1877
   39CHL1    C3 2813   2.001   6.122   2.730  0.0823  0.4117 -0.1483
   39CHL1    H3 2814   2.109   6.142   2.747 -0.2020  1.1609  0.8683
   39CHL1    O3 2815   1.986   6.092   2.591 -0.1013  0.0886  0.4021
   39CHL1   H3' 2816   2.023   6.170   2.548 -0.9177 -0.2163 -0.9152
   39CHL1    C4 2817   1.945   5.995   2.796 -0.3167 -1.0504  0.0791
   39CHL1   H4A 2818   1.844   5.974   2.755 -1.1229  1.1401  0.7994
   39CHL1   H4B 2819   2.017   5.917   2.764  0.7240  0.3237 -1.0328
   39CHL1    C5 2820   1.929   6.022   2.948 -0.4646  0.7190 -0.5610
   39CHL1    C6 2821   1.993   5.938   3.036  0.9805 -0.1667 -0.3112
   39CHL1    H6 2822   2.044   5.855   2.985  1.9154  1.2953 -1.8745
   39CHL1    C7 2823   1.984   5.942   3.180  0.3914 -0.3293 -0.6247
   39CHL1   H7A 2824   1.972   5.840   3.223 -0.2247 -0.2655 -0.6325
   39CHL1   H7B 2825   2.078   5.983   3.222 -1.0673 -0.0730  2.7189
   39CHL1    C8 2826   1.876   6.043   3.234 -0.1509 -0.3065  0.6127
   39CHL1    H8 2827   1.776   5.995   3.222 -1.2252  2.1024 -0.8426
   39CHL1   C14 2828   1.900   6.078   3.382  0.6404  0.4022 -0.2416
   39CHL1   H14 2829   2.004   6.117   3.377  0.0732  1.8938 -1.0290
   39CHL1   C15 2830   1.926   5.960   3.484  0.2450 -0.0277  0.2135
   39CHL1  H15A 2831   1.856   5.876   3.463 -0.9657  0.6857  1.2295
   39CHL1  H15B 2832   2.034   5.937   3.478  0.4123  0.7663  0.0718
   39CHL1   C16 2833   1.900   6.017   3.622  0.1230  0.2864 -0.4018
   39CHL1  H16A 2834   1.827   5.962   3.685  0.0004  1.4473  0.4913
   39CHL1  H16B 2835   1.995   6.010   3.678  0.5870  1.3355 -1.0315
   39CHL1   C17 2836   1.857   6.169   3.599  0.6153  0.2396  0.1617
   39CHL1   H17 2837   1.953   6.225   3.594  1.4701 -1.1692  0.1997
   39CHL1   C13 2838   1.800   6.169   3.445  0.0701  0.1689  0.1685
   39CHL1   C18 2839   1.653   6.120   3.445  0.3193  0.1679  0.6302
   39CHL1  H18A 2840   1.650   6.034   3.515 -3.1786 -0.3318  0.0274
   39CHL1  H18B 2841   1.580   6.200   3.471  0.6779  0.7111  0.0042
   39CHL1  H18C 2842   1.623   6.082   3.345 -0.0607  0.4556  0.6334
   39CHL1   C12 2843   1.801   6.304   3.368 -0.1909 -0.3970 -0.6199
   39CHL1  H12A 2844   1.718   6.373   3.393  0.8995  0.4511  0.8325
   39CHL1  H12B 2845   1.899   6.354   3.385  0.8113 -2.5103  0.3273
   39CHL1   C11 2846   1.780   6.276   3.218 -0.5120 -0.1532 -0.0471
   39CHL1  H11A 2847   1.676   6.239   3.208 -1.5157  1.9893  1.4903
   39CHL1  H11B 2848   1.795   6.368   3.158 -0.9149  1.0100  1.5347
   39CHL1    C9 2849   1.872   6.170   3.154 -0.2166 -0.6868  0.0565
   39CHL1    H9 2850   1.976   6.209   3.154 -0.0117 -1.2149 -0.2524
   39CHL1   C10 2851   1.853   6.146   3.001 -0.5698  0.0919  0.7705
   39CHL1   C19 2852   1.701   6.122   2.967  0.1792 -0.4391  0.6541
   39CHL1  H19A 2853   1.661   6.042   3.032 -0.4298 -0.0380  0.7822
   39CHL1  H19B 2854   1.651   6.220   2.985  1.0605  0.2241 -0.3360
   39CHL1  H19C 2855   1.687   6.093   2.861  3.4561  1.0905 -0.3307
   39CHL1    C1 2856   1.901   6.266   2.911 -0.3176 -0.0998 -0.7151
   39CHL1   H1A 2857   1.832   6.351   2.926 -0.3100 -0.1804 -0.1875
   39CHL1   H1B 2858   1.998   6.292   2.960  0.3279 -3.0776 -0.1777
   39CHL1    C2 2859   1.909   6.244   2.762 -0.3042  0.2399 -0.3866
   39CHL1   H2A 2860   1.942   6.326   2.695 -0.4948 -0.0254 -0.8036
   39CHL1   H2B 2861   1.808   6.222   2.722 -0.9816  2.2183  0.1114
   39CHL1   C20 2862   1.773   6.225   3.720  0.0496 -0.3864  0.1057
   39CHL1   H20 2863   1.676   6.172   3.707  0.0856 -0.0728 -1.6623
   39CHL1   C21 2864   1.745   6.371   3.687 -0.6631  0.0953 -0.3770
   39CHL1  H21A 2865   1.679   6.403   3.771 -0.9070  0.6823 -0.7874
   39CHL1  H21B 2866   1.682   6.383   3.597  0.0262  0.2092 -0.8555
   39CHL1  H21C 2867   1.836   6.435   3.681 -0.0884 -0.5195  1.1752
   39CHL1   C22 2868   1.834   6.187   3.859 -0.0825 -0.8061  0.2507
   39CHL1  H22A 2869   1.758   6.202   3.938  2.4524  0.5509  2.5876
   39CHL1  H22B 2870   1.869   6.082   3.864  0.0693 -0.7005  1.5058
   39CHL1   C23 2871   1.962   6.272   3.882 -1.3459 -0.0797  0.0052
   39CHL1  H23A 2872   2.031   6.257   3.796 -1.9966  0.1410 -0.5642
   39CHL1  H23B 2873   1.947   6.378   3.909 -0.9629 -0.3684  1.4249
   39CHL1   C24 2874   2.052   6.223   3.999  0.0790  0.4148  0.4180
   39CHL1  H24A 2875   2.067   6.113   3.990 -2.9351 -0.0871  0.4440
   39CHL1  H24B 2876   2.148   6.278   3.989 -0.8358  2.3939  1.8942
   39CHL1   C25 2877   1.994   6.266   4.139  0.2016 -0.2635  0.3863
   39CHL1   H25 2878   1.888   6.234   4.149  0.6159 -1.9498 -0.1770
   39CHL1   C26 2879   2.068   6.182   4.243  1.1865  0.0392 -0.4017
   39CHL1  H26A 2880   2.179   6.195   4.241  1.4827 -0.9952  2.9970
   39CHL1  H26B 2881   2.031   6.209   4.344  0.9544  1.0309 -0.7418
   39CHL1  H26C 2882   2.050   6.074   4.224  5.1838 -0.7535 -0.6408
   39CHL1   C27 2883   2.000   6.416   4.164 -0.0957 -0.0886 -0.4082
   39CHL1  H27A 2884   1.913   6.449   4.104 -1.4604 -1.3425  0.7989
   39CHL1  H27B 2885   1.982   6.433   4.272 -0.1854 -0.4824 -0.3602
   39CHL1  H27C 2886   2.098   6.454   4.127  0.2876 -1.9355 -1.4198
   40CHL1    C3 2887   5.153   2.698   2.815 -1.0681  0.1573 -0.4218
   40CHL1    H3 2888   5.051   2.719   2.852 -0.2106 -1.4107  3.2956
   40CHL1    O3 2889   5.159   2.679   2.673 -0.0518 -0.0228 -0.1237
   40CHL1   H3' 2890   5.247   2.715   2.655  0.3682 -0.5962  0.7202
   40CHL1    C4 2891   5.241   2.814   2.858  0.3441 -0.2093  0.2372
   40CHL1   H4A 2892   5.341   2.795   2.812  0.1817 -0.9215  0.1684
   40CHL1   H4B 2893   5.203   2.907   2.812  2.3457  1.2358  1.3204
   40CHL1    C5 2894   5.248   2.832   3.009 -0.1916  0.1921 -0.0263
   40CHL1    C6 2895   5.205   2.944   3.065  0.0878 -0.1017 -0.1076
   40CHL1    H6 2896   5.165   3.021   2.997  0.1791 -0.8124 -0.9801
   40CHL1    C7 2897   5.208   2.976   3.214  0.3397 -0.6265 -0.4092
   40CHL1   H7A 2898   5.255   3.074   3.236  0.7014 -0.5026 -1.6440
   40CHL1   H7B 2899   5.107   2.986   3.258  1.1574 -0.0287  1.4231
   40CHL1    C8 2900   5.287   2.859   3.292  0.0682 -0.2614 -0.3466
   40CHL1    H8 2901   5.395   2.873   3.272  0.5719 -2.8142  0.2542
   40CHL1   C14 2902   5.248   2.869   3.441  0.5901 -0.2548  0.1505
   40CHL1   H14 2903   5.139   2.850   3.453  0.9141 -1.9825  0.5589
   40CHL1   C15 2904   5.270   3.010   3.505 -0.0125  0.7832 -0.2250
   40CHL1  H15A 2905   5.369   3.050   3.477 -0.0281  1.2580  0.3802
   40CHL1  H15B 2906   5.185   3.079   3.489 -1.0554 -0.0960  1.2238
   40CHL1   C16 2907   5.279   2.976   3.660  0.1769  0.5260  0.1394
   40CHL1  H16A 2908   5.373   3.012   3.705  0.9829  0.5570 -1.4891
   40CHL1  H16B 2909   5.188   3.017   3.710 -0.7712 -0.7546 -0.5011
   40CHL1   C17 2910   5.279   2.820   3.674  0.1426  0.7855 -0.3700
   40CHL1   H17 2911   5.173   2.789   3.685 -0.4476  2.8784  0.4819
   40CHL1   C13 2912   5.325   2.771   3.530 -0.2676 -0.5487  1.0082
   40CHL1   C18 2913   5.482   2.800   3.524  0.2855 -0.4223 -0.3090
   40CHL1  H18A 2914   5.503   2.901   3.564  1.1058 -0.8218  0.3153
   40CHL1  H18B 2915   5.531   2.723   3.588  1.2388  0.8875  0.5870
   40CHL1  H18C 2916   5.523   2.794   3.421  2.4799 -0.7398  0.5247
   40CHL1   C12 2917   5.288   2.631   3.483  0.0419  0.4165 -0.9337
   40CHL1  H12A 2918   5.355   2.561   3.538 -1.8293 -0.2696  0.5842
   40CHL1  H12B 2919   5.185   2.591   3.497 -0.0808  0.7636 -0.8444
   40CHL1   C11 2920   5.314   2.618   3.333  0.2361  0.0226 -0.5304
   40CHL1  H11A 2921   5.425   2.622   3.323  0.0767  1.8492 -2.2129
   40CHL1  H11B 2922   5.290   2.517   3.294  1.1073 -1.4183  2.3741
   40CHL1    C9 2923   5.252   2.727   3.241 -0.2335  0.5632  0.5928
   40CHL1    H9 2924   5.143   2.706   3.250  0.0323 -1.0245  0.3003
   40CHL1   C10 2925   5.285   2.700   3.090 -0.5434  0.0523  0.0363
   40CHL1   C19 2926   5.436   2.672   3.073  0.6569  0.1535 -0.5625
   40CHL1  H19A 2927   5.474   2.694   2.971 -0.6929 -1.4993 -1.4820
   40CHL1  H19B 2928   5.495   2.744   3.133 -0.4832  2.2942 -1.8672
   40CHL1  H19C 2929   5.456   2.569   3.107  0.1219  0.2670  0.1205
   40CHL1    C1 2930   5.214   2.576   3.031 -0.5807  1.2514 -0.0877
   40CHL1   H1A 2931   5.265   2.483   3.064 -0.5573  0.4833 -2.1559
   40CHL1   H1B 2932   5.110   2.587   3.070 -0.9049  2.9683 -1.3408
   40CHL1    C2 2933   5.201   2.564   2.873 -0.4504 -0.5774 -0.3686
   40CHL1   H2A 2934   5.133   2.480   2.851 -1.1790 -0.2895  0.6956
   40CHL1   H2B 2935   5.302   2.535   2.836 -0.0158  0.7441 -0.2925
   40CHL1   C20 2936   5.346   2.767   3.806  0.5126 -0.3608 -0.4275
   40CHL1   H20 2937   5.448   2.812   3.815  0.1354  0.2225  1.2917
   40CHL1   C21 2938   5.357   2.608   3.811 -1.5218  0.2718  0.1232
   40CHL1  H21A 2939   5.386   2.592   3.918  0.4448 -0.3675 -0.4628
   40CHL1  H21B 2940   5.440   2.588   3.740  0.3224  2.1100  1.6259
   40CHL1  H21C 2941   5.264   2.552   3.786 -0.8673 -0.6651 -0.2733
   40CHL1   C22 2942   5.271   2.822   3.938  0.3895  0.2038  0.3067
   40CHL1  H22A 2943   5.263   2.932   3.927 -1.2718  0.2381  1.3399
   40CHL1  H22B 2944   5.160   2.813   3.936  0.2742  1.5940 -0.9607
   40CHL1   C23 2945   5.350   2.812   4.073  0.2659  0.1313 -0.3781
   40CHL1  H23A 2946   5.332   2.718   4.130  0.2738  0.7386  0.6487
   40CHL1  H23B 2947   5.454   2.821   4.036 -0.2266  0.3944 -1.7568
   40CHL1   C24 2948   5.317   2.929   4.172 -0.1736 -0.6217 -0.0958
   40CHL1  H24A 2949   5.389   2.943   4.255 -0.7677 -1.0506  0.4988
   40CHL1  H24B 2950   5.325   3.024   4.116 -1.3508  0.1792  1.0268
   40CHL1   C25 2951   5.174   2.936   4.226  0.6392 -0.2427  0.3240
   40CHL1   H25 2952   5.121   2.882   4.145  2.7423 -1.5090 -0.3047
   40CHL1   C26 2953   5.144   2.864   4.360  0.2050  0.2314 -0.3466
   40CHL1  H26A 2954   5.198   2.920   4.439 -0.1740  2.2159 -1.4210
   40CHL1  H26B 2955   5.034   2.859   4.378 -0.1253 -0.2936 -2.2499
   40CHL1  H26C 2956   5.179   2.760   4.374  1.7998  0.7603 -0.2233
   40CHL1   C27 2957   5.118   3.079   4.231 -0.2394 -0.1450  1.3183
   40CHL1  H27A 2958   5.123   3.128   4.132 -1.0341 -0.5967  1.0479
   40CHL1  H27B 2959   5.014   3.092   4.268 -0.2202  2.0156  0.7211
   40CHL1  H27C 2960   5.188   3.138   4.294  1.0760 -1.2617  0.9558
   41CHL1    C3 2961   1.734   1.159   3.077 -0.6895 -0.3243  0.5323
   41CHL1    H3 2962   1.649   1.228   3.057 -0.9299 -0.8626 -0.3414
   41CHL1    O3 2963   1.821   1.144   2.967  0.5527  0.6641 -0.0968
   41CHL1   H3' 2964   1.787   1.068   2.919 -2.1287  2.7965 -1.8682
   41CHL1    C4 2965   1.819   1.218   3.195 -0.2021 -0.6448 -1.0580
   41CHL1   H4A 2966   1.921   1.176   3.188  0.4092  0.7755 -0.9343
   41CHL1   H4B 2967   1.833   1.326   3.173 -0.7208 -0.1040  1.0332
   41CHL1    C5 2968   1.742   1.212   3.332 -0.6810  0.0757 -0.1282
   41CHL1    C6 2969   1.725   1.325   3.405  0.1070 -0.0279  0.4876
   41CHL1    H6 2970   1.772   1.423   3.386 -0.7054  0.4755  1.0530
   41CHL1    C7 2971   1.656   1.321   3.539 -0.5914  0.1052  0.0321
   41CHL1   H7A 2972   1.718   1.372   3.616  1.0894  0.2173 -1.3218
   41CHL1   H7B 2973   1.557   1.369   3.533 -0.4135  0.4865  0.1269
   41CHL1    C8 2974   1.636   1.172   3.596 -0.1479 -0.4233 -0.4517
   41CHL1    H8 2975   1.728   1.130   3.642 -0.3090 -2.4780 -1.8685
   41CHL1   C14 2976   1.544   1.180   3.715 -0.1354 -0.4620 -0.1334
   41CHL1   H14 2977   1.453   1.225   3.669 -0.6353 -0.8320  0.4766
   41CHL1   C15 2978   1.597   1.261   3.839 -0.8427 -0.6020  0.9247
   41CHL1  H15A 2979   1.703   1.229   3.835 -1.1188 -1.4837  0.4919
   41CHL1  H15B 2980   1.578   1.371   3.835  2.1644 -0.0090  1.0124
   41CHL1   C16 2981   1.528   1.202   3.956 -0.1017  0.4845 -0.5919
   41CHL1  H16A 2982   1.594   1.155   4.031  0.1007 -2.0058 -2.1905
   41CHL1  H16B 2983   1.468   1.279   4.009  1.2485 -1.1163  3.6234
   41CHL1   C17 2984   1.436   1.083   3.898  0.1372  0.9739 -0.1238
   41CHL1   H17 2985   1.336   1.126   3.876 -0.9788 -1.5452 -0.3467
   41CHL1   C13 2986   1.505   1.044   3.770 -0.8093 -0.1758  0.5081
   41CHL1   C18 2987   1.633   0.958   3.802  0.3913  0.3685 -0.3367
   41CHL1  H18A 2988   1.602   0.853   3.821 -0.9995  1.2972  3.4248
   41CHL1  H18B 2989   1.700   0.962   3.714  2.4355  0.1963  1.1508
   41CHL1  H18C 2990   1.682   1.005   3.890  0.2524  0.0435 -0.0818
   41CHL1   C12 2991   1.436   0.970   3.653  0.0103  0.8389 -0.7282
   41CHL1  H12A 2992   1.401   0.871   3.691  1.6373  0.3486 -0.4030
   41CHL1  H12B 2993   1.345   1.021   3.616 -1.1783 -0.8453 -0.2691
   41CHL1   C11 2994   1.531   0.946   3.531  0.3453 -0.7057 -0.2114
   41CHL1  H11A 2995   1.606   0.871   3.566 -1.0541 -1.2005  1.9391
   41CHL1  H11B 2996   1.467   0.899   3.453 -0.0216  0.1055 -0.4059
   41CHL1    C9 2997   1.590   1.078   3.487 -0.0734  0.5959  1.1984
   41CHL1    H9 2998   1.503   1.131   3.444  0.9623  2.4300  1.2660
   41CHL1   C10 2999   1.681   1.075   3.364  1.0309  0.1994  0.1753
   41CHL1   C19 3000   1.794   0.989   3.405 -0.0290  0.3655  0.0714
   41CHL1  H19A 3001   1.754   0.891   3.437  1.1718  0.4206  1.8890
   41CHL1  H19B 3002   1.860   0.975   3.317  0.2583 -0.4625  0.4118
   41CHL1  H19C 3003   1.850   1.041   3.485 -0.0032  1.3289 -0.5551
   41CHL1    C1 3004   1.601   1.020   3.246  0.4243 -0.9971 -0.3353
   41CHL1   H1A 3005   1.559   0.918   3.261 -1.0226 -0.4650 -0.6139
   41CHL1   H1B 3006   1.507   1.079   3.236 -0.1585 -1.9562 -0.7119
   41CHL1    C2 3007   1.670   1.023   3.112 -0.4680 -0.1200 -0.7247
   41CHL1   H2A 3008   1.611   0.996   3.021  0.6023  0.8326 -1.7398
   41CHL1   H2B 3009   1.760   0.959   3.116  0.9179  1.7563 -0.3872
   41CHL1   C20 3010   1.413   0.974   4.008  0.0674  0.2470 -0.0363
   41CHL1   H20 3011   1.507   0.915   4.012  0.1950  0.4862  0.6945
   41CHL1   C21 3012   1.305   0.878   3.966 -0.2985  0.4724  0.1602
   41CHL1  H21A 3013   1.213   0.922   3.922 -0.3459 -1.1082 -1.4769
   41CHL1  H21B 3014   1.278   0.799   4.039  0.1701 -1.2282 -1.4164
   41CHL1  H21C 3015   1.335   0.826   3.872 -0.7656 -2.3152  1.4633
   41CHL1   C22 3016   1.374   1.032   4.149 -0.4449 -0.2970  0.6344
   41CHL1  H22A 3017   1.428   1.126   4.173 -0.0653  0.2181 -1.9729
   41CHL1  H22B 3018   1.278   1.073   4.112  0.4913 -1.2640 -3.3173
   41CHL1   C23 3019   1.355   0.938   4.271 -0.4022 -0.7241  0.2877
   41CHL1  H23A 3020   1.282   0.859   4.244 -0.7983 -0.6277  1.0505
   41CHL1  H23B 3021   1.458   0.900   4.291 -0.4979 -0.5726  1.1238
   41CHL1   C24 3022   1.301   1.020   4.390  0.0866  0.1637  0.2667
   41CHL1  H24A 3023   1.372   1.100   4.421  2.5269 -1.4767 -0.7934
   41CHL1  H24B 3024   1.203   1.054   4.350 -0.0140 -0.6604 -0.2020
   41CHL1   C25 3025   1.278   0.940   4.524 -0.0148 -0.2458 -0.5890
   41CHL1   H25 3026   1.209   0.855   4.505  1.7678 -1.6254 -1.1979
   41CHL1   C26 3027   1.406   0.876   4.579 -0.4583  0.4653  0.0941
   41CHL1  H26A 3028   1.384   0.831   4.678 -0.6768 -0.8718 -0.5426
   41CHL1  H26B 3029   1.447   0.794   4.516 -1.0478 -0.2509  0.6295
   41CHL1  H26C 3030   1.479   0.958   4.596 -2.6385  2.3781  0.6413
   41CHL1   C27 3031   1.211   1.017   4.641 -0.3603  0.2273  0.3770
   41CHL1  H27A 3032   1.168   0.962   4.728 -0.8407  0.6452  0.4109
   41CHL1  H27B 3033   1.277   1.099   4.675 -0.7905  1.5413 -1.7523
   41CHL1  H27C 3034   1.120   1.065   4.599 -0.4610 -0.9371 -0.8035
   42CHL1    C3 3035   4.071   5.064   6.368  0.3040  0.1195 -0.0332
   42CHL1    H3 3036   3.978   5.124   6.359 -0.8288 -1.5791 -0.1811
   42CHL1    O3 3037   4.089   5.036   6.504 -0.5044  0.0387  0.2225
   42CHL1   H3' 3038   4.184   5.047   6.508 -0.3404 -1.5982  2.3210
   42CHL1    C4 3039   4.057   4.935   6.286  0.6202  0.2200 -0.6840
   42CHL1   H4A 3040   4.134   4.865   6.326  1.9074  2.6961  1.5228
   42CHL1   H4B 3041   3.968   4.873   6.311  1.8943 -2.0627 -1.4681
   42CHL1    C5 3042   4.061   4.958   6.135 -0.0252 -0.4861  0.1228
   42CHL1    C6 3043   3.968   4.916   6.043  0.0504  0.8697 -0.0705
   42CHL1    H6 3044   3.884   4.850   6.070 -0.2958  1.2637 -0.1700
   42CHL1    C7 3045   3.983   4.932   5.890 -0.1974 -0.2685 -0.0008
   42CHL1   H7A 3046   3.966   4.832   5.844 -1.2945 -0.4379  0.7130
   42CHL1   H7B 3047   3.908   5.007   5.857  0.0811  0.5258  1.0897
   42CHL1    C8 3048   4.126   4.972   5.842 -0.2652  0.0415 -0.1872
   42CHL1    H8 3049   4.181   4.877   5.861 -0.4872  0.1387  1.0280
   42CHL1   C14 3050   4.128   5.013   5.699  0.0222 -0.2067  0.4170
   42CHL1   H14 3051   4.063   5.102   5.709 -0.5903 -0.7144  1.0107
   42CHL1   C15 3052   4.053   4.922   5.590  0.4747  0.0801 -0.0523
   42CHL1  H15A 3053   4.090   4.819   5.612 -0.2992 -0.3528 -0.7100
   42CHL1  H15B 3054   3.943   4.934   5.602  0.7924  1.2504  2.0961
   42CHL1   C16 3055   4.107   4.973   5.458 -0.8623 -0.6697 -0.3548
   42CHL1  H16A 3056   4.126   4.882   5.397  1.9321  0.0974 -0.7711
   42CHL1  H16B 3057   4.040   5.047   5.408 -0.1718  0.7813  0.7665
   42CHL1   C17 3058   4.232   5.062   5.495 -0.1373 -0.1435 -0.1448
   42CHL1   H17 3059   4.195   5.167   5.491 -1.7331 -0.6824 -0.0882
   42CHL1   C13 3060   4.265   5.045   5.645  0.6388  0.3062 -0.0989
   42CHL1   C18 3061   4.363   4.921   5.657  0.8347 -0.2229 -0.4608
   42CHL1  H18A 3062   4.466   4.947   5.625 -0.1865  1.8834 -2.3906
   42CHL1  H18B 3063   4.370   4.881   5.760  1.3334  2.5091  0.6577
   42CHL1  H18C 3064   4.339   4.837   5.588 -0.9761  0.8741 -1.2474
   42CHL1   C12 3065   4.307   5.169   5.726 -0.6354  0.6811  0.8649
   42CHL1  H12A 3066   4.404   5.210   5.689 -1.3653  1.0430 -0.7601
   42CHL1  H12B 3067   4.231   5.249   5.718 -0.2025  1.1998  1.8110
   42CHL1   C11 3068   4.313   5.135   5.873 -0.0514 -0.4850  0.6791
   42CHL1  H11A 3069   4.394   5.061   5.890  0.9169  0.3572 -0.1493
   42CHL1  H11B 3070   4.344   5.230   5.921  1.4260 -0.2935 -0.5662
   42CHL1    C9 3071   4.179   5.077   5.939 -0.4545 -0.6251  0.4475
   42CHL1    H9 3072   4.104   5.159   5.937 -0.3298 -0.4608  1.5448
   42CHL1   C10 3073   4.179   5.040   6.086 -0.0443  0.7956 -0.6456
   42CHL1   C19 3074   4.304   4.954   6.114  0.1006  0.4860  0.1886
   42CHL1  H19A 3075   4.386   5.029   6.113  0.5537 -0.0043 -0.1052
   42CHL1  H19B 3076   4.311   4.895   6.208 -0.6391  1.1014  0.6408
   42CHL1  H19C 3077   4.324   4.887   6.027 -0.8523 -1.0880  1.1413
   42CHL1    C1 3078   4.177   5.177   6.168 -0.3734  0.1347  0.4985
   42CHL1   H1A 3079   4.269   5.229   6.134 -0.0104 -0.3670  0.7100
   42CHL1   H1B 3080   4.081   5.227   6.144  0.1481  0.3049 -1.4182
   42CHL1    C2 3081   4.187   5.155   6.323 -0.0958  0.6761 -0.0427
   42CHL1   H2A 3082   4.187   5.249   6.382  3.9566  1.2982 -0.7295
   42CHL1   H2B 3083   4.284   5.102   6.339 -0.7660 -0.5321  0.1200
   42CHL1   C20 3084   4.340   5.050   5.389  0.1539 -0.2740 -0.6741
   42CHL1   H20 3085   4.368   4.943   5.391  2.9810  0.3770 -1.4492
   42CHL1   C21 3086   4.463   5.137   5.420 -0.1242  0.6627  0.4026
   42CHL1  H21A 3087   4.533   5.135   5.334 -0.3678  1.5788  0.1647
   42CHL1  H21B 3088   4.531   5.112   5.505  1.5906  0.1964 -1.0365
   42CHL1  H21C 3089   4.428   5.242   5.429 -0.6311  0.3765  2.1006
   42CHL1   C22 3090   4.285   5.075   5.247 -0.3505 -0.2567  0.1660
   42CHL1  H22A 3091   4.174   5.063   5.240 -0.2984 -3.1920  2.4299
   42CHL1  H22B 3092   4.308   5.180   5.219  0.1956 -0.3294  0.3401
   42CHL1   C23 3093   4.348   4.983   5.145  0.2205 -0.6441 -0.2455
   42CHL1  H23A 3094   4.457   5.002   5.154  0.0837 -0.4446  1.2607
   42CHL1  H23B 3095   4.326   4.875   5.164  1.0188 -0.6203  0.8556
   42CHL1   C24 3096   4.319   5.025   5.001  0.0412  0.0836  1.1403
   42CHL1  H24A 3097   4.209   5.021   4.983  0.1289 -0.7464  0.7350
   42CHL1  H24B 3098   4.351   5.130   4.983  0.4352 -0.6105 -3.0732
   42CHL1   C25 3099   4.373   4.920   4.903  0.6168 -0.7896 -0.0191
   42CHL1   H25 3100   4.330   4.823   4.936  1.5551 -1.8131 -1.6896
   42CHL1   C26 3101   4.322   4.947   4.754 -0.0220  0.0395  0.3022
   42CHL1  H26A 3102   4.343   4.856   4.693 -1.3048  0.2636 -0.5127
   42CHL1  H26B 3103   4.213   4.969   4.757 -0.3333 -1.4380  1.1211
   42CHL1  H26C 3104   4.369   5.034   4.705 -0.5444  0.0279 -0.2265
   42CHL1   C27 3105   4.520   4.910   4.905  0.2319  0.1895  0.0441
   42CHL1  H27A 3106   4.566   4.989   4.841  2.9958 -2.4367 -1.4621
   42CHL1  H27B 3107   4.552   4.906   5.011 -0.0728 -2.4116  0.1080
   42CHL1  H27C 3108   4.561   4.822   4.851  1.6936 -0.6263  2.3657
   43CHL1    C3 3109   0.422   0.251   2.687  0.5046 -0.1704  0.6111
   43CHL1    H3 3110   0.438   0.147   2.724  0.8694  0.0153  0.9906
   43CHL1    O3 3111   0.458   0.246   2.547  0.0517  0.0942 -0.5464
   43CHL1   H3' 3112   0.385   0.194   2.513 -0.7238 -0.3129  1.5882
   43CHL1    C4 3113   0.284   0.305   2.704  1.0681  0.0872 -0.1298
   43CHL1   H4A 3114   0.278   0.398   2.643 -1.1263 -0.1439 -0.3500
   43CHL1   H4B 3115   0.212   0.235   2.658 -0.0270 -0.4255  2.2164
   43CHL1    C5 3116   0.243   0.320   2.854 -0.2230 -0.7322  0.0712
   43CHL1    C6 3117   0.137   0.267   2.908 -0.1641  0.1169 -0.4118
   43CHL1    H6 3118   0.071   0.214   2.837  0.5765 -0.2476 -0.8453
   43CHL1    C7 3119   0.089   0.293   3.050 -0.7755  0.2442 -0.2008
   43CHL1   H7A 3120  -0.019   0.319   3.047 -1.2459 -1.4994 -3.0233
   43CHL1   H7B 3121   0.095   0.199   3.109 -2.0190  0.5300  0.4280
   43CHL1    C8 3122   0.175   0.414   3.115 -0.3300 -0.3985 -0.4006
   43CHL1    H8 3123   0.157   0.518   3.081  0.5251  1.2156  3.5678
   43CHL1   C14 3124   0.154   0.397   3.262 -0.0660 -0.6406 -0.1953
   43CHL1   H14 3125   0.196   0.296   3.284  1.6372  0.4874  2.1741
   43CHL1   C15 3126   0.012   0.405   3.316  0.5803  0.0162  0.1217
   43CHL1  H15A 3127  -0.043   0.490   3.270 -1.8867 -1.0353  0.9444
   43CHL1  H15B 3128  -0.047   0.310   3.309 -2.0205  1.5358 -0.0412
   43CHL1   C16 3129   0.023   0.438   3.470 -0.3798  0.1772  0.0858
   43CHL1  H16A 3130  -0.021   0.540   3.479 -4.1506 -1.4006  1.1493
   43CHL1  H16B 3131  -0.028   0.364   3.535 -0.7105 -0.4007 -0.8168
   43CHL1   C17 3132   0.175   0.444   3.500 -0.6699  0.3248 -0.0061
   43CHL1   H17 3133   0.207   0.340   3.521  1.2095  0.0184 -3.5401
   43CHL1   C13 3134   0.234   0.482   3.362 -0.3753  0.1978  0.7874
   43CHL1   C18 3135   0.219   0.627   3.334 -0.0196  0.2139  0.5526
   43CHL1  H18A 3136   0.282   0.684   3.406  0.1912 -0.5428  0.9772
   43CHL1  H18B 3137   0.252   0.648   3.231 -1.2506 -0.5308 -0.0224
   43CHL1  H18C 3138   0.114   0.663   3.346 -0.2051  0.6818 -1.9170
   43CHL1   C12 3139   0.379   0.438   3.335  0.2141  0.4610  0.2699
   43CHL1  H12A 3140   0.457   0.498   3.387  0.5296 -0.2227  0.6012
   43CHL1  H12B 3141   0.392   0.332   3.365 -1.0083  1.1158  3.5247
   43CHL1   C11 3142   0.419   0.455   3.183 -0.3813  0.2258 -0.5489
   43CHL1  H11A 3143   0.417   0.562   3.154 -0.8197  0.6327  0.9091
   43CHL1  H11B 3144   0.521   0.416   3.160 -0.2014 -0.1454  0.7979
   43CHL1    C9 3145   0.319   0.388   3.090  0.1237  0.4897 -0.7219
   43CHL1    H9 3146   0.336   0.281   3.115  2.6304  0.1298 -3.4027
   43CHL1   C10 3147   0.349   0.407   2.937 -0.1253  0.0915 -0.0586
   43CHL1   C19 3148   0.330   0.553   2.887 -0.4363 -0.1058 -0.0729
   43CHL1  H19A 3149   0.223   0.584   2.885 -0.2559  0.4801 -1.0735
   43CHL1  H19B 3150   0.387   0.621   2.954 -0.1616  1.0020 -1.3756
   43CHL1  H19C 3151   0.375   0.564   2.786  2.2149  0.9830  1.1453
   43CHL1    C1 3152   0.496   0.360   2.904 -0.3619 -0.1695 -0.1611
   43CHL1   H1A 3153   0.557   0.434   2.960 -1.8446  1.0306 -0.0456
   43CHL1   H1B 3154   0.516   0.263   2.954  1.1505  0.0615 -0.2762
   43CHL1    C2 3155   0.526   0.345   2.757 -0.2614  0.2021 -0.3147
   43CHL1   H2A 3156   0.623   0.294   2.739  0.4416  0.8355  1.4934
   43CHL1   H2B 3157   0.508   0.436   2.695 -2.1320 -0.5958 -1.0229
   43CHL1   C20 3158   0.222   0.516   3.624  0.0963 -0.2720 -0.3872
   43CHL1   H20 3159   0.210   0.626   3.618 -0.3705 -0.1843  1.6120
   43CHL1   C21 3160   0.369   0.495   3.657  0.5573  0.3343 -0.1337
   43CHL1  H21A 3161   0.382   0.494   3.767 -0.9848  0.9389  0.0669
   43CHL1  H21B 3162   0.426   0.578   3.609 -0.1300  1.0777  0.3061
   43CHL1  H21C 3163   0.414   0.398   3.626 -1.1097 -0.4810 -0.0870
   43CHL1   C22 3164   0.137   0.475   3.749  0.0588 -0.2001  0.4424
   43CHL1  H22A 3165   0.033   0.508   3.728  0.8542  2.1859 -0.0721
   43CHL1  H22B 3166   0.120   0.365   3.753 -2.2014 -0.0336 -1.7749
   43CHL1   C23 3167   0.176   0.527   3.884  0.0973  0.8368 -0.3856
   43CHL1  H23A 3168   0.255   0.454   3.909  0.1084  0.5592 -1.1892
   43CHL1  H23B 3169   0.232   0.623   3.876  0.3344  0.9068  1.5949
   43CHL1   C24 3170   0.067   0.540   3.995  0.5436 -0.4669 -0.4428
   43CHL1  H24A 3171  -0.035   0.569   3.961  0.5352  2.4368  1.6859
   43CHL1  H24B 3172   0.061   0.437   4.036  0.2414 -0.0730  0.5204
   43CHL1   C25 3173   0.092   0.628   4.118 -0.1584  0.2652  0.3109
   43CHL1   H25 3174   0.102   0.733   4.083  1.0800 -0.8676 -3.1059
   43CHL1   C26 3175  -0.040   0.619   4.209 -0.4700 -0.2738 -0.4785
   43CHL1  H26A 3176  -0.054   0.513   4.238 -0.6645 -0.1951 -0.2783
   43CHL1  H26B 3177  -0.017   0.683   4.297  0.5705  0.8967 -1.5639
   43CHL1  H26C 3178  -0.130   0.653   4.153 -1.2213 -2.3800 -0.6348
   43CHL1   C27 3179   0.213   0.592   4.196  0.2557 -0.3937 -0.3337
   43CHL1  H27A 3180   0.296   0.622   4.130 -2.4379  1.7170 -3.0774
   43CHL1  H27B 3181   0.218   0.654   4.288 -1.6991  0.1782 -0.5584
   43CHL1  H27C 3182   0.222   0.485   4.223  0.2812  0.1040  1.7937
   44CHL1    C3 3183   1.469   5.631   2.716  0.8938  0.0482  0.6770
   44CHL1    H3 3184   1.505   5.529   2.742 -0.6387 -0.8736 -0.6048
   44CHL1    O3 3185   1.459   5.656   2.575 -0.1253 -0.3185  0.4097
   44CHL1   H3' 3186   1.473   5.751   2.573 -0.8369 -0.2093  0.0433
   44CHL1    C4 3187   1.327   5.636   2.773 -0.3591  0.1343 -0.5139
   44CHL1   H4A 3188   1.289   5.738   2.752  2.5775  1.5054  0.2831
   44CHL1   H4B 3189   1.262   5.563   2.719  0.9103 -0.5966 -1.1172
   44CHL1    C5 3190   1.337   5.621   2.924 -0.1895  0.2741 -0.2479
   44CHL1    C6 3191   1.292   5.514   2.985 -0.2614 -0.4858 -0.0006
   44CHL1    H6 3192   1.229   5.451   2.921  0.5150 -2.1956  0.8279
   44CHL1    C7 3193   1.301   5.485   3.131  0.0574 -0.3029 -0.4022
   44CHL1   H7A 3194   1.205   5.440   3.163 -0.6359  0.8129 -0.8570
   44CHL1   H7B 3195   1.379   5.406   3.142 -0.2134 -0.4463  0.5958
   44CHL1    C8 3196   1.340   5.606   3.214  0.3451  0.6514 -0.4749
   44CHL1    H8 3197   1.252   5.673   3.225 -0.8431 -0.8065 -0.7088
   44CHL1   C14 3198   1.373   5.559   3.363 -0.4172  0.3627  0.3137
   44CHL1   H14 3199   1.462   5.494   3.351 -0.5904  0.2015 -0.1060
   44CHL1   C15 3200   1.270   5.499   3.447  0.0702 -0.7368  0.5182
   44CHL1  H15A 3201   1.170   5.546   3.430 -0.3537 -1.5273  0.7683
   44CHL1  H15B 3202   1.248   5.394   3.418 -0.9450 -0.4632  0.2584
   44CHL1   C16 3203   1.333   5.511   3.591 -0.0570 -0.1669  0.5997
   44CHL1  H16A 3204   1.250   5.548   3.655  1.8884  1.3871  2.3907
   44CHL1  H16B 3205   1.378   5.415   3.623  0.3876 -0.3420 -0.5284
   44CHL1   C17 3206   1.445   5.611   3.574 -0.5691 -0.0460 -0.1652
   44CHL1   H17 3207   1.540   5.554   3.562  0.0018  0.2076  2.5401
   44CHL1   C13 3208   1.422   5.681   3.441 -0.7005  0.1482  0.2579
   44CHL1   C18 3209   1.317   5.789   3.458 -0.0140  0.3666  0.2576
   44CHL1  H18A 3210   1.281   5.826   3.360  0.4974 -1.7316 -0.7964
   44CHL1  H18B 3211   1.221   5.748   3.498 -0.5655  2.2807  0.9827
   44CHL1  H18C 3212   1.361   5.877   3.507 -0.6664  0.4728  0.6709
   44CHL1   C12 3213   1.559   5.724   3.376  0.1219 -0.6924 -0.3036
   44CHL1  H12A 3214   1.602   5.818   3.416  1.8583 -1.9277  0.8376
   44CHL1  H12B 3215   1.625   5.634   3.376  0.0079 -0.7890  0.8140
   44CHL1   C11 3216   1.527   5.783   3.237  0.3735 -0.2250  0.1664
   44CHL1  H11A 3217   1.463   5.873   3.251  0.0818 -0.0467 -1.9204
   44CHL1  H11B 3218   1.614   5.829   3.184  0.4327  1.5762  1.6998
   44CHL1    C9 3219   1.456   5.674   3.143  0.4631 -0.5574 -0.1391
   44CHL1    H9 3220   1.532   5.595   3.125 -1.5956 -2.4541 -0.9566
   44CHL1   C10 3221   1.431   5.726   2.997  0.1830  0.7809 -0.8718
   44CHL1   C19 3222   1.350   5.856   3.004  0.1835 -0.3321  0.9432
   44CHL1  H19A 3223   1.331   5.883   2.897  0.0625  1.1025  1.3002
   44CHL1  H19B 3224   1.250   5.834   3.048 -0.9783 -3.0274 -2.4871
   44CHL1  H19C 3225   1.402   5.933   3.064 -0.7804  0.9847  0.1556
   44CHL1    C1 3226   1.564   5.741   2.920 -0.2903 -0.5410  0.0862
   44CHL1   H1A 3227   1.615   5.836   2.945 -1.5476  0.1551  0.0432
   44CHL1   H1B 3228   1.639   5.663   2.945 -0.3732 -1.0391 -1.1222
   44CHL1    C2 3229   1.547   5.746   2.772  0.0159 -0.4869  0.0801
   44CHL1   H2A 3230   1.651   5.746   2.731 -0.1719  1.4102 -0.5056
   44CHL1   H2B 3231   1.509   5.849   2.757  2.1214  0.4895  0.9394
   44CHL1   C20 3232   1.446   5.702   3.704 -0.1964  0.1137 -0.1902
   44CHL1   H20 3233   1.362   5.774   3.715  0.9059  1.2862  0.9289
   44CHL1   C21 3234   1.573   5.792   3.691  0.3649  0.5000 -1.1035
   44CHL1  H21A 3235   1.561   5.865   3.608 -1.5877 -1.7970 -3.0170
   44CHL1  H21B 3236   1.659   5.727   3.665  0.9071  0.1572  1.2754
   44CHL1  H21C 3237   1.593   5.846   3.786 -2.6731 -0.3950  0.1861
   44CHL1   C22 3238   1.445   5.609   3.830  0.4566  0.1189  0.3135
   44CHL1  H22A 3239   1.349   5.557   3.847 -0.6017  1.9083  0.1405
   44CHL1  H22B 3240   1.529   5.537   3.824  0.1491 -0.3032  0.9804
   44CHL1   C23 3241   1.460   5.684   3.963 -0.5347  0.3115  0.7379
   44CHL1  H23A 3242   1.547   5.754   3.958  1.6611 -2.3140 -1.1365
   44CHL1  H23B 3243   1.372   5.745   3.993 -1.5339 -1.7224  2.1672
   44CHL1   C24 3244   1.477   5.591   4.088 -0.1861 -0.1301  0.2255
   44CHL1  H24A 3245   1.393   5.519   4.093 -1.9787  1.8339 -0.2474
   44CHL1  H24B 3246   1.574   5.540   4.070 -0.6173 -0.5916 -0.8866
   44CHL1   C25 3247   1.496   5.658   4.232  0.2238  0.6990 -0.1821
   44CHL1   H25 3248   1.547   5.756   4.220 -0.3894  0.9114 -1.2064
   44CHL1   C26 3249   1.359   5.690   4.298  0.5203  0.1986  0.5143
   44CHL1  H26A 3250   1.303   5.601   4.332 -0.1076  0.5095  0.3231
   44CHL1  H26B 3251   1.361   5.772   4.374  0.9048  1.0101 -0.3473
   44CHL1  H26C 3252   1.299   5.743   4.221  1.7273  0.3285 -0.3707
   44CHL1   C27 3253   1.581   5.564   4.323  0.1117  0.8431  0.3922
   44CHL1  H27A 3254   1.522   5.475   4.352 -1.9138  1.6916 -0.9390
   44CHL1  H27B 3255   1.673   5.531   4.271  0.2444 -0.5500  1.4454
   44CHL1  H27C 3256   1.622   5.620   4.411  0.4317  1.3729 -0.0837
   45CHL1    C3 3257   5.703   0.279   2.662  0.0021  0.1377  0.0546
   45CHL1    H3 3258   5.668   0.380   2.693 -1.3049 -0.5884  1.0226
   45CHL1    O3 3259   5.806   0.296   2.563  0.4646 -0.4425 -0.2323
   45CHL1   H3' 3260   5.859   0.217   2.570 -0.0213 -0.6221  1.9591
   45CHL1    C4 3261   5.759   0.212   2.788  0.0614  0.3107  0.0062
   45CHL1   H4A 3262   5.795   0.111   2.759  0.9703  0.5190  0.4062
   45CHL1   H4B 3263   5.850   0.270   2.810 -0.0009  1.7039 -2.8922
   45CHL1    C5 3264   5.657   0.206   2.898  0.1404 -0.0852  0.2722
   45CHL1    C6 3265   5.683   0.275   3.011  1.0499 -0.3230 -0.1119
   45CHL1    H6 3266   5.783   0.320   3.020  0.7194  0.2347  1.0162
   45CHL1    C7 3267   5.590   0.273   3.125 -0.7846 -0.4705 -0.9183
   45CHL1   H7A 3268   5.648   0.230   3.209 -2.7398 -1.6377 -0.0958
   45CHL1   H7B 3269   5.564   0.377   3.155  0.0798  0.0108 -1.7898
   45CHL1    C8 3270   5.470   0.179   3.112  0.1591 -0.3062  0.0565
   45CHL1    H8 3271   5.504   0.074   3.126  2.2696  0.1420 -1.3796
   45CHL1   C14 3272   5.358   0.228   3.207 -0.0543 -0.5203  0.1869
   45CHL1   H14 3273   5.332   0.334   3.184 -2.7830 -0.9206  1.0934
   45CHL1   C15 3274   5.406   0.236   3.354 -0.1160 -0.7188 -0.9813
   45CHL1  H15A 3275   5.455   0.138   3.371  0.6416  0.2864  5.4123
   45CHL1  H15B 3276   5.483   0.313   3.376 -0.3554 -0.4912 -0.9229
   45CHL1   C16 3277   5.272   0.256   3.428 -0.4180  0.3640  0.8773
   45CHL1  H16A 3278   5.265   0.180   3.509 -0.6661 -0.2441  0.2990
   45CHL1  H16B 3279   5.264   0.356   3.475  1.1400  0.3619  1.1848
   45CHL1   C17 3280   5.155   0.227   3.326 -0.3537  0.1946  0.0641
   45CHL1   H17 3281   5.128   0.329   3.290  0.8234  0.5563  0.1616
   45CHL1   C13 3282   5.224   0.153   3.213 -0.3215  0.0839 -0.1920
   45CHL1   C18 3283   5.243   0.006   3.254  0.2400  1.1618  0.3950
   45CHL1  H18A 3284   5.264  -0.011   3.362 -1.3537 -2.8279  0.2647
   45CHL1  H18B 3285   5.156  -0.057   3.223  1.7649 -0.6087 -0.4466
   45CHL1  H18C 3286   5.333  -0.041   3.209  0.1430 -1.4075  2.5868
   45CHL1   C12 3287   5.179   0.157   3.067  0.6114 -0.0414 -0.0755
   45CHL1  H12A 3288   5.084   0.100   3.064  1.0952 -1.0571  1.9059
   45CHL1  H12B 3289   5.151   0.261   3.039 -2.1812 -0.0877  2.0758
   45CHL1   C11 3290   5.284   0.102   2.971 -0.2178 -0.0379 -0.0744
   45CHL1  H11A 3291   5.299  -0.007   2.985  0.7937  0.1843  0.6409
   45CHL1  H11B 3292   5.250   0.109   2.865 -0.3683  0.9078  0.0248
   45CHL1    C9 3293   5.413   0.180   2.967 -0.4904  0.7947 -0.7063
   45CHL1    H9 3294   5.382   0.285   2.945 -2.3351  0.5138  0.3448
   45CHL1   C10 3295   5.519   0.140   2.861  0.0526 -0.2207 -0.0083
   45CHL1   C19 3296   5.536  -0.020   2.865 -0.0026 -0.8706  0.8943
   45CHL1  H19A 3297   5.449  -0.061   2.809 -0.3040  2.2148 -1.1450
   45CHL1  H19B 3298   5.634  -0.044   2.818 -0.1849 -3.1989  1.5573
   45CHL1  H19C 3299   5.538  -0.049   2.972 -0.4289  1.4873  1.5980
   45CHL1    C1 3300   5.480   0.192   2.720 -0.5890  0.0759  0.2743
   45CHL1   H1A 3301   5.405   0.118   2.686  2.8710 -1.9997 -3.8373
   45CHL1   H1B 3302   5.436   0.294   2.721 -0.4247  0.1634 -0.6955
   45CHL1    C2 3303   5.587   0.200   2.608 -0.1579  0.5580  0.4998
   45CHL1   H2A 3304   5.548   0.255   2.520 -1.2666 -0.1249  0.5419
   45CHL1   H2B 3305   5.615   0.095   2.582 -0.4844  0.4036  0.7608
   45CHL1   C20 3306   5.023   0.167   3.395  0.0430 -0.0429 -0.3059
   45CHL1   H20 3307   5.040   0.071   3.447  1.7207  0.3666 -0.0352
   45CHL1   C21 3308   4.911   0.153   3.285 -0.0611  0.1544  0.2166
   45CHL1  H21A 3309   4.933   0.061   3.227 -1.2296  0.0825 -0.1424
   45CHL1  H21B 3310   4.897   0.240   3.218  0.0093 -0.2082 -0.2707
   45CHL1  H21C 3311   4.813   0.128   3.333  0.4132 -1.3949  0.4216
   45CHL1   C22 3312   4.967   0.267   3.503 -0.2945  0.1082  0.0274
   45CHL1  H22A 3313   5.041   0.275   3.586 -0.4413 -0.7114  0.2456
   45CHL1  H22B 3314   4.956   0.372   3.469  0.3856  0.7243  1.5866
   45CHL1   C23 3315   4.825   0.229   3.559 -0.1190 -0.2305  0.2676
   45CHL1  H23A 3316   4.795   0.303   3.636 -1.0411 -1.9941  1.6693
   45CHL1  H23B 3317   4.749   0.230   3.478  0.5211  0.1312 -0.3482
   45CHL1   C24 3318   4.822   0.091   3.622 -0.1816  0.4043 -0.2885
   45CHL1  H24A 3319   4.832   0.005   3.552 -1.8557 -0.8965  0.9774
   45CHL1  H24B 3320   4.921   0.081   3.670  0.8889  1.1741 -2.2252
   45CHL1   C25 3321   4.702   0.075   3.719 -0.3834  0.0163  0.6913
   45CHL1   H25 3322   4.610   0.074   3.657  0.5873 -2.4553 -0.8452
   45CHL1   C26 3323   4.713  -0.067   3.784  0.6503  0.1410 -0.3284
   45CHL1  H26A 3324   4.804  -0.056   3.846  0.9579  0.6808 -0.8612
   45CHL1  H26B 3325   4.623  -0.091   3.845  0.7618  1.4756  0.4023
   45CHL1  H26C 3326   4.735  -0.134   3.698 -1.1259 -1.2825  0.2760
   45CHL1   C27 3327   4.706   0.175   3.834  0.0015  0.5411 -0.1838
   45CHL1  H27A 3328   4.678   0.278   3.806 -3.6897 -0.1696  0.4373
   45CHL1  H27B 3329   4.631   0.137   3.907 -0.8015 -2.7694 -2.5009
   45CHL1  H27C 3330   4.805   0.168   3.884 -0.6330 -0.0256  1.0248
   46CHL1    C3 3331   0.942   1.374   2.372  0.6784  0.5914  0.1798
   46CHL1    H3 3332   1.038   1.407   2.415  1.0466  1.7911 -1.4457
   46CHL1    O3 3333   0.967   1.368   2.235  0.4880 -0.4088 -0.2823
   46CHL1   H3' 3334   1.043   1.310   2.227  2.5249  1.7763  1.6467
   46CHL1    C4 3335   0.907   1.238   2.437  0.2501  0.0128 -0.3963
   46CHL1   H4A 3336   0.814   1.199   2.389  0.7789 -0.4254 -1.0965
   46CHL1   H4B 3337   0.993   1.171   2.415 -0.3504 -0.4960 -1.2746
   46CHL1    C5 3338   0.873   1.245   2.584  0.1767 -0.2206 -0.0154
   46CHL1    C6 3339   0.945   1.170   2.668  0.1267  0.2084 -1.2870
   46CHL1    H6 3340   1.021   1.101   2.629 -1.7151 -2.0041 -1.2154
   46CHL1    C7 3341   0.927   1.176   2.823  0.7703  0.4798 -0.5900
   46CHL1   H7A 3342   0.909   1.073   2.863 -1.0093  0.4940 -1.2583
   46CHL1   H7B 3343   1.013   1.223   2.875 -0.6473  2.6104 -0.0463
   46CHL1    C8 3344   0.799   1.249   2.861 -0.2883 -1.2084 -0.4347
   46CHL1    H8 3345   0.712   1.184   2.839 -1.1101  0.8777 -4.0150
   46CHL1   C14 3346   0.794   1.289   3.007  0.7259  0.0343  0.5501
   46CHL1   H14 3347   0.875   1.364   3.021 -0.1561  1.2381 -0.5069
   46CHL1   C15 3348   0.811   1.173   3.108 -0.0383 -0.2706 -0.2637
   46CHL1  H15A 3349   0.732   1.099   3.085 -1.0516  1.3527 -2.3963
   46CHL1  H15B 3350   0.909   1.125   3.088 -0.6498 -0.8485 -2.0843
   46CHL1   C16 3351   0.765   1.228   3.241 -0.5029 -0.1477  0.7156
   46CHL1  H16A 3352   0.684   1.161   3.277 -0.6634 -1.0163 -1.1112
   46CHL1  H16B 3353   0.856   1.235   3.304  0.2816  1.2878 -0.5196
   46CHL1   C17 3354   0.698   1.366   3.206  0.3592 -0.0895  0.2422
   46CHL1   H17 3355   0.770   1.449   3.214 -1.0472  1.0090  4.0865
   46CHL1   C13 3356   0.666   1.358   3.055 -0.2397 -0.3900  0.4454
   46CHL1   C18 3357   0.541   1.271   3.036  0.6874 -0.0426 -0.1681
   46CHL1  H18A 3358   0.452   1.334   3.058  1.3187  1.3291 -1.4004
   46CHL1  H18B 3359   0.518   1.245   2.931  0.0850  0.0733 -0.0696
   46CHL1  H18C 3360   0.536   1.177   3.095 -2.8280 -0.5069 -0.9498
   46CHL1   C12 3361   0.660   1.491   2.975 -0.0800 -0.0703  0.6421
   46CHL1  H12A 3362   0.565   1.545   2.996  1.2327  2.8899 -0.3795
   46CHL1  H12B 3363   0.744   1.561   2.996  1.4982 -1.3170 -1.1667
   46CHL1   C11 3364   0.665   1.463   2.824 -0.5482 -0.9333 -0.6254
   46CHL1  H11A 3365   0.569   1.414   2.798 -0.3392 -2.4938  1.3385
   46CHL1  H11B 3366   0.663   1.558   2.766 -0.5086 -0.1769  0.5797
   46CHL1    C9 3367   0.784   1.382   2.772 -0.0957 -0.0900  0.1134
   46CHL1    H9 3368   0.870   1.446   2.799  0.6997 -1.1468  0.1409
   46CHL1   C10 3369   0.778   1.363   2.618 -0.0304  0.1708  0.5797
   46CHL1   C19 3370   0.640   1.318   2.577 -0.4027 -0.1731 -0.4769
   46CHL1  H19A 3371   0.642   1.288   2.470  0.6636  0.1711 -0.5649
   46CHL1  H19B 3372   0.602   1.231   2.634  2.0514 -0.0487  1.5452
   46CHL1  H19C 3373   0.566   1.400   2.585  1.6981  1.8114 -0.3200
   46CHL1    C1 3374   0.819   1.496   2.544  0.1256 -0.2284  0.6688
   46CHL1   H1A 3375   0.744   1.576   2.565 -0.6127 -0.4377 -1.0394
   46CHL1   H1B 3376   0.921   1.528   2.576  1.1111 -0.3853 -2.0391
   46CHL1    C2 3377   0.839   1.479   2.393  0.6709 -0.3603 -0.2971
   46CHL1   H2A 3378   0.878   1.574   2.351  2.1143 -1.4436 -1.4826
   46CHL1   H2B 3379   0.745   1.447   2.342  0.7557  0.4845 -0.9935
   46CHL1   C20 3380   0.593   1.416   3.305 -0.8092 -0.2239 -0.0116
   46CHL1   H20 3381   0.499   1.359   3.287 -0.0762 -1.0726 -1.2941
   46CHL1   C21 3382   0.554   1.560   3.292 -0.2718  0.7422 -0.4333
   46CHL1  H21A 3383   0.644   1.618   3.321 -1.0403  2.2863 -1.0305
   46CHL1  H21B 3384   0.473   1.590   3.363 -1.2280  0.3123 -1.3205
   46CHL1  H21C 3385   0.534   1.597   3.189  0.5938  0.9025 -0.5497
   46CHL1   C22 3386   0.638   1.384   3.452 -0.3143  0.0717 -0.4101
   46CHL1  H22A 3387   0.643   1.274   3.461  0.6027  0.1146 -0.3297
   46CHL1  H22B 3388   0.737   1.427   3.479 -0.3686 -1.2810  2.2690
   46CHL1   C23 3389   0.542   1.433   3.566  0.9329 -0.2240  0.6627
   46CHL1  H23A 3390   0.543   1.543   3.578  0.6903 -0.2514  0.9372
   46CHL1  H23B 3391   0.440   1.394   3.547 -1.2410  2.6960  4.7865
   46CHL1   C24 3392   0.588   1.377   3.703  0.8705 -1.0859  0.1365
   46CHL1  H24A 3393   0.625   1.273   3.690 -1.5774 -1.6666 -3.5249
   46CHL1  H24B 3394   0.675   1.444   3.722 -0.5386  1.7456 -2.4404
   46CHL1   C25 3395   0.472   1.386   3.812 -0.4897  0.2684 -0.0275
   46CHL1   H25 3396   0.516   1.344   3.905 -1.5486  2.3531  1.5051
   46CHL1   C26 3397   0.435   1.525   3.843 -0.2321 -0.0946 -0.4237
   46CHL1  H26A 3398   0.335   1.531   3.892 -0.6887 -1.1248 -1.1899
   46CHL1  H26B 3399   0.505   1.584   3.905 -1.0170  0.8585 -0.4088
   46CHL1  H26C 3400   0.416   1.590   3.755  1.5086  0.7496 -0.2153
   46CHL1   C27 3401   0.346   1.304   3.774 -0.1342  0.0528 -0.9559
   46CHL1  H27A 3402   0.278   1.297   3.862 -0.7674  0.6079 -1.3930
   46CHL1  H27B 3403   0.292   1.354   3.691 -2.2057 -1.1482 -0.3825
   46CHL1  H27C 3404   0.372   1.201   3.740  2.0542  0.8634 -1.9561
   47CHL1    C3 3405   6.946   1.582   2.256  0.0278  0.1065 -0.9273
   47CHL1    H3 3406   7.034   1.549   2.315 -0.7102  1.1734  0.8611
   47CHL1    O3 3407   6.938   1.531   2.124 -1.1782 -0.6300  0.2696
   47CHL1   H3' 3408   7.026   1.528   2.086 -1.6024 -0.7597 -0.7304
   47CHL1    C4 3409   6.818   1.535   2.336 -0.1982 -0.9877 -0.0326
   47CHL1   H4A 3410   6.730   1.571   2.278  0.5166  4.5421  1.7779
   47CHL1   H4B 3411   6.831   1.425   2.349  0.3475 -1.1782 -1.8390
   47CHL1    C5 3412   6.818   1.612   2.470 -0.9163  0.0002 -0.9172
   47CHL1    C6 3413   6.795   1.542   2.581  0.0200  0.4836  0.4418
   47CHL1    H6 3414   6.769   1.436   2.572  0.5205  0.5189 -2.3925
   47CHL1    C7 3415   6.775   1.611   2.711 -0.4786  0.3416  0.2704
   47CHL1   H7A 3416   6.693   1.564   2.769 -0.6234  1.1797  0.7644
   47CHL1   H7B 3417   6.873   1.596   2.762  0.0773 -0.8686 -1.0687
   47CHL1    C8 3418   6.750   1.761   2.707  0.5805 -0.0008  0.2421
   47CHL1    H8 3419   6.646   1.782   2.676  1.5066  0.4582 -2.9236
   47CHL1   C14 3420   6.762   1.803   2.850  0.2109  0.6200 -0.4038
   47CHL1   H14 3421   6.868   1.800   2.883  0.3388  3.6881 -0.2600
   47CHL1   C15 3422   6.686   1.735   2.968 -0.7623  0.4634  0.0117
   47CHL1  H15A 3423   6.588   1.698   2.931 -1.3919  0.0515  1.9752
   47CHL1  H15B 3424   6.744   1.647   3.002 -1.1261 -0.4944 -1.7297
   47CHL1   C16 3425   6.672   1.842   3.075 -0.0971 -0.1459 -0.1935
   47CHL1  H16A 3426   6.568   1.852   3.113  0.6857  0.5186  1.8722
   47CHL1  H16B 3427   6.728   1.809   3.164 -0.1366  0.6594  0.1327
   47CHL1   C17 3428   6.741   1.974   3.019  0.6537 -0.5485 -0.0828
   47CHL1   H17 3429   6.849   1.969   3.043  1.0900 -0.2099 -1.8710
   47CHL1   C13 3430   6.740   1.955   2.867  0.4320  0.0575  0.4989
   47CHL1   C18 3431   6.608   2.003   2.805  0.4618 -0.4422 -1.0748
   47CHL1  H18A 3432   6.583   1.970   2.702 -2.0242 -2.3957  0.0503
   47CHL1  H18B 3433   6.523   1.959   2.862 -1.1468  3.1259 -0.4509
   47CHL1  H18C 3434   6.600   2.112   2.824 -0.1379 -0.6223 -0.2655
   47CHL1   C12 3435   6.853   2.029   2.791  0.9262  0.0755  0.3971
   47CHL1  H12A 3436   6.849   2.140   2.800  0.1918  0.0826  0.0962
   47CHL1  H12B 3437   6.941   1.994   2.848  0.3913 -2.0282  0.0136
   47CHL1   C11 3438   6.847   1.989   2.637 -0.0390  0.6064  0.0821
   47CHL1  H11A 3439   6.766   2.052   2.595 -1.5820 -0.6259  1.0936
   47CHL1  H11B 3440   6.940   2.014   2.583  0.6123  0.2887  1.0172
   47CHL1    C9 3441   6.850   1.830   2.617  0.1957 -0.1547 -0.1849
   47CHL1    H9 3442   6.947   1.793   2.655 -0.9290 -3.0705  0.0804
   47CHL1   C10 3443   6.835   1.771   2.473  1.1823  0.5996  0.3810
   47CHL1   C19 3444   6.705   1.835   2.402  0.0903 -0.5497 -0.0311
   47CHL1  H19A 3445   6.696   1.940   2.435 -1.3624 -1.0791  1.3736
   47CHL1  H19B 3446   6.703   1.818   2.293 -2.2027 -1.7196  0.1385
   47CHL1  H19C 3447   6.617   1.785   2.447  0.3791  0.6697  2.0280
   47CHL1    C1 3448   6.961   1.804   2.394  0.3259 -0.3968  0.2603
   47CHL1   H1A 3449   6.969   1.914   2.388  0.4101 -0.4108  0.1227
   47CHL1   H1B 3450   7.054   1.764   2.440  0.4081 -0.8549 -0.3026
   47CHL1    C2 3451   6.962   1.738   2.251 -0.1746  0.3734  0.4035
   47CHL1   H2A 3452   7.061   1.765   2.208 -0.3105  0.0403 -0.1204
   47CHL1   H2B 3453   6.875   1.777   2.194 -1.8231  0.4984  2.8556
   47CHL1   C20 3454   6.672   2.101   3.077  0.3082  0.9639 -0.0626
   47CHL1   H20 3455   6.571   2.112   3.031 -0.9657  0.5930  2.5098
   47CHL1   C21 3456   6.756   2.229   3.027 -0.1644 -0.4241  0.6138
   47CHL1  H21A 3457   6.720   2.253   2.925  2.1691  1.4603  0.1361
   47CHL1  H21B 3458   6.864   2.209   3.011 -0.1190  2.0668 -3.5786
   47CHL1  H21C 3459   6.731   2.317   3.089  0.9602  1.0012 -0.8848
   47CHL1   C22 3460   6.662   2.115   3.227  0.0458 -0.2519 -0.0284
   47CHL1  H22A 3461   6.617   2.216   3.239  2.3577  1.1968 -2.5127
   47CHL1  H22B 3462   6.594   2.032   3.257  1.7283 -1.2865  1.0356
   47CHL1   C23 3463   6.794   2.107   3.302  0.4000  0.0367  0.0775
   47CHL1  H23A 3464   6.854   2.018   3.270  0.2657 -0.2125  0.5058
   47CHL1  H23B 3465   6.859   2.188   3.263  0.7253 -0.2432  0.0188
   47CHL1   C24 3466   6.799   2.111   3.457  0.5854  0.1559  0.2727
   47CHL1  H24A 3467   6.901   2.117   3.498  0.4916  2.7028  0.3138
   47CHL1  H24B 3468   6.766   2.216   3.474  1.5596  0.6384 -0.6603
   47CHL1   C25 3469   6.718   2.004   3.534 -0.3209  0.2272  0.5450
   47CHL1   H25 3470   6.611   2.004   3.503 -0.0060 -2.3629 -0.7807
   47CHL1   C26 3471   6.771   1.860   3.532  0.7546 -1.3363 -0.1285
   47CHL1  H26A 3472   6.706   1.798   3.596 -1.8175 -0.4926 -1.7573
   47CHL1  H26B 3473   6.765   1.821   3.428 -0.5960  0.4256 -0.7802
   47CHL1  H26C 3474   6.873   1.849   3.576  0.7279  1.0380  0.6821
   47CHL1   C27 3475   6.709   2.051   3.688 -0.2499  0.2723 -0.3499
   47CHL1  H27A 3476   6.657   1.975   3.749 -0.0167  2.5343  2.8836
   47CHL1  H27B 3477   6.811   2.077   3.725 -0.9856  1.4368  0.9430
   47CHL1  H27C 3478   6.650   2.144   3.700 -0.2003  0.1617  0.8495
   48CHL1    C3 3479   4.706   6.392   2.431 -0.3672  0.3820  0.1336
   48CHL1    H3 3480   4.760   6.295   2.428  1.4290  1.3315  0.0265
   48CHL1    O3 3481   4.685   6.441   2.301 -0.0315 -0.3591 -0.5271
   48CHL1   H3' 3482   4.647   6.528   2.316  1.2163  0.5091 -2.0383
   48CHL1    C4 3483   4.570   6.375   2.499 -0.3379 -0.0564  0.1939
   48CHL1   H4A 3484   4.519   6.473   2.506 -0.0427  0.0356  1.4209
   48CHL1   H4B 3485   4.517   6.307   2.429  1.9074 -1.2213 -0.4851
   48CHL1    C5 3486   4.573   6.312   2.632 -0.0810  0.3902  0.0712
   48CHL1    C6 3487   4.503   6.199   2.654 -0.2646  0.4762  0.3797
   48CHL1    H6 3488   4.444   6.152   2.574  0.4877 -0.8101  0.5570
   48CHL1    C7 3489   4.509   6.129   2.794  0.0765  0.2126  0.7044
   48CHL1   H7A 3490   4.402   6.114   2.822  0.2368 -2.4439  0.1277
   48CHL1   H7B 3491   4.564   6.036   2.769 -0.2735  0.5201 -1.3556
   48CHL1    C8 3492   4.576   6.215   2.906 -0.0572  0.1817  0.4266
   48CHL1    H8 3493   4.500   6.283   2.949 -0.3672 -0.6750  1.2657
   48CHL1   C14 3494   4.605   6.126   3.022  0.0416 -0.5043 -0.0618
   48CHL1   H14 3495   4.681   6.049   2.996 -2.1601 -2.8488  0.0238
   48CHL1   C15 3496   4.499   6.027   3.086  0.2616 -0.2297  0.5696
   48CHL1  H15A 3497   4.403   6.078   3.110 -0.2807 -0.3623 -1.1897
   48CHL1  H15B 3498   4.480   5.940   3.020  0.9947 -1.5272  2.0090
   48CHL1   C16 3499   4.560   5.991   3.222  0.6202 -0.5613 -0.1307
   48CHL1  H16A 3500   4.497   6.016   3.310  1.8234 -0.8176  0.8387
   48CHL1  H16B 3501   4.584   5.882   3.217  0.3505 -0.5900 -1.0553
   48CHL1   C17 3502   4.681   6.087   3.242 -0.4906  0.0885 -0.2293
   48CHL1   H17 3503   4.767   6.032   3.197 -0.5677  0.4458 -0.8260
   48CHL1   C13 3504   4.662   6.202   3.140 -0.1744  0.0449 -0.9858
   48CHL1   C18 3505   4.557   6.301   3.209  0.1476 -0.2212  0.4847
   48CHL1  H18A 3506   4.543   6.391   3.145  1.1879 -0.9073 -0.7629
   48CHL1  H18B 3507   4.457   6.256   3.227  0.4495 -0.4994  1.4848
   48CHL1  H18C 3508   4.589   6.341   3.307 -1.0569  0.9499  0.4294
   48CHL1   C12 3509   4.793   6.273   3.096 -0.1361  0.0415  1.1301
   48CHL1  H12A 3510   4.849   6.333   3.172 -1.4252  0.6670  1.6171
   48CHL1  H12B 3511   4.868   6.193   3.082 -0.3614 -0.5532  2.9749
   48CHL1   C11 3512   4.775   6.364   2.972 -0.4535 -0.3545 -0.1710
   48CHL1  H11A 3513   4.707   6.447   3.000  0.7423  0.1769  1.3036
   48CHL1  H11B 3514   4.875   6.404   2.947 -0.6352  0.9100  1.0077
   48CHL1    C9 3515   4.703   6.297   2.852 -0.2519 -0.0840  0.1842
   48CHL1    H9 3516   4.767   6.212   2.818  1.0299  0.3701  1.3684
   48CHL1   C10 3517   4.670   6.384   2.726 -0.2987 -0.1290 -0.2083
   48CHL1   C19 3518   4.593   6.511   2.767  0.0534 -0.0945 -0.6813
   48CHL1  H19A 3519   4.643   6.566   2.850 -2.3862  1.9932 -0.4753
   48CHL1  H19B 3520   4.561   6.581   2.686 -1.6205 -0.1761 -0.1162
   48CHL1  H19C 3521   4.502   6.474   2.818  1.0725  0.4802  1.6621
   48CHL1    C1 3522   4.810   6.414   2.656  0.2568 -0.2572 -0.2233
   48CHL1   H1A 3523   4.883   6.467   2.721  0.6598 -1.0023 -0.0572
   48CHL1   H1B 3524   4.861   6.316   2.642  3.7963  1.5730 -1.3052
   48CHL1    C2 3525   4.793   6.483   2.517  0.3265 -0.2846  0.2389
   48CHL1   H2A 3526   4.891   6.497   2.466 -0.2827  0.3445 -0.7847
   48CHL1   H2B 3527   4.749   6.585   2.522 -1.3021 -0.9367 -0.2221
   48CHL1   C20 3528   4.702   6.120   3.390 -0.7704  0.2405  0.0582
   48CHL1   H20 3529   4.610   6.170   3.429 -0.4647  2.5524 -1.9211
   48CHL1   C21 3530   4.820   6.212   3.412  0.3177  0.2936  0.5433
   48CHL1  H21A 3531   4.815   6.303   3.349  1.3015 -0.5614 -0.8211
   48CHL1  H21B 3532   4.912   6.152   3.394  0.7857  0.9773  0.5911
   48CHL1  H21C 3533   4.833   6.253   3.515 -1.1467 -0.0346  0.8757
   48CHL1   C22 3534   4.727   5.982   3.468 -0.3175 -0.1438  0.0837
   48CHL1  H22A 3535   4.676   5.894   3.422  0.1802  0.4883 -1.8019
   48CHL1  H22B 3536   4.837   5.969   3.461  0.0267  2.7237 -3.4263
   48CHL1   C23 3537   4.684   5.997   3.618 -0.1961  0.2123  0.1715
   48CHL1  H23A 3538   4.762   6.058   3.669  0.3655 -1.6871  1.6741
   48CHL1  H23B 3539   4.588   6.053   3.623  0.3931  1.1888  1.1205
   48CHL1   C24 3540   4.668   5.860   3.682  0.0941  0.5790 -0.4702
   48CHL1  H24A 3541   4.608   5.795   3.614  1.1955 -1.1354  0.1379
   48CHL1  H24B 3542   4.767   5.811   3.680  0.1646  0.7360 -2.2570
   48CHL1   C25 3543   4.610   5.873   3.828 -0.1721  0.6538  0.1549
   48CHL1   H25 3544   4.514   5.929   3.833 -0.0106  1.0895 -1.3766
   48CHL1   C26 3545   4.560   5.740   3.887 -0.4610  0.0080  0.6144
   48CHL1  H26A 3546   4.474   5.703   3.828  2.2328 -1.7510 -2.5726
   48CHL1  H26B 3547   4.638   5.663   3.902  0.6191  0.6884 -1.1556
   48CHL1  H26C 3548   4.519   5.752   3.989  0.0225 -0.1390  0.8279
   48CHL1   C27 3549   4.710   5.928   3.927 -0.2896 -0.5767 -0.2075
   48CHL1  H27A 3550   4.685   5.962   4.030  1.5047  0.7386 -0.1703
   48CHL1  H27B 3551   4.788   5.851   3.940 -0.3813 -0.7345 -0.5736
   48CHL1  H27C 3552   4.759   6.014   3.875  0.2114 -0.0724  1.0752
   49CHL1    C3 3553   5.149   0.953   2.364  0.1506  0.1442  0.1650
   49CHL1    H3 3554   5.159   0.846   2.390 -0.2934 -0.1130 -0.6954
   49CHL1    O3 3555   5.147   0.967   2.226  0.4722  0.5432 -0.1933
   49CHL1   H3' 3556   5.119   1.055   2.201  1.5561  0.7766 -0.6742
   49CHL1    C4 3557   5.014   0.999   2.426  0.2707 -0.2275  0.1703
   49CHL1   H4A 3558   4.986   1.100   2.390  1.8674  0.2086  0.0953
   49CHL1   H4B 3559   4.944   0.918   2.395  0.4290  0.0427 -0.9112
   49CHL1    C5 3560   5.020   0.993   2.582 -0.1231  0.9345 -0.2153
   49CHL1    C6 3561   4.935   0.911   2.645  0.7842 -0.7290 -0.6849
   49CHL1    H6 3562   4.865   0.847   2.589 -1.3980 -0.6339  1.7544
   49CHL1    C7 3563   4.912   0.919   2.791 -0.6661 -0.5372 -0.9009
   49CHL1   H7A 3564   4.803   0.918   2.812 -0.6202 -1.1959 -0.6914
   49CHL1   H7B 3565   4.965   0.829   2.828 -0.2551  0.2083  0.4185
   49CHL1    C8 3566   4.986   1.041   2.851  0.2970  0.6014  0.2825
   49CHL1    H8 3567   4.924   1.126   2.816 -0.6937 -0.3610 -0.3742
   49CHL1   C14 3568   4.991   1.033   2.994 -0.0984  0.9035  0.0619
   49CHL1   H14 3569   5.037   0.936   3.024 -3.8539 -0.1052  3.3555
   49CHL1   C15 3570   4.856   1.026   3.069  0.1359  0.1659  0.2011
   49CHL1  H15A 3571   4.791   1.101   3.020  0.1528  0.5552  0.7792
   49CHL1  H15B 3572   4.816   0.923   3.055  4.7757 -1.7387 -1.3861
   49CHL1   C16 3573   4.892   1.052   3.218 -0.1525  0.5083  0.4813
   49CHL1  H16A 3574   4.821   1.122   3.266 -1.5275 -1.9883  2.2807
   49CHL1  H16B 3575   4.887   0.959   3.279 -3.0408  0.6515  0.6097
   49CHL1   C17 3576   5.038   1.107   3.213 -0.2052 -0.4874  0.4328
   49CHL1   H17 3577   5.110   1.027   3.239  1.1229  0.1504 -1.1057
   49CHL1   C13 3578   5.074   1.132   3.061 -1.0602 -0.3138  0.1940
   49CHL1   C18 3579   5.025   1.271   3.038  0.3318 -0.5479  0.3324
   49CHL1  H18A 3580   5.108   1.339   3.066  0.3068 -0.5454  0.4007
   49CHL1  H18B 3581   5.002   1.284   2.930 -0.5457 -0.9551  0.4583
   49CHL1  H18C 3582   4.925   1.288   3.083  0.7922  1.0520  0.8279
   49CHL1   C12 3583   5.222   1.118   3.022 -0.0056 -0.8601 -0.3076
   49CHL1  H12A 3584   5.298   1.180   3.074  2.0673 -1.9831 -1.8396
   49CHL1  H12B 3585   5.253   1.012   3.040 -0.1001 -0.7795  0.3680
   49CHL1   C11 3586   5.229   1.148   2.870  0.3037 -0.1746  0.9627
   49CHL1  H11A 3587   5.195   1.250   2.843  1.0820 -0.4205 -1.1886
   49CHL1  H11B 3588   5.333   1.130   2.834 -0.2764 -0.6749 -0.5700
   49CHL1    C9 3589   5.129   1.048   2.792  0.3707 -0.3876 -0.5175
   49CHL1    H9 3590   5.171   0.949   2.818 -2.8448 -1.8161 -0.3197
   49CHL1   C10 3591   5.128   1.073   2.642  0.0538 -0.1098  0.1307
   49CHL1   C19 3592   5.101   1.222   2.609 -0.4357  0.0713 -0.1032
   49CHL1  H19A 3593   5.009   1.251   2.665  1.1127  0.7909  2.1921
   49CHL1  H19B 3594   5.187   1.284   2.641  0.6579 -1.1193 -0.6738
   49CHL1  H19C 3595   5.092   1.249   2.501  1.7599 -0.4281 -0.4436
   49CHL1    C1 3596   5.264   1.026   2.577  0.2459 -0.5357 -0.3276
   49CHL1   H1A 3597   5.347   1.090   2.614  0.0499 -0.5468  0.1380
   49CHL1   H1B 3598   5.293   0.923   2.604 -0.1008 -0.5307  0.0675
   49CHL1    C2 3599   5.267   1.033   2.426  0.6625  0.1426  0.3042
   49CHL1   H2A 3600   5.358   0.978   2.393 -0.8133 -2.1117 -0.1789
   49CHL1   H2B 3601   5.274   1.138   2.389 -0.5627 -0.3305 -1.3876
   49CHL1   C20 3602   5.063   1.214   3.333  0.8351 -0.1460  1.0054
   49CHL1   H20 3603   5.015   1.311   3.308  0.3762 -1.0324 -1.9370
   49CHL1   C21 3604   5.218   1.235   3.347 -0.3008  0.2252 -0.5513
   49CHL1  H21A 3605   5.263   1.275   3.255 -0.2329  1.4225 -0.0159
   49CHL1  H21B 3606   5.265   1.137   3.371 -2.2356 -0.6514 -0.1086
   49CHL1  H21C 3607   5.250   1.307   3.426  1.1385 -1.9313  0.9386
   49CHL1   C22 3608   4.999   1.183   3.474 -0.6351  0.2760 -0.2961
   49CHL1  H22A 3609   4.890   1.163   3.474 -0.7991  1.0730  1.2476
   49CHL1  H22B 3610   5.042   1.086   3.505  0.4847  0.7989 -0.1675
   49CHL1   C23 3611   5.030   1.281   3.588  0.0015 -0.3042  0.1886
   49CHL1  H23A 3612   5.139   1.270   3.606 -0.1722  0.4507  1.8314
   49CHL1  H23B 3613   4.997   1.384   3.564  2.9232  0.5699 -0.5236
   49CHL1   C24 3614   4.955   1.236   3.713 -0.2620  0.2893  0.1338
   49CHL1  H24A 3615   4.850   1.272   3.705 -0.1152  0.6461 -0.2102
   49CHL1  H24B 3616   4.950   1.127   3.735  1.2973  0.1298 -0.2268
   49CHL1   C25 3617   4.996   1.301   3.846  0.5579  0.3465  0.1247
   49CHL1   H25 3618   4.988   1.410   3.830 -0.0407  0.7729  2.8072
   49CHL1   C26 3619   4.895   1.249   3.949  0.3305 -0.5075 -0.2520
   49CHL1  H26A 3620   4.908   1.305   4.044  0.0559  1.8781 -1.5214
   49CHL1  H26B 3621   4.787   1.257   3.923  0.5179 -1.5847 -1.4862
   49CHL1  H26C 3622   4.919   1.142   3.963  0.5404 -0.3296  0.7876
   49CHL1   C27 3623   5.146   1.263   3.884  0.2551  0.3478  0.4027
   49CHL1  H27A 3624   5.152   1.152   3.887  0.6374  0.3861  2.3411
   49CHL1  H27B 3625   5.216   1.297   3.804 -2.7635  0.1329 -2.5703
   49CHL1  H27C 3626   5.163   1.316   3.980 -0.3261 -4.0205  3.1603
   50CHL1    C3 3627   2.582   2.541   3.051  0.3948  0.3835  0.2910
   50CHL1    H3 3628   2.675   2.599   3.071 -0.5038  1.3039  1.9539
   50CHL1    O3 3629   2.602   2.477   2.925 -0.1064  0.2989  0.9435
   50CHL1   H3' 3630   2.546   2.524   2.864  1.2756  0.5494 -0.1869
   50CHL1    C4 3631   2.561   2.436   3.161  0.6924  0.2568  0.5724
   50CHL1   H4A 3632   2.463   2.387   3.145  0.9669  0.1420 -0.8144
   50CHL1   H4B 3633   2.641   2.360   3.148 -0.3826 -0.7220 -0.5984
   50CHL1    C5 3634   2.557   2.501   3.299 -0.7329  0.0401 -0.4727
   50CHL1    C6 3635   2.646   2.467   3.390 -0.8578  0.0418  0.3184
   50CHL1    H6 3636   2.712   2.382   3.366  0.1491  1.0531 -0.6333
   50CHL1    C7 3637   2.649   2.529   3.533  0.4527 -0.0451  0.0964
   50CHL1   H7A 3638   2.645   2.439   3.599 -0.6331 -0.4199 -0.4508
   50CHL1   H7B 3639   2.733   2.600   3.546  0.4669 -0.2905  1.4816
   50CHL1    C8 3640   2.521   2.613   3.566  0.1365  0.2513  0.4705
   50CHL1    H8 3641   2.441   2.536   3.575  0.2561  0.3492  3.1849
   50CHL1   C14 3642   2.536   2.690   3.694 -0.2452  0.2198  0.1087
   50CHL1   H14 3643   2.627   2.751   3.676  0.0053  0.0535  0.8099
   50CHL1   C15 3644   2.567   2.615   3.825  0.1726  0.6253 -0.1659
   50CHL1  H15A 3645   2.499   2.528   3.819  2.0436 -0.8840 -0.7264
   50CHL1  H15B 3646   2.671   2.575   3.832 -0.9872 -3.1663 -2.1459
   50CHL1   C16 3647   2.537   2.713   3.939 -0.0202 -1.0524 -0.1002
   50CHL1  H16A 3648   2.447   2.683   3.996  0.4168  2.2317  2.6438
   50CHL1  H16B 3649   2.622   2.725   4.010  0.3531 -0.6876 -0.6006
   50CHL1   C17 3650   2.496   2.842   3.864  0.0691 -0.0831 -0.2987
   50CHL1   H17 3651   2.594   2.892   3.845  0.7099  0.2544  3.1476
   50CHL1   C13 3652   2.436   2.800   3.727  0.1792 -0.0775 -0.1178
   50CHL1   C18 3653   2.295   2.739   3.751  0.4638 -0.0307  0.4193
   50CHL1  H18A 3654   2.263   2.679   3.664  1.2258  0.2845 -0.0879
   50CHL1  H18B 3655   2.295   2.683   3.847 -1.2098  0.1171  0.5223
   50CHL1  H18C 3656   2.217   2.818   3.763 -1.1784 -1.3638 -1.0053
   50CHL1   C12 3657   2.440   2.900   3.609 -0.4634  0.0362  0.4627
   50CHL1  H12A 3658   2.358   2.975   3.601  0.3225  0.7840 -1.1182
   50CHL1  H12B 3659   2.542   2.942   3.600 -1.2987  1.7624 -2.1911
   50CHL1   C11 3660   2.410   2.822   3.476 -0.0120  0.4328 -0.0009
   50CHL1  H11A 3661   2.301   2.799   3.468 -0.5782  2.3304  1.4546
   50CHL1  H11B 3662   2.426   2.890   3.389 -3.1743  2.6101  0.9379
   50CHL1    C9 3663   2.497   2.704   3.446 -0.2270  0.5626 -0.3219
   50CHL1    H9 3664   2.590   2.756   3.418 -0.5735  1.6879  0.5420
   50CHL1   C10 3665   2.453   2.614   3.319 -0.6887 -0.3212 -0.4069
   50CHL1   C19 3666   2.307   2.575   3.330 -0.5188  0.6416  0.7668
   50CHL1  H19A 3667   2.276   2.523   3.423  0.7620  2.0908  2.0455
   50CHL1  H19B 3668   2.242   2.664   3.339 -0.2168  0.7083  2.6265
   50CHL1  H19C 3669   2.271   2.517   3.242 -2.4493  2.2671  0.4202
   50CHL1    C1 3670   2.463   2.713   3.199  0.6481  0.2518 -0.9874
   50CHL1   H1A 3671   2.383   2.789   3.205  0.0747 -0.4707  1.6785
   50CHL1   H1B 3672   2.565   2.757   3.199  1.2824 -1.1317  0.1015
   50CHL1    C2 3673   2.468   2.643   3.056 -0.3934  0.6818  0.1524
   50CHL1   H2A 3674   2.499   2.716   2.978 -1.4345  2.1404  1.0727
   50CHL1   H2B 3675   2.374   2.603   3.013 -0.4964  1.2240 -0.1293
   50CHL1   C20 3676   2.402   2.936   3.943 -0.3194 -0.2096  0.6387
   50CHL1   H20 3677   2.309   2.879   3.966 -1.2103  0.4866 -1.0631
   50CHL1   C21 3678   2.353   3.063   3.862 -0.1877  0.3770  0.1823
   50CHL1  H21A 3679   2.433   3.123   3.814  0.2013 -0.7222 -0.5736
   50CHL1  H21B 3680   2.286   3.122   3.929  1.6065  1.2981  1.2273
   50CHL1  H21C 3681   2.293   3.017   3.780  0.4480  1.5033 -0.9517
   50CHL1   C22 3682   2.460   2.980   4.072  0.6888  0.1656  0.2585
   50CHL1  H22A 3683   2.501   2.887   4.116  0.3629  0.5120  1.3324
   50CHL1  H22B 3684   2.550   3.039   4.047  1.7039 -1.5959 -0.3968
   50CHL1   C23 3685   2.362   3.037   4.176  0.6969 -0.0643  0.4030
   50CHL1  H23A 3686   2.304   3.126   4.144  0.7469 -0.5176 -1.0240
   50CHL1  H23B 3687   2.295   2.953   4.206  2.0729 -1.5476 -0.5278
   50CHL1   C24 3688   2.448   3.085   4.288  0.2682 -0.2176 -0.3626
   50CHL1  H24A 3689   2.493   2.997   4.338 -2.3603 -1.8282 -0.6009
   50CHL1  H24B 3690   2.532   3.145   4.247  1.7077 -2.2823 -0.5743
   50CHL1   C25 3691   2.373   3.164   4.403 -0.2211  0.3638 -0.4470
   50CHL1   H25 3692   2.451   3.179   4.481  1.4651  0.8211 -2.1643
   50CHL1   C26 3693   2.323   3.299   4.355  0.1009  0.4259  0.4654
   50CHL1  H26A 3694   2.389   3.350   4.282 -2.9798 -0.8337 -3.5937
   50CHL1  H26B 3695   2.230   3.282   4.297  0.8894 -2.1965 -0.1854
   50CHL1  H26C 3696   2.300   3.370   4.437  2.3681 -0.2466  1.7855
   50CHL1   C27 3697   2.263   3.078   4.472 -0.2557  0.8075  0.4025
   50CHL1  H27A 3698   2.289   2.971   4.483 -0.4644  0.8312  1.1930
   50CHL1  H27B 3699   2.242   3.121   4.572  2.4011  0.6935  1.0682
   50CHL1  H27C 3700   2.177   3.090   4.403  0.3279  0.5084 -0.3959
   51CHL1    C3 3701   3.894   0.868   2.356  0.1662  1.0847 -0.1358
   51CHL1    H3 3702   3.970   0.791   2.381  1.1245  2.0233 -0.0336
   51CHL1    O3 3703   3.869   0.886   2.220  0.1775 -0.2946  0.0046
   51CHL1   H3' 3704   3.831   0.973   2.208  0.1944 -0.3055 -0.1371
   51CHL1    C4 3705   3.760   0.837   2.426  0.4016 -0.2149 -0.6993
   51CHL1   H4A 3706   3.688   0.915   2.393  0.0862  1.0503  2.6227
   51CHL1   H4B 3707   3.737   0.734   2.390  1.2167 -1.2307  1.4998
   51CHL1    C5 3708   3.759   0.844   2.574  0.3061  0.1834 -0.1908
   51CHL1    C6 3709   3.706   0.748   2.647  0.8362 -0.3151  0.3721
   51CHL1    H6 3710   3.655   0.659   2.607 -1.0254  0.6346  0.4845
   51CHL1    C7 3711   3.701   0.741   2.795  0.4153 -0.0006  0.6390
   51CHL1   H7A 3712   3.592   0.727   2.814 -0.0235  1.4118 -0.5907
   51CHL1   H7B 3713   3.765   0.660   2.836  0.0138 -0.7555 -0.1998
   51CHL1    C8 3714   3.735   0.879   2.857 -0.4303  0.3116  0.9859
   51CHL1    H8 3715   3.653   0.948   2.826  0.4136  1.0138  0.2191
   51CHL1   C14 3716   3.754   0.864   3.003  0.3396  0.4435 -1.1233
   51CHL1   H14 3717   3.846   0.801   3.008 -0.8098 -1.2789 -1.0869
   51CHL1   C15 3718   3.640   0.790   3.073  1.0801 -0.1968  0.1287
   51CHL1  H15A 3719   3.538   0.809   3.034  2.4670  1.9416 -2.8643
   51CHL1  H15B 3720   3.644   0.681   3.052 -2.9434 -0.5144  0.3102
   51CHL1   C16 3721   3.665   0.837   3.221 -0.6052  0.6515  0.7222
   51CHL1  H16A 3722   3.578   0.890   3.265  0.1067  0.4879  2.3918
   51CHL1  H16B 3723   3.696   0.747   3.278  0.4102 -1.4974 -2.8565
   51CHL1   C17 3724   3.790   0.927   3.218  0.6158  0.1595 -0.4664
   51CHL1   H17 3725   3.876   0.857   3.226  0.6067 -0.1210 -2.4649
   51CHL1   C13 3726   3.788   0.988   3.079  0.1251  0.0256  0.2528
   51CHL1   C18 3727   3.687   1.106   3.068 -0.4514  0.0848 -0.4827
   51CHL1  H18A 3728   3.582   1.076   3.091 -0.0264 -0.3436  0.9860
   51CHL1  H18B 3729   3.717   1.185   3.139 -0.4758 -0.3674  0.0315
   51CHL1  H18C 3730   3.692   1.138   2.961 -3.3817  1.8832 -0.1822
   51CHL1   C12 3731   3.919   1.031   3.019  0.0865  0.8221 -0.5100
   51CHL1  H12A 3732   3.947   1.125   3.072  1.2475 -0.5239  1.4162
   51CHL1  H12B 3733   3.998   0.957   3.046  0.6241  1.7679  0.6245
   51CHL1   C11 3734   3.926   1.049   2.867 -0.2686 -0.2127  0.4508
   51CHL1  H11A 3735   3.871   1.145   2.857  1.5854  0.8688  0.0069
   51CHL1  H11B 3736   4.033   1.060   2.839  0.0448 -0.6780  1.4396
   51CHL1    C9 3737   3.861   0.935   2.789 -0.2452  0.8158 -0.9061
   51CHL1    H9 3738   3.933   0.851   2.802 -0.1850  1.1980  1.9220
   51CHL1   C10 3739   3.836   0.956   2.639  0.5702 -0.2895  0.4584
   51CHL1   C19 3740   3.754   1.086   2.622 -0.4503 -0.2245  0.3518
   51CHL1  H19A 3741   3.729   1.108   2.516 -1.1346 -0.8321  0.3725
   51CHL1  H19B 3742   3.666   1.090   2.690 -0.7668 -1.4408  0.0518
   51CHL1  H19C 3743   3.826   1.160   2.660 -1.6214  0.9801  0.3048
   51CHL1    C1 3744   3.974   0.966   2.568  0.3500 -0.4169  1.0202
   51CHL1   H1A 3745   4.033   1.054   2.600 -0.0246  1.0277 -1.9569
   51CHL1   H1B 3746   4.038   0.876   2.578  1.4382  0.2680  0.4653
   51CHL1    C2 3747   3.962   0.991   2.413  0.0457 -0.0668 -0.2348
   51CHL1   H2A 3748   4.064   0.998   2.368 -0.0063 -0.2808 -0.3865
   51CHL1   H2B 3749   3.901   1.080   2.386 -0.6182 -0.7492 -1.0473
   51CHL1   C20 3750   3.801   1.012   3.350  0.1028 -0.8302  0.5808
   51CHL1   H20 3751   3.709   1.075   3.350  0.2211 -0.6193 -0.9438
   51CHL1   C21 3752   3.930   1.098   3.346  0.1301 -0.5566  0.2790
   51CHL1  H21A 3753   3.945   1.158   3.438  2.3445 -0.3033 -0.1838
   51CHL1  H21B 3754   3.920   1.171   3.263  1.8992  1.1526  1.4788
   51CHL1  H21C 3755   4.020   1.035   3.332  1.3881  0.5945  2.6479
   51CHL1   C22 3756   3.788   0.924   3.472 -0.3488  0.2843 -0.1380
   51CHL1  H22A 3757   3.698   0.859   3.477  1.3966 -2.2792 -0.1356
   51CHL1  H22B 3758   3.876   0.857   3.477 -1.1369 -0.8975 -1.1739
   51CHL1   C23 3759   3.786   1.012   3.600  0.5363  0.1190 -0.6230
   51CHL1  H23A 3760   3.778   0.938   3.683 -1.1726  0.9143 -0.0424
   51CHL1  H23B 3761   3.878   1.067   3.630  0.3017  1.0069 -1.4783
   51CHL1   C24 3762   3.674   1.117   3.606  0.1665 -0.5840  0.4182
   51CHL1  H24A 3763   3.709   1.210   3.557  0.1504 -0.6389  0.3018
   51CHL1  H24B 3764   3.578   1.075   3.569 -0.7449  0.9202  1.0141
   51CHL1   C25 3765   3.643   1.160   3.750 -0.3082  0.2659  0.1695
   51CHL1   H25 3766   3.626   1.073   3.817  0.1587  1.4283  1.8423
   51CHL1   C26 3767   3.750   1.247   3.818  0.0170 -0.1493 -0.3577
   51CHL1  H26A 3768   3.846   1.192   3.833 -1.0906 -1.5113  2.3247
   51CHL1  H26B 3769   3.775   1.327   3.745  0.3455  1.2154  1.1846
   51CHL1  H26C 3770   3.708   1.297   3.908 -2.1789 -0.9245 -0.9127
   51CHL1   C27 3771   3.505   1.231   3.750  0.6702 -0.4903 -0.2264
   51CHL1  H27A 3772   3.421   1.165   3.718  1.3320 -1.6792  0.3965
   51CHL1  H27B 3773   3.477   1.267   3.851  1.8308  0.4148 -0.2129
   51CHL1  H27C 3774   3.520   1.306   3.670  1.9941 -0.4434  0.0431
   52CHL1    C3 3775   4.150   2.720   3.121  0.3794 -0.1391 -0.0027
   52CHL1    H3 3776   4.098   2.818   3.123 -1.0262 -0.8495  2.0447
   52CHL1    O3 3777   4.171   2.680   2.985  0.0644 -0.4122 -0.1793
   52CHL1   H3' 3778   4.087   2.696   2.940 -0.7016 -0.9482  1.0237
   52CHL1    C4 3779   4.287   2.736   3.192  0.0087  0.0763 -0.3259
   52CHL1   H4A 3780   4.336   2.636   3.184 -2.8273 -1.5929  1.3963
   52CHL1   H4B 3781   4.334   2.820   3.137  0.6023  0.9619  1.4435
   52CHL1    C5 3782   4.266   2.778   3.336  0.3032 -0.3492  0.2570
   52CHL1    C6 3783   4.327   2.886   3.385 -0.6041  0.0399 -0.1981
   52CHL1    H6 3784   4.392   2.953   3.325  1.9644 -0.5266  1.7539
   52CHL1    C7 3785   4.316   2.930   3.531  0.6032  0.7052 -0.3001
   52CHL1   H7A 3786   4.418   2.964   3.561  0.4137 -0.0217  1.2539
   52CHL1   H7B 3787   4.253   3.020   3.539  0.9204  0.9158 -0.1343
   52CHL1    C8 3788   4.251   2.819   3.616 -0.9598  0.0055  0.1849
   52CHL1    H8 3789   4.327   2.740   3.637  0.9454  1.2691 -1.5424
   52CHL1   C14 3790   4.211   2.886   3.747 -1.1937  0.1798  0.1392
   52CHL1   H14 3791   4.136   2.961   3.715  0.9427  1.2672 -2.7425
   52CHL1   C15 3792   4.318   2.962   3.829  0.4935  0.6893 -0.1364
   52CHL1  H15A 3793   4.420   2.919   3.819 -0.3382 -1.1609 -1.1903
   52CHL1  H15B 3794   4.333   3.067   3.796 -1.6182  1.0178 -0.1502
   52CHL1   C16 3795   4.268   2.964   3.974 -0.1913 -0.3685  0.2825
   52CHL1  H16A 3796   4.342   2.910   4.037  1.2120 -2.6286 -2.9947
   52CHL1  H16B 3797   4.266   3.069   4.009 -1.1629 -0.3076  0.0608
   52CHL1   C17 3798   4.132   2.885   3.970  0.2610  0.3502 -0.3081
   52CHL1   H17 3799   4.056   2.963   3.950 -0.5988  0.0231  1.4172
   52CHL1   C13 3800   4.139   2.789   3.846 -0.6694 -0.4172  0.2116
   52CHL1   C18 3801   4.228   2.660   3.895  0.4706  0.7584  1.1894
   52CHL1  H18A 3802   4.241   2.593   3.807  0.5162 -0.7285  2.2895
   52CHL1  H18B 3803   4.333   2.689   3.917  1.7686 -0.3229 -2.7660
   52CHL1  H18C 3804   4.189   2.604   3.982  0.4223  0.5649  1.0456
   52CHL1   C12 3805   4.017   2.749   3.775  0.7718 -0.0999 -1.2136
   52CHL1  H12A 3806   3.952   2.687   3.841  0.4362  0.4189 -1.0506
   52CHL1  H12B 3807   3.956   2.838   3.750  0.0090  0.0041  0.7971
   52CHL1   C11 3808   4.033   2.684   3.643 -0.0618 -0.5869 -0.8935
   52CHL1  H11A 3809   4.055   2.577   3.661 -1.1901 -0.8167 -0.7547
   52CHL1  H11B 3810   3.934   2.679   3.591 -0.4921 -0.4684 -0.1074
   52CHL1    C9 3811   4.125   2.767   3.548 -0.5802 -0.1808  0.4113
   52CHL1    H9 3812   4.065   2.854   3.513 -2.4731 -1.3432  0.6176
   52CHL1   C10 3813   4.166   2.696   3.415  0.5311  0.6247 -0.9934
   52CHL1   C19 3814   4.223   2.558   3.452  0.1819 -0.8038  0.4388
   52CHL1  H19A 3815   4.268   2.512   3.361  1.2664  0.6566  0.1937
   52CHL1  H19B 3816   4.296   2.559   3.535 -0.2950  1.4910  0.9085
   52CHL1  H19C 3817   4.145   2.492   3.497  0.4597  0.1058  2.3344
   52CHL1    C1 3818   4.031   2.670   3.333  0.7342  0.5735  0.4253
   52CHL1   H1A 3819   3.975   2.594   3.393  2.0846 -2.2867 -1.6917
   52CHL1   H1B 3820   3.982   2.769   3.334  2.5690  1.5259  1.3018
   52CHL1    C2 3821   4.057   2.617   3.187 -0.3215 -0.4771  0.8273
   52CHL1   H2A 3822   3.962   2.607   3.129  1.2637  0.0355 -2.0788
   52CHL1   H2B 3823   4.106   2.518   3.190 -1.9692 -1.3162  1.0429
   52CHL1   C20 3824   4.099   2.832   4.112 -0.1207  0.4637  0.1388
   52CHL1   H20 3825   4.173   2.756   4.143 -2.2804 -1.4958  0.7358
   52CHL1   C21 3826   3.966   2.754   4.113 -0.1928 -0.1308 -0.4315
   52CHL1  H21A 3827   3.939   2.725   4.217 -0.7056  1.7079 -0.0166
   52CHL1  H21B 3828   3.978   2.658   4.060 -0.8194 -0.7410  0.5045
   52CHL1  H21C 3829   3.885   2.819   4.072 -0.0571 -0.1054 -0.6554
   52CHL1   C22 3830   4.113   2.941   4.218 -0.2844  1.0605 -0.0170
   52CHL1  H22A 3831   4.164   3.036   4.191  2.7145 -0.0366  1.3211
   52CHL1  H22B 3832   4.006   2.971   4.223 -0.7420 -0.5284  0.0708
   52CHL1   C23 3833   4.166   2.895   4.352  0.5497 -0.0142  0.2156
   52CHL1  H23A 3834   4.125   2.799   4.389 -1.0738  1.3719  2.2134
   52CHL1  H23B 3835   4.274   2.870   4.342  0.5834 -0.2649  1.1169
   52CHL1   C24 3836   4.152   3.000   4.463  0.6095  0.1117 -0.2391
   52CHL1  H24A 3837   4.046   3.019   4.492  0.8200 -0.6110  1.0680
   52CHL1  H24B 3838   4.187   2.955   4.558  0.9058 -0.2703 -0.5240
   52CHL1   C25 3839   4.219   3.141   4.449 -0.1828  1.2869 -0.6210
   52CHL1   H25 3840   4.185   3.196   4.359  0.1812  2.8044  0.1306
   52CHL1   C26 3841   4.202   3.234   4.572 -0.2381 -0.4163  0.3226
   52CHL1  H26A 3842   4.250   3.197   4.666 -2.0411 -1.9415  0.6936
   52CHL1  H26B 3843   4.250   3.330   4.543 -2.5675  0.6575 -0.1560
   52CHL1  H26C 3844   4.093   3.253   4.581 -0.2841  0.0329 -0.9117
   52CHL1   C27 3845   4.370   3.119   4.427 -0.6924  0.4530 -0.3642
   52CHL1  H27A 3846   4.387   3.086   4.322 -1.6590  2.2852 -1.1457
   52CHL1  H27B 3847   4.426   3.213   4.441 -0.3957  0.1111  0.8595
   52CHL1  H27C 3848   4.401   3.030   4.486  0.6144  0.6857 -0.6791
   53CHL1    C3 3849   5.517   2.013   2.706 -0.8287 -0.1671 -0.4656
   53CHL1    H3 3850   5.553   1.909   2.723  2.9061  1.0587 -0.0437
   53CHL1    O3 3851   5.470   2.022   2.571  0.9035  0.6636  0.1044
   53CHL1   H3' 3852   5.445   2.114   2.559  0.0828  0.4852  0.3528
   53CHL1    C4 3853   5.408   2.050   2.801  0.5018 -0.0760 -1.2020
   53CHL1   H4A 3854   5.354   2.141   2.766  0.4691 -0.1091 -1.2377
   53CHL1   H4B 3855   5.329   1.973   2.791 -0.1579  0.4039  0.1331
   53CHL1    C5 3856   5.448   2.059   2.942  0.1260  0.4668 -0.8027
   53CHL1    C6 3857   5.399   1.981   3.044 -0.5648  0.6422  0.5448
   53CHL1    H6 3858   5.320   1.911   3.012  0.7840 -1.9916  2.5884
   53CHL1    C7 3859   5.430   1.989   3.191 -0.3143 -0.6851  0.0921
   53CHL1   H7A 3860   5.336   1.987   3.250  0.1933  1.0396  1.0453
   53CHL1   H7B 3861   5.495   1.902   3.215  1.4515 -0.2784 -2.6877
   53CHL1    C8 3862   5.501   2.125   3.219 -0.2656  0.0298 -0.6094
   53CHL1    H8 3863   5.435   2.214   3.214  0.3675  0.5519  0.1704
   53CHL1   C14 3864   5.557   2.114   3.366  0.1106  0.6994  0.1970
   53CHL1   H14 3865   5.614   2.019   3.370  0.0563  0.6622  0.0589
   53CHL1   C15 3866   5.462   2.109   3.485 -0.4874  0.1373  0.1430
   53CHL1  H15A 3867   5.387   2.189   3.470  0.4486  0.5901 -2.8760
   53CHL1  H15B 3868   5.412   2.012   3.504 -0.0316 -0.4779 -1.6198
   53CHL1   C16 3869   5.558   2.138   3.609 -0.6417 -0.1064  0.0037
   53CHL1  H16A 3870   5.510   2.215   3.672 -2.2792 -0.5759 -0.6106
   53CHL1  H16B 3871   5.577   2.042   3.661  0.2030  0.7391  1.3106
   53CHL1   C17 3872   5.693   2.177   3.542  0.1908 -0.5424  0.0673
   53CHL1   H17 3873   5.754   2.087   3.521  1.2415  0.3361 -0.7642
   53CHL1   C13 3874   5.657   2.226   3.402  0.7940  0.4680 -0.3162
   53CHL1   C18 3875   5.591   2.370   3.407 -0.8441 -0.5470 -0.1444
   53CHL1  H18A 3876   5.520   2.375   3.493 -0.8407 -0.0579 -0.1696
   53CHL1  H18B 3877   5.676   2.440   3.421  1.0569 -2.6001 -0.7808
   53CHL1  H18C 3878   5.526   2.370   3.317 -1.2649 -2.1070  0.1209
   53CHL1   C12 3879   5.771   2.227   3.301 -0.1436  0.4163 -0.4979
   53CHL1  H12A 3880   5.837   2.310   3.334  1.7560 -1.2599  0.1265
   53CHL1  H12B 3881   5.806   2.123   3.318 -3.0488 -0.3770  1.4162
   53CHL1   C11 3882   5.717   2.254   3.156 -1.0442 -0.8162  0.3658
   53CHL1  H11A 3883   5.673   2.356   3.158 -0.5916 -0.6326  1.8066
   53CHL1  H11B 3884   5.796   2.252   3.077 -0.2987 -1.8814  1.1125
   53CHL1    C9 3885   5.616   2.146   3.117  0.9580  0.0702 -0.6772
   53CHL1    H9 3886   5.677   2.053   3.116  2.8720  1.2797 -0.8395
   53CHL1   C10 3887   5.559   2.159   2.973 -0.8676  0.4217 -0.1339
   53CHL1   C19 3888   5.516   2.306   2.945 -0.3210  0.1837  0.6802
   53CHL1  H19A 3889   5.448   2.324   3.031  0.7295 -2.0788  2.0608
   53CHL1  H19B 3890   5.601   2.377   2.956 -0.4959  1.0416 -2.3768
   53CHL1  H19C 3891   5.469   2.327   2.846 -1.7342  0.6727  1.4209
   53CHL1    C1 3892   5.671   2.133   2.861 -0.2615  0.0068 -0.0850
   53CHL1   H1A 3893   5.745   2.216   2.864  2.5124 -2.3250  3.0909
   53CHL1   H1B 3894   5.732   2.047   2.895  0.9128  0.3002 -1.3839
   53CHL1    C2 3895   5.634   2.110   2.707 -0.2197 -0.4976 -0.5111
   53CHL1   H2A 3896   5.718   2.055   2.659  0.0872  0.6415 -1.3100
   53CHL1   H2B 3897   5.608   2.207   2.659 -0.4138 -0.0632  0.4524
   53CHL1   C20 3898   5.782   2.274   3.618  0.2291 -0.4445  0.4762
   53CHL1   H20 3899   5.839   2.333   3.543 -1.8628  1.0685 -0.0203
   53CHL1   C21 3900   5.883   2.188   3.700 -0.0396 -0.2550 -0.2918
   53CHL1  H21A 3901   5.926   2.124   3.620 -2.9571  0.3973 -2.5668
   53CHL1  H21B 3902   5.829   2.118   3.768  1.3335 -3.4135 -2.2411
   53CHL1  H21C 3903   5.950   2.250   3.763 -1.7195  1.2299  0.1144
   53CHL1   C22 3904   5.718   2.375   3.714 -0.0050  0.1883 -0.0791
   53CHL1  H22A 3905   5.656   2.437   3.646 -0.4150 -0.9662 -0.7859
   53CHL1  H22B 3906   5.647   2.324   3.782  0.7464 -0.3231  0.3374
   53CHL1   C23 3907   5.816   2.470   3.782  0.4888  0.4720 -0.1676
   53CHL1  H23A 3908   5.838   2.418   3.878 -0.2347 -2.2289 -1.3673
   53CHL1  H23B 3909   5.918   2.470   3.739  0.5464 -0.5610 -0.0494
   53CHL1   C24 3910   5.762   2.608   3.810 -0.2804 -0.3899  0.3609
   53CHL1  H24A 3911   5.759   2.685   3.729  0.2560  0.3341  1.0201
   53CHL1  H24B 3912   5.659   2.602   3.851 -0.0388  0.1590  1.0592
   53CHL1   C25 3913   5.830   2.676   3.923 -0.2308  0.4081 -0.6382
   53CHL1   H25 3914   5.855   2.608   4.006  1.1698 -0.0304 -1.3907
   53CHL1   C26 3915   5.978   2.724   3.894  0.3247 -0.3448  0.6922
   53CHL1  H26A 3916   5.983   2.808   3.820 -0.4534  0.3859  1.4431
   53CHL1  H26B 3917   6.010   2.777   3.986 -0.6071  1.3745  0.0894
   53CHL1  H26C 3918   6.049   2.642   3.872  0.6183 -0.2013  1.0960
   53CHL1   C27 3919   5.743   2.789   3.979 -0.0766 -0.0749  0.6364
   53CHL1  H27A 3920   5.706   2.851   3.895 -0.4040 -1.1590 -0.0497
   53CHL1  H27B 3921   5.655   2.754   4.036  0.1354  0.3886  1.2544
   53CHL1  H27C 3922   5.798   2.863   4.041  0.3037  3.2764 -3.2554
   54CHL1    C3 3923   5.623   0.859   2.638 -0.1430  0.3383  1.0472
   54CHL1    H3 3924   5.549   0.942   2.636 -2.1765 -1.3746 -1.8191
   54CHL1    O3 3925   5.670   0.843   2.505  0.0396  0.2140 -0.0688
   54CHL1   H3' 3926   5.717   0.760   2.510  1.8603  1.2056  0.3013
   54CHL1    C4 3927   5.744   0.897   2.733 -0.7584 -0.0050  0.2589
   54CHL1   H4A 3928   5.828   0.824   2.732 -2.2744 -1.8250 -0.1618
   54CHL1   H4B 3929   5.781   0.992   2.689 -1.5159  0.1687 -0.0121
   54CHL1    C5 3930   5.687   0.913   2.873 -0.5103 -0.6080 -0.3959
   54CHL1    C6 3931   5.700   1.033   2.935  0.0829  0.2742 -0.1237
   54CHL1    H6 3932   5.775   1.104   2.896  1.1162 -0.1764  0.9727
   54CHL1    C7 3933   5.665   1.058   3.078  0.0324  0.2845  0.4354
   54CHL1   H7A 3934   5.758   1.090   3.130  0.3350 -0.0247  0.0915
   54CHL1   H7B 3935   5.585   1.134   3.085 -0.1546  0.2318 -0.8489
   54CHL1    C8 3936   5.639   0.926   3.149  0.1685 -0.6002  0.0424
   54CHL1    H8 3937   5.734   0.879   3.182  0.3315 -0.4333 -0.1884
   54CHL1   C14 3938   5.558   0.960   3.275 -0.2901 -0.6884 -0.4102
   54CHL1   H14 3939   5.465   1.013   3.245 -0.3896  0.9901  2.4870
   54CHL1   C15 3940   5.618   1.068   3.370  0.0829  0.6103  0.0870
   54CHL1  H15A 3941   5.725   1.047   3.391  0.4558  0.6881 -1.5575
   54CHL1  H15B 3942   5.627   1.163   3.313  1.7684  0.6161  0.3162
   54CHL1   C16 3943   5.538   1.059   3.501  0.6702  0.1305  0.1040
   54CHL1  H16A 3944   5.604   1.067   3.590 -2.1600  2.8251  2.1340
   54CHL1  H16B 3945   5.461   1.139   3.506  0.8023  0.6617 -3.4684
   54CHL1   C17 3946   5.457   0.919   3.485 -0.4528 -0.7133 -0.0430
   54CHL1   H17 3947   5.356   0.953   3.455 -1.0431 -2.1209  0.2716
   54CHL1   C13 3948   5.524   0.848   3.365 -0.3910  0.0584 -1.2071
   54CHL1   C18 3949   5.651   0.779   3.421 -0.3122 -0.1557 -0.4945
   54CHL1  H18A 3950   5.712   0.739   3.336 -0.6054  0.1610 -0.8584
   54CHL1  H18B 3951   5.720   0.840   3.483  2.1110 -3.8561  0.8172
   54CHL1  H18C 3952   5.624   0.695   3.488 -0.8634  1.1384  0.9422
   54CHL1   C12 3953   5.442   0.749   3.292  0.2493  0.8572  0.3383
   54CHL1  H12A 3954   5.452   0.656   3.352  0.8993  0.2925 -0.6291
   54CHL1  H12B 3955   5.339   0.791   3.292 -0.3546 -0.5006  1.9703
   54CHL1   C11 3956   5.499   0.708   3.152  0.6735  0.6425  0.2136
   54CHL1  H11A 3957   5.578   0.631   3.167  0.5605  0.4899  0.0342
   54CHL1  H11B 3958   5.421   0.648   3.100  0.6065  0.7399  0.2002
   54CHL1    C9 3959   5.550   0.826   3.069 -0.8126 -0.2845  0.2924
   54CHL1    H9 3960   5.464   0.891   3.040 -0.3464  0.6357  0.9465
   54CHL1   C10 3961   5.615   0.786   2.935  0.1996 -0.8977 -0.3352
   54CHL1   C19 3962   5.704   0.669   2.958 -0.8125 -0.8660 -0.4785
   54CHL1  H19A 3963   5.766   0.676   3.050 -0.2540  0.0706 -0.9102
   54CHL1  H19B 3964   5.646   0.575   2.966 -1.1744 -0.5170  1.3095
   54CHL1  H19C 3965   5.783   0.654   2.880  2.1046 -0.3676  2.1732
   54CHL1    C1 3966   5.506   0.753   2.831  0.3232  0.0454  0.2144
   54CHL1   H1A 3967   5.449   0.671   2.880  1.0484 -0.4376  0.2649
   54CHL1   H1B 3968   5.443   0.845   2.832 -0.4449 -0.4743  0.5421
   54CHL1    C2 3969   5.555   0.733   2.690 -0.0917  0.5087 -0.5472
   54CHL1   H2A 3970   5.464   0.709   2.630  0.4916  0.0485 -1.2687
   54CHL1   H2B 3971   5.617   0.641   2.696 -1.2083 -0.2212  0.2930
   54CHL1   C20 3972   5.445   0.848   3.625  0.3421  0.6752 -0.3442
   54CHL1   H20 3973   5.547   0.808   3.647  0.3815  1.0261  0.1156
   54CHL1   C21 3974   5.343   0.740   3.611 -0.6688  0.2463  0.3321
   54CHL1  H21A 3975   5.395   0.676   3.537 -0.3090  1.7163 -0.7148
   54CHL1  H21B 3976   5.247   0.777   3.570 -0.5385 -0.1441 -0.3283
   54CHL1  H21C 3977   5.325   0.683   3.705 -2.4409  3.0540  1.8475
   54CHL1   C22 3978   5.414   0.936   3.746 -0.1996 -0.4084 -0.2134
   54CHL1  H22A 3979   5.487   1.019   3.764  0.2102 -0.1795 -2.5849
   54CHL1  H22B 3980   5.311   0.977   3.741  0.4579  1.6192  1.2101
   54CHL1   C23 3981   5.434   0.855   3.878  0.5066  0.6828 -0.6881
   54CHL1  H23A 3982   5.371   0.764   3.882  0.9595  0.3842  1.9822
   54CHL1  H23B 3983   5.537   0.814   3.887  1.2865  2.5268 -0.7742
   54CHL1   C24 3984   5.416   0.914   4.024 -0.2911 -0.2548 -0.2451
   54CHL1  H24A 3985   5.465   0.840   4.091  1.7693  0.9884 -0.3185
   54CHL1  H24B 3986   5.466   1.012   4.039 -1.3042  0.2887 -0.3432
   54CHL1   C25 3987   5.264   0.940   4.060 -0.2942  0.5569  0.3783
   54CHL1   H25 3988   5.208   0.986   3.976 -0.5749  0.1011  0.3140
   54CHL1   C26 3989   5.177   0.812   4.074 -0.4952 -0.2444 -0.0925
   54CHL1  H26A 3990   5.071   0.832   4.046 -0.1324 -0.1436 -1.4615
   54CHL1  H26B 3991   5.211   0.727   4.011 -1.6825 -1.3743  0.7285
   54CHL1  H26C 3992   5.185   0.766   4.174 -1.1143  0.2407  0.1883
   54CHL1   C27 3993   5.252   1.041   4.175 -0.1756  0.0304  0.1106
   54CHL1  H27A 3994   5.147   1.076   4.183  0.1801  0.7313  2.3401
   54CHL1  H27B 3995   5.286   0.993   4.270  2.0193 -0.2226 -0.7331
   54CHL1  H27C 3996   5.326   1.120   4.151 -0.8967  0.1617 -1.8274
   55CHL1    C3 3997   3.096   2.869   3.051 -0.4425 -0.4006 -0.0184
   55CHL1    H3 3998   3.102   2.972   3.010  0.0258 -0.3549  0.1672
   55CHL1    O3 3999   3.160   2.764   2.971  0.3303  0.5694 -0.0481
   55CHL1   H3' 4000   3.190   2.703   3.038  0.0927 -0.0088 -0.4538
   55CHL1    C4 4001   3.161   2.869   3.187  0.1962 -0.6344 -0.5572
   55CHL1   H4A 4002   3.163   2.765   3.226 -0.9843 -0.6654 -0.5542
   55CHL1   H4B 4003   3.267   2.897   3.165 -0.4612  2.3104 -0.4330
   55CHL1    C5 4004   3.100   2.967   3.290  0.0911 -0.4142 -0.4088
   55CHL1    C6 4005   3.172   3.062   3.349 -0.4705  0.7827  0.3986
   55CHL1    H6 4006   3.280   3.073   3.336 -0.2577 -0.2658  1.1014
   55CHL1    C7 4007   3.110   3.148   3.454 -0.1885  0.4220  0.0925
   55CHL1   H7A 4008   3.184   3.159   3.537  1.1523 -2.2049 -0.6308
   55CHL1   H7B 4009   3.105   3.252   3.417  0.7071  0.5831  0.3855
   55CHL1    C8 4010   2.967   3.112   3.495  0.7259 -0.1333  0.5153
   55CHL1    H8 4011   2.966   3.033   3.573 -0.5132  0.5567  1.2228
   55CHL1   C14 4012   2.916   3.238   3.565 -0.0593 -0.0780 -0.5594
   55CHL1   H14 4013   2.912   3.311   3.481 -0.9241  2.3185  1.4349
   55CHL1   C15 4014   3.003   3.299   3.680  0.1532  0.5031  0.5827
   55CHL1  H15A 4015   3.025   3.221   3.756 -0.8064  0.2436  0.6152
   55CHL1  H15B 4016   3.101   3.332   3.639  1.5439  0.3010  3.5034
   55CHL1   C16 4017   2.901   3.398   3.739 -0.4043 -0.4100  0.0546
   55CHL1  H16A 4018   2.905   3.371   3.847  1.6290  0.6187  0.2822
   55CHL1  H16B 4019   2.934   3.503   3.727 -0.3571 -0.4751 -0.4071
   55CHL1   C17 4020   2.765   3.371   3.671  0.6198 -0.3867  0.3467
   55CHL1   H17 4021   2.767   3.436   3.581 -2.6134  0.7582  0.9619
   55CHL1   C13 4022   2.767   3.227   3.612  0.1324 -0.3120  0.3027
   55CHL1   C18 4023   2.746   3.117   3.715 -0.0188  0.3654  0.5619
   55CHL1  H18A 4024   2.776   3.153   3.816  0.0309  1.8088  0.0475
   55CHL1  H18B 4025   2.641   3.082   3.724  0.6641 -2.7233 -1.6857
   55CHL1  H18C 4026   2.804   3.030   3.678 -0.4905 -0.4212  1.6187
   55CHL1   C12 4027   2.680   3.201   3.482 -0.7320 -0.6984 -0.5936
   55CHL1  H12A 4028   2.576   3.184   3.514 -0.7552 -0.1781 -0.3840
   55CHL1  H12B 4029   2.695   3.284   3.410  0.5886 -0.8494 -0.5331
   55CHL1   C11 4030   2.729   3.072   3.405 -0.7847  0.0050  0.3161
   55CHL1  H11A 4031   2.711   2.993   3.481  0.1468  0.3231  0.8887
   55CHL1  H11B 4032   2.677   3.039   3.312 -0.4000 -1.2975  0.5427
   55CHL1    C9 4033   2.879   3.074   3.378  0.6295 -0.1034  0.0906
   55CHL1    H9 4034   2.891   3.164   3.316  0.2950 -1.3537 -1.8695
   55CHL1   C10 4035   2.941   2.955   3.302 -0.3453 -0.5069 -0.0676
   55CHL1   C19 4036   2.915   2.823   3.384 -0.5323 -0.3671  0.2794
   55CHL1  H19A 4037   2.962   2.732   3.341 -0.2604 -1.2792  2.3786
   55CHL1  H19B 4038   2.952   2.823   3.489 -0.4987 -0.4951  0.2673
   55CHL1  H19C 4039   2.805   2.803   3.383 -0.9389  1.6777 -1.6666
   55CHL1    C1 4040   2.868   2.939   3.162 -0.3162 -0.2727  0.4837
   55CHL1   H1A 4041   2.761   2.907   3.169 -0.1056 -0.7831  1.5013
   55CHL1   H1B 4042   2.869   3.043   3.122 -0.8357  0.1811  1.6050
   55CHL1    C2 4043   2.943   2.842   3.065  0.1710 -0.0944  0.8239
   55CHL1   H2A 4044   2.897   2.848   2.964 -2.4604  2.5343  2.0158
   55CHL1   H2B 4045   2.921   2.742   3.108 -0.1612 -1.2155 -1.8011
   55CHL1   C20 4046   2.646   3.423   3.753  0.5867 -0.4875  0.2499
   55CHL1   H20 4047   2.620   3.357   3.838 -0.4335 -1.9236 -1.1230
   55CHL1   C21 4048   2.510   3.413   3.674 -0.3284  0.3241 -0.1162
   55CHL1  H21A 4049   2.519   3.472   3.580  0.3895  0.0775 -0.2126
   55CHL1  H21B 4050   2.424   3.440   3.738 -0.5363  1.0420 -0.6742
   55CHL1  H21C 4051   2.490   3.308   3.644  0.1119 -0.4052  1.9941
   55CHL1   C22 4052   2.657   3.568   3.817 -0.1251 -0.2999 -0.1437
   55CHL1  H22A 4053   2.557   3.590   3.859 -0.7877 -1.8009 -0.8585
   55CHL1  H22B 4054   2.741   3.546   3.887 -0.4046 -2.5533 -0.4594
   55CHL1   C23 4055   2.683   3.674   3.706 -0.2930 -0.4502  0.2039
   55CHL1  H23A 4056   2.770   3.645   3.643 -2.2013  1.1964 -3.5362
   55CHL1  H23B 4057   2.594   3.702   3.645  0.6226  2.2918 -0.0000
   55CHL1   C24 4058   2.721   3.810   3.768 -0.4317 -0.1338  0.4885
   55CHL1  H24A 4059   2.815   3.785   3.822 -1.2127 -2.0153  1.0622
   55CHL1  H24B 4060   2.746   3.884   3.690 -1.1165 -0.7405 -0.3272
   55CHL1   C25 4061   2.632   3.865   3.870 -0.1737 -0.2047 -0.2678
   55CHL1   H25 4062   2.611   3.780   3.939  2.7125 -0.3475  0.5524
   55CHL1   C26 4063   2.696   3.977   3.957 -0.3336  0.1940  0.2642
   55CHL1  H26A 4064   2.725   4.059   3.889  2.3511 -1.2535 -0.4828
   55CHL1  H26B 4065   2.624   4.016   4.031 -0.7655  0.1824 -0.1426
   55CHL1  H26C 4066   2.791   3.946   4.005  0.1452 -0.3636 -0.9926
   55CHL1   C27 4067   2.495   3.916   3.812  0.1533 -0.0434 -0.1703
   55CHL1  H27A 4068   2.447   3.847   3.739 -0.3428  0.1006  0.0165
   55CHL1  H27B 4069   2.424   3.929   3.896  0.9385  0.5344  0.4160
   55CHL1  H27C 4070   2.516   4.012   3.759  1.3312 -1.4902 -2.5469
   56CHL1    C3 4071   2.639   1.199   2.859  0.9609  0.6256 -1.0001
   56CHL1    H3 4072   2.528   1.194   2.860  0.8542  1.4566  2.3236
   56CHL1    O3 4073   2.694   1.154   2.738 -0.2396 -0.0508  0.3613
   56CHL1   H3' 4074   2.664   1.216   2.671  1.9208  1.8453  1.0035
   56CHL1    C4 4075   2.681   1.339   2.884 -0.6390 -0.7466  0.5946
   56CHL1   H4A 4076   2.792   1.344   2.873 -0.6775 -1.0604  0.0547
   56CHL1   H4B 4077   2.635   1.403   2.806  2.2278 -0.4210 -0.9805
   56CHL1    C5 4078   2.647   1.397   3.024 -0.3176 -0.0686 -0.9457
   56CHL1    C6 4079   2.579   1.508   3.041  0.2818  0.7706  0.3593
   56CHL1    H6 4080   2.535   1.553   2.950 -0.3332 -1.4662 -0.5147
   56CHL1    C7 4081   2.537   1.578   3.173 -0.2359  0.7761 -0.2396
   56CHL1   H7A 4082   2.580   1.680   3.171  0.7372  0.3966 -2.4854
   56CHL1   H7B 4083   2.428   1.578   3.192 -0.5437 -0.5842 -1.7840
   56CHL1    C8 4084   2.607   1.507   3.294 -0.1689 -0.5072  0.0505
   56CHL1    H8 4085   2.706   1.554   3.312 -0.0197 -0.6470 -0.4045
   56CHL1   C14 4086   2.521   1.538   3.418 -0.1774 -0.6617  0.0308
   56CHL1   H14 4087   2.428   1.479   3.407 -0.2376 -0.4119 -0.8834
   56CHL1   C15 4088   2.471   1.680   3.458 -0.3881  0.6598  0.6526
   56CHL1  H15A 4089   2.562   1.744   3.467  0.4007 -0.1658 -0.9189
   56CHL1  H15B 4090   2.400   1.720   3.383  1.3698 -0.6163 -1.8654
   56CHL1   C16 4091   2.418   1.654   3.601  0.5349  0.4515  0.1593
   56CHL1  H16A 4092   2.430   1.741   3.669 -2.6415  0.0584  1.3912
   56CHL1  H16B 4093   2.308   1.643   3.585  0.0911 -1.1081  3.5136
   56CHL1   C17 4094   2.476   1.518   3.648 -0.7437  0.0849 -0.3348
   56CHL1   H17 4095   2.402   1.438   3.628 -0.9429  0.4889 -1.2070
   56CHL1   C13 4096   2.583   1.485   3.547 -0.6073 -0.0279  0.0780
   56CHL1   C18 4097   2.718   1.547   3.584 -0.2580 -0.0537 -0.1204
   56CHL1  H18A 4098   2.707   1.657   3.596  1.1408  0.2744 -1.4835
   56CHL1  H18B 4099   2.763   1.501   3.675 -1.0661 -2.7865 -1.0051
   56CHL1  H18C 4100   2.795   1.533   3.505 -0.5164  0.5617 -0.4880
   56CHL1   C12 4101   2.597   1.331   3.530  0.2729  0.8022 -0.2077
   56CHL1  H12A 4102   2.638   1.291   3.626 -1.0878  0.7765  0.3739
   56CHL1  H12B 4103   2.495   1.291   3.514 -0.4757  1.5902  2.1936
   56CHL1   C11 4104   2.685   1.295   3.408  0.5434  0.7797  0.0696
   56CHL1  H11A 4105   2.791   1.322   3.429  0.0962  3.8731 -1.0630
   56CHL1  H11B 4106   2.680   1.185   3.392 -0.5519  0.7781  0.3718
   56CHL1    C9 4107   2.620   1.354   3.282 -0.3468 -0.3610  0.4676
   56CHL1    H9 4108   2.516   1.315   3.280 -0.9710  1.2584 -0.5119
   56CHL1   C10 4109   2.693   1.314   3.146  0.4961 -0.1058 -0.3285
   56CHL1   C19 4110   2.846   1.337   3.171  0.1455 -0.0636 -0.1351
   56CHL1  H19A 4111   2.868   1.409   3.254  1.4955 -0.9749  0.3296
   56CHL1  H19B 4112   2.892   1.239   3.197 -1.2437 -0.9872 -1.0288
   56CHL1  H19C 4113   2.900   1.363   3.078  1.6524 -0.3746  0.6271
   56CHL1    C1 4114   2.658   1.169   3.117  0.0762 -0.2050 -0.4415
   56CHL1   H1A 4115   2.715   1.110   3.191  0.2952 -0.2682 -0.6581
   56CHL1   H1B 4116   2.551   1.148   3.137  0.1196  0.8909  1.1070
   56CHL1    C2 4117   2.693   1.113   2.973 -0.0864  0.6251 -0.6908
   56CHL1   H2A 4118   2.654   1.010   2.956 -1.5791  1.2565 -1.2138
   56CHL1   H2B 4119   2.802   1.107   2.953 -0.3054  0.2963 -1.8419
   56CHL1   C20 4120   2.508   1.509   3.800  0.3886 -0.2374 -0.0049
   56CHL1   H20 4121   2.576   1.423   3.817  0.4266 -0.2173 -0.0538
   56CHL1   C21 4122   2.383   1.468   3.875 -0.6742  0.2694 -0.4867
   56CHL1  H21A 4123   2.333   1.387   3.818 -1.1065 -0.8380  1.3853
   56CHL1  H21B 4124   2.325   1.562   3.885 -1.9024 -0.5523  0.3987
   56CHL1  H21C 4125   2.409   1.424   3.974  0.9542  0.7329 -0.6709
   56CHL1   C22 4126   2.573   1.627   3.873 -0.4452  0.2927 -0.0048
   56CHL1  H22A 4127   2.666   1.643   3.815 -1.7702 -1.5893 -2.9095
   56CHL1  H22B 4128   2.505   1.715   3.873 -0.9584 -0.0832  1.3663
   56CHL1   C23 4129   2.616   1.602   4.020  0.0276 -0.2069  0.2481
   56CHL1  H23A 4130   2.523   1.567   4.070 -1.0659  0.3790 -1.2574
   56CHL1  H23B 4131   2.698   1.528   4.029  0.7051  0.1884 -2.0125
   56CHL1   C24 4132   2.670   1.733   4.085  0.2769  0.5638 -0.1534
   56CHL1  H24A 4133   2.753   1.767   4.019 -1.5977  1.4892 -2.1473
   56CHL1  H24B 4134   2.593   1.812   4.074 -0.5520  0.0200  1.4444
   56CHL1   C25 4135   2.712   1.706   4.235 -0.3766 -0.0188  0.5185
   56CHL1   H25 4136   2.787   1.624   4.234  1.7526  1.8362  0.4878
   56CHL1   C26 4137   2.787   1.835   4.272 -0.3174  0.3388  0.1293
   56CHL1  H26A 4138   2.840   1.816   4.368 -0.9502 -1.3993  0.1887
   56CHL1  H26B 4139   2.862   1.867   4.197  0.7399 -1.5140  0.3398
   56CHL1  H26C 4140   2.716   1.918   4.295 -0.2714  0.6861 -0.9608
   56CHL1   C27 4141   2.593   1.673   4.323  0.6670  0.0235 -0.2757
   56CHL1  H27A 4142   2.522   1.755   4.302  0.5744 -0.2937 -1.2652
   56CHL1  H27B 4143   2.546   1.575   4.298  0.0793  0.1338  0.3579
   56CHL1  H27C 4144   2.613   1.686   4.432 -0.8850  1.3234 -0.1193
   57SAPC     N 4145   0.225   2.492   6.722  0.0103 -0.0136  0.4224
   57SAPC   C12 4146   0.334   2.493   6.615 -0.3321  0.3505 -0.1264
   57SAPC  H12A 4147   0.305   2.426   6.534  2.0464 -1.7462  0.6348
   57SAPC  H12B 4148   0.426   2.452   6.653 -0.1025  1.0683  0.1002
   57SAPC   C13 4149   0.091   2.524   6.676  0.2679  0.0637  0.2970
   57SAPC  H13A 4150   0.023   2.522   6.760  2.9854 -0.2178  2.6574
   57SAPC  H13B 4151   0.100   2.627   6.644  0.8460  0.9585  3.0612
   57SAPC  H13C 4152   0.057   2.469   6.590 -1.0310  2.2435 -0.6681
   57SAPC   C14 4153   0.232   2.359   6.781 -0.0824  0.1239 -0.1347
   57SAPC  H14A 4154   0.171   2.366   6.870  0.4404  0.1369  0.2283
   57SAPC  H14B 4155   0.202   2.292   6.701  0.7521  1.0460 -1.2586
   57SAPC  H14C 4156   0.328   2.327   6.818  0.2502  1.2742  0.0175
   57SAPC   C15 4157   0.252   2.588   6.824 -0.5063  0.4901  0.1054
   57SAPC  H15A 4158   0.349   2.558   6.862 -1.0628 -2.1794 -0.4021
   57SAPC  H15B 4159   0.263   2.687   6.784  0.4780 -0.2341 -1.5273
   57SAPC  H15C 4160   0.179   2.596   6.903 -0.0640 -1.1515  0.7417
   57SAPC   C11 4161   0.355   2.637   6.557  0.0662  0.1664  0.3419
   57SAPC  H11A 4162   0.421   2.629   6.468 -2.3573 -0.0599 -1.5349
   57SAPC  H11B 4163   0.398   2.704   6.635  1.0522 -0.4525  0.3500
   57SAPC     P 4164   0.161   2.675   6.373  0.2178 -0.2753  0.2482
   57SAPC   O13 4165   0.205   2.544   6.317 -0.0630  0.0881 -0.4755
   57SAPC   O14 4166   0.016   2.683   6.384 -0.9570 -0.2801  0.1386
   57SAPC   O12 4167   0.230   2.691   6.511  0.1936 -0.6196 -0.3273
   57SAPC   O11 4168   0.214   2.800   6.290  0.0282 -0.4156 -0.0469
   57SAPC    C1 4169   0.125   2.898   6.230  0.5502  0.3246  0.3475
   57SAPC    HA 4170   0.042   2.926   6.298 -0.1240 -3.4473  1.3127
   57SAPC    HB 4171   0.186   2.989   6.212  0.5734  0.1791 -0.3460
   57SAPC    C2 4172   0.078   2.869   6.082  0.1747  0.6541 -0.4484
   57SAPC    HS 4173   0.027   2.771   6.068  0.6434  0.2031  0.8578
   57SAPC   O21 4174   0.195   2.881   6.004 -0.3348 -0.2746  0.1496
   57SAPC   C21 4175   0.213   2.808   5.889  0.9269  0.0952  0.0092
   57SAPC   O22 4176   0.124   2.736   5.841 -0.1094  0.1043  0.2914
   57SAPC   C22 4177   0.346   2.850   5.832  0.3625  0.6621 -0.1231
   57SAPC   H2R 4178   0.350   2.960   5.817 -1.4378  1.1978  2.5898
   57SAPC   H2S 4179   0.424   2.825   5.907  0.3417 -0.4188 -0.4414
   57SAPC    C3 4180  -0.027   2.979   6.051  0.1372 -0.4527  0.0912
   57SAPC    HX 4181   0.022   3.077   6.066  1.9031 -1.0200 -1.5705
   57SAPC    HY 4182  -0.114   2.960   6.118 -0.4002 -0.3794 -0.5741
   57SAPC   O31 4183  -0.063   2.974   5.912 -0.0310  0.7257 -0.2717
   57SAPC   C31 4184  -0.163   2.897   5.881  0.0599  0.4033  0.0825
   57SAPC   O32 4185  -0.237   2.839   5.964  0.8046  0.2830  0.2867
   57SAPC   C32 4186  -0.182   2.886   5.729 -0.4029 -0.5632 -0.2499
   57SAPC   H2X 4187  -0.097   2.937   5.680 -0.4666  2.5444  2.5201
   57SAPC   H2Y 4188  -0.272   2.944   5.700 -0.7180  0.2463  2.1188
   57SAPC   C23 4189   0.374   2.793   5.693 -0.2221 -0.5318  0.4273
   57SAPC   H3R 4190   0.345   2.688   5.670  1.6839 -1.1092  0.5340
   57SAPC   H3S 4191   0.484   2.801   5.679 -0.1831  0.3064  1.1404
   57SAPC   C24 4192   0.303   2.891   5.590 -0.4806  0.0622 -0.4077
   57SAPC   H4R 4193   0.342   2.993   5.605  1.7405 -0.8631  0.4848
   57SAPC   H4S 4194   0.197   2.892   5.623 -0.3912 -0.6228 -0.0753
   57SAPC   C25 4195   0.320   2.848   5.452  0.2767 -0.0941  0.3004
   57SAPC   H5R 4196   0.311   2.739   5.439 -2.5986 -0.2492  2.6197
   57SAPC   C26 4197   0.325   2.930   5.345  0.3259 -1.1216 -0.3296
   57SAPC   H6R 4198   0.319   2.896   5.240  0.9182  0.1188 -0.7816
   57SAPC   C27 4199   0.309   3.075   5.362 -0.1040 -0.8451  0.3388
   57SAPC   H7R 4200   0.344   3.112   5.263  1.7444  0.3917  1.4036
   57SAPC   H7S 4201   0.386   3.116   5.431 -0.4536  0.5492 -0.0713
   57SAPC   C28 4202   0.171   3.129   5.403  0.3922  0.1893  0.6802
   57SAPC   H8R 4203   0.135   3.092   5.500  2.4674 -4.7644 -0.1417
   57SAPC   C29 4204   0.096   3.198   5.319  0.5744  0.2211  0.3560
   57SAPC   H9R 4205  -0.008   3.224   5.343  0.0842 -0.1982 -1.1961
   57SAPC  C210 4206   0.118   3.232   5.174  0.0023  0.2971 -0.4372
   57SAPC  H10R 4207   0.227   3.249   5.162  0.1679 -0.1975  0.3131
   57SAPC  H10S 4208   0.074   3.332   5.155  4.4342  2.9220  1.3069
   57SAPC  C211 4209   0.075   3.136   5.069 -0.0751 -1.4466  0.4134
   57SAPC  H11R 4210   0.036   3.049   5.124  0.3313 -1.1562  1.1612
   57SAPC  C212 4211   0.114   3.141   4.939  0.1481 -0.1843 -0.1749
   57SAPC  H12R 4212   0.081   3.059   4.874 -0.1977 -0.7847  0.7318
   57SAPC  C213 4213   0.187   3.256   4.873  0.6175 -0.0284  0.2286
   57SAPC  H13R 4214   0.157   3.342   4.938 -1.4896  0.0527 -0.7511
   57SAPC  H13S 4215   0.145   3.269   4.771  0.1295 -3.2705 -0.0732
   57SAPC  C214 4216   0.340   3.242   4.871  0.5634 -0.0889 -0.1164
   57SAPC  H14R 4217   0.393   3.220   4.965 -3.1373  0.4866  2.2963
   57SAPC  C215 4218   0.411   3.252   4.756  0.7607 -0.1410 -0.4968
   57SAPC  H15R 4219   0.519   3.235   4.761  1.2932  1.9518 -2.8130
   57SAPC  C216 4220   0.369   3.284   4.620  0.5915 -0.2363  0.0815
   57SAPC  H16R 4221   0.429   3.365   4.574 -0.1628  1.3271  1.7259
   57SAPC  H16S 4222   0.266   3.326   4.621  0.5424 -0.3193  2.1529
   57SAPC  C217 4223   0.378   3.171   4.511 -0.0145  0.4176  0.2002
   57SAPC  H17R 4224   0.313   3.081   4.516  0.1446  0.3604  1.4807
   57SAPC  H17S 4225   0.483   3.136   4.522 -0.3708 -0.7727 -0.0420
   57SAPC  C218 4226   0.355   3.244   4.371 -0.7619 -0.2022 -0.0926
   57SAPC  H18R 4227   0.432   3.322   4.353 -0.7657  0.2007  1.4233
   57SAPC  H18S 4228   0.256   3.294   4.363  0.1236  1.2575 -3.4455
   57SAPC  C219 4229   0.367   3.142   4.256 -0.3217 -0.6531  0.6132
   57SAPC  H19R 4230   0.356   3.190   4.157 -1.8969 -1.2099  0.4860
   57SAPC  H19S 4231   0.291   3.061   4.267  1.5163 -2.5588  0.0372
   57SAPC  C220 4232   0.497   3.057   4.260  0.0276 -0.9371  0.1449
   57SAPC  H20R 4233   0.586   3.121   4.276  0.7982 -0.9925 -3.2615
   57SAPC  H20S 4234   0.523   2.998   4.170 -2.0720 -2.1944  0.3002
   57SAPC  H20T 4235   0.489   2.987   4.346 -0.8488 -0.3724  0.5419
   57SAPC   C33 4236  -0.190   2.740   5.673  0.2227  0.0983 -0.5813
   57SAPC   H3X 4237  -0.261   2.673   5.727  1.7723 -0.3924  0.9483
   57SAPC   H3Y 4238  -0.093   2.696   5.705 -1.1285 -0.9260  2.5421
   57SAPC   C34 4239  -0.203   2.737   5.525 -0.0683 -0.2318  0.8587
   57SAPC   H4X 4240  -0.277   2.813   5.490 -0.1372 -0.6724  0.0032
   57SAPC   H4Y 4241  -0.243   2.635   5.503 -1.1404  0.4149 -0.3192
   57SAPC   C35 4242  -0.072   2.744   5.443 -0.2281 -0.6623 -0.3046
   57SAPC   H5X 4243  -0.001   2.681   5.500 -0.7122 -0.4073  0.6056
   57SAPC   H5Y 4244  -0.042   2.850   5.459 -1.9955  0.0131 -1.0944
   57SAPC   C36 4245  -0.084   2.720   5.291  0.2612 -0.3645  0.2177
   57SAPC   H6X 4246  -0.137   2.623   5.289  0.6630 -0.6827  2.2955
   57SAPC   H6Y 4247   0.022   2.707   5.263  0.1764 -0.6124  0.0104
   57SAPC   C37 4248  -0.147   2.826   5.200  0.0565  0.1244  0.2292
   57SAPC   H7X 4249  -0.103   2.923   5.233 -0.2590  1.2657 -2.4658
   57SAPC   H7Y 4250  -0.256   2.833   5.221  0.0369 -1.1017  0.5839
   57SAPC   C38 4251  -0.135   2.786   5.049  0.0423 -0.2585 -0.5658
   57SAPC   H8X 4252  -0.174   2.877   4.999  0.1968 -0.1517 -0.4931
   57SAPC   H8Y 4253  -0.199   2.698   5.025 -0.4077  0.1451 -0.8542
   57SAPC   C39 4254   0.015   2.771   5.000  0.1436  0.0084  0.3301
   57SAPC   H9X 4255   0.050   2.683   5.057 -1.0777  0.0327  1.1743
   57SAPC   H9Y 4256   0.083   2.852   5.034  0.0730 -0.0255  0.5539
   57SAPC  C310 4257   0.031   2.747   4.846 -0.2013  0.0835 -0.0657
   57SAPC  H10X 4258   0.139   2.758   4.823 -0.2923  1.7180  0.1255
   57SAPC  H10Y 4259  -0.021   2.829   4.790  0.1202  1.3073  1.3681
   57SAPC  C311 4260  -0.026   2.608   4.790  0.1680  0.2015 -0.8656
   57SAPC  H11X 4261  -0.137   2.611   4.789 -0.0040 -0.2230  2.5802
   57SAPC  H11Y 4262  -0.005   2.522   4.858  0.4921 -0.4773 -1.7942
   57SAPC  C312 4263   0.046   2.578   4.662 -0.5966  0.4394 -0.0894
   57SAPC  H12X 4264   0.155   2.587   4.679 -0.5074 -0.6211  0.0235
   57SAPC  H12Y 4265   0.023   2.642   4.575  2.1502 -1.9263 -2.8059
   57SAPC  C313 4266   0.043   2.430   4.614 -0.1740  0.0149 -0.2385
   57SAPC  H13X 4267  -0.063   2.396   4.612 -0.4164  0.6417  1.0693
   57SAPC  H13Y 4268   0.107   2.390   4.696  0.1686  2.2556  0.6512
   57SAPC  C314 4269   0.105   2.405   4.474  0.9680 -0.0298  0.0742
   57SAPC  H14X 4270   0.205   2.452   4.465  0.2916  1.2746 -1.0617
   57SAPC  H14Y 4271   0.037   2.445   4.395  0.3960 -2.0540 -0.5373
   57SAPC  C315 4272   0.123   2.253   4.437  0.7111 -0.3439 -0.1745
   57SAPC  H15X 4273   0.028   2.195   4.438  0.5434 -0.1084 -1.3696
   57SAPC  H15Y 4274   0.198   2.199   4.499  1.6577 -1.5959 -2.3294
   57SAPC  C316 4275   0.182   2.235   4.300 -0.4269  0.9873  0.7978
   57SAPC  H16X 4276   0.110   2.263   4.220 -0.6401 -1.9522 -0.1493
   57SAPC  H16Y 4277   0.207   2.129   4.281 -0.2270  1.1566  0.0918
   57SAPC  C317 4278   0.305   2.321   4.262  0.6231 -0.1175 -0.5638
   57SAPC  H17X 4279   0.282   2.428   4.282 -3.6300 -1.1299  1.0398
   57SAPC  H17Y 4280   0.321   2.301   4.154 -0.9026  3.0725 -1.4941
   57SAPC  C318 4281   0.429   2.282   4.347  0.0171  0.3179 -0.4363
   57SAPC  H18X 4282   0.410   2.287   4.456 -0.9724  0.4279 -0.5966
   57SAPC  H18Y 4283   0.510   2.355   4.325  0.4521  0.3221  1.0672
   57SAPC  H18Z 4284   0.471   2.184   4.317  1.4087  0.3259  1.3681
   58SAPC     N 4285   3.913   0.353   6.775 -0.3880 -0.0037 -0.6654
   58SAPC   C12 4286   3.958   0.248   6.675  0.4750  0.3601 -0.5872
   58SAPC  H12A 4287   3.872   0.235   6.610 -1.7974  0.3892  2.2182
   58SAPC  H12B 4288   3.992   0.155   6.718 -0.0096  0.1181 -0.7173
   58SAPC   C13 4289   3.898   0.488   6.715 -0.1680  0.2240 -0.5155
   58SAPC  H13A 4290   3.815   0.483   6.646 -1.4765  0.4335  0.9796
   58SAPC  H13B 4291   3.866   0.549   6.799 -0.4974 -0.0832 -0.4138
   58SAPC  H13C 4292   3.993   0.529   6.684  0.4910  0.8735  2.0583
   58SAPC   C14 4293   3.780   0.322   6.840 -0.3597 -0.1664 -0.3252
   58SAPC  H14A 4294   3.701   0.339   6.768 -0.8096  0.6052  0.3411
   58SAPC  H14B 4295   3.769   0.219   6.868  1.1972 -0.0710  0.7721
   58SAPC  H14C 4296   3.765   0.385   6.926  0.3688  2.5501 -2.0520
   58SAPC   C15 4297   4.015   0.362   6.890 -0.1695 -0.0728  0.1179
   58SAPC  H15A 4298   3.984   0.433   6.965  2.0115  2.2961 -1.0256
   58SAPC  H15B 4299   4.044   0.274   6.944  0.8917 -0.0358 -0.3596
   58SAPC  H15C 4300   4.112   0.398   6.857 -0.3798 -0.6639 -1.2103
   58SAPC   C11 4301   4.070   0.291   6.587 -0.1537  0.6932 -0.3604
   58SAPC  H11A 4302   4.160   0.305   6.650  0.9699  2.1441 -2.1971
   58SAPC  H11B 4303   4.040   0.383   6.532  0.8922  0.8457 -0.6931
   58SAPC     P 4304   4.205   0.166   6.414  0.1373  0.0475 -0.0797
   58SAPC   O13 4305   4.284   0.292   6.405  0.0789  0.9852  0.0692
   58SAPC   O14 4306   4.274   0.036   6.438 -0.1673  0.0841 -0.0195
   58SAPC   O12 4307   4.083   0.176   6.509 -0.4078 -0.1692  0.0749
   58SAPC   O11 4308   4.139   0.148   6.273 -0.1327  0.2235  0.6131
   58SAPC    C1 4309   4.027   0.053   6.262  0.0921  0.0761  0.4450
   58SAPC    HA 4310   4.047  -0.052   6.294  0.6305  0.5232  1.6317
   58SAPC    HB 4311   3.940   0.069   6.330  0.6480 -0.1749  1.2212
   58SAPC    C2 4312   3.968   0.060   6.118  0.2190  0.8511 -0.2909
   58SAPC    HS 4313   3.881  -0.010   6.113  0.1765  0.6886  1.6551
   58SAPC   O21 4314   4.065   0.026   6.018  0.1605 -0.6332 -0.1324
   58SAPC   C21 4315   4.106  -0.109   6.023 -0.0913 -0.2451  0.5235
   58SAPC   O22 4316   4.060  -0.198   6.091 -0.5416  0.1005  0.5525
   58SAPC   C22 4317   4.219  -0.123   5.930  0.0597  0.1167  0.3986
   58SAPC   H2R 4318   4.196  -0.080   5.830  0.2790  1.7221  1.0051
   58SAPC   H2S 4319   4.300  -0.060   5.971  1.0986  0.2823 -1.7957
   58SAPC    C3 4320   3.904   0.198   6.095  0.1742 -0.5047 -0.6437
   58SAPC    HX 4321   3.987   0.272   6.086  1.2548 -1.7655 -1.7321
   58SAPC    HY 4322   3.847   0.214   6.188  1.7823  1.1224  0.1295
   58SAPC   O31 4323   3.819   0.203   5.976  0.0241 -0.1690 -0.1544
   58SAPC   C31 4324   3.758   0.310   5.961  1.4740 -0.2709 -0.7202
   58SAPC   O32 4325   3.758   0.410   6.035 -0.0714  0.2839  0.2091
   58SAPC   C32 4326   3.681   0.286   5.826  0.2880 -0.3176 -0.2790
   58SAPC   H2X 4327   3.589   0.348   5.827  1.7785  1.9728  0.6615
   58SAPC   H2Y 4328   3.641   0.182   5.817 -0.0828 -0.2665  0.6444
   58SAPC   C23 4329   4.275  -0.273   5.911  0.3322 -0.4330  0.3204
   58SAPC   H3R 4330   4.192  -0.331   5.866  1.1717 -0.8203 -0.7760
   58SAPC   H3S 4331   4.298  -0.322   6.008  2.6464 -2.6108 -1.2165
   58SAPC   C24 4332   4.394  -0.298   5.832  0.6879 -0.0727 -0.4878
   58SAPC   H4R 4333   4.421  -0.406   5.828  0.0992 -0.3991  2.3995
   58SAPC   H4S 4334   4.478  -0.243   5.878  0.6329 -0.5179  0.1594
   58SAPC   C25 4335   4.377  -0.244   5.695 -0.3364 -0.1905  0.8650
   58SAPC   H5R 4336   4.346  -0.140   5.679  0.2372 -0.2191 -0.6141
   58SAPC   C26 4337   4.426  -0.292   5.578 -0.0633  0.2504  0.4969
   58SAPC   H6R 4338   4.409  -0.234   5.486  0.8416  1.6794  1.1862
   58SAPC   C27 4339   4.503  -0.420   5.559 -0.2458 -0.1163  0.2595
   58SAPC   H7R 4340   4.556  -0.440   5.655 -0.4290  3.6562  1.2732
   58SAPC   H7S 4341   4.581  -0.397   5.484 -1.5021  4.4962  0.1100
   58SAPC   C28 4342   4.412  -0.537   5.533 -0.8687  0.3396  0.1327
   58SAPC   H8R 4343   4.339  -0.559   5.612 -1.4547 -1.4367 -0.8496
   58SAPC   C29 4344   4.424  -0.616   5.423 -0.3274  0.4149  0.1967
   58SAPC   H9R 4345   4.351  -0.697   5.409  1.3602 -1.0296 -0.6906
   58SAPC  C210 4346   4.529  -0.611   5.306 -0.2051  0.5015  0.2382
   58SAPC  H10R 4347   4.568  -0.713   5.291  1.0325  1.0484 -0.4213
   58SAPC  H10S 4348   4.616  -0.548   5.334 -0.2061  0.1068  1.1418
   58SAPC  C211 4349   4.462  -0.549   5.185  0.2362  0.4882  0.2605
   58SAPC  H11R 4350   4.406  -0.454   5.191 -0.7347 -0.1542  2.3954
   58SAPC  C212 4351   4.446  -0.620   5.071 -0.3456 -0.5423  0.3614
   58SAPC  H12R 4352   4.394  -0.580   4.982 -1.0179 -1.7336  0.1913
   58SAPC  C213 4353   4.498  -0.759   5.039  0.9440  0.0208  0.2500
   58SAPC  H13R 4354   4.430  -0.792   4.958  0.6157  0.1736  0.4623
   58SAPC  H13S 4355   4.488  -0.837   5.118  0.8658  0.2868  0.5078
   58SAPC  C214 4356   4.644  -0.744   4.995  0.0097 -0.3473  0.5031
   58SAPC  H14R 4357   4.716  -0.696   5.063 -0.1450  2.4109 -1.1252
   58SAPC  C215 4358   4.701  -0.798   4.882 -1.1423  0.1199 -0.6535
   58SAPC  H15R 4359   4.807  -0.777   4.862 -0.5409 -0.1152  1.9899
   58SAPC  C216 4360   4.625  -0.861   4.768 -0.1982  0.0028 -0.5793
   58SAPC  H16R 4361   4.519  -0.883   4.794 -0.5715  0.0985 -1.9119
   58SAPC  H16S 4362   4.661  -0.966   4.767 -0.4550 -0.1039  0.4021
   58SAPC  C217 4363   4.642  -0.802   4.632 -0.3783 -0.1536  0.3690
   58SAPC  H17R 4364   4.696  -0.870   4.563  1.1807  2.1323 -0.7891
   58SAPC  H17S 4365   4.712  -0.715   4.639 -1.2715  0.5739  0.3756
   58SAPC  C218 4366   4.515  -0.733   4.584  0.8482  0.7126 -0.3519
   58SAPC  H18R 4367   4.469  -0.659   4.653 -0.8193 -0.1344 -0.5069
   58SAPC  H18S 4368   4.435  -0.805   4.556  0.9606 -0.2651  1.7211
   58SAPC  C219 4369   4.541  -0.671   4.445 -0.2841  0.9229 -0.6056
   58SAPC  H19R 4370   4.585  -0.751   4.383 -0.4502  1.0982 -0.9525
   58SAPC  H19S 4371   4.606  -0.581   4.454  0.0638  0.7043 -0.9051
   58SAPC  C220 4372   4.414  -0.624   4.374  0.0582  0.2555  0.8184
   58SAPC  H20R 4373   4.334  -0.578   4.435 -1.6553 -0.7726 -0.5704
   58SAPC  H20S 4374   4.357  -0.706   4.325  1.4764 -0.9668  1.1461
   58SAPC  H20T 4375   4.450  -0.571   4.283  0.1516 -0.2602  0.5540
   58SAPC   C33 4376   3.769   0.335   5.710 -0.4753 -0.6278  0.1874
   58SAPC   H3X 4377   3.868   0.286   5.722 -0.4048 -0.3815  0.6402
   58SAPC   H3Y 4378   3.786   0.445   5.711  0.6408 -0.7707 -0.6774
   58SAPC   C34 4379   3.712   0.301   5.573 -0.0396 -0.2371  0.3603
   58SAPC   H4X 4380   3.635   0.377   5.548 -1.7372 -2.4519 -1.6618
   58SAPC   H4Y 4381   3.659   0.204   5.576  1.6683 -1.1923  2.6579
   58SAPC   C35 4382   3.815   0.304   5.462 -0.1545 -0.1423  0.3742
   58SAPC   H5X 4383   3.888   0.224   5.487 -1.7993 -1.3042  1.7244
   58SAPC   H5Y 4384   3.880   0.393   5.471 -0.2644  0.1002 -0.9467
   58SAPC   C36 4385   3.763   0.279   5.323 -0.4702  0.2888  0.3424
   58SAPC   H6X 4386   3.837   0.305   5.244  0.0616 -0.0791  0.7110
   58SAPC   H6Y 4387   3.681   0.350   5.300 -0.7102 -1.0020 -3.6397
   58SAPC   C37 4388   3.703   0.139   5.297 -0.4939  0.0246  0.0920
   58SAPC   H7X 4389   3.620   0.123   5.369  0.2291 -0.2478  0.8712
   58SAPC   H7Y 4390   3.778   0.058   5.307 -0.3520 -0.0881 -1.5802
   58SAPC   C38 4391   3.639   0.137   5.160  0.1638  0.4516  0.2256
   58SAPC   H8X 4392   3.722   0.170   5.094  0.0588 -1.3305 -0.8713
   58SAPC   H8Y 4393   3.558   0.209   5.138  3.1411  3.8402 -0.4851
   58SAPC   C39 4394   3.609  -0.009   5.110 -0.3193 -0.1331 -0.7148
   58SAPC   H9X 4395   3.520  -0.043   5.167 -0.2168 -0.2399 -0.6165
   58SAPC   H9Y 4396   3.702  -0.066   5.132 -0.0237  0.2083 -1.0513
   58SAPC  C310 4397   3.592  -0.021   4.961  0.1360 -0.5168  0.8570
   58SAPC  H10X 4398   3.560   0.082   4.936  1.8947 -0.0840  0.2584
   58SAPC  H10Y 4399   3.512  -0.093   4.931 -1.7051  0.8651  2.2604
   58SAPC  C311 4400   3.728  -0.048   4.889 -0.9869  0.6677  0.0276
   58SAPC  H11X 4401   3.773  -0.144   4.923 -0.6198 -0.4416 -3.2331
   58SAPC  H11Y 4402   3.803   0.028   4.920  0.3044  0.4312 -2.3353
   58SAPC  C312 4403   3.723  -0.041   4.738  0.4257 -0.2888  0.6786
   58SAPC  H12X 4404   3.826  -0.035   4.697  0.7643 -2.6358  1.0263
   58SAPC  H12Y 4405   3.667   0.051   4.712  1.1667 -0.2538 -0.8647
   58SAPC  C313 4406   3.646  -0.147   4.665  0.1509  0.0984  0.3786
   58SAPC  H13X 4407   3.541  -0.132   4.699  0.8338  1.5095  2.0436
   58SAPC  H13Y 4408   3.673  -0.251   4.691  0.9688  0.3743  0.6629
   58SAPC  C314 4409   3.655  -0.119   4.512 -0.4432  0.0360  0.5988
   58SAPC  H14X 4410   3.592  -0.197   4.465 -0.9389  0.4970  0.4945
   58SAPC  H14Y 4411   3.759  -0.129   4.475 -0.3962  0.4624  0.6182
   58SAPC  C315 4412   3.589   0.009   4.457  0.3423 -0.1772  0.0122
   58SAPC  H15X 4413   3.654   0.094   4.485  1.3433 -0.2272 -2.0302
   58SAPC  H15Y 4414   3.503   0.021   4.527  1.3308  0.1268  1.2237
   58SAPC  C316 4415   3.546  -0.009   4.310  0.3248 -0.1418  0.8564
   58SAPC  H16X 4416   3.464  -0.083   4.304  0.6651 -0.4241 -0.9374
   58SAPC  H16Y 4417   3.637  -0.047   4.259  0.3029  1.0695 -0.1177
   58SAPC  C317 4418   3.479   0.113   4.246  0.5448  0.0456 -0.5746
   58SAPC  H17X 4419   3.392   0.139   4.311 -0.3368 -0.5964 -1.4825
   58SAPC  H17Y 4420   3.446   0.081   4.145 -0.0673 -1.3811  0.0554
   58SAPC  C318 4421   3.570   0.233   4.229  0.5737  0.3005  0.2511
   58SAPC  H18X 4422   3.599   0.270   4.330 -1.1544  0.0618  0.8867
   58SAPC  H18Y 4423   3.528   0.317   4.170  0.9121  0.3956  0.1447
   58SAPC  H18Z 4424   3.663   0.204   4.176  1.5607  1.8309  1.0643
   59SAPC     N 4425   2.073   3.784   6.767 -0.0300  0.6476 -0.3750
   59SAPC   C12 4426   2.129   3.824   6.633  0.4002  0.1705  0.9736
   59SAPC  H12A 4427   2.202   3.748   6.610  0.4274 -0.2983  2.5164
   59SAPC  H12B 4428   2.183   3.917   6.634  0.5779  0.0791  0.2537
   59SAPC   C13 4429   1.985   3.880   6.829  0.0323  0.0895  0.3529
   59SAPC  H13A 4430   2.020   3.983   6.832 -0.6845  0.3225  1.4279
   59SAPC  H13B 4431   1.890   3.887   6.778  0.2581  2.6797  0.1406
   59SAPC  H13C 4432   1.944   3.855   6.926 -0.5482  0.8381  0.3139
   59SAPC   C14 4433   2.000   3.650   6.765 -0.1388 -0.2021 -0.4098
   59SAPC  H14A 4434   1.931   3.642   6.683  1.5642  1.5959 -2.1436
   59SAPC  H14B 4435   2.075   3.576   6.745  0.6435  0.1616  1.0669
   59SAPC  H14C 4436   1.956   3.633   6.862 -0.2075  0.8557 -0.2442
   59SAPC   C15 4437   2.180   3.767   6.859 -0.3407 -0.0480 -0.1569
   59SAPC  H15A 4438   2.225   3.861   6.885  0.8563 -0.9067  1.0243
   59SAPC  H15B 4439   2.149   3.711   6.946 -2.0932  0.2145 -0.5782
   59SAPC  H15C 4440   2.267   3.713   6.825  0.9840  2.3936 -0.8862
   59SAPC   C11 4441   2.032   3.828   6.506 -0.0049  0.0480  0.6322
   59SAPC  H11A 4442   1.973   3.735   6.496 -1.4796  0.9944  0.1798
   59SAPC  H11B 4443   2.097   3.829   6.417 -2.0752 -2.2408 -1.0343
   59SAPC     P 4444   1.998   4.089   6.491  0.6862  0.1568  0.2834
   59SAPC   O13 4445   1.892   4.180   6.439 -0.4696 -0.1259 -0.3047
   59SAPC   O14 4446   2.058   4.130   6.622 -0.5925 -0.1052 -0.3055
   59SAPC   O12 4447   1.945   3.938   6.511  0.4898 -0.2928 -0.2390
   59SAPC   O11 4448   2.116   4.065   6.385  0.2062 -0.1396 -0.6728
   59SAPC    C1 4449   2.111   4.100   6.244 -0.2310 -0.6109 -0.0478
   59SAPC    HA 4450   2.067   4.200   6.223 -0.7742 -1.0140 -0.8432
   59SAPC    HB 4451   2.207   4.093   6.188 -1.1869 -2.0943 -1.5670
   59SAPC    C2 4452   2.021   3.989   6.172 -0.1864  0.5083 -0.6094
   59SAPC    HS 4453   1.925   3.984   6.227  1.1348 -1.6190  1.6796
   59SAPC   O21 4454   2.081   3.857   6.168 -0.1430  0.4466  0.2339
   59SAPC   C21 4455   2.007   3.751   6.151 -0.0297  0.5848  0.0588
   59SAPC   O22 4456   1.887   3.747   6.161  0.4162 -0.4080 -0.0924
   59SAPC   C22 4457   2.089   3.622   6.136 -0.2765  0.9066 -0.7561
   59SAPC   H2R 4458   2.174   3.619   6.207 -1.2158 -2.6612  0.4335
   59SAPC   H2S 4459   2.019   3.549   6.183 -0.8990  0.8862 -1.6866
   59SAPC    C3 4460   1.996   4.038   6.028  0.2064 -0.3747 -0.3567
   59SAPC    HX 4461   2.102   4.045   5.994  0.8477 -2.4408  0.9980
   59SAPC    HY 4462   1.960   4.143   6.028 -2.5518 -1.1513  2.4587
   59SAPC   O31 4463   1.923   3.956   5.935  0.5252  0.0924 -0.2824
   59SAPC   C31 4464   1.784   3.950   5.958 -0.1498  0.0550  0.7342
   59SAPC   O32 4465   1.722   4.027   6.029 -0.1280 -0.1775  0.3269
   59SAPC   C32 4466   1.706   3.845   5.871 -0.4250  0.2553  0.1657
   59SAPC   H2X 4467   1.597   3.856   5.890 -0.4106 -2.9136  2.8675
   59SAPC   H2Y 4468   1.736   3.742   5.900  0.0147  0.5206  0.6689
   59SAPC   C23 4469   2.122   3.593   5.994  0.2135  0.5674  0.3339
   59SAPC   H3R 4470   2.195   3.509   5.988  0.2527  0.6372 -0.1758
   59SAPC   H3S 4471   2.169   3.685   5.954 -2.2872  1.5284 -0.5134
   59SAPC   C24 4472   2.000   3.567   5.908  0.6101 -0.1945  0.9670
   59SAPC   H4R 4473   2.028   3.573   5.801 -1.5507 -0.0686  0.3617
   59SAPC   H4S 4474   1.919   3.642   5.925 -0.5446 -1.4869  1.3860
   59SAPC   C25 4475   1.948   3.423   5.925  0.7538 -0.6170 -0.1096
   59SAPC   H5R 4476   2.014   3.338   5.952  1.8463  0.4005  0.5175
   59SAPC   C26 4477   1.829   3.378   5.888 -0.0141  0.6143  0.0563
   59SAPC   H6R 4478   1.811   3.273   5.915  1.6042 -0.1355 -1.5300
   59SAPC   C27 4479   1.713   3.451   5.843  0.7286  0.5935  0.3175
   59SAPC   H7R 4480   1.672   3.401   5.753 -0.7268  1.0258  0.7146
   59SAPC   H7S 4481   1.739   3.550   5.799 -1.6637  1.2360  0.2160
   59SAPC   C28 4482   1.601   3.476   5.943 -0.1071  0.2631  0.8063
   59SAPC   H8R 4483   1.619   3.444   6.047 -2.3732  1.7523  1.7458
   59SAPC   C29 4484   1.484   3.543   5.914 -0.1043  0.1616 -0.0256
   59SAPC   H9R 4485   1.410   3.528   5.994  1.1486 -0.1408  1.1032
   59SAPC  C210 4486   1.443   3.598   5.783 -0.4630  0.2228  1.1381
   59SAPC  H10R 4487   1.374   3.527   5.732  0.6050  0.4585 -0.7240
   59SAPC  H10S 4488   1.534   3.604   5.719  0.5839  0.7467  2.6281
   59SAPC  C211 4489   1.373   3.732   5.790  0.0873 -0.1302 -0.4063
   59SAPC  H11R 4490   1.372   3.781   5.888  1.4032 -1.9614  0.5936
   59SAPC  C212 4491   1.323   3.798   5.685 -0.5161  0.3252  0.6615
   59SAPC  H12R 4492   1.288   3.902   5.696 -3.3132 -0.3447 -0.8935
   59SAPC  C213 4493   1.317   3.748   5.545 -0.0850  0.4110  0.2859
   59SAPC  H13R 4494   1.312   3.637   5.546 -1.8689  0.3834 -2.1661
   59SAPC  H13S 4495   1.413   3.766   5.492  0.1098 -1.6420 -0.1397
   59SAPC  C214 4496   1.205   3.812   5.468 -0.0032 -0.3172 -0.2982
   59SAPC  H14R 4497   1.188   3.918   5.491 -1.3840 -0.3887 -0.8697
   59SAPC  C215 4498   1.135   3.756   5.368  0.0566 -0.1973  0.2421
   59SAPC  H15R 4499   1.059   3.817   5.318  0.2749 -1.8585 -2.2724
   59SAPC  C216 4500   1.163   3.614   5.316 -0.2555  0.0979  0.3609
   59SAPC  H16R 4501   1.068   3.557   5.319 -1.0988  1.1840 -2.3414
   59SAPC  H16S 4502   1.239   3.563   5.380 -1.7903 -2.6381  0.1564
   59SAPC  C217 4503   1.202   3.616   5.169 -0.2228  0.2170 -0.4685
   59SAPC  H17R 4504   1.224   3.512   5.135 -2.5223 -1.3325  2.3677
   59SAPC  H17S 4505   1.301   3.665   5.162 -0.4138  0.8576  0.9843
   59SAPC  C218 4506   1.100   3.673   5.081  0.3499  0.5049  0.0040
   59SAPC  H18R 4507   1.079   3.780   5.105  1.3251  0.6025  0.4500
   59SAPC  H18S 4508   1.014   3.603   5.092  1.3586 -0.9606 -1.0370
   59SAPC  C219 4509   1.147   3.668   4.937  0.0477 -0.0184 -0.0808
   59SAPC  H19R 4510   1.120   3.576   4.880 -0.6617  0.1460 -0.0191
   59SAPC  H19S 4511   1.258   3.665   4.947  0.3198  1.9943 -1.9232
   59SAPC  C220 4512   1.122   3.791   4.846  0.4555  0.5981 -0.0952
   59SAPC  H20R 4513   1.191   3.872   4.880  0.8095 -0.3368  1.4994
   59SAPC  H20S 4514   1.022   3.836   4.865 -1.0843 -2.4706 -0.3093
   59SAPC  H20T 4515   1.131   3.778   4.736 -1.6057  0.1414 -0.2446
   59SAPC   C33 4516   1.715   3.867   5.715  0.2891  1.2064  0.6822
   59SAPC   H3X 4517   1.687   3.969   5.682 -0.9756  0.5477 -0.3367
   59SAPC   H3Y 4518   1.647   3.791   5.670  0.6172  0.4180  1.4832
   59SAPC   C34 4519   1.853   3.815   5.668  0.8357 -0.6947  0.9353
   59SAPC   H4X 4520   1.864   3.712   5.708 -0.1857 -0.9781  0.5105
   59SAPC   H4Y 4521   1.935   3.874   5.713  1.4130  0.1132 -1.0518
   59SAPC   C35 4522   1.866   3.823   5.516 -0.1795 -0.6420 -0.0950
   59SAPC   H5X 4523   1.856   3.929   5.485 -0.3625 -0.5339  0.3251
   59SAPC   H5Y 4524   1.789   3.754   5.473 -0.7275 -0.2933  0.3153
   59SAPC   C36 4525   2.012   3.789   5.477 -0.3459 -0.2098 -0.1629
   59SAPC   H6X 4526   2.033   3.688   5.517 -0.3246  1.1259  3.4983
   59SAPC   H6Y 4527   2.076   3.864   5.526  0.1382 -1.1950  0.7526
   59SAPC   C37 4528   2.027   3.786   5.319 -0.4775 -0.4540  0.0475
   59SAPC   H7X 4529   1.996   3.882   5.271 -0.5945  0.1953  1.3766
   59SAPC   H7Y 4530   1.953   3.713   5.279 -1.3907  1.0912 -1.2436
   59SAPC   C38 4531   2.166   3.733   5.276  0.2152 -0.3808 -0.1359
   59SAPC   H8X 4532   2.159   3.622   5.275 -1.6469 -0.2914  0.3503
   59SAPC   H8Y 4533   2.247   3.766   5.345  0.1687  3.2940 -1.6159
   59SAPC   C39 4534   2.196   3.761   5.132 -0.2912 -0.6783  0.0161
   59SAPC   H9X 4535   2.302   3.738   5.107 -0.5697 -0.2639 -1.6609
   59SAPC   H9Y 4536   2.192   3.869   5.107  2.5961 -0.4349  0.3005
   59SAPC  C310 4537   2.116   3.703   5.016 -0.0547  0.3364 -0.7435
   59SAPC  H10X 4538   2.011   3.739   5.026  0.6774  2.4939 -0.1902
   59SAPC  H10Y 4539   2.122   3.593   5.029  0.1660  0.4540  0.2040
   59SAPC  C311 4540   2.149   3.755   4.879 -0.2430 -0.1477 -0.2111
   59SAPC  H11X 4541   2.255   3.730   4.854 -0.2030 -0.3984  0.2140
   59SAPC  H11Y 4542   2.124   3.864   4.877  0.8681  0.1363 -2.8820
   59SAPC  C312 4543   2.059   3.700   4.776 -0.6690 -0.4111  0.4551
   59SAPC  H12X 4544   1.966   3.761   4.785  0.1582  1.1416 -1.0252
   59SAPC  H12Y 4545   2.041   3.590   4.787 -1.8782 -0.3444 -0.6017
   59SAPC  C313 4546   2.100   3.712   4.624 -0.3236  0.1193 -0.2821
   59SAPC  H13X 4547   2.013   3.670   4.570 -0.6217  0.4128 -0.0322
   59SAPC  H13Y 4548   2.189   3.645   4.623  0.3621  0.9861  0.4990
   59SAPC  C314 4549   2.126   3.851   4.571 -0.5250  0.4699 -0.0176
   59SAPC  H14X 4550   2.222   3.884   4.615 -0.0646 -0.6005 -0.1956
   59SAPC  H14Y 4551   2.048   3.917   4.615 -0.8761 -0.0760  0.2025
   59SAPC  C315 4552   2.126   3.856   4.416 -0.2134 -0.2162 -0.5848
   59SAPC  H15X 4553   2.114   3.957   4.371 -0.0940 -0.0857 -0.3256
   59SAPC  H15Y 4554   2.058   3.778   4.375 -1.5417  0.4015  0.3822
   59SAPC  C316 4555   2.262   3.819   4.356 -0.2625  0.0299  0.2955
   59SAPC  H16X 4556   2.311   3.721   4.375  0.6607 -0.3258 -3.2024
   59SAPC  H16Y 4557   2.333   3.889   4.404 -0.6842  0.3347  0.4820
   59SAPC  C317 4558   2.262   3.817   4.204  0.0109  0.9272  0.8076
   59SAPC  H17X 4559   2.231   3.914   4.158 -1.1857  1.1470  1.9825
   59SAPC  H17Y 4560   2.197   3.734   4.170  0.2020  1.4543 -0.9713
   59SAPC  C318 4561   2.399   3.774   4.159  0.9497  0.0530  0.4159
   59SAPC  H18X 4562   2.403   3.667   4.189  1.4905  0.3282  1.3803
   59SAPC  H18Y 4563   2.483   3.833   4.203  2.1810  1.1049 -3.0343
   59SAPC  H18Z 4564   2.404   3.790   4.049 -0.9642 -0.6635  0.1833
   60SAPC     N 4565   2.086   4.641   6.809 -0.1837 -0.1946  0.0736
   60SAPC   C12 4566   1.966   4.610   6.723 -0.5434 -0.1122 -0.1972
   60SAPC  H12A 4567   1.878   4.641   6.778 -0.2396  1.7079 -0.6762
   60SAPC  H12B 4568   1.962   4.502   6.719  0.0910 -0.1308 -0.4107
   60SAPC   C13 4569   2.208   4.620   6.717 -0.1626  0.0699 -0.2382
   60SAPC  H13A 4570   2.290   4.667   6.769  0.4734  0.0898 -1.2285
   60SAPC  H13B 4571   2.223   4.518   6.684  0.3422  0.8093 -2.5011
   60SAPC  H13C 4572   2.195   4.681   6.629  0.3603 -0.5747 -0.7703
   60SAPC   C14 4573   2.084   4.783   6.848 -0.8628 -0.3128  0.1637
   60SAPC  H14A 4574   2.173   4.809   6.904 -1.5654  1.4349  0.5374
   60SAPC  H14B 4575   2.069   4.842   6.759 -1.5763  0.9791  1.1131
   60SAPC  H14C 4576   2.007   4.796   6.922 -0.2358 -2.5146  1.3006
   60SAPC   C15 4577   2.096   4.552   6.929  0.6134 -0.0674  0.0085
   60SAPC  H15A 4578   2.010   4.557   6.993 -0.9977 -2.9770 -1.7196
   60SAPC  H15B 4579   2.103   4.446   6.910  3.4895 -0.0179  0.2552
   60SAPC  H15C 4580   2.182   4.585   6.986 -0.3629  0.6220  1.1317
   60SAPC   C11 4581   1.965   4.674   6.578 -0.8237  0.1672 -0.4665
   60SAPC  H11A 4582   1.867   4.646   6.533 -0.8941  0.4698 -0.5024
   60SAPC  H11B 4583   2.044   4.627   6.515 -1.5098  0.3784 -1.5159
   60SAPC     P 4584   1.841   4.907   6.551 -0.3324 -0.2561 -0.1736
   60SAPC   O13 4585   1.721   4.836   6.586 -0.0133 -0.0733  0.6922
   60SAPC   O14 4586   1.862   5.042   6.611 -0.0148 -0.0527 -0.3390
   60SAPC   O12 4587   1.974   4.819   6.575  0.7148  0.6467  0.3658
   60SAPC   O11 4588   1.858   4.924   6.393  0.0158 -0.3996  0.0298
   60SAPC    C1 4589   1.986   4.955   6.335 -0.1001  0.4023  0.0156
   60SAPC    HA 4590   2.022   5.060   6.346  0.5041  0.0607  1.6218
   60SAPC    HB 4591   2.062   4.892   6.385 -0.4870 -0.1090 -0.0412
   60SAPC    C2 4592   2.000   4.903   6.190 -0.1140  0.0174 -0.0661
   60SAPC    HS 4593   2.109   4.916   6.174  0.1939 -0.7192  1.2248
   60SAPC   O21 4594   1.917   4.986   6.105  0.0165  0.4853  0.4960
   60SAPC   C21 4595   1.969   5.019   5.985 -0.1943 -0.4122  0.5469
   60SAPC   O22 4596   2.080   4.981   5.942 -0.3318 -0.1951  0.2402
   60SAPC   C22 4597   1.864   5.088   5.898  0.5142 -0.4848 -0.1370
   60SAPC   H2R 4598   1.789   5.009   5.877 -1.4272  0.9041  1.1788
   60SAPC   H2S 4599   1.816   5.166   5.961  1.0090 -0.5734  0.3628
   60SAPC    C3 4600   1.956   4.756   6.178 -0.0930  0.1398 -0.0473
   60SAPC    HX 4601   1.845   4.756   6.183 -0.1779 -1.0263 -1.3084
   60SAPC    HY 4602   1.982   4.702   6.271 -0.5140 -1.7514 -0.9641
   60SAPC   O31 4603   2.007   4.697   6.055  0.5720  0.1339  0.6582
   60SAPC   C31 4604   2.010   4.567   6.054  0.9547  0.3412  0.4501
   60SAPC   O32 4605   2.004   4.496   6.151 -0.0689  1.1880 -0.1715
   60SAPC   C32 4606   2.043   4.521   5.913 -0.1551  0.3670  0.1879
   60SAPC   H2X 4607   2.132   4.457   5.928 -1.1365 -1.0408  0.2911
   60SAPC   H2Y 4608   2.066   4.613   5.855  2.8949 -0.8810 -0.7775
   60SAPC   C23 4609   1.926   5.149   5.776 -0.2527  0.0390 -0.1199
   60SAPC   H3R 4610   2.018   5.203   5.806 -0.2469 -1.2057  2.3185
   60SAPC   H3S 4611   1.848   5.221   5.744 -0.2417  0.5982  1.0825
   60SAPC   C24 4612   1.945   5.060   5.657 -0.6068  0.5243  0.1317
   60SAPC   H4R 4613   1.843   5.021   5.635  0.1143 -0.2903 -2.0354
   60SAPC   H4S 4614   2.005   4.969   5.681 -0.2120  0.4277 -1.1011
   60SAPC   C25 4615   2.002   5.132   5.539 -0.2025  0.6270  0.2247
   60SAPC   H5R 4616   2.109   5.158   5.545 -0.3860  1.2567  0.8371
   60SAPC   C26 4617   1.937   5.164   5.428 -0.3985 -0.1642 -0.4996
   60SAPC   H6R 4618   1.986   5.236   5.361  0.8446  0.8973  1.4348
   60SAPC   C27 4619   1.793   5.138   5.406 -0.2932  0.0345  0.0593
   60SAPC   H7R 4620   1.747   5.231   5.366  0.6123 -0.4727 -2.3664
   60SAPC   H7S 4621   1.732   5.096   5.489 -0.9987  1.3876  0.2608
   60SAPC   C28 4622   1.777   5.034   5.297  0.0770  0.5087 -0.1168
   60SAPC   H8R 4623   1.780   4.931   5.336  2.4729  0.4719 -0.2843
   60SAPC   C29 4624   1.737   5.054   5.172 -0.4191 -0.0809  0.3239
   60SAPC   H9R 4625   1.722   4.962   5.114 -1.1824 -1.7922  3.0474
   60SAPC  C210 4626   1.728   5.187   5.097  0.2295 -0.0842 -0.3896
   60SAPC  H10R 4627   1.730   5.270   5.171  1.9383  0.1507 -0.6466
   60SAPC  H10S 4628   1.626   5.188   5.054  1.1870  0.2039 -2.8293
   60SAPC  C211 4629   1.826   5.200   4.990  0.1203  0.4499  0.5922
   60SAPC  H11R 4630   1.927   5.238   5.007  1.0289 -0.9549 -1.3429
   60SAPC  C212 4631   1.797   5.177   4.861  0.6327 -0.2508 -0.0119
   60SAPC  H12R 4632   1.879   5.174   4.787  0.9256 -1.0971  0.3446
   60SAPC  C213 4633   1.668   5.128   4.809  0.3189 -0.2249  0.2434
   60SAPC  H13R 4634   1.600   5.090   4.888  1.9652  0.5674  2.1133
   60SAPC  H13S 4635   1.683   5.043   4.738  0.1582  1.5758 -2.0508
   60SAPC  C214 4636   1.602   5.236   4.737 -0.5320  0.1756  0.4025
   60SAPC  H14R 4637   1.537   5.295   4.803  1.3476  0.9910  1.5808
   60SAPC  C215 4638   1.610   5.275   4.608 -0.5504 -0.4328 -0.1651
   60SAPC  H15R 4639   1.547   5.349   4.558 -0.0135 -1.4805 -2.5533
   60SAPC  C216 4640   1.706   5.207   4.513 -0.7220 -0.0262  0.0117
   60SAPC  H16R 4641   1.775   5.148   4.577  0.9970  0.1063 -1.6102
   60SAPC  H16S 4642   1.781   5.269   4.459  0.9212 -2.1778 -0.3108
   60SAPC  C217 4643   1.635   5.124   4.404 -0.7407  0.4731 -0.3008
   60SAPC  H17R 4644   1.580   5.038   4.447  1.9443 -0.5429  1.3896
   60SAPC  H17S 4645   1.716   5.077   4.344 -0.9567 -1.3392  0.7292
   60SAPC  C218 4646   1.547   5.182   4.292  1.2461  0.8135  0.5013
   60SAPC  H18R 4647   1.603   5.270   4.252 -0.0684  0.9901 -1.0210
   60SAPC  H18S 4648   1.453   5.230   4.327  0.3036  1.0977 -2.2287
   60SAPC  C219 4649   1.531   5.076   4.177 -0.5932 -0.2522  0.4536
   60SAPC  H19R 4650   1.467   4.996   4.220 -1.2162 -0.9743 -1.6950
   60SAPC  H19S 4651   1.619   5.030   4.129 -1.7483  1.0170 -3.2867
   60SAPC  C220 4652   1.439   5.123   4.062 -0.3949  0.0705  0.4100
   60SAPC  H20R 4653   1.367   5.041   4.038 -1.0084  0.5697  0.5028
   60SAPC  H20S 4654   1.488   5.153   3.967 -1.0034 -0.5203 -0.0943
   60SAPC  H20T 4655   1.382   5.210   4.101  0.1169  0.8397 -0.5101
   60SAPC   C33 4656   1.938   4.439   5.849 -0.2548 -0.2947  0.2194
   60SAPC   H3X 4657   1.848   4.505   5.855 -0.5205 -0.5788 -0.4927
   60SAPC   H3Y 4658   1.927   4.343   5.903  1.6926 -0.0252  1.1761
   60SAPC   C34 4659   1.967   4.426   5.700  0.0548  0.2974 -0.2916
   60SAPC   H4X 4660   2.068   4.385   5.679  0.0767  0.6446 -0.8690
   60SAPC   H4Y 4661   1.965   4.525   5.650  0.0662  0.0747 -0.7284
   60SAPC   C35 4662   1.874   4.319   5.636  0.2169  0.0860 -0.0596
   60SAPC   H5X 4663   1.781   4.373   5.607 -0.3824 -0.4275  0.8490
   60SAPC   H5Y 4664   1.855   4.242   5.713 -1.1066  0.4449  0.0083
   60SAPC   C36 4665   1.934   4.235   5.516 -0.5602  0.0287 -0.1471
   60SAPC   H6X 4666   1.866   4.147   5.520  1.0833 -1.2754  0.0505
   60SAPC   H6Y 4667   2.036   4.205   5.547 -0.4618  1.5308  1.1137
   60SAPC   C37 4668   1.915   4.285   5.369  0.0608 -0.2762 -1.1674
   60SAPC   H7X 4669   1.968   4.381   5.348 -0.3521  0.2737  0.1851
   60SAPC   H7Y 4670   1.805   4.302   5.367 -0.1728 -1.5173  0.1118
   60SAPC   C38 4671   1.945   4.182   5.258  0.2483 -0.3689 -0.4260
   60SAPC   H8X 4672   1.876   4.095   5.263 -0.9263  0.5980  2.5593
   60SAPC   H8Y 4673   2.044   4.135   5.278 -0.0583 -0.2864  1.4442
   60SAPC   C39 4674   1.952   4.241   5.123  0.2679 -0.3596 -0.1437
   60SAPC   H9X 4675   2.027   4.322   5.116  0.8933 -0.9655 -0.5631
   60SAPC   H9Y 4676   1.860   4.303   5.109  0.2127 -0.2831  0.5463
   60SAPC  C310 4677   1.961   4.141   5.008 -0.6965 -0.4904 -0.5810
   60SAPC  H10X 4678   2.009   4.046   5.040 -1.0131 -1.5250 -2.9551
   60SAPC  H10Y 4679   2.033   4.179   4.933  0.5229 -1.6709 -0.0493
   60SAPC  C311 4680   1.826   4.124   4.940 -0.5716  0.3875 -0.1306
   60SAPC  H11X 4681   1.768   4.216   4.918 -0.1591  0.4716 -0.9291
   60SAPC  H11Y 4682   1.757   4.057   4.997 -0.9627  0.5130 -0.4503
   60SAPC  C312 4683   1.846   4.060   4.807  0.4561 -0.3765  0.0738
   60SAPC  H12X 4684   1.928   3.986   4.797 -1.0596 -1.8118 -4.0298
   60SAPC  H12Y 4685   1.864   4.139   4.731  0.3533  0.1103  0.5475
   60SAPC  C313 4686   1.722   3.987   4.759  0.2158 -0.0092  1.0812
   60SAPC  H13X 4687   1.633   4.052   4.776  0.1419 -0.4078  2.3306
   60SAPC  H13Y 4688   1.704   3.894   4.817  2.1938  0.0542  1.8725
   60SAPC  C314 4689   1.733   3.938   4.611  0.1433 -0.6042 -0.5882
   60SAPC  H14X 4690   1.826   3.882   4.586  0.5135  0.5437 -1.9528
   60SAPC  H14Y 4691   1.725   4.022   4.539  1.4960 -1.3950 -1.7267
   60SAPC  C315 4692   1.631   3.828   4.580 -0.2055 -0.1443 -0.5941
   60SAPC  H15X 4693   1.531   3.855   4.621 -0.4999 -0.3438 -1.1746
   60SAPC  H15Y 4694   1.657   3.731   4.626 -1.7894 -0.4565 -0.3108
   60SAPC  C316 4695   1.617   3.794   4.427 -0.9973 -0.6031 -0.2456
   60SAPC  H16X 4696   1.716   3.754   4.398 -1.1887 -0.2090 -1.4743
   60SAPC  H16Y 4697   1.604   3.890   4.373 -2.7508  1.4969  3.4837
   60SAPC  C317 4698   1.514   3.687   4.390 -0.3501 -0.2948 -0.5863
   60SAPC  H17X 4699   1.523   3.667   4.282  1.2586 -0.5194 -0.4421
   60SAPC  H17Y 4700   1.413   3.722   4.419 -0.0303 -2.1060  3.4130
   60SAPC  C318 4701   1.542   3.555   4.459 -1.1022 -0.0665  0.6089
   60SAPC  H18X 4702   1.467   3.483   4.420 -1.6855  0.7885  0.0965
   60SAPC  H18Y 4703   1.524   3.560   4.568  0.7771  1.7424  0.8972
   60SAPC  H18Z 4704   1.647   3.522   4.443 -0.7223  0.9057  1.0164
   61SAPC     N 4705   4.694   3.692   6.806 -0.2059 -0.7806 -0.2657
   61SAPC   C12 4706   4.744   3.735   6.678 -0.4656  0.0988  0.2851
   61SAPC  H12A 4707   4.848   3.763   6.680  0.1387 -1.1275 -4.1004
   61SAPC  H12B 4708   4.696   3.827   6.649 -2.1401 -1.3815 -1.9623
   61SAPC   C13 4709   4.559   3.635   6.795 -0.2601  0.8034  0.4665
   61SAPC  H13A 4710   4.514   3.605   6.888 -2.1227  1.4868 -0.1614
   61SAPC  H13B 4711   4.491   3.708   6.754 -2.7686 -0.7603  1.6070
   61SAPC  H13C 4712   4.547   3.546   6.736  0.6171  1.0269 -0.0838
   61SAPC   C14 4713   4.777   3.590   6.871  0.4046  0.8109 -0.6998
   61SAPC  H14A 4714   4.739   3.554   6.966 -1.6763 -0.7379 -2.0451
   61SAPC  H14B 4715   4.781   3.505   6.806  0.8962  0.8737 -0.7560
   61SAPC  H14C 4716   4.878   3.626   6.887 -0.3958  2.2565  1.7333
   61SAPC   C15 4717   4.691   3.817   6.891  0.5846 -0.0325 -0.5048
   61SAPC  H15A 4718   4.649   3.900   6.836 -2.3445  0.1397  1.7314
   61SAPC  H15B 4719   4.629   3.802   6.979  0.4860  1.6850 -0.2550
   61SAPC  H15C 4720   4.791   3.831   6.928  0.2808  0.2215  0.2456
   61SAPC   C11 4721   4.740   3.637   6.557  0.0592 -0.7134  1.0692
   61SAPC  H11A 4722   4.779   3.702   6.476  0.0420  3.4358  4.0497
   61SAPC  H11B 4723   4.633   3.617   6.537 -1.4419  3.8772  3.1289
   61SAPC     P 4724   4.972   3.507   6.578  0.3074 -0.2660  0.2226
   61SAPC   O13 4725   5.020   3.640   6.631 -0.9011  0.0099 -0.2445
   61SAPC   O14 4726   5.014   3.391   6.665 -0.3403 -0.3536 -0.3056
   61SAPC   O12 4727   4.813   3.514   6.568  0.3065 -0.3455  0.1523
   61SAPC   O11 4728   5.018   3.488   6.428 -0.0508  0.7579  0.8138
   61SAPC    C1 4729   4.993   3.578   6.318 -0.6456 -0.2430 -0.2912
   61SAPC    HA 4730   4.988   3.683   6.354  2.1607 -0.8115  2.1363
   61SAPC    HB 4731   5.081   3.577   6.251 -1.6972  1.3482 -1.7871
   61SAPC    C2 4732   4.879   3.525   6.234 -0.2384  0.3707  0.2660
   61SAPC    HS 4733   4.802   3.478   6.299 -4.0113  0.9457 -3.3180
   61SAPC   O21 4734   4.918   3.422   6.152 -0.5558 -0.0983  0.4182
   61SAPC   C21 4735   4.828   3.336   6.120 -0.9779  0.1409  0.4070
   61SAPC   O22 4736   4.714   3.335   6.158  0.1362  0.7770  0.0082
   61SAPC   C22 4737   4.880   3.225   6.022  0.1843  0.1663 -0.2298
   61SAPC   H2R 4738   4.869   3.132   6.081  2.9442  0.1961  0.4554
   61SAPC   H2S 4739   4.818   3.234   5.930 -0.6031  3.7382  0.5052
   61SAPC    C3 4740   4.807   3.638   6.157 -0.0612 -0.9896 -0.0560
   61SAPC    HX 4741   4.792   3.709   6.241 -0.2790  0.4634 -1.2793
   61SAPC    HY 4742   4.706   3.606   6.124 -0.2300 -1.9075  1.2804
   61SAPC   O31 4743   4.882   3.714   6.058 -0.0340  0.1889  0.7610
   61SAPC   C31 4744   4.882   3.660   5.939  0.2533 -0.1850 -0.6305
   61SAPC   O32 4745   4.826   3.561   5.909  0.1332 -0.0839 -0.8501
   61SAPC   C32 4746   4.952   3.755   5.850 -0.0318 -0.8526  0.9790
   61SAPC   H2X 4747   5.049   3.791   5.892 -1.2344  0.0434  3.1735
   61SAPC   H2Y 4748   4.879   3.837   5.830  0.3399 -0.7275  0.0870
   61SAPC   C23 4749   5.033   3.221   5.987 -0.2702  0.0612 -0.0100
   61SAPC   H3R 4750   5.076   3.135   6.041 -2.4693 -1.1507 -0.0539
   61SAPC   H3S 4751   5.090   3.312   6.017  0.2993 -0.4497  0.4586
   61SAPC   C24 4752   5.068   3.198   5.835  0.9135 -0.9619  0.3227
   61SAPC   H4R 4753   5.026   3.096   5.818 -0.0324 -0.3978 -0.8819
   61SAPC   H4S 4754   5.177   3.187   5.814  0.4923 -1.3864 -1.9184
   61SAPC   C25 4755   5.014   3.310   5.744 -0.7912 -0.0630  0.3850
   61SAPC   H5R 4756   4.966   3.397   5.791  1.2123  0.1259  2.2579
   61SAPC   C26 4757   5.048   3.317   5.612 -0.8245  0.1107  0.3794
   61SAPC   H6R 4758   5.017   3.405   5.554 -0.9343 -1.0102 -1.3062
   61SAPC   C27 4759   5.129   3.225   5.522  0.2075  0.3407 -0.0320
   61SAPC   H7R 4760   5.087   3.236   5.420  0.1385  0.3802  0.0010
   61SAPC   H7S 4761   5.120   3.116   5.541 -4.4153  0.2374 -1.7231
   61SAPC   C28 4762   5.273   3.283   5.537  0.3091 -0.1883 -0.6486
   61SAPC   H8R 4763   5.328   3.252   5.626 -3.0683 -0.0068  1.7021
   61SAPC   C29 4764   5.338   3.361   5.446  0.2127 -0.6578 -0.0970
   61SAPC   H9R 4765   5.437   3.407   5.461  0.0647  0.5075 -2.2399
   61SAPC  C210 4766   5.292   3.402   5.311  0.0426 -0.1475 -0.1085
   61SAPC  H10R 4767   5.213   3.334   5.275  1.3908 -1.5373 -0.5312
   61SAPC  H10S 4768   5.376   3.398   5.239 -0.5768 -0.3538 -0.8239
   61SAPC  C211 4769   5.247   3.550   5.315 -0.3315 -0.7774 -0.1707
   61SAPC  H11R 4770   5.218   3.591   5.413  2.9982  1.5481  0.0407
   61SAPC  C212 4771   5.244   3.633   5.207  0.3921 -0.6450 -0.1699
   61SAPC  H12R 4772   5.201   3.734   5.218  1.5721 -0.2236  0.9593
   61SAPC  C213 4773   5.278   3.585   5.067  0.6533  0.0031 -0.4755
   61SAPC  H13R 4774   5.200   3.605   4.990  0.7094 -1.0734 -0.8351
   61SAPC  H13S 4775   5.280   3.474   5.056 -2.3648  0.0012 -1.9533
   61SAPC  C214 4776   5.400   3.650   5.024 -0.3712 -0.2371  0.4616
   61SAPC  H14R 4777   5.497   3.609   5.055  0.7460  0.2632 -2.1391
   61SAPC  C215 4778   5.405   3.762   4.948  0.6039 -0.0231 -0.9460
   61SAPC  H15R 4779   5.504   3.804   4.927  0.0913  1.5694 -0.3229
   61SAPC  C216 4780   5.286   3.838   4.890 -0.3626 -0.0534  0.3326
   61SAPC  H16R 4781   5.310   3.943   4.915 -0.5576  0.0177  0.2194
   61SAPC  H16S 4782   5.190   3.817   4.941 -0.2883  1.0436  0.9442
   61SAPC  C217 4783   5.263   3.846   4.739 -0.0764  0.0801 -0.5292
   61SAPC  H17R 4784   5.154   3.846   4.721 -0.4540 -1.7852  1.3395
   61SAPC  H17S 4785   5.303   3.753   4.694 -1.8726 -0.7666 -0.4394
   61SAPC  C218 4786   5.331   3.965   4.670 -0.0026  0.0917 -0.0386
   61SAPC  H18R 4787   5.435   3.954   4.705 -0.7020 -2.2594  1.5141
   61SAPC  H18S 4788   5.290   4.052   4.725  2.0874  1.1252 -0.0235
   61SAPC  C219 4789   5.308   3.971   4.521 -0.1421 -0.1612 -0.1614
   61SAPC  H19R 4790   5.320   3.865   4.490 -0.5687 -0.2455 -0.0474
   61SAPC  H19S 4791   5.391   4.028   4.474 -1.3870  1.9131 -0.0035
   61SAPC  C220 4792   5.173   4.008   4.472 -0.6523 -0.1638 -0.1987
   61SAPC  H20R 4793   5.138   4.111   4.495 -1.9688 -0.5191 -0.5008
   61SAPC  H20S 4794   5.100   3.939   4.520 -0.0859  0.7770  2.1523
   61SAPC  H20T 4795   5.154   3.983   4.365  1.0540  0.8602 -0.7761
   61SAPC   C33 4796   4.966   3.698   5.704  0.5731  0.0081 -0.4940
   61SAPC   H3X 4797   4.880   3.630   5.684  0.8690 -0.7979  0.8099
   61SAPC   H3Y 4798   5.056   3.633   5.706 -0.6765 -1.8500 -1.2179
   61SAPC   C34 4799   4.985   3.807   5.598 -0.2194  0.3829  0.5876
   61SAPC   H4X 4800   4.894   3.871   5.599  0.1229  1.1392 -2.8289
   61SAPC   H4Y 4801   4.975   3.759   5.498  2.8301  1.8005 -0.4992
   61SAPC   C35 4802   5.123   3.883   5.587  1.0102  0.7036 -0.2863
   61SAPC   H5X 4803   5.202   3.809   5.561 -0.7353 -1.7404  1.0491
   61SAPC   H5Y 4804   5.149   3.920   5.689  3.6583 -0.1460 -0.5735
   61SAPC   C36 4805   5.123   3.999   5.498 -0.8290 -0.5734 -0.2514
   61SAPC   H6X 4806   5.225   4.033   5.469 -1.1785 -0.0456 -0.8991
   61SAPC   H6Y 4807   5.072   4.087   5.543  0.3476 -0.7089  1.4565
   61SAPC   C37 4808   5.055   3.968   5.367  0.6933 -0.4150  0.2039
   61SAPC   H7X 4809   4.944   3.966   5.378  0.2581  2.2553 -2.3561
   61SAPC   H7Y 4810   5.082   3.868   5.328 -0.6338 -1.0745  0.9100
   61SAPC   C38 4811   5.092   4.085   5.267 -0.0158 -0.6539 -0.0714
   61SAPC   H8X 4812   5.201   4.103   5.270  0.3158 -1.8878 -2.3867
   61SAPC   H8Y 4813   5.036   4.172   5.309 -3.4156 -1.6884 -2.0519
   61SAPC   C39 4814   5.035   4.052   5.128  0.4820  0.6001 -0.0236
   61SAPC   H9X 4815   4.931   4.018   5.150  0.2391  1.3304 -0.0189
   61SAPC   H9Y 4816   5.105   3.977   5.085  0.5986  0.5077  0.3182
   61SAPC  C310 4817   5.023   4.172   5.037 -0.1099  0.0040 -0.4874
   61SAPC  H10X 4818   5.121   4.223   5.028  0.5532 -0.7795  1.7785
   61SAPC  H10Y 4819   4.945   4.239   5.079  0.9345  0.7497  0.2967
   61SAPC  C311 4820   4.982   4.140   4.895 -0.1146 -0.0696 -0.3514
   61SAPC  H11X 4821   4.899   4.066   4.897  0.7894 -1.1555 -1.2476
   61SAPC  H11Y 4822   5.069   4.097   4.842  1.1726 -0.2506  1.7739
   61SAPC  C312 4823   4.933   4.266   4.814 -0.7054 -0.2653  0.3208
   61SAPC  H12X 4824   5.029   4.319   4.797 -0.5692 -0.6866 -0.2473
   61SAPC  H12Y 4825   4.873   4.327   4.885 -0.5537  1.5724 -1.0551
   61SAPC  C313 4826   4.854   4.223   4.692  0.3041 -0.6263 -0.0469
   61SAPC  H13X 4827   4.774   4.152   4.723 -3.5321  2.8284 -1.0996
   61SAPC  H13Y 4828   4.919   4.173   4.618  0.0537 -1.5621  0.3505
   61SAPC  C314 4829   4.798   4.345   4.623 -0.0190  0.2626 -0.5004
   61SAPC  H14X 4830   4.727   4.403   4.684 -0.4257  2.0841 -2.5923
   61SAPC  H14Y 4831   4.736   4.317   4.536 -0.4384 -2.5768  0.5932
   61SAPC  C315 4832   4.908   4.427   4.556 -0.3874  0.2440  0.6218
   61SAPC  H15X 4833   4.976   4.367   4.491 -0.1357  0.0450  1.0638
   61SAPC  H15Y 4834   4.976   4.473   4.630  2.3873 -2.5303  0.0035
   61SAPC  C316 4835   4.846   4.542   4.468  0.4239 -0.5069 -0.5930
   61SAPC  H16X 4836   4.778   4.484   4.402 -1.8558 -0.5340  1.6311
   61SAPC  H16Y 4837   4.928   4.586   4.408 -0.5842  3.1423  0.4586
   61SAPC  C317 4838   4.769   4.650   4.549 -1.1604 -0.5952 -1.2998
   61SAPC  H17X 4839   4.847   4.695   4.615  0.5595 -0.7980 -3.0917
   61SAPC  H17Y 4840   4.683   4.613   4.608  0.0633 -2.4170 -0.5560
   61SAPC  C318 4841   4.719   4.765   4.461 -0.1048 -0.7077  0.0013
   61SAPC  H18X 4842   4.686   4.853   4.520  1.0697 -1.7654  2.3830
   61SAPC  H18Y 4843   4.637   4.734   4.392 -0.5723  0.1110  0.1776
   61SAPC  H18Z 4844   4.799   4.800   4.392 -1.1455  0.5439 -0.6031
   62SAPC     N 4845   3.237   1.469   6.264  0.2546  0.4283  0.1245
   62SAPC   C12 4846   3.097   1.495   6.217 -1.3372 -0.0640 -0.5166
   62SAPC  H12A 4847   3.078   1.600   6.232 -1.5863 -0.2379  0.4394
   62SAPC  H12B 4848   3.023   1.456   6.285 -1.5279  0.7595 -0.2468
   62SAPC   C13 4849   3.258   1.318   6.256 -0.2242 -0.0943 -0.9168
   62SAPC  H13A 4850   3.189   1.267   6.322  0.2288 -0.0553 -0.4063
   62SAPC  H13B 4851   3.246   1.282   6.155  0.4688  0.6594 -1.2831
   62SAPC  H13C 4852   3.357   1.284   6.285 -0.3264 -0.1867 -0.6733
   62SAPC   C14 4853   3.340   1.533   6.184 -0.5778  0.4047  0.3755
   62SAPC  H14A 4854   3.435   1.532   6.235 -0.4421 -1.2372  0.1329
   62SAPC  H14B 4855   3.353   1.485   6.088  1.2276  0.5231  0.5259
   62SAPC  H14C 4856   3.318   1.637   6.163 -1.5148  0.4032  1.3037
   62SAPC   C15 4857   3.244   1.508   6.411 -0.0689  0.4241  1.2258
   62SAPC  H15A 4858   3.346   1.492   6.444  1.0338  1.5769 -1.3500
   62SAPC  H15B 4859   3.206   1.606   6.433 -0.7361  0.2134  1.0333
   62SAPC  H15C 4860   3.177   1.446   6.469 -0.2158  2.5344  3.4417
   62SAPC   C11 4861   3.053   1.459   6.078 -0.9842  0.4823  0.9831
   62SAPC  H11A 4862   3.122   1.500   6.002 -0.1170 -1.1257  0.8515
   62SAPC  H11B 4863   2.963   1.519   6.055 -0.1918  1.5689  0.6803
   62SAPC     P 4864   2.889   1.257   6.078  0.0542 -0.1903 -0.2261
   62SAPC   O13 4865   2.886   1.112   6.046  0.1601 -0.4225  0.0181
   62SAPC   O14 4866   2.834   1.290   6.210  0.0400  0.9386  0.4851
   62SAPC   O12 4867   3.036   1.316   6.060  0.1051  0.5682 -0.6642
   62SAPC   O11 4868   2.794   1.342   5.986 -0.5598  0.4239 -0.3889
   62SAPC    C1 4869   2.692   1.282   5.906  0.0159  0.3366 -0.0602
   62SAPC    HA 4870   2.682   1.173   5.922  2.4339 -0.1977 -1.7126
   62SAPC    HB 4871   2.593   1.330   5.922  1.5077  3.5192  0.5704
   62SAPC    C2 4872   2.719   1.298   5.748  0.3184  0.0841 -0.1787
   62SAPC    HS 4873   2.637   1.241   5.701 -0.3443 -0.0465  1.0968
   62SAPC   O21 4874   2.844   1.248   5.711 -0.4937  0.3295 -0.2157
   62SAPC   C21 4875   2.855   1.117   5.701 -0.2079 -0.4062  0.7292
   62SAPC   O22 4876   2.773   1.028   5.712  0.1019  0.3342 -0.6888
   62SAPC   C22 4877   2.991   1.083   5.635 -0.1938 -0.1125  0.7187
   62SAPC   H2R 4878   3.077   1.124   5.693  1.9519 -1.0846 -1.5743
   62SAPC   H2S 4879   3.000   0.972   5.641 -1.2122 -0.2466 -0.0164
   62SAPC    C3 4880   2.703   1.451   5.723  0.2123  0.1229  0.1530
   62SAPC    HX 4881   2.788   1.498   5.777  0.9393 -2.1359  1.1002
   62SAPC    HY 4882   2.605   1.488   5.759 -0.0129  0.0448 -0.3694
   62SAPC   O31 4883   2.708   1.476   5.579  0.0087 -0.0102 -0.4500
   62SAPC   C31 4884   2.593   1.468   5.510 -0.1288  0.2563  0.1873
   62SAPC   O32 4885   2.487   1.434   5.549 -0.0960 -0.0170 -0.7089
   62SAPC   C32 4886   2.627   1.518   5.369  0.6924  0.0870  0.0937
   62SAPC   H2X 4887   2.725   1.481   5.333 -0.0230 -2.3245  0.4614
   62SAPC   H2Y 4888   2.646   1.627   5.378  2.6165 -0.1597 -0.4802
   62SAPC   C23 4889   3.018   1.125   5.489  0.8266 -0.1583  0.1822
   62SAPC   H3R 4890   3.120   1.096   5.454  0.8725  1.0765 -0.8052
   62SAPC   H3S 4891   3.024   1.236   5.489 -2.1022  0.1365 -2.0729
   62SAPC   C24 4892   2.908   1.071   5.394  0.0680 -0.9847 -0.1624
   62SAPC   H4R 4893   2.904   1.133   5.302  0.9398 -1.2091 -0.3641
   62SAPC   H4S 4894   2.802   1.094   5.419 -0.3908  0.9052 -3.3415
   62SAPC   C25 4895   2.917   0.928   5.353  0.0598 -0.2903 -0.9743
   62SAPC   H5R 4896   2.893   0.860   5.436  0.7261  1.5721  0.8545
   62SAPC   C26 4897   2.968   0.881   5.237 -0.6911  0.1969 -0.5424
   62SAPC   H6R 4898   2.978   0.772   5.225  1.3288  0.5446 -2.5046
   62SAPC   C27 4899   3.013   0.959   5.121  0.4067  0.0748  0.2817
   62SAPC   H7R 4900   2.944   1.044   5.104  0.7489  0.0662 -1.2766
   62SAPC   H7S 4901   3.003   0.900   5.027 -2.1690  0.9207 -0.0655
   62SAPC   C28 4902   3.143   1.016   5.145  0.3172  0.1017  1.2711
   62SAPC   H8R 4903   3.133   1.112   5.196  1.7860  2.1860 -1.9895
   62SAPC   C29 4904   3.270   0.977   5.108  0.1961  0.2597 -0.6419
   62SAPC   H9R 4905   3.359   1.032   5.141 -0.2896  1.1037 -0.6996
   62SAPC  C210 4906   3.297   0.852   5.019 -0.2004 -0.3767 -0.2370
   62SAPC  H10R 4907   3.209   0.791   4.989  0.4986 -1.8836  0.7071
   62SAPC  H10S 4908   3.368   0.792   5.079  0.5919 -0.4577 -1.2200
   62SAPC  C211 4909   3.388   0.883   4.901 -0.3057  1.3223  0.6411
   62SAPC  H11R 4910   3.432   0.983   4.910  0.1628  1.0157  2.0025
   62SAPC  C212 4911   3.399   0.803   4.795  0.2715  0.6188 -0.1120
   62SAPC  H12R 4912   3.454   0.833   4.704  0.2515  0.2881 -0.2381
   62SAPC  C213 4913   3.334   0.663   4.780 -0.6413 -1.2848 -0.4339
   62SAPC  H13R 4914   3.306   0.628   4.882 -1.0742  1.6988  0.5458
   62SAPC  H13S 4915   3.400   0.583   4.739  0.4031  0.8410 -3.1504
   62SAPC  C214 4916   3.202   0.686   4.710 -0.3705  0.5834  0.1850
   62SAPC  H14R 4917   3.197   0.774   4.645  1.0920  0.3618 -0.2783
   62SAPC  C215 4918   3.108   0.594   4.698  0.3845  0.4421  0.2674
   62SAPC  H15R 4919   3.016   0.622   4.646  0.7476 -2.4476 -2.1947
   62SAPC  C216 4920   3.106   0.452   4.754  0.4645 -0.6057  0.8649
   62SAPC  H16R 4921   3.057   0.448   4.853  2.5227 -0.5732  1.9548
   62SAPC  H16S 4922   3.212   0.431   4.782  0.8923  0.0087 -0.2123
   62SAPC  C217 4923   3.057   0.345   4.657 -0.4730  1.0059 -0.0741
   62SAPC  H17R 4924   3.086   0.243   4.690  2.3542  2.4682  2.4449
   62SAPC  H17S 4925   3.113   0.352   4.561 -0.2041 -1.3612 -0.1585
   62SAPC  C218 4926   2.904   0.335   4.627 -0.7133  0.0052 -0.0412
   62SAPC  H18R 4927   2.876   0.257   4.553 -1.4982  0.2002  0.0338
   62SAPC  H18S 4928   2.866   0.425   4.574 -0.6856  0.0064 -0.0581
   62SAPC  C219 4929   2.814   0.310   4.747 -0.1252  1.0433 -0.4178
   62SAPC  H19R 4930   2.709   0.332   4.720 -1.3267 -0.7642  2.3188
   62SAPC  H19S 4931   2.841   0.380   4.828  0.7650 -0.3338  0.5359
   62SAPC  C220 4932   2.827   0.168   4.795 -0.0111 -0.0133  0.1372
   62SAPC  H20R 4933   2.924   0.155   4.847 -0.1827 -1.3992  0.1392
   62SAPC  H20S 4934   2.826   0.101   4.706  2.8192  1.2422 -0.9676
   62SAPC  H20T 4935   2.747   0.140   4.866 -1.0737 -1.9710 -1.7056
   62SAPC   C33 4936   2.512   1.490   5.264  0.2033 -0.1778 -0.6513
   62SAPC   H3X 4937   2.511   1.553   5.173 -1.6228  0.3679 -0.2916
   62SAPC   H3Y 4938   2.416   1.519   5.311 -0.1342  0.2514 -1.6002
   62SAPC   C34 4939   2.490   1.346   5.219  0.4824  0.6877  0.0877
   62SAPC   H4X 4940   2.388   1.331   5.177  1.1979  1.5745 -2.1178
   62SAPC   H4Y 4941   2.484   1.284   5.311 -0.7473  3.6391  2.1661
   62SAPC   C35 4942   2.594   1.285   5.127 -0.3241  0.6303 -0.3178
   62SAPC   H5X 4943   2.591   1.174   5.125  0.0878  0.5757  1.0616
   62SAPC   H5Y 4944   2.699   1.303   5.159 -0.1983 -2.2603  1.1988
   62SAPC   C36 4945   2.576   1.325   4.981 -0.3544 -0.9892  0.7967
   62SAPC   H6X 4946   2.597   1.434   4.984 -1.1703 -0.8376  2.6864
   62SAPC   H6Y 4947   2.471   1.307   4.951  0.1051  0.0835 -1.6552
   62SAPC   C37 4948   2.662   1.256   4.876 -0.3803 -0.4062  0.6209
   62SAPC   H7X 4949   2.625   1.155   4.846  1.0655 -0.3534 -1.6138
   62SAPC   H7Y 4950   2.767   1.253   4.910  0.7969  1.1182 -2.5240
   62SAPC   C38 4951   2.649   1.328   4.740 -0.3151  0.4033 -0.6383
   62SAPC   H8X 4952   2.715   1.416   4.755  1.1752 -1.2008  4.0722
   62SAPC   H8Y 4953   2.544   1.364   4.725 -0.0176  0.9959 -1.3565
   62SAPC   C39 4954   2.678   1.251   4.612  0.1787 -0.1949 -0.4522
   62SAPC   H9X 4955   2.613   1.161   4.609  0.9981 -0.7828 -0.8319
   62SAPC   H9Y 4956   2.784   1.219   4.608  1.4967  3.7042 -3.0185
   62SAPC  C310 4957   2.639   1.342   4.493 -0.3677 -0.9425 -0.5196
   62SAPC  H10X 4958   2.711   1.426   4.491 -1.2792 -0.1550 -0.9897
   62SAPC  H10Y 4959   2.534   1.369   4.517 -0.1476  0.7313 -1.3216
   62SAPC  C311 4960   2.643   1.272   4.360 -0.1743 -0.2896  0.5616
   62SAPC  H11X 4961   2.598   1.328   4.275 -0.7312  0.1972  1.1711
   62SAPC  H11Y 4962   2.597   1.171   4.363 -1.4929  0.2760  0.1081
   62SAPC  C312 4963   2.790   1.266   4.314 -0.0620  0.6961  1.0416
   62SAPC  H12X 4964   2.838   1.213   4.399 -0.1848 -2.1481 -0.5640
   62SAPC  H12Y 4965   2.827   1.369   4.295 -2.2044  1.1881 -0.9117
   62SAPC  C313 4966   2.814   1.181   4.193  0.0892  0.9631  0.0411
   62SAPC  H13X 4967   2.750   1.201   4.104  2.3829  2.7031 -1.3373
   62SAPC  H13Y 4968   2.787   1.083   4.238  2.5902  0.8522  1.4440
   62SAPC  C314 4969   2.957   1.198   4.140  0.0557 -0.1342 -0.4386
   62SAPC  H14X 4970   3.023   1.210   4.228  0.8271  1.0579 -1.1489
   62SAPC  H14Y 4971   2.963   1.291   4.079  2.1351 -2.1168 -3.5651
   62SAPC  C315 4972   3.006   1.081   4.054  0.4086 -0.0594  0.0787
   62SAPC  H15X 4973   2.974   0.985   4.099 -0.5029 -0.5106 -1.4316
   62SAPC  H15Y 4974   3.116   1.091   4.053  0.3789  0.4588  1.0275
   62SAPC  C316 4975   2.937   1.077   3.916  0.5180 -0.0879  0.3802
   62SAPC  H16X 4976   2.826   1.082   3.920  0.4584 -0.2860 -0.7919
   62SAPC  H16Y 4977   2.970   0.989   3.857 -3.9042 -0.9224 -1.2241
   62SAPC  C317 4978   2.974   1.211   3.831 -0.0896  0.7654 -0.3179
   62SAPC  H17X 4979   3.084   1.224   3.825  0.0902  0.2828  1.3954
   62SAPC  H17Y 4980   2.936   1.294   3.896  2.8166  1.1069  1.1249
   62SAPC  C318 4981   2.895   1.217   3.699 -0.3076 -1.0582 -0.1950
   62SAPC  H18X 4982   2.901   1.120   3.646 -1.0931 -1.5676  0.6212
   62SAPC  H18Y 4983   2.927   1.304   3.638 -1.4337 -0.7075 -0.3056
   62SAPC  H18Z 4984   2.793   1.237   3.739  0.2797  1.0968  0.3514
   63SAPC     N 4985   3.054   4.710   6.858 -0.4203  0.2297  0.0155
   63SAPC   C12 4986   3.165   4.761   6.768 -0.9693 -0.2703 -0.3810
   63SAPC  H12A 4987   3.117   4.751   6.671 -1.8708 -1.4895  0.1548
   63SAPC  H12B 4988   3.250   4.694   6.769 -1.7852 -1.3350 -0.2960
   63SAPC   C13 4989   3.119   4.693   6.987  0.5004 -0.0947  0.1081
   63SAPC  H13A 4990   3.178   4.604   7.001  0.3708  0.1960  3.3500
   63SAPC  H13B 4991   3.190   4.774   6.997 -0.6854  1.1548 -1.1161
   63SAPC  H13C 4992   3.052   4.706   7.070 -2.4335  3.8206 -2.4975
   63SAPC   C14 4993   2.941   4.803   6.867 -0.2115 -0.2950 -0.0260
   63SAPC  H14A 4994   2.868   4.755   6.932  1.3416 -4.1053 -0.8341
   63SAPC  H14B 4995   2.953   4.902   6.908 -2.6510 -0.0180  0.1947
   63SAPC  H14C 4996   2.893   4.809   6.770  0.1340 -1.6877 -0.2937
   63SAPC   C15 4997   3.004   4.579   6.794  0.1281  0.8968  0.2987
   63SAPC  H15A 4998   2.951   4.513   6.862  0.0244 -0.2493 -0.8485
   63SAPC  H15B 4999   2.939   4.593   6.709  1.7817 -1.0258 -1.4058
   63SAPC  H15C 5000   3.087   4.516   6.767 -0.2359  1.4047 -2.2613
   63SAPC   C11 5001   3.197   4.911   6.784 -0.2956  0.5715 -0.4915
   63SAPC  H11A 5002   3.300   4.920   6.744  0.2791 -1.8599  0.2797
   63SAPC  H11B 5003   3.204   4.947   6.889  1.5397 -2.6145  0.6162
   63SAPC     P 5004   3.130   5.111   6.641 -0.2230  0.3682  0.1873
   63SAPC   O13 5005   3.078   5.220   6.720 -0.0522  0.0547  0.3141
   63SAPC   O14 5006   3.271   5.115   6.607 -0.1622 -0.2839 -0.1523
   63SAPC   O12 5007   3.095   4.983   6.716 -0.0179 -0.3055  0.0524
   63SAPC   O11 5008   3.048   5.096   6.508 -0.2246 -0.1637 -0.0809
   63SAPC    C1 5009   2.953   4.992   6.474 -0.6429 -0.4142 -0.2788
   63SAPC    HA 5010   2.998   4.891   6.483 -1.2105 -0.7349 -1.0054
   63SAPC    HB 5011   2.866   4.997   6.543  0.6317  2.8239  1.3648
   63SAPC    C2 5012   2.897   5.011   6.333  0.2293  0.6838 -0.2434
   63SAPC    HS 5013   2.837   4.922   6.304  0.5336  1.4897 -3.7679
   63SAPC   O21 5014   3.006   5.016   6.236  0.3687 -0.3651 -0.8054
   63SAPC   C21 5015   3.102   4.926   6.226  0.0124  0.1430  0.3088
   63SAPC   O22 5016   3.095   4.813   6.277 -0.6519 -0.3881  0.0542
   63SAPC   C22 5017   3.230   4.989   6.175  0.4897 -0.1117  0.1601
   63SAPC   H2R 5018   3.204   5.084   6.125 -2.8909 -1.3349 -0.6896
   63SAPC   H2S 5019   3.296   4.993   6.264 -0.6409 -0.7031  1.0523
   63SAPC    C3 5020   2.803   5.138   6.327  0.2112  0.2561  0.5482
   63SAPC    HX 5021   2.861   5.228   6.357  1.7999 -0.5559  0.0045
   63SAPC    HY 5022   2.712   5.128   6.390 -0.3963  2.2787  0.0827
   63SAPC   O31 5023   2.742   5.146   6.192  0.6987  0.1918  0.1870
   63SAPC   C31 5024   2.649   5.243   6.175 -0.0249 -0.0742 -0.3451
   63SAPC   O32 5025   2.605   5.316   6.265 -0.3632 -0.2672 -0.2696
   63SAPC   C32 5026   2.619   5.257   6.028  0.3110  0.0551  0.3635
   63SAPC   H2X 5027   2.584   5.160   5.987  2.4711 -1.2721  1.4908
   63SAPC   H2Y 5028   2.713   5.289   5.978  0.3008  0.1706  0.4192
   63SAPC   C23 5029   3.301   4.887   6.075  0.3931  0.7458  0.1795
   63SAPC   H3R 5030   3.233   4.825   6.013 -1.5042  1.5899  1.3077
   63SAPC   H3S 5031   3.355   4.814   6.140 -0.2433 -0.3659 -0.5151
   63SAPC   C24 5032   3.395   4.963   5.981  0.0683  0.0723 -0.4176
   63SAPC   H4R 5033   3.433   5.048   6.042 -4.0224  2.1938 -0.5144
   63SAPC   H4S 5034   3.324   5.005   5.907  0.3250  4.0563  1.3014
   63SAPC   C25 5035   3.501   4.868   5.922  0.1760  0.0767  0.3002
   63SAPC   H5R 5036   3.566   4.812   5.991  0.1422  0.3613  0.5691
   63SAPC   C26 5037   3.502   4.831   5.788 -0.2468 -0.5985  0.2228
   63SAPC   H6R 5038   3.587   4.770   5.753 -2.1822 -2.5421 -1.3411
   63SAPC   C27 5039   3.420   4.891   5.676  0.6132 -0.1436 -0.2449
   63SAPC   H7R 5040   3.464   4.879   5.574  0.2204 -2.7648 -0.1605
   63SAPC   H7S 5041   3.401   5.000   5.688  2.5609  0.5672 -2.7564
   63SAPC   C28 5042   3.289   4.817   5.683  0.3265 -0.9910 -0.9254
   63SAPC   H8R 5043   3.235   4.798   5.776 -0.0041  0.4649 -0.7924
   63SAPC   C29 5044   3.231   4.760   5.576 -0.1339  1.5117 -0.2010
   63SAPC   H9R 5045   3.144   4.696   5.599  1.7899 -1.4242 -0.5333
   63SAPC  C210 5046   3.264   4.769   5.428 -0.2895  0.0986  0.1359
   63SAPC  H10R 5047   3.238   4.674   5.376  0.2337  0.7859 -1.4575
   63SAPC  H10S 5048   3.371   4.786   5.407  0.0658 -3.3764 -1.7092
   63SAPC  C211 5049   3.184   4.867   5.354  0.0169 -0.1014  0.2562
   63SAPC  H11R 5050   3.115   4.935   5.407 -1.6714 -0.9504 -0.7803
   63SAPC  C212 5051   3.213   4.907   5.230 -0.1800 -0.0012  0.5163
   63SAPC  H12R 5052   3.147   4.977   5.177 -1.4593 -1.2243  0.4278
   63SAPC  C213 5053   3.321   4.854   5.142 -0.2794  0.0020 -0.3368
   63SAPC  H13R 5054   3.404   4.819   5.206 -0.6188 -1.5571 -0.7066
   63SAPC  H13S 5055   3.358   4.944   5.087 -1.7060  0.5276 -0.5027
   63SAPC  C214 5056   3.263   4.741   5.059 -0.5700  0.8417  0.5794
   63SAPC  H14R 5057   3.290   4.637   5.080  2.4129  0.6896 -3.0245
   63SAPC  C215 5058   3.206   4.759   4.937 -0.2532  0.4339 -0.4094
   63SAPC  H15R 5059   3.150   4.676   4.893 -2.0851  2.6319 -2.5399
   63SAPC  C216 5060   3.176   4.890   4.868  0.0849 -0.3500  0.2380
   63SAPC  H16R 5061   3.260   4.932   4.808  0.2190  2.2296  2.0516
   63SAPC  H16S 5062   3.153   4.967   4.945 -0.1566 -2.1193  2.0096
   63SAPC  C217 5063   3.041   4.870   4.787 -0.0349 -0.1390 -0.0461
   63SAPC  H17R 5064   2.990   4.969   4.775  0.6712  0.1077 -1.1748
   63SAPC  H17S 5065   2.980   4.819   4.864  2.1535 -1.0877  1.1293
   63SAPC  C218 5066   3.049   4.787   4.656 -1.0214  0.3401 -0.4535
   63SAPC  H18R 5067   2.953   4.756   4.609 -0.9708 -0.5332  0.0039
   63SAPC  H18S 5068   3.108   4.696   4.678  2.5626  2.7433  0.6940
   63SAPC  C219 5069   3.125   4.850   4.541  0.4227 -0.0637 -0.0945
   63SAPC  H19R 5070   3.217   4.896   4.583 -0.1409  2.1996 -1.1979
   63SAPC  H19S 5071   3.063   4.928   4.493  2.8537  1.8145 -0.4012
   63SAPC  C220 5072   3.160   4.757   4.425  0.1219 -0.2346  0.6905
   63SAPC  H20R 5073   3.074   4.686   4.420  0.4260 -0.5570 -0.0481
   63SAPC  H20S 5074   3.246   4.694   4.455 -1.0828 -1.5820  1.4575
   63SAPC  H20T 5075   3.174   4.811   4.329  0.2295  0.7408  1.2423
   63SAPC   C33 5076   2.516   5.368   6.005  0.5685 -0.2363  0.7774
   63SAPC   H3X 5077   2.552   5.464   6.048 -0.7188  0.3617  0.5801
   63SAPC   H3Y 5078   2.418   5.352   6.054  0.3494  2.1293  1.2244
   63SAPC   C34 5079   2.479   5.384   5.858 -0.5966 -0.0989  0.2827
   63SAPC   H4X 5080   2.558   5.393   5.781 -1.7561  0.2117 -0.9114
   63SAPC   H4Y 5081   2.421   5.478   5.845 -1.7625 -0.8429 -0.0497
   63SAPC   C35 5082   2.380   5.276   5.789  0.1203  0.3822  0.2668
   63SAPC   H5X 5083   2.280   5.280   5.836  0.8975  3.3800  1.9832
   63SAPC   H5Y 5084   2.414   5.172   5.808 -1.8833 -0.2455  0.6165
   63SAPC   C36 5085   2.368   5.305   5.633  0.1015  0.1558 -0.0589
   63SAPC   H6X 5086   2.331   5.409   5.616 -1.0487 -0.3899 -1.0847
   63SAPC   H6Y 5087   2.295   5.231   5.595  0.5837 -0.7012  0.6569
   63SAPC   C37 5088   2.493   5.288   5.551 -0.4435  0.5861  0.4302
   63SAPC   H7X 5089   2.546   5.197   5.588 -2.5829 -1.3542 -0.9892
   63SAPC   H7Y 5090   2.565   5.372   5.558  0.1630 -0.0601  3.5457
   63SAPC   C38 5091   2.459   5.257   5.405  0.5716 -0.2093  0.3601
   63SAPC   H8X 5092   2.402   5.161   5.407  1.2784 -0.6353  1.4445
   63SAPC   H8Y 5093   2.549   5.251   5.341 -0.1929  0.4470 -0.8008
   63SAPC   C39 5094   2.367   5.358   5.340  0.3286 -0.2427 -0.0515
   63SAPC   H9X 5095   2.398   5.454   5.386  1.4403 -1.3216  1.5983
   63SAPC   H9Y 5096   2.261   5.337   5.365 -0.1913  1.8342 -0.3658
   63SAPC  C310 5097   2.368   5.350   5.184 -1.0493 -0.4511 -0.1627
   63SAPC  H10X 5098   2.473   5.334   5.153 -1.2049 -2.3227  0.2139
   63SAPC  H10Y 5099   2.339   5.453   5.152 -1.5263 -0.7633 -0.7649
   63SAPC  C311 5100   2.286   5.236   5.130 -0.1940  0.1136  0.9170
   63SAPC  H11X 5101   2.179   5.254   5.153 -0.6140 -1.3950  0.2158
   63SAPC  H11Y 5102   2.305   5.137   5.177 -1.8193 -0.8564 -0.3735
   63SAPC  C312 5103   2.298   5.227   4.974 -0.3394  0.4436 -0.6180
   63SAPC  H12X 5104   2.239   5.136   4.951 -0.6874  0.8095 -1.1863
   63SAPC  H12Y 5105   2.403   5.217   4.940  0.2701  1.2485  0.9222
   63SAPC  C313 5106   2.230   5.354   4.898  0.1942  0.6231  0.0477
   63SAPC  H13X 5107   2.270   5.447   4.944 -0.3225  1.6367 -1.4633
   63SAPC  H13Y 5108   2.123   5.353   4.928 -0.0355 -2.7223 -0.5671
   63SAPC  C314 5109   2.249   5.362   4.750  0.0315  0.0411 -0.1440
   63SAPC  H14X 5110   2.355   5.345   4.722  0.4266  1.4522  0.3999
   63SAPC  H14Y 5111   2.224   5.464   4.714 -0.4581 -0.8575 -2.6132
   63SAPC  C315 5112   2.149   5.274   4.674 -0.2352  0.3079 -0.1448
   63SAPC  H15X 5113   2.048   5.300   4.712  0.0665  2.2971 -0.6183
   63SAPC  H15Y 5114   2.169   5.169   4.703  0.1049  0.7166  1.1717
   63SAPC  C316 5115   2.153   5.281   4.520  0.2508  0.1125 -0.1945
   63SAPC  H16X 5116   2.254   5.316   4.490  0.5150  0.1838  0.7438
   63SAPC  H16Y 5117   2.074   5.348   4.480 -0.6417 -0.6679  0.2156
   63SAPC  C317 5118   2.105   5.146   4.459 -0.3512 -0.3710 -0.0018
   63SAPC  H17X 5119   1.997   5.134   4.481 -0.5348 -0.7197 -1.0132
   63SAPC  H17Y 5120   2.150   5.061   4.515 -1.7516  0.0538  1.8276
   63SAPC  C318 5121   2.123   5.134   4.304 -0.6126 -0.5542 -0.2846
   63SAPC  H18X 5122   2.069   5.213   4.248  0.6459  1.6218  1.3933
   63SAPC  H18Y 5123   2.110   5.030   4.267  0.8177 -1.4286  1.4940
   63SAPC  H18Z 5124   2.232   5.142   4.284 -0.1768 -1.0212  1.6735
   64SAPC     N 5125   1.495   5.229   6.749  0.0500  0.8751 -0.7133
   64SAPC   C12 5126   1.399   5.292   6.637  0.9454  0.1115 -0.4023
   64SAPC  H12A 5127   1.336   5.211   6.603  0.4215  0.9079 -1.3882
   64SAPC  H12B 5128   1.464   5.320   6.556  0.6560  1.0315 -0.3243
   64SAPC   C13 5129   1.415   5.165   6.857 -0.1148 -0.1701 -0.1013
   64SAPC  H13A 5130   1.481   5.116   6.927 -2.0330 -0.7076  1.4166
   64SAPC  H13B 5131   1.358   5.230   6.922  0.2276 -0.7301  0.7904
   64SAPC  H13C 5132   1.342   5.093   6.824 -0.9636  1.2925 -1.5541
   64SAPC   C14 5133   1.586   5.121   6.694  0.1397 -1.3206 -0.5090
   64SAPC  H14A 5134   1.514   5.046   6.668 -1.5549 -0.4065  1.2954
   64SAPC  H14B 5135   1.635   5.145   6.601  0.0491  0.2173 -0.1805
   64SAPC  H14C 5136   1.653   5.087   6.772 -0.8740 -2.3288 -0.0486
   64SAPC   C15 5137   1.580   5.339   6.797  0.7469  0.3926  0.2354
   64SAPC  H15A 5138   1.653   5.380   6.728  0.3970  2.2255  0.8943
   64SAPC  H15B 5139   1.520   5.427   6.817 -0.9619 -0.8472  0.7790
   64SAPC  H15C 5140   1.628   5.322   6.892  2.5554  1.0205 -0.5046
   64SAPC   C11 5141   1.313   5.414   6.682  0.8414 -0.3930 -0.0756
   64SAPC  H11A 5142   1.274   5.374   6.778  0.8161 -1.1968 -0.4171
   64SAPC  H11B 5143   1.227   5.428   6.613  0.0930 -2.4158  0.3767
   64SAPC     P 5144   1.457   5.615   6.582 -0.0579  0.1877  0.2399
   64SAPC   O13 5145   1.360   5.715   6.541  0.4991 -0.3629 -0.0178
   64SAPC   O14 5146   1.593   5.675   6.606  0.3166  0.0943  0.2386
   64SAPC   O12 5147   1.398   5.534   6.706  0.0344  0.0183  0.7322
   64SAPC   O11 5148   1.472   5.499   6.471  0.3700  0.9802  0.1493
   64SAPC    C1 5149   1.579   5.492   6.374 -0.6273  0.1769 -0.7373
   64SAPC    HA 5150   1.678   5.490   6.423  0.3026 -3.2348 -2.3719
   64SAPC    HB 5151   1.569   5.387   6.337  0.5216 -0.9261  1.8802
   64SAPC    C2 5152   1.561   5.583   6.249  0.1689 -0.4036  0.2848
   64SAPC    HS 5153   1.629   5.542   6.171  0.5988  0.5999  0.1186
   64SAPC   O21 5154   1.597   5.719   6.276  0.3090 -0.1803 -0.4580
   64SAPC   C21 5155   1.727   5.739   6.304  0.4521  0.3998 -0.0522
   64SAPC   O22 5156   1.819   5.655   6.315 -0.6547 -0.4335 -0.0791
   64SAPC   C22 5157   1.741   5.891   6.335 -0.3552 -0.2699 -0.1793
   64SAPC   H2R 5158   1.642   5.939   6.350 -0.8153  0.0565 -3.4353
   64SAPC   H2S 5159   1.798   5.899   6.430 -0.6643  0.4851 -0.0511
   64SAPC    C3 5160   1.418   5.572   6.188 -0.8700 -0.1123 -0.5034
   64SAPC    HX 5161   1.343   5.625   6.250 -0.7247 -0.9499  0.4133
   64SAPC    HY 5162   1.387   5.465   6.181  1.5417 -0.8135 -1.7511
   64SAPC   O31 5163   1.418   5.630   6.053 -0.4734  0.0139 -0.1005
   64SAPC   C31 5164   1.456   5.541   5.954 -0.3751 -0.5058 -0.6027
   64SAPC   O32 5165   1.503   5.431   5.972  0.9674  0.3159 -0.7239
   64SAPC   C32 5166   1.441   5.600   5.815 -0.3093 -0.0699  0.5557
   64SAPC   H2X 5167   1.544   5.634   5.792  0.6197 -3.1951 -0.4892
   64SAPC   H2Y 5168   1.377   5.690   5.821 -0.8041 -0.4061  0.4061
   64SAPC   C23 5169   1.835   5.955   6.229  0.1344  0.4032 -0.0150
   64SAPC   H3R 5170   1.930   5.898   6.224 -0.1409 -0.2358  1.4902
   64SAPC   H3S 5171   1.869   6.052   6.271 -0.1667  0.4076  0.2208
   64SAPC   C24 5172   1.776   5.963   6.094  0.7137 -0.5705  0.1805
   64SAPC   H4R 5173   1.742   5.860   6.072 -2.0226 -0.0415  1.4999
   64SAPC   H4S 5174   1.854   6.000   6.023  0.4966  1.1762  0.7945
   64SAPC   C25 5175   1.658   6.053   6.081 -0.4093 -0.0227 -0.4173
   64SAPC   H5R 5176   1.658   6.152   6.128  0.9697  0.9087 -2.2438
   64SAPC   C26 5177   1.569   6.042   5.985  0.3473  0.2299  1.0311
   64SAPC   H6R 5178   1.485   6.113   5.982 -1.0688 -1.3191  2.1653
   64SAPC   C27 5179   1.561   5.937   5.881 -0.6411  0.2939  0.2415
   64SAPC   H7R 5180   1.467   5.880   5.899 -0.1877 -0.1436  1.2725
   64SAPC   H7S 5181   1.639   5.858   5.891 -2.1323 -1.7803 -2.7452
   64SAPC   C28 5182   1.576   6.005   5.750 -1.2270 -0.4849  0.6163
   64SAPC   H8R 5183   1.676   6.040   5.721 -1.2406  0.0578  1.2134
   64SAPC   C29 5184   1.482   6.019   5.651 -0.2412  1.0175 -0.6402
   64SAPC   H9R 5185   1.511   6.080   5.565  2.6677  0.6190 -0.0420
   64SAPC  C210 5186   1.334   5.975   5.652  0.8455  0.2286  0.2535
   64SAPC  H10R 5187   1.294   5.946   5.752  0.6484  1.2634  0.4860
   64SAPC  H10S 5188   1.316   5.880   5.598 -0.1555 -0.0600  1.0635
   64SAPC  C211 5189   1.238   6.076   5.600  0.2653 -0.0082 -0.2041
   64SAPC  H11R 5190   1.206   6.152   5.672 -2.8957  1.6462 -3.0836
   64SAPC  C212 5191   1.186   6.088   5.474 -0.7126 -0.5362 -0.1293
   64SAPC  H12R 5192   1.107   6.161   5.450  0.4847  0.4903 -1.1040
   64SAPC  C213 5193   1.215   6.004   5.354  0.0096 -0.1077  0.1012
   64SAPC  H13R 5194   1.131   6.015   5.283  0.3792 -1.8822 -0.6883
   64SAPC  H13S 5195   1.225   5.897   5.382  2.2280 -0.4492 -1.6760
   64SAPC  C214 5196   1.347   6.051   5.293  0.3233  0.3132 -0.3391
   64SAPC  H14R 5197   1.423   6.086   5.364 -1.0937  0.8291  0.9928
   64SAPC  C215 5198   1.379   6.032   5.166 -0.0899  0.2601  0.7370
   64SAPC  H15R 5199   1.477   6.065   5.128 -1.1086  3.3811  0.4641
   64SAPC  C216 5200   1.287   5.964   5.064 -0.0733  0.2461  0.0265
   64SAPC  H16R 5201   1.236   6.038   4.999  1.2234  0.3427 -0.9219
   64SAPC  H16S 5202   1.213   5.895   5.110  0.0980  0.3363  0.4440
   64SAPC  C217 5203   1.369   5.870   4.974 -0.4895  0.4852  0.0615
   64SAPC  H17R 5204   1.430   5.809   5.044  0.0937  1.5687  0.5297
   64SAPC  H17S 5205   1.439   5.936   4.918  0.9622 -0.3173  0.8598
   64SAPC  C218 5206   1.292   5.784   4.873 -0.1385  0.3294  0.4721
   64SAPC  H18R 5207   1.207   5.738   4.927 -0.2020 -1.1322 -0.8220
   64SAPC  H18S 5208   1.363   5.707   4.837 -2.3208 -0.6019 -2.1350
   64SAPC  C219 5209   1.252   5.873   4.752  0.3236 -0.0742  0.1462
   64SAPC  H19R 5210   1.333   5.939   4.716 -3.1945  3.7763 -1.6039
   64SAPC  H19S 5211   1.183   5.948   4.796 -0.2490  0.0046 -0.8592
   64SAPC  C220 5212   1.197   5.791   4.641  0.1343  0.1489  0.0124
   64SAPC  H20R 5213   1.164   5.864   4.564 -3.5953  0.2480  1.4949
   64SAPC  H20S 5214   1.108   5.742   4.686 -0.2538  1.0734  0.2830
   64SAPC  H20T 5215   1.266   5.719   4.593  1.1435  1.7702 -1.0675
   64SAPC   C33 5216   1.380   5.501   5.710  0.1858  0.6776  0.1712
   64SAPC   H3X 5217   1.275   5.482   5.740 -0.6946  2.8380 -1.2734
   64SAPC   H3Y 5218   1.424   5.399   5.717 -2.6447 -0.7406 -1.0087
   64SAPC   C34 5219   1.382   5.561   5.573  0.2589 -0.3867  0.0220
   64SAPC   H4X 5220   1.483   5.604   5.553  0.4479  0.3179  2.1690
   64SAPC   H4Y 5221   1.306   5.640   5.560  1.4396  0.6563 -0.7571
   64SAPC   C35 5222   1.368   5.451   5.462  0.1472 -0.5363 -0.3429
   64SAPC   H5X 5223   1.289   5.379   5.493  0.4421 -1.1264 -0.9411
   64SAPC   H5Y 5224   1.464   5.397   5.450  0.3411 -0.1826 -0.3737
   64SAPC   C36 5225   1.325   5.510   5.322  0.0828  0.1075  0.6313
   64SAPC   H6X 5226   1.406   5.581   5.294  0.5818 -1.3349 -1.8853
   64SAPC   H6Y 5227   1.227   5.560   5.338 -0.4203 -1.0951  1.4602
   64SAPC   C37 5228   1.319   5.399   5.215  0.4457  0.0393  0.4214
   64SAPC   H7X 5229   1.245   5.324   5.248 -1.2001  1.6336  0.5439
   64SAPC   H7Y 5230   1.422   5.359   5.203  1.1503  1.7990  0.1809
   64SAPC   C38 5231   1.286   5.469   5.081 -0.5643 -0.0091  0.4708
   64SAPC   H8X 5232   1.367   5.540   5.052 -1.6116  1.5639  1.2160
   64SAPC   H8Y 5233   1.199   5.537   5.090 -1.2798 -1.0013  1.2309
   64SAPC   C39 5234   1.252   5.365   4.972 -0.5216 -0.2411  0.0758
   64SAPC   H9X 5235   1.158   5.311   4.994 -0.6546 -0.1090 -0.1657
   64SAPC   H9Y 5236   1.336   5.292   4.975 -1.0582 -0.8774 -0.0500
   64SAPC  C310 5237   1.255   5.427   4.835 -0.0470  1.5138 -0.2968
   64SAPC  H10X 5238   1.351   5.478   4.811  0.8498  0.1166  0.2165
   64SAPC  H10Y 5239   1.186   5.514   4.828 -1.5643  0.2000 -3.3189
   64SAPC  C311 5240   1.217   5.320   4.724 -0.3784 -0.2195  0.3233
   64SAPC  H11X 5241   1.125   5.272   4.763 -0.7991  1.8466  2.0643
   64SAPC  H11Y 5242   1.297   5.244   4.718 -1.4195 -1.3041 -0.0912
   64SAPC  C312 5243   1.188   5.379   4.590  0.4495 -0.5303 -0.6083
   64SAPC  H12X 5244   1.252   5.470   4.583  0.4276 -0.5552 -1.2134
   64SAPC  H12Y 5245   1.084   5.416   4.580 -0.1213 -1.4737  1.4595
   64SAPC  C313 5246   1.201   5.291   4.466 -0.1879 -0.9334 -0.6521
   64SAPC  H13X 5247   1.303   5.249   4.456  0.4410  0.7298 -1.5005
   64SAPC  H13Y 5248   1.179   5.354   4.377  1.8020  1.3673  0.3896
   64SAPC  C314 5249   1.104   5.170   4.467 -0.3081 -0.0971  0.6757
   64SAPC  H14X 5250   0.998   5.200   4.452 -1.2043 -1.3975  3.6453
   64SAPC  H14Y 5251   1.107   5.112   4.562 -2.1267  0.3654  1.0468
   64SAPC  C315 5252   1.135   5.087   4.341 -0.0277  0.0740  0.4246
   64SAPC  H15X 5253   1.232   5.034   4.347 -1.0003 -1.6821  1.8078
   64SAPC  H15Y 5254   1.122   5.139   4.244  1.4185 -1.1763 -0.4826
   64SAPC  C316 5255   1.028   4.968   4.318  0.4158 -0.2461 -0.2150
   64SAPC  H16X 5256   0.929   4.993   4.361  1.2438  1.0630  1.0121
   64SAPC  H16Y 5257   1.047   4.882   4.386 -0.6771 -0.3983 -0.0787
   64SAPC  C317 5258   1.016   4.913   4.179 -0.1037 -0.3924  0.0709
   64SAPC  H17X 5259   1.009   5.003   4.113 -0.7094 -1.4440 -1.3465
   64SAPC  H17Y 5260   0.923   4.853   4.169  0.7176 -1.9004  1.1998
   64SAPC  C318 5261   1.147   4.842   4.140  0.6576  0.3333  0.1412
   64SAPC  H18X 5262   1.162   4.758   4.212 -2.4337 -1.2123 -0.8565
   64SAPC  H18Y 5263   1.233   4.912   4.149 -0.0191  1.5116 -1.8636
   64SAPC  H18Z 5264   1.138   4.794   4.040 -1.4654 -0.9507  0.8801
   65SAPC     N 5265   4.381   3.752   1.903 -0.4131 -0.6711 -0.3750
   65SAPC   C12 5266   4.499   3.707   1.989  0.1276 -0.0323 -0.1623
   65SAPC  H12A 5267   4.528   3.784   2.060  0.2137 -1.7571  1.7762
   65SAPC  H12B 5268   4.568   3.685   1.910 -1.0487 -1.2160 -0.9072
   65SAPC   C13 5269   4.327   3.645   1.810 -0.3508  0.4462 -0.1999
   65SAPC  H13A 5270   4.248   3.685   1.747  0.1455  0.9938 -0.4783
   65SAPC  H13B 5271   4.404   3.615   1.741 -1.7080  0.9532 -2.0155
   65SAPC  H13C 5272   4.274   3.564   1.858 -1.0017  1.9933  1.8610
   65SAPC   C14 5273   4.277   3.796   1.994 -1.0798  0.0152 -0.0788
   65SAPC  H14A 5274   4.176   3.807   1.958 -1.0537 -1.7249 -0.7768
   65SAPC  H14B 5275   4.268   3.727   2.076  2.3327  0.6452  0.9950
   65SAPC  H14C 5276   4.311   3.890   2.035  1.0239 -0.5660 -0.3667
   65SAPC   C15 5277   4.428   3.875   1.823 -0.3619 -0.2100  0.4482
   65SAPC  H15A 5278   4.514   3.855   1.760 -0.7394  0.5112 -0.3164
   65SAPC  H15B 5279   4.346   3.917   1.766 -0.7607 -0.1001  1.0978
   65SAPC  H15C 5280   4.473   3.937   1.899 -0.9843 -0.1554  0.7794
   65SAPC   C11 5281   4.477   3.580   2.077 -0.0324  0.8939  0.1696
   65SAPC  H11A 5282   4.392   3.580   2.149 -1.1053  0.2941 -1.0524
   65SAPC  H11B 5283   4.572   3.592   2.133  0.9683 -1.3501 -0.9012
   65SAPC     P 5284   4.606   3.390   1.951 -0.2017 -0.3031  0.2213
   65SAPC   O13 5285   4.550   3.271   1.886 -0.0039 -0.4405  0.2820
   65SAPC   O14 5286   4.698   3.471   1.868  0.2292 -0.7948 -0.1472
   65SAPC   O12 5287   4.473   3.457   1.997 -0.4976 -0.1801 -0.5873
   65SAPC   O11 5288   4.674   3.357   2.092 -0.1800 -0.4001 -0.0969
   65SAPC    C1 5289   4.611   3.261   2.181  0.3926 -0.5176 -0.8414
   65SAPC    HA 5290   4.517   3.216   2.141  0.3718 -0.7062 -0.5832
   65SAPC    HB 5291   4.683   3.180   2.202 -2.4242 -2.1648  4.1470
   65SAPC    C2 5292   4.579   3.320   2.312 -0.7404 -0.2612  0.1432
   65SAPC    HS 5293   4.522   3.415   2.300  1.3689  0.8275 -2.1460
   65SAPC   O21 5294   4.710   3.339   2.371  0.0998  0.4119 -0.0817
   65SAPC   C21 5295   4.714   3.435   2.463  0.8423  0.0621  0.0359
   65SAPC   O22 5296   4.624   3.516   2.486  0.1990 -0.9313 -0.2961
   65SAPC   C22 5297   4.852   3.443   2.533 -0.1055  0.0648  0.0698
   65SAPC   H2R 5298   4.887   3.341   2.557  1.4110  0.7158  0.7325
   65SAPC   H2S 5299   4.923   3.489   2.461  1.0182  2.2700  2.4489
   65SAPC    C3 5300   4.492   3.223   2.390  0.0391  0.1853 -0.7788
   65SAPC    HX 5301   4.549   3.128   2.400 -1.7905 -1.3028 -3.4233
   65SAPC    HY 5302   4.405   3.190   2.330  0.7678 -0.7140 -1.3552
   65SAPC   O31 5303   4.447   3.271   2.522  0.3469 -0.0947 -0.2198
   65SAPC   C31 5304   4.327   3.331   2.527 -0.1662 -0.0904  0.8570
   65SAPC   O32 5305   4.258   3.364   2.432 -0.0102  0.0419  0.1189
   65SAPC   C32 5306   4.307   3.374   2.672 -0.6800 -0.2616 -0.2079
   65SAPC   H2X 5307   4.405   3.412   2.710  0.0296  0.2073 -2.3851
   65SAPC   H2Y 5308   4.279   3.290   2.739  0.1147  0.4828  1.1201
   65SAPC   C23 5309   4.846   3.517   2.674 -0.3105 -0.4267 -0.0112
   65SAPC   H3R 5310   4.798   3.617   2.666 -2.5750 -1.3821  0.8179
   65SAPC   H3S 5311   4.949   3.531   2.713 -0.3025  0.9906 -0.4859
   65SAPC   C24 5312   4.753   3.449   2.770  0.2695  0.2652  0.3129
   65SAPC   H4R 5313   4.793   3.346   2.776  0.2483  0.1115 -1.5684
   65SAPC   H4S 5314   4.657   3.429   2.718  0.3186 -0.7401  0.5978
   65SAPC   C25 5315   4.723   3.505   2.910 -0.0657  0.2979 -0.1760
   65SAPC   H5R 5316   4.757   3.441   2.993 -2.7488 -2.9298 -1.3512
   65SAPC   C26 5317   4.684   3.624   2.939  0.4165 -0.1683  0.5123
   65SAPC   H6R 5318   4.672   3.647   3.046  1.6049  3.3752  0.0089
   65SAPC   C27 5319   4.650   3.739   2.848  0.0770  0.1657 -0.3420
   65SAPC   H7R 5320   4.554   3.770   2.896 -0.1889 -0.1102 -0.6884
   65SAPC   H7S 5321   4.635   3.709   2.742  0.5800  1.9097 -0.9337
   65SAPC   C28 5322   4.741   3.856   2.824  0.5921  1.2180 -0.0188
   65SAPC   H8R 5323   4.767   3.875   2.719  2.2747  1.0069  0.3228
   65SAPC   C29 5324   4.787   3.932   2.927 -0.7761  0.5952  0.1292
   65SAPC   H9R 5325   4.850   4.018   2.901  1.5053 -1.5643 -2.0966
   65SAPC  C210 5326   4.756   3.915   3.079 -0.3002 -0.3492  0.2390
   65SAPC  H10R 5327   4.812   3.825   3.114  0.7635  1.0343  2.3133
   65SAPC  H10S 5328   4.648   3.893   3.093 -0.4938 -0.4420 -1.2967
   65SAPC  C211 5329   4.767   4.038   3.167  0.0356 -1.1994  0.1933
   65SAPC  H11R 5330   4.691   4.112   3.139  0.2958 -0.3184  1.6937
   65SAPC  C212 5331   4.854   4.074   3.262 -0.8561 -0.0595 -0.6833
   65SAPC  H12R 5332   4.846   4.179   3.295 -0.9169  0.2748 -1.7233
   65SAPC  C213 5333   4.978   3.989   3.304 -0.4281 -0.8025  0.1485
   65SAPC  H13R 5334   5.073   4.020   3.255  0.3185 -1.0637  1.3530
   65SAPC  H13S 5335   4.972   3.891   3.252 -2.3461  0.8336 -2.9333
   65SAPC  C214 5336   4.990   3.977   3.456 -0.2110  0.3624 -0.2363
   65SAPC  H14R 5337   4.901   3.994   3.519 -1.0678 -3.2917 -0.2735
   65SAPC  C215 5338   5.099   3.932   3.526 -0.1856 -0.7574 -0.3333
   65SAPC  H15R 5339   5.083   3.935   3.635 -1.5980  0.9608 -0.5267
   65SAPC  C216 5340   5.235   3.906   3.471  0.3138  0.5186  0.4189
   65SAPC  H16R 5341   5.246   3.940   3.366  0.6337  2.6690  1.1069
   65SAPC  H16S 5342   5.256   3.797   3.467 -2.8085 -0.2990  2.4066
   65SAPC  C217 5343   5.354   3.970   3.545  0.7017  0.0163 -0.3985
   65SAPC  H17R 5344   5.374   3.926   3.645 -2.3165  1.0680  0.7685
   65SAPC  H17S 5345   5.351   4.079   3.566  1.9486  0.1457 -0.7592
   65SAPC  C218 5346   5.489   3.952   3.473  0.1874  0.2635 -0.3088
   65SAPC  H18R 5347   5.571   4.003   3.528 -0.8818  1.1995  0.4670
   65SAPC  H18S 5348   5.475   3.990   3.370 -1.4097  1.3566  0.2625
   65SAPC  C219 5349   5.530   3.800   3.476 -0.7495 -1.0329 -0.2083
   65SAPC  H19R 5350   5.460   3.734   3.420 -0.2365 -1.6658 -0.1095
   65SAPC  H19S 5351   5.525   3.783   3.586  0.4391  2.5708  0.5445
   65SAPC  C220 5352   5.670   3.790   3.421 -0.4954 -0.0966 -0.7014
   65SAPC  H20R 5353   5.744   3.815   3.500 -2.6226 -1.6862  1.9454
   65SAPC  H20S 5354   5.692   3.840   3.324 -1.8333 -2.2092 -2.1696
   65SAPC  H20T 5355   5.682   3.683   3.391 -0.4724 -0.1047 -0.6629
   65SAPC   C33 5356   4.203   3.485   2.680  0.0137  0.0217 -0.1130
   65SAPC   H3X 5357   4.113   3.448   2.626 -0.0432  1.6467 -1.1812
   65SAPC   H3Y 5358   4.230   3.581   2.630  2.0891 -0.9177 -0.9226
   65SAPC   C34 5359   4.164   3.508   2.826 -0.1148 -0.6287 -0.1321
   65SAPC   H4X 5360   4.150   3.411   2.880 -3.2279 -1.3288 -1.9787
   65SAPC   H4Y 5361   4.068   3.561   2.844  0.4038 -0.5391  2.8937
   65SAPC   C35 5362   4.267   3.598   2.894  0.0305  0.6658 -0.5140
   65SAPC   H5X 5363   4.291   3.692   2.839  1.7168  2.5509  3.0787
   65SAPC   H5Y 5364   4.359   3.539   2.912 -0.7813 -0.0777  1.4540
   65SAPC   C36 5365   4.233   3.647   3.040  0.0354 -0.4601  0.6494
   65SAPC   H6X 5366   4.198   3.565   3.106  3.4909 -1.3888  1.5159
   65SAPC   H6Y 5367   4.156   3.725   3.026 -0.8288 -1.5696 -1.1532
   65SAPC   C37 5368   4.354   3.725   3.109 -0.0106  0.0798 -0.2087
   65SAPC   H7X 5369   4.385   3.813   3.048  1.1567  0.7916  1.3398
   65SAPC   H7Y 5370   4.433   3.647   3.116 -0.3657 -0.1845  1.1093
   65SAPC   C38 5371   4.323   3.764   3.250 -0.0142 -0.4987  0.2912
   65SAPC   H8X 5372   4.303   3.672   3.309  1.0568 -2.1493 -1.7814
   65SAPC   H8Y 5373   4.236   3.832   3.263  0.1508 -0.7539  3.3193
   65SAPC   C39 5374   4.439   3.838   3.319  0.2919 -0.1390 -0.1337
   65SAPC   H9X 5375   4.470   3.927   3.260 -2.2949  1.5541  0.9117
   65SAPC   H9Y 5376   4.525   3.769   3.332 -1.1125 -1.6198  1.9916
   65SAPC  C310 5377   4.406   3.895   3.454  0.0569 -0.0230  0.0320
   65SAPC  H10X 5378   4.374   3.806   3.512 -1.9628  0.8866  0.3933
   65SAPC  H10Y 5379   4.326   3.971   3.470 -1.2265 -1.6794  2.0864
   65SAPC  C311 5380   4.534   3.931   3.541 -0.9499  0.0289  0.4251
   65SAPC  H11X 5381   4.561   4.037   3.521 -0.7305  0.2835  1.8966
   65SAPC  H11Y 5382   4.612   3.864   3.498  0.1803  2.0312 -0.7974
   65SAPC  C312 5383   4.511   3.901   3.695  0.2475 -0.1510  0.3881
   65SAPC  H12X 5384   4.489   3.792   3.705 -0.5570  0.0561  1.0118
   65SAPC  H12Y 5385   4.421   3.958   3.728 -0.5037 -0.6502 -0.7180
   65SAPC  C313 5386   4.632   3.939   3.786  0.1678  0.1505 -0.2191
   65SAPC  H13X 5387   4.655   4.047   3.796 -0.5845  0.3890 -0.9322
   65SAPC  H13Y 5388   4.721   3.886   3.745  1.2028  1.5894  0.0601
   65SAPC  C314 5389   4.621   3.883   3.929 -0.4496 -0.5027  0.0325
   65SAPC  H14X 5390   4.606   3.773   3.927 -1.5141 -0.4010  1.1845
   65SAPC  H14Y 5391   4.531   3.924   3.980 -0.2524  0.3515 -0.2905
   65SAPC  C315 5392   4.746   3.909   4.010  0.3284  0.0509 -0.3286
   65SAPC  H15X 5393   4.722   3.903   4.119 -0.8219 -1.6565 -0.6534
   65SAPC  H15Y 5394   4.787   4.012   3.999  2.6738 -0.5339  1.7846
   65SAPC  C316 5395   4.849   3.802   3.986  0.6698 -0.5020  0.1302
   65SAPC  H16X 5396   4.873   3.799   3.878 -2.3927 -0.8675 -0.6179
   65SAPC  H16Y 5397   4.828   3.695   4.007  1.6105 -0.3562  2.0794
   65SAPC  C317 5398   4.983   3.828   4.061 -0.1129 -0.6606 -1.0308
   65SAPC  H17X 5399   5.059   3.752   4.034  0.7665 -0.4438  0.6872
   65SAPC  H17Y 5400   4.972   3.816   4.171 -1.8301  3.5460 -0.5654
   65SAPC  C318 5401   5.037   3.968   4.039 -0.3543  0.0010 -0.1271
   65SAPC  H18X 5402   5.023   4.013   3.938  0.1425  1.4369  0.4148
   65SAPC  H18Y 5403   5.147   3.974   4.054 -0.5691  0.3531  1.5559
   65SAPC  H18Z 5404   4.985   4.032   4.114  0.9926  0.0011  0.8576
   66SAPC     N 5405   2.810   3.221   1.709 -0.3944 -0.3405  0.1882
   66SAPC   C12 5406   2.699   3.241   1.814 -0.6734 -0.5157  0.0992
   66SAPC  H12A 5407   2.687   3.151   1.873 -0.3597 -2.1028 -2.1422
   66SAPC  H12B 5408   2.606   3.254   1.761  0.4429  0.7648 -1.6269
   66SAPC   C13 5409   2.842   3.353   1.646 -0.3006  0.0106  0.2314
   66SAPC  H13A 5410   2.851   3.437   1.713  1.9098  0.0697 -0.0627
   66SAPC  H13B 5411   2.941   3.337   1.606 -0.2478  1.0414 -0.0836
   66SAPC  H13C 5412   2.779   3.380   1.562 -1.2574  1.8443  1.4800
   66SAPC   C14 5413   2.931   3.153   1.773 -0.5525  0.4255  0.3662
   66SAPC  H14A 5414   2.968   3.212   1.856 -0.2059 -0.3748  0.7896
   66SAPC  H14B 5415   2.902   3.058   1.816 -0.4755 -0.1761 -0.8848
   66SAPC  H14C 5416   3.009   3.133   1.702  0.6764 -1.4789  2.1328
   66SAPC   C15 5417   2.760   3.127   1.611  0.0641 -0.3074  0.0717
   66SAPC  H15A 5418   2.693   3.175   1.541 -0.6009  0.0946  0.9612
   66SAPC  H15B 5419   2.838   3.078   1.554  0.2534  0.3602 -0.2603
   66SAPC  H15C 5420   2.704   3.049   1.658  0.1855 -1.7380 -2.0104
   66SAPC   C11 5421   2.717   3.360   1.918  0.5560  0.5016 -0.1454
   66SAPC  H11A 5422   2.634   3.358   1.993 -0.1262  1.2836 -0.8729
   66SAPC  H11B 5423   2.719   3.452   1.856 -0.6538 -1.0496 -2.6241
   66SAPC     P 5424   2.914   3.471   2.043 -0.3738  0.4445 -0.2154
   66SAPC   O13 5425   3.053   3.423   2.075  0.1106  0.1343 -1.2496
   66SAPC   O14 5426   2.896   3.586   1.959  0.3650 -0.0120  0.2335
   66SAPC   O12 5427   2.838   3.346   1.983 -0.1737  0.3035 -1.0983
   66SAPC   O11 5428   2.827   3.501   2.170  0.0624 -0.3071 -0.3819
   66SAPC    C1 5429   2.832   3.404   2.280  0.2777 -0.0497  1.0029
   66SAPC    HA 5430   2.883   3.306   2.265  2.9190  1.1389  1.6818
   66SAPC    HB 5431   2.884   3.459   2.361  0.4994  1.3671 -0.0726
   66SAPC    C2 5432   2.698   3.363   2.333 -0.9220  0.2220  0.0705
   66SAPC    HS 5433   2.646   3.313   2.248 -0.8181 -0.6450  0.5016
   66SAPC   O21 5434   2.630   3.484   2.371  0.2659  0.0112 -0.1097
   66SAPC   C21 5435   2.506   3.478   2.400  1.0227 -0.0036  0.0718
   66SAPC   O22 5436   2.427   3.386   2.392  0.1334  0.1890  0.4439
   66SAPC   C22 5437   2.478   3.613   2.465  0.6534  0.0779 -0.0846
   66SAPC   H2R 5438   2.565   3.642   2.527  2.1364  1.9413 -2.8107
   66SAPC   H2S 5439   2.465   3.685   2.381  0.0766 -0.8015 -0.7727
   66SAPC    C3 5440   2.719   3.259   2.449  0.5147  0.1586 -0.5699
   66SAPC    HX 5441   2.772   3.170   2.407 -0.3716 -1.3413  1.3153
   66SAPC    HY 5442   2.624   3.218   2.491  2.1581 -2.0116  1.2920
   66SAPC   O31 5443   2.804   3.312   2.552 -0.2427  0.6743  0.4598
   66SAPC   C31 5444   2.748   3.343   2.662  0.3262 -0.0930 -0.3045
   66SAPC   O32 5445   2.630   3.342   2.692  0.3148  0.4110  0.2332
   66SAPC   C32 5446   2.860   3.383   2.757 -0.8833 -0.6539 -0.0312
   66SAPC   H2X 5447   2.942   3.432   2.701  0.2934 -1.5135  0.8721
   66SAPC   H2Y 5448   2.900   3.287   2.794 -1.1747  0.1142  2.4790
   66SAPC   C23 5449   2.347   3.615   2.552 -0.6073  0.2894  0.1619
   66SAPC   H3R 5450   2.353   3.543   2.637 -1.4108  2.6042  2.2829
   66SAPC   H3S 5451   2.261   3.584   2.490  0.1064 -3.1042  0.6409
   66SAPC   C24 5452   2.331   3.759   2.606 -0.7064  0.3175  0.1314
   66SAPC   H4R 5453   2.325   3.833   2.523  2.6406 -0.4769 -1.0031
   66SAPC   H4S 5454   2.423   3.788   2.663  0.4441 -2.4957 -0.1147
   66SAPC   C25 5455   2.218   3.778   2.698 -0.3676  1.2050 -0.0546
   66SAPC   H5R 5456   2.122   3.793   2.646 -0.2738  2.8373  0.2170
   66SAPC   C26 5457   2.213   3.761   2.833 -0.2523 -0.0350  0.8451
   66SAPC   H6R 5458   2.112   3.776   2.874 -1.0277  1.9063 -1.5195
   66SAPC   C27 5459   2.326   3.745   2.933  0.0726  0.4214  0.6187
   66SAPC   H7R 5460   2.304   3.828   3.004 -0.0184  2.6313 -1.8428
   66SAPC   H7S 5461   2.423   3.773   2.886 -0.2016  0.5478  0.1162
   66SAPC   C28 5462   2.320   3.610   2.998 -0.0310  0.6044  0.4816
   66SAPC   H8R 5463   2.332   3.520   2.935 -2.2941  0.1865  0.5601
   66SAPC   C29 5464   2.313   3.589   3.129  1.4553 -0.3673  0.9171
   66SAPC   H9R 5465   2.311   3.489   3.175  1.6649 -0.0664  1.5918
   66SAPC  C210 5466   2.295   3.701   3.229 -0.0675  0.3106  0.3648
   66SAPC  H10R 5467   2.190   3.735   3.213 -0.0433  0.8934  1.3908
   66SAPC  H10S 5468   2.372   3.779   3.211  1.6050 -1.1140  1.1412
   66SAPC  C211 5469   2.328   3.656   3.366 -0.4857 -0.4065 -0.4983
   66SAPC  H11R 5470   2.436   3.647   3.386 -0.6588 -4.4672 -0.6199
   66SAPC  C212 5471   2.251   3.659   3.479  0.4184  0.3360  0.0642
   66SAPC  H12R 5472   2.283   3.605   3.570 -1.8619 -1.8052 -0.3100
   66SAPC  C213 5473   2.111   3.704   3.495  0.3255 -0.2732  1.0780
   66SAPC  H13R 5474   2.096   3.791   3.427  0.1100  0.0362  1.5172
   66SAPC  H13S 5475   2.099   3.754   3.593 -2.9921 -2.1757  1.7981
   66SAPC  C214 5476   2.017   3.586   3.469  0.3604  0.6192 -0.4898
   66SAPC  H14R 5477   2.004   3.580   3.360  0.7030  1.4692 -0.5838
   66SAPC  C215 5478   1.949   3.522   3.566  0.7832  0.3053  0.3312
   66SAPC  H15R 5479   1.879   3.449   3.523  0.7743  1.7089 -2.2494
   66SAPC  C216 5480   1.956   3.537   3.722  0.0515  0.0402  0.5948
   66SAPC  H16R 5481   1.996   3.637   3.751  0.7698  0.1648 -0.7340
   66SAPC  H16S 5482   2.031   3.461   3.752 -1.3609 -2.4499 -1.7189
   66SAPC  C217 5483   1.828   3.517   3.788  0.3829  0.0274 -0.6109
   66SAPC  H17R 5484   1.789   3.414   3.776  1.5349 -0.2798 -1.9307
   66SAPC  H17S 5485   1.761   3.576   3.722 -0.1739 -0.9059 -0.8897
   66SAPC  C218 5486   1.808   3.583   3.929 -0.2240 -0.8764  0.0644
   66SAPC  H18R 5487   1.702   3.570   3.959 -0.2500  0.3271  0.5343
   66SAPC  H18S 5488   1.823   3.693   3.927 -0.0927 -0.8901  0.2124
   66SAPC  C219 5489   1.895   3.525   4.042  0.3263  0.4543  0.9525
   66SAPC  H19R 5490   2.003   3.540   4.023  0.7249 -1.7956  1.2170
   66SAPC  H19S 5491   1.888   3.414   4.046 -0.2257  0.5322  2.5561
   66SAPC  C220 5492   1.864   3.581   4.178 -0.0915 -0.8436  1.1259
   66SAPC  H20R 5493   1.782   3.530   4.234  1.0468 -2.2784  1.5391
   66SAPC  H20S 5494   1.843   3.690   4.175  0.9378 -0.6355  1.1463
   66SAPC  H20T 5495   1.954   3.574   4.243 -0.6106  1.8993  2.2561
   66SAPC   C33 5496   2.817   3.474   2.879 -0.7592  0.2118  0.0930
   66SAPC   H3X 5497   2.745   3.555   2.851  1.2506  2.2831  0.5970
   66SAPC   H3Y 5498   2.916   3.517   2.907 -0.8729  1.6324 -1.5174
   66SAPC   C34 5499   2.747   3.403   3.000 -0.1293  0.1333  0.2016
   66SAPC   H4X 5500   2.806   3.317   3.038  0.3230  0.8313  1.1146
   66SAPC   H4Y 5501   2.650   3.362   2.965  0.1755 -1.0255  0.6833
   66SAPC   C35 5502   2.711   3.499   3.112  0.3259 -0.3511 -0.3623
   66SAPC   H5X 5503   2.661   3.429   3.183 -0.4327 -0.1665 -0.7029
   66SAPC   H5Y 5504   2.651   3.580   3.065  0.5067 -0.8480 -1.4837
   66SAPC   C36 5505   2.829   3.571   3.178  0.3947 -0.4310  0.7727
   66SAPC   H6X 5506   2.795   3.616   3.274 -1.2388  0.9273 -0.3835
   66SAPC   H6Y 5507   2.842   3.654   3.105 -2.0457 -0.0229  0.7385
   66SAPC   C37 5508   2.955   3.482   3.196 -0.3870  0.5322 -0.2245
   66SAPC   H7X 5509   2.987   3.445   3.096  1.4607  0.2904  0.4294
   66SAPC   H7Y 5510   2.933   3.391   3.256  1.9046 -0.2729 -0.4837
   66SAPC   C38 5511   3.076   3.561   3.242  0.5719  0.2546  0.0828
   66SAPC   H8X 5512   3.073   3.663   3.199 -2.0983  0.9960  1.8259
   66SAPC   H8Y 5513   3.160   3.499   3.202 -0.3075  0.3486 -2.0381
   66SAPC   C39 5514   3.090   3.580   3.395 -0.0089  0.4922  0.3978
   66SAPC   H9X 5515   3.108   3.482   3.445 -0.5295 -0.1328 -0.5918
   66SAPC   H9Y 5516   2.985   3.600   3.423 -0.7769  0.3056 -2.1047
   66SAPC  C310 5517   3.173   3.705   3.429 -0.3642 -0.1078 -0.0828
   66SAPC  H10X 5518   3.115   3.790   3.388 -0.7509  0.0870  0.8463
   66SAPC  H10Y 5519   3.273   3.688   3.385 -1.1614 -3.4283 -0.9214
   66SAPC  C311 5520   3.172   3.706   3.584 -0.0119 -0.2606 -0.4445
   66SAPC  H11X 5521   3.274   3.687   3.625 -0.8147  2.9113  3.6814
   66SAPC  H11Y 5522   3.093   3.638   3.623  1.5582 -1.3653  0.9794
   66SAPC  C312 5523   3.136   3.845   3.637 -0.1800 -0.1849  0.9929
   66SAPC  H12X 5524   3.025   3.845   3.628 -0.1599 -0.5513  0.7304
   66SAPC  H12Y 5525   3.181   3.922   3.571 -1.4186 -1.4079 -1.4347
   66SAPC  C313 5526   3.165   3.879   3.781 -0.2598 -0.0760 -0.1180
   66SAPC  H13X 5527   3.276   3.876   3.789 -0.3258  0.0468  0.9913
   66SAPC  H13Y 5528   3.141   3.795   3.851  0.3506 -1.0395 -1.0281
   66SAPC  C314 5529   3.109   4.008   3.835  0.3078  0.3885 -0.6361
   66SAPC  H14X 5530   3.003   3.975   3.840  1.1676 -2.4465  1.8231
   66SAPC  H14Y 5531   3.119   4.093   3.763 -0.9234 -1.5123 -3.1987
   66SAPC  C315 5532   3.151   4.045   3.974 -0.2924 -0.2506 -0.5522
   66SAPC  H15X 5533   3.258   4.075   3.968 -0.1808 -0.3257  0.6785
   66SAPC  H15Y 5534   3.118   3.955   4.031  1.4292 -0.9408 -0.5941
   66SAPC  C316 5535   3.071   4.162   4.035 -1.0224 -0.5289  0.2596
   66SAPC  H16X 5536   3.095   4.176   4.143  1.7074  2.2723 -0.5381
   66SAPC  H16Y 5537   2.964   4.135   4.027 -0.9656 -0.5183 -0.6394
   66SAPC  C317 5538   3.097   4.293   3.963 -0.3306  0.0228  0.7570
   66SAPC  H17X 5539   3.043   4.290   3.866 -0.2091  0.2824  0.6797
   66SAPC  H17Y 5540   3.202   4.324   3.942  0.3561 -1.9340  1.0892
   66SAPC  C318 5541   3.030   4.407   4.043  0.6654 -0.5018  0.8586
   66SAPC  H18X 5542   3.089   4.416   4.137  1.6105 -1.4463  0.3731
   66SAPC  H18Y 5543   2.927   4.372   4.064  0.5544 -3.4522 -3.3476
   66SAPC  H18Z 5544   3.035   4.503   3.987  1.7457 -0.3319  1.2164
   67SAPC     N 5545   5.200   6.308   1.966  0.0549  0.9608 -0.3683
   67SAPC   C12 5546   5.291   6.418   2.017 -0.1975  0.2217  0.3201
   67SAPC  H12A 5547   5.243   6.460   2.104  0.1294  0.2142  0.5076
   67SAPC  H12B 5548   5.318   6.483   1.936  0.3206 -0.0822  0.2459
   67SAPC   C13 5549   5.155   6.212   2.067 -0.0373  0.3140 -1.0608
   67SAPC  H13A 5550   5.088   6.263   2.135 -0.2639  1.6725 -2.2419
   67SAPC  H13B 5551   5.091   6.142   2.014  0.2868 -0.2167 -0.7636
   67SAPC  H13C 5552   5.234   6.149   2.104 -1.0078 -0.8202 -0.8430
   67SAPC   C14 5553   5.075   6.370   1.907  0.2660  0.8049 -0.1279
   67SAPC  H14A 5554   5.015   6.424   1.979 -0.5643 -1.7759  1.2563
   67SAPC  H14B 5555   5.106   6.435   1.827  1.9477 -1.6426 -1.5985
   67SAPC  H14C 5556   5.020   6.295   1.852 -0.6645  1.3729 -0.0019
   67SAPC   C15 5557   5.263   6.241   1.852  0.0188 -0.2081 -0.1504
   67SAPC  H15A 5558   5.199   6.167   1.806  0.3666 -1.3432  1.0835
   67SAPC  H15B 5559   5.287   6.305   1.770 -1.1161  0.3978 -0.0203
   67SAPC  H15C 5560   5.360   6.199   1.874  1.4174  1.3103 -2.9617
   67SAPC   C11 5561   5.424   6.364   2.078 -0.0902 -0.2069  0.3009
   67SAPC  H11A 5562   5.406   6.258   2.106 -0.6467  0.2563  1.8244
   67SAPC  H11B 5563   5.453   6.421   2.169 -1.7367 -0.6475  1.1367
   67SAPC     P 5564   5.623   6.256   1.959 -0.4741 -0.2655  0.2244
   67SAPC   O13 5565   5.553   6.132   1.931  0.2285  0.7268  0.2873
   67SAPC   O14 5566   5.722   6.300   1.855  0.2779  0.1764 -0.6078
   67SAPC   O12 5567   5.518   6.365   1.970 -0.0674 -0.1671  0.0059
   67SAPC   O11 5568   5.689   6.236   2.098  0.2237 -0.3653 -0.2602
   67SAPC    C1 5569   5.763   6.332   2.171 -0.1191  0.4388  0.1728
   67SAPC    HA 5570   5.732   6.436   2.150 -2.0264  1.2077  5.3827
   67SAPC    HB 5571   5.748   6.327   2.281 -0.1677  1.7463  0.2379
   67SAPC    C2 5572   5.914   6.321   2.138 -0.2937 -0.0570  0.6886
   67SAPC    HS 5573   5.925   6.346   2.030 -0.3778  3.1733  1.3088
   67SAPC   O21 5574   5.966   6.191   2.172 -0.2770  0.4335  0.1815
   67SAPC   C21 5575   6.084   6.160   2.121  0.3761  0.0062 -0.3600
   67SAPC   O22 5576   6.149   6.232   2.046 -0.3159 -0.6174  0.0477
   67SAPC   C22 5577   6.107   6.009   2.168 -0.2198  0.6287  0.3645
   67SAPC   H2R 5578   6.008   5.958   2.158  0.3518 -0.8114  1.6566
   67SAPC   H2S 5579   6.177   5.962   2.096 -0.1378  0.8211  0.3185
   67SAPC    C3 5580   5.996   6.423   2.231  0.4760 -0.1063  0.3915
   67SAPC    HX 5581   5.964   6.528   2.215 -1.6544 -0.8257 -0.3583
   67SAPC    HY 5582   6.103   6.415   2.201 -0.1549 -0.5163 -1.9427
   67SAPC   O31 5583   5.964   6.391   2.367 -0.0070 -0.5274 -0.3689
   67SAPC   C31 5584   6.067   6.408   2.451 -0.2206  0.0723 -0.7432
   67SAPC   O32 5585   6.171   6.452   2.414 -0.5403  0.3210  0.0189
   67SAPC   C32 5586   6.022   6.371   2.597 -0.5539  0.2830  0.0397
   67SAPC   H2X 5587   5.979   6.269   2.590 -1.7050  0.7363  0.2868
   67SAPC   H2Y 5588   5.941   6.440   2.627 -1.2888 -0.0644 -1.0902
   67SAPC   C23 5589   6.164   5.985   2.305  0.4187 -0.0762  0.0230
   67SAPC   H3R 5590   6.123   6.067   2.367  0.8692  0.0344  0.1778
   67SAPC   H3S 5591   6.275   5.988   2.307  0.3988  0.7782  0.2095
   67SAPC   C24 5592   6.133   5.844   2.363 -0.6571  0.3222  0.4041
   67SAPC   H4R 5593   6.209   5.783   2.310  0.2963  1.4543  0.4288
   67SAPC   H4S 5594   6.033   5.813   2.325 -0.7446  2.5630 -1.4009
   67SAPC   C25 5595   6.151   5.812   2.506 -0.6186 -0.3423  0.0170
   67SAPC   H5R 5596   6.250   5.768   2.527 -0.3275 -0.3747 -1.2986
   67SAPC   C26 5597   6.072   5.849   2.608  0.0396 -0.0903  0.3107
   67SAPC   H6R 5598   6.104   5.816   2.708  0.2859  2.4560  1.1467
   67SAPC   C27 5599   5.953   5.929   2.599  1.3110 -0.0118 -0.6073
   67SAPC   H7R 5600   5.906   5.927   2.499 -2.6602 -1.6380  1.0863
   67SAPC   H7S 5601   5.969   6.038   2.612 -2.2211  0.5217  0.3461
   67SAPC   C28 5602   5.845   5.883   2.684 -0.5093 -0.5780 -0.4297
   67SAPC   H8R 5603   5.837   5.774   2.695  2.6840 -0.8317  0.4082
   67SAPC   C29 5604   5.763   5.961   2.751 -0.1823  0.7121  0.1327
   67SAPC   H9R 5605   5.692   5.900   2.810  0.4690  0.6899  0.9107
   67SAPC  C210 5606   5.733   6.105   2.758  0.0610  0.3433  0.6227
   67SAPC  H10R 5607   5.756   6.158   2.664  1.1564 -0.8818  0.1734
   67SAPC  H10S 5608   5.796   6.160   2.832 -1.4992  2.4128  0.4938
   67SAPC  C211 5609   5.595   6.138   2.790  0.1725 -1.0784 -0.0002
   67SAPC  H11R 5610   5.521   6.161   2.712 -0.5000  1.4006  1.2951
   67SAPC  C212 5611   5.538   6.148   2.908 -0.1767  0.0157  0.4281
   67SAPC  H12R 5612   5.432   6.178   2.903  0.2708  1.5529 -0.6586
   67SAPC  C213 5613   5.604   6.123   3.041  0.3206 -1.2217  1.3212
   67SAPC  H13R 5614   5.710   6.093   3.026  0.2030 -0.3161 -1.9388
   67SAPC  H13S 5615   5.552   6.043   3.098 -0.2597 -1.7713  0.0519
   67SAPC  C214 5616   5.620   6.248   3.121 -0.1602 -0.3676  0.9654
   67SAPC  H14R 5617   5.629   6.337   3.057 -0.5166 -0.9372  0.1047
   67SAPC  C215 5618   5.651   6.259   3.249  0.1794  0.0045  1.0960
   67SAPC  H15R 5619   5.662   6.362   3.286  0.8773  1.5191 -2.7744
   67SAPC  C216 5620   5.667   6.161   3.364  0.3699  0.2523  0.6325
   67SAPC  H16R 5621   5.774   6.134   3.384 -0.0880 -1.0134  1.5414
   67SAPC  H16S 5622   5.624   6.065   3.329  1.4485 -0.2650  0.6742
   67SAPC  C217 5623   5.601   6.203   3.493 -0.5449  0.2845 -0.1029
   67SAPC  H17R 5624   5.509   6.263   3.473 -1.8257 -1.5305  0.0819
   67SAPC  H17S 5625   5.675   6.272   3.539 -2.3506  1.4648  1.1551
   67SAPC  C218 5626   5.574   6.095   3.595  0.1948  0.3997  0.1334
   67SAPC  H18R 5627   5.669   6.041   3.617  1.3511  2.3561  0.1826
   67SAPC  H18S 5628   5.508   6.018   3.552  1.3584  0.2072 -1.3896
   67SAPC  C219 5629   5.528   6.129   3.732  0.3694 -0.1952 -0.9280
   67SAPC  H19R 5630   5.511   6.040   3.795 -0.6941  1.5508  1.3992
   67SAPC  H19S 5631   5.429   6.180   3.732 -0.6238 -1.8347  3.0480
   67SAPC  C220 5632   5.625   6.214   3.811 -0.4536  0.3583 -0.1712
   67SAPC  H20R 5633   5.710   6.148   3.839 -1.0772 -1.1346 -1.5691
   67SAPC  H20S 5634   5.568   6.255   3.897 -0.8470  2.0083 -1.1773
   67SAPC  H20T 5635   5.664   6.302   3.757 -0.3173 -0.7980 -2.0740
   67SAPC   C33 5636   6.145   6.389   2.692 -0.7574  0.0855 -0.8079
   67SAPC   H3X 5637   6.173   6.496   2.697 -0.2823 -0.0722  3.1799
   67SAPC   H3Y 5638   6.236   6.334   2.660  0.1727  0.9163  0.3155
   67SAPC   C34 5639   6.113   6.350   2.838  0.1108  0.3021  0.3315
   67SAPC   H4X 5640   6.019   6.408   2.854 -1.0055 -1.1200 -0.8900
   67SAPC   H4Y 5641   6.198   6.391   2.899  1.4241 -0.1661 -1.1233
   67SAPC   C35 5642   6.083   6.197   2.863 -0.0711  0.2161  0.8744
   67SAPC   H5X 5643   6.178   6.147   2.835 -2.4262 -4.0086 -0.5135
   67SAPC   H5Y 5644   6.006   6.151   2.796  0.7241 -0.6587  0.5330
   67SAPC   C36 5645   6.048   6.156   3.008 -0.0366  0.4663 -0.1347
   67SAPC   H6X 5646   5.947   6.188   3.040 -0.6533 -0.9328 -0.5959
   67SAPC   H6Y 5647   6.121   6.216   3.066  1.1195 -1.2463  0.2835
   67SAPC   C37 5648   6.058   6.003   3.048 -0.1819  0.0728 -0.1636
   67SAPC   H7X 5649   6.164   5.969   3.046  0.4023  1.8232 -0.8704
   67SAPC   H7Y 5650   5.993   5.941   2.982 -0.5418  1.3688 -1.0542
   67SAPC   C38 5651   6.005   5.986   3.188 -0.1887 -1.0540  0.0258
   67SAPC   H8X 5652   5.898   6.016   3.197 -0.0423 -1.1171  2.3612
   67SAPC   H8Y 5653   6.066   6.060   3.244  0.9232 -1.0167 -1.1833
   67SAPC   C39 5654   6.025   5.842   3.242 -0.3401  0.4937  0.4275
   67SAPC   H9X 5655   6.136   5.830   3.244 -0.4502 -1.4417 -1.6194
   67SAPC   H9Y 5656   5.989   5.779   3.158 -0.5270  0.6616  0.3806
   67SAPC  C310 5657   5.938   5.809   3.365 -0.9150 -0.4896 -0.6118
   67SAPC  H10X 5658   5.931   5.701   3.390 -0.3954 -0.1799  0.9718
   67SAPC  H10Y 5659   5.833   5.835   3.339 -2.3403 -3.4240  1.7032
   67SAPC  C311 5660   5.971   5.871   3.500 -0.2599  1.1103  0.0330
   67SAPC  H11X 5661   5.962   5.982   3.494 -2.4906  0.9199 -1.4585
   67SAPC  H11Y 5662   6.066   5.829   3.540 -0.0094 -1.1641 -2.6473
   67SAPC  C312 5663   5.881   5.818   3.617 -0.2408  0.0655  0.4554
   67SAPC  H12X 5664   5.790   5.791   3.559  0.3409  0.3812 -0.6423
   67SAPC  H12Y 5665   5.859   5.898   3.690  1.0197 -0.3424  1.3238
   67SAPC  C313 5666   5.933   5.695   3.690 -0.1916  0.2122 -0.0451
   67SAPC  H13X 5667   6.031   5.706   3.741 -1.2484 -0.8835  2.3766
   67SAPC  H13Y 5668   5.950   5.615   3.614  2.1318 -0.7742  1.4153
   67SAPC  C314 5669   5.831   5.641   3.789  0.4361 -0.3822 -0.2273
   67SAPC  H14X 5670   5.730   5.630   3.744 -0.4327 -0.0730  1.5372
   67SAPC  H14Y 5671   5.809   5.713   3.871 -0.2562  0.0550 -0.7816
   67SAPC  C315 5672   5.882   5.511   3.844 -0.5589  0.4082 -0.3837
   67SAPC  H15X 5673   5.907   5.446   3.758  2.4638  2.1606 -0.9803
   67SAPC  H15Y 5674   5.803   5.461   3.905  2.1618 -2.8226  0.7919
   67SAPC  C316 5675   6.016   5.536   3.919 -0.4527 -0.5099  0.0819
   67SAPC  H16X 5676   6.011   5.626   3.985  0.9118  0.2290 -0.7646
   67SAPC  H16Y 5677   6.096   5.552   3.844 -0.1101 -0.3657  0.4710
   67SAPC  C317 5678   6.060   5.422   4.008  0.4062 -0.4148  0.2754
   67SAPC  H17X 5679   6.164   5.435   4.044  0.4067  0.1049  0.0889
   67SAPC  H17Y 5680   6.067   5.336   3.938  1.1297  1.4656 -2.0957
   67SAPC  C318 5681   5.968   5.380   4.121  0.0842 -0.0085  0.4585
   67SAPC  H18X 5682   5.873   5.342   4.078 -0.7245  0.8243  1.4557
   67SAPC  H18Y 5683   5.939   5.466   4.186  0.5205  1.2702 -0.9669
   67SAPC  H18Z 5684   6.008   5.293   4.178  0.3280 -0.6580 -0.6695
   68SAPC     N 5685   1.635   3.043   2.379 -0.9204  0.1369  0.3785
   68SAPC   C12 5686   1.534   3.119   2.466 -0.4207  0.5732  0.1828
   68SAPC  H12A 5687   1.482   3.195   2.410 -3.1508  2.1456  4.3983
   68SAPC  H12B 5688   1.587   3.174   2.543 -1.6253 -0.7103  2.0252
   68SAPC   C13 5689   1.741   2.966   2.452  0.2210  0.2472 -0.4058
   68SAPC  H13A 5690   1.802   3.019   2.524  0.2077 -0.7414  0.3580
   68SAPC  H13B 5691   1.695   2.893   2.518  0.7967  0.8220  0.6694
   68SAPC  H13C 5692   1.808   2.916   2.385  0.2568 -1.2826  0.7267
   68SAPC   C14 5693   1.565   2.945   2.285  0.2071 -0.3896 -0.8935
   68SAPC  H14A 5694   1.486   3.001   2.237 -0.0231  0.0874  0.0114
   68SAPC  H14B 5695   1.628   2.890   2.217  1.1815 -0.8475  0.3451
   68SAPC  H14C 5696   1.506   2.868   2.334  0.9643 -1.2689 -1.3336
   68SAPC   C15 5697   1.710   3.145   2.296 -0.1533  0.2623 -0.1867
   68SAPC  H15A 5698   1.758   3.221   2.356  2.4037 -0.2234 -1.4730
   68SAPC  H15B 5699   1.790   3.092   2.247  0.2326  1.1652 -0.5638
   68SAPC  H15C 5700   1.648   3.186   2.218  1.0171  0.5708 -0.9962
   68SAPC   C11 5701   1.428   3.033   2.537 -0.2477 -0.3606  0.6903
   68SAPC  H11A 5702   1.409   3.074   2.638 -1.2334 -1.0897  0.8086
   68SAPC  H11B 5703   1.463   2.929   2.553 -0.9258 -0.9984 -1.5469
   68SAPC     P 5704   1.217   3.145   2.440 -0.2244 -0.0021  0.2176
   68SAPC   O13 5705   1.304   3.272   2.421 -0.0973  0.3099 -0.2289
   68SAPC   O14 5706   1.137   3.109   2.320  0.1840  0.1388  0.2143
   68SAPC   O12 5707   1.312   3.019   2.461  0.1379 -0.1834 -0.0469
   68SAPC   O11 5708   1.130   3.139   2.572  0.0067  0.1223 -0.1421
   68SAPC    C1 5709   1.100   3.021   2.650  0.9539 -0.3962 -0.8318
   68SAPC    HA 5710   1.148   2.932   2.604 -1.4348 -1.4988 -1.3090
   68SAPC    HB 5711   1.142   3.034   2.753 -0.3636  1.0559 -0.4543
   68SAPC    C2 5712   0.947   2.994   2.647 -0.6545 -0.4239 -0.4566
   68SAPC    HS 5713   0.913   2.987   2.541 -0.4225  2.0333 -0.7564
   68SAPC   O21 5714   0.878   3.105   2.715 -0.1371 -0.0481  0.0581
   68SAPC   C21 5715   0.749   3.102   2.710 -0.2578  0.6947 -0.4849
   68SAPC   O22 5716   0.681   3.025   2.644 -0.1091 -0.5940 -0.7176
   68SAPC   C22 5717   0.693   3.217   2.802 -0.4241  0.3610 -0.6931
   68SAPC   H2R 5718   0.704   3.175   2.905  0.3250 -0.2988 -1.0300
   68SAPC   H2S 5719   0.754   3.308   2.782 -1.0264  0.9393  0.0227
   68SAPC    C3 5720   0.913   2.857   2.720  0.1746  0.0569 -0.3031
   68SAPC    HX 5721   0.933   2.774   2.649 -1.3627 -0.0999 -0.5873
   68SAPC    HY 5722   0.803   2.853   2.735  0.2300  0.4159  0.2784
   68SAPC   O31 5723   0.979   2.834   2.843 -0.0890  0.1600  0.4141
   68SAPC   C31 5724   0.923   2.892   2.951  0.7618  0.1418 -0.7171
   68SAPC   O32 5725   0.827   2.968   2.946 -0.0803  0.4631 -0.5593
   68SAPC   C32 5726   0.992   2.847   3.075  0.0034  0.2707 -0.0361
   68SAPC   H2X 5727   1.093   2.893   3.075 -0.2370  1.0995  3.3224
   68SAPC   H2Y 5728   1.004   2.737   3.077  1.0707  0.3197  3.4726
   68SAPC   C23 5729   0.544   3.233   2.777 -0.5110 -0.7770 -0.0393
   68SAPC   H3R 5730   0.496   3.141   2.816 -3.9241  1.5831  1.9385
   68SAPC   H3S 5731   0.532   3.228   2.667  1.1636 -3.1743 -0.1811
   68SAPC   C24 5732   0.479   3.353   2.841  0.0681  0.2036  0.3182
   68SAPC   H4R 5733   0.550   3.438   2.846  1.5442 -1.0083  0.6600
   68SAPC   H4S 5734   0.452   3.324   2.945 -1.5837  0.2767 -0.0666
   68SAPC   C25 5735   0.352   3.384   2.760 -0.5203 -0.2981  0.3436
   68SAPC   H5R 5736   0.289   3.295   2.762  1.0558 -1.4699 -0.0409
   68SAPC   C26 5737   0.331   3.492   2.681 -0.0197 -0.1346  0.1079
   68SAPC   H6R 5738   0.232   3.514   2.637  1.4043 -0.3518 -3.5207
   68SAPC   C27 5739   0.431   3.607   2.677  0.4796 -0.0175  0.1385
   68SAPC   H7R 5740   0.518   3.574   2.617 -0.7127 -0.4911 -1.3930
   68SAPC   H7S 5741   0.483   3.633   2.771  1.0762  0.5253 -0.3325
   68SAPC   C28 5742   0.377   3.732   2.602  0.2488 -0.1168 -0.0399
   68SAPC   H8R 5743   0.375   3.722   2.493 -0.0779  1.0632 -0.1600
   68SAPC   C29 5744   0.326   3.842   2.664  0.0812 -0.1450 -0.1236
   68SAPC   H9R 5745   0.280   3.923   2.606 -0.7489  2.3062  3.6027
   68SAPC  C210 5746   0.329   3.861   2.815 -0.0392  0.0187 -0.1616
   68SAPC  H10R 5747   0.287   3.960   2.841 -1.8554 -0.8495  0.4109
   68SAPC  H10S 5748   0.434   3.849   2.848 -0.0898 -1.4762 -0.4484
   68SAPC  C211 5749   0.258   3.757   2.890  0.4874 -0.0895 -0.2739
   68SAPC  H11R 5750   0.196   3.688   2.830  0.4334  1.4538 -2.0703
   68SAPC  C212 5751   0.250   3.740   3.023  0.4191 -0.3556 -0.0825
   68SAPC  H12R 5752   0.189   3.653   3.054 -0.8469  0.3365 -0.5561
   68SAPC  C213 5753   0.303   3.829   3.124 -0.6194  0.3797 -0.6070
   68SAPC  H13R 5754   0.312   3.933   3.085  0.7449  0.4866 -0.0727
   68SAPC  H13S 5755   0.407   3.795   3.141 -0.9256 -0.8100 -1.0201
   68SAPC  C214 5756   0.230   3.816   3.255  0.5432 -0.6530  0.4876
   68SAPC  H14R 5757   0.145   3.886   3.259 -2.3218 -3.9342  2.0242
   68SAPC  C215 5758   0.270   3.760   3.366 -0.1189 -0.3647 -0.3175
   68SAPC  H15R 5759   0.209   3.777   3.456  2.1478  2.2379  0.8699
   68SAPC  C216 5760   0.398   3.686   3.383 -0.7384  0.5483 -0.3235
   68SAPC  H16R 5761   0.460   3.675   3.292 -0.5279  0.9482 -0.2302
   68SAPC  H16S 5762   0.382   3.578   3.406 -0.9448  0.4335 -1.0026
   68SAPC  C217 5763   0.477   3.751   3.501  0.7647 -0.2155  1.0240
   68SAPC  H17R 5764   0.418   3.748   3.594  0.3144  1.0968  0.8045
   68SAPC  H17S 5765   0.497   3.858   3.479 -1.9505  0.0826 -0.4194
   68SAPC  C218 5766   0.617   3.686   3.525 -0.0451  0.1868  0.2830
   68SAPC  H18R 5767   0.613   3.581   3.562  0.6406  0.7412  1.9929
   68SAPC  H18S 5768   0.667   3.729   3.614  0.6645 -1.6377  0.8315
   68SAPC  C219 5769   0.717   3.677   3.409 -0.6084  0.0264 -0.3849
   68SAPC  H19R 5770   0.747   3.775   3.364  2.1112 -1.0887 -1.2734
   68SAPC  H19S 5771   0.679   3.611   3.327 -1.1065  0.6815 -0.6907
   68SAPC  C220 5772   0.854   3.619   3.459  0.3779 -0.4955  0.3577
   68SAPC  H20R 5773   0.924   3.597   3.375  0.9368 -4.1941  1.5777
   68SAPC  H20S 5774   0.830   3.519   3.502 -0.7482  0.4502  2.0132
   68SAPC  H20T 5775   0.913   3.675   3.535 -3.0397  3.2120  0.5651
   68SAPC   C33 5776   0.921   2.898   3.208 -0.1085 -0.5199 -0.1566
   68SAPC   H3X 5777   0.832   2.838   3.237 -0.3907 -0.4578 -0.8788
   68SAPC   H3Y 5778   0.896   3.005   3.199  0.8455 -0.3847 -1.4489
   68SAPC   C34 5779   1.009   2.886   3.332  0.0308 -0.4988 -0.6459
   68SAPC   H4X 5780   0.945   2.917   3.417  0.8143 -0.2757 -0.1264
   68SAPC   H4Y 5781   1.091   2.956   3.303  0.5648 -1.6140 -1.9338
   68SAPC   C35 5782   1.069   2.751   3.351  0.3155 -0.1306  0.3308
   68SAPC   H5X 5783   1.153   2.752   3.424 -0.0733  0.6098  0.7793
   68SAPC   H5Y 5784   1.110   2.700   3.262  0.9484 -1.8619  1.5687
   68SAPC   C36 5785   0.966   2.641   3.415 -0.6349  0.3207 -0.4484
   68SAPC   H6X 5786   0.883   2.630   3.342 -1.1416  2.0305 -0.1842
   68SAPC   H6Y 5787   0.923   2.685   3.507  1.1901 -1.2695  1.2647
   68SAPC   C37 5788   1.021   2.495   3.440 -0.0564 -0.3424  0.2078
   68SAPC   H7X 5789   1.067   2.453   3.348  0.5498 -0.9734  0.7856
   68SAPC   H7Y 5790   0.928   2.434   3.445  0.3049 -0.8677  0.6354
   68SAPC   C38 5791   1.109   2.480   3.561 -0.6070  0.7165  1.0296
   68SAPC   H8X 5792   1.064   2.510   3.658  0.5889 -1.8936  2.4890
   68SAPC   H8Y 5793   1.203   2.538   3.545  1.7517 -2.7069  1.3359
   68SAPC   C39 5794   1.149   2.334   3.570 -0.3204 -0.2099  0.3964
   68SAPC   H9X 5795   1.193   2.296   3.476 -1.0786 -0.7760  0.2619
   68SAPC   H9Y 5796   1.051   2.285   3.590 -1.4036  1.9322  0.5919
   68SAPC  C310 5797   1.244   2.321   3.680  0.0755  0.9928  0.0537
   68SAPC  H10X 5798   1.183   2.338   3.771 -2.1953  0.5341 -1.3239
   68SAPC  H10Y 5799   1.329   2.393   3.676 -0.2921  1.3794 -1.4732
   68SAPC  C311 5800   1.295   2.177   3.699 -0.3291 -0.2979 -0.1857
   68SAPC  H11X 5801   1.378   2.182   3.773 -1.0323  2.0626  0.5544
   68SAPC  H11Y 5802   1.331   2.129   3.606  1.5093 -2.9623  1.7811
   68SAPC  C312 5803   1.189   2.076   3.744 -0.0981 -0.6586 -0.3275
   68SAPC  H12X 5804   1.112   2.050   3.668 -2.6055  2.1655  1.0124
   68SAPC  H12Y 5805   1.127   2.132   3.818 -1.0706 -1.5761 -0.4270
   68SAPC  C313 5806   1.247   1.951   3.807  1.3810 -0.0002  0.5175
   68SAPC  H13X 5807   1.321   1.996   3.877  1.2409  0.2528  0.5066
   68SAPC  H13Y 5808   1.310   1.896   3.734  1.8731  1.0337  0.1379
   68SAPC  C314 5809   1.157   1.850   3.883  0.1238  0.6167  0.6371
   68SAPC  H14X 5810   1.088   1.807   3.808  0.6347  1.4806 -0.3586
   68SAPC  H14Y 5811   1.103   1.903   3.963  0.9809  1.6321  0.5715
   68SAPC  C315 5812   1.242   1.746   3.951 -0.7823 -0.8231  0.1931
   68SAPC  H15X 5813   1.315   1.780   4.028  1.7246 -2.8739 -1.1140
   68SAPC  H15Y 5814   1.307   1.699   3.874  0.5210  0.6660  0.3263
   68SAPC  C316 5815   1.155   1.632   4.016  0.0179 -0.0741  0.6822
   68SAPC  H16X 5816   1.072   1.617   3.944 -0.6077  2.4122  0.8071
   68SAPC  H16Y 5817   1.116   1.674   4.112  1.1942  2.1047  0.2739
   68SAPC  C317 5818   1.233   1.499   4.040  0.0943 -0.5017 -0.0225
   68SAPC  H17X 5819   1.339   1.528   4.059 -0.4840  2.2022 -0.4360
   68SAPC  H17Y 5820   1.245   1.437   3.949  2.2128  2.0121 -1.6252
   68SAPC  C318 5821   1.164   1.411   4.153 -0.2346 -0.8191 -0.5727
   68SAPC  H18X 5822   1.090   1.360   4.088 -1.3556  0.6100 -0.4588
   68SAPC  H18Y 5823   1.126   1.464   4.243 -0.9296 -0.4897 -1.0499
   68SAPC  H18Z 5824   1.229   1.329   4.191  1.3140  0.6281  0.0350
   69SAPC     N 5825   6.116   4.986   1.944 -0.4100 -0.1150  0.5029
   69SAPC   C12 5826   6.195   4.879   2.021  0.2319 -0.4033 -0.0757
   69SAPC  H12A 5827   6.298   4.876   1.989  0.9683 -1.6364  2.1576
   69SAPC  H12B 5828   6.157   4.783   1.989 -0.1773 -0.1008 -0.5114
   69SAPC   C13 5829   6.160   5.127   1.967  0.2297 -0.3582  0.0524
   69SAPC  H13A 5830   6.172   5.149   2.072 -1.2774  0.7014  0.0349
   69SAPC  H13B 5831   6.257   5.139   1.919  0.7927 -0.7288  1.0761
   69SAPC  H13C 5832   6.087   5.195   1.925  0.4198 -1.1090 -1.5963
   69SAPC   C14 5833   6.134   4.964   1.798 -0.6605  0.1791  0.1701
   69SAPC  H14A 5834   6.113   4.863   1.765  3.9715 -2.1713  3.3740
   69SAPC  H14B 5835   6.062   5.022   1.741 -0.7417 -0.9430 -0.9096
   69SAPC  H14C 5836   6.229   4.992   1.755 -1.7967  0.7801 -2.1784
   69SAPC   C15 5837   5.971   4.964   1.963 -0.1857 -0.0212  0.0526
   69SAPC  H15A 5838   5.933   4.875   1.916  0.8491  0.7122 -2.3238
   69SAPC  H15B 5839   5.955   4.961   2.070 -0.0927 -0.3720  0.0579
   69SAPC  H15C 5840   5.917   5.049   1.923  1.1094  0.4780 -0.7095
   69SAPC   C11 5841   6.189   4.878   2.174  0.0087  0.1492  0.3473
   69SAPC  H11A 5842   6.216   4.984   2.195 -1.9082  1.1201 -1.6250
   69SAPC  H11B 5843   6.266   4.809   2.215 -0.5880 -0.5364  0.3343
   69SAPC     P 5844   6.015   4.700   2.241  0.1373  0.1184 -0.0954
   69SAPC   O13 5845   6.023   4.639   2.104  0.2576  0.0025  0.0784
   69SAPC   O14 5846   6.094   4.631   2.345  0.3923 -0.0883 -0.5910
   69SAPC   O12 5847   6.059   4.854   2.227  0.1576 -0.4157 -0.3353
   69SAPC   O11 5848   5.859   4.702   2.269  0.2461 -0.8253 -0.3208
   69SAPC    C1 5849   5.819   4.817   2.350 -0.3202 -0.0849  0.1499
   69SAPC    HA 5850   5.844   4.912   2.298  1.7448 -0.9221 -0.4632
   69SAPC    HB 5851   5.708   4.809   2.355 -0.3370  0.2425  0.3946
   69SAPC    C2 5852   5.866   4.820   2.499  0.2071  0.6410  0.1729
   69SAPC    HS 5853   5.976   4.833   2.497  0.5463 -1.8438 -1.3481
   69SAPC   O21 5854   5.829   4.701   2.566  0.8324 -0.1509  0.5914
   69SAPC   C21 5855   5.908   4.661   2.658 -0.2904 -0.7505  0.4035
   69SAPC   O22 5856   6.014   4.713   2.696 -0.5902 -0.1769 -0.0303
   69SAPC   C22 5857   5.858   4.532   2.720 -0.5074  0.3767  0.0561
   69SAPC   H2R 5858   5.748   4.526   2.713 -0.6954  0.9624  2.0618
   69SAPC   H2S 5859   5.899   4.449   2.658 -1.2269  0.4640 -0.5440
   69SAPC    C3 5860   5.798   4.939   2.583  0.0721  0.0601  0.3230
   69SAPC    HX 5861   5.696   4.899   2.599  0.4617 -0.1364  2.7245
   69SAPC    HY 5862   5.791   5.030   2.519  1.1127 -0.9965 -1.3699
   69SAPC   O31 5863   5.868   4.968   2.706  0.3973  0.2697  0.0260
   69SAPC   C31 5864   5.983   5.038   2.691  0.7117 -0.7101  0.3627
   69SAPC   O32 5865   6.030   5.065   2.581 -0.2770  0.5288  0.3300
   69SAPC   C32 5866   6.056   5.069   2.819 -0.3326  0.0026  0.1854
   69SAPC   H2X 5867   6.117   5.161   2.809  0.9255 -0.6703  1.2304
   69SAPC   H2Y 5868   6.136   4.992   2.822  0.4540  0.8274  1.8772
   69SAPC   C23 5869   5.907   4.497   2.865  0.2470  0.0616 -0.5299
   69SAPC   H3R 5870   6.018   4.493   2.862  0.5006  3.5219 -0.1212
   69SAPC   H3S 5871   5.878   4.395   2.898 -3.7028  0.0847 -3.3104
   69SAPC   C24 5872   5.860   4.604   2.966 -0.4314  0.2528 -0.0042
   69SAPC   H4R 5873   5.749   4.603   2.957 -0.5816 -0.8494  1.5336
   69SAPC   H4S 5874   5.899   4.704   2.937  2.4189 -0.8191 -0.1204
   69SAPC   C25 5875   5.901   4.575   3.109 -0.8313  0.2880  0.6018
   69SAPC   H5R 5876   5.967   4.490   3.130  0.2175  1.3119  1.5630
   69SAPC   C26 5877   5.860   4.639   3.219  1.4836  0.2576  0.1911
   69SAPC   H6R 5878   5.902   4.601   3.313 -0.1032 -1.1690  0.3645
   69SAPC   C27 5879   5.763   4.752   3.225 -0.0351 -1.1023 -0.1710
   69SAPC   H7R 5880   5.658   4.727   3.200 -0.5260  1.4277 -0.8607
   69SAPC   H7S 5881   5.777   4.832   3.150  0.3269  1.0024  2.0132
   69SAPC   C28 5882   5.773   4.826   3.352 -0.1841  0.2743 -0.3097
   69SAPC   H8R 5883   5.862   4.890   3.364 -0.6072  0.6899  0.7185
   69SAPC   C29 5884   5.689   4.823   3.455  0.4515  0.2377  0.2291
   69SAPC   H9R 5885   5.712   4.881   3.546 -2.5808  2.0547 -0.0409
   69SAPC  C210 5886   5.559   4.742   3.458 -0.4890 -0.2333 -0.4192
   69SAPC  H10R 5887   5.574   4.640   3.417  0.2259 -0.0629 -0.6015
   69SAPC  H10S 5888   5.486   4.795   3.394  1.4214 -0.6277 -3.0999
   69SAPC  C211 5889   5.497   4.725   3.599 -0.4003 -0.5608 -0.5934
   69SAPC  H11R 5890   5.511   4.622   3.636  2.3719  0.3553  1.1974
   69SAPC  C212 5891   5.450   4.821   3.682 -0.5098 -0.1884 -0.6054
   69SAPC  H12R 5892   5.405   4.798   3.779 -2.8234  2.0695 -1.0318
   69SAPC  C213 5893   5.421   4.961   3.621 -0.4886  0.4944 -0.2111
   69SAPC  H13R 5894   5.469   4.966   3.521  2.5592 -1.0378  1.0355
   69SAPC  H13S 5895   5.463   5.045   3.680  1.3182  0.4802 -1.4102
   69SAPC  C214 5896   5.275   4.980   3.605 -0.1674 -0.2159 -0.3715
   69SAPC  H14R 5897   5.226   4.933   3.518 -0.5577  1.2213 -0.9470
   69SAPC  C215 5898   5.195   5.046   3.685  0.2516  0.0429  0.2720
   69SAPC  H15R 5899   5.092   5.064   3.650  0.6169  1.2067 -0.2186
   69SAPC  C216 5900   5.239   5.115   3.812  0.0809  0.3434  0.0842
   69SAPC  H16R 5901   5.336   5.081   3.856  0.0437  0.4136  0.2223
   69SAPC  H16S 5902   5.161   5.091   3.888 -0.3065 -0.9111 -0.6677
   69SAPC  C217 5903   5.226   5.265   3.805 -0.2332 -0.3624  0.0913
   69SAPC  H17R 5904   5.312   5.309   3.751  1.0718 -1.3643  1.2792
   69SAPC  H17S 5905   5.237   5.316   3.903  0.4854 -1.4622  0.6073
   69SAPC  C218 5906   5.095   5.316   3.747 -0.3242 -0.0256  0.0161
   69SAPC  H18R 5907   5.015   5.239   3.751  1.3783 -1.8853  0.5602
   69SAPC  H18S 5908   5.121   5.327   3.640 -0.0306 -2.0862 -0.1648
   69SAPC  C219 5909   5.049   5.447   3.811 -0.4042  0.2738 -0.0387
   69SAPC  H19R 5910   5.126   5.527   3.818 -1.6336  1.4688  0.2699
   69SAPC  H19S 5911   5.007   5.420   3.911  1.2132  0.3633  0.7004
   69SAPC  C220 5912   4.932   5.514   3.736 -0.2090  0.3827  0.5484
   69SAPC  H20R 5913   4.981   5.547   3.642  1.2810 -0.2946  1.0675
   69SAPC  H20S 5914   4.902   5.603   3.796 -0.2615  1.2207 -0.6815
   69SAPC  H20T 5915   4.851   5.442   3.711  1.9312 -2.2558  0.7469
   69SAPC   C33 5916   5.983   5.063   2.955 -0.1637 -0.0000  0.6225
   69SAPC   H3X 5917   5.922   4.971   2.960 -0.0487 -0.0990  0.1885
   69SAPC   H3Y 5918   5.916   5.151   2.947 -0.7108 -0.4179  0.5955
   69SAPC   C34 5919   6.080   5.069   3.077 -0.4260  0.3135  0.7336
   69SAPC   H4X 5920   6.022   5.074   3.172  1.5902 -1.8546  2.1977
   69SAPC   H4Y 5921   6.150   5.156   3.078  1.6919 -1.2514  3.5251
   69SAPC   C35 5922   6.157   4.938   3.095  0.3922 -0.0763 -0.0131
   69SAPC   H5X 5923   6.195   4.894   3.000 -1.8170  0.4879 -1.2048
   69SAPC   H5Y 5924   6.092   4.859   3.137 -0.4537  1.7836  2.4189
   69SAPC   C36 5925   6.273   4.962   3.200 -0.2993  0.6587  0.3212
   69SAPC   H6X 5926   6.325   5.056   3.171  1.0095 -0.3044 -0.5628
   69SAPC   H6Y 5927   6.346   4.879   3.193 -0.9645  0.0143  0.8999
   69SAPC   C37 5928   6.216   4.985   3.338  0.9535  0.5239 -0.2508
   69SAPC   H7X 5929   6.132   4.916   3.362  1.7267  0.1261  1.4767
   69SAPC   H7Y 5930   6.175   5.088   3.340 -1.2826 -0.3224  0.0441
   69SAPC   C38 5931   6.316   4.962   3.453 -0.0146 -0.4809  0.8093
   69SAPC   H8X 5932   6.360   5.059   3.486 -0.4209  0.7635 -2.0834
   69SAPC   H8Y 5933   6.397   4.894   3.417 -2.0781 -2.1209 -1.0291
   69SAPC   C39 5934   6.257   4.894   3.577  0.4323 -0.0924  0.3978
   69SAPC   H9X 5935   6.232   4.787   3.564  0.8441 -0.7495  4.0499
   69SAPC   H9Y 5936   6.165   4.952   3.603  0.5399  0.2290  0.0677
   69SAPC  C310 5937   6.346   4.907   3.704  0.0359  0.3944 -0.1477
   69SAPC  H10X 5938   6.392   5.007   3.705 -1.4042  1.1208  2.1418
   69SAPC  H10Y 5939   6.435   4.840   3.698 -0.1521  0.1502 -0.2798
   69SAPC  C311 5940   6.274   4.881   3.837  0.3142 -0.6406  0.0218
   69SAPC  H11X 5941   6.234   4.777   3.833  0.6198 -0.8897  1.9977
   69SAPC  H11Y 5942   6.192   4.955   3.839  0.5709 -0.3593  1.0992
   69SAPC  C312 5943   6.357   4.889   3.965  0.5004  0.3629 -0.1621
   69SAPC  H12X 5944   6.295   4.880   4.056  0.0652  0.2595 -0.4683
   69SAPC  H12Y 5945   6.409   4.987   3.977  0.6228  0.3320 -0.4310
   69SAPC  C313 5946   6.464   4.779   3.970 -0.1839 -0.0481 -0.7786
   69SAPC  H13X 5947   6.533   4.826   3.896 -1.0418  1.6665 -0.5472
   69SAPC  H13Y 5948   6.442   4.680   3.926  2.5569 -0.5542 -1.2099
   69SAPC  C314 5949   6.524   4.776   4.112 -0.2387  0.0284 -0.7234
   69SAPC  H14X 5950   6.435   4.772   4.178  0.5615 -0.8085  0.3299
   69SAPC  H14Y 5951   6.576   4.871   4.136  0.6032 -0.5894 -0.0607
   69SAPC  C315 5952   6.613   4.655   4.138  0.2053  0.3103  0.0905
   69SAPC  H15X 5953   6.702   4.663   4.073 -1.0194  0.5035 -1.6528
   69SAPC  H15Y 5954   6.564   4.560   4.108 -0.8243  0.9159 -0.1934
   69SAPC  C316 5955   6.646   4.637   4.283 -0.0345 -0.5646  0.2970
   69SAPC  H16X 5956   6.561   4.578   4.323 -0.9343  0.3038 -0.2855
   69SAPC  H16Y 5957   6.645   4.728   4.347  0.9144 -0.5685  0.3279
   69SAPC  C317 5958   6.768   4.550   4.300 -0.5564 -0.6920 -0.3166
   69SAPC  H17X 5959   6.857   4.617   4.301 -1.2011  0.1912  0.2351
   69SAPC  H17Y 5960   6.787   4.477   4.220 -0.2984 -1.2530  0.2498
   69SAPC  C318 5961   6.769   4.470   4.430 -0.2421  0.1228 -0.2423
   69SAPC  H18X 5962   6.721   4.528   4.512  0.3351  0.8183 -0.3841
   69SAPC  H18Y 5963   6.873   4.440   4.452 -0.1809  1.9396  2.4638
   69SAPC  H18Z 5964   6.717   4.374   4.411 -0.8689  0.0014  1.8163
   70SAPC     N 5965   3.474   4.618   1.516 -0.3152  0.3680 -0.2848
   70SAPC   C12 5966   3.396   4.678   1.630  0.4929 -0.8276  0.7394
   70SAPC  H12A 5967   3.293   4.647   1.621  0.2375 -0.0716  0.9796
   70SAPC  H12B 5968   3.385   4.785   1.615 -0.4536 -0.8366  1.3096
   70SAPC   C13 5969   3.470   4.469   1.547 -0.3539 -0.0338  1.1053
   70SAPC  H13A 5970   3.496   4.459   1.651  1.8609 -1.5308  0.4650
   70SAPC  H13B 5971   3.366   4.440   1.555 -0.3715 -0.1605  0.4722
   70SAPC  H13C 5972   3.525   4.415   1.471  0.4324  0.9796  0.9266
   70SAPC   C14 5973   3.408   4.648   1.384 -0.3037 -0.6060 -0.4193
   70SAPC  H14A 5974   3.314   4.594   1.378  0.3853 -1.9479  0.3363
   70SAPC  H14B 5975   3.392   4.755   1.382  3.0817 -0.0003 -2.0651
   70SAPC  H14C 5976   3.469   4.622   1.299  1.7340  1.4253  0.3111
   70SAPC   C15 5977   3.618   4.670   1.523 -0.2920 -0.2712 -0.3097
   70SAPC  H15A 5978   3.657   4.659   1.623  3.0786  1.0897 -1.2989
   70SAPC  H15B 5979   3.678   4.613   1.453  0.6024  1.0740 -0.6891
   70SAPC  H15C 5980   3.628   4.776   1.504 -0.4965 -0.3597 -0.9488
   70SAPC   C11 5981   3.430   4.676   1.783 -0.2862  0.3589  0.1753
   70SAPC  H11A 5982   3.431   4.571   1.821 -0.5928 -0.1883 -1.2791
   70SAPC  H11B 5983   3.358   4.724   1.853 -1.1522 -1.3477  0.5271
   70SAPC     P 5984   3.552   4.902   1.822 -0.3725 -0.1326  0.1788
   70SAPC   O13 5985   3.678   4.954   1.870 -0.7467 -0.3309 -0.3829
   70SAPC   O14 5986   3.484   4.968   1.709 -0.2043  0.2318  0.2363
   70SAPC   O12 5987   3.560   4.741   1.809 -0.0729  0.1840 -0.1285
   70SAPC   O11 5988   3.451   4.912   1.946 -0.4281 -0.2176  0.3388
   70SAPC    C1 5989   3.496   4.837   2.061  0.0602 -0.0034  0.2445
   70SAPC    HA 5990   3.498   4.731   2.030 -1.2350  0.0960 -0.2374
   70SAPC    HB 5991   3.599   4.861   2.096  0.5634 -0.6231 -0.7781
   70SAPC    C2 5992   3.389   4.873   2.165 -0.6844  0.2852  0.0362
   70SAPC    HS 5993   3.293   4.888   2.112  0.1287 -0.6211 -1.7675
   70SAPC   O21 5994   3.437   4.987   2.236  0.4795 -0.4050 -0.0011
   70SAPC   C21 5995   3.336   5.054   2.289  0.0343  0.3197  0.0259
   70SAPC   O22 5996   3.215   5.035   2.269  0.1193  0.4110  0.7982
   70SAPC   C22 5997   3.393   5.174   2.349 -0.3208  0.1892 -0.9138
   70SAPC   H2R 5998   3.473   5.207   2.280  0.8770 -0.9736 -0.1382
   70SAPC   H2S 5999   3.316   5.253   2.340 -0.8715 -0.4597 -2.1545
   70SAPC    C3 6000   3.363   4.752   2.252 -0.1492 -0.7371  0.8772
   70SAPC    HX 6001   3.352   4.681   2.167  1.4840 -0.0062  0.0157
   70SAPC    HY 6002   3.269   4.766   2.311 -1.1375  0.2906 -0.8645
   70SAPC   O31 6003   3.480   4.709   2.328 -0.2882  0.0230 -0.4894
   70SAPC   C31 6004   3.469   4.720   2.459 -0.1219  0.5094  0.1999
   70SAPC   O32 6005   3.389   4.790   2.511  0.1316 -0.7484 -0.8969
   70SAPC   C32 6006   3.572   4.631   2.525 -0.2938  0.2875  0.1503
   70SAPC   H2X 6007   3.672   4.657   2.483  0.0084 -1.2704 -0.1460
   70SAPC   H2Y 6008   3.554   4.523   2.507  0.8325  0.2187 -0.6843
   70SAPC   C23 6009   3.439   5.155   2.502 -0.3001  0.4024  0.3691
   70SAPC   H3R 6010   3.375   5.075   2.544  1.2298 -0.1515  1.7567
   70SAPC   H3S 6011   3.409   5.245   2.561 -3.7505 -0.4007  0.0860
   70SAPC   C24 6012   3.582   5.103   2.513 -0.0903 -1.1483  0.6597
   70SAPC   H4R 6013   3.654   5.176   2.469  2.4990 -2.0408  3.1444
   70SAPC   H4S 6014   3.576   5.008   2.457 -1.6137  0.5080 -2.2406
   70SAPC   C25 6015   3.615   5.067   2.651  0.2971  0.0874 -0.0136
   70SAPC   H5R 6016   3.544   5.001   2.704 -0.8738  1.4762  0.1941
   70SAPC   C26 6017   3.717   5.117   2.722 -0.7892 -0.2428  0.1268
   70SAPC   H6R 6018   3.734   5.086   2.826 -1.0177  1.4238  0.6995
   70SAPC   C27 6019   3.824   5.219   2.681  0.1955  0.5353  0.0373
   70SAPC   H7R 6020   3.833   5.287   2.768  0.9991  0.8056 -0.2441
   70SAPC   H7S 6021   3.793   5.273   2.589  1.0890 -0.3466 -0.8012
   70SAPC   C28 6022   3.959   5.167   2.653 -0.3738  0.3578 -1.3245
   70SAPC   H8R 6023   3.975   5.139   2.548 -0.5524 -0.7962 -1.0645
   70SAPC   C29 6024   4.060   5.147   2.737  0.9656  0.1618  0.5573
   70SAPC   H9R 6025   4.152   5.109   2.691 -1.0037 -1.0862 -2.6842
   70SAPC  C210 6026   4.061   5.172   2.885 -0.0905  1.0354  0.7565
   70SAPC  H10R 6027   3.978   5.240   2.912  0.5200  0.9288  3.1682
   70SAPC  H10S 6028   4.160   5.219   2.907  0.7784 -0.4553  0.2102
   70SAPC  C211 6029   4.055   5.037   2.960  0.7213  0.1275 -0.5466
   70SAPC  H11R 6030   4.098   4.948   2.912  0.4460  1.4109 -3.3709
   70SAPC  C212 6031   4.005   5.013   3.086  1.1712 -0.6546 -0.3291
   70SAPC  H12R 6032   4.028   4.915   3.130  2.0913 -0.2451  0.1313
   70SAPC  C213 6033   3.926   5.107   3.174  0.3106 -0.3708  0.3177
   70SAPC  H13R 6034   3.863   5.042   3.239 -1.4413 -1.6279 -2.4273
   70SAPC  H13S 6035   3.853   5.159   3.107 -1.3890  0.8569  2.9639
   70SAPC  C214 6036   3.996   5.208   3.257  0.6948 -0.0026  0.7164
   70SAPC  H14R 6037   4.049   5.280   3.192 -0.7030 -0.6478 -1.2267
   70SAPC  C215 6038   3.998   5.236   3.387  0.1518  0.0350 -0.6425
   70SAPC  H15R 6039   4.053   5.324   3.425 -2.7951  1.8516 -0.2745
   70SAPC  C216 6040   3.932   5.153   3.493  0.4930 -0.7611  0.6384
   70SAPC  H16R 6041   3.951   5.046   3.470 -0.2536 -0.9982  1.0794
   70SAPC  H16S 6042   3.825   5.179   3.480  0.8156  1.0274  1.2600
   70SAPC  C217 6043   3.947   5.189   3.646 -0.2185  0.7302  0.6396
   70SAPC  H17R 6044   3.858   5.158   3.704  0.4359 -2.7802 -0.0123
   70SAPC  H17S 6045   3.955   5.300   3.655 -0.1778  0.7283  0.6300
   70SAPC  C218 6046   4.083   5.127   3.705  0.2395 -0.1758  0.0187
   70SAPC  H18R 6047   4.161   5.162   3.634  0.0560 -1.2797 -0.7456
   70SAPC  H18S 6048   4.074   5.017   3.693 -2.9413  0.1003 -0.9173
   70SAPC  C219 6049   4.120   5.166   3.851 -0.5834 -0.1555  0.3985
   70SAPC  H19R 6050   4.137   5.275   3.849 -1.6158  0.0612  1.9354
   70SAPC  H19S 6051   4.214   5.112   3.876  0.4331  1.1182 -0.5421
   70SAPC  C220 6052   4.009   5.124   3.947 -0.0708  0.6434 -0.5861
   70SAPC  H20R 6053   3.995   5.013   3.946 -0.7186  0.5901  2.7123
   70SAPC  H20S 6054   3.905   5.160   3.933 -0.7782 -0.7341  0.7666
   70SAPC  H20T 6055   4.055   5.148   4.045 -1.4711 -2.2925  0.9391
   70SAPC   C33 6056   3.591   4.646   2.678  0.9860  0.0013 -0.5103
   70SAPC   H3X 6057   3.519   4.570   2.715  0.0136  1.5850  0.9423
   70SAPC   H3Y 6058   3.558   4.744   2.718 -1.5060 -0.5713 -1.0089
   70SAPC   C34 6059   3.736   4.637   2.722  0.0939 -0.3427 -0.1227
   70SAPC   H4X 6060   3.777   4.737   2.696 -1.0736  0.5142  1.1996
   70SAPC   H4Y 6061   3.795   4.558   2.671  0.4409  1.1884 -2.2532
   70SAPC   C35 6062   3.756   4.623   2.871 -0.2434  0.3841  0.5537
   70SAPC   H5X 6063   3.678   4.556   2.913 -0.1739  0.5758  0.9967
   70SAPC   H5Y 6064   3.730   4.719   2.920 -0.1858  1.1907 -0.9386
   70SAPC   C36 6065   3.900   4.584   2.906 -0.7618 -0.1953 -0.1072
   70SAPC   H6X 6066   3.977   4.661   2.886 -1.5264  0.8383  0.8492
   70SAPC   H6Y 6067   3.927   4.488   2.857 -0.4346 -1.1467  1.8329
   70SAPC   C37 6068   3.919   4.547   3.052 -0.1530  0.6616  0.3791
   70SAPC   H7X 6069   3.849   4.465   3.076 -0.1072  0.7710  0.8905
   70SAPC   H7Y 6070   4.024   4.517   3.073  0.2785  0.7305 -1.5024
   70SAPC   C38 6071   3.872   4.664   3.138 -0.0149  0.3197  0.5198
   70SAPC   H8X 6072   3.764   4.689   3.132  0.6440  3.2907 -0.5191
   70SAPC   H8Y 6073   3.930   4.754   3.108 -2.0266  1.5227  0.0137
   70SAPC   C39 6074   3.912   4.628   3.282 -0.0501  0.4618  0.0435
   70SAPC   H9X 6075   4.020   4.606   3.287  0.4990  2.6090 -1.2041
   70SAPC   H9Y 6076   3.860   4.534   3.309 -1.0453  0.9303 -0.1629
   70SAPC  C310 6077   3.885   4.743   3.380 -0.3823 -0.6819  0.1788
   70SAPC  H10X 6078   3.789   4.791   3.352 -1.5388 -3.3536 -0.8416
   70SAPC  H10Y 6079   3.964   4.821   3.372 -2.1069  1.1172 -0.1694
   70SAPC  C311 6080   3.874   4.706   3.525  0.2595  0.1442  0.4336
   70SAPC  H11X 6081   3.972   4.674   3.566  0.0135  1.0153  1.7469
   70SAPC  H11Y 6082   3.815   4.611   3.531  0.9489 -0.3604 -0.5474
   70SAPC  C312 6083   3.819   4.807   3.621 -0.2075  0.6343  0.0924
   70SAPC  H12X 6084   3.737   4.868   3.575  0.0008  0.9566  0.1428
   70SAPC  H12Y 6085   3.892   4.888   3.641  1.1823 -0.1120 -1.6870
   70SAPC  C313 6086   3.775   4.754   3.756 -0.7290 -0.3323  0.7916
   70SAPC  H13X 6087   3.863   4.712   3.809 -0.4546 -1.2644 -0.3570
   70SAPC  H13Y 6088   3.692   4.681   3.745 -1.1454  0.2191  0.2292
   70SAPC  C314 6089   3.727   4.871   3.844 -0.4821 -0.2412 -0.1086
   70SAPC  H14X 6090   3.640   4.924   3.798 -0.8911 -2.1065 -1.6018
   70SAPC  H14Y 6091   3.819   4.933   3.850  1.9774 -3.7789  3.2227
   70SAPC  C315 6092   3.704   4.826   3.985 -0.5110  1.2629 -0.7178
   70SAPC  H15X 6093   3.788   4.765   4.023 -0.2218  2.2235  0.2178
   70SAPC  H15Y 6094   3.609   4.767   3.981  0.5163 -0.4285 -1.0140
   70SAPC  C316 6095   3.682   4.932   4.093  0.7706 -0.7917 -0.4415
   70SAPC  H16X 6096   3.601   5.001   4.060  0.0606 -1.3079  0.1807
   70SAPC  H16Y 6097   3.781   4.980   4.109  0.0941  0.5629 -0.1604
   70SAPC  C317 6098   3.620   4.860   4.222  0.0403  0.1285 -0.2903
   70SAPC  H17X 6099   3.525   4.804   4.204 -0.9480  1.9899 -1.1741
   70SAPC  H17Y 6100   3.590   4.940   4.293  1.6641 -0.3704  0.9997
   70SAPC  C318 6101   3.716   4.768   4.293 -0.6921  0.7050  0.2384
   70SAPC  H18X 6102   3.746   4.682   4.229  0.7044  0.7140  0.8423
   70SAPC  H18Y 6103   3.671   4.726   4.385  1.1911 -1.1508  0.3970
   70SAPC  H18Z 6104   3.807   4.825   4.322  2.2636 -2.9564 -0.9415
   71SAPC     N 6105   3.354   4.143   2.179 -0.0456 -0.1400 -0.1149
   71SAPC   C12 6106   3.489   4.105   2.247 -0.3743 -0.2243  0.9317
   71SAPC  H12A 6107   3.557   4.119   2.164 -1.4080 -0.4976  0.0318
   71SAPC  H12B 6108   3.483   4.000   2.270 -1.1754 -0.7022 -1.2158
   71SAPC   C13 6109   3.335   4.055   2.055 -0.0054  0.1300 -0.3439
   71SAPC  H13A 6110   3.407   4.079   1.978 -0.1295  3.2671  0.3967
   71SAPC  H13B 6111   3.343   3.949   2.074  0.6338  0.3390  0.5945
   71SAPC  H13C 6112   3.240   4.075   2.008 -0.9938 -1.5294  0.8436
   71SAPC   C14 6113   3.249   4.104   2.280 -0.1339  0.4841 -1.2159
   71SAPC  H14A 6114   3.262   4.159   2.372  0.0494  0.2901 -1.1264
   71SAPC  H14B 6115   3.148   4.121   2.247 -2.2236  1.2696  4.5246
   71SAPC  H14C 6116   3.249   3.997   2.293 -1.0732  0.6774  0.5804
   71SAPC   C15 6117   3.361   4.282   2.150  0.3201 -1.1294  0.0279
   71SAPC  H15A 6118   3.265   4.326   2.126  0.1623 -0.9518  0.9334
   71SAPC  H15B 6119   3.398   4.330   2.239  1.4167 -0.1028 -0.9546
   71SAPC  H15C 6120   3.434   4.312   2.077 -0.6111  4.0823  0.8572
   71SAPC   C11 6121   3.538   4.181   2.370  0.1556  0.3449  0.3016
   71SAPC  H11A 6122   3.603   4.112   2.428 -1.0235 -1.8575 -0.8349
   71SAPC  H11B 6123   3.448   4.208   2.429 -0.9377 -2.1159 -0.1144
   71SAPC     P 6124   3.757   4.318   2.325 -0.2212 -0.0264  0.1032
   71SAPC   O13 6125   3.803   4.242   2.199  0.0081 -0.7680  0.1397
   71SAPC   O14 6126   3.788   4.460   2.336  0.3512 -0.2753  0.1043
   71SAPC   O12 6127   3.600   4.303   2.326 -0.3257 -0.1644  0.3943
   71SAPC   O11 6128   3.803   4.232   2.446  0.1498  0.0280 -0.5811
   71SAPC    C1 6129   3.760   4.238   2.582  0.1973  0.0269 -0.0699
   71SAPC    HA 6130   3.759   4.347   2.602  0.5040  0.4781 -2.2931
   71SAPC    HB 6131   3.657   4.204   2.606  1.1700 -1.4551  2.4523
   71SAPC    C2 6132   3.845   4.157   2.690 -0.0110 -0.0839 -0.2222
   71SAPC    HS 6133   3.825   4.050   2.668 -1.9510 -0.0371  0.9963
   71SAPC   O21 6134   3.797   4.194   2.818 -0.1765  0.1023  0.0904
   71SAPC   C21 6135   3.729   4.097   2.882  0.5208 -0.6715 -0.7948
   71SAPC   O22 6136   3.673   4.004   2.828  0.0080  0.2002  0.7562
   71SAPC   C22 6137   3.728   4.127   3.030 -0.5151  0.6606  0.9661
   71SAPC   H2R 6138   3.835   4.124   3.058 -0.4260 -1.7928  0.5383
   71SAPC   H2S 6139   3.691   4.227   3.063 -2.1701  0.2278  0.4955
   71SAPC    C3 6140   3.993   4.188   2.683  0.0118  0.3222 -0.4471
   71SAPC    HX 6141   4.006   4.297   2.702  1.7912  0.6720 -3.1611
   71SAPC    HY 6142   4.038   4.187   2.581  1.3836 -2.1390  0.0903
   71SAPC   O31 6143   4.071   4.108   2.778  0.5635  0.8510  0.1684
   71SAPC   C31 6144   4.202   4.092   2.749  0.0130 -0.0791  0.4623
   71SAPC   O32 6145   4.261   4.127   2.652 -0.3665 -0.5538 -0.0331
   71SAPC   C32 6146   4.266   4.014   2.864 -0.2270  0.5272  0.4252
   71SAPC   H2X 6147   4.369   3.985   2.832  1.0741  4.3330  0.6482
   71SAPC   H2Y 6148   4.209   3.919   2.873 -1.6561  1.3097 -0.0575
   71SAPC   C23 6149   3.646   4.020   3.106  0.6461 -0.0464 -0.0516
   71SAPC   H3R 6150   3.669   3.915   3.079 -0.2587  0.0373 -1.2075
   71SAPC   H3S 6151   3.539   4.037   3.084  0.4706 -0.6379  0.3260
   71SAPC   C24 6152   3.656   4.048   3.255  0.1348  0.0766  0.5752
   71SAPC   H4R 6153   3.627   4.151   3.287  2.5673  0.9165  0.3269
   71SAPC   H4S 6154   3.763   4.035   3.281  0.4128  0.8957 -0.1273
   71SAPC   C25 6155   3.582   3.951   3.344 -0.6844  0.6421  0.5414
   71SAPC   H5R 6156   3.567   3.849   3.304  0.2014  0.7733 -0.1565
   71SAPC   C26 6157   3.533   3.972   3.464 -0.3434  0.2277  0.3485
   71SAPC   H6R 6158   3.474   3.893   3.514  0.2046 -0.3199  0.1518
   71SAPC   C27 6159   3.543   4.109   3.528  0.0817  0.5667  0.3978
   71SAPC   H7R 6160   3.508   4.180   3.451 -2.0877 -0.3028  0.5111
   71SAPC   H7S 6161   3.650   4.135   3.545  0.9814 -0.5120 -2.8648
   71SAPC   C28 6162   3.451   4.122   3.648  0.6588  0.0345  0.2601
   71SAPC   H8R 6163   3.356   4.066   3.639 -0.3337  1.8645 -1.4783
   71SAPC   C29 6164   3.477   4.187   3.762  0.5292  0.0446 -0.6986
   71SAPC   H9R 6165   3.404   4.207   3.842 -0.1701 -0.5798 -1.1611
   71SAPC  C210 6166   3.606   4.269   3.789 -0.4945 -0.2050  0.1259
   71SAPC  H10R 6167   3.660   4.279   3.692  0.1267 -0.7298  0.4136
   71SAPC  H10S 6168   3.686   4.216   3.844  1.1824  0.2491 -1.7639
   71SAPC  C211 6169   3.597   4.408   3.851 -0.3596 -0.5338 -1.0419
   71SAPC  H11R 6170   3.614   4.482   3.772 -0.1717 -1.6253 -2.0430
   71SAPC  C212 6171   3.558   4.442   3.975  0.2793  0.5760  0.4165
   71SAPC  H12R 6172   3.554   4.550   3.998 -1.4261  0.4258  0.9631
   71SAPC  C213 6173   3.528   4.357   4.094 -1.1489  0.2611  0.0325
   71SAPC  H13R 6174   3.615   4.382   4.159  0.1084  3.2328 -2.5199
   71SAPC  H13S 6175   3.539   4.247   4.087 -0.4864  0.0878  2.7719
   71SAPC  C214 6176   3.397   4.385   4.160  0.3890 -0.1829 -0.6088
   71SAPC  H14R 6177   3.309   4.399   4.095 -1.1761  1.6472  1.7695
   71SAPC  C215 6178   3.382   4.422   4.288 -0.8192 -0.9753 -0.0961
   71SAPC  H15R 6179   3.288   4.461   4.330 -0.5115  1.5009 -1.4996
   71SAPC  C216 6180   3.485   4.407   4.398 -0.5399 -0.1462  0.5159
   71SAPC  H16R 6181   3.590   4.429   4.369 -0.9973  3.4879  1.1739
   71SAPC  H16S 6182   3.486   4.305   4.443 -0.4149 -0.9730 -1.2813
   71SAPC  C217 6183   3.456   4.509   4.508  0.0127 -0.2909  0.6047
   71SAPC  H17R 6184   3.371   4.477   4.572 -0.6723  2.3661  1.1551
   71SAPC  H17S 6185   3.448   4.608   4.458  2.8723 -0.9995 -1.5142
   71SAPC  C218 6186   3.583   4.514   4.601  0.2006  0.3160 -0.4050
   71SAPC  H18R 6187   3.663   4.575   4.555  3.1969 -1.6193  1.8706
   71SAPC  H18S 6188   3.618   4.409   4.609 -2.1623 -0.5786 -0.7458
   71SAPC  C219 6189   3.566   4.575   4.738  0.0417  0.4680  0.3243
   71SAPC  H19R 6190   3.660   4.556   4.796 -0.1805  0.2331  0.6120
   71SAPC  H19S 6191   3.493   4.509   4.789  1.3807 -0.8113  0.6781
   71SAPC  C220 6192   3.522   4.723   4.728  0.0028  0.3460 -0.1174
   71SAPC  H20R 6193   3.425   4.719   4.674  0.2547 -0.6110 -0.5119
   71SAPC  H20S 6194   3.594   4.779   4.664  0.9635 -0.4346  0.2547
   71SAPC  H20T 6195   3.512   4.760   4.832 -1.2870  1.0859 -0.4771
   71SAPC   C33 6196   4.283   4.093   2.991 -0.2060 -0.8422 -0.2135
   71SAPC   H3X 6197   4.332   4.192   2.978  2.2484 -2.0786 -0.9031
   71SAPC   H3Y 6198   4.354   4.043   3.060  0.0705 -1.7840 -1.1583
   71SAPC   C34 6199   4.154   4.103   3.080 -0.0435 -0.3830 -0.4885
   71SAPC   H4X 6200   4.140   3.995   3.106 -0.0280 -0.3765 -0.4539
   71SAPC   H4Y 6201   4.072   4.128   3.010  1.0061 -2.1376 -2.4432
   71SAPC   C35 6202   4.174   4.196   3.202 -0.6459 -0.2742 -0.5391
   71SAPC   H5X 6203   4.208   4.301   3.186 -1.7808 -0.0764 -1.8076
   71SAPC   H5Y 6204   4.246   4.142   3.267 -1.2758 -0.2854  0.1574
   71SAPC   C36 6205   4.047   4.222   3.279 -0.3359  0.1537 -0.1214
   71SAPC   H6X 6206   3.999   4.122   3.287 -0.2523  0.0963 -0.3599
   71SAPC   H6Y 6207   3.988   4.281   3.206 -0.6780 -0.7387 -0.5855
   71SAPC   C37 6208   4.062   4.306   3.412 -0.0043  0.8174 -0.5360
   71SAPC   H7X 6209   3.966   4.362   3.422 -1.7772 -1.7390 -2.1184
   71SAPC   H7Y 6210   4.143   4.380   3.397 -0.6085  1.7818  0.6842
   71SAPC   C38 6211   4.089   4.228   3.543 -0.8161 -0.6666 -0.0326
   71SAPC   H8X 6212   4.175   4.160   3.526 -2.5392 -2.6211 -1.4439
   71SAPC   H8Y 6213   4.002   4.162   3.562 -0.7737 -0.2204  1.9069
   71SAPC   C39 6214   4.108   4.331   3.654  0.2923  0.6605  0.2054
   71SAPC   H9X 6215   4.021   4.399   3.639  1.6674  2.3772 -0.4214
   71SAPC   H9Y 6216   4.196   4.398   3.644  0.4334  0.6934  1.4508
   71SAPC  C310 6217   4.108   4.268   3.795  0.6061  0.6443 -0.5713
   71SAPC  H10X 6218   4.179   4.184   3.809  0.0474  0.3796  0.8012
   71SAPC  H10Y 6219   4.010   4.217   3.808 -0.1316  2.4266  1.3477
   71SAPC  C311 6220   4.128   4.365   3.905  0.9252 -0.0873  0.7664
   71SAPC  H11X 6221   4.224   4.420   3.887  2.3797 -2.5969  0.4212
   71SAPC  H11Y 6222   4.134   4.306   3.999 -0.7762  0.0649  1.0013
   71SAPC  C312 6223   4.004   4.460   3.926 -0.2722 -0.2908  0.4918
   71SAPC  H12X 6224   3.909   4.404   3.938 -1.4942  1.4447 -0.5892
   71SAPC  H12Y 6225   3.995   4.532   3.842 -0.5892  0.2557  0.9786
   71SAPC  C313 6226   4.014   4.547   4.056 -0.1379 -0.1012  0.2399
   71SAPC  H13X 6227   4.028   4.484   4.147  2.4254  0.6840  0.4705
   71SAPC  H13Y 6228   3.918   4.601   4.072  0.1144  0.5051 -0.2399
   71SAPC  C314 6229   4.127   4.644   4.035 -0.9717  0.2305 -0.1170
   71SAPC  H14X 6230   4.138   4.675   3.928 -0.7250  0.3155 -0.0674
   71SAPC  H14Y 6231   4.220   4.590   4.060 -1.1254  0.7271  1.6523
   71SAPC  C315 6232   4.112   4.776   4.121 -0.2078 -0.1624  0.2087
   71SAPC  H15X 6233   4.030   4.844   4.089  0.0541 -0.1983 -0.5763
   71SAPC  H15Y 6234   4.202   4.838   4.101 -1.7154  1.6400 -1.4085
   71SAPC  C316 6235   4.088   4.751   4.263 -0.4372  0.6203 -0.5410
   71SAPC  H16X 6236   4.162   4.679   4.305 -1.3827  0.2362  0.5136
   71SAPC  H16Y 6237   3.995   4.697   4.291  1.3949 -1.0853  2.8737
   71SAPC  C317 6238   4.087   4.873   4.355  0.3221 -0.0214  0.1238
   71SAPC  H17X 6239   4.053   4.843   4.456 -1.2725  2.4257  0.4062
   71SAPC  H17Y 6240   4.010   4.949   4.326 -0.9102 -1.6822 -1.1193
   71SAPC  C318 6241   4.223   4.937   4.374 -0.6022 -0.3662  0.5225
   71SAPC  H18X 6242   4.295   4.859   4.408  0.8669  0.2557 -1.0207
   71SAPC  H18Y 6243   4.237   5.025   4.439  1.3093 -0.0234 -0.3019
   71SAPC  H18Z 6244   4.268   4.973   4.279 -1.0260 -2.9998 -0.7769
   72SAPC     N 6245   2.230   2.130   2.155  0.8513  0.0914 -0.5273
   72SAPC   C12 6246   2.222   2.287   2.159 -0.1233 -0.3562  0.3004
   72SAPC  H12A 6247   2.210   2.329   2.060  1.1438 -1.9011 -0.5626
   72SAPC  H12B 6248   2.323   2.323   2.172 -1.3081  3.1118  0.9393
   72SAPC   C13 6249   2.213   2.065   2.287 -0.1914 -0.6396  0.5459
   72SAPC  H13A 6250   2.215   1.957   2.282  0.7882 -0.6278  0.5982
   72SAPC  H13B 6251   2.292   2.100   2.351  1.3064 -3.5505  0.4836
   72SAPC  H13C 6252   2.116   2.087   2.329 -0.7264 -0.2465 -0.8413
   72SAPC   C14 6253   2.113   2.076   2.084 -0.7232  0.1350  0.1870
   72SAPC  H14A 6254   2.100   2.115   1.984 -0.7705  1.4274  0.6675
   72SAPC  H14B 6255   2.121   1.969   2.084  0.0239  0.1840  0.5498
   72SAPC  H14C 6256   2.018   2.105   2.126 -2.0647  0.0555 -2.5668
   72SAPC   C15 6257   2.360   2.084   2.101  0.4086  0.6705  0.3162
   72SAPC  H15A 6258   2.387   1.984   2.133 -1.4436  0.2461  0.6408
   72SAPC  H15B 6259   2.361   2.088   1.993 -0.2305 -0.0058  0.2785
   72SAPC  H15C 6260   2.440   2.144   2.143  0.2020  0.0350  1.6891
   72SAPC   C11 6261   2.118   2.361   2.243  0.3718  0.0479 -0.2211
   72SAPC  H11A 6262   2.123   2.472   2.248  0.6657  0.0818 -1.1143
   72SAPC  H11B 6263   2.135   2.323   2.346 -0.1460  3.5202  1.2863
   72SAPC     P 6264   1.869   2.261   2.299  0.1768  0.2356 -0.1537
   72SAPC   O13 6265   1.744   2.250   2.218 -0.2180  0.6737 -0.1711
   72SAPC   O14 6266   1.915   2.137   2.367 -0.2365  0.5231  0.2355
   72SAPC   O12 6267   1.981   2.317   2.211 -0.2473  0.4082  0.4534
   72SAPC   O11 6268   1.844   2.378   2.404 -0.1733  0.5989 -0.0157
   72SAPC    C1 6269   1.815   2.512   2.364 -1.0043  0.3410  0.3641
   72SAPC    HA 6270   1.882   2.584   2.415 -0.3830 -0.8250  1.2369
   72SAPC    HB 6271   1.813   2.533   2.255 -0.4082 -3.4279 -0.5065
   72SAPC    C2 6272   1.677   2.574   2.421 -0.1029 -0.0804  0.0459
   72SAPC    HS 6273   1.691   2.684   2.411 -2.6293  0.3108  0.3268
   72SAPC   O21 6274   1.658   2.523   2.557  0.7993 -0.7519 -0.2109
   72SAPC   C21 6275   1.689   2.613   2.652  1.3069  0.0713 -0.9167
   72SAPC   O22 6276   1.715   2.732   2.637 -0.5546 -0.0751  0.0639
   72SAPC   C22 6277   1.670   2.536   2.786 -0.2225 -0.0461 -0.4895
   72SAPC   H2R 6278   1.699   2.601   2.872  1.4928 -1.7047  0.2542
   72SAPC   H2S 6279   1.564   2.506   2.793 -0.3918  0.5686 -0.3283
   72SAPC    C3 6280   1.561   2.530   2.324 -0.3883  0.2216 -0.3228
   72SAPC    HX 6281   1.572   2.429   2.280 -2.6241  1.5183 -4.2870
   72SAPC    HY 6282   1.575   2.579   2.226  0.1948  0.7995  0.0350
   72SAPC   O31 6283   1.442   2.528   2.390  0.2232 -0.5703 -0.2708
   72SAPC   C31 6284   1.358   2.642   2.368 -0.6360 -0.5804 -0.2046
   72SAPC   O32 6285   1.373   2.724   2.276 -0.5345  0.5034  0.1869
   72SAPC   C32 6286   1.255   2.667   2.478  0.6565  0.3910  0.3184
   72SAPC   H2X 6287   1.155   2.635   2.444  0.4209  1.0976  0.3318
   72SAPC   H2Y 6288   1.245   2.776   2.495  1.7830  0.3310  1.5273
   72SAPC   C23 6289   1.766   2.416   2.797 -0.0404  0.5682 -0.2053
   72SAPC   H3R 6290   1.823   2.385   2.707  0.4044 -1.1089  0.6108
   72SAPC   H3S 6291   1.707   2.328   2.831  1.0885  0.1067  0.6272
   72SAPC   C24 6292   1.866   2.442   2.908  0.0283  0.8671  0.6206
   72SAPC   H4R 6293   1.814   2.478   2.999 -1.2124  0.5101  0.0743
   72SAPC   H4S 6294   1.926   2.532   2.885 -2.0910  2.4257  0.9071
   72SAPC   C25 6295   1.958   2.327   2.930 -0.4353 -0.8304  0.5571
   72SAPC   H5R 6296   1.999   2.275   2.842  0.0846  0.3953  0.0647
   72SAPC   C26 6297   1.999   2.297   3.050 -0.1329  0.3538 -0.8719
   72SAPC   H6R 6298   2.083   2.227   3.058 -1.0057 -1.0876 -3.2470
   72SAPC   C27 6299   1.943   2.345   3.183 -0.2770 -0.4858 -0.7687
   72SAPC   H7R 6300   1.837   2.377   3.176 -1.0248 -2.7311 -0.7587
   72SAPC   H7S 6301   1.997   2.440   3.203 -2.1623  0.7681 -1.4019
   72SAPC   C28 6302   1.971   2.260   3.307 -0.0005  0.0949  0.9226
   72SAPC   H8R 6303   2.067   2.277   3.356 -0.8910  0.6798  2.5357
   72SAPC   C29 6304   1.881   2.179   3.367  0.0411 -0.3698  0.4897
   72SAPC   H9R 6305   1.921   2.112   3.445  0.6116  0.9909  1.4068
   72SAPC  C210 6306   1.746   2.149   3.305  0.7322  0.1768  0.4701
   72SAPC  H10R 6307   1.743   2.043   3.272  0.6924  0.0957  0.7311
   72SAPC  H10S 6308   1.722   2.207   3.214  0.1152 -0.8872 -0.0640
   72SAPC  C211 6309   1.633   2.180   3.401  0.3203  0.5882 -0.4710
   72SAPC  H11R 6310   1.644   2.130   3.499 -0.3027  1.3934  0.0219
   72SAPC  C212 6311   1.530   2.265   3.387 -0.2030  0.0301  0.5387
   72SAPC  H12R 6312   1.469   2.283   3.476 -1.5494 -0.5215 -0.2475
   72SAPC  C213 6313   1.509   2.360   3.272 -0.2055  0.4872 -0.3191
   72SAPC  H13R 6314   1.448   2.302   3.200  2.7242 -1.0722 -1.7644
   72SAPC  H13S 6315   1.610   2.379   3.228  0.9399 -0.4816  1.7542
   72SAPC  C214 6316   1.444   2.482   3.318  0.2589  0.3048 -0.4511
   72SAPC  H14R 6317   1.447   2.506   3.425  2.4525  2.8684 -0.9644
   72SAPC  C215 6318   1.383   2.574   3.242  0.5579  1.0248  1.1893
   72SAPC  H15R 6319   1.333   2.663   3.283 -2.6073  0.1962 -0.5312
   72SAPC  C216 6320   1.372   2.561   3.090 -0.1646 -0.0750  0.0706
   72SAPC  H16R 6321   1.265   2.562   3.059 -0.5845  3.1985  1.2313
   72SAPC  H16S 6322   1.412   2.464   3.055  0.9431  0.4906 -0.2964
   72SAPC  C217 6323   1.459   2.671   3.021 -0.0940 -0.0826  0.6309
   72SAPC  H17R 6324   1.457   2.645   2.913  0.3573 -1.6650  0.9799
   72SAPC  H17S 6325   1.560   2.661   3.067 -0.7001 -2.3632  1.5628
   72SAPC  C218 6326   1.411   2.813   3.050 -0.0072  0.3503 -0.0924
   72SAPC  H18R 6327   1.436   2.845   3.153  0.9602 -1.1859  0.1798
   72SAPC  H18S 6328   1.301   2.829   3.040  0.1512  2.3582  1.0342
   72SAPC  C219 6329   1.463   2.922   2.952 -0.1544 -0.7052  0.2965
   72SAPC  H19R 6330   1.426   3.021   2.987  1.1073 -0.3226  0.6327
   72SAPC  H19S 6331   1.416   2.906   2.853  0.9693  1.6037 -0.6969
   72SAPC  C220 6332   1.619   2.922   2.932 -0.2779  0.1075  0.1602
   72SAPC  H20R 6333   1.643   2.831   2.874  2.1500  0.6381  0.2101
   72SAPC  H20S 6334   1.676   2.916   3.028 -0.2409 -0.1043  0.1263
   72SAPC  H20T 6335   1.651   3.013   2.877  0.4098 -0.4685 -0.4141
   72SAPC   C33 6336   1.292   2.615   2.628  0.3454  1.2676 -0.0242
   72SAPC   H3X 6337   1.226   2.663   2.703 -0.6797 -0.4245  0.2290
   72SAPC   H3Y 6338   1.396   2.647   2.648  0.1134  1.3903  1.0562
   72SAPC   C34 6339   1.279   2.464   2.651  0.5980  0.0758 -0.1771
   72SAPC   H4X 6340   1.320   2.445   2.753 -1.9399 -1.9432  0.5645
   72SAPC   H4Y 6341   1.339   2.409   2.575  0.6398 -1.2161  0.7501
   72SAPC   C35 6342   1.133   2.418   2.639 -0.2103 -0.7035  0.5603
   72SAPC   H5X 6343   1.125   2.307   2.632 -0.7087 -0.6765  0.6158
   72SAPC   H5Y 6344   1.094   2.453   2.541 -0.6553 -1.4597  0.4524
   72SAPC   C36 6345   1.036   2.470   2.747 -0.8384 -0.3397 -0.2606
   72SAPC   H6X 6346   1.054   2.575   2.780 -0.5017  0.0963 -1.7693
   72SAPC   H6Y 6347   1.065   2.412   2.838  0.7288  0.1460 -0.4115
   72SAPC   C37 6348   0.889   2.452   2.705 -0.9129  0.9156 -0.1911
   72SAPC   H7X 6349   0.871   2.355   2.652  1.3213  0.4652 -0.2245
   72SAPC   H7Y 6350   0.875   2.536   2.634  1.4438  0.9914 -0.6563
   72SAPC   C38 6351   0.801   2.471   2.831  0.2908 -0.8356  0.5137
   72SAPC   H8X 6352   0.698   2.470   2.791  0.2716  0.4356  0.4791
   72SAPC   H8Y 6353   0.806   2.571   2.879 -1.3103 -0.2971 -0.3720
   72SAPC   C39 6354   0.819   2.362   2.940  0.2966  0.1189 -0.0783
   72SAPC   H9X 6355   0.927   2.338   2.954  0.6773  2.4577  1.4507
   72SAPC   H9Y 6356   0.770   2.265   2.916 -2.0846  0.3774  3.1305
   72SAPC  C310 6357   0.772   2.412   3.080  0.3665  0.0247 -0.1965
   72SAPC  H10X 6358   0.822   2.510   3.099  0.1595  0.1475 -0.2840
   72SAPC  H10Y 6359   0.808   2.335   3.152 -0.3457 -1.9669 -1.9201
   72SAPC  C311 6360   0.617   2.431   3.091 -1.1637 -0.4398 -0.3047
   72SAPC  H11X 6361   0.580   2.328   3.073 -1.3422 -0.4010 -0.1563
   72SAPC  H11Y 6362   0.578   2.508   3.021  1.9829  1.0616 -0.6001
   72SAPC  C312 6363   0.576   2.484   3.229  0.2429 -0.3179 -0.3239
   72SAPC  H12X 6364   0.471   2.517   3.217  0.6307  0.9656 -0.3311
   72SAPC  H12Y 6365   0.640   2.572   3.252  1.1031 -0.4148 -2.1582
   72SAPC  C313 6366   0.585   2.395   3.353  0.4768  1.1633 -0.8019
   72SAPC  H13X 6367   0.681   2.341   3.335 -1.8682 -5.2098  2.9261
   72SAPC  H13Y 6368   0.503   2.322   3.339  0.9690  0.6389 -0.9865
   72SAPC  C314 6369   0.589   2.459   3.494  0.7874 -0.2720 -0.7976
   72SAPC  H14X 6370   0.488   2.506   3.500  0.6238 -0.6796 -0.2706
   72SAPC  H14Y 6371   0.666   2.540   3.495 -0.6498  1.1511 -0.6499
   72SAPC  C315 6372   0.591   2.351   3.605  0.0985 -0.1300  0.2900
   72SAPC  H15X 6373   0.682   2.293   3.578  0.7198  2.3365 -3.6767
   72SAPC  H15Y 6374   0.505   2.281   3.598 -0.4759  0.7113 -1.6469
   72SAPC  C316 6375   0.602   2.407   3.748 -0.3617 -0.3612  0.4839
   72SAPC  H16X 6376   0.522   2.478   3.777 -0.5058  0.3782 -1.5703
   72SAPC  H16Y 6377   0.697   2.464   3.760 -0.1426 -0.6376  0.0980
   72SAPC  C317 6378   0.605   2.293   3.854 -0.3747 -0.3445 -0.3396
   72SAPC  H17X 6379   0.659   2.336   3.940 -0.8705 -0.2228 -0.0864
   72SAPC  H17Y 6380   0.668   2.209   3.816 -1.5917 -0.2951 -2.6831
   72SAPC  C318 6381   0.466   2.243   3.895  0.0544 -0.4562  0.1934
   72SAPC  H18X 6382   0.484   2.153   3.959 -0.6954  0.5755  1.9361
   72SAPC  H18Y 6383   0.409   2.204   3.809  1.9502 -0.4062 -1.1494
   72SAPC  H18Z 6384   0.415   2.321   3.956  3.4720  0.0504  2.7433
   73SLPC     N 6385   4.929   2.450   6.605 -0.4559  0.3039  0.7542
   73SLPC   C13 6386   5.001   2.323   6.616  0.0721  0.1881 -0.0326
   73SLPC  H13A 6387   5.084   2.301   6.550  0.4789 -0.9479  0.8362
   73SLPC  H13B 6388   5.055   2.319   6.710 -1.6450  0.3206  0.9897
   73SLPC  H13C 6389   4.933   2.241   6.631  0.8128 -0.0833  2.2121
   73SLPC   C14 6390   5.032   2.558   6.614  0.0556 -0.2351  0.4063
   73SLPC  H14A 6391   5.093   2.559   6.704  0.8670 -1.2883 -0.1111
   73SLPC  H14B 6392   5.107   2.549   6.537  0.6958 -0.4360  1.0364
   73SLPC  H14C 6393   4.980   2.651   6.597  0.6071 -0.2613 -1.6759
   73SLPC   C15 6394   4.821   2.476   6.707  0.5927 -0.7816 -0.6034
   73SLPC  H15A 6395   4.873   2.503   6.799 -0.1627 -1.8129  0.1495
   73SLPC  H15B 6396   4.751   2.550   6.672  2.2386  1.3539  0.3323
   73SLPC  H15C 6397   4.766   2.388   6.738 -1.2457  0.4809 -0.1235
   73SLPC   C12 6398   4.855   2.446   6.469 -0.4757  0.1735 -0.4391
   73SLPC  H12A 6399   4.784   2.365   6.476  0.3201 -0.4999 -0.0419
   73SLPC  H12B 6400   4.935   2.423   6.401 -0.5226 -0.5738 -0.2504
   73SLPC   C11 6401   4.791   2.577   6.418  0.2999 -0.2194 -0.0831
   73SLPC  H11A 6402   4.759   2.561   6.312  0.5339  1.9173 -0.5143
   73SLPC  H11B 6403   4.867   2.657   6.408  0.6713 -0.4099  1.1130
   73SLPC     P 6404   4.539   2.559   6.486  0.0505 -0.4527  0.5067
   73SLPC   O13 6405   4.563   2.413   6.492 -0.0493  0.6500 -0.3689
   73SLPC   O14 6406   4.444   2.614   6.581  0.1561  0.2114 -0.5170
   73SLPC   O12 6407   4.684   2.626   6.501 -0.1579  0.3154  0.2864
   73SLPC   O11 6408   4.502   2.587   6.332 -0.5754  0.3063  0.4658
   73SLPC    C1 6409   4.452   2.714   6.305 -0.0511 -1.0189  0.4520
   73SLPC    HA 6410   4.348   2.702   6.268  0.7837 -1.9525 -1.8168
   73SLPC    HB 6411   4.446   2.791   6.385 -2.5661 -0.0642 -0.5719
   73SLPC    C2 6412   4.537   2.791   6.201  0.0145  0.0309 -1.0590
   73SLPC    HS 6413   4.620   2.838   6.259 -1.9210  1.0020  1.0806
   73SLPC   O21 6414   4.454   2.889   6.148  0.5857 -0.0525 -0.1205
   73SLPC   C21 6415   4.499   3.005   6.120 -0.4627 -0.2470 -0.1712
   73SLPC   O22 6416   4.619   3.041   6.131 -0.2764  0.3402  0.2921
   73SLPC   C22 6417   4.384   3.081   6.047  0.1129  0.0090  0.0855
   73SLPC   H2R 6418   4.336   3.015   5.970 -1.3509  0.1940  0.8095
   73SLPC   H2S 6419   4.307   3.095   6.125  0.2442  2.0082 -0.1016
   73SLPC    C3 6420   4.581   2.702   6.075 -0.1901 -0.7493 -0.6604
   73SLPC    HX 6421   4.481   2.672   6.037  0.1569 -1.6048 -0.9160
   73SLPC    HY 6422   4.641   2.610   6.096  0.0519 -1.0809 -2.6616
   73SLPC   O31 6423   4.649   2.777   5.978 -0.4198 -0.3432  0.3277
   73SLPC   C31 6424   4.784   2.795   5.996 -0.1359  0.5528  0.3610
   73SLPC   O32 6425   4.849   2.742   6.084 -0.1294  0.2337  0.3939
   73SLPC   C32 6426   4.844   2.871   5.880 -0.5752  0.1879  0.4700
   73SLPC   H2X 6427   4.948   2.834   5.866  0.3323  2.3511  1.0694
   73SLPC   H2Y 6428   4.854   2.979   5.903 -1.0999  0.5522 -0.9305
   73SLPC   C23 6429   4.426   3.214   5.978 -0.0325  0.1105 -0.1006
   73SLPC   H3R 6430   4.483   3.279   6.047  0.8099  1.8213 -2.2779
   73SLPC   H3S 6431   4.339   3.273   5.942  0.0584  0.3838  0.1349
   73SLPC   C24 6432   4.510   3.207   5.843 -0.4017  0.0444  0.0505
   73SLPC   H4R 6433   4.436   3.158   5.776 -0.0962  1.6810 -1.5448
   73SLPC   H4S 6434   4.597   3.141   5.861 -1.9511 -2.4746 -1.0625
   73SLPC   C25 6435   4.540   3.345   5.792 -0.3383  0.0996  0.3825
   73SLPC   H5R 6436   4.585   3.405   5.874  0.2766  0.8371 -0.4756
   73SLPC   H5S 6437   4.451   3.406   5.764 -0.9897 -0.1743  1.7768
   73SLPC   C26 6438   4.631   3.345   5.671  0.0681 -0.4910 -0.1994
   73SLPC   H6R 6439   4.716   3.274   5.680  2.0619  1.9312  1.6507
   73SLPC   H6S 6440   4.671   3.448   5.663 -0.7912 -0.0601  0.8100
   73SLPC   C27 6441   4.555   3.323   5.536 -0.1679  0.3545 -0.3403
   73SLPC   H7R 6442   4.478   3.402   5.526 -0.8940  0.2469  3.1126
   73SLPC   H7S 6443   4.487   3.236   5.536 -0.2394  0.4015  0.5368
   73SLPC   C28 6444   4.659   3.317   5.417 -0.4728  0.0527  0.3708
   73SLPC   H8R 6445   4.693   3.211   5.412 -0.2670  0.1251  0.2361
   73SLPC   H8S 6446   4.745   3.381   5.444  0.7227  0.3034 -3.4599
   73SLPC   C29 6447   4.599   3.364   5.286  0.0218 -0.3724 -0.2223
   73SLPC   H9R 6448   4.489   3.371   5.285  0.0580  0.1978 -0.6113
   73SLPC  C210 6449   4.667   3.400   5.172  0.5002 -0.3955  0.2445
   73SLPC  H10R 6450   4.617   3.426   5.078  3.6081  2.8384 -0.7543
   73SLPC  C211 6451   4.816   3.397   5.164  0.6283 -0.0460 -0.1564
   73SLPC  H11R 6452   4.835   3.360   5.061 -3.2837  3.5053 -2.4745
   73SLPC  H11S 6453   4.864   3.326   5.234  1.2557 -0.7328 -1.2579
   73SLPC  C212 6454   4.875   3.534   5.190  0.3773 -0.0531  0.0746
   73SLPC  H12R 6455   4.936   3.536   5.282 -0.4885 -0.7044  0.6846
   73SLPC  C213 6456   4.864   3.659   5.126 -0.7160  0.7515 -0.1030
   73SLPC  H13R 6457   4.911   3.751   5.164 -1.5831  0.5116  1.6689
   73SLPC  C214 6458   4.784   3.679   5.000  0.1066  0.5988 -0.7368
   73SLPC  H14R 6459   4.715   3.766   5.010 -1.5168 -0.8752  2.0824
   73SLPC  H14S 6460   4.718   3.590   4.987 -0.1049  0.0010  3.2045
   73SLPC  C215 6461   4.860   3.699   4.872 -0.4696  0.3738 -0.1227
   73SLPC  H15R 6462   4.914   3.605   4.852 -0.9803  0.2459 -0.9790
   73SLPC  H15S 6463   4.925   3.789   4.869  1.6461 -1.0318  1.1847
   73SLPC  C216 6464   4.759   3.719   4.751 -0.6110 -0.3506  1.1320
   73SLPC  H16R 6465   4.691   3.803   4.781 -1.4784 -0.6120 -0.0318
   73SLPC  H16S 6466   4.691   3.637   4.721 -1.1177  1.1420 -2.3534
   73SLPC  C217 6467   4.827   3.761   4.616 -0.2036 -0.0231 -0.8578
   73SLPC  H17R 6468   4.872   3.667   4.579 -1.7922 -1.1122 -0.1454
   73SLPC  H17S 6469   4.901   3.844   4.625 -0.3449  0.0267  0.0246
   73SLPC  C218 6470   4.725   3.797   4.509  0.1920 -0.2243  0.3716
   73SLPC  H18R 6471   4.656   3.879   4.539  2.3140  1.5911  0.4804
   73SLPC  H18S 6472   4.662   3.708   4.487  0.7109 -0.4309 -0.2970
   73SLPC  H18T 6473   4.769   3.815   4.409 -0.2772  0.8283  0.3385
   73SLPC   C33 6474   4.772   2.848   5.750  0.2335 -0.4432  0.0959
   73SLPC   H3X 6475   4.667   2.884   5.763  0.2909  0.6132 -1.9436
   73SLPC   H3Y 6476   4.771   2.740   5.727 -1.8468 -0.8183  1.5887
   73SLPC   C34 6477   4.843   2.928   5.638  0.0972 -0.0638 -0.0301
   73SLPC   H4X 6478   4.952   2.906   5.634  0.3092  0.6288  1.1941
   73SLPC   H4Y 6479   4.827   3.036   5.656  0.5825  0.0853 -0.4702
   73SLPC   C35 6480   4.790   2.893   5.503 -0.7144 -0.7900  0.4393
   73SLPC   H5X 6481   4.683   2.924   5.504 -0.4869  0.3033  3.7982
   73SLPC   H5Y 6482   4.794   2.782   5.495 -0.0070 -0.7817  0.6591
   73SLPC   C36 6483   4.872   2.960   5.389  0.2698 -0.1116 -0.0909
   73SLPC   H6X 6484   4.977   2.928   5.405 -0.1828 -0.5958  2.4907
   73SLPC   H6Y 6485   4.868   3.071   5.388  1.5259 -0.0535 -0.7697
   73SLPC   C37 6486   4.814   2.918   5.251  0.1371  0.1008 -0.4175
   73SLPC   H7X 6487   4.794   2.809   5.263  0.7806  0.0839  0.6576
   73SLPC   H7Y 6488   4.901   2.934   5.184  0.5512  1.2176  0.3633
   73SLPC   C38 6489   4.684   2.990   5.206 -0.1329 -0.6557 -0.2405
   73SLPC   H8X 6490   4.705   3.098   5.222  3.5871 -1.4267  1.0692
   73SLPC   H8Y 6491   4.593   2.962   5.265 -0.4938  0.1402 -0.4048
   73SLPC   C39 6492   4.636   2.961   5.061  0.1769 -0.2171 -0.3356
   73SLPC   H9X 6493   4.540   3.004   5.026  0.0215 -0.4608 -0.2125
   73SLPC   H9Y 6494   4.618   2.851   5.055  4.0076 -1.0604  0.6985
   73SLPC  C310 6495   4.741   3.019   4.957  0.2204 -0.0572 -0.3668
   73SLPC  H10X 6496   4.794   2.929   4.920  1.2500  0.3191  0.1697
   73SLPC  H10Y 6497   4.814   3.082   5.013 -1.2160 -0.8239  2.5874
   73SLPC  C311 6498   4.661   3.092   4.847 -0.4048 -0.4367 -0.1019
   73SLPC  H11X 6499   4.621   3.184   4.896  0.7709 -0.9247  1.8882
   73SLPC  H11Y 6500   4.576   3.029   4.813 -1.1160 -1.3174  2.9392
   73SLPC  C312 6501   4.750   3.137   4.732 -0.0794 -0.1199  0.8626
   73SLPC  H12X 6502   4.808   3.050   4.696  0.2333  0.1833  0.6249
   73SLPC  H12Y 6503   4.829   3.208   4.766 -0.7350  2.0126 -1.6626
   73SLPC  C313 6504   4.678   3.194   4.608  0.4337  0.4001 -1.1615
   73SLPC  H13X 6505   4.641   3.295   4.636  0.7394 -0.3024  2.2922
   73SLPC  H13Y 6506   4.594   3.124   4.588  0.0739  0.5863 -0.3646
   73SLPC  C314 6507   4.767   3.207   4.491 -0.6864 -0.1805  0.3764
   73SLPC  H14X 6508   4.790   3.111   4.439  0.7442  1.3978 -2.1367
   73SLPC  H14Y 6509   4.860   3.257   4.524 -0.0305  0.2470 -1.9181
   73SLPC  C315 6510   4.702   3.295   4.377  0.6444 -1.0920 -0.7180
   73SLPC  H15X 6511   4.688   3.398   4.416 -1.8316 -1.0704 -1.5265
   73SLPC  H15Y 6512   4.601   3.258   4.349 -0.6693  1.1619  0.6495
   73SLPC  C316 6513   4.783   3.320   4.248  0.4383 -0.0903  0.1962
   73SLPC  H16X 6514   4.758   3.240   4.174  3.2303 -1.4951  0.6228
   73SLPC  H16Y 6515   4.892   3.311   4.266  0.2481 -1.9789  0.6495
   73SLPC  C317 6516   4.759   3.460   4.187 -0.4670  0.3697 -0.2895
   73SLPC  H17X 6517   4.828   3.465   4.101  0.0967  1.8653  0.2164
   73SLPC  H17Y 6518   4.792   3.540   4.256 -2.2706  1.0659 -0.1896
   73SLPC  C318 6519   4.620   3.495   4.138 -0.5469 -1.0332 -0.5106
   73SLPC  H18X 6520   4.560   3.495   4.232  0.0497 -4.3238  0.0181
   73SLPC  H18Y 6521   4.573   3.424   4.067 -0.2167 -2.7081  0.8666
   73SLPC  H18Z 6522   4.623   3.598   4.098 -1.8403 -0.8629 -0.2095
   74SLPC     N 6523   3.363   6.099   6.400 -0.5174 -0.6608  0.7577
   74SLPC   C13 6524   3.492   6.031   6.451 -0.4086  0.3089 -0.2341
   74SLPC  H13A 6525   3.509   5.928   6.420  3.4438  0.6646  0.1415
   74SLPC  H13B 6526   3.578   6.075   6.403 -0.7818 -0.7141 -1.9235
   74SLPC  H13C 6527   3.521   6.054   6.552 -0.7228  1.1416 -0.3261
   74SLPC   C14 6528   3.262   6.074   6.502 -0.0591 -0.0282  0.0378
   74SLPC  H14A 6529   3.168   6.124   6.482 -0.1638  0.6059  1.9458
   74SLPC  H14B 6530   3.241   5.969   6.515 -0.6547  0.2508  1.4638
   74SLPC  H14C 6531   3.284   6.120   6.597 -0.3762  0.9494 -0.3422
   74SLPC   C15 6532   3.323   6.029   6.272 -0.4762  0.0197  0.2334
   74SLPC  H15A 6533   3.394   6.073   6.204  0.9692 -0.0110  1.6424
   74SLPC  H15B 6534   3.330   5.921   6.274 -0.0648  0.0260 -0.5713
   74SLPC  H15C 6535   3.225   6.062   6.242 -0.1852  0.9741  0.2996
   74SLPC   C12 6536   3.392   6.246   6.380  0.4389  0.3330 -0.3874
   74SLPC  H12A 6537   3.456   6.268   6.295  0.2734 -0.5611 -0.7526
   74SLPC  H12B 6538   3.459   6.273   6.460  0.5495 -0.4538 -0.2126
   74SLPC   C11 6539   3.279   6.352   6.379  0.1508  0.4885  0.0877
   74SLPC  H11A 6540   3.210   6.330   6.295 -2.7074  0.8511  2.1932
   74SLPC  H11B 6541   3.331   6.448   6.358  1.1681  0.8831  3.7112
   74SLPC     P 6542   3.090   6.463   6.525 -0.1700 -0.0794  0.1636
   74SLPC   O13 6543   3.018   6.425   6.652 -0.1928  0.1555 -0.3251
   74SLPC   O14 6544   3.134   6.606   6.519 -0.3674 -0.5201 -0.6719
   74SLPC   O12 6545   3.204   6.356   6.505  0.2080 -0.0024 -0.3639
   74SLPC   O11 6546   2.993   6.431   6.405  0.3761 -0.5382  0.4538
   74SLPC    C1 6547   2.941   6.298   6.384  0.2300  0.6749  0.5641
   74SLPC    HA 6548   2.993   6.222   6.446  0.5243  0.3815 -0.0235
   74SLPC    HB 6549   2.838   6.291   6.424  0.7308  0.4673  1.8413
   74SLPC    C2 6550   2.943   6.264   6.234  0.3617 -0.6075 -0.2976
   74SLPC    HS 6551   3.050   6.275   6.208 -0.0030  0.2834 -1.5089
   74SLPC   O21 6552   2.868   6.368   6.160  0.1824  0.3718 -0.0901
   74SLPC   C21 6553   2.918   6.422   6.053 -0.3793 -0.1519  0.5578
   74SLPC   O22 6554   3.026   6.392   6.001  0.1855  0.1141  0.3536
   74SLPC   C22 6555   2.833   6.542   6.003  0.6345  0.1717  0.0200
   74SLPC   H2R 6556   2.747   6.503   5.944  0.2483  3.1209 -1.5421
   74SLPC   H2S 6557   2.782   6.596   6.086  1.6766  0.5115  0.4566
   74SLPC    C3 6558   2.900   6.126   6.182  0.3331  0.2658  0.2043
   74SLPC    HX 6559   2.793   6.122   6.212  0.5997  0.3907  1.2071
   74SLPC    HY 6560   2.932   6.036   6.239 -1.7313 -0.1664  0.7484
   74SLPC   O31 6561   2.911   6.113   6.037  0.4222 -0.3458  0.3941
   74SLPC   C31 6562   3.025   6.061   5.995  0.5082 -0.2110 -0.6983
   74SLPC   O32 6563   3.119   6.024   6.065 -0.1922 -0.4780  0.1258
   74SLPC   C32 6564   2.999   6.033   5.840 -0.4482 -0.4541  0.5047
   74SLPC   H2X 6565   3.013   6.131   5.791 -2.0934 -0.3973  0.1057
   74SLPC   H2Y 6566   2.892   6.006   5.831 -0.7037  0.2734  1.2129
   74SLPC   C23 6567   2.925   6.643   5.925  0.9421 -0.8021  0.2274
   74SLPC   H3R 6568   3.031   6.629   5.955  0.6637  1.2762  2.5100
   74SLPC   H3S 6569   2.892   6.738   5.972 -2.1616 -1.4962 -0.2881
   74SLPC   C24 6570   2.898   6.653   5.774 -0.1600 -0.4430 -0.0923
   74SLPC   H4R 6571   2.790   6.665   5.752  0.0116  1.4010 -0.1387
   74SLPC   H4S 6572   2.949   6.567   5.725  6.0900  2.3701  0.4041
   74SLPC   C25 6573   2.974   6.772   5.717 -0.1871  0.1411 -0.2428
   74SLPC   H5R 6574   3.079   6.762   5.753 -0.0417  1.4038 -0.2800
   74SLPC   H5S 6575   2.931   6.867   5.757  0.9740 -0.1432  1.8166
   74SLPC   C26 6576   2.972   6.782   5.562  0.3028 -0.4927  0.1083
   74SLPC   H6R 6577   3.033   6.698   5.522  1.2847  1.8172 -3.7733
   74SLPC   H6S 6578   3.023   6.879   5.542  0.9769 -0.8873 -0.1525
   74SLPC   C27 6579   2.828   6.784   5.495  0.8953  0.4168 -0.0973
   74SLPC   H7R 6580   2.775   6.863   5.554  3.8874  1.3414  1.5594
   74SLPC   H7S 6581   2.778   6.689   5.523  1.6871  0.7633  2.8114
   74SLPC   C28 6582   2.823   6.817   5.343 -0.7218 -0.3039  0.0040
   74SLPC   H8R 6583   2.873   6.915   5.327  0.2616 -0.9558 -1.0593
   74SLPC   H8S 6584   2.714   6.828   5.327 -0.5431 -0.1253 -1.1845
   74SLPC   C29 6585   2.892   6.719   5.245  0.1954  0.1523  0.2693
   74SLPC   H9R 6586   3.001   6.706   5.258  1.0217  2.7567 -2.7833
   74SLPC  C210 6587   2.848   6.677   5.128 -0.1511 -0.3231  0.4387
   74SLPC  H10R 6588   2.914   6.602   5.081 -0.8149 -0.8019  0.2587
   74SLPC  C211 6589   2.711   6.706   5.068 -0.2094  0.1470 -0.0643
   74SLPC  H11R 6590   2.657   6.780   5.131  0.0692  0.6629 -0.4191
   74SLPC  H11S 6591   2.656   6.612   5.089  1.0752 -0.2677  1.6287
   74SLPC  C212 6592   2.704   6.733   4.920 -0.2026  0.6470 -1.0681
   74SLPC  H12R 6593   2.766   6.670   4.853 -1.0402  0.2600 -1.5013
   74SLPC  C213 6594   2.624   6.818   4.860  0.7484  0.1310  0.0536
   74SLPC  H13R 6595   2.610   6.818   4.751  1.4045  0.2853 -0.0388
   74SLPC  C214 6596   2.523   6.898   4.943 -0.4591 -0.2624  0.1348
   74SLPC  H14R 6597   2.570   6.993   4.976 -1.2897 -0.1727  1.0998
   74SLPC  H14S 6598   2.484   6.843   5.031  0.5118  0.0570  0.7770
   74SLPC  C215 6599   2.407   6.925   4.846 -0.1362  0.3235  0.2033
   74SLPC  H15R 6600   2.366   6.826   4.818 -0.2692  0.1410  1.0008
   74SLPC  H15S 6601   2.427   6.973   4.748 -3.7897  0.1360 -0.7708
   74SLPC  C216 6602   2.289   7.008   4.900 -0.0025 -0.0661 -0.4746
   74SLPC  H16R 6603   2.333   7.108   4.921 -1.2044  0.1969  0.8974
   74SLPC  H16S 6604   2.257   6.969   4.999 -0.9211 -0.0000 -0.7347
   74SLPC  C217 6605   2.167   7.029   4.808 -0.1897  0.2989 -0.4054
   74SLPC  H17R 6606   2.156   6.936   4.748  2.0433 -0.7021  0.6140
   74SLPC  H17S 6607   2.193   7.105   4.731  1.0130 -0.5694 -0.8848
   74SLPC  C218 6608   2.049   7.061   4.892 -0.1504 -0.0330  0.8392
   74SLPC  H18R 6609   2.057   7.170   4.911 -0.2021  0.6955 -2.6600
   74SLPC  H18S 6610   2.057   7.003   4.986 -1.5781 -2.1201 -0.2422
   74SLPC  H18T 6611   1.950   7.035   4.848  0.7734 -1.3773 -0.5569
   74SLPC   C33 6612   3.104   5.924   5.796 -0.1239 -0.8766  0.5907
   74SLPC   H3X 6613   3.062   5.827   5.828  0.4845 -1.8029 -1.2843
   74SLPC   H3Y 6614   3.205   5.933   5.842  0.6310  0.9421 -1.2427
   74SLPC   C34 6615   3.137   5.932   5.651 -0.6648 -0.9020 -0.7014
   74SLPC   H4X 6616   3.227   5.867   5.645  0.7298  0.4986  2.7117
   74SLPC   H4Y 6617   3.178   6.027   5.610  1.2697 -1.2741  0.2831
   74SLPC   C35 6618   3.027   5.886   5.555  0.2166  0.4153 -0.0299
   74SLPC   H5X 6619   2.939   5.952   5.567 -0.0943  0.0450 -0.2498
   74SLPC   H5Y 6620   3.003   5.783   5.589 -1.7013  1.4497  2.0567
   74SLPC   C36 6621   3.085   5.883   5.413  0.3446 -0.0553  0.3398
   74SLPC   H6X 6622   3.162   5.803   5.417 -0.1885 -0.5310  1.8772
   74SLPC   H6Y 6623   3.127   5.981   5.384 -0.6221  0.4104  0.4735
   74SLPC   C37 6624   2.982   5.845   5.313 -0.0097  0.2478  0.1698
   74SLPC   H7X 6625   2.891   5.905   5.337 -0.8851  1.3096 -4.8131
   74SLPC   H7Y 6626   2.953   5.739   5.329  0.1133  0.6277  3.9890
   74SLPC   C38 6627   3.012   5.882   5.168  0.1237  0.1446  0.0668
   74SLPC   H8X 6628   3.050   5.986   5.161  0.7753 -0.0839  0.2201
   74SLPC   H8Y 6629   2.913   5.876   5.118 -0.9246 -0.0181  2.0504
   74SLPC   C39 6630   3.117   5.797   5.091 -0.0796 -0.3195  0.6462
   74SLPC   H9X 6631   3.086   5.690   5.097  0.4157 -0.5243 -0.2634
   74SLPC   H9Y 6632   3.213   5.787   5.147 -0.6840 -0.0094  1.7822
   74SLPC  C310 6633   3.131   5.825   4.943 -0.3300 -0.0933 -0.2029
   74SLPC  H10X 6634   3.206   5.751   4.907 -0.6671  0.3955 -2.0068
   74SLPC  H10Y 6635   3.174   5.926   4.924  0.2754 -0.1773  0.6496
   74SLPC  C311 6636   3.003   5.804   4.864 -0.5418 -0.5163  0.0766
   74SLPC  H11X 6637   2.917   5.863   4.902  0.1373  0.8958 -0.4968
   74SLPC  H11Y 6638   2.974   5.698   4.876 -1.4410 -0.3273 -0.3609
   74SLPC  C312 6639   3.016   5.831   4.714  1.3712  0.3011 -0.5861
   74SLPC  H12X 6640   3.086   5.765   4.659 -1.1755 -0.2854 -3.4118
   74SLPC  H12Y 6641   3.073   5.926   4.706  0.2285  1.0999  0.2865
   74SLPC  C313 6642   2.885   5.857   4.646  0.1270 -0.2768  0.3129
   74SLPC  H13X 6643   2.803   5.789   4.675  1.3580 -1.2327  1.7186
   74SLPC  H13Y 6644   2.894   5.828   4.539  0.6349 -1.1800  0.5948
   74SLPC  C314 6645   2.840   6.008   4.644 -0.6173  0.0867  0.8615
   74SLPC  H14X 6646   2.925   6.069   4.606 -2.1281  1.8075  0.0515
   74SLPC  H14Y 6647   2.809   6.040   4.746  1.3132  0.2058  1.4510
   74SLPC  C315 6648   2.711   6.030   4.556 -0.1816  0.0868  0.2153
   74SLPC  H15X 6649   2.684   6.129   4.597  1.2709  0.1317  1.1301
   74SLPC  H15Y 6650   2.633   5.954   4.579  0.8021 -0.7730  0.8151
   74SLPC  C316 6651   2.739   6.047   4.408  0.3654 -0.2696 -0.2325
   74SLPC  H16X 6652   2.783   5.952   4.371  0.7615  0.0830 -0.6780
   74SLPC  H16Y 6653   2.815   6.120   4.374  0.0524  0.7051  1.0953
   74SLPC  C317 6654   2.610   6.060   4.331 -0.1046  0.2157 -0.4256
   74SLPC  H17X 6655   2.551   5.971   4.363  1.3425 -0.9486 -0.8965
   74SLPC  H17Y 6656   2.635   6.047   4.224  3.3692  1.6727  0.0839
   74SLPC  C318 6657   2.538   6.191   4.354 -0.1867  0.0337  0.2105
   74SLPC  H18X 6658   2.435   6.173   4.315 -0.0975 -1.2623  0.5169
   74SLPC  H18Y 6659   2.589   6.273   4.299 -1.1833  0.4883 -0.0740
   74SLPC  H18Z 6660   2.523   6.218   4.461 -0.1944 -1.9296  0.7384
   75SLPC     N 6661   4.180   4.355   6.894  0.0364 -0.7820 -0.3383
   75SLPC   C13 6662   4.184   4.372   7.040 -0.2933  0.3240 -0.0601
   75SLPC  H13A 6663   4.081   4.375   7.075 -0.1870  1.4631  0.1916
   75SLPC  H13B 6664   4.233   4.284   7.080  2.5015  2.1195  0.7011
   75SLPC  H13C 6665   4.240   4.459   7.071 -0.9954  0.8013 -0.1004
   75SLPC   C14 6666   4.324   4.338   6.849 -0.7570  0.6232  0.3975
   75SLPC  H14A 6667   4.331   4.311   6.745 -0.0920 -0.7383  0.7812
   75SLPC  H14B 6668   4.382   4.429   6.845 -0.6465  0.5505  0.3498
   75SLPC  H14C 6669   4.369   4.275   6.924  0.1248  2.3527  1.3894
   75SLPC   C15 6670   4.120   4.472   6.819  0.6376  0.8041  0.3666
   75SLPC  H15A 6671   4.018   4.478   6.852  0.7556 -2.0690  1.5563
   75SLPC  H15B 6672   4.188   4.554   6.800  0.1814  0.6842 -2.1321
   75SLPC  H15C 6673   4.095   4.437   6.720  3.5761  0.0572 -0.2073
   75SLPC   C12 6674   4.099   4.237   6.859  0.0982 -0.1545 -0.4054
   75SLPC  H12A 6675   4.000   4.257   6.899  0.0883  1.8425 -1.3460
   75SLPC  H12B 6676   4.130   4.159   6.927 -2.6132 -2.2133 -1.3261
   75SLPC   C11 6677   4.087   4.179   6.717  0.0363 -0.1619 -0.2455
   75SLPC  H11A 6678   4.047   4.076   6.725  1.4196 -0.8136 -1.2924
   75SLPC  H11B 6679   4.184   4.186   6.663 -0.6444  0.3294 -1.4401
   75SLPC     P 6680   3.848   4.231   6.613 -0.0294 -0.2101  0.2859
   75SLPC   O13 6681   3.777   4.276   6.741  0.6395  0.2178  0.2211
   75SLPC   O14 6682   3.807   4.293   6.481 -0.0258 -0.0317  0.2088
   75SLPC   O12 6683   4.001   4.257   6.633  0.5508  0.7685 -0.3172
   75SLPC   O11 6684   3.834   4.078   6.612  0.3137  0.2172  0.1585
   75SLPC    C1 6685   3.875   3.997   6.499 -0.5657  0.1837 -0.0152
   75SLPC    HA 6686   3.956   4.051   6.445 -1.9663  1.2119 -1.1400
   75SLPC    HB 6687   3.919   3.910   6.552 -0.9260  1.6914  3.0311
   75SLPC    C2 6688   3.766   3.941   6.409  0.0481  0.1325  0.3451
   75SLPC    HS 6689   3.817   3.848   6.377 -0.9080 -0.0313 -0.7627
   75SLPC   O21 6690   3.724   4.027   6.303  0.2009 -0.6121  0.5817
   75SLPC   C21 6691   3.810   4.078   6.214 -0.7000  0.7568 -0.6961
   75SLPC   O22 6692   3.931   4.057   6.216 -0.5081  0.8473 -0.2770
   75SLPC   C22 6693   3.745   4.152   6.101  0.0978 -0.2101 -0.1713
   75SLPC   H2R 6694   3.640   4.115   6.098 -0.0434  0.1821 -0.0982
   75SLPC   H2S 6695   3.749   4.257   6.137  1.1323 -0.1601 -0.4138
   75SLPC    C3 6696   3.639   3.903   6.489  0.8805 -0.1786 -0.0837
   75SLPC    HX 6697   3.578   3.993   6.510  0.0396 -1.2529  2.4906
   75SLPC    HY 6698   3.673   3.869   6.590  0.0121 -0.3920  0.1489
   75SLPC   O31 6699   3.557   3.813   6.418 -0.1126  0.3653 -0.0983
   75SLPC   C31 6700   3.576   3.681   6.431  0.2539 -0.4694 -0.1442
   75SLPC   O32 6701   3.663   3.628   6.498 -0.4710  0.3559  0.0789
   75SLPC   C32 6702   3.465   3.616   6.339 -0.1857 -0.3312 -0.9268
   75SLPC   H2X 6703   3.365   3.646   6.377  0.5338 -0.2849  1.0689
   75SLPC   H2Y 6704   3.489   3.508   6.342  1.2948 -0.0015  0.0519
   75SLPC   C23 6705   3.804   4.149   5.957 -0.2598 -0.4666 -0.6906
   75SLPC   H3R 6706   3.775   4.056   5.904 -2.1984  0.0610 -0.6055
   75SLPC   H3S 6707   3.914   4.137   5.971 -0.7391 -3.0315  1.8297
   75SLPC   C24 6708   3.752   4.259   5.870 -0.1588  0.4812 -0.5739
   75SLPC   H4R 6709   3.742   4.357   5.921 -0.9487 -0.6482  1.5488
   75SLPC   H4S 6710   3.651   4.234   5.830 -0.7333  3.6269 -1.4261
   75SLPC   C25 6711   3.834   4.285   5.736  0.1962 -0.0176 -0.8208
   75SLPC   H5R 6712   3.838   4.191   5.677 -1.0811 -0.0568 -0.8786
   75SLPC   H5S 6713   3.939   4.307   5.762 -0.6562  2.1011  1.2288
   75SLPC   C26 6714   3.767   4.389   5.655 -0.2220  0.3423 -0.3100
   75SLPC   H6R 6715   3.660   4.362   5.642  0.4923 -1.8488 -2.1182
   75SLPC   H6S 6716   3.808   4.384   5.552 -0.9723 -1.4540 -0.5631
   75SLPC   C27 6717   3.779   4.538   5.708  0.1103 -0.8118 -0.3241
   75SLPC   H7R 6718   3.871   4.538   5.770 -1.2537 -0.6431  1.8152
   75SLPC   H7S 6719   3.701   4.572   5.780 -0.4196  1.9154 -2.0467
   75SLPC   C28 6720   3.793   4.650   5.603  0.0105  0.2991  0.6359
   75SLPC   H8R 6721   3.879   4.626   5.537 -1.1335 -1.3963 -0.3305
   75SLPC   H8S 6722   3.822   4.745   5.652  2.3129 -0.1693  0.2735
   75SLPC   C29 6723   3.680   4.658   5.506 -0.7625 -0.6086 -0.3333
   75SLPC   H9R 6724   3.594   4.602   5.545 -2.2460  2.0483  0.4473
   75SLPC  C210 6725   3.688   4.711   5.383  0.4232 -0.5962  0.9158
   75SLPC  H10R 6726   3.602   4.705   5.314  0.7202 -1.7655  0.6259
   75SLPC  C211 6727   3.806   4.781   5.323 -0.2520  0.4013  1.0027
   75SLPC  H11R 6728   3.867   4.832   5.401 -0.7586 -0.5797  2.0727
   75SLPC  H11S 6729   3.775   4.858   5.250  3.7988  1.9801  0.7008
   75SLPC  C212 6730   3.896   4.678   5.255 -0.1609 -0.7388 -0.3527
   75SLPC  H12R 6731   3.914   4.582   5.304  3.1449 -0.9380 -1.6683
   75SLPC  C213 6732   3.985   4.698   5.154  1.4090 -0.1280  0.3744
   75SLPC  H13R 6733   4.045   4.616   5.113  2.2958  0.3474  0.6968
   75SLPC  C214 6734   4.001   4.835   5.088 -0.5963 -0.3712  0.2165
   75SLPC  H14R 6735   4.107   4.856   5.060 -0.6709  0.9514  0.8418
   75SLPC  H14S 6736   3.967   4.918   5.155 -1.2127  0.3789 -1.0016
   75SLPC  C215 6737   3.939   4.857   4.948  0.7241 -0.2513  0.4276
   75SLPC  H15R 6738   3.963   4.955   4.902  0.4269 -0.0350  0.7356
   75SLPC  H15S 6739   3.829   4.871   4.956  0.8003  1.5781 -1.0155
   75SLPC  C216 6740   3.982   4.744   4.844  0.0690 -0.8746  0.5588
   75SLPC  H16R 6741   3.941   4.647   4.881 -0.9146 -1.1476 -1.1389
   75SLPC  H16S 6742   4.092   4.733   4.839 -0.0075 -0.9044 -1.9793
   75SLPC  C217 6743   3.934   4.773   4.699 -0.6896  0.3215 -0.2478
   75SLPC  H17R 6744   4.022   4.831   4.663 -1.0800  0.3599 -1.1601
   75SLPC  H17S 6745   3.838   4.828   4.690  0.2414  2.2768  0.9048
   75SLPC  C218 6746   3.932   4.652   4.609  0.2890  0.3453 -0.0309
   75SLPC  H18R 6747   3.877   4.685   4.519 -0.3199  1.6761  0.8030
   75SLPC  H18S 6748   3.880   4.563   4.652 -0.4553 -0.2259 -2.0102
   75SLPC  H18T 6749   4.037   4.620   4.590 -0.3103 -2.1995  0.4962
   75SLPC   C33 6750   3.465   3.662   6.192 -0.2327 -0.2948 -0.3505
   75SLPC   H3X 6751   3.454   3.773   6.195  0.0482 -0.2806  0.4984
   75SLPC   H3Y 6752   3.377   3.620   6.139  0.0323  4.0456 -5.0184
   75SLPC   C34 6753   3.587   3.631   6.119 -0.4201 -0.3728 -0.2614
   75SLPC   H4X 6754   3.620   3.525   6.121 -0.0349 -0.2764 -1.0447
   75SLPC   H4Y 6755   3.677   3.688   6.150  1.4765 -2.0596 -2.2977
   75SLPC   C35 6756   3.576   3.659   5.968  0.4622 -0.8522 -0.5458
   75SLPC   H5X 6757   3.481   3.626   5.920 -1.2612 -0.9048  2.6450
   75SLPC   H5Y 6758   3.657   3.597   5.924 -0.6807 -0.6745 -3.0902
   75SLPC   C36 6759   3.610   3.802   5.930 -0.1943 -1.3749 -0.6027
   75SLPC   H6X 6760   3.713   3.824   5.965 -1.2101  0.7192  1.3288
   75SLPC   H6Y 6761   3.538   3.871   5.978  1.9160 -0.2312  1.0832
   75SLPC   C37 6762   3.611   3.827   5.785  0.2388 -0.2410 -0.2718
   75SLPC   H7X 6763   3.672   3.756   5.725  0.1810  0.0276 -0.6556
   75SLPC   H7Y 6764   3.653   3.929   5.769 -1.1980  0.6885  1.5213
   75SLPC   C38 6765   3.468   3.836   5.726 -0.4465  0.0641  0.4713
   75SLPC   H8X 6766   3.413   3.905   5.794 -0.1360  0.3668  0.4143
   75SLPC   H8Y 6767   3.417   3.739   5.744 -1.6253  0.8504  1.5071
   75SLPC   C39 6768   3.462   3.885   5.576  0.4417  0.3837 -0.0174
   75SLPC   H9X 6769   3.517   3.982   5.571  1.0536  0.0648  0.3363
   75SLPC   H9Y 6770   3.355   3.900   5.549  0.4061 -0.6612 -0.5115
   75SLPC  C310 6771   3.508   3.775   5.479  0.0118  0.5024  0.2764
   75SLPC  H10X 6772   3.435   3.692   5.491 -1.6375  1.9136  0.5211
   75SLPC  H10Y 6773   3.613   3.744   5.498 -0.9733 -1.4933  3.1742
   75SLPC  C311 6774   3.517   3.824   5.333  0.0757  0.0666  0.4346
   75SLPC  H11X 6775   3.557   3.740   5.272 -2.2369 -1.9294  1.4889
   75SLPC  H11Y 6776   3.583   3.913   5.325  1.0105 -0.7086 -1.2131
   75SLPC  C312 6777   3.378   3.866   5.278 -0.0966  0.4309  0.1655
   75SLPC  H12X 6778   3.337   3.947   5.342 -0.2725  0.6528 -0.2177
   75SLPC  H12Y 6779   3.307   3.784   5.299 -0.3550  0.7919  0.7350
   75SLPC  C313 6780   3.373   3.913   5.133 -0.1798 -0.6297  0.2489
   75SLPC  H13X 6781   3.431   4.008   5.123 -0.9937  0.3349  3.4992
   75SLPC  H13Y 6782   3.270   3.950   5.114 -0.6594 -0.1447  3.2206
   75SLPC  C314 6783   3.405   3.808   5.023  0.3218  0.1828  0.1023
   75SLPC  H14X 6784   3.330   3.726   5.021 -0.0096  0.4909 -0.6881
   75SLPC  H14Y 6785   3.512   3.780   5.026 -0.0042 -1.0300  0.7051
   75SLPC  C315 6786   3.376   3.869   4.880 -0.1458  0.0067  0.2263
   75SLPC  H15X 6787   3.293   3.942   4.893 -0.7155 -0.5877  0.0031
   75SLPC  H15Y 6788   3.344   3.792   4.807 -0.4142  0.7060 -0.4144
   75SLPC  C316 6789   3.492   3.949   4.829 -0.1712  0.3337  1.3607
   75SLPC  H16X 6790   3.583   3.886   4.818 -1.2357 -0.9622 -0.7454
   75SLPC  H16Y 6791   3.512   4.030   4.903 -0.1521  0.8118  0.8429
   75SLPC  C317 6792   3.454   4.009   4.691 -0.2378  0.7017 -0.4577
   75SLPC  H17X 6793   3.376   4.086   4.706  0.4188  1.2845  0.0011
   75SLPC  H17Y 6794   3.406   3.931   4.628 -1.0396  1.6723 -1.0649
   75SLPC  C318 6795   3.570   4.098   4.625 -0.6892  0.9267 -0.3702
   75SLPC  H18X 6796   3.664   4.040   4.622 -1.1803 -0.1861  2.2146
   75SLPC  H18Y 6797   3.590   4.188   4.688  0.4240  1.1524 -1.0287
   75SLPC  H18Z 6798   3.540   4.127   4.522  1.0440  0.5322 -1.0221
   76SLPC     N 6799   5.543   2.034   6.913 -0.1293 -0.1573  1.0832
   76SLPC   C13 6800   5.554   1.947   7.035  0.9978 -0.2950  0.4886
   76SLPC  H13A 6801   5.566   1.843   7.007  2.1214  0.4159 -1.9635
   76SLPC  H13B 6802   5.637   1.982   7.096  2.0697 -1.8313 -0.0156
   76SLPC  H13C 6803   5.463   1.950   7.092  0.4689 -0.4363 -0.3396
   76SLPC   C14 6804   5.635   1.986   6.812 -0.5373  0.2517 -0.1458
   76SLPC  H14A 6805   5.641   2.045   6.721 -1.1375  1.5926  0.6640
   76SLPC  H14B 6806   5.734   1.979   6.854 -0.4006 -0.7276 -0.5974
   76SLPC  H14C 6807   5.611   1.883   6.786 -1.7714  0.9689 -2.1141
   76SLPC   C15 6808   5.582   2.170   6.952  0.5635 -0.1306 -0.3666
   76SLPC  H15A 6809   5.687   2.176   6.975  0.7094 -0.1868 -1.0131
   76SLPC  H15B 6810   5.556   2.243   6.877 -0.2533 -0.7633 -0.7155
   76SLPC  H15C 6811   5.526   2.201   7.039 -0.3265 -0.4311 -0.8141
   76SLPC   C12 6812   5.402   2.031   6.864  0.0770 -0.5918  0.1641
   76SLPC  H12A 6813   5.418   2.069   6.765  0.8777 -0.2061  0.4381
   76SLPC  H12B 6814   5.349   2.102   6.926  2.0461 -0.2354  1.5264
   76SLPC   C11 6815   5.314   1.900   6.854  0.1342 -0.1327  0.7702
   76SLPC  H11A 6816   5.210   1.940   6.856  0.3352  0.4371  0.1254
   76SLPC  H11B 6817   5.334   1.835   6.942 -0.2814 -3.0199 -1.1413
   76SLPC     P 6818   5.399   1.688   6.723 -0.4968 -0.0726 -0.0119
   76SLPC   O13 6819   5.520   1.686   6.803 -0.2982  0.0538 -0.2192
   76SLPC   O14 6820   5.295   1.584   6.747 -0.0378  0.1081  0.5476
   76SLPC   O12 6821   5.330   1.833   6.725 -0.3615 -0.2336 -0.2082
   76SLPC   O11 6822   5.438   1.678   6.570  0.8008 -0.4718 -0.4507
   76SLPC    C1 6823   5.511   1.784   6.506 -0.7070  0.0628 -0.7605
   76SLPC    HA 6824   5.441   1.866   6.476  0.7516  1.4905 -0.3951
   76SLPC    HB 6825   5.586   1.828   6.574 -1.0924 -2.2707  1.3111
   76SLPC    C2 6826   5.581   1.728   6.379 -0.3065 -0.3487 -0.0969
   76SLPC    HS 6827   5.637   1.804   6.320  0.9258 -0.4462  0.8972
   76SLPC   O21 6828   5.498   1.655   6.289 -0.2773  0.5231  0.1887
   76SLPC   C21 6829   5.398   1.727   6.224  0.1860 -0.1294 -1.5331
   76SLPC   O22 6830   5.384   1.848   6.231 -0.9824 -0.4512 -0.2618
   76SLPC   C22 6831   5.308   1.643   6.140 -0.0520  0.0888  0.5345
   76SLPC   H2R 6832   5.365   1.553   6.109  0.9388  0.3256  1.6263
   76SLPC   H2S 6833   5.226   1.603   6.203  0.7749 -2.1270  0.2989
   76SLPC    C3 6834   5.694   1.633   6.429 -0.9131  0.1776 -0.2331
   76SLPC    HX 6835   5.636   1.553   6.478 -2.4931  0.9874 -0.7022
   76SLPC    HY 6836   5.769   1.670   6.503  0.9221 -0.8425 -1.5030
   76SLPC   O31 6837   5.770   1.583   6.316  0.2781 -0.1199  0.6665
   76SLPC   C31 6838   5.746   1.461   6.268  0.1629  0.0602  0.0007
   76SLPC   O32 6839   5.675   1.379   6.320  0.2286  0.0249 -0.0067
   76SLPC   C32 6840   5.821   1.443   6.135  1.3349 -0.7666  0.4226
   76SLPC   H2X 6841   5.807   1.338   6.103  2.1914 -1.1163  1.1647
   76SLPC   H2Y 6842   5.930   1.464   6.141  1.1820  0.3827 -0.4458
   76SLPC   C23 6843   5.250   1.713   6.018 -0.6471 -0.5975 -0.5621
   76SLPC   H3R 6844   5.203   1.809   6.048  1.0998  0.4282 -0.9487
   76SLPC   H3S 6845   5.179   1.645   5.965 -0.3191 -0.2451 -1.4688
   76SLPC   C24 6846   5.362   1.732   5.909  0.2899 -0.2457 -0.2036
   76SLPC   H4R 6847   5.383   1.634   5.861  1.8114  0.5306 -1.1873
   76SLPC   H4S 6848   5.458   1.760   5.957  0.4311 -1.0760  0.0174
   76SLPC   C25 6849   5.316   1.822   5.796  0.4081 -0.2970 -0.4279
   76SLPC   H5R 6850   5.254   1.907   5.832  0.6576 -0.5643  0.6605
   76SLPC   H5S 6851   5.236   1.761   5.749  1.2906 -0.8354 -1.2733
   76SLPC   C26 6852   5.418   1.846   5.683  0.5646 -0.2510 -0.3981
   76SLPC   H6R 6853   5.518   1.869   5.725  0.1748  0.3142  0.2497
   76SLPC   H6S 6854   5.394   1.945   5.637 -1.3498 -1.0858 -1.3189
   76SLPC   C27 6855   5.441   1.726   5.586  0.5177  0.7219  0.0769
   76SLPC   H7R 6856   5.342   1.694   5.547  0.6020 -1.9565  1.8500
   76SLPC   H7S 6857   5.492   1.644   5.640  0.9038  0.7802 -0.1987
   76SLPC   C28 6858   5.523   1.761   5.459 -0.4879  0.3299 -0.9543
   76SLPC   H8R 6859   5.551   1.673   5.397  1.1978 -0.2571  0.5383
   76SLPC   H8S 6860   5.623   1.801   5.487 -0.6875  0.4007 -0.3149
   76SLPC   C29 6861   5.443   1.863   5.383  0.4578  0.5421 -0.7622
   76SLPC   H9R 6862   5.426   1.951   5.446  0.6201  0.2733 -0.3446
   76SLPC  C210 6863   5.395   1.847   5.259 -0.4437 -0.1477 -0.6073
   76SLPC  H10R 6864   5.337   1.932   5.220  0.1004  0.3894 -0.2632
   76SLPC  C211 6865   5.403   1.729   5.164 -0.0949 -0.0101 -0.2443
   76SLPC  H11R 6866   5.304   1.721   5.115  0.6360  0.3762 -1.8559
   76SLPC  H11S 6867   5.421   1.632   5.217  0.3831 -0.7750 -1.7389
   76SLPC  C212 6868   5.519   1.748   5.074  0.5712 -0.9221 -0.4190
   76SLPC  H12R 6869   5.616   1.724   5.120  0.2606 -0.6493  0.4000
   76SLPC  C213 6870   5.514   1.777   4.946 -0.9732 -0.6728  0.4152
   76SLPC  H13R 6871   5.608   1.803   4.896 -0.7272 -0.0797  1.1624
   76SLPC  C214 6872   5.386   1.801   4.872  0.1548  1.1984  0.2620
   76SLPC  H14R 6873   5.322   1.887   4.902 -1.0753  0.5418 -0.4173
   76SLPC  H14S 6874   5.328   1.707   4.880  1.6648 -0.0360 -2.2793
   76SLPC  C215 6875   5.401   1.823   4.722  0.0926 -0.2826  0.1260
   76SLPC  H15R 6876   5.311   1.799   4.661 -1.0260 -0.4061  1.7685
   76SLPC  H15S 6877   5.472   1.748   4.681  1.6960  0.8698  0.6701
   76SLPC  C216 6878   5.448   1.964   4.675  0.2865  0.5266 -0.3169
   76SLPC  H16R 6879   5.543   1.970   4.733 -0.8468  0.5120  1.6366
   76SLPC  H16S 6880   5.383   2.049   4.705  0.0090 -0.2729  1.4536
   76SLPC  C217 6881   5.478   1.966   4.526 -0.8935  0.6705  0.6204
   76SLPC  H17R 6882   5.387   1.953   4.463  1.1351  0.2174 -2.4477
   76SLPC  H17S 6883   5.546   1.878   4.515 -2.7543 -0.6445 -1.3908
   76SLPC  C218 6884   5.546   2.098   4.484 -0.1605  0.0987  0.3838
   76SLPC  H18R 6885   5.651   2.092   4.521  0.5835  0.9616 -1.4511
   76SLPC  H18S 6886   5.492   2.186   4.525 -1.9550 -1.3479  1.2071
   76SLPC  H18T 6887   5.548   2.114   4.374 -1.2658 -0.0113  0.3358
   76SLPC   C33 6888   5.757   1.533   6.020 -0.4593 -0.6295 -0.9749
   76SLPC   H3X 6889   5.742   1.641   6.043  1.3041 -0.9650  2.3956
   76SLPC   H3Y 6890   5.659   1.485   6.002 -0.4422 -1.4580  0.8809
   76SLPC   C34 6891   5.842   1.530   5.897 -0.2969  0.0732 -0.1045
   76SLPC   H4X 6892   5.852   1.425   5.861  1.2053 -1.0333  3.1194
   76SLPC   H4Y 6893   5.947   1.562   5.915  0.6931 -2.0854 -1.5967
   76SLPC   C35 6894   5.771   1.616   5.789 -0.0208  0.0068  0.3839
   76SLPC   H5X 6895   5.722   1.702   5.839 -0.6706  0.2168 -0.5757
   76SLPC   H5Y 6896   5.681   1.559   5.761 -0.5010  0.4865  0.9409
   76SLPC   C36 6897   5.858   1.654   5.666 -0.3531 -0.1388  0.1309
   76SLPC   H6X 6898   5.961   1.685   5.694 -0.3543  2.4434 -2.2737
   76SLPC   H6Y 6899   5.813   1.741   5.613  0.8428  1.5429  1.7373
   76SLPC   C37 6900   5.858   1.541   5.561 -0.3582 -0.0409 -0.2133
   76SLPC   H7X 6901   5.754   1.521   5.527 -0.6454  0.2573  0.4633
   76SLPC   H7Y 6902   5.887   1.456   5.625  0.5602  1.4020  1.3746
   76SLPC   C38 6903   5.959   1.543   5.447 -0.4295 -0.4290 -0.2251
   76SLPC   H8X 6904   5.976   1.438   5.416  1.8948  0.4439 -2.1946
   76SLPC   H8Y 6905   6.049   1.587   5.495 -1.3173 -0.7028  1.7822
   76SLPC   C39 6906   5.915   1.621   5.324 -0.6882 -0.6168 -0.6046
   76SLPC   H9X 6907   5.913   1.730   5.345  0.3214 -0.6957 -0.0776
   76SLPC   H9Y 6908   5.811   1.598   5.291 -0.2915  0.0639 -2.4333
   76SLPC  C310 6909   6.003   1.591   5.205 -0.1553 -0.0117  0.2979
   76SLPC  H10X 6910   6.005   1.481   5.193 -1.6850 -0.0965  0.6492
   76SLPC  H10Y 6911   6.101   1.632   5.238  1.2888 -1.8497 -1.4743
   76SLPC  C311 6912   5.954   1.654   5.075 -0.4071  0.3920  0.0216
   76SLPC  H11X 6913   5.956   1.765   5.082 -1.3268  0.4370 -0.3137
   76SLPC  H11Y 6914   5.849   1.622   5.055 -0.6992  1.4514 -0.2207
   76SLPC  C312 6915   6.040   1.606   4.955 -0.3223 -1.0503 -0.5673
   76SLPC  H12X 6916   6.070   1.501   4.973  0.6639 -1.2966 -3.2650
   76SLPC  H12Y 6917   6.133   1.665   4.941  0.4933 -1.4975  2.2085
   76SLPC  C313 6918   5.966   1.598   4.815 -0.9148  0.3987 -0.6878
   76SLPC  H13X 6919   5.925   1.698   4.787 -2.6720 -0.0158  0.2891
   76SLPC  H13Y 6920   5.881   1.527   4.814 -2.4020  1.7446  3.9415
   76SLPC  C314 6921   6.060   1.565   4.699 -0.3582  0.1257 -0.5365
   76SLPC  H14X 6922   6.143   1.637   4.688 -0.8358  0.6821 -0.5715
   76SLPC  H14Y 6923   6.000   1.585   4.607 -0.5786  2.2347  0.0179
   76SLPC  C315 6924   6.107   1.419   4.709  0.3701 -0.7314 -0.0438
   76SLPC  H15X 6925   6.033   1.364   4.771  0.7546 -0.2492  0.8521
   76SLPC  H15Y 6926   6.204   1.409   4.761  0.3808 -1.5315 -0.1923
   76SLPC  C316 6927   6.108   1.346   4.581 -0.0030  0.7203 -0.0399
   76SLPC  H16X 6928   6.195   1.392   4.531  0.0336  2.8916  1.8751
   76SLPC  H16Y 6929   6.015   1.349   4.520 -1.0200  1.9060  1.4910
   76SLPC  C317 6930   6.143   1.202   4.592  0.0485  0.0908 -0.4698
   76SLPC  H17X 6931   6.069   1.138   4.644 -1.3536  1.1132 -1.1551
   76SLPC  H17Y 6932   6.240   1.185   4.643  1.1944  0.5247 -2.3957
   76SLPC  C318 6933   6.149   1.129   4.457  0.1570  0.1661  0.4168
   76SLPC  H18X 6934   6.045   1.107   4.425  0.0150  1.5761 -0.1682
   76SLPC  H18Y 6935   6.198   1.030   4.463  1.4537  0.6492 -1.3734
   76SLPC  H18Z 6936   6.209   1.191   4.387 -0.6552  0.2887 -0.1778
   77SLPC     N 6937   2.460   2.706   6.634  0.0764  0.1121 -0.7726
   77SLPC   C13 6938   2.390   2.751   6.760  0.3898  0.2678 -1.0633
   77SLPC  H13A 6939   2.304   2.695   6.794  0.4183  0.5036 -0.5993
   77SLPC  H13B 6940   2.465   2.740   6.837  1.4331  0.4098 -2.0299
   77SLPC  H13C 6941   2.348   2.850   6.754 -0.7566 -0.1655 -0.6007
   77SLPC   C14 6942   2.576   2.807   6.615  0.3147  0.6407  0.1094
   77SLPC  H14A 6943   2.542   2.907   6.593  0.3779  0.4115 -1.0767
   77SLPC  H14B 6944   2.638   2.805   6.703  0.3730 -0.2515  0.0619
   77SLPC  H14C 6945   2.640   2.778   6.533  0.9138  0.8422  0.5053
   77SLPC   C15 6946   2.364   2.713   6.520 -0.0349 -0.1290  0.3933
   77SLPC  H15A 6947   2.321   2.812   6.513  0.1988  0.0051  0.8428
   77SLPC  H15B 6948   2.423   2.702   6.430  1.8495 -0.7947  1.6428
   77SLPC  H15C 6949   2.284   2.642   6.534 -0.0960 -0.1385  0.0010
   77SLPC   C12 6950   2.520   2.566   6.645  0.2352  0.2887  0.0342
   77SLPC  H12A 6951   2.585   2.571   6.731 -1.0670 -1.6298  1.1938
   77SLPC  H12B 6952   2.574   2.548   6.554 -0.2741  1.2580 -0.4838
   77SLPC   C11 6953   2.415   2.451   6.672 -0.0416 -0.3127 -0.6245
   77SLPC  H11A 6954   2.351   2.459   6.763  0.3709 -1.8873 -0.1649
   77SLPC  H11B 6955   2.480   2.368   6.706 -0.3178  0.0659  0.9435
   77SLPC     P 6956   2.208   2.345   6.557  0.0353 -0.2104  0.2066
   77SLPC   O13 6957   2.243   2.215   6.624 -0.5307 -0.0362  0.6858
   77SLPC   O14 6958   2.102   2.429   6.617  0.1592  0.1126  0.0552
   77SLPC   O12 6959   2.342   2.430   6.549  0.3183  0.1622 -0.1552
   77SLPC   O11 6960   2.177   2.315   6.408  0.4217  0.2752 -0.0529
   77SLPC    C1 6961   2.148   2.423   6.314 -0.1434  0.0968 -0.0120
   77SLPC    HA 6962   2.048   2.409   6.266  0.4145 -0.0625 -1.1694
   77SLPC    HB 6963   2.148   2.525   6.357 -2.0761  0.5768 -1.0023
   77SLPC    C2 6964   2.259   2.428   6.204  0.6367 -0.4132 -0.7963
   77SLPC    HS 6965   2.250   2.525   6.151 -0.6525 -1.3934 -2.4746
   77SLPC   O21 6966   2.229   2.324   6.109  0.4422  0.2048  0.0233
   77SLPC   C21 6967   2.132   2.356   6.024  0.4112  0.2114 -0.1292
   77SLPC   O22 6968   2.082   2.471   6.022  0.2361  0.5152 -0.5253
   77SLPC   C22 6969   2.090   2.241   5.929  0.0319 -0.2246 -0.2577
   77SLPC   H2R 6970   2.138   2.147   5.965  1.2270 -0.5009 -2.3661
   77SLPC   H2S 6971   1.980   2.229   5.938  0.0726 -1.2694 -0.9879
   77SLPC    C3 6972   2.398   2.422   6.258 -0.2685 -0.1241 -0.4237
   77SLPC    HX 6973   2.404   2.323   6.306  0.5810  0.1162 -0.0244
   77SLPC    HY 6974   2.416   2.509   6.325 -1.2452 -0.0074 -0.2954
   77SLPC   O31 6975   2.487   2.438   6.144 -0.0951  0.3170 -0.2132
   77SLPC   C31 6976   2.618   2.438   6.166 -0.3830  0.6331 -0.1208
   77SLPC   O32 6977   2.675   2.417   6.271 -0.1431  0.5286 -0.2002
   77SLPC   C32 6978   2.687   2.472   6.035 -0.0598 -0.1904  0.0380
   77SLPC   H2X 6979   2.794   2.499   6.044 -0.0255 -0.5341  0.7731
   77SLPC   H2Y 6980   2.630   2.559   5.996 -0.0189 -0.1951 -0.0313
   77SLPC   C23 6981   2.119   2.259   5.777 -0.4663  0.2507 -0.4205
   77SLPC   H3R 6982   2.105   2.367   5.759 -1.5427  0.2242  0.1784
   77SLPC   H3S 6983   2.063   2.192   5.709  2.2385 -1.3707 -1.1961
   77SLPC   C24 6984   2.265   2.233   5.734  0.1769  0.0412 -0.6899
   77SLPC   H4R 6985   2.289   2.125   5.740 -1.1624 -0.2445  0.0507
   77SLPC   H4S 6986   2.330   2.294   5.800 -1.8751  2.5975 -0.8541
   77SLPC   C25 6987   2.298   2.281   5.591 -0.4909  0.3639  0.2668
   77SLPC   H5R 6988   2.402   2.245   5.575  0.0561  1.1575  1.8543
   77SLPC   H5S 6989   2.292   2.390   5.571 -2.9610  0.3649  0.7140
   77SLPC   C26 6990   2.206   2.219   5.490 -0.8931 -0.1304  0.1771
   77SLPC   H6R 6991   2.106   2.267   5.492 -0.2473  1.4897 -1.8517
   77SLPC   H6S 6992   2.198   2.114   5.526 -0.2179 -0.3811 -0.3761
   77SLPC   C27 6993   2.272   2.219   5.359  0.2916  0.0650 -0.0879
   77SLPC   H7R 6994   2.367   2.164   5.369 -0.3147 -0.7623  1.5142
   77SLPC   H7S 6995   2.301   2.324   5.337  0.9755 -0.1474 -0.2166
   77SLPC   C28 6996   2.195   2.158   5.243  0.0317 -0.0760 -0.2691
   77SLPC   H8R 6997   2.109   2.219   5.208  1.5691  1.2637 -1.8808
   77SLPC   H8S 6998   2.162   2.059   5.281  2.1182 -0.3504  0.9978
   77SLPC   C29 6999   2.281   2.154   5.114  0.6481  0.3497 -0.0479
   77SLPC   H9R 7000   2.269   2.244   5.051  2.9085  0.1623 -0.8241
   77SLPC  C210 7001   2.361   2.047   5.087  0.6173 -0.1789  0.2721
   77SLPC  H10R 7002   2.435   2.052   5.005  2.0169  1.2436  1.5521
   77SLPC  C211 7003   2.384   1.925   5.169 -0.1042  0.0109 -0.3455
   77SLPC  H11R 7004   2.367   1.833   5.109 -2.3616 -0.1896  0.4838
   77SLPC  H11S 7005   2.311   1.912   5.252 -0.2282 -1.3287 -0.6426
   77SLPC  C212 7006   2.527   1.925   5.216  0.7029 -0.8841 -0.5256
   77SLPC  H12R 7007   2.599   1.944   5.135 -0.5536  0.8319 -1.2878
   77SLPC  C213 7008   2.579   1.899   5.338  0.2241  0.0451 -0.1275
   77SLPC  H13R 7009   2.687   1.889   5.354  0.8044  2.3815 -1.9944
   77SLPC  C214 7010   2.490   1.880   5.457  0.4003 -0.0392 -0.2695
   77SLPC  H14R 7011   2.430   1.787   5.456  0.9768 -0.4474  0.7372
   77SLPC  H14S 7012   2.422   1.967   5.468  0.2001 -0.3979  1.8378
   77SLPC  C215 7013   2.573   1.876   5.589 -0.2205 -0.3201  0.0794
   77SLPC  H15R 7014   2.640   1.963   5.603  1.1143 -1.0462 -1.4737
   77SLPC  H15S 7015   2.637   1.787   5.576  3.7760  2.1158  1.4132
   77SLPC  C216 7016   2.478   1.844   5.703 -0.4426 -0.1052 -0.3595
   77SLPC  H16R 7017   2.423   1.752   5.674 -0.2264  1.2219 -6.0401
   77SLPC  H16S 7018   2.398   1.920   5.721 -2.1243 -2.1212  1.2222
   77SLPC  C217 7019   2.543   1.830   5.841  0.4569  0.8402 -0.0540
   77SLPC  H17R 7020   2.636   1.769   5.847  0.6376  1.1673  0.5895
   77SLPC  H17S 7021   2.472   1.769   5.901  0.2838  0.6683 -0.4327
   77SLPC  C218 7022   2.562   1.965   5.907 -0.4331 -0.3415 -0.6132
   77SLPC  H18R 7023   2.588   1.950   6.014 -0.3178  2.3810 -0.1702
   77SLPC  H18S 7024   2.470   2.028   5.897  0.0517  0.1139 -2.5326
   77SLPC  H18T 7025   2.636   2.017   5.843 -1.6429 -1.3459 -2.9635
   77SLPC   C33 7026   2.664   2.362   5.928  0.4657 -0.3066  0.8983
   77SLPC   H3X 7027   2.555   2.349   5.916  0.2878  1.6190  0.1465
   77SLPC   H3Y 7028   2.711   2.265   5.955  0.3614 -0.0239  2.2033
   77SLPC   C34 7029   2.725   2.404   5.784  0.6330 -0.4471 -0.8238
   77SLPC   H4X 7030   2.834   2.420   5.799  0.2973 -0.5988  2.7236
   77SLPC   H4Y 7031   2.678   2.500   5.753 -0.1765  0.0309  1.5993
   77SLPC   C35 7032   2.717   2.300   5.675  0.5034  0.9748 -0.1976
   77SLPC   H5X 7033   2.615   2.281   5.634 -0.2854  1.4696  1.4528
   77SLPC   H5Y 7034   2.762   2.211   5.724 -0.9166  1.2946  1.7981
   77SLPC   C36 7035   2.811   2.342   5.558 -0.1554 -0.2454  0.2239
   77SLPC   H6X 7036   2.909   2.382   5.593 -0.4693  0.5607  0.2137
   77SLPC   H6Y 7037   2.776   2.425   5.492 -0.4644 -1.3584 -1.0539
   77SLPC   C37 7038   2.822   2.221   5.466 -0.3837  0.3209 -0.1351
   77SLPC   H7X 7039   2.722   2.176   5.449 -0.4869  0.1380  0.8969
   77SLPC   H7Y 7040   2.868   2.139   5.524 -1.5300 -0.9140 -0.9224
   77SLPC   C38 7041   2.897   2.253   5.338 -0.1980  0.0861 -0.3699
   77SLPC   H8X 7042   2.928   2.165   5.277 -0.9301  1.4584 -2.8557
   77SLPC   H8Y 7043   2.988   2.314   5.356 -0.1366  1.1475 -3.7404
   77SLPC   C39 7044   2.817   2.338   5.238  0.1817 -0.0478 -0.2609
   77SLPC   H9X 7045   2.882   2.393   5.166  1.2589 -0.5268  0.3153
   77SLPC   H9Y 7046   2.779   2.422   5.299  2.2510  0.4459  0.4470
   77SLPC  C310 7047   2.702   2.260   5.177  0.0633  0.0897  0.1030
   77SLPC  H10X 7048   2.635   2.226   5.258  0.9923 -2.2807 -0.0661
   77SLPC  H10Y 7049   2.741   2.166   5.133  0.2235 -0.1363  0.7264
   77SLPC  C311 7050   2.618   2.325   5.067 -0.3166  0.2726 -0.1589
   77SLPC  H11X 7051   2.596   2.420   5.120  0.9664  0.1907  0.5530
   77SLPC  H11Y 7052   2.521   2.284   5.033 -1.7215  4.0377 -1.2444
   77SLPC  C312 7053   2.686   2.361   4.936 -0.1156  0.3713 -0.1955
   77SLPC  H12X 7054   2.760   2.282   4.910 -0.3162  0.2012 -0.2531
   77SLPC  H12Y 7055   2.738   2.458   4.940 -1.0162  0.8433  0.6118
   77SLPC  C313 7056   2.586   2.371   4.824  0.0771 -0.3311  0.0442
   77SLPC  H13X 7057   2.514   2.449   4.856  0.0916 -0.1759 -0.2937
   77SLPC  H13Y 7058   2.525   2.279   4.818  0.0712 -0.2486 -3.4894
   77SLPC  C314 7059   2.645   2.386   4.686 -0.2908  0.0117 -0.2210
   77SLPC  H14X 7060   2.682   2.286   4.655  2.7839  1.4581 -1.7052
   77SLPC  H14Y 7061   2.725   2.462   4.692  0.8324 -1.2416  1.8984
   77SLPC  C315 7062   2.552   2.430   4.580 -0.2190 -0.2144  0.0685
   77SLPC  H15X 7063   2.470   2.356   4.567 -0.0295 -0.5206  0.5858
   77SLPC  H15Y 7064   2.612   2.446   4.488 -0.4956  2.6256  0.2888
   77SLPC  C316 7065   2.474   2.566   4.597 -0.4694  0.4842 -0.5702
   77SLPC  H16X 7066   2.534   2.660   4.593  0.2114  0.0522 -0.7546
   77SLPC  H16Y 7067   2.422   2.554   4.694 -1.3946 -0.6712 -1.1896
   77SLPC  C317 7068   2.364   2.593   4.486  0.2124 -0.3321  0.0172
   77SLPC  H17X 7069   2.278   2.644   4.535  0.0419 -0.5940 -0.0082
   77SLPC  H17Y 7070   2.315   2.499   4.452  0.8228 -1.1135  1.2449
   77SLPC  C318 7071   2.403   2.686   4.368  0.5982  0.2353  0.8525
   77SLPC  H18X 7072   2.468   2.640   4.290 -2.1171 -0.3747 -1.2242
   77SLPC  H18Y 7073   2.447   2.775   4.416 -2.5905  1.6040  1.4990
   77SLPC  H18Z 7074   2.305   2.720   4.328 -0.3914  0.0227  2.9524
   78SLPC     N 7075   3.996   5.309   6.841  0.8745 -0.5890  0.1121
   78SLPC   C13 7076   4.101   5.271   6.940 -0.3537 -0.1765  0.5607
   78SLPC  H13A 7077   4.064   5.194   7.005 -0.2900  0.9150  1.9498
   78SLPC  H13B 7078   4.184   5.232   6.883  1.1252  3.0123  0.3038
   78SLPC  H13C 7079   4.141   5.348   7.003 -2.0721  1.2073  0.0684
   78SLPC   C14 7080   3.882   5.384   6.910 -0.3227  0.6700  0.2008
   78SLPC  H14A 7081   3.807   5.395   6.833 -0.2695 -0.9148 -0.1151
   78SLPC  H14B 7082   3.850   5.338   7.003  1.5001 -0.9310  0.1052
   78SLPC  H14C 7083   3.916   5.485   6.929 -0.3488  0.5191  1.0807
   78SLPC   C15 7084   3.935   5.177   6.782  0.1063 -0.6139  0.2551
   78SLPC  H15A 7085   4.012   5.116   6.736 -1.1503  0.5477 -3.8029
   78SLPC  H15B 7086   3.892   5.116   6.860  1.3338 -0.4171  1.1274
   78SLPC  H15C 7087   3.865   5.198   6.703  1.5101 -1.9831 -1.4553
   78SLPC   C12 7088   4.058   5.399   6.733  0.0558  0.4060  0.1846
   78SLPC  H12A 7089   4.143   5.344   6.694 -0.4347 -0.5412  0.4172
   78SLPC  H12B 7090   4.098   5.494   6.764  0.6871  0.1688  0.1083
   78SLPC   C11 7091   3.970   5.430   6.609 -0.5002  0.6971 -0.4456
   78SLPC  H11A 7092   3.949   5.339   6.550 -0.3269  1.2310 -1.3572
   78SLPC  H11B 7093   4.026   5.493   6.537  1.2621 -1.2314 -0.8525
   78SLPC     P 7094   3.830   5.645   6.660  0.1585  0.0401 -0.0508
   78SLPC   O13 7095   3.686   5.668   6.691  0.2348 -0.4567 -0.1572
   78SLPC   O14 7096   3.926   5.699   6.758 -0.1623 -0.8187 -0.1346
   78SLPC   O12 7097   3.846   5.489   6.650  0.1611 -0.4369 -0.6575
   78SLPC   O11 7098   3.864   5.707   6.520  0.2026 -0.0044 -0.9591
   78SLPC    C1 7099   3.893   5.842   6.499 -0.1532 -0.8698  0.8288
   78SLPC    HA 7100   3.815   5.917   6.527  2.3909  1.6818  1.5643
   78SLPC    HB 7101   3.974   5.880   6.565  1.4227  1.0335 -2.0087
   78SLPC    C2 7102   3.918   5.868   6.344 -0.1365  0.2778  0.0018
   78SLPC    HS 7103   3.824   5.880   6.285  0.6400 -0.0461 -1.3390
   78SLPC   O21 7104   3.994   5.769   6.270  0.0026 -0.3630 -0.0290
   78SLPC   C21 7105   4.111   5.733   6.317 -0.7545  0.5905 -0.0568
   78SLPC   O22 7106   4.159   5.754   6.424  0.0814 -0.0478  0.0359
   78SLPC   C22 7107   4.184   5.641   6.212  0.2548  0.2687  0.7866
   78SLPC   H2R 7108   4.294   5.643   6.223  0.2690 -1.0634  1.0668
   78SLPC   H2S 7109   4.139   5.542   6.236 -2.7083  1.2728 -0.1257
   78SLPC    C3 7110   3.986   6.010   6.327  0.3865  0.4959 -0.1428
   78SLPC    HX 7111   4.083   6.008   6.380  1.6475 -1.1837 -2.3387
   78SLPC    HY 7112   3.922   6.091   6.369  0.0881  1.9018 -3.0829
   78SLPC   O31 7113   4.002   6.045   6.189 -0.2045  0.3175 -0.3641
   78SLPC   C31 7114   4.029   6.172   6.164  0.0674  0.0177  0.1995
   78SLPC   O32 7115   4.033   6.262   6.246  1.4549 -0.6429 -0.5290
   78SLPC   C32 7116   4.036   6.192   6.016 -0.3341 -0.1745  0.3171
   78SLPC   H2X 7117   4.092   6.288   6.005 -0.3997 -0.0162  1.3071
   78SLPC   H2Y 7118   3.935   6.209   5.973 -1.1767 -0.7480  1.9743
   78SLPC   C23 7119   4.166   5.693   6.062 -0.3278  0.3553 -0.3309
   78SLPC   H3R 7120   4.215   5.793   6.052  2.8160 -0.8963  1.0854
   78SLPC   H3S 7121   4.062   5.700   6.024  0.4472 -3.1920 -3.7333
   78SLPC   C24 7122   4.248   5.610   5.960  1.0917 -0.6138 -0.0490
   78SLPC   H4R 7123   4.232   5.501   5.971  0.9832 -0.7834 -1.6076
   78SLPC   H4S 7124   4.355   5.638   5.976  0.6720  0.9160  0.2708
   78SLPC   C25 7125   4.200   5.656   5.819  0.1712  0.0654  0.3201
   78SLPC   H5R 7126   4.185   5.766   5.822 -0.7598 -0.0386 -0.1233
   78SLPC   H5S 7127   4.100   5.623   5.783  0.2012  1.6210 -1.3372
   78SLPC   C26 7128   4.293   5.618   5.703  0.5231 -0.6718  1.0626
   78SLPC   H6R 7129   4.279   5.512   5.672 -2.0798 -0.1026  0.0421
   78SLPC   H6S 7130   4.402   5.633   5.724  0.5702  2.2164 -0.7053
   78SLPC   C27 7131   4.265   5.699   5.571  0.3776 -0.8794  0.0042
   78SLPC   H7R 7132   4.302   5.801   5.596  1.1722 -1.3447  0.7719
   78SLPC   H7S 7133   4.156   5.699   5.547  0.4484 -0.1220 -0.3650
   78SLPC   C28 7134   4.339   5.649   5.445 -0.5965 -0.5584 -0.3196
   78SLPC   H8R 7135   4.448   5.636   5.462 -0.4168 -0.1505 -1.1293
   78SLPC   H8S 7136   4.330   5.717   5.358  1.1949  0.3450  0.1598
   78SLPC   C29 7137   4.298   5.517   5.401  0.5080  0.8068 -1.1157
   78SLPC   H9R 7138   4.260   5.451   5.481 -0.6791  0.5924 -1.8265
   78SLPC  C210 7139   4.270   5.472   5.278 -0.8106  0.2383 -0.3644
   78SLPC  H10R 7140   4.248   5.366   5.260  2.1025 -0.3940 -0.6940
   78SLPC  C211 7141   4.281   5.550   5.149  0.2187  0.4198 -0.1836
   78SLPC  H11R 7142   4.358   5.493   5.092 -0.8237 -2.4575  1.0743
   78SLPC  H11S 7143   4.316   5.651   5.179  2.6546 -0.5664  0.4645
   78SLPC  C212 7144   4.148   5.579   5.084  0.4723  0.3027  0.5966
   78SLPC  H12R 7145   4.093   5.665   5.124 -0.7973  0.3258 -1.0834
   78SLPC  C213 7146   4.099   5.518   4.969  0.2378  0.1863 -0.1666
   78SLPC  H13R 7147   4.002   5.551   4.929  0.9895  0.0344 -2.2889
   78SLPC  C214 7148   4.153   5.400   4.902  0.0232 -0.3914  0.6131
   78SLPC  H14R 7149   4.073   5.328   4.875  0.5254 -1.2652  1.3986
   78SLPC  H14S 7150   4.219   5.335   4.962 -0.7073 -0.2655  1.5675
   78SLPC  C215 7151   4.232   5.439   4.775  0.5453  0.5895  0.6516
   78SLPC  H15R 7152   4.329   5.489   4.800  1.7893 -1.1316 -0.4945
   78SLPC  H15S 7153   4.179   5.509   4.707 -0.3857  0.0334  0.7901
   78SLPC  C216 7154   4.276   5.314   4.689 -0.0472 -1.5706 -0.4719
   78SLPC  H16R 7155   4.193   5.282   4.623 -0.0513  0.2864 -1.4442
   78SLPC  H16S 7156   4.298   5.237   4.767 -3.2560  0.3148  2.6289
   78SLPC  C217 7157   4.393   5.349   4.603 -0.2967 -0.5948  0.3488
   78SLPC  H17R 7158   4.478   5.380   4.667 -0.9558  2.2354  0.0056
   78SLPC  H17S 7159   4.371   5.428   4.527 -0.6020 -1.5146 -0.5469
   78SLPC  C218 7160   4.436   5.231   4.513 -0.1945  0.1449 -0.2007
   78SLPC  H18R 7161   4.342   5.199   4.463  0.0083  1.5121 -1.5377
   78SLPC  H18S 7162   4.495   5.152   4.565 -2.5387 -0.6583  1.4239
   78SLPC  H18T 7163   4.508   5.275   4.441  0.4497 -1.3602 -0.5041
   78SLPC   C33 7164   4.109   6.072   5.943  0.5804  0.1807 -0.3928
   78SLPC   H3X 7165   4.087   5.968   5.976  3.4028 -0.6446 -0.8483
   78SLPC   H3Y 7166   4.219   6.082   5.955  0.7483 -0.6242 -1.1393
   78SLPC   C34 7167   4.076   6.069   5.791 -0.5290 -0.5696 -0.5238
   78SLPC   H4X 7168   3.969   6.091   5.772 -0.2358  1.5236 -0.0094
   78SLPC   H4Y 7169   4.120   5.976   5.749  2.1029  1.1188 -1.7578
   78SLPC   C35 7170   4.139   6.185   5.712 -0.6620  0.0918  0.3705
   78SLPC   H5X 7171   4.250   6.179   5.707 -0.5400  2.4394 -1.3073
   78SLPC   H5Y 7172   4.113   6.279   5.766 -0.4281  0.1357  0.4074
   78SLPC   C36 7173   4.093   6.204   5.566 -0.0535  0.6922 -1.0344
   78SLPC   H6X 7174   4.129   6.306   5.540 -0.4031  1.2722  0.6428
   78SLPC   H6Y 7175   3.982   6.195   5.574  0.1037 -0.8624 -0.2930
   78SLPC   C37 7176   4.141   6.096   5.474 -0.9864  0.0664 -0.0176
   78SLPC   H7X 7177   4.089   6.000   5.492  1.3826 -1.7023 -1.9827
   78SLPC   H7Y 7178   4.249   6.080   5.492 -0.4514  3.3353  0.2591
   78SLPC   C38 7179   4.121   6.132   5.332 -0.3670 -0.6727  0.2445
   78SLPC   H8X 7180   4.151   6.236   5.310 -1.3998  0.1820  2.6093
   78SLPC   H8Y 7181   4.017   6.133   5.293 -0.3250  3.1097 -0.1115
   78SLPC   C39 7182   4.205   6.043   5.244  0.0410  0.6255  0.8337
   78SLPC   H9X 7183   4.196   5.938   5.277  0.4169 -0.0558 -1.1141
   78SLPC   H9Y 7184   4.310   6.078   5.245  0.0406  0.8813 -1.4932
   78SLPC  C310 7185   4.148   6.060   5.099 -0.0076 -0.3720  0.0467
   78SLPC  H10X 7186   4.156   6.170   5.083  0.4059 -0.2544  1.0254
   78SLPC  H10Y 7187   4.043   6.025   5.100 -0.1050 -0.0660  0.6021
   78SLPC  C311 7188   4.208   5.964   4.994 -0.0392  0.3304  0.8169
   78SLPC  H11X 7189   4.221   5.866   5.046 -3.0655 -2.0286 -2.3610
   78SLPC  H11Y 7190   4.303   6.003   4.951 -1.2772  1.6681 -0.8205
   78SLPC  C312 7191   4.107   5.934   4.880  0.1116 -0.2165 -0.9029
   78SLPC  H12X 7192   4.082   6.030   4.830 -1.1240  1.0440  1.9061
   78SLPC  H12Y 7193   4.007   5.904   4.919 -0.1045  2.3612  0.7259
   78SLPC  C313 7194   4.155   5.817   4.789  0.4374  0.1943 -0.0662
   78SLPC  H13X 7195   4.062   5.774   4.745  0.4081  0.4832 -0.2881
   78SLPC  H13Y 7196   4.210   5.735   4.840  0.5402  1.1846  1.4656
   78SLPC  C314 7197   4.240   5.868   4.669  0.8896 -0.1371 -0.0865
   78SLPC  H14X 7198   4.336   5.882   4.723  2.1417  1.2005 -2.4855
   78SLPC  H14Y 7199   4.192   5.966   4.646 -0.9964 -0.1801  3.0810
   78SLPC  C315 7200   4.255   5.756   4.553 -0.0821 -0.1305 -1.0693
   78SLPC  H15X 7201   4.155   5.724   4.517  0.2584  0.8078 -2.9343
   78SLPC  H15Y 7202   4.314   5.673   4.598 -0.2806  0.6837  0.7883
   78SLPC  C316 7203   4.328   5.819   4.435  0.0253  0.0683 -0.1079
   78SLPC  H16X 7204   4.332   5.930   4.444  0.4640  0.2307 -1.9775
   78SLPC  H16Y 7205   4.280   5.796   4.338  1.4299 -2.7131 -0.2402
   78SLPC  C317 7206   4.472   5.766   4.436 -0.5268 -0.6019 -0.6952
   78SLPC  H17X 7207   4.489   5.657   4.432  0.2852 -0.4385 -2.4143
   78SLPC  H17Y 7208   4.498   5.790   4.541 -1.8310 -1.3405 -0.1761
   78SLPC  C318 7209   4.558   5.837   4.333  0.6111 -0.0865 -0.3239
   78SLPC  H18X 7210   4.574   5.944   4.360 -1.1121  0.0435  0.2784
   78SLPC  H18Y 7211   4.503   5.843   4.237 -2.2299  1.6681  1.2810
   78SLPC  H18Z 7212   4.659   5.791   4.321 -0.3133 -1.6706 -2.7523
   79SLPC     N 7213   6.270   2.591   6.664 -0.0916  0.4719  0.0632
   79SLPC   C13 7214   6.230   2.723   6.718 -0.0526  0.4894 -0.0553
   79SLPC  H13A 7215   6.298   2.765   6.791 -1.2289 -2.7563  3.2595
   79SLPC  H13B 7216   6.226   2.783   6.629  0.3787 -0.8672 -1.0171
   79SLPC  H13C 7217   6.131   2.718   6.761  0.4179  0.4409  1.0655
   79SLPC   C14 7218   6.239   2.487   6.765 -0.5394 -0.2533  0.2369
   79SLPC  H14A 7219   6.133   2.489   6.783 -0.9523  0.0104 -1.9863
   79SLPC  H14B 7220   6.266   2.390   6.728 -0.5847 -0.8189  1.6154
   79SLPC  H14C 7221   6.290   2.507   6.859 -1.1224 -0.4131  0.5946
   79SLPC   C15 7222   6.419   2.593   6.643 -0.6825 -1.0583  0.0681
   79SLPC  H15A 7223   6.475   2.629   6.728 -0.4742 -1.7299  0.2148
   79SLPC  H15B 7224   6.459   2.493   6.631 -1.5897 -1.6087  1.5102
   79SLPC  H15C 7225   6.455   2.647   6.556  2.4223 -2.7138  0.1765
   79SLPC   C12 7226   6.206   2.559   6.533  0.0249  0.0680  0.2793
   79SLPC  H12A 7227   6.101   2.536   6.540 -0.6177  1.9947 -2.0202
   79SLPC  H12B 7228   6.257   2.466   6.508  1.0918  1.0251 -1.3029
   79SLPC   C11 7229   6.216   2.660   6.417 -0.1422 -0.2906 -0.2773
   79SLPC  H11A 7230   6.191   2.618   6.318 -1.9083  0.1090 -0.0353
   79SLPC  H11B 7231   6.324   2.686   6.419 -0.1509 -0.2910  0.5911
   79SLPC     P 7232   5.970   2.770   6.439 -0.2354  1.0846  0.1221
   79SLPC   O13 7233   5.928   2.655   6.524  0.3489 -0.2451  0.1820
   79SLPC   O14 7234   5.903   2.895   6.469 -0.0733 -0.4761 -0.8040
   79SLPC   O12 7235   6.131   2.781   6.444  0.4383 -0.6953  0.6240
   79SLPC   O11 7236   5.943   2.731   6.292  0.7154 -0.4561  0.9265
   79SLPC    C1 7237   6.009   2.804   6.182 -0.5765  0.4907 -0.5618
   79SLPC    HA 7238   6.016   2.914   6.198  1.7365  0.0010  2.9996
   79SLPC    HB 7239   6.114   2.772   6.193  0.0637  2.7662  0.5893
   79SLPC    C2 7240   5.939   2.769   6.043 -0.3492  0.1298  0.0550
   79SLPC    HS 7241   5.831   2.793   6.047 -0.5806 -0.9320  0.7117
   79SLPC   O21 7242   5.967   2.629   6.018 -0.4585 -0.4053  0.0500
   79SLPC   C21 7243   5.900   2.589   5.911  0.2030  0.4102  0.4447
   79SLPC   O22 7244   5.797   2.635   5.864 -0.2286 -0.5388  0.6117
   79SLPC   C22 7245   5.978   2.475   5.847  0.0803 -0.0965  0.1040
   79SLPC   H2R 7246   6.081   2.515   5.858 -0.8528  2.4895  0.1119
   79SLPC   H2S 7247   5.957   2.386   5.910 -0.3842 -2.4156 -3.0325
   79SLPC    C3 7248   6.017   2.861   5.941  0.3818  0.6783 -0.2277
   79SLPC    HX 7249   6.126   2.838   5.943 -0.3148 -3.3507  2.4210
   79SLPC    HY 7250   6.008   2.965   5.981 -0.2362  0.3779  0.4340
   79SLPC   O31 7251   5.971   2.859   5.808  0.0766  0.1734 -0.4870
   79SLPC   C31 7252   5.842   2.916   5.795 -0.1665  0.6275  0.9823
   79SLPC   O32 7253   5.780   2.979   5.878 -0.6148 -0.7379 -0.6592
   79SLPC   C32 7254   5.796   2.878   5.653 -0.1606 -0.7189 -0.0249
   79SLPC   H2X 7255   5.818   2.769   5.646 -1.0588 -0.8440 -1.1745
   79SLPC   H2Y 7256   5.844   2.949   5.582 -1.5492  1.4178  1.0910
   79SLPC   C23 7257   5.926   2.465   5.704 -0.7538  0.2733 -0.0192
   79SLPC   H3R 7258   5.815   2.470   5.698 -0.7777 -0.9774 -0.8758
   79SLPC   H3S 7259   5.966   2.366   5.673  1.2045  0.7715  0.7712
   79SLPC   C24 7260   6.008   2.553   5.612  0.2844 -0.2994 -0.2357
   79SLPC   H4R 7261   6.113   2.521   5.600  0.4858  0.0062  0.6288
   79SLPC   H4S 7262   6.007   2.652   5.663 -0.2132  0.3294 -1.4304
   79SLPC   C25 7263   5.936   2.570   5.482 -0.6124  1.4408 -0.4576
   79SLPC   H5R 7264   5.833   2.605   5.501 -1.1336  0.1585 -0.7966
   79SLPC   H5S 7265   5.923   2.467   5.443 -1.1724  1.5527 -0.5704
   79SLPC   C26 7266   5.994   2.662   5.375 -0.1455  0.3381  0.8525
   79SLPC   H6R 7267   6.078   2.612   5.321 -0.3839  0.6901  0.1414
   79SLPC   H6S 7268   6.041   2.745   5.433  0.9129  1.0195 -0.8960
   79SLPC   C27 7269   5.885   2.707   5.278 -0.9078 -0.6116  0.2145
   79SLPC   H7R 7270   5.940   2.768   5.204 -1.2037  0.0779  0.5535
   79SLPC   H7S 7271   5.808   2.764   5.334 -1.1873 -1.0112  0.2477
   79SLPC   C28 7272   5.821   2.598   5.195 -0.0727 -0.1731 -0.0495
   79SLPC   H8R 7273   5.752   2.538   5.257 -0.1985  1.1497  1.1488
   79SLPC   H8S 7274   5.907   2.540   5.154  0.6290  1.1440 -0.5419
   79SLPC   C29 7275   5.742   2.660   5.087  0.1172  0.3876  0.3102
   79SLPC   H9R 7276   5.678   2.740   5.127  0.7680  0.4437  1.2702
   79SLPC  C210 7277   5.738   2.625   4.958  0.4745  0.9931  0.4285
   79SLPC  H10R 7278   5.681   2.681   4.882 -1.6464  0.1473  1.3285
   79SLPC  C211 7279   5.817   2.510   4.902 -0.5516 -0.4382  0.5410
   79SLPC  H11R 7280   5.819   2.427   4.976 -4.0037 -0.2194  1.0269
   79SLPC  H11S 7281   5.921   2.544   4.880 -0.9177 -0.3600 -1.2252
   79SLPC  C212 7282   5.748   2.458   4.778  0.2782  0.0931 -0.3362
   79SLPC  H12R 7283   5.678   2.376   4.801  2.0530 -0.9748  1.6047
   79SLPC  C213 7284   5.763   2.493   4.648  0.1219 -0.9438 -0.1329
   79SLPC  H13R 7285   5.703   2.440   4.573  1.2849 -1.2566 -0.8597
   79SLPC  C214 7286   5.853   2.600   4.594 -0.7109 -0.3708  0.1991
   79SLPC  H14R 7287   5.929   2.551   4.529  1.9206  4.0695 -0.4802
   79SLPC  H14S 7288   5.906   2.660   4.671 -1.1037 -0.4679  0.5467
   79SLPC  C215 7289   5.778   2.699   4.501  0.1408 -0.0658  0.3850
   79SLPC  H15R 7290   5.714   2.633   4.439  0.6148 -0.6998  0.5680
   79SLPC  H15S 7291   5.857   2.750   4.441 -0.1301  1.4317  1.2583
   79SLPC  C216 7292   5.696   2.801   4.582  0.5268 -0.1253  0.0058
   79SLPC  H16R 7293   5.767   2.876   4.622  0.2413  0.7720 -1.1049
   79SLPC  H16S 7294   5.644   2.745   4.662 -1.9882  2.3028  0.2561
   79SLPC  C217 7295   5.581   2.871   4.505 -0.0870 -0.4661  0.0530
   79SLPC  H17R 7296   5.498   2.800   4.486  0.2547 -1.3316  1.5742
   79SLPC  H17S 7297   5.623   2.912   4.410 -0.9886  2.3292  0.7816
   79SLPC  C218 7298   5.523   2.992   4.575  0.4417  0.1360  0.2072
   79SLPC  H18R 7299   5.598   3.073   4.581 -0.6186  1.1206  0.5724
   79SLPC  H18S 7300   5.486   2.960   4.675  1.5482 -0.4939  0.4227
   79SLPC  H18T 7301   5.449   3.040   4.507  0.3886  0.6780  0.6422
   79SLPC   C33 7302   5.640   2.890   5.637 -0.5612  0.0281 -0.2427
   79SLPC   H3X 7303   5.610   2.994   5.661 -0.6295 -0.2120  0.7591
   79SLPC   H3Y 7304   5.597   2.826   5.717 -2.6297  0.8165 -0.6561
   79SLPC   C34 7305   5.588   2.857   5.499  0.0416  0.0190 -0.1702
   79SLPC   H4X 7306   5.624   2.755   5.474 -0.9128 -0.4684  0.3594
   79SLPC   H4Y 7307   5.617   2.934   5.424 -1.5023  2.4558  1.5715
   79SLPC   C35 7308   5.434   2.859   5.501 -0.0284 -0.2285 -0.0013
   79SLPC   H5X 7309   5.403   2.959   5.537  0.2290  0.1332 -0.7493
   79SLPC   H5Y 7310   5.375   2.797   5.571 -2.2035  1.4625 -0.2194
   79SLPC   C36 7311   5.371   2.822   5.368 -0.5239  1.0506 -0.4618
   79SLPC   H6X 7312   5.412   2.724   5.339 -1.1893  0.3056  0.9976
   79SLPC   H6Y 7313   5.418   2.888   5.293 -0.8938 -0.6841 -2.2885
   79SLPC   C37 7314   5.216   2.830   5.350  0.3764  0.4321 -0.6334
   79SLPC   H7X 7315   5.192   2.927   5.398 -1.8701  0.0798 -0.9121
   79SLPC   H7Y 7316   5.162   2.748   5.401  0.9406  0.2895 -0.2605
   79SLPC   C38 7317   5.178   2.834   5.203 -0.0395 -0.2462  0.1964
   79SLPC   H8X 7318   5.069   2.820   5.184  0.0142  2.6013 -3.3014
   79SLPC   H8Y 7319   5.230   2.747   5.157  1.3100 -0.1504  1.4716
   79SLPC   C39 7320   5.234   2.962   5.129  0.2963  0.1552  0.1676
   79SLPC   H9X 7321   5.338   2.938   5.098 -0.4439 -0.5604 -1.9944
   79SLPC   H9Y 7322   5.238   3.047   5.200  1.7994  0.3169 -0.0749
   79SLPC  C310 7323   5.149   2.986   5.005  0.4868 -0.7610  0.5767
   79SLPC  H10X 7324   5.050   3.031   5.027  0.6874 -0.2249  0.4138
   79SLPC  H10Y 7325   5.113   2.890   4.962  0.8407  0.2111 -2.0203
   79SLPC  C311 7326   5.211   3.072   4.894 -0.4995  0.5909 -0.0694
   79SLPC  H11X 7327   5.147   3.065   4.803 -0.6475  0.3109  0.0559
   79SLPC  H11Y 7328   5.307   3.022   4.871 -1.3928 -1.8723  1.1540
   79SLPC  C312 7329   5.241   3.217   4.919 -0.6021 -0.7484  0.0416
   79SLPC  H12X 7330   5.286   3.226   5.020 -2.1269 -1.2131  0.7932
   79SLPC  H12Y 7331   5.150   3.281   4.915  1.2576  2.1018 -0.2378
   79SLPC  C313 7332   5.339   3.281   4.810  0.1981 -0.1600 -0.0588
   79SLPC  H13X 7333   5.430   3.217   4.802 -1.0754 -1.9419 -0.8239
   79SLPC  H13Y 7334   5.380   3.375   4.854 -2.9034  1.2847 -0.0068
   79SLPC  C314 7335   5.277   3.308   4.673 -0.1661 -0.7328 -0.5490
   79SLPC  H14X 7336   5.234   3.208   4.650 -0.7917 -1.0577  1.7297
   79SLPC  H14Y 7337   5.348   3.349   4.598 -0.6947  0.1969 -0.5542
   79SLPC  C315 7338   5.160   3.402   4.688 -0.2616 -0.8301  0.0917
   79SLPC  H15X 7339   5.190   3.489   4.750 -1.3446  0.1645 -0.7245
   79SLPC  H15Y 7340   5.076   3.355   4.745  0.7088  0.1837  2.5122
   79SLPC  C316 7341   5.113   3.451   4.553 -0.1446  0.1259 -0.3454
   79SLPC  H16X 7342   5.007   3.482   4.566 -0.6503 -1.0068 -1.5955
   79SLPC  H16Y 7343   5.108   3.367   4.482 -4.2617 -1.0302  1.0299
   79SLPC  C317 7344   5.198   3.561   4.495 -0.3951 -0.0169  0.1208
   79SLPC  H17X 7345   5.303   3.537   4.523 -0.6723 -0.7762  0.5395
   79SLPC  H17Y 7346   5.171   3.656   4.545  1.8818  1.7651 -1.8223
   79SLPC  C318 7347   5.181   3.584   4.341  0.3350  0.6051 -0.9248
   79SLPC  H18X 7348   5.073   3.601   4.325 -1.1986 -1.6645  4.6579
   79SLPC  H18Y 7349   5.224   3.498   4.285  1.1719  1.3196 -1.4088
   79SLPC  H18Z 7350   5.225   3.681   4.308  2.0708 -0.3478 -1.5862
   80SLPC     N 7351   1.509   4.171   6.396 -0.5196  0.5108  0.0796
   80SLPC   C13 7352   1.569   4.231   6.521  0.9516  0.0762  0.5023
   80SLPC  H13A 7353   1.499   4.236   6.603  0.4032  1.4027 -0.0179
   80SLPC  H13B 7354   1.654   4.173   6.554  2.2889  0.3330 -2.1905
   80SLPC  H13C 7355   1.608   4.330   6.502  1.6415  0.2230  2.4738
   80SLPC   C14 7356   1.618   4.189   6.288  0.4204  0.7087  0.3496
   80SLPC  H14A 7357   1.701   4.124   6.313 -0.2079 -0.0692  0.4585
   80SLPC  H14B 7358   1.591   4.157   6.188  2.8153  0.2064 -0.2086
   80SLPC  H14C 7359   1.642   4.293   6.276 -1.9879  1.0598 -2.6312
   80SLPC   C15 7360   1.377   4.228   6.373 -0.2599  0.4578 -0.0311
   80SLPC  H15A 7361   1.305   4.188   6.443  1.8690  0.5104  2.3600
   80SLPC  H15B 7362   1.360   4.334   6.384 -0.7305  0.3920 -0.1016
   80SLPC  H15C 7363   1.335   4.211   6.275 -1.3069 -1.2556  0.6690
   80SLPC   C12 7364   1.493   4.024   6.421 -0.5769  0.0459  0.8651
   80SLPC  H12A 7365   1.419   4.005   6.498 -2.1023 -0.3500 -0.6314
   80SLPC  H12B 7366   1.586   3.983   6.458  0.7516  1.6910 -0.4849
   80SLPC   C11 7367   1.465   3.941   6.293  0.0954 -0.6602 -0.5347
   80SLPC  H11A 7368   1.538   3.960   6.212  1.6302 -2.1145  0.4552
   80SLPC  H11B 7369   1.370   3.975   6.246  0.0966 -1.6538 -1.2700
   80SLPC     P 7370   1.340   3.741   6.421  0.1263  0.6463 -0.1503
   80SLPC   O13 7371   1.370   3.593   6.432  0.2921  0.3902  0.5508
   80SLPC   O14 7372   1.332   3.818   6.547  0.5610  0.0284  0.3079
   80SLPC   O12 7373   1.455   3.806   6.326 -0.1023  0.2672  0.5563
   80SLPC   O11 7374   1.203   3.772   6.346  0.0791 -0.1012 -0.1949
   80SLPC    C1 7375   1.199   3.723   6.212  0.2331 -0.1045  0.0329
   80SLPC    HA 7376   1.294   3.731   6.155  0.4424 -1.6417  0.1309
   80SLPC    HB 7377   1.165   3.620   6.232 -1.2024  0.5491  1.1237
   80SLPC    C2 7378   1.087   3.793   6.129  0.0169 -0.0890  0.0587
   80SLPC    HS 7379   0.997   3.786   6.194  0.2776 -0.1713  0.4175
   80SLPC   O21 7380   1.068   3.723   6.007  0.7086 -0.8952  0.0156
   80SLPC   C21 7381   0.988   3.622   5.998 -0.0723  0.6916  0.6433
   80SLPC   O22 7382   0.920   3.569   6.086  0.2776  0.2243 -0.2421
   80SLPC   C22 7383   0.985   3.582   5.845 -0.4399 -0.7663  0.0267
   80SLPC   H2R 7384   1.070   3.627   5.789 -1.6941  1.0735 -0.5086
   80SLPC   H2S 7385   1.000   3.473   5.836 -1.1628 -1.0462  1.8778
   80SLPC    C3 7386   1.112   3.940   6.091  0.0813  0.4321  0.2202
   80SLPC    HX 7387   1.118   3.996   6.186  1.7227  0.2362  0.2493
   80SLPC    HY 7388   1.024   3.977   6.033  0.3353  0.5045 -0.1274
   80SLPC   O31 7389   1.233   3.955   6.017 -0.2292 -0.1439 -0.2815
   80SLPC   C31 7390   1.251   4.085   5.983 -0.6341  0.1975  0.1636
   80SLPC   O32 7391   1.176   4.178   6.002 -0.0844  0.3231  0.0793
   80SLPC   C32 7392   1.391   4.103   5.931  0.0068  0.1905 -0.2027
   80SLPC   H2X 7393   1.410   4.014   5.867  1.5361  0.4562 -0.1603
   80SLPC   H2Y 7394   1.465   4.095   6.014 -0.1805  0.7465  0.0265
   80SLPC   C23 7395   0.851   3.616   5.774 -0.1709 -0.1827  0.0782
   80SLPC   H3R 7396   0.873   3.650   5.670 -1.3786  3.8761  0.9693
   80SLPC   H3S 7397   0.801   3.702   5.823 -0.9113 -1.9012  2.5224
   80SLPC   C24 7398   0.742   3.509   5.755 -0.3862  0.1723  0.2403
   80SLPC   H4R 7399   0.665   3.572   5.705 -1.0175 -2.5168 -2.5082
   80SLPC   H4S 7400   0.702   3.474   5.853 -0.7994 -2.2110 -0.7148
   80SLPC   C25 7401   0.768   3.382   5.674  0.4333 -0.3018  0.2066
   80SLPC   H5R 7402   0.845   3.319   5.723  0.0917  0.3170  1.5795
   80SLPC   H5S 7403   0.814   3.398   5.574  0.2574 -0.4353  0.1028
   80SLPC   C26 7404   0.642   3.296   5.645  0.4180  0.0344  0.6962
   80SLPC   H6R 7405   0.591   3.276   5.741 -1.6464  0.1984 -0.3093
   80SLPC   H6S 7406   0.653   3.196   5.599 -0.8150  0.0616  0.3016
   80SLPC   C27 7407   0.538   3.369   5.555 -0.3652  0.0605  0.3274
   80SLPC   H7R 7408   0.547   3.474   5.592  0.9070 -0.6293  2.1356
   80SLPC   H7S 7409   0.434   3.333   5.572 -1.1859  1.3179 -1.6707
   80SLPC   C28 7410   0.574   3.360   5.406 -0.4572 -0.4224  0.6636
   80SLPC   H8R 7411   0.556   3.256   5.372 -2.9663  0.4522 -0.9240
   80SLPC   H8S 7412   0.681   3.375   5.378 -0.9323  1.9078 -0.1251
   80SLPC   C29 7413   0.480   3.445   5.321  0.3223  1.1880 -0.6047
   80SLPC   H9R 7414   0.395   3.470   5.385  0.8723 -0.7347  0.9906
   80SLPC  C210 7415   0.487   3.464   5.187  0.2546 -1.0589  0.5516
   80SLPC  H10R 7416   0.408   3.522   5.136  2.3896 -0.9041 -2.8555
   80SLPC  C211 7417   0.598   3.419   5.099  0.1727 -0.6246  0.4081
   80SLPC  H11R 7418   0.558   3.388   5.000 -0.0428  3.5674 -1.0146
   80SLPC  H11S 7419   0.657   3.335   5.142  0.5573  0.1968  1.5233
   80SLPC  C212 7420   0.696   3.535   5.074  0.1911 -0.0785 -0.3034
   80SLPC  H12R 7421   0.710   3.584   5.172  2.7255 -0.9525 -0.1571
   80SLPC  C213 7422   0.765   3.564   4.965  0.0572  0.3292 -0.2409
   80SLPC  H13R 7423   0.830   3.653   4.957  0.2672  0.2042  0.0442
   80SLPC  C214 7424   0.767   3.489   4.830 -0.5430  0.1529 -0.0289
   80SLPC  H14R 7425   0.781   3.561   4.746 -3.3051  0.4061 -0.3794
   80SLPC  H14S 7426   0.666   3.447   4.815 -1.0500  0.9558  0.9639
   80SLPC  C215 7427   0.883   3.382   4.816 -0.1351 -0.5149  0.0479
   80SLPC  H15R 7428   0.857   3.291   4.874 -0.8653  0.1227  0.7374
   80SLPC  H15S 7429   0.979   3.417   4.859 -1.2431  0.4317  1.8840
   80SLPC  C216 7430   0.920   3.349   4.670 -0.1129 -0.0562  0.7164
   80SLPC  H16R 7431   0.999   3.272   4.675  1.3169  1.4262  2.3339
   80SLPC  H16S 7432   0.976   3.433   4.624 -1.3523  0.1381 -0.5005
   80SLPC  C217 7433   0.809   3.300   4.583  0.0098 -0.4385 -0.7294
   80SLPC  H17R 7434   0.729   3.377   4.592 -1.4457 -2.0307  0.4656
   80SLPC  H17S 7435   0.774   3.207   4.631  1.6963 -1.7398 -1.9163
   80SLPC  C218 7436   0.846   3.281   4.437 -0.2459  0.1081  1.1638
   80SLPC  H18R 7437   0.941   3.222   4.441 -0.4091 -0.1766  0.8301
   80SLPC  H18S 7438   0.876   3.376   4.388  3.1308 -2.2472 -1.8432
   80SLPC  H18T 7439   0.775   3.228   4.371 -0.0091  0.2305  0.8070
   80SLPC   C33 7440   1.397   4.235   5.859 -0.3570 -0.4549 -0.1890
   80SLPC   H3X 7441   1.503   4.268   5.850 -0.2975 -0.2346  1.1137
   80SLPC   H3Y 7442   1.342   4.313   5.916 -0.1517 -0.3286 -0.1622
   80SLPC   C34 7443   1.350   4.214   5.711  0.1760 -0.5657  0.3287
   80SLPC   H4X 7444   1.272   4.284   5.676 -0.3812 -1.1047  0.4787
   80SLPC   H4Y 7445   1.292   4.119   5.713 -3.0609  1.2581 -0.4834
   80SLPC   C35 7446   1.466   4.220   5.610 -0.0183 -0.3540  0.2187
   80SLPC   H5X 7447   1.561   4.177   5.649  2.8678  2.7008 -2.7676
   80SLPC   H5Y 7448   1.485   4.329   5.598 -0.2163  0.1317  3.4418
   80SLPC   C36 7449   1.447   4.149   5.472  0.2326 -0.1245 -0.0584
   80SLPC   H6X 7450   1.341   4.170   5.446  0.1119 -1.1604 -0.4528
   80SLPC   H6Y 7451   1.454   4.038   5.473  3.2356 -0.0133  0.1551
   80SLPC   C37 7452   1.531   4.204   5.360  0.4662 -0.1924  0.2997
   80SLPC   H7X 7453   1.637   4.210   5.391  0.0848 -0.0191  1.6248
   80SLPC   H7Y 7454   1.491   4.306   5.337  0.3106  0.6222  3.6287
   80SLPC   C38 7455   1.509   4.115   5.236 -0.8082 -0.0723  0.4698
   80SLPC   H8X 7456   1.556   4.168   5.150  1.3460  2.0022  2.7813
   80SLPC   H8Y 7457   1.400   4.111   5.214 -1.0830 -2.8816  1.8989
   80SLPC   C39 7458   1.565   3.973   5.241 -0.1588  0.5785  0.3215
   80SLPC   H9X 7459   1.524   3.921   5.330  1.4384 -0.8901  0.2576
   80SLPC   H9Y 7460   1.676   3.979   5.247  0.2051 -0.3430 -3.3319
   80SLPC  C310 7461   1.527   3.885   5.127 -0.4771 -0.1419 -0.6198
   80SLPC  H10X 7462   1.575   3.934   5.040  0.0087 -0.9037 -0.7906
   80SLPC  H10Y 7463   1.416   3.881   5.115 -0.4820 -1.1605 -0.3627
   80SLPC  C311 7464   1.581   3.743   5.144  0.1371  1.1241  0.0504
   80SLPC  H11X 7465   1.518   3.702   5.226 -0.4938  1.1728 -0.3954
   80SLPC  H11Y 7466   1.686   3.735   5.179  0.6411 -0.4172 -1.6592
   80SLPC  C312 7467   1.573   3.664   5.012  0.1611 -0.3681 -1.1823
   80SLPC  H12X 7468   1.596   3.725   4.922  1.9899 -1.2388 -1.3562
   80SLPC  H12Y 7469   1.468   3.633   4.995 -0.4289  0.2237  1.0822
   80SLPC  C313 7470   1.677   3.558   5.013 -0.3248 -0.5929 -0.4722
   80SLPC  H13X 7471   1.661   3.491   5.101  1.6554  0.3546  0.6696
   80SLPC  H13Y 7472   1.777   3.604   5.030 -1.3020  1.1644  0.8479
   80SLPC  C314 7473   1.685   3.469   4.887 -0.1779 -0.0481  0.2402
   80SLPC  H14X 7474   1.706   3.524   4.792 -0.4061 -1.8571 -0.8992
   80SLPC  H14Y 7475   1.588   3.418   4.868 -0.8815  1.4768 -0.4440
   80SLPC  C315 7476   1.777   3.355   4.904 -0.1999  0.6830 -0.0696
   80SLPC  H15X 7477   1.734   3.278   4.972  2.6133 -0.3158  0.7362
   80SLPC  H15Y 7478   1.868   3.387   4.958 -0.3999 -1.6288  1.8031
   80SLPC  C316 7479   1.818   3.286   4.774 -0.1851 -1.0937  0.9738
   80SLPC  H16X 7480   1.725   3.269   4.715 -1.0515  1.4571  1.4753
   80SLPC  H16Y 7481   1.872   3.194   4.805  0.3408 -1.7659 -1.6806
   80SLPC  C317 7482   1.921   3.370   4.698  1.1328  0.0783  0.0630
   80SLPC  H17X 7483   2.004   3.381   4.771  0.3860 -1.9958  1.3040
   80SLPC  H17Y 7484   1.878   3.469   4.672  3.2240  1.0532  0.0870
   80SLPC  C318 7485   1.972   3.294   4.569  0.1441  0.2871  0.5088
   80SLPC  H18X 7486   1.890   3.264   4.500  0.5379 -1.2014  0.6356
   80SLPC  H18Y 7487   2.027   3.202   4.600  2.0194  0.8526 -0.9780
   80SLPC  H18Z 7488   2.051   3.347   4.513  1.6873 -0.8213  1.5314
   81SLPC     N 7489   1.988   6.281   2.005 -0.4902  0.0362  0.2458
   81SLPC   C13 7490   2.074   6.398   2.041  0.3346 -0.0609 -0.1228
   81SLPC  H13A 7491   2.049   6.448   2.134  1.5419  1.7275 -0.7046
   81SLPC  H13B 7492   2.173   6.360   2.059  1.8570  3.1803 -0.8268
   81SLPC  H13C 7493   2.090   6.473   1.965  2.0006  0.6747  0.8973
   81SLPC   C14 7494   2.066   6.211   1.895  0.4431  0.5971 -0.1096
   81SLPC  H14A 7495   2.163   6.183   1.934 -1.5126 -1.1064  4.0747
   81SLPC  H14B 7496   2.018   6.120   1.861 -0.3359  0.2182  1.9054
   81SLPC  H14C 7497   2.072   6.286   1.817 -1.9262  0.5575 -0.3974
   81SLPC   C15 7498   1.860   6.321   1.947  0.4019 -0.1504 -0.7097
   81SLPC  H15A 7499   1.863   6.382   1.858  2.4348 -0.6521 -1.0329
   81SLPC  H15B 7500   1.801   6.234   1.921 -0.6675  0.3733 -0.1016
   81SLPC  H15C 7501   1.805   6.363   2.030  0.9729  0.5436 -0.6767
   81SLPC   C12 7502   1.963   6.190   2.127 -0.2770  0.3629  1.1884
   81SLPC  H12A 7503   1.894   6.110   2.107 -0.5302  0.6860  0.7657
   81SLPC  H12B 7504   1.924   6.253   2.206 -0.0369 -0.6680  2.1467
   81SLPC   C11 7505   2.086   6.130   2.193 -0.6022 -0.4313  0.5638
   81SLPC  H11A 7506   2.129   6.048   2.132 -0.6296  0.0129 -0.0681
   81SLPC  H11B 7507   2.043   6.078   2.281 -0.1310 -1.5198  0.1638
   81SLPC     P 7508   2.202   6.305   2.359  0.3115 -0.0123  0.3262
   81SLPC   O13 7509   2.217   6.446   2.320 -0.2039  0.3148  0.6569
   81SLPC   O14 7510   2.094   6.269   2.455 -0.3002 -0.4046 -0.3621
   81SLPC   O12 7511   2.197   6.220   2.229  0.4117 -0.3890  0.4688
   81SLPC   O11 7512   2.340   6.248   2.406 -0.3305 -0.3429 -0.0830
   81SLPC    C1 7513   2.376   6.114   2.412  1.3196 -0.3784  0.3810
   81SLPC    HA 7514   2.299   6.054   2.358  0.7308 -0.0012  0.7849
   81SLPC    HB 7515   2.474   6.095   2.364  1.3737  1.9082 -0.4977
   81SLPC    C2 7516   2.380   6.068   2.560  0.3254  0.0862  0.5884
   81SLPC    HS 7517   2.303   6.125   2.617 -1.1709 -0.3015 -0.9452
   81SLPC   O21 7518   2.509   6.076   2.600 -0.0724 -0.1193 -0.3467
   81SLPC   C21 7519   2.535   6.182   2.678  0.9858 -0.8653  0.1084
   81SLPC   O22 7520   2.456   6.272   2.700 -0.6173 -0.4790 -0.0749
   81SLPC   C22 7521   2.671   6.179   2.744 -0.8504 -0.7647  0.0481
   81SLPC   H2R 7522   2.709   6.074   2.743  0.6101 -0.2493 -0.8424
   81SLPC   H2S 7523   2.737   6.246   2.685 -1.5676 -0.7133 -0.7186
   81SLPC    C3 7524   2.341   5.918   2.553 -0.1404 -0.5062 -0.3038
   81SLPC    HX 7525   2.415   5.857   2.498 -1.0391 -1.6564 -0.2754
   81SLPC    HY 7526   2.244   5.922   2.498  0.0454  2.9660 -0.5931
   81SLPC   O31 7527   2.316   5.856   2.686  0.0304 -0.2926 -0.1987
   81SLPC   C31 7528   2.419   5.813   2.752 -0.5320  0.1987 -0.3923
   81SLPC   O32 7529   2.537   5.809   2.716 -0.1991  0.3018  0.3064
   81SLPC   C32 7530   2.372   5.768   2.892 -0.0144  0.2127 -0.4813
   81SLPC   H2X 7531   2.413   5.665   2.904 -2.8432 -1.2324 -2.2835
   81SLPC   H2Y 7532   2.262   5.752   2.898 -0.2981  2.3854  1.4812
   81SLPC   C23 7533   2.668   6.231   2.891  0.5620  0.3975 -0.8741
   81SLPC   H3R 7534   2.573   6.199   2.938  2.2044 -0.7465  1.9661
   81SLPC   H3S 7535   2.676   6.342   2.885  1.0412  0.3217 -1.7612
   81SLPC   C24 7536   2.787   6.170   2.968 -0.4130  0.1678 -0.0112
   81SLPC   H4R 7537   2.878   6.234   2.961 -1.4476  1.4679 -2.7203
   81SLPC   H4S 7538   2.823   6.078   2.917 -0.3108  0.9321 -1.3748
   81SLPC   C25 7539   2.764   6.140   3.115 -0.1645 -0.3887 -0.3858
   81SLPC   H5R 7540   2.849   6.082   3.159 -0.5126 -1.7631 -1.4476
   81SLPC   H5S 7541   2.680   6.068   3.117  0.1504 -0.8845 -2.5092
   81SLPC   C26 7542   2.705   6.254   3.199 -0.1594 -0.2782 -0.2433
   81SLPC   H6R 7543   2.602   6.284   3.170  0.1019  2.7650  1.5647
   81SLPC   H6S 7544   2.769   6.342   3.177  0.2390 -0.7150 -0.8863
   81SLPC   C27 7545   2.708   6.217   3.351  0.3847 -0.0326 -0.3695
   81SLPC   H7R 7546   2.682   6.110   3.366  3.0344 -0.6942  0.0458
   81SLPC   H7S 7547   2.640   6.282   3.411 -0.2938  0.5051 -1.6822
   81SLPC   C28 7548   2.848   6.244   3.408  0.2025 -0.0433  0.5467
   81SLPC   H8R 7549   2.924   6.181   3.357  1.0443 -0.2769  2.0302
   81SLPC   H8S 7550   2.845   6.205   3.512 -1.1039 -0.1557  0.4881
   81SLPC   C29 7551   2.903   6.388   3.411  0.4522  0.1013  0.5385
   81SLPC   H9R 7552   2.955   6.414   3.318  1.6144  3.9294  2.0572
   81SLPC  C210 7553   2.874   6.481   3.503 -0.2247 -0.4453  0.0034
   81SLPC  H10R 7554   2.903   6.588   3.499  1.5147 -0.7532  2.0430
   81SLPC  C211 7555   2.804   6.453   3.637 -0.0943  0.2876 -0.1316
   81SLPC  H11R 7556   2.887   6.473   3.709 -0.3134  0.0257  0.1968
   81SLPC  H11S 7557   2.796   6.343   3.651  1.7250  0.2964  1.4616
   81SLPC  C212 7558   2.670   6.525   3.666 -0.4503  0.3406 -0.0043
   81SLPC  H12R 7559   2.618   6.560   3.576 -1.4225 -2.4282 -0.6041
   81SLPC  C213 7560   2.633   6.563   3.788 -0.0447 -0.1949  0.3706
   81SLPC  H13R 7561   2.539   6.618   3.803  1.2574  2.5399 -0.8811
   81SLPC  C214 7562   2.713   6.532   3.914  0.3998  0.1278  0.2500
   81SLPC  H14R 7563   2.793   6.608   3.922  1.0027 -0.5784  1.0208
   81SLPC  H14S 7564   2.770   6.437   3.910  0.7722  0.3247  0.7227
   81SLPC  C215 7565   2.626   6.532   4.047  0.2166 -0.2618  0.6316
   81SLPC  H15R 7566   2.547   6.456   4.024  0.7521 -0.8530  0.7219
   81SLPC  H15S 7567   2.571   6.628   4.051 -2.0865 -1.4167 -0.8274
   81SLPC  C216 7568   2.689   6.486   4.175 -0.3299  0.2517 -0.1064
   81SLPC  H16R 7569   2.725   6.383   4.153 -0.2811  0.2344  0.0508
   81SLPC  H16S 7570   2.619   6.474   4.261 -0.7633  0.3566 -0.4410
   81SLPC  C217 7571   2.812   6.561   4.216 -0.2413  0.4747  0.3042
   81SLPC  H17R 7572   2.881   6.573   4.130 -2.0781  0.6413 -1.1940
   81SLPC  H17S 7573   2.875   6.506   4.290  1.4662  0.9061 -0.7706
   81SLPC  C218 7574   2.780   6.703   4.265  0.1400 -0.3352 -0.1617
   81SLPC  H18R 7575   2.872   6.750   4.305 -0.1625 -0.5145  0.7590
   81SLPC  H18S 7576   2.708   6.688   4.348  1.2787  0.1896  0.9475
   81SLPC  H18T 7577   2.737   6.754   4.176 -2.8537 -1.1796  0.6631
   81SLPC   C33 7578   2.427   5.879   2.983  0.4725 -0.3020 -0.1176
   81SLPC   H3X 7579   2.384   5.979   2.960  1.4070 -0.1698 -1.3381
   81SLPC   H3Y 7580   2.538   5.884   2.992  0.3304  1.3543  1.6804
   81SLPC   C34 7581   2.381   5.853   3.125 -0.3470 -0.1340  0.1196
   81SLPC   H4X 7582   2.426   5.763   3.172 -1.6247  0.0920  1.8509
   81SLPC   H4Y 7583   2.274   5.823   3.132  0.1329 -2.2002 -0.5833
   81SLPC   C35 7584   2.408   5.967   3.220  0.7391 -0.2610  0.1914
   81SLPC   H5X 7585   2.338   6.052   3.204 -0.9226 -1.6576 -0.3320
   81SLPC   H5Y 7586   2.515   5.993   3.230  0.6339 -0.1375  1.1533
   81SLPC   C36 7587   2.369   5.927   3.358  0.0289 -0.0236 -0.4836
   81SLPC   H6X 7588   2.447   5.866   3.409 -0.7533  1.2053  2.4166
   81SLPC   H6Y 7589   2.290   5.849   3.349  0.0963  0.0453 -1.7641
   81SLPC   C37 7590   2.347   6.043   3.458  0.0939  0.6867 -0.3589
   81SLPC   H7X 7591   2.250   6.095   3.441 -1.9295 -1.9854  1.9128
   81SLPC   H7Y 7592   2.435   6.106   3.437  0.6083 -0.0328 -0.4060
   81SLPC   C38 7593   2.348   6.005   3.608 -0.5177  0.1124  0.1600
   81SLPC   H8X 7594   2.431   5.937   3.635  0.0470  1.4160  1.8172
   81SLPC   H8Y 7595   2.249   5.961   3.635 -0.0532 -1.0212  0.0635
   81SLPC   C39 7596   2.355   6.134   3.701  0.2103 -0.1188  0.5875
   81SLPC   H9X 7597   2.260   6.187   3.680  1.1863  0.8070 -1.8086
   81SLPC   H9Y 7598   2.439   6.196   3.663 -0.4841 -1.1273 -2.9548
   81SLPC  C310 7599   2.368   6.099   3.846  0.4511 -0.6418 -0.0112
   81SLPC  H10X 7600   2.287   6.024   3.863  1.8666 -2.3341 -0.5063
   81SLPC  H10Y 7601   2.336   6.193   3.897 -1.2239 -1.8391  1.2494
   81SLPC  C311 7602   2.499   6.057   3.913 -0.1079  0.0755  0.6674
   81SLPC  H11X 7603   2.504   5.950   3.886  0.2798  0.4264 -0.7232
   81SLPC  H11Y 7604   2.484   6.060   4.023 -1.7486 -1.7741  0.5448
   81SLPC  C312 7605   2.620   6.135   3.864  0.7207  0.3832  0.1433
   81SLPC  H12X 7606   2.609   6.242   3.890  1.8878  1.1174 -2.1165
   81SLPC  H12Y 7607   2.624   6.126   3.753 -2.8059  0.8955 -0.1346
   81SLPC  C313 7608   2.757   6.089   3.921 -0.2538 -1.2939  0.2783
   81SLPC  H13X 7609   2.783   5.986   3.889  1.9977 -1.2379  1.7060
   81SLPC  H13Y 7610   2.753   6.081   4.031  0.8719 -0.3367  0.4071
   81SLPC  C314 7611   2.878   6.185   3.910  0.3574 -0.1709 -0.2369
   81SLPC  H14X 7612   2.854   6.271   3.976 -0.1313  0.5061 -1.2741
   81SLPC  H14Y 7613   2.887   6.212   3.802 -2.1138 -0.4676 -0.5718
   81SLPC  C315 7614   3.012   6.109   3.955 -0.6193 -0.8924 -0.2700
   81SLPC  H15X 7615   3.037   6.023   3.889  3.1332  0.4185 -0.8085
   81SLPC  H15Y 7616   2.996   6.058   4.052  1.3068 -1.2398 -0.0927
   81SLPC  C316 7617   3.118   6.216   3.962 -0.5953 -0.9525 -0.1462
   81SLPC  H16X 7618   3.120   6.262   3.861 -0.0730  0.5433  0.5138
   81SLPC  H16Y 7619   3.212   6.166   3.994 -0.1422  1.0478  1.9001
   81SLPC  C317 7620   3.107   6.316   4.075 -0.4101 -0.3264  0.4111
   81SLPC  H17X 7621   3.022   6.385   4.062  1.4957  2.1458  0.3128
   81SLPC  H17Y 7622   3.196   6.383   4.073 -1.5049  1.3599  3.1922
   81SLPC  C318 7623   3.107   6.255   4.217  0.6461  0.3887 -0.7351
   81SLPC  H18X 7624   3.009   6.204   4.235  0.6731 -0.0039 -1.6711
   81SLPC  H18Y 7625   3.101   6.330   4.299 -1.0675 -0.6787  0.1936
   81SLPC  H18Z 7626   3.193   6.188   4.238  0.7156  0.3310 -1.2119
   82SLPC     N 7627   0.312   0.575   1.368  0.4675  0.4495 -0.8180
   82SLPC   C13 7628   0.272   0.579   1.225  0.2734  0.1484  0.0793
   82SLPC  H13A 7629   0.173   0.547   1.198  0.2456  1.2059 -1.1674
   82SLPC  H13B 7630   0.280   0.681   1.190  1.9004  0.0313 -0.0080
   82SLPC  H13C 7631   0.342   0.535   1.154 -0.4375  0.8153 -1.0738
   82SLPC   C14 7632   0.456   0.623   1.364  0.0287 -0.7066  0.2470
   82SLPC  H14A 7633   0.475   0.724   1.330  0.2859 -1.8268 -3.3631
   82SLPC  H14B 7634   0.520   0.601   1.448  1.1363 -1.6730 -0.8318
   82SLPC  H14C 7635   0.506   0.565   1.288 -2.1956 -2.1299 -0.2181
   82SLPC   C15 7636   0.301   0.434   1.409 -0.3683 -0.1165  0.0288
   82SLPC  H15A 7637   0.379   0.373   1.367 -0.2969 -1.7698  2.3267
   82SLPC  H15B 7638   0.302   0.424   1.517  0.5193  0.1890  0.0512
   82SLPC  H15C 7639   0.206   0.392   1.378 -1.1506 -0.4613  2.6261
   82SLPC   C12 7640   0.228   0.658   1.455 -0.6199  0.8172 -0.7452
   82SLPC  H12A 7641   0.212   0.752   1.404  0.2492  1.7447  0.6372
   82SLPC  H12B 7642   0.272   0.682   1.550 -0.4470 -1.1325 -0.3070
   82SLPC   C11 7643   0.097   0.594   1.505  0.6635  0.7629 -0.1740
   82SLPC  H11A 7644   0.052   0.538   1.420 -0.0356  0.7483  0.2015
   82SLPC  H11B 7645   0.026   0.672   1.541  2.1232  2.3647 -0.6289
   82SLPC     P 7646   0.029   0.473   1.731  0.2480 -0.3778 -0.3856
   82SLPC   O13 7647  -0.115   0.475   1.694 -0.4275 -0.4981  0.5144
   82SLPC   O14 7648   0.072   0.338   1.777  0.1421 -0.2103 -0.8141
   82SLPC   O12 7649   0.128   0.515   1.616 -0.3092  0.1216  0.4380
   82SLPC   O11 7650   0.041   0.576   1.854  0.3251 -0.8013  0.6279
   82SLPC    C1 7651   0.170   0.613   1.906  0.2781 -0.2729  0.1908
   82SLPC    HA 7652   0.237   0.530   1.938 -1.0044 -0.8728  1.3886
   82SLPC    HB 7653   0.213   0.684   1.832 -2.7844 -0.3272 -1.8116
   82SLPC    C2 7654   0.152   0.699   2.038  0.5462  0.0373  0.3089
   82SLPC    HS 7655   0.073   0.642   2.093  1.5523  0.2780  2.0839
   82SLPC   O21 7656   0.102   0.832   2.005 -0.2819  0.3129  0.4999
   82SLPC   C21 7657   0.039   0.885   2.108  0.1133 -0.6243 -0.0188
   82SLPC   O22 7658  -0.004   0.828   2.204  0.4709  0.4500  0.0529
   82SLPC   C22 7659   0.037   1.034   2.088 -0.0766  0.2609  0.1031
   82SLPC   H2R 7660   0.107   1.070   2.010 -1.4598  0.8398 -0.9334
   82SLPC   H2S 7661  -0.068   1.047   2.052  0.0874  0.0293 -0.4584
   82SLPC    C3 7662   0.285   0.714   2.114 -0.1423 -0.9911 -0.3632
   82SLPC    HX 7663   0.346   0.785   2.054  1.5969 -0.2684  2.1042
   82SLPC    HY 7664   0.339   0.618   2.129  1.5042 -0.0858 -0.2710
   82SLPC   O31 7665   0.278   0.772   2.240  0.3579 -0.6784  0.6444
   82SLPC   C31 7666   0.254   0.706   2.349  0.8977 -0.1352  0.2441
   82SLPC   O32 7667   0.239   0.587   2.354 -0.9800  1.0615  0.3467
   82SLPC   C32 7668   0.255   0.802   2.467  0.2322 -0.0091 -0.0762
   82SLPC   H2X 7669   0.198   0.895   2.444  0.1182 -0.1834 -0.5055
   82SLPC   H2Y 7670   0.362   0.830   2.477  0.8360 -1.6019 -1.5535
   82SLPC   C23 7671   0.069   1.113   2.214 -0.2823  0.1994 -0.3329
   82SLPC   H3R 7672   0.010   1.071   2.298  0.2504 -3.6946 -1.7046
   82SLPC   H3S 7673   0.027   1.211   2.183  0.5105  0.5771 -0.2311
   82SLPC   C24 7674   0.221   1.128   2.230  0.0973  0.1773  0.2166
   82SLPC   H4R 7675   0.272   1.149   2.133 -0.4901 -3.5686 -1.0563
   82SLPC   H4S 7676   0.268   1.029   2.251  0.5802  0.1148 -1.1065
   82SLPC   C25 7677   0.270   1.214   2.348  0.2404  0.3868  0.7257
   82SLPC   H5R 7678   0.219   1.310   2.327 -0.3848 -0.1729 -0.4207
   82SLPC   H5S 7679   0.380   1.221   2.336  0.2329 -2.2173 -2.1911
   82SLPC   C26 7680   0.252   1.173   2.488  0.2345 -0.4534 -0.6219
   82SLPC   H6R 7681   0.342   1.125   2.531  0.0459 -0.2947 -0.0491
   82SLPC   H6S 7682   0.167   1.100   2.493  0.5529 -0.8664 -1.0571
   82SLPC   C27 7683   0.207   1.292   2.569 -0.0228 -0.2515 -0.1810
   82SLPC   H7R 7684   0.111   1.334   2.533 -1.4853 -1.0808  2.5250
   82SLPC   H7S 7685   0.275   1.380   2.571  0.7208 -0.7949 -0.7753
   82SLPC   C28 7686   0.194   1.268   2.723 -0.5036 -0.0264  0.5124
   82SLPC   H8R 7687   0.195   1.369   2.771 -0.3485  0.5576 -0.6916
   82SLPC   H8S 7688   0.283   1.208   2.751 -0.8625 -0.4047  0.8652
   82SLPC   C29 7689   0.066   1.198   2.768 -0.2946  0.9441  0.0637
   82SLPC   H9R 7690   0.003   1.174   2.681 -0.9330  1.5270  0.3636
   82SLPC  C210 7691   0.050   1.162   2.898  0.3924  0.2352  0.0186
   82SLPC  H10R 7692  -0.044   1.112   2.926  0.1678  0.1204 -0.8936
   82SLPC  C211 7693   0.151   1.179   3.007  0.5478  0.1260 -0.0348
   82SLPC  H11R 7694   0.099   1.200   3.103 -0.4531  0.3017 -0.6033
   82SLPC  H11S 7695   0.226   1.258   2.990  1.5662 -0.9862 -0.8714
   82SLPC  C212 7696   0.234   1.052   3.014 -0.1632 -0.0997  0.3552
   82SLPC  H12R 7697   0.293   1.036   2.923  0.9479  0.8521  0.8895
   82SLPC  C213 7698   0.230   0.969   3.123 -0.1539 -0.3069  0.1718
   82SLPC  H13R 7699   0.268   0.868   3.105 -0.8767 -0.3845 -0.9867
   82SLPC  C214 7700   0.152   0.988   3.255 -0.1905 -0.2305 -0.0770
   82SLPC  H14R 7701   0.101   0.892   3.279  0.7213 -1.1119 -1.5429
   82SLPC  H14S 7702   0.081   1.072   3.243  0.6026  0.6710  1.3432
   82SLPC  C215 7703   0.237   1.027   3.369 -0.9307  0.5253  1.1036
   82SLPC  H15R 7704   0.279   1.128   3.349 -2.7621  1.1772  0.3380
   82SLPC  H15S 7705   0.318   0.955   3.394 -0.4470  1.7400  3.2778
   82SLPC  C216 7706   0.174   1.045   3.508  0.5961  0.3698  0.2047
   82SLPC  H16R 7707   0.075   1.095   3.500 -0.0709 -1.0596 -1.0977
   82SLPC  H16S 7708   0.239   1.115   3.565  0.2359  0.1956  0.8315
   82SLPC  C217 7709   0.175   0.906   3.584 -0.5695 -0.2331 -0.0733
   82SLPC  H17R 7710   0.278   0.865   3.594 -0.6961 -0.7090 -0.6749
   82SLPC  H17S 7711   0.111   0.833   3.531 -0.0391  0.6043 -1.9450
   82SLPC  C218 7712   0.121   0.931   3.723 -0.3134 -0.8444 -0.2829
   82SLPC  H18R 7713   0.185   1.006   3.773  1.3741 -2.5774  0.2732
   82SLPC  H18S 7714   0.128   0.832   3.774  0.1163 -1.1751 -0.9703
   82SLPC  H18T 7715   0.020   0.975   3.708  0.8514  1.8937 -0.5942
   82SLPC   C33 7716   0.211   0.727   2.601  0.0127  0.5448 -0.3129
   82SLPC   H3X 7717   0.236   0.798   2.682 -0.6444  2.3042 -1.5989
   82SLPC   H3Y 7718   0.259   0.628   2.616  0.1466  0.6901  0.2081
   82SLPC   C34 7719   0.070   0.687   2.624  0.5055 -0.7135 -0.0851
   82SLPC   H4X 7720   0.062   0.631   2.719  2.2501 -1.1293 -0.1522
   82SLPC   H4Y 7721   0.029   0.630   2.538 -2.4927  0.5674  0.3944
   82SLPC   C35 7722  -0.015   0.820   2.646 -0.2160  0.6113  0.1859
   82SLPC   H5X 7723   0.012   0.871   2.551  1.4035 -2.3252 -1.0564
   82SLPC   H5Y 7724   0.014   0.886   2.731  0.5167 -1.0407  1.2560
   82SLPC   C36 7725  -0.167   0.793   2.654  0.1166 -0.0142 -0.4775
   82SLPC   H6X 7726  -0.202   0.726   2.573 -0.1449 -3.3111  2.1276
   82SLPC   H6Y 7727  -0.212   0.895   2.655 -0.0317 -0.0393 -2.1678
   82SLPC   C37 7728  -0.218   0.729   2.785 -0.2539 -0.5021  0.3103
   82SLPC   H7X 7729  -0.201   0.619   2.795 -0.2128 -0.3984  1.5394
   82SLPC   H7Y 7730  -0.328   0.742   2.795  0.1210  1.3727  3.3437
   82SLPC   C38 7731  -0.169   0.792   2.917 -0.2414 -0.3293 -0.9672
   82SLPC   H8X 7732  -0.220   0.890   2.923 -1.6038 -1.0266 -0.7917
   82SLPC   H8Y 7733  -0.059   0.807   2.923 -0.2503 -0.7769  2.6047
   82SLPC   C39 7734  -0.212   0.707   3.043  0.8606 -0.1328  0.5563
   82SLPC   H9X 7735  -0.165   0.612   3.011  0.0186  0.4815 -2.9574
   82SLPC   H9Y 7736  -0.323   0.694   3.040  0.8932 -0.3004 -2.1064
   82SLPC  C310 7737  -0.168   0.761   3.176 -0.0217 -0.0165 -0.6214
   82SLPC  H10X 7738  -0.057   0.771   3.184 -0.1592  0.0383  2.1020
   82SLPC  H10Y 7739  -0.192   0.681   3.248 -1.5692 -0.9469 -2.0873
   82SLPC  C311 7740  -0.230   0.894   3.206 -0.4008  0.2650  0.2905
   82SLPC  H11X 7741  -0.338   0.879   3.183 -0.2342 -2.4678  0.9238
   82SLPC  H11Y 7742  -0.191   0.974   3.140 -2.1602  0.2343 -0.8382
   82SLPC  C312 7743  -0.217   0.937   3.352 -0.1900 -1.1732  0.3020
   82SLPC  H12X 7744  -0.258   1.040   3.341  0.4977 -0.7924  1.1728
   82SLPC  H12Y 7745  -0.110   0.937   3.379 -0.0060  1.1927 -0.1912
   82SLPC  C313 7746  -0.291   0.838   3.441 -0.3345 -0.0104 -0.2851
   82SLPC  H13X 7747  -0.242   0.738   3.447  0.0254  0.2354  2.7253
   82SLPC  H13Y 7748  -0.391   0.829   3.394 -0.1250  0.4255 -0.8234
   82SLPC  C314 7749  -0.321   0.884   3.588  0.3537 -0.9381  0.1797
   82SLPC  H14X 7750  -0.319   0.995   3.588 -1.1430 -0.8717 -1.5890
   82SLPC  H14Y 7751  -0.234   0.853   3.650 -0.6291 -0.5655  1.8302
   82SLPC  C315 7752  -0.455   0.828   3.654  0.3463 -0.1420  0.4822
   82SLPC  H15X 7753  -0.467   0.721   3.627 -0.4602  0.2102 -0.6426
   82SLPC  H15Y 7754  -0.548   0.873   3.614  0.2297  0.5059  1.4461
   82SLPC  C316 7755  -0.466   0.858   3.805 -0.2275 -0.2983 -0.1920
   82SLPC  H16X 7756  -0.447   0.965   3.827 -2.0999  0.1085 -0.3311
   82SLPC  H16Y 7757  -0.390   0.796   3.858 -0.1981  0.1940  0.3497
   82SLPC  C317 7758  -0.603   0.824   3.865  0.8790  0.5107  0.1461
   82SLPC  H17X 7759  -0.685   0.861   3.799  0.0143 -0.7212  0.4897
   82SLPC  H17Y 7760  -0.602   0.892   3.952  1.0907 -0.6120  1.0409
   82SLPC  C318 7761  -0.617   0.681   3.903  0.6081  0.6329  0.2597
   82SLPC  H18X 7762  -0.549   0.652   3.986  0.5893 -0.9433 -0.2519
   82SLPC  H18Y 7763  -0.601   0.622   3.810 -6.3680 -0.8448 -0.5614
   82SLPC  H18Z 7764  -0.719   0.658   3.942 -0.2974  1.0790 -1.6963
   83SLPC     N 7765   2.137   5.288   1.901 -0.3033  0.2076 -0.8165
   83SLPC   C13 7766   2.168   5.171   1.987 -0.0227 -0.5180  0.5690
   83SLPC  H13A 7767   2.095   5.092   1.970 -0.4585 -0.1727  0.8141
   83SLPC  H13B 7768   2.270   5.138   1.973  0.0884 -0.3074  0.8918
   83SLPC  H13C 7769   2.143   5.193   2.090  2.0993  1.1130  0.8027
   83SLPC   C14 7770   2.149   5.247   1.759  0.2265 -0.0506  0.1119
   83SLPC  H14A 7771   2.125   5.335   1.700 -1.8939 -0.2126  0.6617
   83SLPC  H14B 7772   2.246   5.207   1.734  0.7391  1.0650  0.2601
   83SLPC  H14C 7773   2.075   5.174   1.731 -0.4286 -0.0707  1.8089
   83SLPC   C15 7774   2.246   5.389   1.923  0.1448 -0.2249  0.8197
   83SLPC  H15A 7775   2.336   5.368   1.866  0.1035  1.5833  0.0200
   83SLPC  H15B 7776   2.221   5.488   1.889  1.4081 -0.6484 -1.6348
   83SLPC  H15C 7777   2.270   5.391   2.028 -4.6332 -0.7036  2.1329
   83SLPC   C12 7778   2.000   5.342   1.937  0.1713  0.2030 -0.6495
   83SLPC  H12A 7779   1.925   5.269   1.909  1.4094 -0.9405 -1.0384
   83SLPC  H12B 7780   1.972   5.431   1.882 -1.2602 -0.1959 -0.6061
   83SLPC   C11 7781   1.973   5.372   2.086 -0.6259  0.1767  0.3032
   83SLPC  H11A 7782   1.880   5.431   2.099 -1.3673 -1.1604  1.3955
   83SLPC  H11B 7783   2.048   5.436   2.137  0.2672  0.0586 -0.8257
   83SLPC     P 7784   1.832   5.171   2.183  0.5911 -0.2247 -0.7457
   83SLPC   O13 7785   1.769   5.157   2.049 -0.0468  0.5007  0.5365
   83SLPC   O14 7786   1.865   5.044   2.255 -0.3001 -0.1366 -0.0401
   83SLPC   O12 7787   1.969   5.252   2.160  0.2375  0.2568 -0.2631
   83SLPC   O11 7788   1.737   5.263   2.279  0.3010  0.6391  0.2601
   83SLPC    C1 7789   1.798   5.342   2.378  0.1897 -0.1535 -0.7059
   83SLPC    HA 7790   1.908   5.355   2.368  0.4691 -1.0978  0.7843
   83SLPC    HB 7791   1.761   5.445   2.397  0.9469  0.2907 -1.5569
   83SLPC    C2 7792   1.781   5.271   2.524 -0.7284 -0.1958  0.3870
   83SLPC    HS 7793   1.839   5.336   2.593 -0.9641  0.9117 -0.4227
   83SLPC   O21 7794   1.834   5.135   2.528 -0.3363 -0.1685 -0.4958
   83SLPC   C21 7795   1.972   5.126   2.542  1.1633  0.1117  0.1299
   83SLPC   O22 7796   2.050   5.220   2.533  0.0592 -0.2759 -0.5230
   83SLPC   C22 7797   2.023   4.985   2.571 -0.0040  0.0325  0.1748
   83SLPC   H2R 7798   1.941   4.924   2.614 -0.0778 -1.3772 -1.8427
   83SLPC   H2S 7799   2.069   4.957   2.474  1.9100  0.6514  0.8548
   83SLPC    C3 7800   1.633   5.278   2.573 -0.0623  0.7534 -0.1443
   83SLPC    HX 7801   1.569   5.205   2.520  1.0654 -0.2418 -0.1852
   83SLPC    HY 7802   1.584   5.375   2.550 -2.1157 -0.4072 -0.9034
   83SLPC   O31 7803   1.628   5.254   2.715  0.1160 -0.5089 -1.0207
   83SLPC   C31 7804   1.623   5.128   2.767  0.6404  0.2070  0.8509
   83SLPC   O32 7805   1.614   5.024   2.703 -0.0997 -0.2777 -0.3490
   83SLPC   C32 7806   1.636   5.132   2.918 -0.7528  0.2716 -0.1730
   83SLPC   H2X 7807   1.556   5.067   2.958 -0.1174 -1.4048 -1.4903
   83SLPC   H2Y 7808   1.623   5.236   2.957 -2.7804  0.4721 -1.2557
   83SLPC   C23 7809   2.143   4.978   2.665 -0.0100  0.0605 -0.0092
   83SLPC   H3R 7810   2.165   4.871   2.687  1.9009  0.3606 -0.2509
   83SLPC   H3S 7811   2.112   5.031   2.758  2.0953 -0.2844  0.9570
   83SLPC   C24 7812   2.272   5.034   2.604  0.2983  0.5736  0.5958
   83SLPC   H4R 7813   2.254   5.141   2.583 -4.1279 -0.2294 -0.6646
   83SLPC   H4S 7814   2.266   4.991   2.502 -1.2185 -2.0951  1.7114
   83SLPC   C25 7815   2.405   4.999   2.677 -0.1932  0.4389  0.0796
   83SLPC   H5R 7816   2.491   5.034   2.616  0.5319 -1.9084 -0.3484
   83SLPC   H5S 7817   2.412   4.888   2.674  0.5390  0.5042 -1.2110
   83SLPC   C26 7818   2.421   5.033   2.822  0.0424 -0.2406  0.8941
   83SLPC   H6R 7819   2.349   4.963   2.869 -0.5170 -1.3533 -1.4839
   83SLPC   H6S 7820   2.393   5.138   2.847 -0.0082 -0.0046 -0.1104
   83SLPC   C27 7821   2.555   4.984   2.883 -0.5074  0.2704 -0.4016
   83SLPC   H7R 7822   2.632   5.044   2.830  0.7911 -1.4791 -0.5967
   83SLPC   H7S 7823   2.566   4.876   2.861  1.3667  0.6088 -1.2963
   83SLPC   C28 7824   2.558   4.999   3.039 -0.6159  0.3259 -0.2607
   83SLPC   H8R 7825   2.460   4.957   3.069 -0.6160  0.1023 -0.5740
   83SLPC   H8S 7826   2.541   5.105   3.068 -2.7566  0.2586 -1.0823
   83SLPC   C29 7827   2.677   4.927   3.114  0.5439  0.1123  0.0843
   83SLPC   H9R 7828   2.778   4.968   3.094  0.0626  0.0742 -2.8862
   83SLPC  C210 7829   2.658   4.833   3.205 -0.3115 -0.0089 -0.2991
   83SLPC  H10R 7830   2.749   4.804   3.261 -0.5726 -0.0938  0.0834
   83SLPC  C211 7831   2.531   4.774   3.263 -1.1203  0.3763 -0.2510
   83SLPC  H11R 7832   2.559   4.670   3.293  1.6322  0.7690 -1.1538
   83SLPC  H11S 7833   2.457   4.782   3.181 -1.8276 -1.2523  0.1849
   83SLPC  C212 7834   2.478   4.843   3.383 -0.1768 -0.8186  0.7750
   83SLPC  H12R 7835   2.504   4.950   3.395 -1.4407 -0.6994  2.7777
   83SLPC  C213 7836   2.384   4.799   3.461 -0.4845 -0.3290  0.2416
   83SLPC  H13R 7837   2.342   4.869   3.536  0.7967  1.4569 -0.6441
   83SLPC  C214 7838   2.320   4.661   3.465  0.5827 -0.1482  0.1429
   83SLPC  H14R 7839   2.343   4.607   3.370 -2.7089 -1.2564 -0.1456
   83SLPC  H14S 7840   2.210   4.677   3.463  0.6384  0.7301  2.0914
   83SLPC  C215 7841   2.351   4.571   3.589  0.0894 -0.0009 -0.1450
   83SLPC  H15R 7842   2.348   4.612   3.692  0.4005 -3.0300  1.1510
   83SLPC  H15S 7843   2.455   4.533   3.578  0.6378  1.4405 -0.2105
   83SLPC  C216 7844   2.246   4.464   3.601 -0.0863  0.6019  0.5283
   83SLPC  H16R 7845   2.274   4.386   3.526  1.9957 -1.9329  3.6304
   83SLPC  H16S 7846   2.152   4.513   3.570  1.4785  3.4323 -0.0712
   83SLPC  C217 7847   2.214   4.387   3.739  0.0032 -0.1886 -0.3709
   83SLPC  H17R 7848   2.209   4.460   3.823 -1.0578 -1.1576  0.4352
   83SLPC  H17S 7849   2.303   4.322   3.750 -0.6936 -0.7967  2.3643
   83SLPC  C218 7850   2.076   4.314   3.734 -0.9492 -0.8266 -0.4535
   83SLPC  H18R 7851   2.050   4.286   3.838  3.3018 -0.0198  1.0134
   83SLPC  H18S 7852   2.079   4.238   3.653  2.1305  0.4140 -1.6573
   83SLPC  H18T 7853   2.003   4.393   3.706 -1.4547 -0.8007  0.8877
   83SLPC   C33 7854   1.777   5.083   2.975  0.8321 -0.3938  0.6034
   83SLPC   H3X 7855   1.802   4.988   2.923  1.4568 -0.2237  0.5925
   83SLPC   H3Y 7856   1.789   5.060   3.083  0.0767 -1.2022  0.5250
   83SLPC   C34 7857   1.888   5.183   2.945 -0.4441 -0.3468 -0.0879
   83SLPC   H4X 7858   1.856   5.284   2.981  0.0432 -0.3414  0.3461
   83SLPC   H4Y 7859   1.903   5.193   2.835  0.7773 -1.5994 -0.0608
   83SLPC   C35 7860   2.024   5.129   3.001 -0.2800 -0.3373  0.0665
   83SLPC   H5X 7861   2.114   5.172   2.952 -1.0567  3.1946  1.4286
   83SLPC   H5Y 7862   2.033   5.019   2.985 -0.1277 -0.0603 -1.9766
   83SLPC   C36 7863   2.036   5.152   3.146 -0.5135 -0.3195  0.7624
   83SLPC   H6X 7864   1.966   5.084   3.199 -1.0067 -0.2611  0.1900
   83SLPC   H6Y 7865   2.026   5.262   3.160  0.4372 -0.2280  0.7909
   83SLPC   C37 7866   2.181   5.108   3.195  0.2168 -0.8678 -0.0694
   83SLPC   H7X 7867   2.260   5.162   3.139  0.4448 -0.6836  0.4228
   83SLPC   H7Y 7868   2.185   5.000   3.168  1.1035 -1.3625  1.8404
   83SLPC   C38 7869   2.205   5.126   3.348 -0.5182 -0.4058  0.7690
   83SLPC   H8X 7870   2.216   5.236   3.353 -2.2197 -0.1183 -0.9101
   83SLPC   H8Y 7871   2.294   5.066   3.376 -0.9777 -1.4034  0.1435
   83SLPC   C39 7872   2.091   5.089   3.442 -0.2466 -0.2364  0.3499
   83SLPC   H9X 7873   2.053   4.986   3.424 -2.1813  0.7684 -1.9200
   83SLPC   H9Y 7874   2.007   5.156   3.415  0.3425  0.2384 -0.3573
   83SLPC  C310 7875   2.131   5.107   3.587 -0.3601 -0.7430  0.2551
   83SLPC  H10X 7876   2.140   5.217   3.597  0.4933 -0.9153  1.6811
   83SLPC  H10Y 7877   2.232   5.066   3.609 -1.5069 -2.9288  1.9046
   83SLPC  C311 7878   2.018   5.068   3.676  0.4695  0.2142 -0.4080
   83SLPC  H11X 7879   1.991   4.960   3.673  3.9668 -0.9401  2.4362
   83SLPC  H11Y 7880   1.937   5.133   3.636 -2.0295 -2.2150  0.3897
   83SLPC  C312 7881   2.037   5.115   3.819  0.4617  0.0979 -0.2154
   83SLPC  H12X 7882   1.938   5.118   3.870 -1.2797  1.0843 -3.3727
   83SLPC  H12Y 7883   2.057   5.224   3.810 -0.1131  0.0214 -3.1665
   83SLPC  C313 7884   2.141   5.039   3.906  0.0985  1.0880  0.8098
   83SLPC  H13X 7885   2.156   5.071   4.012 -0.0480  0.3347  1.0608
   83SLPC  H13Y 7886   2.234   5.037   3.845  0.2022  0.9185  0.9736
   83SLPC  C314 7887   2.091   4.887   3.916 -0.0401 -0.7909 -0.2173
   83SLPC  H14X 7888   2.103   4.826   3.824  2.5473  1.5397 -1.5807
   83SLPC  H14Y 7889   1.981   4.890   3.931 -0.0702 -1.7776 -0.1784
   83SLPC  C315 7890   2.160   4.801   4.024 -0.1330  0.0356 -0.4273
   83SLPC  H15X 7891   2.119   4.699   4.007 -1.7831  0.8724 -1.7626
   83SLPC  H15Y 7892   2.134   4.845   4.123  2.0439  1.9997 -0.6349
   83SLPC  C316 7893   2.313   4.809   4.000  0.8803  0.3470  0.3790
   83SLPC  H16X 7894   2.344   4.909   4.038  0.3233  1.3265 -1.6268
   83SLPC  H16Y 7895   2.346   4.793   3.896 -0.9721 -1.1154 -0.0453
   83SLPC  C317 7896   2.391   4.707   4.094 -0.1046  0.7190 -0.0511
   83SLPC  H17X 7897   2.499   4.731   4.081  0.2253 -1.1839 -1.1823
   83SLPC  H17Y 7898   2.379   4.607   4.047  1.7157  1.0629 -1.3679
   83SLPC  C318 7899   2.344   4.709   4.240  0.4542 -0.2747  0.2467
   83SLPC  H18X 7900   2.417   4.650   4.299  0.1250 -1.8974 -0.8940
   83SLPC  H18Y 7901   2.243   4.664   4.245  1.1375 -1.9284 -0.2658
   83SLPC  H18Z 7902   2.363   4.809   4.284  0.1766 -0.3010  0.4290
   84SLPC     N 7903   6.900   5.886   1.856 -0.2061  0.1249  0.4428
   84SLPC   C13 7904   6.938   5.916   1.712  0.3596 -0.1145  0.6472
   84SLPC  H13A 7905   7.035   5.964   1.714 -0.0764  0.7655  2.0044
   84SLPC  H13B 7906   6.957   5.825   1.656  1.8049 -0.3429  1.4600
   84SLPC  H13C 7907   6.860   5.966   1.657  0.5652  0.3152  0.7475
   84SLPC   C14 7908   7.001   5.789   1.912 -0.4014 -0.3948  0.0934
   84SLPC  H14A 7909   7.095   5.841   1.924 -1.5074  1.9587 -0.7613
   84SLPC  H14B 7910   6.971   5.745   2.006 -0.6928 -0.3414  0.0265
   84SLPC  H14C 7911   7.019   5.714   1.836  1.0624 -0.1745  0.1990
   84SLPC   C15 7912   6.773   5.815   1.855  0.1011  0.2403 -0.0111
   84SLPC  H15A 7913   6.770   5.734   1.783  3.2202  1.4319 -1.7295
   84SLPC  H15B 7914   6.747   5.779   1.953  1.0035  0.4305  0.3048
   84SLPC  H15C 7915   6.690   5.880   1.834 -0.4000  0.5814  2.6744
   84SLPC   C12 7916   6.874   6.003   1.944 -0.3397  0.1159  0.2955
   84SLPC  H12A 7917   6.773   6.034   1.924 -0.0342  0.9304 -0.0264
   84SLPC  H12B 7918   6.932   6.090   1.917  0.4573  0.1507  2.0222
   84SLPC   C11 7919   6.894   6.000   2.096  0.1033  0.7064  0.2164
   84SLPC  H11A 7920   6.906   6.102   2.138  2.0153  1.4255 -1.8813
   84SLPC  H11B 7921   6.993   5.951   2.106 -1.3533 -2.1014  2.7987
   84SLPC     P 7922   6.653   5.998   2.203  0.2766 -0.3201 -0.6709
   84SLPC   O13 7923   6.644   6.126   2.131 -0.6228 -0.9164  0.7671
   84SLPC   O14 7924   6.549   5.893   2.180 -0.9696  0.1083 -0.3223
   84SLPC   O12 7925   6.796   5.932   2.167  0.7651 -0.2607  0.3708
   84SLPC   O11 7926   6.664   6.035   2.360  0.4172 -0.0078  0.4336
   84SLPC    C1 7927   6.790   6.087   2.414  0.2069  0.5619 -0.2738
   84SLPC    HA 7928   6.883   6.040   2.375  0.3166  0.7043 -0.1849
   84SLPC    HB 7929   6.807   6.188   2.370  1.6203 -0.6123 -2.6394
   84SLPC    C2 7930   6.807   6.093   2.564  0.0734  0.8937 -0.2967
   84SLPC    HS 7931   6.910   6.110   2.601 -0.1825  0.0979  0.8280
   84SLPC   O21 7932   6.758   5.969   2.621 -0.3798  0.1751  0.1884
   84SLPC   C21 7933   6.830   5.871   2.582 -0.1019  0.2009  0.6750
   84SLPC   O22 7934   6.937   5.871   2.522  0.0419  0.2875  0.1103
   84SLPC   C22 7935   6.757   5.741   2.620 -0.1399 -0.6041 -0.4890
   84SLPC   H2R 7936   6.650   5.758   2.643 -0.3284 -1.0852 -0.9916
   84SLPC   H2S 7937   6.775   5.666   2.540  2.1931 -0.0300 -0.5922
   84SLPC    C3 7938   6.727   6.215   2.612  0.0038 -0.7241  1.0783
   84SLPC    HX 7939   6.629   6.215   2.560  0.0824 -0.2356  0.9266
   84SLPC    HY 7940   6.780   6.307   2.579 -1.2172 -0.8657 -1.6144
   84SLPC   O31 7941   6.709   6.219   2.757 -0.2507 -0.4596 -0.1454
   84SLPC   C31 7942   6.603   6.168   2.805  0.1485 -0.4900  0.8952
   84SLPC   O32 7943   6.509   6.120   2.741  0.0471 -0.4069  0.0883
   84SLPC   C32 7944   6.606   6.182   2.958 -0.1951 -0.3104  0.0611
   84SLPC   H2X 7945   6.591   6.290   2.976  1.5991 -0.2825  1.6780
   84SLPC   H2Y 7946   6.702   6.142   2.999  1.3142  0.8114 -2.1723
   84SLPC   C23 7947   6.828   5.692   2.749 -0.1197  0.0532 -0.4454
   84SLPC   H3R 7948   6.939   5.698   2.740 -0.1833  2.0349 -0.3722
   84SLPC   H3S 7949   6.801   5.586   2.762 -3.8381  1.0653  1.3318
   84SLPC   C24 7950   6.786   5.767   2.876 -0.3907  0.3611 -0.1262
   84SLPC   H4R 7951   6.676   5.752   2.877 -0.1621 -1.8341 -1.5614
   84SLPC   H4S 7952   6.819   5.873   2.865  0.0746  0.1950 -0.3581
   84SLPC   C25 7953   6.838   5.703   3.006  0.7129  0.6339  0.4909
   84SLPC   H5R 7954   6.949   5.700   3.010  0.6755 -0.0639  1.2913
   84SLPC   H5S 7955   6.803   5.598   3.016  3.2277 -0.1474  2.3473
   84SLPC   C26 7956   6.790   5.785   3.131 -0.0661 -0.8034 -0.0362
   84SLPC   H6R 7957   6.830   5.724   3.214  1.1448 -0.0365 -0.0374
   84SLPC   H6S 7958   6.680   5.802   3.125  0.0271 -0.7680 -2.9120
   84SLPC   C27 7959   6.871   5.919   3.148 -0.2063 -0.8176 -0.6573
   84SLPC   H7R 7960   6.827   5.997   3.083  1.1520 -0.5720 -1.3336
   84SLPC   H7S 7961   6.974   5.904   3.108 -0.2360 -0.3182 -0.9203
   84SLPC   C28 7962   6.867   5.960   3.297 -0.7496 -0.3256 -0.7014
   84SLPC   H8R 7963   6.893   5.876   3.365 -2.9576 -0.0771  0.5681
   84SLPC   H8S 7964   6.766   5.999   3.325 -0.1573 -0.0369  1.1583
   84SLPC   C29 7965   6.964   6.073   3.320  0.2976 -0.6034  0.2071
   84SLPC   H9R 7966   6.930   6.172   3.285  0.5818 -0.3731  0.5854
   84SLPC  C210 7967   7.079   6.067   3.387 -0.4088  0.5132 -0.3579
   84SLPC  H10R 7968   7.132   6.162   3.401  1.4413  0.2666 -4.2227
   84SLPC  C211 7969   7.148   5.951   3.446  0.7673  0.3007 -0.6780
   84SLPC  H11R 7970   7.081   5.862   3.453 -0.1232  1.0733  1.9923
   84SLPC  H11S 7971   7.158   5.982   3.553 -0.4046 -1.5023 -0.0037
   84SLPC  C212 7972   7.280   5.926   3.381  0.8637  0.6453 -0.4006
   84SLPC  H12R 7973   7.300   5.977   3.285  2.2366 -1.0772 -1.0852
   84SLPC  C213 7974   7.372   5.838   3.420 -0.2622 -0.5608 -0.0477
   84SLPC  H13R 7975   7.468   5.837   3.366 -0.4582 -0.6711 -0.3951
   84SLPC  C214 7976   7.365   5.733   3.531  0.3065 -0.2758  0.3772
   84SLPC  H14R 7977   7.426   5.642   3.509  1.8378  0.9503 -0.6024
   84SLPC  H14S 7978   7.257   5.709   3.538 -0.6674  2.0899 -3.7540
   84SLPC  C215 7979   7.415   5.796   3.662  0.3709  0.3721  0.0383
   84SLPC  H15R 7980   7.343   5.872   3.698 -0.6432 -0.4889 -0.1412
   84SLPC  H15S 7981   7.516   5.839   3.642  0.1095  0.6228 -0.8230
   84SLPC  C216 7982   7.412   5.703   3.778 -0.1602 -1.1397  0.7203
   84SLPC  H16R 7983   7.465   5.607   3.759  0.6395 -0.3861 -1.1713
   84SLPC  H16S 7984   7.305   5.677   3.794  0.4372 -3.1021  1.8116
   84SLPC  C217 7985   7.467   5.755   3.913 -0.9066  0.1047 -0.2434
   84SLPC  H17R 7986   7.427   5.856   3.935  0.7804  0.7247  0.1353
   84SLPC  H17S 7987   7.577   5.764   3.905 -0.6098 -1.9295  0.7601
   84SLPC  C218 7988   7.461   5.655   4.022 -0.1088  0.6863  0.4580
   84SLPC  H18R 7989   7.356   5.626   4.043 -1.2630  3.3843 -1.0390
   84SLPC  H18S 7990   7.492   5.701   4.119 -0.0442 -2.5675  2.1066
   84SLPC  H18T 7991   7.511   5.558   4.002 -2.6413 -0.5048 -0.4140
   84SLPC   C33 7992   6.491   6.107   3.037 -0.2045  0.0452 -0.4076
   84SLPC   H3X 7993   6.491   5.996   3.028  1.4855  0.0137 -0.3725
   84SLPC   H3Y 7994   6.386   6.132   3.010 -0.8697 -1.8720  0.2111
   84SLPC   C34 7995   6.508   6.114   3.194 -0.1385  0.0677  0.4605
   84SLPC   H4X 7996   6.541   6.217   3.221 -0.3974  0.4050 -0.4855
   84SLPC   H4Y 7997   6.590   6.040   3.208  2.4349  2.3995 -1.2984
   84SLPC   C35 7998   6.398   6.069   3.285 -0.1360 -0.3441 -0.2992
   84SLPC   H5X 7999   6.369   5.963   3.265 -0.3943 -0.2075 -0.6432
   84SLPC   H5Y 8000   6.306   6.123   3.254 -0.0609 -0.8163 -1.3957
   84SLPC   C36 8001   6.435   6.096   3.439 -0.7206  0.4531  0.8274
   84SLPC   H6X 8002   6.441   6.207   3.449 -0.5338  0.4029  1.2995
   84SLPC   H6Y 8003   6.529   6.041   3.460  0.3451  2.2673  1.0110
   84SLPC   C37 8004   6.312   6.060   3.526 -0.0318 -0.7735  0.6472
   84SLPC   H7X 8005   6.270   5.960   3.504 -0.7186  0.1055 -2.4933
   84SLPC   H7Y 8006   6.230   6.127   3.492  1.8068  0.5761 -1.4618
   84SLPC   C38 8007   6.338   6.078   3.678 -0.2295  0.2130 -0.6450
   84SLPC   H8X 8008   6.357   6.184   3.704  1.6283  0.1259 -1.4949
   84SLPC   H8Y 8009   6.428   6.023   3.712 -0.4364  0.3875  0.2090
   84SLPC   C39 8010   6.226   6.013   3.753 -0.1283 -0.1559 -0.2063
   84SLPC   H9X 8011   6.205   5.909   3.721 -1.8328  0.1802 -0.2982
   84SLPC   H9Y 8012   6.132   6.073   3.748 -1.0414 -1.5615 -0.4940
   84SLPC  C310 8013   6.248   6.006   3.906 -0.1043  0.2476 -0.9575
   84SLPC  H10X 8014   6.235   6.106   3.954 -1.4386 -1.0890  1.6766
   84SLPC  H10Y 8015   6.349   5.972   3.937  0.0618  2.2186  0.9227
   84SLPC  C311 8016   6.145   5.917   3.973  0.3719 -0.0241 -0.2369
   84SLPC  H11X 8017   6.151   5.809   3.950 -0.4774 -0.5238  1.7260
   84SLPC  H11Y 8018   6.045   5.951   3.937 -0.6612 -2.3456  0.2636
   84SLPC  C312 8019   6.130   5.927   4.127  0.5839 -0.8012 -0.8724
   84SLPC  H12X 8020   6.077   6.022   4.147  3.0972  0.2326  1.5680
   84SLPC  H12Y 8021   6.230   5.948   4.171  0.3738  1.5685 -1.4282
   84SLPC  C313 8022   6.046   5.813   4.194  0.4289 -0.4240 -0.0719
   84SLPC  H13X 8023   6.093   5.718   4.159  0.1462 -1.2965  1.8143
   84SLPC  H13Y 8024   5.944   5.829   4.153  0.8849 -0.1970 -1.1686
   84SLPC  C314 8025   6.046   5.823   4.342  0.5600 -0.0021 -0.1290
   84SLPC  H14X 8026   5.999   5.914   4.384  0.8299  0.4452 -0.7727
   84SLPC  H14Y 8027   6.149   5.815   4.384 -0.2495 -0.1590  1.9383
   84SLPC  C315 8028   5.962   5.711   4.398 -0.1303  0.6774  0.0333
   84SLPC  H15X 8029   5.964   5.710   4.509  0.1216 -1.0996  0.0465
   84SLPC  H15Y 8030   6.002   5.613   4.366  0.8644  1.0375  0.1528
   84SLPC  C316 8031   5.814   5.708   4.355  0.1518 -0.0965  1.2853
   84SLPC  H16X 8032   5.807   5.682   4.247 -1.8849 -3.1478  2.0161
   84SLPC  H16Y 8033   5.761   5.805   4.368  0.5911  0.0311  2.2103
   84SLPC  C317 8034   5.737   5.590   4.417 -0.4657  0.2318 -0.6097
   84SLPC  H17X 8035   5.805   5.502   4.427  1.7235  1.8788 -0.3659
   84SLPC  H17Y 8036   5.649   5.569   4.353 -0.2828  1.6319 -1.3565
   84SLPC  C318 8037   5.697   5.622   4.566  0.2281 -0.2803  0.1310
   84SLPC  H18X 8038   5.634   5.536   4.600  0.9922 -0.2039  1.8391
   84SLPC  H18Y 8039   5.641   5.717   4.568  0.1210 -0.2868 -1.4074
   84SLPC  H18Z 8040   5.783   5.630   4.636  0.1526 -1.9413  0.4704
   85SLPC     N 8041   2.543   6.521   2.294 -0.0791 -0.0635  0.4393
   85SLPC   C13 8042   2.655   6.601   2.237  0.1816  0.0977  0.8542
   85SLPC  H13A 8043   2.738   6.539   2.208  0.7284  1.7162 -1.1896
   85SLPC  H13B 8044   2.629   6.645   2.142  0.8411 -0.4704  0.4007
   85SLPC  H13C 8045   2.677   6.685   2.301  0.7813  0.3088  0.3750
   85SLPC   C14 8046   2.506   6.418   2.187  0.1260 -0.1842 -0.4442
   85SLPC  H14A 8047   2.528   6.445   2.085  0.5964 -0.3903 -0.3999
   85SLPC  H14B 8048   2.555   6.326   2.215  1.9181  0.6564 -0.6516
   85SLPC  H14C 8049   2.399   6.402   2.179  0.4920 -2.6698 -1.1861
   85SLPC   C15 8050   2.439   6.624   2.315 -0.0103 -0.0712 -0.3506
   85SLPC  H15A 8051   2.357   6.577   2.369  0.1383  0.7707  0.6576
   85SLPC  H15B 8052   2.476   6.704   2.378 -0.3049 -1.1011  1.2044
   85SLPC  H15C 8053   2.398   6.660   2.222 -2.6494 -1.8394  0.0018
   85SLPC   C12 8054   2.580   6.448   2.419 -0.4999  0.7583 -0.1100
   85SLPC  H12A 8055   2.647   6.367   2.396 -0.7268  0.7020 -0.5974
   85SLPC  H12B 8056   2.489   6.401   2.454  0.4668 -0.8105  0.3715
   85SLPC   C11 8057   2.631   6.532   2.534 -0.8320 -0.5018 -0.3946
   85SLPC  H11A 8058   2.636   6.473   2.628 -0.6119  2.9240  1.9199
   85SLPC  H11B 8059   2.556   6.609   2.560  0.2740  0.0742  1.3182
   85SLPC     P 8060   2.891   6.536   2.535  0.1643  0.1094  0.2519
   85SLPC   O13 8061   2.876   6.393   2.494 -0.0809  0.3743 -0.4848
   85SLPC   O14 8062   3.003   6.607   2.470 -0.3111  0.6189 -0.0941
   85SLPC   O12 8063   2.756   6.598   2.495  0.3704 -0.2676  0.5853
   85SLPC   O11 8064   2.892   6.560   2.692 -0.7814 -0.0226  0.4054
   85SLPC    C1 8065   2.875   6.705   2.721  0.0519  0.7758 -0.6359
   85SLPC    HA 8066   2.882   6.773   2.633 -2.7050  0.7721 -0.9404
   85SLPC    HB 8067   2.770   6.710   2.757 -1.0125 -2.7335 -2.7689
   85SLPC    C2 8068   2.980   6.751   2.828  0.7177  0.0209 -0.7402
   85SLPC    HS 8069   2.946   6.846   2.874 -1.6977 -2.0553  2.2190
   85SLPC   O21 8070   3.117   6.754   2.776  0.3383  0.1689  0.0067
   85SLPC   C21 8071   3.123   6.851   2.695 -0.9096 -0.0526  0.4316
   85SLPC   O22 8072   3.047   6.945   2.677 -0.3045  0.3121 -0.0876
   85SLPC   C22 8073   3.264   6.844   2.627 -0.5793  0.6784  0.0167
   85SLPC   H2R 8074   3.304   6.741   2.628  0.0697  0.9224 -0.2090
   85SLPC   H2S 8075   3.245   6.870   2.521 -2.1401 -1.9065 -0.4197
   85SLPC    C3 8076   2.988   6.648   2.951  0.6891  0.3772  0.1663
   85SLPC    HX 8077   3.074   6.682   3.013 -0.2312  0.6969  1.3063
   85SLPC    HY 8078   3.017   6.547   2.914  2.2069  0.7051  0.3975
   85SLPC   O31 8079   2.869   6.642   3.024 -0.1120 -0.3414  0.4800
   85SLPC   C31 8080   2.863   6.681   3.146  0.2008 -0.1046  0.3575
   85SLPC   O32 8081   2.955   6.726   3.213 -0.0101  0.0785 -0.0267
   85SLPC   C32 8082   2.718   6.675   3.200 -1.1569 -0.2066  1.2484
   85SLPC   H2X 8083   2.709   6.640   3.305 -1.9214 -1.5204  0.7730
   85SLPC   H2Y 8084   2.664   6.608   3.129 -0.8783 -0.0402  0.8712
   85SLPC   C23 8085   3.364   6.945   2.673 -0.5438 -0.6595 -0.3139
   85SLPC   H3R 8086   3.316   7.044   2.674  0.3261 -0.1874 -1.8627
   85SLPC   H3S 8087   3.450   6.955   2.603  1.6079 -1.3926  2.0507
   85SLPC   C24 8088   3.426   6.931   2.806 -0.2427  0.2423 -0.3054
   85SLPC   H4R 8089   3.518   6.993   2.802 -1.5553  2.2333 -2.5728
   85SLPC   H4S 8090   3.458   6.825   2.810  0.8179  0.5861  1.0722
   85SLPC   C25 8091   3.344   6.959   2.930  0.9623  0.0274 -0.2502
   85SLPC   H5R 8092   3.303   7.062   2.921 -1.2772 -0.8637 -0.8947
   85SLPC   H5S 8093   3.249   6.901   2.925  0.2452  1.0835  0.6175
   85SLPC   C26 8094   3.423   6.942   3.056  0.0430  0.3186 -0.1837
   85SLPC   H6R 8095   3.511   7.008   3.046 -0.4240  0.8367 -1.0116
   85SLPC   H6S 8096   3.468   6.841   3.065 -0.0868  0.3016  0.3029
   85SLPC   C27 8097   3.347   6.972   3.188 -0.1925  0.7824  0.0373
   85SLPC   H7R 8098   3.271   6.894   3.212  1.9380 -1.9267 -1.4232
   85SLPC   H7S 8099   3.292   7.064   3.161  0.7662  1.0089 -1.2092
   85SLPC   C28 8100   3.440   6.983   3.315 -0.5697 -0.1264 -0.7091
   85SLPC   H8R 8101   3.540   7.021   3.284  0.2489 -1.7483 -0.1635
   85SLPC   H8S 8102   3.470   6.887   3.363 -1.0708  0.0276 -0.0679
   85SLPC   C29 8103   3.374   7.078   3.408  0.8590 -0.2011 -0.2331
   85SLPC   H9R 8104   3.387   7.185   3.388 -3.6431  0.5875  0.2085
   85SLPC  C210 8105   3.296   7.041   3.512  0.2321  0.3687  0.2339
   85SLPC  H10R 8106   3.264   7.122   3.579 -1.2022  0.8649 -1.0129
   85SLPC  C211 8107   3.267   6.901   3.556 -0.1739  0.1267  0.4397
   85SLPC  H11R 8108   3.300   6.884   3.661 -2.5206  0.6022  1.3251
   85SLPC  H11S 8109   3.314   6.821   3.496 -0.4424 -0.2320  0.7037
   85SLPC  C212 8110   3.113   6.888   3.562  0.1482 -0.0639 -0.4492
   85SLPC  H12R 8111   3.070   6.953   3.485  3.0932  2.3081 -0.2760
   85SLPC  C213 8112   3.051   6.798   3.641  0.4375 -0.4782  0.6420
   85SLPC  H13R 8113   2.941   6.793   3.642  0.3485  0.7530  2.2746
   85SLPC  C214 8114   3.119   6.708   3.738  0.2607 -0.5824  0.5404
   85SLPC  H14R 8115   3.229   6.707   3.729  0.1125  0.3446 -2.9292
   85SLPC  H14S 8116   3.083   6.607   3.708 -0.9650  0.2730 -1.0850
   85SLPC  C215 8117   3.083   6.727   3.889  0.5984 -0.1878 -0.4196
   85SLPC  H15R 8118   3.143   6.646   3.938  2.8238  3.2873  3.2459
   85SLPC  H15S 8119   2.974   6.718   3.905  0.8531  0.7057  2.3066
   85SLPC  C216 8120   3.131   6.850   3.958 -0.3798 -0.2969  0.0809
   85SLPC  H16R 8121   3.061   6.926   3.917 -0.0516  0.3015  0.5986
   85SLPC  H16S 8122   3.235   6.880   3.933  0.0376 -0.6380  1.3233
   85SLPC  C217 8123   3.128   6.859   4.103  0.3973  0.9615  0.0429
   85SLPC  H17R 8124   3.235   6.855   4.135  0.1710 -2.2987  0.7343
   85SLPC  H17S 8125   3.076   6.773   4.149 -1.9837  0.4765 -3.2522
   85SLPC  C218 8126   3.061   6.989   4.155 -0.5152  0.2808  0.3177
   85SLPC  H18R 8127   2.963   7.011   4.108 -0.1132  0.5559 -0.3988
   85SLPC  H18S 8128   3.129   7.075   4.137  0.1169  0.4236  2.9777
   85SLPC  H18T 8129   3.051   6.985   4.266 -2.6760  2.5729  0.2913
   85SLPC   C33 8130   2.639   6.810   3.180 -0.0611 -0.2509 -0.2469
   85SLPC   H3X 8131   2.533   6.799   3.212  0.2272  0.6029  1.0916
   85SLPC   H3Y 8132   2.631   6.833   3.071 -0.4347  0.1291 -0.1417
   85SLPC   C34 8133   2.699   6.932   3.253 -0.2802 -0.6962  1.0274
   85SLPC   H4X 8134   2.640   7.026   3.261  1.2088  0.2200  1.7701
   85SLPC   H4Y 8135   2.796   6.966   3.212  0.6988 -0.4950  3.3695
   85SLPC   C35 8136   2.724   6.909   3.399 -0.1806 -1.0317 -0.2862
   85SLPC   H5X 8137   2.784   6.991   3.444 -1.3478  0.3744 -1.1709
   85SLPC   H5Y 8138   2.784   6.817   3.410  0.4771 -0.4546  1.2020
   85SLPC   C36 8139   2.602   6.869   3.484 -0.7633  0.3532  0.2725
   85SLPC   H6X 8140   2.562   6.771   3.452 -0.8534  0.2703  0.6427
   85SLPC   H6Y 8141   2.522   6.944   3.467 -2.1745 -1.3694 -1.0823
   85SLPC   C37 8142   2.629   6.867   3.634 -0.0839  0.4665  0.1582
   85SLPC   H7X 8143   2.700   6.783   3.649 -0.7185 -0.3699 -1.2662
   85SLPC   H7Y 8144   2.536   6.832   3.684  0.9262  0.2530  1.9805
   85SLPC   C38 8145   2.677   7.004   3.677  0.2254  0.2812 -0.6397
   85SLPC   H8X 8146   2.601   7.080   3.650 -0.6606  0.4250  1.9985
   85SLPC   H8Y 8147   2.773   7.035   3.629  1.1954 -0.7695  0.5529
   85SLPC   C39 8148   2.712   7.004   3.834  0.0029  1.0741  0.4268
   85SLPC   H9X 8149   2.774   7.094   3.857  0.6223  0.7062  0.2165
   85SLPC   H9Y 8150   2.785   6.922   3.851 -0.8491  0.4576  1.1356
   85SLPC  C310 8151   2.597   7.002   3.929  0.4621  0.5513  0.0292
   85SLPC  H10X 8152   2.533   6.912   3.917  1.2765 -0.0228 -0.0745
   85SLPC  H10Y 8153   2.535   7.085   3.890 -0.2672  1.0573  2.1026
   85SLPC  C311 8154   2.646   7.043   4.071  0.5401 -0.1860 -0.1671
   85SLPC  H11X 8155   2.726   7.119   4.051  0.1569 -0.5539 -3.9820
   85SLPC  H11Y 8156   2.706   6.964   4.121  0.1665 -1.8610 -2.2351
   85SLPC  C312 8157   2.534   7.092   4.160 -0.1506 -0.3757  0.2534
   85SLPC  H12X 8158   2.458   7.013   4.177 -1.1698  0.0287 -2.0497
   85SLPC  H12Y 8159   2.489   7.178   4.106 -0.1331 -1.6874 -1.9630
   85SLPC  C313 8160   2.581   7.153   4.290 -0.1449  0.4657  0.1615
   85SLPC  H13X 8161   2.658   7.228   4.265  0.0493 -0.1853 -1.2860
   85SLPC  H13Y 8162   2.634   7.077   4.353 -0.8102 -1.0630 -1.0417
   85SLPC  C314 8163   2.467   7.218   4.370 -0.9028  0.9600  0.2658
   85SLPC  H14X 8164   2.400   7.133   4.395  0.8794 -1.0529 -1.3508
   85SLPC  H14Y 8165   2.413   7.303   4.322 -1.7359  0.8434  0.9677
   85SLPC  C315 8166   2.517   7.269   4.507  0.8543 -1.6307  0.4722
   85SLPC  H15X 8167   2.592   7.351   4.508 -0.9186  0.0661  0.9547
   85SLPC  H15Y 8168   2.570   7.180   4.547 -0.9900 -2.8193  0.3936
   85SLPC  C316 8169   2.400   7.300   4.602 -0.4745 -0.3427 -0.0265
   85SLPC  H16X 8170   2.436   7.314   4.706  0.6993  1.2860 -0.6124
   85SLPC  H16Y 8171   2.333   7.212   4.610  0.7030 -1.0337  4.7442
   85SLPC  C317 8172   2.323   7.431   4.571 -0.1329 -0.8183  0.3990
   85SLPC  H17X 8173   2.254   7.406   4.488  0.9154  0.3659 -0.8950
   85SLPC  H17Y 8174   2.394   7.508   4.534 -1.9425  0.4237 -0.6447
   85SLPC  C318 8175   2.248   7.485   4.697  0.2203  0.1105 -0.2497
   85SLPC  H18X 8176   2.182   7.568   4.662  1.0126  1.2192  0.8020
   85SLPC  H18Y 8177   2.322   7.524   4.771  0.4863 -1.9633  0.6508
   85SLPC  H18Z 8178   2.189   7.403   4.744  2.2500 -1.8582 -0.9725
   86SLPC     N 8179   6.852   3.222   1.769  0.4704  0.3122  0.1004
   86SLPC   C13 8180   6.859   3.081   1.709 -0.2688 -0.5104  0.1051
   86SLPC  H13A 8181   6.771   3.062   1.648 -1.2182  0.6588  1.0568
   86SLPC  H13B 8182   6.950   3.075   1.651 -1.3799  0.5619 -1.8714
   86SLPC  H13C 8183   6.857   3.006   1.786 -1.7026 -0.9203 -0.2977
   86SLPC   C14 8184   6.860   3.321   1.658 -0.7288 -0.6685  0.2401
   86SLPC  H14A 8185   6.777   3.302   1.591 -1.5346 -0.5241  1.1693
   86SLPC  H14B 8186   6.856   3.412   1.717 -1.1845 -1.3567  1.3088
   86SLPC  H14C 8187   6.948   3.318   1.595 -0.0970 -0.6909  1.1021
   86SLPC   C15 8188   6.961   3.250   1.863  0.6887  0.2214 -0.1713
   86SLPC  H15A 8189   6.971   3.162   1.926 -2.8904 -1.1497 -1.2399
   86SLPC  H15B 8190   7.052   3.264   1.808  0.1007  1.2284 -0.9425
   86SLPC  H15C 8191   6.948   3.341   1.920  0.1715 -0.1084  0.2611
   86SLPC   C12 8192   6.717   3.230   1.836  0.2866  0.5424  0.1592
   86SLPC  H12A 8193   6.700   3.323   1.887 -2.1395 -0.2459  0.9256
   86SLPC  H12B 8194   6.706   3.164   1.921 -1.7102  1.8235  0.9806
   86SLPC   C11 8195   6.585   3.208   1.746  0.0170  0.0534 -0.3273
   86SLPC  H11A 8196   6.579   3.286   1.667  1.0989  3.5626  2.7808
   86SLPC  H11B 8197   6.495   3.227   1.809 -1.6222  0.0608 -2.5418
   86SLPC     P 8198   6.490   2.968   1.720  0.2402  0.4754 -0.0619
   86SLPC   O13 8199   6.382   2.990   1.623  0.2367 -0.2083  0.1573
   86SLPC   O14 8200   6.556   2.837   1.713  0.2965  0.3101  0.1872
   86SLPC   O12 8201   6.590   3.076   1.692 -0.0323 -0.2095  0.6233
   86SLPC   O11 8202   6.423   2.996   1.869  0.1081  0.0231  0.3890
   86SLPC    C1 8203   6.482   2.937   1.984  0.3172 -0.5343 -0.0567
   86SLPC    HA 8204   6.572   2.880   1.953 -1.1678 -2.1118 -1.7279
   86SLPC    HB 8205   6.519   3.015   2.054  1.9751 -0.6543 -0.7423
   86SLPC    C2 8206   6.387   2.842   2.076 -0.1131  0.5666  0.3718
   86SLPC    HS 8207   6.341   2.782   1.995  3.8685 -0.2373 -1.5622
   86SLPC   O21 8208   6.296   2.919   2.150  0.1106  0.2075 -0.2986
   86SLPC   C21 8209   6.194   2.842   2.198  0.0541 -0.5073 -0.1682
   86SLPC   O22 8210   6.176   2.723   2.165 -0.0557 -0.4888 -0.2358
   86SLPC   C22 8211   6.101   2.924   2.288  0.2143 -0.0013  0.4407
   86SLPC   H2R 8212   6.134   3.031   2.288  0.0006  0.0890 -1.1992
   86SLPC   H2S 8213   5.999   2.923   2.244  1.4237  3.9174 -3.1733
   86SLPC    C3 8214   6.470   2.745   2.167 -0.5192  0.2212 -0.0006
   86SLPC    HX 8215   6.536   2.673   2.114 -1.0756 -0.6381  0.4558
   86SLPC    HY 8216   6.414   2.671   2.227  0.9539 -1.0540 -0.1249
   86SLPC   O31 8217   6.538   2.825   2.265 -0.1086 -0.1674 -0.1682
   86SLPC   C31 8218   6.637   2.770   2.331 -0.8755  0.0739  0.6273
   86SLPC   O32 8219   6.661   2.647   2.332  0.3747 -0.7619 -0.1381
   86SLPC   C32 8220   6.702   2.868   2.426  0.2304  0.4039 -0.0660
   86SLPC   H2X 8221   6.627   2.919   2.490  1.8060  0.3537  1.9132
   86SLPC   H2Y 8222   6.752   2.945   2.362  0.5624  0.8241  0.6832
   86SLPC   C23 8223   6.098   2.859   2.428  0.0724 -0.9001  0.3628
   86SLPC   H3R 8224   6.085   2.753   2.399  0.1013 -0.1450 -2.8261
   86SLPC   H3S 8225   6.007   2.881   2.488 -1.7215  0.2422 -2.5693
   86SLPC   C24 8226   6.227   2.876   2.507  0.1793 -0.4134  0.1783
   86SLPC   H4R 8227   6.305   2.873   2.428 -1.0478  1.1609 -1.1739
   86SLPC   H4S 8228   6.240   2.784   2.568 -0.4071 -0.4196  0.2976
   86SLPC   C25 8229   6.239   2.999   2.598 -0.4231 -0.2646  0.0515
   86SLPC   H5R 8230   6.150   3.064   2.583 -1.3008 -0.9118  2.0723
   86SLPC   H5S 8231   6.330   3.057   2.571  0.4283 -1.8131 -0.5492
   86SLPC   C26 8232   6.255   2.963   2.747  1.0558 -0.3272  0.5663
   86SLPC   H6R 8233   6.338   2.889   2.758 -0.4598 -2.1636  0.2395
   86SLPC   H6S 8234   6.161   2.911   2.776 -0.1778  1.1583 -0.6147
   86SLPC   C27 8235   6.292   3.086   2.834  0.1246 -0.0630 -0.0424
   86SLPC   H7R 8236   6.224   3.172   2.814  0.3395  0.2515  0.5297
   86SLPC   H7S 8237   6.394   3.123   2.809 -0.4703  0.8605 -1.1980
   86SLPC   C28 8238   6.288   3.054   2.987 -0.4615  0.5370  0.6064
   86SLPC   H8R 8239   6.324   3.146   3.039  0.2433 -0.4230  1.8590
   86SLPC   H8S 8240   6.368   2.981   3.008  0.2952  1.1028 -0.2125
   86SLPC   C29 8241   6.155   3.011   3.037  0.3931 -0.5199 -0.2078
   86SLPC   H9R 8242   6.130   2.905   3.049  2.4931 -1.1041 -0.5213
   86SLPC  C210 8243   6.069   3.096   3.095  0.2762 -0.2185 -0.1404
   86SLPC  H10R 8244   5.968   3.072   3.133  0.5773  1.0636  1.5809
   86SLPC  C211 8245   6.092   3.245   3.095  0.0100  0.2262 -0.0487
   86SLPC  H11R 8246   6.147   3.276   3.004  2.2546  2.5500  1.9343
   86SLPC  H11S 8247   6.159   3.275   3.179  0.3032 -3.6554  1.2997
   86SLPC  C212 8248   5.968   3.326   3.102 -0.3420 -0.2887 -0.9106
   86SLPC  H12R 8249   5.908   3.325   3.010 -1.4185 -0.0668 -0.2356
   86SLPC  C213 8250   5.918   3.406   3.205 -0.5608 -0.6555 -0.1859
   86SLPC  H13R 8251   5.826   3.461   3.182  0.0239  0.6235  0.3985
   86SLPC  C214 8252   5.986   3.425   3.335  0.2639 -0.8048 -0.4126
   86SLPC  H14R 8253   6.070   3.354   3.350 -0.9445 -1.7711  2.4109
   86SLPC  H14S 8254   5.921   3.390   3.418  1.6502 -0.8086  0.6886
   86SLPC  C215 8255   6.021   3.574   3.360  0.2944 -0.1570  0.6116
   86SLPC  H15R 8256   5.935   3.642   3.342  1.0845  1.3392  2.2279
   86SLPC  H15S 8257   6.101   3.603   3.289 -0.3393 -2.9455 -1.4326
   86SLPC  C216 8258   6.075   3.608   3.499 -0.3685  1.1745  0.2359
   86SLPC  H16R 8259   6.069   3.718   3.511 -2.5189  0.9123  2.3938
   86SLPC  H16S 8260   6.185   3.591   3.492 -0.8012 -1.6195 -5.0923
   86SLPC  C217 8261   6.001   3.526   3.609  0.6209  0.7145 -0.8825
   86SLPC  H17R 8262   6.051   3.553   3.705  2.1969  0.6558 -1.6576
   86SLPC  H17S 8263   6.003   3.416   3.600  1.2921  0.6810 -0.4422
   86SLPC  C218 8264   5.849   3.563   3.628  0.1565 -0.1372 -0.6417
   86SLPC  H18R 8265   5.794   3.549   3.533 -1.3809  0.9965  0.0255
   86SLPC  H18S 8266   5.846   3.672   3.651  3.6999 -0.2640  1.1177
   86SLPC  H18T 8267   5.789   3.511   3.706 -0.4184 -1.0093 -1.6407
   86SLPC   C33 8268   6.808   2.809   2.522 -0.1791 -0.3840 -0.2494
   86SLPC   H3X 8269   6.904   2.831   2.471 -1.4820  1.4051 -2.0870
   86SLPC   H3Y 8270   6.793   2.700   2.537  3.5843 -0.8898  0.8968
   86SLPC   C34 8271   6.799   2.886   2.654  0.4033  0.7791 -0.1369
   86SLPC   H4X 8272   6.694   2.875   2.692  0.4395 -3.5995 -0.7739
   86SLPC   H4Y 8273   6.826   2.993   2.659 -3.2137  1.8056  0.2748
   86SLPC   C35 8274   6.886   2.819   2.752 -0.0544 -0.0686  0.5830
   86SLPC   H5X 8275   6.987   2.860   2.734 -0.1013 -0.8979 -2.0676
   86SLPC   H5Y 8276   6.901   2.712   2.725  1.9930  0.3359 -0.0537
   86SLPC   C36 8277   6.833   2.825   2.893  0.2837  0.3643 -0.0712
   86SLPC   H6X 8278   6.731   2.782   2.903  0.2339 -0.0377 -1.9770
   86SLPC   H6Y 8279   6.826   2.932   2.919  2.8530  0.6584 -0.2958
   86SLPC   C37 8280   6.920   2.755   2.992 -0.1127  0.7023 -0.5344
   86SLPC   H7X 8281   6.873   2.775   3.090  1.4466  1.0914  0.1569
   86SLPC   H7Y 8282   7.016   2.811   2.993 -0.1412  0.7414 -0.0529
   86SLPC   C38 8283   6.951   2.604   2.982  0.1450  0.1688 -0.7502
   86SLPC   H8X 8284   7.003   2.571   2.889 -1.1947  1.1089 -1.8653
   86SLPC   H8Y 8285   6.855   2.549   2.985 -0.5717  1.3876 -0.9308
   86SLPC   C39 8286   7.057   2.560   3.088 -0.6169  0.0026 -0.2614
   86SLPC   H9X 8287   7.050   2.628   3.176  1.7655  0.4793 -0.3897
   86SLPC   H9Y 8288   7.159   2.562   3.044 -0.9740 -0.4205 -1.1346
   86SLPC  C310 8289   7.030   2.421   3.148 -0.4298 -0.4267 -0.2656
   86SLPC  H10X 8290   7.005   2.345   3.071 -2.2831 -0.5634  0.4041
   86SLPC  H10Y 8291   6.930   2.411   3.195  0.4516 -0.7939  1.6216
   86SLPC  C311 8292   7.146   2.372   3.227 -0.4063 -0.2571 -0.3779
   86SLPC  H11X 8293   7.243   2.377   3.173  0.2235  1.8243  0.8444
   86SLPC  H11Y 8294   7.117   2.267   3.249  0.1417 -0.3340 -0.0173
   86SLPC  C312 8295   7.171   2.433   3.367 -0.3437  0.2310 -0.4470
   86SLPC  H12X 8296   7.213   2.535   3.376 -1.2303  0.8243 -2.5140
   86SLPC  H12Y 8297   7.245   2.371   3.422 -1.6532 -0.3372  0.7563
   86SLPC  C313 8298   7.048   2.419   3.462  0.1627 -0.2799 -0.2412
   86SLPC  H13X 8299   7.030   2.309   3.468 -1.1779 -0.0511  0.1397
   86SLPC  H13Y 8300   6.960   2.468   3.416  1.6319  3.0241  0.1848
   86SLPC  C314 8301   7.068   2.461   3.613  0.1423 -0.1171 -0.5760
   86SLPC  H14X 8302   7.087   2.571   3.620 -0.9022 -0.0330  1.7567
   86SLPC  H14Y 8303   7.158   2.406   3.646 -0.9546 -0.3062  2.4626
   86SLPC  C315 8304   6.958   2.417   3.718  0.4309  0.0330  0.0448
   86SLPC  H15X 8305   6.996   2.446   3.819  0.4709  0.4902 -0.0982
   86SLPC  H15Y 8306   6.955   2.306   3.711  1.1753 -0.1980  2.3493
   86SLPC  C316 8307   6.825   2.468   3.694  0.1624  0.0892  0.4771
   86SLPC  H16X 8308   6.739   2.405   3.726  0.0154  0.7682  1.4828
   86SLPC  H16Y 8309   6.809   2.500   3.589  0.4342 -0.0510  0.3932
   86SLPC  C317 8310   6.793   2.594   3.782 -0.2908  0.1700  0.2438
   86SLPC  H17X 8311   6.869   2.673   3.759 -1.8994  2.3272  1.8864
   86SLPC  H17Y 8312   6.803   2.569   3.890 -1.5135  1.2341  0.6278
   86SLPC  C318 8313   6.657   2.660   3.757 -0.1473 -0.5112  0.1590
   86SLPC  H18X 8314   6.577   2.599   3.805  0.8710 -0.1524  2.3986
   86SLPC  H18Y 8315   6.619   2.673   3.653  1.4509 -2.0307 -0.6742
   86SLPC  H18Z 8316   6.667   2.765   3.792 -2.5187 -0.2497  0.2191
   87SLPC     N 8317   4.211   2.563   2.144 -0.3023  0.1442 -0.5164
   87SLPC   C13 8318   4.064   2.575   2.112  0.6095 -0.1081  0.2551
   87SLPC  H13A 8319   4.036   2.608   2.013  0.8430  1.7406  0.7772
   87SLPC  H13B 8320   4.013   2.481   2.128  0.3239  0.1270  0.7543
   87SLPC  H13C 8321   4.017   2.658   2.162  0.3363  0.4277 -0.8517
   87SLPC   C14 8322   4.277   2.691   2.114 -1.0693 -0.1945 -0.3123
   87SLPC  H14A 8323   4.241   2.773   2.174  1.8607 -0.2845  1.7796
   87SLPC  H14B 8324   4.384   2.689   2.124 -1.2043 -0.8907  1.2753
   87SLPC  H14C 8325   4.265   2.714   2.009  0.1356 -3.8944 -1.4086
   87SLPC   C15 8326   4.277   2.475   2.040  0.2988 -0.4282  0.4168
   87SLPC  H15A 8327   4.384   2.482   2.051  0.3240  1.2913 -0.6154
   87SLPC  H15B 8328   4.250   2.371   2.049  0.9693 -0.7033 -0.6190
   87SLPC  H15C 8329   4.255   2.507   1.939  2.1449  0.2622  0.2114
   87SLPC   C12 8330   4.234   2.521   2.291  0.2208  0.1836  0.0860
   87SLPC  H12A 8331   4.336   2.489   2.308  0.7445  2.0149  0.6727
   87SLPC  H12B 8332   4.172   2.435   2.310 -1.8505  0.9367 -2.6781
   87SLPC   C11 8333   4.193   2.628   2.400 -0.8582 -0.3807 -0.2199
   87SLPC  H11A 8334   4.237   2.728   2.379  2.5578 -2.2538 -3.2235
   87SLPC  H11B 8335   4.234   2.581   2.492 -1.7398 -1.2404 -0.2564
   87SLPC     P 8336   3.969   2.564   2.525  0.0367 -0.2406 -0.6514
   87SLPC   O13 8337   3.905   2.662   2.616 -0.5022 -0.1092  0.0146
   87SLPC   O14 8338   3.884   2.463   2.456 -0.1473  0.4986  0.6859
   87SLPC   O12 8339   4.052   2.642   2.417 -0.7737  0.2620  0.1214
   87SLPC   O11 8340   4.081   2.488   2.602  0.0782  0.1127 -0.2377
   87SLPC    C1 8341   4.106   2.350   2.610  0.3179 -0.1175 -0.1902
   87SLPC    HA 8342   4.035   2.296   2.676 -1.4715 -0.5697 -2.3426
   87SLPC    HB 8343   4.093   2.304   2.509 -0.6838  1.8250 -1.0066
   87SLPC    C2 8344   4.250   2.328   2.655 -0.7227  0.3352  0.1041
   87SLPC    HS 8345   4.309   2.371   2.572 -2.3940  0.7195 -0.9278
   87SLPC   O21 8346   4.251   2.184   2.668 -0.4817 -0.1058 -0.8221
   87SLPC   C21 8347   4.371   2.117   2.680  0.7328  0.0537 -0.5992
   87SLPC   O22 8348   4.483   2.161   2.673  0.4034  0.1048  0.2913
   87SLPC   C22 8349   4.332   1.975   2.703  0.0427  0.0294  1.1884
   87SLPC   H2R 8350   4.224   1.957   2.718  0.2240 -3.2515 -0.5688
   87SLPC   H2S 8351   4.356   1.929   2.605 -2.0958  1.8747 -0.3189
   87SLPC    C3 8352   4.289   2.394   2.792  0.9194 -0.3754  0.1484
   87SLPC    HX 8353   4.220   2.344   2.863 -2.4547  0.6797 -2.1615
   87SLPC    HY 8354   4.260   2.501   2.789  2.7264  0.1332 -0.5165
   87SLPC   O31 8355   4.428   2.379   2.818  0.3294 -0.3912 -0.2794
   87SLPC   C31 8356   4.519   2.450   2.752  0.9092 -0.3492  0.5428
   87SLPC   O32 8357   4.493   2.543   2.675  0.1141  0.2980 -0.7203
   87SLPC   C32 8358   4.661   2.405   2.802  0.1473 -0.1549  0.4250
   87SLPC   H2X 8359   4.709   2.372   2.707  1.4355 -1.7786  1.5870
   87SLPC   H2Y 8360   4.650   2.312   2.861 -0.2461  0.2856  1.0585
   87SLPC   C23 8361   4.424   1.921   2.820  0.0115  0.2653 -0.5374
   87SLPC   H3R 8362   4.531   1.931   2.790 -0.4574  1.3096 -1.9907
   87SLPC   H3S 8363   4.409   1.812   2.836 -0.9180  0.5673  0.7799
   87SLPC   C24 8364   4.412   1.977   2.962  0.2075 -0.7122  0.5022
   87SLPC   H4R 8365   4.316   1.951   3.011 -0.7988  0.9268 -0.5309
   87SLPC   H4S 8366   4.403   2.087   2.950 -1.4753 -0.8858 -0.1135
   87SLPC   C25 8367   4.538   1.950   3.047  0.3374  0.3764  1.0404
   87SLPC   H5R 8368   4.622   2.003   2.998 -0.2584  1.5150  1.2030
   87SLPC   H5S 8369   4.561   1.842   3.044 -0.2114  0.2466 -2.4678
   87SLPC   C26 8370   4.523   1.994   3.189  0.1712  0.1522 -0.0082
   87SLPC   H6R 8371   4.605   1.955   3.253 -0.3779  1.0929  1.3130
   87SLPC   H6S 8372   4.428   1.949   3.224  0.4812 -0.1710  0.4402
   87SLPC   C27 8373   4.542   2.149   3.197 -0.8522 -0.0173 -0.0994
   87SLPC   H7R 8374   4.488   2.192   3.109  0.2879 -1.8034 -1.7291
   87SLPC   H7S 8375   4.648   2.169   3.174 -0.4648  0.9035  2.2376
   87SLPC   C28 8376   4.503   2.210   3.331 -0.0380 -0.0787 -0.1202
   87SLPC   H8R 8377   4.564   2.164   3.412 -0.8677  2.2821  1.9709
   87SLPC   H8S 8378   4.402   2.190   3.371  0.0265  1.8828  1.1637
   87SLPC   C29 8379   4.508   2.363   3.333  0.0531 -0.6340  0.3562
   87SLPC   H9R 8380   4.472   2.415   3.244  1.5389 -0.6483 -0.2860
   87SLPC  C210 8381   4.549   2.427   3.448  0.8533  0.0582 -0.8611
   87SLPC  H10R 8382   4.546   2.537   3.453 -0.9217 -0.0019  0.4927
   87SLPC  C211 8383   4.618   2.368   3.572  0.1954 -0.1333 -0.7642
   87SLPC  H11R 8384   4.723   2.378   3.537 -0.1062  1.9368 -1.2132
   87SLPC  H11S 8385   4.607   2.261   3.601 -0.4642  0.2757  0.5515
   87SLPC  C212 8386   4.593   2.452   3.698  0.2188 -0.5237 -0.0558
   87SLPC  H12R 8387   4.486   2.466   3.718 -0.1379 -1.4417 -1.2277
   87SLPC  C213 8388   4.687   2.488   3.796 -0.8121 -0.6181  0.6744
   87SLPC  H13R 8389   4.646   2.533   3.888 -0.0070 -1.9880  1.7393
   87SLPC  C214 8390   4.833   2.467   3.795 -0.5052  0.8249  0.5087
   87SLPC  H14R 8391   4.871   2.471   3.691  1.3270 -0.8947  1.0569
   87SLPC  H14S 8392   4.853   2.363   3.828 -1.2856  0.5976  0.2968
   87SLPC  C215 8393   4.908   2.569   3.884 -0.2395  0.2915  0.3615
   87SLPC  H15R 8394   4.882   2.676   3.871 -0.7670  0.2223  0.8257
   87SLPC  H15S 8395   5.017   2.547   3.873  0.0342  0.6764  1.9547
   87SLPC  C216 8396   4.882   2.524   4.027  0.2988 -0.2769 -0.0771
   87SLPC  H16R 8397   4.871   2.414   4.038  1.7146 -0.3093  1.3804
   87SLPC  H16S 8398   4.790   2.579   4.055 -0.8284 -1.8745 -0.4709
   87SLPC  C217 8399   5.011   2.543   4.113 -0.3204 -0.1659 -0.5586
   87SLPC  H17R 8400   5.024   2.653   4.112  0.3059 -0.2341 -0.0073
   87SLPC  H17S 8401   5.097   2.498   4.058 -0.8075 -0.1399 -1.3615
   87SLPC  C218 8402   4.999   2.498   4.260 -0.5814 -0.1170 -0.6699
   87SLPC  H18R 8403   4.914   2.554   4.305 -0.4699  1.6947 -2.5615
   87SLPC  H18S 8404   5.097   2.512   4.310 -0.0516 -0.9111 -1.4698
   87SLPC  H18T 8405   4.977   2.390   4.257  0.1149 -0.3099  0.4493
   87SLPC   C33 8406   4.736   2.525   2.872 -0.2557 -0.3010 -0.2301
   87SLPC   H3X 8407   4.733   2.621   2.815  1.1789 -0.3252 -0.3937
   87SLPC   H3Y 8408   4.845   2.518   2.891 -0.3028  1.4174  0.9126
   87SLPC   C34 8409   4.676   2.542   3.014  0.1700  0.7968 -0.1925
   87SLPC   H4X 8410   4.690   2.450   3.075 -1.9668 -2.3119 -3.9351
   87SLPC   H4Y 8411   4.565   2.548   3.010  0.1051 -0.5488 -1.5725
   87SLPC   C35 8412   4.740   2.671   3.076 -0.0345 -0.1293  0.2058
   87SLPC   H5X 8413   4.683   2.761   3.044 -0.0585  0.0830  0.8302
   87SLPC   H5Y 8414   4.845   2.695   3.051 -0.7950  1.9416 -1.3073
   87SLPC   C36 8415   4.712   2.668   3.228 -0.1180 -0.4659  0.5155
   87SLPC   H6X 8416   4.750   2.574   3.274 -0.5010 -0.9082 -0.0681
   87SLPC   H6Y 8417   4.602   2.664   3.237 -0.0015 -2.5029  1.4386
   87SLPC   C37 8418   4.791   2.791   3.297 -0.1126  0.1686 -0.6836
   87SLPC   H7X 8419   4.897   2.787   3.264  0.3916  1.2588  0.6940
   87SLPC   H7Y 8420   4.796   2.765   3.405  1.8717  1.3992 -0.4294
   87SLPC   C38 8421   4.723   2.925   3.275  0.1452 -1.4618  0.0246
   87SLPC   H8X 8422   4.621   2.915   3.317  0.1397 -1.6553 -0.0352
   87SLPC   H8Y 8423   4.713   2.937   3.165  0.2527 -1.5382  0.0062
   87SLPC   C39 8424   4.796   3.052   3.314  0.1264 -0.3715  0.0414
   87SLPC   H9X 8425   4.897   3.047   3.269  0.6572  0.4612  1.0926
   87SLPC   H9Y 8426   4.817   3.052   3.423  0.4866  2.8927  0.0689
   87SLPC  C310 8427   4.714   3.180   3.279 -0.3893 -0.3772  1.0916
   87SLPC  H10X 8428   4.673   3.165   3.177  0.4048 -0.9246  0.8504
   87SLPC  H10Y 8429   4.792   3.260   3.282 -0.2531 -0.5259  1.6385
   87SLPC  C311 8430   4.599   3.207   3.372 -0.1907 -0.6641  0.2661
   87SLPC  H11X 8431   4.641   3.218   3.474  0.8374 -3.2514  0.1860
   87SLPC  H11Y 8432   4.515   3.134   3.365 -2.0269  1.4664 -2.1254
   87SLPC  C312 8433   4.529   3.339   3.343 -0.5592 -0.2327  0.6826
   87SLPC  H12X 8434   4.499   3.344   3.237 -1.1194 -1.3326  0.7770
   87SLPC  H12Y 8435   4.606   3.415   3.368 -0.5944  0.2718 -0.6963
   87SLPC  C313 8436   4.406   3.368   3.429  0.1730  0.1770  0.2331
   87SLPC  H13X 8437   4.334   3.283   3.433 -1.5519  1.5470 -0.3185
   87SLPC  H13Y 8438   4.345   3.448   3.383 -0.5098 -1.6465 -2.2700
   87SLPC  C314 8439   4.448   3.407   3.570 -0.0771 -0.0687 -0.5959
   87SLPC  H14X 8440   4.478   3.515   3.567 -0.8702  0.1486 -0.7900
   87SLPC  H14Y 8441   4.524   3.340   3.615 -1.1524 -0.7075  0.3155
   87SLPC  C315 8442   4.317   3.419   3.653  0.3007 -0.0661 -0.4032
   87SLPC  H15X 8443   4.262   3.323   3.647 -0.2435  0.2474 -0.4983
   87SLPC  H15Y 8444   4.244   3.489   3.608 -2.1873 -0.7616  2.2508
   87SLPC  C316 8445   4.335   3.437   3.806  0.2300  0.1962  0.4272
   87SLPC  H16X 8446   4.382   3.532   3.838 -1.1935  0.8074  0.8038
   87SLPC  H16Y 8447   4.410   3.359   3.833 -0.6048 -0.8924 -0.2819
   87SLPC  C317 8448   4.210   3.417   3.884 -0.0440  0.4436  0.5984
   87SLPC  H17X 8449   4.171   3.313   3.870 -1.8599  1.2701 -0.9957
   87SLPC  H17Y 8450   4.120   3.481   3.869  1.8076  3.8511  2.6988
   87SLPC  C318 8451   4.235   3.440   4.032  0.4092  0.0663  0.0742
   87SLPC  H18X 8452   4.337   3.398   4.048  0.1923 -1.3132 -1.8299
   87SLPC  H18Y 8453   4.163   3.394   4.104  0.7771  0.6195  0.8111
   87SLPC  H18Z 8454   4.226   3.549   4.047 -2.0857 -0.2031  1.0048
   88SLPC     N 8455   3.769   1.996   1.981  0.0162  0.5169 -0.8748
   88SLPC   C13 8456   3.715   1.928   1.859  0.6193 -0.1108 -0.0939
   88SLPC  H13A 8457   3.706   1.991   1.772 -0.0103 -0.3361 -0.2031
   88SLPC  H13B 8458   3.796   1.860   1.837  1.2976 -0.0633  2.0596
   88SLPC  H13C 8459   3.624   1.878   1.891  0.3053  1.2810  1.3103
   88SLPC   C14 8460   3.665   2.091   2.022 -0.1562 -0.0624  0.0675
   88SLPC  H14A 8461   3.687   2.128   2.121 -0.3334 -1.4312  0.6412
   88SLPC  H14B 8462   3.657   2.173   1.953 -2.3826  1.4258  1.9431
   88SLPC  H14C 8463   3.566   2.050   2.032 -1.6339  2.2864 -3.0815
   88SLPC   C15 8464   3.897   2.073   1.954  0.0019  0.5980 -0.6930
   88SLPC  H15A 8465   3.977   2.001   1.943 -0.8120 -0.5350  0.4296
   88SLPC  H15B 8466   3.886   2.127   1.861  1.8228  3.7200  0.7327
   88SLPC  H15C 8467   3.914   2.135   2.041 -2.3939 -1.5816  1.4906
   88SLPC   C12 8468   3.796   1.896   2.092 -0.2847  0.3147 -0.2250
   88SLPC  H12A 8469   3.833   1.955   2.174  1.7796 -0.8227 -0.2701
   88SLPC  H12B 8470   3.886   1.841   2.068 -0.7360 -1.0336  1.0284
   88SLPC   C11 8471   3.691   1.797   2.141 -0.2967  0.2510  0.2512
   88SLPC  H11A 8472   3.602   1.846   2.185 -2.9710 -0.6922 -3.5285
   88SLPC  H11B 8473   3.740   1.751   2.229 -0.2085  1.1992  0.7005
   88SLPC     P 8474   3.744   1.579   2.002 -0.2020  0.3902  0.2095
   88SLPC   O13 8475   3.747   1.563   1.856 -0.4102  0.0577  0.1508
   88SLPC   O14 8476   3.877   1.602   2.065  0.4451  0.3941  0.1524
   88SLPC   O12 8477   3.647   1.695   2.051  0.3858  0.5535 -0.8209
   88SLPC   O11 8478   3.683   1.450   2.068 -0.1771 -0.8303  0.3418
   88SLPC    C1 8479   3.623   1.435   2.189  0.3502  0.0160 -0.2604
   88SLPC    HA 8480   3.539   1.506   2.204 -0.8054 -1.7391  2.2916
   88SLPC    HB 8481   3.573   1.336   2.184 -0.9917  0.6362  0.3970
   88SLPC    C2 8482   3.722   1.457   2.308 -0.0121 -0.0775  0.0944
   88SLPC    HS 8483   3.726   1.568   2.318 -1.2654 -0.1086  1.2691
   88SLPC   O21 8484   3.851   1.389   2.287 -0.9408  0.6317 -0.1975
   88SLPC   C21 8485   3.946   1.450   2.362  0.1707 -0.3836  0.1284
   88SLPC   O22 8486   3.944   1.562   2.411  0.0038 -0.6072  0.0973
   88SLPC   C22 8487   4.072   1.360   2.365 -0.3526  0.0418 -0.1118
   88SLPC   H2R 8488   4.028   1.260   2.385 -3.8433  1.5812  0.7503
   88SLPC   H2S 8489   4.116   1.363   2.263 -1.6870 -0.3041 -0.7164
   88SLPC    C3 8490   3.647   1.391   2.428 -0.6105  0.1300 -0.2714
   88SLPC    HX 8491   3.643   1.283   2.399 -0.0402  0.0782 -0.1677
   88SLPC    HY 8492   3.542   1.423   2.447 -0.3952 -0.4705  2.2764
   88SLPC   O31 8493   3.721   1.388   2.553 -0.3046  0.0350 -0.3930
   88SLPC   C31 8494   3.699   1.498   2.627  0.1482 -0.7623 -0.6804
   88SLPC   O32 8495   3.627   1.591   2.593  0.3936  0.0492 -0.1443
   88SLPC   C32 8496   3.784   1.496   2.755  0.3291  0.5821 -0.2653
   88SLPC   H2X 8497   3.879   1.551   2.737  0.1426  0.2037 -2.7546
   88SLPC   H2Y 8498   3.810   1.390   2.774 -0.7985  0.7867  2.9305
   88SLPC   C23 8499   4.175   1.406   2.458  0.1917  0.3998 -0.3273
   88SLPC   H3R 8500   4.190   1.516   2.448  0.9708  0.3574  0.2762
   88SLPC   H3S 8501   4.276   1.358   2.455  0.0094 -0.2726  2.1429
   88SLPC   C24 8502   4.139   1.388   2.609  0.8376  0.4157  0.3811
   88SLPC   H4R 8503   4.140   1.280   2.637  1.4287  0.1706 -0.5405
   88SLPC   H4S 8504   4.040   1.430   2.636  0.5438 -0.0605  0.0739
   88SLPC   C25 8505   4.229   1.467   2.702  0.8095  0.0131  0.2559
   88SLPC   H5R 8506   4.237   1.570   2.662 -4.2621  0.9010  0.8496
   88SLPC   H5S 8507   4.317   1.400   2.713  0.2966 -0.5616  0.9827
   88SLPC   C26 8508   4.170   1.475   2.843  0.8711  0.1770  0.4458
   88SLPC   H6R 8509   4.157   1.374   2.885  0.0287  0.9594  2.1645
   88SLPC   H6S 8510   4.072   1.528   2.840  0.9888  0.3740 -1.2446
   88SLPC   C27 8511   4.245   1.543   2.958 -0.7044 -0.4419  0.1528
   88SLPC   H7R 8512   4.275   1.645   2.925  1.0947 -1.2607 -0.8550
   88SLPC   H7S 8513   4.339   1.494   2.990  0.7672  0.2152 -2.8759
   88SLPC   C28 8514   4.155   1.557   3.086  0.5009  0.0090 -0.2634
   88SLPC   H8R 8515   4.114   1.458   3.117  0.0121 -0.9320 -3.5975
   88SLPC   H8S 8516   4.061   1.601   3.049 -0.1514  0.7713  2.0928
   88SLPC   C29 8517   4.222   1.645   3.183  0.0473 -0.7244 -0.8546
   88SLPC   H9R 8518   4.247   1.747   3.149 -0.7247 -0.8325 -1.7828
   88SLPC  C210 8519   4.250   1.603   3.307 -0.0229 -0.2209 -0.8483
   88SLPC  H10R 8520   4.286   1.673   3.385 -0.2553 -0.6273 -0.3735
   88SLPC  C211 8521   4.220   1.468   3.368 -0.0563 -0.0184  0.1663
   88SLPC  H11R 8522   4.317   1.426   3.402  1.6146  3.4155  0.0988
   88SLPC  H11S 8523   4.173   1.396   3.298  2.7301 -0.5018 -1.3405
   88SLPC  C212 8524   4.120   1.478   3.473  0.2505  0.0198 -0.2168
   88SLPC  H12R 8525   4.025   1.533   3.460  0.4192  0.4700  0.4057
   88SLPC  C213 8526   4.127   1.401   3.583  1.0527  0.4657 -0.9177
   88SLPC  H13R 8527   4.047   1.405   3.658  0.8287 -1.5709 -0.9710
   88SLPC  C214 8528   4.233   1.298   3.616  0.2257 -0.8881 -0.0618
   88SLPC  H14R 8529   4.322   1.296   3.550 -2.2105  2.2177 -3.8505
   88SLPC  H14S 8530   4.176   1.204   3.601  0.1052 -0.9263  0.6181
   88SLPC  C215 8531   4.281   1.299   3.761  0.5627  0.3476  0.0207
   88SLPC  H15R 8532   4.343   1.209   3.780 -0.0856  0.1944  1.6373
   88SLPC  H15S 8533   4.193   1.278   3.826  1.2999  1.4833  1.4411
   88SLPC  C216 8534   4.354   1.425   3.800 -0.4368  0.2887 -0.1616
   88SLPC  H16R 8535   4.287   1.491   3.858  0.5047 -1.1966  2.8260
   88SLPC  H16S 8536   4.394   1.456   3.701 -0.0866 -2.5183 -0.9879
   88SLPC  C217 8537   4.475   1.409   3.896  0.2645  0.4873 -0.3434
   88SLPC  H17R 8538   4.535   1.326   3.853 -0.0135  1.0034 -1.7638
   88SLPC  H17S 8539   4.441   1.375   3.997 -0.2627 -1.3850 -1.1072
   88SLPC  C218 8540   4.569   1.530   3.884  1.0398  0.3105  0.3694
   88SLPC  H18R 8541   4.606   1.557   3.783  3.2746  0.0574  1.0722
   88SLPC  H18S 8542   4.659   1.520   3.948  2.4340  2.0464 -1.2034
   88SLPC  H18T 8543   4.511   1.618   3.919 -3.1703 -0.9933 -2.4131
   88SLPC   C33 8544   3.696   1.536   2.870 -0.5050 -0.1727  0.0995
   88SLPC   H3X 8545   3.597   1.488   2.856  0.3236 -2.0409  0.4143
   88SLPC   H3Y 8546   3.676   1.645   2.882  1.0629  0.2823 -1.1122
   88SLPC   C34 8547   3.763   1.493   3.004 -0.7130  0.1512  0.1150
   88SLPC   H4X 8548   3.865   1.533   3.024  0.8825 -2.4575 -2.0342
   88SLPC   H4Y 8549   3.773   1.383   2.987 -3.2569 -0.0004 -0.8098
   88SLPC   C35 8550   3.668   1.513   3.127 -0.1738  0.4409  0.2757
   88SLPC   H5X 8551   3.575   1.452   3.130  0.6281 -0.7982  1.6967
   88SLPC   H5Y 8552   3.637   1.615   3.100 -2.0613  0.4878  2.3703
   88SLPC   C36 8553   3.725   1.504   3.268 -0.2917 -0.6883  1.0272
   88SLPC   H6X 8554   3.820   1.563   3.265 -0.7782  0.1418  1.4933
   88SLPC   H6Y 8555   3.762   1.400   3.282  1.7182 -0.1190  0.3922
   88SLPC   C37 8556   3.639   1.554   3.380 -0.6732 -0.0582 -0.3098
   88SLPC   H7X 8557   3.560   1.485   3.416 -1.2453  0.7873  0.0922
   88SLPC   H7Y 8558   3.584   1.645   3.348 -0.3403  0.5109  0.6768
   88SLPC   C38 8559   3.733   1.605   3.490  0.0933 -0.2375  0.1958
   88SLPC   H8X 8560   3.781   1.698   3.453 -0.4289 -0.3694 -0.8545
   88SLPC   H8Y 8561   3.807   1.523   3.500 -0.2365 -0.7789 -1.4919
   88SLPC   C39 8562   3.664   1.634   3.623 -0.0822  0.1851 -0.9237
   88SLPC   H9X 8563   3.601   1.557   3.672 -1.0235 -0.3683 -2.9252
   88SLPC   H9Y 8564   3.598   1.720   3.599 -0.3328 -0.1655 -1.5007
   88SLPC  C310 8565   3.765   1.663   3.741  0.3858  0.3933  0.3147
   88SLPC  H10X 8566   3.846   1.730   3.706 -0.1071  0.3261 -1.0088
   88SLPC  H10Y 8567   3.815   1.566   3.764  1.2080  1.1005  1.5910
   88SLPC  C311 8568   3.690   1.723   3.864  0.1772  0.1891  0.6195
   88SLPC  H11X 8569   3.687   1.652   3.949  3.4078 -1.3789 -0.3997
   88SLPC  H11Y 8570   3.591   1.755   3.827  0.5853  0.5339 -0.2145
   88SLPC  C312 8571   3.769   1.835   3.932 -0.0539  0.7975 -0.2453
   88SLPC  H12X 8572   3.804   1.903   3.851 -0.5300  0.1417 -1.0190
   88SLPC  H12Y 8573   3.853   1.786   3.986 -2.5073 -1.1915  2.0027
   88SLPC  C313 8574   3.687   1.927   4.025 -0.2914  0.5159 -0.2804
   88SLPC  H13X 8575   3.608   1.973   3.963 -0.4234 -0.2917 -0.7122
   88SLPC  H13Y 8576   3.746   2.015   4.060  1.4726 -1.2241  1.3416
   88SLPC  C314 8577   3.623   1.859   4.141 -0.3884  0.1345 -0.0181
   88SLPC  H14X 8578   3.695   1.818   4.215 -0.7504 -1.7906 -0.6669
   88SLPC  H14Y 8579   3.582   1.773   4.084 -0.5765  1.3051 -1.7109
   88SLPC  C315 8580   3.522   1.953   4.207  0.2241  0.0631 -0.2073
   88SLPC  H15X 8581   3.573   2.037   4.260 -0.8798  0.2954  0.5297
   88SLPC  H15Y 8582   3.492   1.883   4.287  0.3046 -0.8317 -0.9440
   88SLPC  C316 8583   3.396   1.989   4.125 -0.6744  0.0436  0.2793
   88SLPC  H16X 8584   3.372   1.902   4.061 -1.7483  0.7037 -0.2604
   88SLPC  H16Y 8585   3.413   2.074   4.055 -1.6929  0.8224  0.9376
   88SLPC  C317 8586   3.270   2.003   4.217  0.3235 -0.2003  0.5772
   88SLPC  H17X 8587   3.272   2.104   4.263 -0.6614  0.2957 -0.4188
   88SLPC  H17Y 8588   3.280   1.927   4.298  0.3665  1.7495  2.5073
   88SLPC  C318 8589   3.134   1.997   4.145  0.3240 -0.4335  0.1738
   88SLPC  H18X 8590   3.051   1.994   4.218 -1.5373 -1.8827 -1.8769
   88SLPC  H18Y 8591   3.129   1.909   4.078 -0.3102 -0.0388 -0.3113
   88SLPC  H18Z 8592   3.110   2.091   4.091 -2.7166 -1.6595 -0.7937
   89SAPE     N 8593   3.922   0.869   6.375  0.3821 -0.0353 -0.0679
   89SAPE   HN1 8594   3.963   0.858   6.470 -0.6170  0.8932  0.4820
   89SAPE   HN2 8595   3.982   0.941   6.329  2.5146 -0.1429  2.2701
   89SAPE   HN3 8596   3.827   0.910   6.380  0.0447 -0.5855 -1.5219
   89SAPE   C12 8597   3.913   0.735   6.323  0.2401 -0.2323 -0.4563
   89SAPE  H12A 8598   4.018   0.706   6.301  0.7631  0.1998  1.3255
   89SAPE  H12B 8599   3.850   0.741   6.231  0.0601 -0.5670 -0.3599
   89SAPE   C11 8600   3.845   0.643   6.422  0.2326  0.1915 -0.5308
   89SAPE  H11A 8601   3.920   0.631   6.504 -1.4605  0.3508  1.1045
   89SAPE  H11B 8602   3.840   0.542   6.375  0.0777  0.7541 -1.7680
   89SAPE     P 8603   3.585   0.611   6.486 -0.4010 -0.2776 -0.3767
   89SAPE   O13 8604   3.607   0.484   6.556  0.1649  0.4777  0.0856
   89SAPE   O14 8605   3.489   0.708   6.542 -0.2633 -0.0404 -0.3179
   89SAPE   O12 8606   3.717   0.692   6.470 -0.4622  0.0439  0.1892
   89SAPE   O11 8607   3.551   0.590   6.328 -0.0161  0.2250 -0.0046
   89SAPE    C1 8608   3.556   0.692   6.226  0.3508 -0.0980  0.0127
   89SAPE    HA 8609   3.586   0.789   6.271  2.9330 -0.6385 -0.3594
   89SAPE    HB 8610   3.632   0.677   6.146 -1.0651 -0.1587 -1.3648
   89SAPE    C2 8611   3.419   0.700   6.158  0.5715  0.3550 -0.4642
   89SAPE    HS 8612   3.351   0.708   6.245  1.0621 -1.0880  0.0891
   89SAPE   O21 8613   3.400   0.572   6.095  0.2840 -0.0673 -0.1406
   89SAPE   C21 8614   3.272   0.537   6.085  0.2420  0.2592  0.2546
   89SAPE   O22 8615   3.176   0.611   6.115 -0.0924 -0.2178  0.0690
   89SAPE   C22 8616   3.265   0.387   6.042 -0.0143  0.2817  0.2291
   89SAPE   H2R 8617   3.270   0.394   5.931  1.1020  0.2752  0.2693
   89SAPE   H2S 8618   3.355   0.337   6.084  1.3682  0.9905 -1.7457
   89SAPE    C3 8619   3.402   0.814   6.061  0.9618 -0.3285 -0.6145
   89SAPE    HX 8620   3.412   0.904   6.125  1.8223  0.2033 -1.4604
   89SAPE    HY 8621   3.301   0.811   6.016  0.5094  0.7261  0.2856
   89SAPE   O31 8622   3.514   0.829   5.969 -0.1539  0.2538  0.6808
   89SAPE   C31 8623   3.484   0.767   5.854 -0.3027 -1.0319  0.5238
   89SAPE   O32 8624   3.380   0.721   5.818  0.1085 -0.8861 -0.8060
   89SAPE   C32 8625   3.609   0.785   5.756  0.1848  0.0541 -0.2948
   89SAPE   H2X 8626   3.696   0.761   5.821  0.9670  2.6987 -0.2298
   89SAPE   H2Y 8627   3.624   0.893   5.735  0.4558 -0.0045 -0.4098
   89SAPE   C23 8628   3.137   0.315   6.099 -0.8966 -0.4331 -0.2843
   89SAPE   H3R 8629   3.048   0.382   6.105 -1.1873 -0.7744 -0.6945
   89SAPE   H3S 8630   3.160   0.276   6.200  0.1420 -1.2251 -0.8185
   89SAPE   C24 8631   3.099   0.186   6.023  0.2362 -0.5456 -0.1392
   89SAPE   H4R 8632   3.103   0.210   5.915 -0.0651  0.2077  0.0104
   89SAPE   H4S 8633   2.995   0.168   6.059  0.6292  1.9006  2.6072
   89SAPE   C25 8634   3.178   0.061   6.055 -0.6667 -0.8406  0.3864
   89SAPE   H5R 8635   3.188   0.037   6.162  0.6102  1.0595  0.7449
   89SAPE   C26 8636   3.252  -0.010   5.967  0.2518 -0.2013 -0.3326
   89SAPE   H6R 8637   3.309  -0.102   5.989 -0.7505 -1.0682 -1.2529
   89SAPE   C27 8638   3.257   0.013   5.815 -0.2180  0.9404  0.1740
   89SAPE   H7R 8639   3.153   0.036   5.782 -0.4787  0.5495  0.7243
   89SAPE   H7S 8640   3.285  -0.082   5.766 -0.0290  1.2980 -0.4234
   89SAPE   C28 8641   3.361   0.115   5.777  0.7666 -0.1705 -0.0493
   89SAPE   H8R 8642   3.403   0.162   5.867  0.5971  0.3406 -0.2334
   89SAPE   C29 8643   3.381   0.156   5.652 -0.1211  0.0140 -0.4335
   89SAPE   H9R 8644   3.465   0.225   5.634  0.2499 -0.9279 -2.6018
   89SAPE  C210 8645   3.333   0.085   5.529 -0.5906 -0.6939  0.0340
   89SAPE  H10R 8646   3.334  -0.023   5.556 -1.3739 -0.7874 -0.2914
   89SAPE  H10S 8647   3.415   0.085   5.454  0.1824  1.7397  0.7984
   89SAPE  C211 8648   3.191   0.126   5.489 -0.3644  1.0159  0.0757
   89SAPE  H11R 8649   3.127   0.177   5.563 -0.9907  0.7970 -0.3021
   89SAPE  C212 8650   3.140   0.112   5.364 -0.2874  0.5287  0.1693
   89SAPE  H12R 8651   3.036   0.143   5.348 -0.8889 -2.0607 -1.4334
   89SAPE  C213 8652   3.200   0.056   5.239 -0.1627  0.0976  0.2473
   89SAPE  H13R 8653   3.156  -0.043   5.213  0.0462 -0.4308  1.7773
   89SAPE  H13S 8654   3.310   0.039   5.246 -0.1547  0.2379  0.4896
   89SAPE  C214 8655   3.172   0.157   5.125  0.9519  0.0353 -0.0534
   89SAPE  H14R 8656   3.156   0.264   5.148 -0.1517  0.1192 -1.1320
   89SAPE  C215 8657   3.183   0.129   4.994  0.0717  0.6172 -0.4249
   89SAPE  H15R 8658   3.164   0.210   4.923  0.5257 -0.6412 -2.0290
   89SAPE  C216 8659   3.214  -0.009   4.936  0.4768 -0.1397 -0.0289
   89SAPE  H16R 8660   3.144  -0.083   4.980  1.1391  0.1955  1.6608
   89SAPE  H16S 8661   3.311  -0.054   4.966 -0.6611 -2.4905  0.3103
   89SAPE  C217 8662   3.201  -0.008   4.787  0.5479  0.2351  0.1881
   89SAPE  H17R 8663   3.282   0.058   4.749  0.5644  0.8414  1.2596
   89SAPE  H17S 8664   3.102   0.030   4.753  1.2170  0.7919 -1.2306
   89SAPE  C218 8665   3.227  -0.141   4.712  0.2609 -0.5226 -0.2278
   89SAPE  H18R 8666   3.163  -0.219   4.758  1.3526 -1.6413 -0.5493
   89SAPE  H18S 8667   3.334  -0.159   4.734  1.0507  0.8295 -2.5317
   89SAPE  C219 8668   3.196  -0.119   4.563  0.3038  0.3049  0.2923
   89SAPE  H19R 8669   3.256  -0.029   4.537  1.7251 -0.6868  0.0748
   89SAPE  H19S 8670   3.091  -0.094   4.534  0.1874 -0.1579  0.3101
   89SAPE  C220 8671   3.245  -0.238   4.485 -0.1075 -0.8510  0.2365
   89SAPE  H20R 8672   3.217  -0.336   4.528  0.0211 -1.8273 -1.8215
   89SAPE  H20S 8673   3.355  -0.235   4.467 -0.2508  1.1394 -0.6712
   89SAPE  H20T 8674   3.200  -0.245   4.384 -0.4127  0.1924  0.2819
   89SAPE   C33 8675   3.594   0.710   5.625  0.2763 -0.3152  0.6549
   89SAPE   H3X 8676   3.504   0.749   5.572  0.5680  3.0963  2.4030
   89SAPE   H3Y 8677   3.582   0.604   5.656  1.2576 -0.5426  0.3263
   89SAPE   C34 8678   3.720   0.713   5.535  0.2093 -1.0390 -0.4878
   89SAPE   H4X 8679   3.733   0.622   5.474 -2.2249 -1.6662 -0.1765
   89SAPE   H4Y 8680   3.813   0.720   5.596  0.6230  1.0513 -1.2555
   89SAPE   C35 8681   3.728   0.832   5.439  1.2353 -0.5946  0.0571
   89SAPE   H5X 8682   3.743   0.921   5.503 -1.2018  0.2332 -0.4221
   89SAPE   H5Y 8683   3.634   0.855   5.383  1.6060 -1.2595 -0.8556
   89SAPE   C36 8684   3.849   0.824   5.355 -0.0203 -0.1040 -0.1946
   89SAPE   H6X 8685   3.930   0.772   5.411 -0.5002 -0.8656 -0.1869
   89SAPE   H6Y 8686   3.893   0.924   5.339  0.1365  0.0651  1.2133
   89SAPE   C37 8687   3.840   0.758   5.218 -0.5196  0.5522  0.9885
   89SAPE   H7X 8688   3.778   0.819   5.149 -1.5802 -1.1430  0.4125
   89SAPE   H7Y 8689   3.803   0.656   5.238  1.5410 -0.5307 -0.3928
   89SAPE   C38 8690   3.981   0.761   5.152 -0.3287  0.4245 -0.0108
   89SAPE   H8X 8691   4.057   0.710   5.215 -0.3504 -0.3425 -0.5841
   89SAPE   H8Y 8692   4.027   0.861   5.146  0.2772  0.0797 -1.6882
   89SAPE   C39 8693   3.966   0.698   5.011  0.2097  0.2722 -0.0432
   89SAPE   H9X 8694   3.931   0.593   5.010  0.3344  0.2343 -0.6166
   89SAPE   H9Y 8695   4.070   0.681   4.976  0.7576 -0.7173  1.9301
   89SAPE  C310 8696   3.895   0.783   4.907 -0.1035  0.2043 -0.3575
   89SAPE  H10X 8697   3.921   0.888   4.935  0.6352  0.2041 -1.0151
   89SAPE  H10Y 8698   3.785   0.777   4.923 -0.3239  0.2788 -1.6920
   89SAPE  C311 8699   3.917   0.759   4.755  0.4362  0.5381 -0.3805
   89SAPE  H11X 8700   3.855   0.674   4.718  0.9475 -0.4740  0.9827
   89SAPE  H11Y 8701   4.024   0.745   4.730  0.0828  2.2959 -3.4286
   89SAPE  C312 8702   3.861   0.869   4.670 -0.4810 -0.8392  0.3835
   89SAPE  H12X 8703   3.889   0.836   4.568  0.3175 -0.7064  0.5518
   89SAPE  H12Y 8704   3.907   0.969   4.681  0.9916 -1.5672  1.2507
   89SAPE  C313 8705   3.709   0.881   4.678  0.0432  0.4152 -0.1078
   89SAPE  H13X 8706   3.674   0.873   4.783 -1.0711 -2.0436 -0.6170
   89SAPE  H13Y 8707   3.667   0.793   4.625 -0.1530 -0.4988  1.5096
   89SAPE  C314 8708   3.653   1.014   4.631 -0.3170 -0.0847  0.2288
   89SAPE  H14X 8709   3.695   1.104   4.682  1.0268 -0.3201 -0.4095
   89SAPE  H14Y 8710   3.545   1.037   4.634 -0.5134  0.1006 -3.4434
   89SAPE  C315 8711   3.689   1.051   4.489 -0.4890  0.2256 -0.6321
   89SAPE  H15X 8712   3.644   0.977   4.420 -1.1009 -1.0341  1.0431
   89SAPE  H15Y 8713   3.800   1.055   4.481 -0.1384 -0.3889  2.5682
   89SAPE  C316 8714   3.636   1.189   4.456 -0.1074 -0.0194 -0.0258
   89SAPE  H16X 8715   3.677   1.269   4.521 -0.2477 -0.0439  0.0932
   89SAPE  H16Y 8716   3.529   1.192   4.486  0.1087 -0.4956  0.8189
   89SAPE  C317 8717   3.656   1.221   4.312 -0.3626  0.2385 -0.2390
   89SAPE  H17X 8718   3.631   1.131   4.253 -3.9973  0.2737  1.0000
   89SAPE  H17Y 8719   3.765   1.232   4.296  0.1374  0.8325  2.9162
   89SAPE  C318 8720   3.574   1.332   4.246  0.1515  0.5800  0.7453
   89SAPE  H18X 8721   3.465   1.321   4.260 -0.2550  2.3271 -0.6435
   89SAPE  H18Y 8722   3.599   1.348   4.139 -0.3703  2.6086  0.8932
   89SAPE  H18Z 8723   3.608   1.422   4.301  1.7696  0.7572 -0.4563
   90SAPE     N 8724   6.957   1.238   6.552 -0.1153 -0.5498  0.6411
   90SAPE   HN1 8725   7.058   1.240   6.526  0.2755  1.7930  2.0431
   90SAPE   HN2 8726   6.940   1.176   6.633  0.2774 -1.8884 -0.2480
   90SAPE   HN3 8727   6.907   1.206   6.466 -1.3768 -0.2471  1.2478
   90SAPE   C12 8728   6.908   1.368   6.593  0.6092  0.1964 -0.4007
   90SAPE  H12A 8729   6.811   1.357   6.647  0.4631  0.4750 -0.6064
   90SAPE  H12B 8730   6.902   1.438   6.507  1.4868  2.1791  1.0741
   90SAPE   C11 8731   7.023   1.428   6.689  0.0649  0.2776  0.1164
   90SAPE  H11A 8732   7.033   1.353   6.770  0.0778 -0.7901 -0.8536
   90SAPE  H11B 8733   6.971   1.509   6.745  0.4671 -0.5209  1.7000
   90SAPE     P 8734   7.205   1.603   6.629 -0.0370  0.4437  0.4203
   90SAPE   O13 8735   7.232   1.639   6.765 -0.2279  0.0531  0.2395
   90SAPE   O14 8736   7.323   1.609   6.538 -0.0743  0.2243  0.9179
   90SAPE   O12 8737   7.146   1.446   6.629 -0.3367 -0.7000  0.1758
   90SAPE   O11 8738   7.081   1.686   6.577  0.5329 -0.1880 -0.1941
   90SAPE    C1 8739   7.035   1.658   6.440  0.2080 -0.0707 -0.4809
   90SAPE    HA 8740   7.068   1.559   6.402 -0.3758 -0.0444 -1.0733
   90SAPE    HB 8741   6.926   1.636   6.440  0.1293  0.2756  0.2807
   90SAPE    C2 8742   7.051   1.767   6.334 -0.3069 -0.2163  0.0303
   90SAPE    HS 8743   6.962   1.769   6.268 -0.2461 -0.4758 -0.0590
   90SAPE   O21 8744   7.178   1.743   6.261  0.4514  0.4001 -0.4593
   90SAPE   C21 8745   7.169   1.657   6.156  0.2153 -0.1606  0.3555
   90SAPE   O22 8746   7.067   1.616   6.118 -0.7844 -0.0985 -0.2975
   90SAPE   C22 8747   7.302   1.631   6.097 -0.3138 -0.4745 -0.0835
   90SAPE   H2R 8748   7.370   1.717   6.111  1.9305 -2.0429 -0.7209
   90SAPE   H2S 8749   7.353   1.553   6.158  2.7380  0.5970 -1.0889
   90SAPE    C3 8750   7.058   1.912   6.388 -0.3062 -0.1193  0.3063
   90SAPE    HX 8751   7.146   1.924   6.456  0.4185  1.2342 -0.8184
   90SAPE    HY 8752   6.966   1.934   6.445 -0.9547 -0.0328 -0.7531
   90SAPE   O31 8753   7.063   2.009   6.282 -0.0008  0.5133 -0.0677
   90SAPE   C31 8754   7.175   2.031   6.227  0.2939 -0.6852  0.3171
   90SAPE   O32 8755   7.286   1.991   6.258  0.4034 -0.1040 -0.5080
   90SAPE   C32 8756   7.155   2.114   6.104 -0.3746 -0.0885  0.4649
   90SAPE   H2X 8757   7.212   2.209   6.105 -1.6104  0.6781  1.2126
   90SAPE   H2Y 8758   7.046   2.126   6.085 -0.2821 -0.9674 -0.8083
   90SAPE   C23 8759   7.298   1.603   5.944  0.5753 -0.7088  0.1536
   90SAPE   H3R 8760   7.336   1.694   5.894 -2.0059 -1.0460 -2.6857
   90SAPE   H3S 8761   7.196   1.588   5.905 -0.3819 -0.4802  2.4027
   90SAPE   C24 8762   7.368   1.467   5.919  1.2657 -0.0461  0.2707
   90SAPE   H4R 8763   7.476   1.477   5.941  1.1390 -0.0349  0.8957
   90SAPE   H4S 8764   7.363   1.460   5.808 -0.6745  0.5384  0.2876
   90SAPE   C25 8765   7.300   1.343   5.977  0.0192 -0.2134  0.2091
   90SAPE   H5R 8766   7.324   1.317   6.081  1.7830  1.4135  0.2780
   90SAPE   C26 8767   7.194   1.276   5.927 -0.1076 -0.2550 -0.0004
   90SAPE   H6R 8768   7.151   1.197   5.990  0.7379  0.9331  2.1992
   90SAPE   C27 8769   7.150   1.288   5.784  0.2176  0.4194  0.4822
   90SAPE   H7R 8770   7.211   1.222   5.719  0.0547  2.6780 -2.1006
   90SAPE   H7S 8771   7.166   1.389   5.742  1.2930 -0.5648 -1.6265
   90SAPE   C28 8772   7.004   1.251   5.774  0.5222 -0.4769 -0.4509
   90SAPE   H8R 8773   6.951   1.238   5.870 -1.7469 -0.9437 -1.6863
   90SAPE   C29 8774   6.939   1.244   5.652  0.4135  0.7524  0.1073
   90SAPE   H9R 8775   6.832   1.218   5.658  0.2726  1.5575  1.6680
   90SAPE  C210 8776   7.009   1.264   5.516 -0.7129  0.7989  0.1342
   90SAPE  H10R 8777   7.119   1.279   5.530  0.1571 -2.7143 -1.8609
   90SAPE  H10S 8778   6.972   1.356   5.467  0.1445  1.3220  0.4398
   90SAPE  C211 8779   6.994   1.134   5.439 -0.0225  0.2221  0.0405
   90SAPE  H11R 8780   6.997   1.041   5.497 -1.0045 -0.9946 -1.7613
   90SAPE  C212 8781   6.979   1.130   5.304  0.5704  0.4448 -0.5856
   90SAPE  H12R 8782   6.962   1.034   5.252 -0.2292  0.7354 -0.8651
   90SAPE  C213 8783   6.972   1.241   5.202 -0.0263 -0.5798  0.3688
   90SAPE  H13R 8784   6.987   1.341   5.248  1.2715 -1.1327  1.1999
   90SAPE  H13S 8785   6.871   1.248   5.157 -0.8730 -0.0468  2.2428
   90SAPE  C214 8786   7.087   1.239   5.102  0.1717  0.5331  0.5899
   90SAPE  H14R 8787   7.184   1.275   5.139  1.6281 -2.9222  0.4588
   90SAPE  C215 8788   7.063   1.217   4.971 -0.6408  0.5293 -0.1725
   90SAPE  H15R 8789   7.147   1.203   4.901  0.0566  0.1252  0.7239
   90SAPE  C216 8790   6.935   1.184   4.909 -0.0002 -0.2517 -0.8479
   90SAPE  H16R 8791   6.889   1.280   4.878  0.0611  0.1629  0.2829
   90SAPE  H16S 8792   6.861   1.144   4.982 -1.1949  0.5121 -1.6005
   90SAPE  C217 8793   6.934   1.067   4.805  1.0493  0.2853  0.4790
   90SAPE  H17R 8794   6.828   1.040   4.786  1.2369 -0.7231  0.8644
   90SAPE  H17S 8795   6.985   0.978   4.847 -0.6240 -0.2249  1.5131
   90SAPE  C218 8796   6.997   1.103   4.667 -0.2254  0.3416 -0.1005
   90SAPE  H18R 8797   7.084   1.171   4.672  1.5552 -1.7341 -1.0184
   90SAPE  H18S 8798   6.908   1.151   4.621 -2.0596 -2.2931  0.4485
   90SAPE  C219 8799   7.055   0.982   4.603 -0.0909  0.2479  0.2210
   90SAPE  H19R 8800   6.972   0.910   4.590  0.0302  0.1659 -0.1131
   90SAPE  H19S 8801   7.127   0.932   4.671 -0.2585 -2.6233 -1.5703
   90SAPE  C220 8802   7.126   1.019   4.468  0.5411  0.3588 -0.5421
   90SAPE  H20R 8803   7.203   1.096   4.487 -0.0789  0.8057  0.1969
   90SAPE  H20S 8804   7.055   1.072   4.401 -0.6300 -1.1749 -0.5736
   90SAPE  H20T 8805   7.177   0.934   4.418 -1.5014 -1.0838 -0.3091
   90SAPE   C33 8806   7.209   2.030   5.981 -0.1798  0.2756  0.1241
   90SAPE   H3X 8807   7.153   1.934   5.979 -0.2402  0.2963  0.6912
   90SAPE   H3Y 8808   7.312   1.997   6.006 -0.3186 -1.1925 -1.0837
   90SAPE   C34 8809   7.227   2.102   5.844  0.4654 -0.1876 -0.2852
   90SAPE   H4X 8810   7.302   2.183   5.861 -1.6940  2.0422 -0.7463
   90SAPE   H4Y 8811   7.134   2.156   5.816  0.7545  0.6438  0.2919
   90SAPE   C35 8812   7.278   2.013   5.730  0.4230 -0.4004  0.5831
   90SAPE   H5X 8813   7.228   1.914   5.737 -0.9260  0.2220  0.1546
   90SAPE   H5Y 8814   7.385   1.987   5.748  0.8845 -1.2131 -2.6237
   90SAPE   C36 8815   7.270   2.066   5.585  0.4004  0.0414 -0.1048
   90SAPE   H6X 8816   7.331   2.158   5.583  2.6488 -1.3605  0.2918
   90SAPE   H6Y 8817   7.162   2.088   5.571  0.2081 -1.3822 -1.0455
   90SAPE   C37 8818   7.308   1.967   5.473 -0.8550 -0.8683  0.0354
   90SAPE   H7X 8819   7.257   1.869   5.489 -2.0032 -0.0991  1.3546
   90SAPE   H7Y 8820   7.418   1.954   5.464 -0.5921  0.6674  0.7133
   90SAPE   C38 8821   7.267   2.020   5.334  0.2081  0.3547 -0.9084
   90SAPE   H8X 8822   7.322   2.115   5.322  1.5686 -0.0505  1.4869
   90SAPE   H8Y 8823   7.158   2.042   5.338  0.2329  0.3167  1.2468
   90SAPE   C39 8824   7.302   1.928   5.211  0.3780 -0.7225 -0.6005
   90SAPE   H9X 8825   7.259   1.825   5.214  1.3630 -1.1425 -0.7351
   90SAPE   H9Y 8826   7.411   1.921   5.195  0.7258  1.8491  0.2713
   90SAPE  C310 8827   7.247   1.991   5.079 -0.5293 -0.1450  0.6349
   90SAPE  H10X 8828   7.302   2.088   5.073  0.2811 -0.5351  1.5419
   90SAPE  H10Y 8829   7.139   2.016   5.087 -0.1958  1.9800 -0.5318
   90SAPE  C311 8830   7.291   1.921   4.949  0.1806 -0.3386 -0.4113
   90SAPE  H11X 8831   7.242   1.822   4.936  3.9253 -2.1581 -2.3440
   90SAPE  H11Y 8832   7.401   1.902   4.955 -0.1372 -1.9288  1.3037
   90SAPE  C312 8833   7.252   2.003   4.828  0.2745 -0.4373  0.1064
   90SAPE  H12X 8834   7.325   2.085   4.815 -0.7212  0.3034 -1.0144
   90SAPE  H12Y 8835   7.149   2.044   4.820  0.7751  0.8113 -0.1556
   90SAPE  C313 8836   7.273   1.916   4.699 -0.1417 -0.5478 -0.7912
   90SAPE  H13X 8837   7.224   1.974   4.617 -0.4671  3.9980  2.2305
   90SAPE  H13Y 8838   7.218   1.820   4.697  1.7849 -1.7643 -4.4777
   90SAPE  C314 8839   7.418   1.883   4.664  0.5722 -0.2862 -0.2542
   90SAPE  H14X 8840   7.460   1.819   4.745  1.2902 -0.3024 -0.6337
   90SAPE  H14Y 8841   7.493   1.964   4.654 -1.2017  1.6142  0.8497
   90SAPE  C315 8842   7.418   1.806   4.535 -0.0436 -0.1617 -0.1754
   90SAPE  H15X 8843   7.362   1.711   4.552  1.0259 -1.0030 -1.1102
   90SAPE  H15Y 8844   7.522   1.784   4.503 -0.5479 -4.7971  0.6749
   90SAPE  C316 8845   7.360   1.884   4.417  0.4446  0.5994  0.3227
   90SAPE  H16X 8846   7.435   1.963   4.392 -0.8439  1.9528  0.6308
   90SAPE  H16Y 8847   7.267   1.944   4.425  1.3072  2.5246 -2.4775
   90SAPE  C317 8848   7.365   1.788   4.302  0.4412 -0.2545  0.4025
   90SAPE  H17X 8849   7.289   1.708   4.318 -0.5566  0.7314  0.7043
   90SAPE  H17Y 8850   7.463   1.737   4.286  0.9623  1.4532 -2.3491
   90SAPE  C318 8851   7.337   1.848   4.168  0.6146  0.2207 -0.5863
   90SAPE  H18X 8852   7.401   1.932   4.135 -0.8563  0.8176 -2.0867
   90SAPE  H18Y 8853   7.230   1.879   4.162  0.1710 -1.2940 -1.0362
   90SAPE  H18Z 8854   7.356   1.768   4.093  0.0736  0.7525 -1.2943
   91SAPE     N 8855   3.734   2.060   6.301 -0.2984 -0.3511 -0.8816
   91SAPE   HN1 8856   3.638   2.048   6.340  0.1471 -2.3900 -0.2836
   91SAPE   HN2 8857   3.747   2.160   6.278  0.6903  0.5305  2.8338
   91SAPE   HN3 8858   3.736   1.995   6.220 -0.1327  0.2672 -1.3723
   91SAPE   C12 8859   3.825   2.024   6.411  0.1081  0.2108  0.0592
   91SAPE  H12A 8860   3.767   1.960   6.480 -3.8429  1.7991 -1.4976
   91SAPE  H12B 8861   3.854   2.110   6.475  0.9058 -1.8860  2.6922
   91SAPE   C11 8862   3.958   1.966   6.364  0.7365 -0.4084  0.7032
   91SAPE  H11A 8863   3.940   1.890   6.285 -1.6922 -0.6039  1.3756
   91SAPE  H11B 8864   3.997   1.915   6.455 -2.8208 -1.6182  1.7243
   91SAPE     P 8865   4.127   2.163   6.405 -0.0714  0.1006  0.1114
   91SAPE   O13 8866   4.079   2.147   6.542 -0.3675 -0.0752 -0.6794
   91SAPE   O14 8867   4.268   2.128   6.371 -0.0133  0.0959 -0.2728
   91SAPE   O12 8868   4.035   2.077   6.317 -0.2906 -0.3477 -0.0042
   91SAPE   O11 8869   4.095   2.306   6.343 -0.2630 -0.2688  0.7932
   91SAPE    C1 8870   4.061   2.330   6.200 -0.3076 -0.2787 -0.0936
   91SAPE    HA 8871   3.979   2.259   6.175 -0.0611  0.0317 -1.9449
   91SAPE    HB 8872   4.023   2.432   6.179  0.4771  0.1093  0.3371
   91SAPE    C2 8873   4.171   2.308   6.091 -0.0796 -0.0369 -0.0369
   91SAPE    HS 8874   4.142   2.328   5.986  1.7948  1.2220 -0.3653
   91SAPE   O21 8875   4.235   2.179   6.091 -0.3438 -0.1302 -0.2626
   91SAPE   C21 8876   4.154   2.080   6.056  0.3330  0.3077  0.5810
   91SAPE   O22 8877   4.050   2.099   5.995  0.3638  0.4305 -0.3185
   91SAPE   C22 8878   4.198   1.942   6.089  0.1057 -0.0889 -0.0003
   91SAPE   H2R 8879   4.289   1.950   6.152  0.2437 -2.1146  0.1234
   91SAPE   H2S 8880   4.128   1.899   6.163  0.8506 -0.1841  0.6576
   91SAPE    C3 8881   4.281   2.419   6.106 -0.2418  0.2554  0.1902
   91SAPE    HX 8882   4.348   2.382   6.187 -0.9595  0.3803  0.8512
   91SAPE    HY 8883   4.236   2.505   6.160  1.6502  1.1358  0.4320
   91SAPE   O31 8884   4.347   2.457   5.981  0.1513  0.0686 -0.0243
   91SAPE   C31 8885   4.458   2.386   5.959  0.4854  0.4061  0.1925
   91SAPE   O32 8886   4.504   2.299   6.031  0.2831  0.5834  0.1608
   91SAPE   C32 8887   4.512   2.444   5.832  0.2557 -0.0919  0.4012
   91SAPE   H2X 8888   4.507   2.555   5.827  1.9947 -0.0183 -0.2523
   91SAPE   H2Y 8889   4.445   2.409   5.750  0.7360  1.7282 -0.8290
   91SAPE   C23 8890   4.199   1.862   5.962  0.4377  0.3707 -0.4455
   91SAPE   H3R 8891   4.137   1.904   5.880  1.1497 -2.7119 -2.7339
   91SAPE   H3S 8892   4.146   1.764   5.970 -0.5697  0.9590  0.3411
   91SAPE   C24 8893   4.342   1.839   5.909  0.2062  0.6164 -0.7820
   91SAPE   H4R 8894   4.340   1.770   5.823 -1.2732 -0.1727 -0.1574
   91SAPE   H4S 8895   4.400   1.792   5.992 -1.0908  1.1616  0.4811
   91SAPE   C25 8896   4.403   1.974   5.878  0.1479 -0.1489 -0.0527
   91SAPE   H5R 8897   4.455   2.022   5.963  0.2987  0.6691 -0.5913
   91SAPE   C26 8898   4.403   2.034   5.760  0.1904 -0.1157 -0.2265
   91SAPE   H6R 8899   4.461   2.126   5.748 -0.3985  0.2117 -0.6068
   91SAPE   C27 8900   4.325   2.001   5.639  0.8156  0.1558 -0.0621
   91SAPE   H7R 8901   4.303   2.094   5.584  1.5396 -0.6060 -1.7061
   91SAPE   H7S 8902   4.235   1.943   5.668  0.7624  0.3113  0.0828
   91SAPE   C28 8903   4.413   1.912   5.556 -0.4882 -0.0521 -0.2023
   91SAPE   H8R 8904   4.487   1.853   5.612  1.8622  2.1745 -0.7539
   91SAPE   C29 8905   4.427   1.899   5.422  0.8016  0.2675 -0.1897
   91SAPE   H9R 8906   4.503   1.827   5.388 -0.1892 -0.5209 -0.7828
   91SAPE  C210 8907   4.349   1.966   5.317  0.3471 -0.6326 -0.5351
   91SAPE  H10R 8908   4.243   1.939   5.333 -0.5192  2.1882 -0.8965
   91SAPE  H10S 8909   4.370   1.912   5.222 -2.9657  1.4657 -2.7050
   91SAPE  C211 8910   4.361   2.109   5.281  0.2033  0.0977 -0.8720
   91SAPE  H11R 8911   4.313   2.172   5.357  2.2758 -1.2124  1.7270
   91SAPE  C212 8912   4.424   2.152   5.172  0.0607  0.5802 -0.4820
   91SAPE  H12R 8913   4.446   2.259   5.159  0.3662  0.4298 -1.2898
   91SAPE  C213 8914   4.497   2.064   5.076 -0.4568 -0.4625 -0.0835
   91SAPE  H13R 8915   4.556   1.992   5.137  0.7503  0.5502 -0.0266
   91SAPE  H13S 8916   4.576   2.131   5.038  0.0326  0.1053  1.8244
   91SAPE  C214 8917   4.405   1.990   4.980 -0.1774  0.0137  0.7747
   91SAPE  H14R 8918   4.365   1.892   5.013 -1.0498 -0.4416 -1.4798
   91SAPE  C215 8919   4.377   2.030   4.855 -0.4399 -0.1566  0.0541
   91SAPE  H15R 8920   4.308   1.970   4.795  0.9004 -2.6664  0.9042
   91SAPE  C216 8921   4.440   2.150   4.776  0.4897 -0.2628 -0.8220
   91SAPE  H16R 8922   4.482   2.217   4.854 -0.0376  0.3532 -1.0514
   91SAPE  H16S 8923   4.361   2.198   4.714 -0.1361 -0.5424 -0.2485
   91SAPE  C217 8924   4.541   2.110   4.676  0.1819 -0.1118 -0.3285
   91SAPE  H17R 8925   4.487   2.059   4.593  0.7883 -0.1081 -0.7348
   91SAPE  H17S 8926   4.618   2.045   4.723 -0.6084 -0.3889  0.6187
   91SAPE  C218 8927   4.622   2.229   4.621  0.0644  0.2639 -0.6252
   91SAPE  H18R 8928   4.706   2.263   4.685 -0.3972  1.0714 -0.4290
   91SAPE  H18S 8929   4.557   2.318   4.605 -1.1266  0.0852  2.6008
   91SAPE  C219 8930   4.683   2.192   4.489 -0.9020  0.0782  0.0568
   91SAPE  H19R 8931   4.599   2.140   4.439 -1.3397  0.6504  0.1861
   91SAPE  H19S 8932   4.767   2.124   4.514 -2.3264 -0.8119  2.7516
   91SAPE  C220 8933   4.732   2.317   4.414  0.9360  0.8148  0.1966
   91SAPE  H20R 8934   4.642   2.379   4.399 -1.7316 -2.3322  1.8726
   91SAPE  H20S 8935   4.776   2.285   4.317  0.0129  1.4660 -0.4461
   91SAPE  H20T 8936   4.805   2.373   4.477  0.9234 -0.3709  1.3017
   91SAPE   C33 8937   4.660   2.402   5.800  0.3838 -0.0431 -0.3178
   91SAPE   H3X 8938   4.672   2.293   5.818  0.7892  0.1389  0.5416
   91SAPE   H3Y 8939   4.723   2.453   5.875 -0.2744 -1.8166  1.5203
   91SAPE   C34 8940   4.718   2.415   5.658 -0.4004 -0.4348  0.4822
   91SAPE   H4X 8941   4.826   2.398   5.643 -0.5998 -1.3934  0.0456
   91SAPE   H4Y 8942   4.717   2.521   5.624  0.0422 -0.3476  0.7327
   91SAPE   C35 8943   4.646   2.328   5.552 -0.2282  0.2506 -0.2723
   91SAPE   H5X 8944   4.542   2.368   5.558 -0.1289  0.3762  0.6004
   91SAPE   H5Y 8945   4.624   2.223   5.582 -2.8882  0.7947 -0.0628
   91SAPE   C36 8946   4.700   2.337   5.409  0.0855  0.0551 -0.3974
   91SAPE   H6X 8947   4.648   2.273   5.335  0.4132  0.3672 -0.9060
   91SAPE   H6Y 8948   4.804   2.300   5.422 -0.3967 -1.4892 -0.7943
   91SAPE   C37 8949   4.726   2.484   5.361  0.8436 -0.2557  0.3646
   91SAPE   H7X 8950   4.807   2.532   5.420 -0.4070  1.6877  0.6063
   91SAPE   H7Y 8951   4.635   2.537   5.396  0.4226  0.8536 -2.2100
   91SAPE   C38 8952   4.733   2.507   5.210 -0.6325 -0.1644 -0.0356
   91SAPE   H8X 8953   4.723   2.614   5.183  0.2722 -0.1314 -0.2712
   91SAPE   H8Y 8954   4.647   2.447   5.176  0.2796 -2.6228  1.6692
   91SAPE   C39 8955   4.867   2.448   5.140  1.1710 -0.5430 -0.1691
   91SAPE   H9X 8956   4.884   2.342   5.169  0.5364 -0.5271  0.2728
   91SAPE   H9Y 8957   4.956   2.505   5.175  0.6399 -0.4549  1.0906
   91SAPE  C310 8958   4.867   2.447   4.983 -0.2198  0.3156 -0.3846
   91SAPE  H10X 8959   4.774   2.392   4.960  0.0867  0.7292 -2.9284
   91SAPE  H10Y 8960   4.957   2.393   4.946  0.9380  1.5116  0.5784
   91SAPE  C311 8961   4.842   2.581   4.913 -0.3572  0.4780  0.0876
   91SAPE  H11X 8962   4.916   2.653   4.954 -1.5888  2.1186 -0.4477
   91SAPE  H11Y 8963   4.752   2.637   4.948  0.3115  2.7790 -1.6432
   91SAPE  C312 8964   4.831   2.580   4.759  0.3593 -0.4455  0.0897
   91SAPE  H12X 8965   4.765   2.497   4.727 -2.4572  2.3755 -2.0852
   91SAPE  H12Y 8966   4.935   2.552   4.731  0.4210  0.0875 -0.2356
   91SAPE  C313 8967   4.787   2.716   4.694 -0.7673  0.6924  0.2359
   91SAPE  H13X 8968   4.854   2.799   4.727 -0.7609  0.7342  0.1201
   91SAPE  H13Y 8969   4.681   2.724   4.724 -0.4038  1.2679  1.4280
   91SAPE  C314 8970   4.796   2.697   4.542  0.5187  0.3346  0.2417
   91SAPE  H14X 8971   4.749   2.602   4.507  1.2194  0.4976 -1.1705
   91SAPE  H14Y 8972   4.904   2.685   4.520  1.1590  2.6637  1.6645
   91SAPE  C315 8973   4.740   2.813   4.463  0.0262  0.7863  0.2733
   91SAPE  H15X 8974   4.798   2.905   4.484 -0.7172  2.2021 -3.1770
   91SAPE  H15Y 8975   4.643   2.847   4.504 -0.3503  0.5688 -0.4228
   91SAPE  C316 8976   4.729   2.790   4.309 -0.3110  0.0649  0.0935
   91SAPE  H16X 8977   4.683   2.690   4.292 -0.4672  0.2578 -0.6629
   91SAPE  H16Y 8978   4.829   2.781   4.263 -1.4204 -2.1034 -2.1233
   91SAPE  C317 8979   4.638   2.892   4.239 -0.0243 -0.5543  0.1573
   91SAPE  H17X 8980   4.679   2.995   4.251 -0.5199 -0.4089  0.6725
   91SAPE  H17Y 8981   4.539   2.873   4.287 -0.7029  1.8252 -0.1600
   91SAPE  C318 8982   4.637   2.864   4.091 -0.3221 -0.1661  0.0724
   91SAPE  H18X 8983   4.563   2.931   4.042 -0.8716 -1.0154 -0.2917
   91SAPE  H18Y 8984   4.601   2.762   4.063  3.2755 -0.7455 -3.3061
   91SAPE  H18Z 8985   4.738   2.874   4.046 -0.8625  1.3925 -0.8650
   92SAPE     N 8986   1.947   2.948   6.542 -0.0890  0.5826  0.3668
   92SAPE   HN1 8987   1.906   3.035   6.581 -0.8479  0.2265  0.3872
   92SAPE   HN2 8988   1.906   2.872   6.600  1.7965 -1.2663 -0.5876
   92SAPE   HN3 8989   2.050   2.951   6.549 -0.0674 -2.0669  2.9098
   92SAPE   C12 8990   1.912   2.937   6.399 -0.2006  0.7726  0.3915
   92SAPE  H12A 8991   1.928   3.033   6.345 -1.9383  0.7641 -0.2019
   92SAPE  H12B 8992   1.809   2.897   6.395 -0.0555  0.3418  0.8150
   92SAPE   C11 8993   2.007   2.837   6.332 -0.6445  0.3232 -0.1579
   92SAPE  H11A 8994   1.979   2.799   6.231  1.4504 -1.1954 -0.2352
   92SAPE  H11B 8995   1.996   2.749   6.398  0.1655  0.5942  0.3581
   92SAPE     P 8996   2.193   2.991   6.240 -0.4531  0.0506 -0.0162
   92SAPE   O13 8997   2.141   3.116   6.293  0.0146  0.1706 -0.5017
   92SAPE   O14 8998   2.340   2.985   6.231 -0.3812 -0.0065 -0.2925
   92SAPE   O12 8999   2.145   2.879   6.339 -0.0499 -0.5332 -0.1732
   92SAPE   O11 9000   2.140   2.957   6.099  0.0875 -0.2310 -0.3766
   92SAPE    C1 9001   2.156   2.831   6.041  1.0580 -0.1276  0.5005
   92SAPE    HA 9002   2.174   2.753   6.118 -1.3074 -1.1346  0.1047
   92SAPE    HB 9003   2.067   2.789   5.989  0.5770  0.5508  0.7606
   92SAPE    C2 9004   2.272   2.826   5.940 -0.1261 -0.2813  0.4889
   92SAPE    HS 9005   2.365   2.873   5.979 -0.1572 -1.3562  1.9190
   92SAPE   O21 9006   2.222   2.891   5.819 -0.3247 -0.0891 -0.1062
   92SAPE   C21 9007   2.242   3.016   5.808  0.5334 -0.8438  0.1582
   92SAPE   O22 9008   2.315   3.091   5.875  0.0867  0.0470 -0.4179
   92SAPE   C22 9009   2.145   3.067   5.697 -0.3393  0.0342  0.1533
   92SAPE   H2R 9010   2.189   3.047   5.596 -0.7290  1.5782 -0.3659
   92SAPE   H2S 9011   2.052   3.010   5.717 -0.0639 -0.2904  0.5168
   92SAPE    C3 9012   2.308   2.681   5.917  0.0544 -0.4066 -0.4848
   92SAPE    HX 9013   2.210   2.633   5.901 -0.1321  0.2058 -1.2184
   92SAPE    HY 9014   2.340   2.632   6.012  0.6920  0.2876 -0.3273
   92SAPE   O31 9015   2.406   2.662   5.811 -0.3281 -0.8603 -0.1517
   92SAPE   C31 9016   2.354   2.671   5.689 -0.2436 -0.1237 -0.0567
   92SAPE   O32 9017   2.233   2.662   5.664 -0.4031 -0.4549  0.2996
   92SAPE   C32 9018   2.466   2.701   5.584  0.0699  0.2931 -0.3994
   92SAPE   H2X 9019   2.552   2.643   5.623 -0.3602 -0.1908 -0.1535
   92SAPE   H2Y 9020   2.490   2.809   5.579  2.7526 -0.2389 -0.5510
   92SAPE   C23 9021   2.125   3.220   5.697 -0.2408  0.7150 -0.1357
   92SAPE   H3R 9022   2.131   3.269   5.797  1.6029  1.6104 -0.6417
   92SAPE   H3S 9023   2.017   3.228   5.670 -0.5936 -0.5672  0.7942
   92SAPE   C24 9024   2.200   3.305   5.595 -0.7681  0.1258 -0.2496
   92SAPE   H4R 9025   2.161   3.409   5.603  2.3536  1.3757  0.0243
   92SAPE   H4S 9026   2.180   3.260   5.495  2.1216 -1.5273 -0.1731
   92SAPE   C25 9027   2.354   3.297   5.623 -0.0662  0.2290 -0.4083
   92SAPE   H5R 9028   2.382   3.320   5.726 -2.2097 -0.1094  0.3181
   92SAPE   C26 9029   2.451   3.267   5.534  0.1869 -0.7316  0.7161
   92SAPE   H6R 9030   2.547   3.253   5.587 -0.9938 -1.2581  2.8352
   92SAPE   C27 9031   2.439   3.232   5.385  0.5453 -0.5890 -0.0745
   92SAPE   H7R 9032   2.472   3.321   5.327 -0.5967 -0.8940 -1.2685
   92SAPE   H7S 9033   2.335   3.204   5.357  1.1770 -2.0063 -1.0930
   92SAPE   C28 9034   2.519   3.110   5.360  0.0659  0.1942  0.3919
   92SAPE   H8R 9035   2.480   3.019   5.406 -0.3879 -0.5045 -1.2785
   92SAPE   C29 9036   2.636   3.100   5.297  0.2941  0.1541 -0.0503
   92SAPE   H9R 9037   2.679   3.000   5.283 -0.0848 -0.2619  1.5942
   92SAPE  C210 9038   2.712   3.213   5.238 -0.1798 -0.4982  0.5080
   92SAPE  H10R 9039   2.819   3.188   5.252  0.0465 -1.0279 -1.8302
   92SAPE  H10S 9040   2.701   3.307   5.296  0.0335  0.2292 -0.6154
   92SAPE  C211 9041   2.705   3.215   5.091  0.1607  0.5254 -0.5503
   92SAPE  H11R 9042   2.689   3.117   5.042 -4.7701  0.9447 -0.2412
   92SAPE  C212 9043   2.703   3.325   5.021 -0.8580  0.0724 -0.3371
   92SAPE  H12R 9044   2.694   3.318   4.911  0.4697  1.1936 -0.5463
   92SAPE  C213 9045   2.701   3.463   5.070 -0.3528 -0.7737 -0.4295
   92SAPE  H13R 9046   2.715   3.534   4.985  2.9231 -0.1857  0.4465
   92SAPE  H13S 9047   2.780   3.488   5.144  2.2056 -1.9466 -2.5642
   92SAPE  C214 9048   2.559   3.493   5.116  0.3398 -0.0074 -0.8474
   92SAPE  H14R 9049   2.490   3.412   5.089  1.3401 -1.0305 -0.3526
   92SAPE  C215 9050   2.514   3.597   5.188 -0.2652 -0.4264  0.3164
   92SAPE  H15R 9051   2.412   3.605   5.229  0.9542  0.6826  3.5035
   92SAPE  C216 9052   2.592   3.715   5.243  0.1178  0.0368  0.1318
   92SAPE  H16R 9053   2.589   3.806   5.180  0.0091 -0.8489 -1.1685
   92SAPE  H16S 9054   2.700   3.696   5.261  0.2074  0.3701 -0.0489
   92SAPE  C217 9055   2.528   3.756   5.384  0.8887  0.2087 -0.2168
   92SAPE  H17R 9056   2.432   3.811   5.376  0.1341 -0.8002  1.3286
   92SAPE  H17S 9057   2.611   3.812   5.434 -0.1706  1.3734  0.2895
   92SAPE  C218 9058   2.504   3.631   5.472 -0.9763 -0.0981 -0.6882
   92SAPE  H18R 9059   2.577   3.551   5.450 -0.1721  0.7943 -1.3399
   92SAPE  H18S 9060   2.411   3.580   5.439 -3.1551  1.6143  2.2672
   92SAPE  C219 9061   2.488   3.658   5.625  0.2234 -0.2112  0.5210
   92SAPE  H19R 9062   2.571   3.721   5.664  0.8126 -0.8112  0.2637
   92SAPE  H19S 9063   2.499   3.563   5.682  0.9108  0.0318  0.8082
   92SAPE  C220 9064   2.354   3.715   5.663  0.2329 -0.2708  0.4840
   92SAPE  H20R 9065   2.335   3.700   5.772 -1.7000 -0.9197  0.1076
   92SAPE  H20S 9066   2.271   3.668   5.607  0.3239  1.0307 -0.8053
   92SAPE  H20T 9067   2.363   3.823   5.638 -3.4977 -0.0521 -0.4886
   92SAPE   C33 9068   2.437   2.653   5.440  0.4295 -0.5283 -0.7178
   92SAPE   H3X 9069   2.351   2.707   5.396 -0.1022 -0.0434  0.8681
   92SAPE   H3Y 9070   2.420   2.544   5.427  0.3109 -0.4699 -1.0614
   92SAPE   C34 9071   2.554   2.675   5.343  0.5968  0.3669 -0.3915
   92SAPE   H4X 9072   2.636   2.601   5.354  0.0150 -0.1583  0.5707
   92SAPE   H4Y 9073   2.589   2.777   5.370 -0.9526  0.7525  0.2739
   92SAPE   C35 9074   2.507   2.695   5.193  0.0451  0.6306 -0.1461
   92SAPE   H5X 9075   2.430   2.775   5.186  0.1751  0.5995 -3.0025
   92SAPE   H5Y 9076   2.457   2.601   5.162 -0.6657  0.7721  0.5415
   92SAPE   C36 9077   2.629   2.725   5.104  0.6549  0.0478 -0.2875
   92SAPE   H6X 9078   2.684   2.628   5.107  0.8754  0.1438 -1.1397
   92SAPE   H6Y 9079   2.695   2.807   5.138  3.0694 -0.6776 -2.8714
   92SAPE   C37 9080   2.592   2.758   4.961  0.1290  0.1764  0.5841
   92SAPE   H7X 9081   2.513   2.693   4.917  0.8271 -0.1942 -0.1499
   92SAPE   H7Y 9082   2.679   2.727   4.900  0.5215 -0.3133  1.3852
   92SAPE   C38 9083   2.576   2.907   4.918  0.0026  0.3508  0.0614
   92SAPE   H8X 9084   2.557   2.913   4.809  1.1429 -0.5316 -0.2051
   92SAPE   H8Y 9085   2.670   2.963   4.939  1.6909 -1.8859 -1.1085
   92SAPE   C39 9086   2.456   2.971   4.989  0.2010 -0.1798  0.3072
   92SAPE   H9X 9087   2.478   2.979   5.098 -0.4748 -1.5118  0.5561
   92SAPE   H9Y 9088   2.376   2.894   4.986  2.0616 -2.2105  0.2785
   92SAPE  C310 9089   2.408   3.103   4.916  0.3853  0.1465  0.2325
   92SAPE  H10X 9090   2.345   3.083   4.827  0.4787  0.9647 -0.0301
   92SAPE  H10Y 9091   2.492   3.160   4.871 -0.7785  1.5279 -0.2845
   92SAPE  C311 9092   2.336   3.205   5.006  0.2311  0.0153  0.1474
   92SAPE  H11X 9093   2.327   3.302   4.953  1.1974  0.1074  0.1327
   92SAPE  H11Y 9094   2.414   3.217   5.084  1.4547  1.9606 -1.2796
   92SAPE  C312 9095   2.193   3.166   5.057  0.4933  0.4028  1.1178
   92SAPE  H12X 9096   2.199   3.082   5.130  0.6505  1.2510  2.1012
   92SAPE  H12Y 9097   2.131   3.128   4.972  4.7422  1.2635 -2.7937
   92SAPE  C313 9098   2.116   3.283   5.110  0.4013 -0.2878 -0.2925
   92SAPE  H13X 9099   2.098   3.360   5.031  1.7417  0.9732  0.5714
   92SAPE  H13Y 9100   2.187   3.316   5.189 -0.2134 -1.4064  0.7348
   92SAPE  C314 9101   1.984   3.251   5.181  0.6948 -0.2581 -0.8161
   92SAPE  H14X 9102   1.993   3.166   5.251  0.8993 -0.9751 -1.6835
   92SAPE  H14Y 9103   1.912   3.213   5.105 -0.9568 -1.3356  1.1782
   92SAPE  C315 9104   1.919   3.371   5.252  0.5201  0.1453 -0.5516
   92SAPE  H15X 9105   1.935   3.465   5.195  0.3380  0.2048 -0.5069
   92SAPE  H15Y 9106   1.987   3.385   5.339 -1.1453 -1.1094  1.0368
   92SAPE  C316 9107   1.771   3.364   5.302 -0.1765  0.6172 -0.5437
   92SAPE  H16X 9108   1.764   3.273   5.366 -1.2033  0.4520 -0.8785
   92SAPE  H16Y 9109   1.693   3.354   5.225 -0.3471  0.6359 -0.3736
   92SAPE  C317 9110   1.718   3.488   5.376  0.0902  0.0383 -0.8078
   92SAPE  H17X 9111   1.736   3.576   5.311 -1.9786 -0.0451 -1.5781
   92SAPE  H17Y 9112   1.778   3.504   5.468 -1.8877 -0.9234  0.7351
   92SAPE  C318 9113   1.570   3.493   5.422  0.5723 -0.6347  0.6226
   92SAPE  H18X 9114   1.501   3.505   5.335  1.2542  1.4514  0.3107
   92SAPE  H18Y 9115   1.543   3.572   5.495 -0.7402  0.2793 -0.7639
   92SAPE  H18Z 9116   1.538   3.403   5.479 -2.2552  0.1497  0.4209
   93SAPE     N 9117   0.928   1.807   6.466  0.0817  0.0561  0.4933
   93SAPE   HN1 9118   0.873   1.839   6.548 -0.8626 -0.6527  0.1524
   93SAPE   HN2 9119   0.875   1.815   6.376  1.0050 -1.2475 -0.2094
   93SAPE   HN3 9120   0.946   1.705   6.472 -2.5765 -0.4340  1.8932
   93SAPE   C12 9121   1.057   1.863   6.450  0.2162 -1.1307 -0.3895
   93SAPE  H12A 9122   1.112   1.863   6.547 -0.7372  0.6502  0.1920
   93SAPE  H12B 9123   1.037   1.969   6.423  2.1226 -0.6845 -0.2095
   93SAPE   C11 9124   1.139   1.795   6.334  0.3805 -0.4203  0.3912
   93SAPE  H11A 9125   1.235   1.845   6.311  1.5985 -3.5979 -2.0903
   93SAPE  H11B 9126   1.076   1.796   6.243  0.5117  2.2679  0.2579
   93SAPE     P 9127   1.278   1.617   6.463 -0.2546 -0.0252 -0.2912
   93SAPE   O13 9128   1.329   1.742   6.532  0.1776 -0.1446  0.0453
   93SAPE   O14 9129   1.224   1.515   6.549  0.2837  0.7644 -0.7674
   93SAPE   O12 9130   1.163   1.655   6.361 -0.1467  0.1329 -0.2204
   93SAPE   O11 9131   1.398   1.567   6.372 -0.0155  0.0386  0.0511
   93SAPE    C1 9132   1.421   1.607   6.234  0.9129 -0.0260 -0.3677
   93SAPE    HA 9133   1.387   1.713   6.236 -1.4429 -0.6767  2.4953
   93SAPE    HB 9134   1.528   1.599   6.205  0.1607  0.3115 -3.7012
   93SAPE    C2 9135   1.328   1.536   6.123  0.1144 -0.0135 -0.7228
   93SAPE    HS 9136   1.222   1.546   6.157 -0.4229 -0.0652 -2.3063
   93SAPE   O21 9137   1.365   1.393   6.124 -0.3646  0.6125 -0.4302
   93SAPE   C21 9138   1.256   1.307   6.125 -0.0791  0.3371 -0.4984
   93SAPE   O22 9139   1.141   1.345   6.133  0.0826  0.2244 -0.1491
   93SAPE   C22 9140   1.295   1.156   6.146 -0.4031  0.5404 -0.4404
   93SAPE   H2R 9141   1.363   1.136   6.061  0.0314  2.2975 -0.5427
   93SAPE   H2S 9142   1.347   1.143   6.244 -3.1420  0.8765  1.1617
   93SAPE    C3 9143   1.362   1.599   5.989 -0.4850  0.2922 -0.3225
   93SAPE    HX 9144   1.321   1.535   5.909  2.7129 -1.5382 -0.6651
   93SAPE    HY 9145   1.470   1.575   5.978 -0.3682  0.0868  1.0972
   93SAPE   O31 9146   1.326   1.738   5.982  0.6133  0.1155  0.1043
   93SAPE   C31 9147   1.212   1.770   5.940 -0.4374 -0.4167 -0.4953
   93SAPE   O32 9148   1.123   1.687   5.914  0.0074 -0.5531 -0.1642
   93SAPE   C32 9149   1.203   1.922   5.939 -0.0056  0.5766 -0.0780
   93SAPE   H2X 9150   1.305   1.953   5.909 -0.0536 -0.9492 -1.9683
   93SAPE   H2Y 9151   1.199   1.964   6.042 -1.6146 -0.5168  0.3547
   93SAPE   C23 9152   1.171   1.067   6.134  0.1578  0.4226 -0.1703
   93SAPE   H3R 9153   1.093   1.084   6.211  0.6638  0.5048  0.3232
   93SAPE   H3S 9154   1.194   0.959   6.152  0.2107  0.6767  1.3849
   93SAPE   C24 9155   1.112   1.062   5.993  0.0675  0.1193  0.3373
   93SAPE   H4R 9156   1.054   1.155   5.971  0.1310  0.0594 -0.0967
   93SAPE   H4S 9157   1.030   0.988   5.997 -0.0759  0.0120 -2.5169
   93SAPE   C25 9158   1.215   1.033   5.881  0.2026 -0.6192  0.1965
   93SAPE   H5R 9159   1.240   0.926   5.883  0.9618 -0.4749 -0.7568
   93SAPE   C26 9160   1.263   1.107   5.782  0.5976 -0.1195  0.1647
   93SAPE   H6R 9161   1.338   1.060   5.717  0.0435  0.7681 -1.1499
   93SAPE   C27 9162   1.232   1.256   5.762  0.6118 -0.1258  0.0078
   93SAPE   H7R 9163   1.215   1.309   5.859  0.7069 -1.2243  0.6425
   93SAPE   H7S 9164   1.138   1.273   5.706  0.3562  0.5748  0.6297
   93SAPE   C28 9165   1.347   1.312   5.679  0.3593  0.0532 -0.3653
   93SAPE   H8R 9166   1.444   1.261   5.681  2.3704  3.5116  1.2113
   93SAPE   C29 9167   1.345   1.418   5.590  0.0792  0.7738  0.6852
   93SAPE   H9R 9168   1.437   1.445   5.534 -0.3711 -0.8612 -0.9525
   93SAPE  C210 9169   1.226   1.512   5.574 -0.3239  0.2940 -0.0055
   93SAPE  H10R 9170   1.188   1.543   5.674 -3.4404 -0.9844 -0.6501
   93SAPE  H10S 9171   1.139   1.451   5.539 -0.1702  0.6461 -1.0322
   93SAPE  C211 9172   1.243   1.631   5.489 -0.1705 -0.4299 -0.6831
   93SAPE  H11R 9173   1.258   1.723   5.546  1.9227 -0.1162 -1.6287
   93SAPE  C212 9174   1.232   1.642   5.356 -0.4176 -0.3960 -0.9231
   93SAPE  H12R 9175   1.239   1.746   5.319 -2.4974 -0.6724 -2.2260
   93SAPE  C213 9176   1.232   1.528   5.261  0.2518 -0.0595  0.5605
   93SAPE  H13R 9177   1.135   1.548   5.210  0.3742 -0.6011  0.1064
   93SAPE  H13S 9178   1.234   1.430   5.313 -1.5631 -0.0271  0.7655
   93SAPE  C214 9179   1.338   1.537   5.160  0.2118  0.4485 -0.0608
   93SAPE  H14R 9180   1.440   1.565   5.190 -0.1274  0.6423  0.9646
   93SAPE  C215 9181   1.319   1.506   5.030 -0.3237  0.4722  0.0724
   93SAPE  H15R 9182   1.406   1.522   4.965  0.8267  1.8593  1.8357
   93SAPE  C216 9183   1.198   1.450   4.964 -0.2636  1.1456  0.0609
   93SAPE  H16R 9184   1.115   1.523   4.965 -0.9310  0.4959 -1.9643
   93SAPE  H16S 9185   1.168   1.358   5.019 -0.0121  0.6409 -0.6337
   93SAPE  C217 9186   1.228   1.413   4.822  0.1571 -0.0984 -0.3614
   93SAPE  H17R 9187   1.290   1.322   4.807 -0.2029 -0.2828 -0.7468
   93SAPE  H17S 9188   1.269   1.503   4.771 -0.1012 -0.2058 -0.7626
   93SAPE  C218 9189   1.102   1.391   4.732 -0.3687 -0.3912 -0.0599
   93SAPE  H18R 9190   1.049   1.487   4.751  2.4463  0.8395  2.3404
   93SAPE  H18S 9191   1.044   1.306   4.774  1.8796 -1.5923  0.7235
   93SAPE  C219 9192   1.124   1.365   4.590 -0.5838  0.2703  0.9416
   93SAPE  H19R 9193   1.190   1.277   4.576 -0.3601  0.4290  0.9784
   93SAPE  H19S 9194   1.177   1.446   4.534 -1.6838 -0.7699 -1.7997
   93SAPE  C220 9195   0.996   1.330   4.502 -0.3482  0.3736 -0.2285
   93SAPE  H20R 9196   0.927   1.415   4.517 -0.0481  0.5045  0.5009
   93SAPE  H20S 9197   0.932   1.247   4.540  0.1303  0.5477  1.0365
   93SAPE  H20T 9198   1.026   1.314   4.397 -2.3630  1.0321 -0.9376
   93SAPE   C33 9199   1.093   1.979   5.844 -0.4284 -0.0789 -0.0444
   93SAPE   H3X 9200   0.989   1.953   5.872 -0.8020  1.6443  0.3190
   93SAPE   H3Y 9201   1.109   1.938   5.742  3.0721  0.1143  0.3266
   93SAPE   C34 9202   1.105   2.134   5.842 -0.1181  0.1495  0.3448
   93SAPE   H4X 9203   1.097   2.177   5.945 -0.8276  0.7898  0.0336
   93SAPE   H4Y 9204   1.007   2.170   5.803 -2.3404 -4.1137  1.2782
   93SAPE   C35 9205   1.220   2.185   5.754  0.4830  0.0004 -0.0944
   93SAPE   H5X 9206   1.301   2.109   5.750 -1.2480 -2.0412  1.5988
   93SAPE   H5Y 9207   1.261   2.275   5.805 -0.9479  1.7997 -1.9625
   93SAPE   C36 9208   1.159   2.230   5.616  0.0756  0.0331 -0.1884
   93SAPE   H6X 9209   1.249   2.280   5.572 -0.0789  0.1598 -0.3614
   93SAPE   H6Y 9210   1.091   2.318   5.627 -0.0723 -0.1976  0.7738
   93SAPE   C37 9211   1.112   2.120   5.528 -0.0242 -0.5663 -0.2962
   93SAPE   H7X 9212   1.006   2.094   5.548 -0.3616 -0.8458 -2.2180
   93SAPE   H7Y 9213   1.173   2.034   5.564 -1.1568 -1.7114 -1.0257
   93SAPE   C38 9214   1.136   2.137   5.373  0.4527 -0.0300  0.4156
   93SAPE   H8X 9215   1.244   2.158   5.354  0.8943 -1.6275  0.9975
   93SAPE   H8Y 9216   1.075   2.224   5.341  0.3637  0.7169  2.4919
   93SAPE   C39 9217   1.068   2.021   5.295  0.1790 -0.0009  0.0153
   93SAPE   H9X 9218   0.958   2.023   5.313  0.0092  0.5306 -0.9892
   93SAPE   H9Y 9219   1.100   1.918   5.323  2.5536  0.5173 -0.6490
   93SAPE  C310 9220   1.098   2.030   5.146  0.9341 -0.3542  0.3260
   93SAPE  H10X 9221   1.207   2.024   5.124  0.4982 -1.3994 -1.7408
   93SAPE  H10Y 9222   1.064   2.131   5.114 -0.5970 -0.9327  0.0510
   93SAPE  C311 9223   1.013   1.932   5.068  0.8677  0.7354  0.0493
   93SAPE  H11X 9224   0.907   1.952   5.096  1.0195 -1.6540  2.6688
   93SAPE  H11Y 9225   1.037   1.829   5.099  1.5966  0.1109 -2.3858
   93SAPE  C312 9226   1.039   1.934   4.918 -0.2181 -0.8698 -0.9522
   93SAPE  H12X 9227   1.030   2.036   4.876  0.5682 -0.8415 -1.0716
   93SAPE  H12Y 9228   0.956   1.885   4.865 -1.8810  0.7896 -0.0233
   93SAPE  C313 9229   1.171   1.881   4.865 -0.0624 -0.5981 -0.3544
   93SAPE  H13X 9230   1.188   1.779   4.906 -1.0738 -0.3040  0.8332
   93SAPE  H13Y 9231   1.255   1.938   4.909 -1.3594  0.2432  1.1345
   93SAPE  C314 9232   1.171   1.896   4.711 -0.0593  1.1036  0.3794
   93SAPE  H14X 9233   1.183   2.004   4.692 -1.3763  1.4615  1.4345
   93SAPE  H14Y 9234   1.076   1.857   4.669 -0.6646  1.2956  1.5230
   93SAPE  C315 9235   1.291   1.820   4.647  0.3219 -0.3117 -0.8869
   93SAPE  H15X 9236   1.283   1.713   4.678  0.4020 -0.3921 -1.1444
   93SAPE  H15Y 9237   1.388   1.860   4.684  0.2587 -0.6029 -0.3924
   93SAPE  C316 9238   1.289   1.799   4.501  0.0652 -0.2753 -0.1599
   93SAPE  H16X 9239   1.210   1.729   4.467  0.6730 -1.4190  0.7148
   93SAPE  H16Y 9240   1.386   1.749   4.478  0.1508 -0.6007  0.8508
   93SAPE  C317 9241   1.275   1.931   4.427 -0.1121 -0.0931  0.3754
   93SAPE  H17X 9242   1.353   1.999   4.468 -1.3185  1.0543  0.8582
   93SAPE  H17Y 9243   1.179   1.985   4.443  0.4842  1.2679 -0.4181
   93SAPE  C318 9244   1.292   1.912   4.275  0.8648 -0.4908 -0.2282
   93SAPE  H18X 9245   1.261   2.004   4.222 -0.9624 -1.3218 -0.6868
   93SAPE  H18Y 9246   1.220   1.832   4.247  0.8159 -0.4407 -0.2450
   93SAPE  H18Z 9247   1.390   1.880   4.233  0.5303 -2.7812  0.5951
   94SAPE     N 9248   3.434   2.984   6.986 -0.1048  0.0354 -0.0204
   94SAPE   HN1 9249   3.454   3.081   6.954 -0.5042 -0.5640 -2.2725
   94SAPE   HN2 9250   3.357   2.952   6.923  0.0992  0.7763 -0.6538
   94SAPE   HN3 9251   3.402   3.001   7.083  1.4938  0.9547  0.3693
   94SAPE   C12 9252   3.555   2.889   6.995 -0.0461  0.5791  0.4336
   94SAPE  H12A 9253   3.589   2.871   6.890 -1.0227  1.8360 -0.1256
   94SAPE  H12B 9254   3.526   2.794   7.043  0.3871 -0.3475 -1.0570
   94SAPE   C11 9255   3.675   2.954   7.079  0.1741 -0.3267  0.5912
   94SAPE  H11A 9256   3.769   2.896   7.076  1.3902  1.5456  0.8195
   94SAPE  H11B 9257   3.638   2.952   7.183 -1.4991  0.6593  0.0549
   94SAPE     P 9258   3.814   3.134   6.941 -0.4879 -0.1544  0.0137
   94SAPE   O13 9259   3.775   3.274   6.909  0.1097 -0.1571 -0.3226
   94SAPE   O14 9260   3.945   3.122   7.006 -0.3418 -0.0598  0.4792
   94SAPE   O12 9261   3.688   3.090   7.031 -0.3453 -0.4217 -0.1402
   94SAPE   O11 9262   3.811   3.033   6.815  0.8564 -0.3596 -0.0463
   94SAPE    C1 9263   3.715   3.039   6.710 -0.5544 -0.2048 -0.0332
   94SAPE    HA 9264   3.676   2.936   6.700 -0.9969 -0.1189  0.7078
   94SAPE    HB 9265   3.634   3.114   6.726 -0.2063  0.1483  0.1118
   94SAPE    C2 9266   3.771   3.073   6.566 -0.8068  0.5723 -0.6068
   94SAPE    HS 9267   3.693   3.069   6.487  1.5671  2.4212 -3.2454
   94SAPE   O21 9268   3.871   2.972   6.527 -0.1627 -0.5261  0.5149
   94SAPE   C21 9269   3.831   2.849   6.504 -0.1862  0.2036  0.5280
   94SAPE   O22 9270   3.720   2.806   6.521 -0.0670  0.2427  0.4689
   94SAPE   C22 9271   3.950   2.767   6.457  0.3949 -0.1212  0.3194
   94SAPE   H2R 9272   4.009   2.726   6.542 -0.1339 -1.3587  0.1106
   94SAPE   H2S 9273   3.901   2.680   6.409  0.2164 -1.6246  3.0249
   94SAPE    C3 9274   3.826   3.219   6.548  0.0657  0.2445 -0.2486
   94SAPE    HX 9275   3.889   3.221   6.639 -0.4719 -0.4965  0.1539
   94SAPE    HY 9276   3.735   3.282   6.554 -0.7076 -0.1267 -4.5936
   94SAPE   O31 9277   3.892   3.241   6.423  0.0216  0.6772  0.7012
   94SAPE   C31 9278   4.022   3.270   6.431  0.9958 -0.3677  0.4696
   94SAPE   O32 9279   4.094   3.255   6.531 -0.1668  0.4244  0.3483
   94SAPE   C32 9280   4.073   3.304   6.293 -0.0475 -0.1104 -0.1385
   94SAPE   H2X 9281   4.015   3.281   6.201 -1.7426  3.7320 -0.2309
   94SAPE   H2Y 9282   4.170   3.252   6.282  0.7043  1.3996 -0.9018
   94SAPE   C23 9283   4.043   2.845   6.374  0.3119 -0.0809  0.5727
   94SAPE   H3R 9284   4.140   2.791   6.367 -0.6932 -2.0528  1.1395
   94SAPE   H3S 9285   4.071   2.946   6.412 -0.1965 -0.5962  2.3989
   94SAPE   C24 9286   3.991   2.862   6.226  0.4959 -0.6712 -0.3067
   94SAPE   H4R 9287   4.068   2.923   6.174  1.1031 -1.4573 -0.3387
   94SAPE   H4S 9288   3.902   2.927   6.239  2.2527  1.7605  0.2424
   94SAPE   C25 9289   3.949   2.734   6.151  0.6503 -0.5283  0.3356
   94SAPE   H5R 9290   3.856   2.685   6.182  1.3710 -0.3436  3.0268
   94SAPE   C26 9291   4.023   2.680   6.049 -0.5415  0.0190 -0.5057
   94SAPE   H6R 9292   3.980   2.595   5.995  0.7350 -0.7287 -0.3798
   94SAPE   C27 9293   4.144   2.746   5.984  0.1480  0.7585  0.3157
   94SAPE   H7R 9294   4.221   2.669   5.963  0.0194  0.5883  0.4573
   94SAPE   H7S 9295   4.192   2.804   6.066 -0.5446 -1.5930  2.5533
   94SAPE   C28 9296   4.112   2.828   5.866 -0.2292  0.4415  0.3149
   94SAPE   H8R 9297   4.025   2.892   5.885  0.3171  1.4498 -0.4579
   94SAPE   C29 9298   4.189   2.845   5.755 -0.2755  0.7751  0.7898
   94SAPE   H9R 9299   4.149   2.898   5.667  1.7725  0.9082 -0.0972
   94SAPE  C210 9300   4.325   2.780   5.738 -0.7506  0.0199 -0.4765
   94SAPE  H10R 9301   4.311   2.671   5.757 -1.8006  0.0832 -0.8701
   94SAPE  H10S 9302   4.401   2.807   5.815 -0.9579 -0.7697  0.0172
   94SAPE  C211 9303   4.396   2.814   5.609  0.6542  0.4697  0.0615
   94SAPE  H11R 9304   4.465   2.900   5.604  0.4460  0.6253 -0.1985
   94SAPE  C212 9305   4.401   2.733   5.500 -0.0500 -0.2828  0.0577
   94SAPE  H12R 9306   4.443   2.769   5.405 -0.4928  1.7056  0.5643
   94SAPE  C213 9307   4.330   2.600   5.483 -0.1642  0.6558 -0.1894
   94SAPE  H13R 9308   4.333   2.551   5.582  0.3188  0.7319 -0.1605
   94SAPE  H13S 9309   4.386   2.530   5.417 -0.3633  2.0249 -1.8825
   94SAPE  C214 9310   4.185   2.605   5.443 -0.0805  0.0387 -0.1750
   94SAPE  H14R 9311   4.154   2.685   5.373 -1.2837 -1.5339 -1.5265
   94SAPE  C215 9312   4.090   2.517   5.472  0.9539  0.4345  0.6871
   94SAPE  H15R 9313   3.988   2.524   5.433  1.7095  0.4379 -1.4355
   94SAPE  C216 9314   4.112   2.386   5.553 -0.1066 -0.0246 -0.0836
   94SAPE  H16R 9315   4.210   2.384   5.604  0.7745 -0.7854 -1.7497
   94SAPE  H16S 9316   4.104   2.296   5.489 -0.7051 -1.8476  2.3737
   94SAPE  C217 9317   4.012   2.382   5.670  0.8714 -0.0509 -0.8244
   94SAPE  H17R 9318   4.035   2.461   5.746 -2.5723 -0.8018  1.2202
   94SAPE  H17S 9319   4.026   2.291   5.732 -1.1779  0.6031  0.7010
   94SAPE  C218 9320   3.868   2.370   5.628  0.1516  0.0403 -0.4959
   94SAPE  H18R 9321   3.857   2.276   5.570 -0.4794  0.3256 -0.8527
   94SAPE  H18S 9322   3.820   2.444   5.560 -2.3678 -1.5399 -0.6095
   94SAPE  C219 9323   3.782   2.356   5.759 -0.4663 -0.3428 -0.4591
   94SAPE  H19R 9324   3.817   2.442   5.819 -1.0547  0.3715 -1.1041
   94SAPE  H19S 9325   3.801   2.267   5.822 -0.9936 -0.2006 -0.0898
   94SAPE  C220 9326   3.634   2.364   5.754 -0.1597 -0.1369 -0.1290
   94SAPE  H20R 9327   3.611   2.454   5.693  2.5504  1.7648  1.3922
   94SAPE  H20S 9328   3.574   2.366   5.848 -0.8747  0.1873 -0.5836
   94SAPE  H20T 9329   3.602   2.281   5.688  0.8039 -1.7160  1.3326
   94SAPE   C33 9330   4.108   3.450   6.279 -0.0913 -0.2371  0.0648
   94SAPE   H3X 9331   4.186   3.468   6.202  0.9071  2.7318  1.6344
   94SAPE   H3Y 9332   4.160   3.483   6.371  1.2137  2.2851 -1.4614
   94SAPE   C34 9333   3.996   3.547   6.239  0.2132  0.1579 -0.2697
   94SAPE   H4X 9334   3.931   3.560   6.328  0.1058 -0.5947 -0.2301
   94SAPE   H4Y 9335   3.937   3.503   6.156  0.1391  1.1742 -0.7788
   94SAPE   C35 9336   4.057   3.681   6.196 -0.0288 -0.2798  0.1278
   94SAPE   H5X 9337   4.158   3.690   6.243 -0.1928 -1.3952  0.7372
   94SAPE   H5Y 9338   4.008   3.761   6.255  2.3587 -0.4509  2.5817
   94SAPE   C36 9339   4.075   3.682   6.045  0.0875 -0.1198  0.0105
   94SAPE   H6X 9340   3.983   3.650   5.993  1.7491 -1.5869 -2.2141
   94SAPE   H6Y 9341   4.162   3.617   6.019 -0.1659 -0.8248  0.8757
   94SAPE   C37 9342   4.096   3.829   6.001  0.4419  0.3889  0.3883
   94SAPE   H7X 9343   4.203   3.844   6.027  1.2662 -1.0973 -1.7954
   94SAPE   H7Y 9344   4.037   3.893   6.069  0.8107  0.0080  1.0742
   94SAPE   C38 9345   4.057   3.855   5.847 -0.5544  0.4019 -0.0833
   94SAPE   H8X 9346   3.946   3.851   5.839 -0.4509 -2.6368 -1.6268
   94SAPE   H8Y 9347   4.098   3.766   5.793  0.6904  0.2382  1.0824
   94SAPE   C39 9348   4.124   3.972   5.793  0.3391 -0.4779 -1.3481
   94SAPE   H9X 9349   4.233   3.957   5.804  0.4584  1.4511  0.6818
   94SAPE   H9Y 9350   4.088   4.052   5.861 -0.4089 -1.6146 -0.3719
   94SAPE  C310 9351   4.091   3.985   5.646 -0.2829  0.8259  0.3427
   94SAPE  H10X 9352   3.980   3.986   5.638 -0.2551 -1.4437 -1.6061
   94SAPE  H10Y 9353   4.139   3.896   5.600 -1.3819  0.9123 -1.0609
   94SAPE  C311 9354   4.154   4.110   5.587  0.0165  0.2028 -0.2817
   94SAPE  H11X 9355   4.261   4.115   5.613  0.3152  2.3324 -1.6922
   94SAPE  H11Y 9356   4.121   4.204   5.636  0.8176  0.6490 -0.5770
   94SAPE  C312 9357   4.143   4.124   5.442  0.8984 -0.0453 -0.3765
   94SAPE  H12X 9358   4.204   4.048   5.390  0.8430 -0.7053  0.5083
   94SAPE  H12Y 9359   4.183   4.223   5.409 -1.0068  1.7793  2.3233
   94SAPE  C313 9360   3.992   4.136   5.387 -0.4832 -0.0822  0.3104
   94SAPE  H13X 9361   3.936   4.193   5.464  0.6266 -0.6194  1.5735
   94SAPE  H13Y 9362   3.961   4.032   5.367 -1.7586  0.5528 -1.2055
   94SAPE  C314 9363   3.985   4.210   5.257 -0.1023  0.2649 -0.0462
   94SAPE  H14X 9364   4.036   4.147   5.181 -1.7138  0.3313 -1.2357
   94SAPE  H14Y 9365   4.046   4.303   5.253  0.6623 -0.1703  1.1865
   94SAPE  C315 9366   3.845   4.251   5.209  0.3232  0.1575 -0.1558
   94SAPE  H15X 9367   3.798   4.331   5.271  0.2604 -0.6720  0.8923
   94SAPE  H15Y 9368   3.782   4.160   5.218  2.5403 -1.5455 -0.8763
   94SAPE  C316 9369   3.847   4.290   5.058 -0.8866 -0.2384 -0.7213
   94SAPE  H16X 9370   3.883   4.206   4.996  1.9898  0.4101 -0.0527
   94SAPE  H16Y 9371   3.916   4.377   5.053 -0.2382 -0.5664  1.5688
   94SAPE  C317 9372   3.709   4.328   5.007  0.0019  0.2933  0.1765
   94SAPE  H17X 9373   3.634   4.250   5.029 -1.7802  1.9086  0.1278
   94SAPE  H17Y 9374   3.725   4.343   4.898  2.3371 -0.6849  0.3272
   94SAPE  C318 9375   3.656   4.461   5.072 -0.6183  0.0169  0.2662
   94SAPE  H18X 9376   3.628   4.424   5.173  0.4588  1.7630  1.2597
   94SAPE  H18Y 9377   3.567   4.504   5.022 -1.3848 -1.3566  0.4094
   94SAPE  H18Z 9378   3.742   4.531   5.087 -1.1256  0.6231  0.3691
   95SAPE     N 9379   0.446   2.468   6.134  0.4059  0.4441  0.1121
   95SAPE   HN1 9380   0.343   2.475   6.145  0.6164  0.6701  2.4669
   95SAPE   HN2 9381   0.475   2.392   6.068  0.6157  2.2576 -1.9879
   95SAPE   HN3 9382   0.476   2.443   6.230  1.2398 -2.9795 -0.8743
   95SAPE   C12 9383   0.499   2.596   6.083 -0.0360 -0.0657 -0.4812
   95SAPE  H12A 9384   0.447   2.685   6.125  3.1393  1.0275  1.4903
   95SAPE  H12B 9385   0.486   2.607   5.973 -0.3000  0.9591 -0.3542
   95SAPE   C11 9386   0.648   2.611   6.118 -0.4208  0.0712 -0.4183
   95SAPE  H11A 9387   0.686   2.710   6.085  0.2724  0.0432  0.2649
   95SAPE  H11B 9388   0.703   2.537   6.056 -0.1396  2.2008 -2.9141
   95SAPE     P 9389   0.697   2.699   6.358 -0.1669 -0.1740  0.0297
   95SAPE   O13 9390   0.592   2.800   6.333 -0.1181 -0.1094  0.1947
   95SAPE   O14 9391   0.712   2.654   6.499 -0.1018  0.4515  0.1312
   95SAPE   O12 9392   0.676   2.578   6.255 -0.0991 -0.1397  0.8613
   95SAPE   O11 9393   0.834   2.774   6.307  0.2444  0.6277 -0.2985
   95SAPE    C1 9394   0.947   2.689   6.273 -0.3418  0.0364 -0.1529
   95SAPE    HA 9395   0.958   2.594   6.331 -1.2935 -0.7137 -1.1596
   95SAPE    HB 9396   0.925   2.662   6.168  0.4618  0.7051 -0.5033
   95SAPE    C2 9397   1.089   2.760   6.279 -0.2651  1.0286  0.0319
   95SAPE    HS 9398   1.113   2.789   6.384  0.0377  0.8239  0.0186
   95SAPE   O21 9399   1.088   2.868   6.186  0.2876  0.3561 -0.1789
   95SAPE   C21 9400   1.189   2.950   6.192 -0.0570  0.1142 -0.6924
   95SAPE   O22 9401   1.270   2.964   6.283  0.2077 -0.4154  0.1912
   95SAPE   C22 9402   1.189   3.034   6.065 -0.5039  0.0153  0.1116
   95SAPE   H2R 9403   1.203   2.961   5.983 -0.0127  0.9320 -0.6332
   95SAPE   H2S 9404   1.094   3.088   6.048 -0.8768 -0.9391 -0.8950
   95SAPE    C3 9405   1.206   2.658   6.250  0.0565 -0.1697  0.3608
   95SAPE    HX 9406   1.208   2.589   6.337  0.6050 -0.6076  0.0058
   95SAPE    HY 9407   1.303   2.711   6.251  0.9568 -1.7076 -0.8142
   95SAPE   O31 9408   1.189   2.591   6.128 -0.2263 -0.2725  0.9389
   95SAPE   C31 9409   1.261   2.629   6.025  1.4459  0.3633  0.3730
   95SAPE   O32 9410   1.339   2.720   6.015  0.5782 -0.1367  0.0703
   95SAPE   C32 9411   1.220   2.533   5.915  0.1249 -0.6309  0.3751
   95SAPE   H2X 9412   1.110   2.524   5.904  0.3081 -0.5464 -1.7974
   95SAPE   H2Y 9413   1.260   2.430   5.927 -2.4853 -1.9491 -1.4237
   95SAPE   C23 9414   1.318   3.117   6.036  0.4837 -0.3399  0.1501
   95SAPE   H3R 9415   1.409   3.059   6.062  0.4738 -0.4193  0.0078
   95SAPE   H3S 9416   1.324   3.200   6.109  0.0800  0.5109 -0.7544
   95SAPE   C24 9417   1.342   3.160   5.889  0.0667  0.0019  0.0890
   95SAPE   H4R 9418   1.339   3.066   5.829 -1.4272  0.2264 -0.2247
   95SAPE   H4S 9419   1.443   3.206   5.882 -0.2440  0.8043  0.8199
   95SAPE   C25 9420   1.233   3.253   5.856 -0.3270 -0.6433  0.0063
   95SAPE   H5R 9421   1.213   3.333   5.928  0.4249 -0.7130  0.3059
   95SAPE   C26 9422   1.158   3.252   5.742 -0.0522 -0.1264 -0.6898
   95SAPE   H6R 9423   1.092   3.340   5.731 -0.5974 -0.0568  2.1530
   95SAPE   C27 9424   1.166   3.162   5.619  0.1019 -0.3721  0.2269
   95SAPE   H7R 9425   1.064   3.129   5.591  1.1263 -3.4431 -0.2229
   95SAPE   H7S 9426   1.215   3.065   5.642 -1.7500 -1.5215 -0.5073
   95SAPE   C28 9427   1.236   3.237   5.510 -0.3026 -0.5283  0.0444
   95SAPE   H8R 9428   1.337   3.274   5.535 -1.8149  3.1345  1.4386
   95SAPE   C29 9429   1.189   3.254   5.387  0.5955 -1.1591  0.0613
   95SAPE   H9R 9430   1.249   3.319   5.321  1.3163 -2.2198 -0.3615
   95SAPE  C210 9431   1.049   3.215   5.331  0.1309 -0.3558  0.2362
   95SAPE  H10R 9432   1.014   3.297   5.265  2.6340 -0.2991 -1.1640
   95SAPE  H10S 9433   0.974   3.196   5.410 -0.8980  1.4047 -0.2437
   95SAPE  C211 9434   1.059   3.098   5.233 -0.3419  0.7646  0.2679
   95SAPE  H11R 9435   1.032   3.004   5.285  0.5831  1.3261  1.8301
   95SAPE  C212 9436   1.112   3.108   5.108 -0.2760  0.0544 -0.3522
   95SAPE  H12R 9437   1.119   3.019   5.043 -1.7677 -0.7157  0.4828
   95SAPE  C213 9438   1.164   3.237   5.053  0.3200 -0.5752  0.5945
   95SAPE  H13R 9439   1.154   3.330   5.112  2.1521  0.0705 -0.0317
   95SAPE  H13S 9440   1.113   3.260   4.958  1.2663  0.6676  0.3653
   95SAPE  C214 9441   1.317   3.228   5.032 -0.2271 -0.4371 -0.6258
   95SAPE  H14R 9442   1.381   3.225   5.121 -1.0773 -1.2703 -0.0218
   95SAPE  C215 9443   1.388   3.251   4.923 -0.1599  0.4837 -0.4950
   95SAPE  H15R 9444   1.497   3.235   4.926 -0.1968  0.3693  0.3237
   95SAPE  C216 9445   1.322   3.271   4.787 -0.2375 -0.2451  0.1048
   95SAPE  H16R 9446   1.304   3.380   4.768  0.3055  0.2851  2.3646
   95SAPE  H16S 9447   1.226   3.215   4.781  0.3668 -1.4082  0.9847
   95SAPE  C217 9448   1.414   3.223   4.665  0.7435  0.2585  0.1117
   95SAPE  H17R 9449   1.443   3.117   4.679 -2.4360 -0.8015 -0.4576
   95SAPE  H17S 9450   1.506   3.285   4.656  1.3066 -0.6821 -0.7887
   95SAPE  C218 9451   1.339   3.237   4.528  0.3189  0.3028 -0.8107
   95SAPE  H18R 9452   1.311   3.341   4.502  1.9836  1.1961  0.7843
   95SAPE  H18S 9453   1.244   3.182   4.545 -0.4964  2.0881  0.7457
   95SAPE  C219 9454   1.414   3.175   4.411 -0.1446 -0.4612  0.5418
   95SAPE  H19R 9455   1.437   3.069   4.435  1.3889 -0.2623  0.0277
   95SAPE  H19S 9456   1.509   3.232   4.404 -0.8264  1.1383  3.1062
   95SAPE  C220 9457   1.337   3.176   4.281 -0.2248 -0.1428 -0.3857
   95SAPE  H20R 9458   1.237   3.133   4.302  0.5647 -1.9762 -0.1571
   95SAPE  H20S 9459   1.382   3.107   4.205 -0.0902  0.8497 -1.2262
   95SAPE  H20T 9460   1.320   3.276   4.235 -0.5893  0.2090  0.4931
   95SAPE   C33 9461   1.266   2.576   5.776 -0.1375  0.3144  0.1885
   95SAPE   H3X 9462   1.259   2.489   5.707  0.4991  1.7243 -1.7372
   95SAPE   H3Y 9463   1.376   2.583   5.769 -0.2013 -0.1523 -1.9601
   95SAPE   C34 9464   1.192   2.707   5.725 -0.3462  0.3264  0.4924
   95SAPE   H4X 9465   1.222   2.799   5.780 -0.8630  0.0932  1.1721
   95SAPE   H4Y 9466   1.089   2.689   5.762  0.5749 -1.4104  2.4007
   95SAPE   C35 9467   1.219   2.737   5.577 -0.5464  0.2099 -0.5825
   95SAPE   H5X 9468   1.322   2.703   5.552 -0.5629 -0.0701 -0.2877
   95SAPE   H5Y 9469   1.187   2.842   5.565  0.3723  0.3519 -2.1135
   95SAPE   C36 9470   1.130   2.670   5.472  1.0194 -0.3920  0.2287
   95SAPE   H6X 9471   1.026   2.653   5.505  0.6832 -1.5566 -1.2761
   95SAPE   H6Y 9472   1.173   2.568   5.464  2.5160  0.0926  1.6567
   95SAPE   C37 9473   1.141   2.722   5.328  0.2503  0.0455 -0.2904
   95SAPE   H7X 9474   1.236   2.778   5.317  1.3084 -1.3996  1.0634
   95SAPE   H7Y 9475   1.068   2.804   5.313  2.2836  2.1845  0.8530
   95SAPE   C38 9476   1.126   2.613   5.228 -0.0605 -0.1683 -1.0902
   95SAPE   H8X 9477   1.023   2.570   5.223  0.1604 -0.9286  0.3932
   95SAPE   H8Y 9478   1.200   2.539   5.264  1.8038  2.9303  2.1261
   95SAPE   C39 9479   1.170   2.671   5.091 -0.3215 -0.1476 -0.5166
   95SAPE   H9X 9480   1.198   2.586   5.025  0.5260  1.6635 -2.6054
   95SAPE   H9Y 9481   1.264   2.730   5.099  1.7934 -3.1768 -1.2249
   95SAPE  C310 9482   1.061   2.750   5.028 -0.4723  0.3966  1.0358
   95SAPE  H10X 9483   1.037   2.835   5.095 -1.5717  1.4335 -0.6106
   95SAPE  H10Y 9484   0.966   2.694   5.015 -0.8311  0.9760  1.1523
   95SAPE  C311 9485   1.112   2.805   4.890 -0.0175  0.5639  0.4668
   95SAPE  H11X 9486   1.141   2.717   4.829 -0.5720  0.5304  0.2474
   95SAPE  H11Y 9487   1.201   2.868   4.909 -1.9365  2.9993  2.0386
   95SAPE  C312 9488   1.000   2.883   4.817 -0.3213 -1.0666  0.5479
   95SAPE  H12X 9489   0.979   2.972   4.880 -0.4425 -0.7784  0.1095
   95SAPE  H12Y 9490   0.909   2.820   4.809 -1.4712  0.7214 -1.5610
   95SAPE  C313 9491   1.035   2.918   4.672 -0.3951  0.6162  0.4484
   95SAPE  H13X 9492   1.142   2.946   4.671  0.3687 -2.0025  0.8952
   95SAPE  H13Y 9493   0.967   3.000   4.640  0.8501  0.9697 -1.4505
   95SAPE  C314 9494   1.013   2.798   4.582  0.1598  0.0460 -0.1626
   95SAPE  H14X 9495   0.915   2.752   4.609 -1.0571  0.3211 -3.6416
   95SAPE  H14Y 9496   1.086   2.717   4.606  0.5222  0.8447  1.6159
   95SAPE  C315 9497   1.034   2.828   4.431 -0.0764  0.0693  0.1817
   95SAPE  H15X 9498   1.145   2.833   4.426 -0.1683  2.0826 -1.4426
   95SAPE  H15Y 9499   0.994   2.926   4.398 -1.0165 -0.0459  0.9744
   95SAPE  C316 9500   0.992   2.712   4.337  0.4098 -0.1534  0.4736
   95SAPE  H16X 9501   1.042   2.615   4.360 -0.2628 -0.6421 -0.0816
   95SAPE  H16Y 9502   1.034   2.743   4.240 -2.8584 -0.9939 -1.3602
   95SAPE  C317 9503   0.841   2.702   4.326 -0.0738  0.6028  0.5075
   95SAPE  H17X 9504   0.794   2.799   4.299 -2.0471 -0.8714 -1.7122
   95SAPE  H17Y 9505   0.788   2.686   4.423  1.8855 -1.5326  1.3141
   95SAPE  C318 9506   0.798   2.592   4.224 -0.5168 -0.0574 -0.0833
   95SAPE  H18X 9507   0.846   2.496   4.254  0.4016  0.0291 -1.1967
   95SAPE  H18Y 9508   0.826   2.632   4.125  0.3864  1.0305  0.5836
   95SAPE  H18Z 9509   0.687   2.592   4.234 -0.5495 -0.2711 -0.4459
   96SAPE     N 9510   5.322   4.975   6.125 -0.0186  0.7990 -0.4596
   96SAPE   HN1 9511   5.259   5.039   6.072  1.3811  1.3707 -1.4855
   96SAPE   HN2 9512   5.265   4.902   6.173  2.3608 -0.2477  0.9481
   96SAPE   HN3 9513   5.373   5.027   6.198 -1.4872 -0.4497  1.5674
   96SAPE   C12 9514   5.427   4.917   6.034 -0.1694 -0.0008 -0.0244
   96SAPE  H12A 9515   5.496   4.999   6.007  0.7176 -1.1101 -1.2660
   96SAPE  H12B 9516   5.367   4.882   5.947  0.3870  2.8183 -1.6560
   96SAPE   C11 9517   5.511   4.805   6.117 -0.2867 -0.1884  0.1736
   96SAPE  H11A 9518   5.587   4.864   6.172 -1.0005  0.5052  0.4253
   96SAPE  H11B 9519   5.569   4.742   6.046 -0.3957 -2.1219  1.7248
   96SAPE     P 9520   5.359   4.598   6.167  0.0881 -0.6450  0.2742
   96SAPE   O13 9521   5.455   4.517   6.084  0.2893  0.0084  0.0152
   96SAPE   O14 9522   5.305   4.526   6.286 -0.4092  0.2845 -0.1669
   96SAPE   O12 9523   5.429   4.733   6.212 -0.2951  0.7136 -0.2901
   96SAPE   O11 9524   5.248   4.665   6.072 -0.4650 -0.3638  0.2983
   96SAPE    C1 9525   5.114   4.619   6.053  0.2350  0.0989  0.1681
   96SAPE    HA 9526   5.088   4.543   6.130 -0.2529 -1.4779 -1.4742
   96SAPE    HB 9527   5.041   4.703   6.047 -2.1144 -1.8954 -0.8910
   96SAPE    C2 9528   5.099   4.540   5.916  0.3831  0.2427  0.4696
   96SAPE    HS 9529   4.997   4.497   5.915  0.3334  0.3693 -0.1968
   96SAPE   O21 9530   5.196   4.438   5.914 -0.7379  0.3972 -0.3818
   96SAPE   C21 9531   5.169   4.322   5.976  0.4443 -0.5473  0.4953
   96SAPE   O22 9532   5.074   4.302   6.048  0.1567  0.2599 -0.3563
   96SAPE   C22 9533   5.288   4.229   5.946 -0.0535 -0.2613  0.2005
   96SAPE   H2R 9534   5.379   4.291   5.931 -0.3607 -0.4080 -2.9242
   96SAPE   H2S 9535   5.293   4.159   6.032 -0.8526 -2.8463 -1.7209
   96SAPE    C3 9536   5.095   4.632   5.791 -0.0205  0.4399  0.4287
   96SAPE    HX 9537   5.190   4.689   5.793  0.3035 -0.0277 -0.6333
   96SAPE    HY 9538   5.019   4.709   5.815  0.6294  0.9358  0.9153
   96SAPE   O31 9539   5.050   4.573   5.667  0.3049 -0.2311 -0.0636
   96SAPE   C31 9540   5.145   4.523   5.600  0.1210 -0.7111 -0.1850
   96SAPE   O32 9541   5.263   4.524   5.621 -0.7383 -0.2158 -0.3491
   96SAPE   C32 9542   5.077   4.445   5.483 -0.7725 -0.2030  0.2241
   96SAPE   H2X 9543   4.982   4.493   5.452 -1.0764 -0.2911  1.0123
   96SAPE   H2Y 9544   5.057   4.346   5.527  1.9245 -0.0137  2.1341
   96SAPE   C23 9545   5.267   4.161   5.814 -0.3651  0.1083 -0.1305
   96SAPE   H3R 9546   5.267   4.241   5.737  1.4472 -0.1906 -0.4699
   96SAPE   H3S 9547   5.163   4.123   5.810 -1.0281  1.8577 -0.7026
   96SAPE   C24 9548   5.377   4.062   5.783 -0.1135 -0.2378  0.4752
   96SAPE   H4R 9549   5.349   4.019   5.685  1.9802  2.7537 -1.6081
   96SAPE   H4S 9550   5.383   3.975   5.852 -2.4468 -0.9995 -0.1790
   96SAPE   C25 9551   5.515   4.124   5.777  0.2807 -0.4208 -0.0273
   96SAPE   H5R 9552   5.562   4.146   5.874 -1.7665  0.1896  0.8828
   96SAPE   C26 9553   5.594   4.151   5.665 -0.7614 -0.2183  0.4122
   96SAPE   H6R 9554   5.698   4.184   5.682 -1.0900  0.3500  1.4027
   96SAPE   C27 9555   5.546   4.121   5.528  0.7453 -0.2042  0.7972
   96SAPE   H7R 9556   5.456   4.057   5.513  1.5037 -1.5030  1.6392
   96SAPE   H7S 9557   5.626   4.062   5.478 -0.3114 -3.6985  2.8563
   96SAPE   C28 9558   5.522   4.250   5.450 -0.8524  0.3037 -0.1902
   96SAPE   H8R 9559   5.510   4.346   5.502 -0.1163  1.8315 -2.6701
   96SAPE   C29 9560   5.535   4.265   5.319 -0.3964  0.1326  0.2830
   96SAPE   H9R 9561   5.524   4.369   5.284  1.0106 -0.0527 -0.8135
   96SAPE  C210 9562   5.576   4.162   5.220  0.4563 -0.3919 -0.4376
   96SAPE  H10R 9563   5.577   4.063   5.272 -0.2034  0.7939  1.9980
   96SAPE  H10S 9564   5.684   4.165   5.194  0.6701 -0.3407  0.4210
   96SAPE  C211 9565   5.506   4.152   5.090  0.0138  0.1498  0.8241
   96SAPE  H11R 9566   5.398   4.175   5.090  0.2179  1.1253  0.3935
   96SAPE  C212 9567   5.555   4.134   4.965 -0.7701 -0.5270 -0.1660
   96SAPE  H12R 9568   5.500   4.111   4.873  2.1580 -1.5058 -1.8043
   96SAPE  C213 9569   5.701   4.107   4.923  0.2186 -0.0986  0.3093
   96SAPE  H13R 9570   5.707   4.015   4.861 -2.0936 -2.0874  2.7567
   96SAPE  H13S 9571   5.768   4.078   5.007  0.8252  0.2408 -0.0560
   96SAPE  C214 9572   5.760   4.237   4.867 -0.3756 -0.0273 -0.8177
   96SAPE  H14R 9573   5.758   4.314   4.946 -0.1347 -0.2722 -0.5708
   96SAPE  C215 9574   5.812   4.260   4.746  0.1976 -0.3247 -0.2427
   96SAPE  H15R 9575   5.851   4.360   4.721 -0.3763  0.5533  2.1065
   96SAPE  C216 9576   5.826   4.152   4.639 -0.1858  0.3579 -0.2424
   96SAPE  H16R 9577   5.725   4.136   4.596  0.2461 -0.3056 -1.0393
   96SAPE  H16S 9578   5.871   4.071   4.700 -0.2919  0.3617 -0.1584
   96SAPE  C217 9579   5.927   4.198   4.528  0.2076  0.2800 -0.0830
   96SAPE  H17R 9580   6.019   4.237   4.577  1.8241 -0.5923 -2.2354
   96SAPE  H17S 9581   5.879   4.286   4.480  0.2471  1.5524  2.0416
   96SAPE  C218 9582   5.967   4.102   4.419  0.0053 -0.0925  0.4395
   96SAPE  H18R 9583   6.039   4.150   4.350  0.8756 -1.0062  0.6976
   96SAPE  H18S 9584   5.880   4.074   4.356 -0.9306  2.2978  0.5593
   96SAPE  C219 9585   6.031   3.979   4.480 -0.2459  0.4827  0.5276
   96SAPE  H19R 9586   5.961   3.915   4.539 -0.3978  0.2869  0.1451
   96SAPE  H19S 9587   6.127   4.002   4.531 -0.0766 -0.5185  0.6947
   96SAPE  C220 9588   6.082   3.884   4.363 -0.0772  0.2683 -0.3801
   96SAPE  H20R 9589   6.176   3.924   4.318 -0.8877  1.2976 -1.2172
   96SAPE  H20S 9590   6.000   3.862   4.292 -1.7971 -2.1248  2.1381
   96SAPE  H20T 9591   6.117   3.789   4.408 -0.0529  1.1636  1.6313
   96SAPE   C33 9592   5.175   4.430   5.358  0.3687 -0.7335  0.0744
   96SAPE   H3X 9593   5.139   4.357   5.282  0.6348 -1.8269  0.9619
   96SAPE   H3Y 9594   5.269   4.385   5.398  1.9378  2.4741  0.3132
   96SAPE   C34 9595   5.208   4.569   5.295 -0.6098 -0.6329  0.0030
   96SAPE   H4X 9596   5.265   4.624   5.374 -0.4701  2.1224 -1.8610
   96SAPE   H4Y 9597   5.105   4.609   5.283 -0.8504 -1.0564  0.6495
   96SAPE   C35 9598   5.293   4.574   5.172 -0.2383  0.3737  0.6810
   96SAPE   H5X 9599   5.384   4.530   5.217  0.7486  3.7821  2.3347
   96SAPE   H5Y 9600   5.307   4.679   5.139 -0.1412  0.0521 -0.3377
   96SAPE   C36 9601   5.244   4.484   5.064 -0.4599 -0.2119 -0.1814
   96SAPE   H6X 9602   5.147   4.508   5.016 -0.8950 -0.6500  0.4524
   96SAPE   H6Y 9603   5.227   4.383   5.107 -1.7069 -0.2637 -0.7688
   96SAPE   C37 9604   5.356   4.469   4.953  0.0918 -0.4687 -0.1093
   96SAPE   H7X 9605   5.452   4.435   4.998  0.5637  2.6557  1.4972
   96SAPE   H7Y 9606   5.372   4.576   4.925 -0.9322 -0.1809  0.3561
   96SAPE   C38 9607   5.296   4.388   4.840  0.4142 -0.5442  0.1423
   96SAPE   H8X 9608   5.202   4.438   4.811  1.2987  1.2048  0.1890
   96SAPE   H8Y 9609   5.273   4.283   4.870  2.3746 -1.3944 -1.1454
   96SAPE   C39 9610   5.393   4.398   4.720  0.2245  0.3436 -0.1763
   96SAPE   H9X 9611   5.484   4.341   4.747  1.9110  2.8058 -0.3289
   96SAPE   H9Y 9612   5.422   4.505   4.713 -1.2868  0.9055  1.4626
   96SAPE  C310 9613   5.325   4.341   4.596  0.3849 -0.1317  0.5940
   96SAPE  H10X 9614   5.240   4.409   4.572 -0.5271 -0.2294  3.2256
   96SAPE  H10Y 9615   5.282   4.240   4.613 -0.5585  0.2040  0.2648
   96SAPE  C311 9616   5.427   4.315   4.488 -0.1142  0.2810 -0.3630
   96SAPE  H11X 9617   5.395   4.236   4.417 -0.4437  1.4065 -1.5120
   96SAPE  H11Y 9618   5.519   4.279   4.538  0.4728  1.9318 -0.2051
   96SAPE  C312 9619   5.459   4.437   4.398 -0.6290 -0.2108 -0.3814
   96SAPE  H12X 9620   5.481   4.526   4.462  0.6572 -1.1158  0.4653
   96SAPE  H12Y 9621   5.365   4.454   4.340 -1.5178  0.3366  1.1457
   96SAPE  C313 9622   5.580   4.420   4.306 -0.8978  0.1431  0.1658
   96SAPE  H13X 9623   5.570   4.345   4.225  2.8260 -1.1188  0.6733
   96SAPE  H13Y 9624   5.666   4.388   4.369 -0.3545  0.7162 -0.2716
   96SAPE  C314 9625   5.628   4.544   4.230  0.2699 -0.5283 -0.2692
   96SAPE  H14X 9626   5.687   4.603   4.304  2.0518 -1.9211 -0.5252
   96SAPE  H14Y 9627   5.542   4.605   4.196  0.1656 -1.8252 -2.5214
   96SAPE  C315 9628   5.716   4.507   4.108 -0.4056 -0.5682 -0.1490
   96SAPE  H15X 9629   5.649   4.460   4.033 -1.1959  0.3223 -0.0261
   96SAPE  H15Y 9630   5.796   4.444   4.153 -1.4599 -1.5341  0.4070
   96SAPE  C316 9631   5.781   4.621   4.040  0.8915 -0.7218  0.1421
   96SAPE  H16X 9632   5.842   4.675   4.115 -0.1431 -1.1854  1.3644
   96SAPE  H16Y 9633   5.703   4.687   3.998  0.9975 -1.9506 -2.1057
   96SAPE  C317 9634   5.872   4.571   3.927 -0.2532  0.0294 -0.7837
   96SAPE  H17X 9635   5.813   4.531   3.842 -1.4842 -0.3530  0.2277
   96SAPE  H17Y 9636   5.927   4.478   3.955  0.1615  0.2531 -0.8433
   96SAPE  C318 9637   5.975   4.673   3.879 -0.8670 -0.2385 -0.5712
   96SAPE  H18X 9638   5.931   4.757   3.820 -2.4542  0.0983  0.9739
   96SAPE  H18Y 9639   6.050   4.632   3.809 -0.1134 -0.5721  0.4033
   96SAPE  H18Z 9640   6.035   4.711   3.965 -1.8777 -0.2549  0.1603
   97SAPE     N 9641   1.915   0.541   6.388  0.1805 -0.0631  0.1503
   97SAPE   HN1 9642   1.872   0.523   6.481  1.4449 -2.3748  0.3507
   97SAPE   HN2 9643   1.906   0.452   6.335  2.6010  0.2319 -0.8954
   97SAPE   HN3 9644   2.012   0.575   6.405  0.3916 -1.4926  2.1817
   97SAPE   C12 9645   1.844   0.649   6.322 -1.1238  0.2397  0.4052
   97SAPE  H12A 9646   1.891   0.655   6.221 -3.1369  0.3571 -0.5615
   97SAPE  H12B 9647   1.860   0.750   6.367  0.0358  0.9527 -1.4566
   97SAPE   C11 9648   1.696   0.616   6.307  0.0612  0.3440 -0.2580
   97SAPE  H11A 9649   1.701   0.525   6.244 -2.4173 -0.0953  0.0659
   97SAPE  H11B 9650   1.634   0.693   6.256 -1.8589  0.4474  2.0102
   97SAPE     P 9651   1.516   0.501   6.441  0.7174  0.0126 -0.0786
   97SAPE   O13 9652   1.539   0.367   6.383  0.6435  0.7287  0.1367
   97SAPE   O14 9653   1.470   0.506   6.577  0.1507 -0.3347  0.1694
   97SAPE   O12 9654   1.653   0.585   6.436  0.2451  0.0956  0.3444
   97SAPE   O11 9655   1.425   0.601   6.354 -0.0398  0.1029 -0.2905
   97SAPE    C1 9656   1.287   0.561   6.334 -0.0880 -0.3860 -0.1148
   97SAPE    HA 9657   1.259   0.466   6.384 -0.8126  0.7921  1.8056
   97SAPE    HB 9658   1.216   0.640   6.367 -1.3876 -1.4908 -0.1900
   97SAPE    C2 9659   1.262   0.544   6.178 -0.3048 -0.0250 -0.1956
   97SAPE    HS 9660   1.162   0.498   6.166 -0.6305  0.8991 -1.1813
   97SAPE   O21 9661   1.360   0.456   6.123 -0.4951 -0.4454  0.4331
   97SAPE   C21 9662   1.372   0.328   6.144 -0.4754 -0.3241  0.2720
   97SAPE   O22 9663   1.306   0.262   6.217 -0.0484 -0.8739 -0.4619
   97SAPE   C22 9664   1.491   0.272   6.064  0.2631  0.1024 -0.1299
   97SAPE   H2R 9665   1.558   0.358   6.044 -1.9954  2.1024  0.4114
   97SAPE   H2S 9666   1.530   0.187   6.124  1.6243  2.2434  2.2242
   97SAPE    C3 9667   1.264   0.683   6.104  0.0980 -0.0829 -0.1920
   97SAPE    HX 9668   1.365   0.728   6.110 -1.1336  2.6983  1.4013
   97SAPE    HY 9669   1.189   0.755   6.142  1.0776  1.1670 -0.5654
   97SAPE   O31 9670   1.253   0.670   5.963  0.5282 -0.0035 -0.5175
   97SAPE   C31 9671   1.129   0.676   5.918 -0.6006  0.5538 -0.1014
   97SAPE   O32 9672   1.029   0.677   5.988  0.1704 -0.3758 -0.1538
   97SAPE   C32 9673   1.133   0.680   5.773  0.7766 -0.2000 -0.0060
   97SAPE   H2X 9674   1.228   0.629   5.744  2.0862  0.0433  3.4075
   97SAPE   H2Y 9675   1.122   0.788   5.750 -1.7232 -0.5487 -0.6716
   97SAPE   C23 9676   1.442   0.209   5.930 -0.3429  0.0454  0.0190
   97SAPE   H3R 9677   1.388   0.289   5.876 -0.2165 -0.0785 -0.2889
   97SAPE   H3S 9678   1.368   0.133   5.963  0.0639 -0.2915  0.1644
   97SAPE   C24 9679   1.555   0.171   5.832  0.1639 -0.8328  0.1875
   97SAPE   H4R 9680   1.634   0.250   5.829 -0.8195  0.2254  1.0320
   97SAPE   H4S 9681   1.514   0.163   5.729  0.6202  0.0645 -0.0771
   97SAPE   C25 9682   1.605   0.043   5.888 -0.2672  0.2005 -0.4284
   97SAPE   H5R 9683   1.682   0.067   5.964  0.6822  1.2116 -1.6596
   97SAPE   C26 9684   1.582  -0.082   5.840  0.1006  0.8559 -0.4938
   97SAPE   H6R 9685   1.630  -0.167   5.890 -0.0129  0.2370 -1.4323
   97SAPE   C27 9686   1.505  -0.117   5.716  0.0179  0.6257  0.1328
   97SAPE   H7R 9687   1.523  -0.223   5.689  0.8219  0.5673  0.8449
   97SAPE   H7S 9688   1.542  -0.055   5.632  0.9600 -2.1826 -1.6443
   97SAPE   C28 9689   1.350  -0.110   5.721 -0.6310 -0.6841  0.1729
   97SAPE   H8R 9690   1.311  -0.060   5.810 -1.5925  1.0282 -1.1430
   97SAPE   C29 9691   1.268  -0.159   5.626 -0.7365 -0.5045 -0.1424
   97SAPE   H9R 9692   1.160  -0.148   5.647 -0.5036 -0.7878  1.2854
   97SAPE  C210 9693   1.314  -0.214   5.489 -0.9168 -0.3763 -0.5628
   97SAPE  H10R 9694   1.371  -0.309   5.498  0.1917  0.2574 -0.7607
   97SAPE  H10S 9695   1.383  -0.137   5.449 -1.8272  0.3880 -0.7118
   97SAPE  C211 9696   1.203  -0.240   5.387  0.4842  0.0365  0.0443
   97SAPE  H11R 9697   1.107  -0.197   5.418  2.0013  2.2096  2.0866
   97SAPE  C212 9698   1.220  -0.298   5.270  0.2519  0.7091  0.2150
   97SAPE  H12R 9699   1.128  -0.315   5.213 -1.1065  0.5984  2.3433
   97SAPE  C213 9700   1.349  -0.337   5.211 -0.5936  0.2862  0.7726
   97SAPE  H13R 9701   1.436  -0.309   5.272 -0.2395 -0.1235  0.4626
   97SAPE  H13S 9702   1.357  -0.278   5.117 -1.8457  0.5346  0.7930
   97SAPE  C214 9703   1.351  -0.489   5.192  0.2739  0.1515 -0.3683
   97SAPE  H14R 9704   1.305  -0.553   5.269  0.2688 -1.0129 -1.3039
   97SAPE  C215 9705   1.411  -0.552   5.089  0.1438 -0.1471  0.8417
   97SAPE  H15R 9706   1.401  -0.661   5.098 -5.4895 -0.0571 -0.5535
   97SAPE  C216 9707   1.464  -0.493   4.959  0.3388  0.0192  0.2849
   97SAPE  H16R 9708   1.568  -0.531   4.951 -0.7524 -3.5180  1.1950
   97SAPE  H16S 9709   1.468  -0.382   4.964 -2.7511  0.3733 -1.8144
   97SAPE  C217 9710   1.376  -0.532   4.835  0.2326 -0.7769  0.0066
   97SAPE  H17R 9711   1.274  -0.495   4.856 -0.1793 -2.7367  1.8579
   97SAPE  H17S 9712   1.384  -0.643   4.832  1.6819 -0.8454  2.8525
   97SAPE  C218 9713   1.425  -0.475   4.713 -0.0880 -0.1689  0.2233
   97SAPE  H18R 9714   1.521  -0.514   4.674 -0.3547 -0.4649 -0.1464
   97SAPE  H18S 9715   1.430  -0.365   4.726 -1.4709 -0.1339  0.6382
   97SAPE  C219 9716   1.318  -0.501   4.597  0.0361 -0.1426 -0.1521
   97SAPE  H19R 9717   1.215  -0.483   4.636  0.2269  0.5473  0.0437
   97SAPE  H19S 9718   1.322  -0.612   4.594  3.0077 -0.1431  0.4831
   97SAPE  C220 9719   1.354  -0.417   4.472 -0.2170  0.4880  0.0091
   97SAPE  H20R 9720   1.371  -0.310   4.498  1.9387 -0.0250  0.9770
   97SAPE  H20S 9721   1.281  -0.420   4.389 -0.0607  0.5568 -0.1328
   97SAPE  H20T 9722   1.454  -0.446   4.431  0.6289 -1.1254  2.9224
   97SAPE   C33 9723   1.003   0.615   5.714  0.5932 -0.1047 -0.7721
   97SAPE   H3X 9724   0.915   0.683   5.724  0.2030 -0.4616 -1.6676
   97SAPE   H3Y 9725   0.978   0.525   5.773 -0.6534  1.0271  0.5065
   97SAPE   C34 9726   1.028   0.577   5.568 -0.6728  1.1403  0.0845
   97SAPE   H4X 9727   0.984   0.478   5.543  1.6971  0.6731 -2.7900
   97SAPE   H4Y 9728   1.135   0.584   5.537 -0.7905  0.6823 -0.4568
   97SAPE   C35 9729   0.958   0.684   5.479 -0.0230 -0.2429  0.1035
   97SAPE   H5X 9730   0.983   0.785   5.517 -1.7170  0.4188 -0.4713
   97SAPE   H5Y 9731   0.850   0.658   5.484 -0.6783  2.1389 -0.3546
   97SAPE   C36 9732   1.001   0.666   5.338  0.0700  0.4191  0.1194
   97SAPE   H6X 9733   1.028   0.559   5.324 -2.1552 -0.5813  2.6198
   97SAPE   H6Y 9734   1.089   0.729   5.313 -0.6061  0.7617 -1.5521
   97SAPE   C37 9735   0.883   0.684   5.246 -0.1606 -0.1773 -0.1424
   97SAPE   H7X 9736   0.818   0.765   5.286 -1.2503 -0.0409 -2.0637
   97SAPE   H7Y 9737   0.834   0.585   5.253  1.3363 -0.9021  0.4976
   97SAPE   C38 9738   0.915   0.712   5.096  0.3609 -0.7718 -0.0073
   97SAPE   H8X 9739   0.977   0.628   5.058  2.0938  0.4170  0.0467
   97SAPE   H8Y 9740   0.974   0.806   5.090 -1.5564  0.4951  0.1719
   97SAPE   C39 9741   0.786   0.733   5.014 -0.4597  0.5449 -0.4091
   97SAPE   H9X 9742   0.805   0.774   4.913  0.9807  0.2151 -0.2872
   97SAPE   H9Y 9743   0.728   0.804   5.077  0.6933 -1.2223  2.8795
   97SAPE  C310 9744   0.702   0.604   4.999  0.0438  0.3541 -0.2561
   97SAPE  H10X 9745   0.605   0.620   4.945 -0.7668 -1.0415  0.7250
   97SAPE  H10Y 9746   0.669   0.569   5.099  1.4411 -2.8239 -0.7760
   97SAPE  C311 9747   0.775   0.480   4.926 -0.0069 -1.1160 -0.1151
   97SAPE  H11X 9748   0.712   0.388   4.926  0.4133 -1.4059 -0.7724
   97SAPE  H11Y 9749   0.866   0.454   4.985  0.2387  1.9902  1.0573
   97SAPE  C312 9750   0.814   0.517   4.781 -0.2929  0.1395 -0.3819
   97SAPE  H12X 9751   0.867   0.615   4.780  1.3153 -0.6938 -0.9147
   97SAPE  H12Y 9752   0.723   0.530   4.719  0.5840  0.6421 -1.6078
   97SAPE  C313 9753   0.904   0.410   4.717 -0.3532 -0.2827  0.1677
   97SAPE  H13X 9754   0.849   0.313   4.715 -0.4417 -0.2186 -1.9090
   97SAPE  H13Y 9755   1.004   0.391   4.762 -0.6476 -1.8509  0.2388
   97SAPE  C314 9756   0.937   0.440   4.564  0.1040  0.2224  0.0924
   97SAPE  H14X 9757   1.017   0.516   4.555 -0.1150  0.2574 -2.2489
   97SAPE  H14Y 9758   0.840   0.466   4.517 -0.7221 -1.6307  0.6607
   97SAPE  C315 9759   1.003   0.313   4.500  0.5595 -0.6439  0.3612
   97SAPE  H15X 9760   1.045   0.259   4.588 -1.2447 -0.0867  1.6361
   97SAPE  H15Y 9761   1.090   0.342   4.438  0.7449 -1.7154  0.1143
   97SAPE  C316 9762   0.913   0.232   4.419 -0.5105 -0.0664  0.2268
   97SAPE  H16X 9763   0.858   0.298   4.348 -0.3028 -2.3463 -2.2001
   97SAPE  H16Y 9764   0.843   0.176   4.485  1.5655 -0.2528  2.4020
   97SAPE  C317 9765   0.990   0.131   4.333  0.1338  0.0538  0.2673
   97SAPE  H17X 9766   1.062   0.067   4.389  0.9154  0.0506 -0.7176
   97SAPE  H17Y 9767   1.041   0.187   4.252 -0.2067  1.2898  0.8818
   97SAPE  C318 9768   0.897   0.032   4.258 -0.1830 -0.2526  0.2051
   97SAPE  H18X 9769   0.958  -0.043   4.204  0.0802 -1.3241  1.9060
   97SAPE  H18Y 9770   0.834   0.077   4.178 -1.2800  1.6359  2.0301
   97SAPE  H18Z 9771   0.822  -0.011   4.328 -1.6771  2.1227  0.2021
   98SAPE     N 9772   5.820   0.627   6.683  0.1724  0.0719 -0.0284
   98SAPE   HN1 9773   5.895   0.625   6.755 -0.9534 -1.3352  1.1644
   98SAPE   HN2 9774   5.808   0.532   6.642  1.1128 -0.6994  1.4002
   98SAPE   HN3 9775   5.851   0.690   6.607 -1.2920 -1.5091 -2.0396
   98SAPE   C12 9776   5.697   0.668   6.754  0.3579 -0.2928  0.2526
   98SAPE  H12A 9777   5.654   0.762   6.713  3.0458  0.6394 -0.6700
   98SAPE  H12B 9778   5.727   0.700   6.856 -0.4532  2.6727 -0.3506
   98SAPE   C11 9779   5.583   0.567   6.754 -0.3170 -1.0599 -0.0418
   98SAPE  H11A 9780   5.483   0.605   6.782 -1.1988 -0.2874 -3.7015
   98SAPE  H11B 9781   5.606   0.481   6.821  0.2065 -2.2297 -1.6450
   98SAPE     P 9782   5.477   0.566   6.509 -0.1450  0.1513  0.1495
   98SAPE   O13 9783   5.347   0.600   6.575  0.1785  0.7970  1.1167
   98SAPE   O14 9784   5.532   0.682   6.436 -0.1005 -0.0139  0.2088
   98SAPE   O12 9785   5.574   0.505   6.618  0.6432  0.7162  0.6089
   98SAPE   O11 9786   5.450   0.456   6.404 -0.6424 -0.3654 -0.0851
   98SAPE    C1 9787   5.496   0.325   6.384  0.3861 -0.2840 -0.1381
   98SAPE    HA 9788   5.506   0.286   6.487 -0.9690  1.9048  0.9129
   98SAPE    HB 9789   5.407   0.274   6.342  0.1918  0.0897 -0.1831
   98SAPE    C2 9790   5.607   0.320   6.281 -0.3884  0.5335 -0.2042
   98SAPE    HS 9791   5.696   0.357   6.335 -0.0090 -1.7885  0.9038
   98SAPE   O21 9792   5.570   0.389   6.160  0.3124  0.3339  0.1870
   98SAPE   C21 9793   5.623   0.515   6.149 -0.3746 -0.4227 -0.4856
   98SAPE   O22 9794   5.713   0.565   6.213  0.2828 -0.0027  0.3996
   98SAPE   C22 9795   5.546   0.572   6.027  0.6326  0.2971  0.6803
   98SAPE   H2R 9796   5.458   0.508   6.003  0.8082  0.5332 -0.6377
   98SAPE   H2S 9797   5.493   0.665   6.059 -0.4703 -0.1229  0.1335
   98SAPE    C3 9798   5.650   0.170   6.240  0.7108  0.4775  0.9280
   98SAPE    HX 9799   5.689   0.121   6.331 -0.0063  0.6538  1.3370
   98SAPE    HY 9800   5.724   0.189   6.159 -0.3962 -1.2753 -0.5931
   98SAPE   O31 9801   5.546   0.098   6.174  0.2004  0.2185 -0.2236
   98SAPE   C31 9802   5.459   0.026   6.256 -0.2001 -0.8439  0.3978
   98SAPE   O32 9803   5.461   0.026   6.377  0.0363  0.1350 -0.2359
   98SAPE   C32 9804   5.356  -0.040   6.164 -0.5196 -0.3725 -0.0772
   98SAPE   H2X 9805   5.258  -0.028   6.215 -0.7159 -1.0432 -0.2771
   98SAPE   H2Y 9806   5.377  -0.149   6.163 -0.4870 -0.3664 -0.0929
   98SAPE   C23 9807   5.639   0.573   5.906 -0.2190  0.1985 -0.6065
   98SAPE   H3R 9808   5.623   0.488   5.836 -1.2942 -1.5891  1.6708
   98SAPE   H3S 9809   5.747   0.585   5.928 -0.1762 -0.4084 -0.4507
   98SAPE   C24 9810   5.608   0.706   5.834 -0.5123  0.8917 -0.7557
   98SAPE   H4R 9811   5.609   0.799   5.895 -0.2118  0.6384 -0.3683
   98SAPE   H4S 9812   5.504   0.699   5.796 -0.2527 -1.2243 -1.1818
   98SAPE   C25 9813   5.708   0.733   5.728  0.1916 -0.4911  0.2162
   98SAPE   H5R 9814   5.812   0.730   5.762  0.6833  0.0751 -1.1677
   98SAPE   C26 9815   5.689   0.744   5.595  0.3817  0.1299  0.2597
   98SAPE   H6R 9816   5.774   0.771   5.530 -1.1114  2.3979 -0.8887
   98SAPE   C27 9817   5.561   0.745   5.524 -0.9467 -0.2235  0.2615
   98SAPE   H7R 9818   5.575   0.821   5.444 -0.8052 -0.3684  0.1515
   98SAPE   H7S 9819   5.493   0.796   5.596  0.0859  1.6222  0.0131
   98SAPE   C28 9820   5.494   0.627   5.459 -0.1650  0.2454  0.4500
   98SAPE   H8R 9821   5.486   0.543   5.530 -0.6234  1.3553  1.7510
   98SAPE   C29 9822   5.452   0.614   5.327 -0.3542 -0.3801  0.0372
   98SAPE   H9R 9823   5.392   0.527   5.297 -0.3540 -0.8132  1.2592
   98SAPE  C210 9824   5.461   0.720   5.214  0.2731 -0.2012 -0.6804
   98SAPE  H10R 9825   5.432   0.821   5.251 -0.9509  0.2407 -2.6980
   98SAPE  H10S 9826   5.394   0.690   5.131 -2.7714 -0.7391  1.7647
   98SAPE  C211 9827   5.600   0.750   5.163  0.0071 -0.1863  0.1650
   98SAPE  H11R 9828   5.679   0.728   5.236 -1.2053 -0.1180  1.5326
   98SAPE  C212 9829   5.630   0.788   5.038  0.1758  0.6622 -0.2443
   98SAPE  H12R 9830   5.734   0.815   5.016  1.7085 -1.3007  3.5523
   98SAPE  C213 9831   5.532   0.809   4.924  0.0248  0.0623  0.7725
   98SAPE  H13R 9832   5.550   0.902   4.866  1.0058 -0.2929  0.4862
   98SAPE  H13S 9833   5.425   0.818   4.953 -0.4140  0.1046 -0.7994
   98SAPE  C214 9834   5.564   0.687   4.840  0.0115 -0.1774  0.2100
   98SAPE  H14R 9835   5.597   0.597   4.894  1.0099  0.1656  0.1867
   98SAPE  C215 9836   5.577   0.682   4.705 -0.3888  0.1117 -0.1200
   98SAPE  H15R 9837   5.593   0.583   4.660 -0.2995  0.5311 -1.0401
   98SAPE  C216 9838   5.562   0.795   4.605 -0.6051 -0.4816  0.1181
   98SAPE  H16R 9839   5.608   0.887   4.648 -1.2711 -1.1849  2.4503
   98SAPE  H16S 9840   5.456   0.820   4.586 -0.2975  0.9897  0.1713
   98SAPE  C217 9841   5.635   0.747   4.482 -0.9791 -1.3932  0.2129
   98SAPE  H17R 9842   5.581   0.674   4.418  1.0772 -0.7476 -2.4420
   98SAPE  H17S 9843   5.734   0.702   4.502 -0.5909 -0.7055 -0.1262
   98SAPE  C218 9844   5.667   0.871   4.396 -0.1107 -0.4444 -0.0530
   98SAPE  H18R 9845   5.713   0.951   4.458  1.4836 -1.5149  0.2141
   98SAPE  H18S 9846   5.573   0.912   4.354  0.4168 -0.4877 -1.3019
   98SAPE  C219 9847   5.759   0.837   4.276 -0.3626 -0.3730  0.6006
   98SAPE  H19R 9848   5.717   0.755   4.213 -1.9569 -0.2417  1.4175
   98SAPE  H19S 9849   5.850   0.796   4.326 -0.2221  0.8386  1.3698
   98SAPE  C220 9850   5.789   0.956   4.180  0.2012 -0.6194 -0.2402
   98SAPE  H20R 9851   5.861   0.928   4.100  1.1452  1.0043 -0.0003
   98SAPE  H20S 9852   5.817   1.057   4.219 -1.0372 -0.6406  0.7315
   98SAPE  H20T 9853   5.692   0.976   4.131  1.2594  0.1655 -2.1320
   98SAPE   C33 9854   5.341   0.017   6.023  0.2487 -1.0936  0.0208
   98SAPE   H3X 9855   5.349   0.128   6.019 -0.1416 -1.1005 -3.0460
   98SAPE   H3Y 9856   5.237  -0.012   5.997 -0.0523  0.3447 -0.5015
   98SAPE   C34 9857   5.435  -0.044   5.917  0.2958  0.6915  0.0002
   98SAPE   H4X 9858   5.408  -0.152   5.920  1.3718  0.4454  1.4901
   98SAPE   H4Y 9859   5.536  -0.013   5.951  0.8419 -0.6969 -0.3002
   98SAPE   C35 9860   5.401   0.011   5.775  0.8770  0.2221 -0.9441
   98SAPE   H5X 9861   5.414   0.121   5.762 -1.0571  0.6570  0.2715
   98SAPE   H5Y 9862   5.298  -0.020   5.745  1.0030 -0.0645 -1.0851
   98SAPE   C36 9863   5.507  -0.039   5.674  0.3146 -0.3016 -0.0250
   98SAPE   H6X 9864   5.531  -0.142   5.707  0.6769  0.0928  0.9918
   98SAPE   H6Y 9865   5.598   0.025   5.677  0.6872 -0.7432 -1.2925
   98SAPE   C37 9866   5.448  -0.045   5.537  0.3285 -0.6455 -0.1850
   98SAPE   H7X 9867   5.389   0.044   5.508  0.7223 -0.4891 -0.5075
   98SAPE   H7Y 9868   5.373  -0.127   5.542 -0.3345 -0.1206 -1.1183
   98SAPE   C38 9869   5.567  -0.079   5.444 -0.0633 -0.2379 -0.3708
   98SAPE   H8X 9870   5.613  -0.171   5.486  0.4846  0.2878  0.2081
   98SAPE   H8Y 9871   5.645  -0.001   5.457 -1.8528  1.4458  0.9930
   98SAPE   C39 9872   5.527  -0.087   5.298 -0.1099  0.3388  0.3680
   98SAPE   H9X 9873   5.468   0.005   5.277  0.9001  0.2918 -3.3310
   98SAPE   H9Y 9874   5.471  -0.180   5.276 -1.0406  1.1116 -0.5775
   98SAPE  C310 9875   5.642  -0.075   5.190  0.4495  0.6896 -0.1159
   98SAPE  H10X 9876   5.704  -0.158   5.230 -2.4424 -1.8303 -0.5501
   98SAPE  H10Y 9877   5.690   0.025   5.202  2.4944 -0.2646  0.0602
   98SAPE  C311 9878   5.599  -0.107   5.043  0.1875 -0.1540 -0.0422
   98SAPE  H11X 9879   5.548  -0.205   5.054 -0.4515  0.2730  0.9405
   98SAPE  H11Y 9880   5.691  -0.109   4.982 -0.2476  0.7898 -0.7458
   98SAPE  C312 9881   5.497  -0.005   4.986 -0.4757  0.3486 -0.4350
   98SAPE  H12X 9882   5.538   0.098   4.997 -2.2959  1.2970 -1.9312
   98SAPE  H12Y 9883   5.405  -0.016   5.048  0.6234 -0.9128  1.0607
   98SAPE  C313 9884   5.474  -0.031   4.842 -0.2374  0.9148  0.0421
   98SAPE  H13X 9885   5.449  -0.137   4.824 -0.8902  0.9437  0.7452
   98SAPE  H13Y 9886   5.569  -0.008   4.789 -0.0286  0.9525  0.4361
   98SAPE  C314 9887   5.360   0.061   4.789 -0.8038  0.1075 -0.6491
   98SAPE  H14X 9888   5.387   0.168   4.781  0.6203 -0.2383 -0.6802
   98SAPE  H14Y 9889   5.274   0.052   4.859 -1.9330  3.0897 -1.4944
   98SAPE  C315 9890   5.307   0.015   4.644  0.7175 -0.2407  0.0545
   98SAPE  H15X 9891   5.313  -0.096   4.646  1.2585 -0.2569 -1.4732
   98SAPE  H15Y 9892   5.376   0.074   4.579  1.3041  0.7178  1.4845
   98SAPE  C316 9893   5.165   0.060   4.604 -0.5180  0.0902 -0.2582
   98SAPE  H16X 9894   5.163   0.171   4.599 -1.7540  0.1050  0.1745
   98SAPE  H16Y 9895   5.103   0.025   4.690  1.7570  1.2066  1.9626
   98SAPE  C317 9896   5.118   0.001   4.467  0.6092 -0.8557 -0.4984
   98SAPE  H17X 9897   5.131  -0.109   4.469  0.6764 -0.9077 -2.1633
   98SAPE  H17Y 9898   5.194   0.046   4.399 -0.8254  0.1770 -1.4659
   98SAPE  C318 9899   4.976   0.034   4.424  0.5544 -0.1078  0.0090
   98SAPE  H18X 9900   4.916  -0.041   4.480  0.5399  0.4399  0.7409
   98SAPE  H18Y 9901   4.955   0.015   4.317 -2.7692  1.5703  0.2345
   98SAPE  H18Z 9902   4.943   0.137   4.449 -0.8104 -0.2813 -0.9621
   99SAPE     N 9903   6.248   0.295   6.781 -0.2193 -0.0966  0.1642
   99SAPE   HN1 9904   6.322   0.316   6.850  0.0383  1.2428 -0.5068
   99SAPE   HN2 9905   6.251   0.373   6.714  1.5785 -0.3423 -0.0912
   99SAPE   HN3 9906   6.156   0.317   6.826 -1.3921 -0.5506 -1.8817
   99SAPE   C12 9907   6.224   0.155   6.731 -0.1628 -0.4768 -0.1400
   99SAPE  H12A 9908   6.204   0.089   6.818  1.3138 -0.7537  0.0237
   99SAPE  H12B 9909   6.326   0.125   6.699  0.2756 -0.0171  0.7638
   99SAPE   C11 9910   6.127   0.144   6.615  0.0413  0.2090  0.3528
   99SAPE  H11A 9911   6.101   0.036   6.608 -0.8397  0.3783  0.8926
   99SAPE  H11B 9912   6.180   0.174   6.522 -0.6395 -0.4831 -0.2680
   99SAPE     P 9913   5.896   0.245   6.547  0.3696  0.1430 -0.1612
   99SAPE   O13 9914   5.812   0.124   6.565 -0.2859 -0.4205 -0.0988
   99SAPE   O14 9915   5.825   0.373   6.566  0.0187  0.5492 -0.5787
   99SAPE   O12 9916   6.016   0.231   6.649 -0.0678  0.7039 -0.1905
   99SAPE   O11 9917   5.962   0.243   6.405 -0.4214 -0.1998 -0.5171
   99SAPE    C1 9918   6.001   0.366   6.336  1.0085  0.4150 -0.1390
   99SAPE    HA 9919   5.912   0.420   6.298  1.2058 -0.3970 -1.8805
   99SAPE    HB 9920   6.068   0.419   6.407  1.7892 -1.4392  0.5864
   99SAPE    C2 9921   6.072   0.331   6.202 -0.4155 -0.5380  0.8729
   99SAPE    HS 9922   5.990   0.308   6.130  0.9716  1.1043 -1.3596
   99SAPE   O21 9923   6.166   0.224   6.210 -0.2884 -0.1680 -0.1053
   99SAPE   C21 9924   6.208   0.169   6.102  0.3650  0.8376 -0.3003
   99SAPE   O22 9925   6.156   0.178   5.995  0.7359  0.0866  0.9358
   99SAPE   C22 9926   6.333   0.078   6.137  0.5000 -0.0009 -0.1366
   99SAPE   H2R 9927   6.418   0.130   6.089  2.1260 -0.8008  1.7356
   99SAPE   H2S 9928   6.339   0.069   6.248 -2.4203  1.3232  0.2285
   99SAPE    C3 9929   6.148   0.464   6.153 -0.2206 -0.1584  0.4448
   99SAPE    HX 9930   6.242   0.472   6.212  0.7206  0.3819 -1.0833
   99SAPE    HY 9931   6.078   0.549   6.172 -0.2667 -0.0305 -0.2886
   99SAPE   O31 9932   6.172   0.462   6.010 -0.3020  0.0188 -0.1792
   99SAPE   C31 9933   6.293   0.493   5.964 -0.5174 -0.0603  0.2707
   99SAPE   O32 9934   6.384   0.545   6.031 -0.4521 -0.2119 -0.1283
   99SAPE   C32 9935   6.311   0.446   5.818  0.4841  0.7869  0.2373
   99SAPE   H2X 9936   6.355   0.531   5.761  0.4051 -0.9800 -2.6795
   99SAPE   H2Y 9937   6.211   0.415   5.783  1.8678 -1.6700 -1.8670
   99SAPE   C23 9938   6.313  -0.063   6.068 -0.0613 -0.1412 -0.1580
   99SAPE   H3R 9939   6.281  -0.042   5.963 -0.7692 -0.9398 -0.1079
   99SAPE   H3S 9940   6.228  -0.117   6.113 -1.7790  1.0308 -1.8423
   99SAPE   C24 9941   6.434  -0.153   6.078  0.5048 -0.6302  0.3336
   99SAPE   H4R 9942   6.404  -0.255   6.047  2.3117 -0.7503 -1.1812
   99SAPE   H4S 9943   6.464  -0.147   6.184  0.2108  2.8970  0.3467
   99SAPE   C25 9944   6.540  -0.091   5.984 -0.1399 -0.0407 -0.4543
   99SAPE   H5R 9945   6.619  -0.029   6.030  1.3942 -1.9453 -0.3885
   99SAPE   C26 9946   6.553  -0.125   5.856 -0.8587 -0.0516 -0.3698
   99SAPE   H6R 9947   6.647  -0.103   5.803 -0.1923 -3.7658 -1.0227
   99SAPE   C27 9948   6.479  -0.228   5.784 -0.1895 -0.4679 -0.3079
   99SAPE   H7R 9949   6.435  -0.305   5.851  0.3366 -1.3891 -0.9999
   99SAPE   H7S 9950   6.549  -0.296   5.730 -0.5104 -2.0787  1.2028
   99SAPE   C28 9951   6.363  -0.178   5.702 -0.1816  0.4676 -0.2609
   99SAPE   H8R 9952   6.291  -0.108   5.747 -3.4940  0.1993 -4.4729
   99SAPE   C29 9953   6.341  -0.223   5.576 -0.1264 -0.2087 -0.4399
   99SAPE   H9R 9954   6.248  -0.183   5.533 -0.2815  0.0935  0.1643
   99SAPE  C210 9955   6.423  -0.317   5.496  0.0817  0.1099  0.6334
   99SAPE  H10R 9956   6.485  -0.385   5.558  2.8898 -1.1815 -3.1893
   99SAPE  H10S 9957   6.503  -0.267   5.437  1.0085 -3.5705 -1.5913
   99SAPE  C211 9958   6.348  -0.408   5.405 -0.3069  0.3083  0.0444
   99SAPE  H11R 9959   6.312  -0.498   5.456  1.9351 -1.0273 -0.5481
   99SAPE  C212 9960   6.329  -0.397   5.271 -0.5165 -0.1893  0.5862
   99SAPE  H12R 9961   6.265  -0.476   5.229 -1.4401  1.7255 -1.8893
   99SAPE  C213 9962   6.382  -0.286   5.181  0.4463 -0.2779 -0.7470
   99SAPE  H13R 9963   6.391  -0.190   5.236  0.6133  0.1561 -1.5118
   99SAPE  H13S 9964   6.301  -0.266   5.107 -2.3176 -4.1743  0.8584
   99SAPE  C214 9965   6.514  -0.312   5.117  0.0312  0.3263  0.7040
   99SAPE  H14R 9966   6.579  -0.387   5.164  0.5397  1.7941  2.4762
   99SAPE  C215 9967   6.545  -0.262   4.994 -0.2234  0.3818 -0.4620
   99SAPE  H15R 9968   6.634  -0.299   4.941 -0.1108 -0.4110  0.2447
   99SAPE  C216 9969   6.460  -0.166   4.911  0.1786 -0.2086  0.0221
   99SAPE  H16R 9970   6.417  -0.087   4.975  0.1983 -1.2968  1.4279
   99SAPE  H16S 9971   6.373  -0.208   4.856 -0.3764  0.4645  0.3736
   99SAPE  C217 9972   6.567  -0.101   4.813 -0.6809 -0.8989  0.0618
   99SAPE  H17R 9973   6.660  -0.060   4.858 -0.9169 -1.7715  1.4078
   99SAPE  H17S 9974   6.517  -0.008   4.776  1.3756  0.0104 -0.5521
   99SAPE  C218 9975   6.601  -0.179   4.689  0.2648 -0.2441 -0.4608
   99SAPE  H18R 9976   6.509  -0.223   4.645  0.8467  0.0041 -1.9716
   99SAPE  H18S 9977   6.669  -0.261   4.723  3.2348  1.9450 -0.6920
   99SAPE  C219 9978   6.667  -0.118   4.576 -0.3078  1.0198  0.0082
   99SAPE  H19R 9979   6.665  -0.190   4.492  1.5690 -0.8319  1.4244
   99SAPE  H19S 9980   6.776  -0.111   4.600 -0.4428  0.2636  0.9290
   99SAPE  C220 9981   6.600   0.013   4.528  0.4756 -0.5339 -0.0739
   99SAPE  H20R 9982   6.489   0.006   4.536  0.4009 -2.7850 -1.9628
   99SAPE  H20S 9983   6.631   0.041   4.425 -1.2512  0.8358 -0.2669
   99SAPE  H20T 9984   6.630   0.102   4.589  2.4575 -2.1524  1.4615
   99SAPE   C33 9985   6.404   0.328   5.797 -0.0804  0.3519 -0.2930
   99SAPE   H3X 9986   6.370   0.239   5.853  0.9828 -1.7708 -2.7953
   99SAPE   H3Y 9987   6.502   0.350   5.846 -0.2777 -2.6000  1.6538
   99SAPE   C34 9988   6.425   0.289   5.651  0.2935  0.1313  0.0748
   99SAPE   H4X 9989   6.428   0.374   5.580 -0.6407 -2.2538 -3.0845
   99SAPE   H4Y 9990   6.336   0.225   5.631 -0.3292  0.8028  0.6819
   99SAPE   C35 9991   6.550   0.200   5.622  0.1467 -0.0371  0.2314
   99SAPE   H5X 9992   6.508   0.104   5.659 -1.8795  1.1353  1.1734
   99SAPE   H5Y 9993   6.637   0.221   5.688  0.2738 -0.4558  0.2047
   99SAPE   C36 9994   6.578   0.188   5.470  0.0447 -0.4346  0.6261
   99SAPE   H6X 9995   6.673   0.132   5.459  0.0789 -0.1727 -0.4992
   99SAPE   H6Y 9996   6.613   0.289   5.440 -0.6301  0.1591  1.7406
   99SAPE   C37 9997   6.459   0.132   5.394  0.3845 -0.0275 -0.7420
   99SAPE   H7X 9998   6.371   0.197   5.410  0.0389 -0.2866 -1.5294
   99SAPE   H7Y 9999   6.440   0.035   5.443 -0.8601  0.6640  0.1893
   99SAPE   C3810000   6.495   0.101   5.243  1.2573  0.7891 -0.5978
   99SAPE   H8X10001   6.406   0.049   5.201  1.1485  0.4369  0.0354
   99SAPE   H8Y10002   6.587   0.038   5.243  0.1704 -0.8791 -0.9167
   99SAPE   C3910003   6.513   0.232   5.160 -0.3921  0.3189  0.4469
   99SAPE   H9X10004   6.603   0.289   5.189 -0.0473  0.7848 -1.3910
   99SAPE   H9Y10005   6.429   0.300   5.186  2.1695  3.6036  0.6729
   99SAPE  C31010006   6.507   0.204   5.005 -0.2297  0.2830  0.1333
   99SAPE  H10X10007   6.424   0.132   4.990 -0.9379  0.8593  1.1875
   99SAPE  H10Y10008   6.604   0.158   4.975 -1.8044 -2.5027 -1.0633
   99SAPE  C31110009   6.496   0.330   4.918 -1.0066  0.6447 -0.7206
   99SAPE  H11X10010   6.571   0.407   4.947  2.4838 -2.0124 -2.0831
   99SAPE  H11Y10011   6.397   0.378   4.938 -1.8128 -1.2015 -0.0771
   99SAPE  C31210012   6.506   0.299   4.770  0.2988 -0.5361  0.4985
   99SAPE  H12X10013   6.430   0.227   4.734 -1.8737  2.0712 -0.4773
   99SAPE  H12Y10014   6.600   0.245   4.745 -0.0262 -0.5466 -0.7432
   99SAPE  C31310015   6.494   0.430   4.685  0.1917 -0.7052 -0.6542
   99SAPE  H13X10016   6.586   0.492   4.697  0.1376 -0.4462 -1.5230
   99SAPE  H13Y10017   6.410   0.483   4.734 -0.0139  0.5354 -2.2700
   99SAPE  C31410018   6.470   0.401   4.531 -0.3499  0.0928 -0.3639
   99SAPE  H14X10019   6.374   0.348   4.515 -0.7912  1.5396 -2.8730
   99SAPE  H14Y10020   6.556   0.342   4.491 -1.5360 -0.6439 -1.9132
   99SAPE  C31510021   6.463   0.524   4.439  0.7635  0.1597  0.8659
   99SAPE  H15X10022   6.550   0.588   4.465  0.8939 -0.1543  1.2070
   99SAPE  H15Y10023   6.372   0.581   4.470  0.0600 -0.9422  0.8519
   99SAPE  C31610024   6.470   0.483   4.290  0.1020 -0.1403  0.7942
   99SAPE  H16X10025   6.442   0.563   4.218  1.8106  1.1054  1.4450
   99SAPE  H16Y10026   6.410   0.391   4.273  2.6113 -1.6483 -0.4570
   99SAPE  C31710027   6.605   0.450   4.237 -1.1423 -0.3832 -0.3213
   99SAPE  H17X10028   6.630   0.347   4.270  0.5739  0.8764  2.7231
   99SAPE  H17Y10029   6.680   0.521   4.280  1.4758 -1.4907 -2.7423
   99SAPE  C31810030   6.629   0.457   4.089  0.2083  0.0886 -0.7173
   99SAPE  H18X10031   6.737   0.439   4.075  0.4631 -0.3740  1.4707
   99SAPE  H18Y10032   6.606   0.562   4.064  0.2242  0.3961  0.5090
   99SAPE  H18Z10033   6.560   0.388   4.034 -2.4570  0.0577  2.3576
  100SAPE     N10034   5.676   3.522   6.326  0.5358  0.3954 -0.2827
  100SAPE   HN110035   5.722   3.606   6.365 -2.2421  2.3602 -0.9719
  100SAPE   HN210036   5.625   3.555   6.242 -1.1899  2.5991  1.5235
  100SAPE   HN310037   5.609   3.493   6.400  0.5894  0.6305 -0.1440
  100SAPE   C1210038   5.782   3.429   6.279  0.1662  0.0804 -0.7362
  100SAPE  H12A10039   5.738   3.340   6.229 -1.1360  1.5104 -2.2683
  100SAPE  H12B10040   5.836   3.393   6.369  0.8365 -5.6339 -2.9990
  100SAPE   C1110041   5.871   3.497   6.174 -0.7822  0.1780  0.1866
  100SAPE  H11A10042   5.807   3.511   6.084  0.8973 -1.2217 -1.3311
  100SAPE  H11B10043   5.960   3.438   6.142 -0.2589  0.6253  0.7948
  100SAPE     P10044   6.041   3.699   6.183  0.1287  0.1237 -0.0346
  100SAPE   O1310045   6.011   3.843   6.180 -0.6958 -0.3190  0.7364
  100SAPE   O1410046   6.143   3.655   6.281 -0.5589 -0.2900 -0.3495
  100SAPE   O1210047   5.912   3.622   6.219 -0.8761  0.2627  0.0484
  100SAPE   O1110048   6.091   3.651   6.043  0.0717 -0.0210  0.7090
  100SAPE    C110049   6.020   3.698   5.925 -0.4432  0.0955 -0.1942
  100SAPE    HA10050   6.019   3.611   5.856 -1.8700  0.4280 -0.6268
  100SAPE    HB10051   5.913   3.725   5.939 -0.6692 -0.9430  0.1772
  100SAPE    C210052   6.111   3.801   5.858  0.3922 -0.5389 -0.0237
  100SAPE    HS10053   6.124   3.896   5.915  2.6148 -1.1242  0.5266
  100SAPE   O2110054   6.049   3.832   5.721  0.2812  0.4190 -0.6271
  100SAPE   C2110055   5.951   3.918   5.732 -0.3526 -0.0268 -0.3470
  100SAPE   O2210056   5.925   3.985   5.830  0.5587  0.9009 -0.3651
  100SAPE   C2210057   5.872   3.924   5.605  0.1464 -0.1507  0.2406
  100SAPE   H2R10058   5.890   3.831   5.546  2.8531  1.4333 -1.6434
  100SAPE   H2S10059   5.765   3.933   5.634  0.0544 -0.4049 -0.0196
  100SAPE    C310060   6.262   3.761   5.835  0.4008  0.3042  0.5594
  100SAPE    HX10061   6.260   3.660   5.791  1.4959  1.3453 -2.0440
  100SAPE    HY10062   6.316   3.750   5.932  1.0170 -0.5388  0.1224
  100SAPE   O3110063   6.327   3.845   5.740  0.2461  0.1744 -0.2216
  100SAPE   C3110064   6.452   3.816   5.711 -0.3667 -0.1523 -0.2518
  100SAPE   O3210065   6.510   3.724   5.765  0.3212  0.3016  0.5637
  100SAPE   C3210066   6.516   3.912   5.612  0.4808  0.0886  0.2820
  100SAPE   H2X10067   6.620   3.880   5.589  0.6987  1.5520 -0.9699
  100SAPE   H2Y10068   6.527   4.018   5.646  3.1683  0.7111 -2.1194
  100SAPE   C2310069   5.917   4.033   5.508  0.3344  0.3026 -0.1085
  100SAPE   H3R10070   5.909   4.127   5.566 -1.3133  0.6884 -0.8779
  100SAPE   H3S10071   5.851   4.036   5.418  0.8149 -0.1738 -0.4782
  100SAPE   C2410072   6.067   4.022   5.468  0.2993  0.2540  0.3840
  100SAPE   H4R10073   6.133   4.003   5.555  4.0225 -0.3976 -2.3525
  100SAPE   H4S10074   6.094   4.123   5.432  2.5761 -0.7170 -0.8044
  100SAPE   C2510075   6.086   3.912   5.363 -0.1226  0.4592 -0.1123
  100SAPE   H5R10076   6.065   3.807   5.387  3.7634 -0.5209 -0.3771
  100SAPE   C2610077   6.116   3.935   5.231  0.7731 -0.4097 -0.4879
  100SAPE   H6R10078   6.127   3.846   5.167  0.3945 -0.0389 -1.0872
  100SAPE   C2710079   6.138   4.078   5.174 -0.7965 -0.0524  0.6601
  100SAPE   H7R10080   6.191   4.074   5.077  1.2612  0.3311  1.7201
  100SAPE   H7S10081   6.210   4.139   5.232  1.3405 -0.6247 -1.2802
  100SAPE   C2810082   6.007   4.161   5.164  0.4820  0.1988 -0.0530
  100SAPE   H8R10083   5.918   4.115   5.210  1.6351 -1.1407  0.9309
  100SAPE   C2910084   5.993   4.290   5.134 -0.2630 -0.1089 -0.1211
  100SAPE   H9R10085   5.898   4.345   5.133  1.0047  2.1841  0.2903
  100SAPE  C21010086   6.111   4.374   5.093 -0.4176  0.3468 -0.1148
  100SAPE  H10R10087   6.204   4.312   5.093  0.2987  1.3669 -1.5617
  100SAPE  H10S10088   6.124   4.453   5.169 -2.2078 -0.6594  1.3294
  100SAPE  C21110089   6.089   4.436   4.957 -0.4905 -0.3683  0.3290
  100SAPE  H11R10090   6.158   4.406   4.877  0.0265  1.4334  0.0467
  100SAPE  C21210091   6.004   4.539   4.930  0.4984 -0.1414  0.2667
  100SAPE  H12R10092   6.006   4.582   4.829 -0.6641 -2.6688 -0.9240
  100SAPE  C21310093   5.903   4.603   5.011 -0.7506 -0.1771 -0.0840
  100SAPE  H13R10094   5.923   4.566   5.114 -0.1424  0.1875 -0.0699
  100SAPE  H13S10095   5.809   4.563   4.967  0.7650 -1.2796 -2.5469
  100SAPE  C21410096   5.912   4.754   5.023  0.4055  0.0733 -0.2160
  100SAPE  H14R10097   6.012   4.801   5.027  0.9488 -1.0160 -0.6608
  100SAPE  C21510098   5.805   4.846   5.014 -0.9272  0.3655 -0.0706
  100SAPE  H15R10099   5.833   4.951   5.032  0.1538 -0.0247  0.6137
  100SAPE  C21610100   5.657   4.813   4.999 -0.4342 -0.1260  0.4725
  100SAPE  H16R10101   5.625   4.835   5.103  2.0293  0.3102  1.1916
  100SAPE  H16S10102   5.638   4.704   4.988 -2.9777  0.4646 -2.2787
  100SAPE  C21710103   5.593   4.887   4.891  0.4353 -0.5714  0.5671
  100SAPE  H17R10104   5.634   4.990   4.879  1.5519 -1.2531 -2.4167
  100SAPE  H17S10105   5.487   4.894   4.923  0.9627  1.5548  2.0909
  100SAPE  C21810106   5.606   4.825   4.750  0.6558 -0.1520  0.0855
  100SAPE  H18R10107   5.567   4.891   4.670  2.4354 -0.0990 -0.7775
  100SAPE  H18S10108   5.557   4.725   4.741  1.0058 -0.3390  0.2092
  100SAPE  C21910109   5.745   4.789   4.710  0.6117 -0.4180 -1.2632
  100SAPE  H19R10110   5.779   4.717   4.788 -1.8783  1.0518  1.4086
  100SAPE  H19S10111   5.824   4.867   4.710  0.0308  0.1962 -0.3724
  100SAPE  C22010112   5.753   4.731   4.569  0.7313 -0.1900  0.3046
  100SAPE  H20R10113   5.831   4.652   4.564  0.7163 -0.1311 -1.3748
  100SAPE  H20S10114   5.773   4.809   4.492  4.1290  0.3352  1.5442
  100SAPE  H20T10115   5.656   4.680   4.551  0.4008  0.6017 -0.2037
  100SAPE   C3310116   6.457   3.912   5.467  0.4565 -0.1078  0.1111
  100SAPE   H3X10117   6.371   3.980   5.453 -0.3963 -1.4749 -1.5342
  100SAPE   H3Y10118   6.426   3.807   5.449 -0.2182 -0.1040  1.1331
  100SAPE   C3410119   6.557   3.970   5.364  0.0419 -0.0657 -0.4719
  100SAPE   H4X10120   6.650   3.913   5.386  0.3984  0.7645  0.2436
  100SAPE   H4Y10121   6.583   4.076   5.385  0.6307 -0.1120 -0.9219
  100SAPE   C3510122   6.516   3.953   5.217 -0.2192  0.6294  0.7700
  100SAPE   H5X10123   6.582   4.009   5.147  0.5367  0.0412  1.0080
  100SAPE   H5Y10124   6.419   4.000   5.189 -0.2793  0.4509  0.6764
  100SAPE   C3610125   6.509   3.800   5.177  0.4355 -0.3071 -0.2795
  100SAPE   H6X10126   6.414   3.756   5.214 -0.4322  0.6445 -1.2997
  100SAPE   H6Y10127   6.594   3.746   5.223 -0.3127 -0.4856  0.9181
  100SAPE   C3710128   6.525   3.781   5.024  0.6967  0.0519 -0.5481
  100SAPE   H7X10129   6.533   3.672   5.003 -2.7901 -0.7288  1.4006
  100SAPE   H7Y10130   6.616   3.832   4.987  0.1178  0.3596 -1.5943
  100SAPE   C3810131   6.404   3.846   4.952  0.0554  0.3317 -0.1847
  100SAPE   H8X10132   6.408   3.956   4.967  1.5417  0.2085  0.5462
  100SAPE   H8Y10133   6.304   3.813   4.986  0.1959  0.6024  0.4915
  100SAPE   C3910134   6.412   3.822   4.800  0.2698  0.1460  0.3062
  100SAPE   H9X10135   6.350   3.731   4.786 -2.2071  1.6455  0.9819
  100SAPE   H9Y10136   6.518   3.808   4.771 -0.3618 -0.4783 -1.9288
  100SAPE  C31010137   6.358   3.941   4.720  0.2883  0.4982  0.1002
  100SAPE  H10X10138   6.254   3.952   4.758 -0.2603 -2.2837 -0.3342
  100SAPE  H10Y10139   6.348   3.911   4.614 -0.3333 -1.0445  0.5601
  100SAPE  C31110140   6.439   4.068   4.720  0.2329 -0.2841 -0.3244
  100SAPE  H11X10141   6.505   4.068   4.630  0.4151  1.4984 -0.2270
  100SAPE  H11Y10142   6.496   4.082   4.814 -1.8084 -0.2344  0.9602
  100SAPE  C31210143   6.359   4.198   4.717  0.1927  0.3422 -0.5764
  100SAPE  H12X10144   6.280   4.204   4.795 -1.0578  1.3273 -1.8788
  100SAPE  H12Y10145   6.297   4.209   4.625 -0.5942 -0.7044 -0.1929
  100SAPE  C31310146   6.452   4.324   4.719 -0.3037  0.4433 -0.2944
  100SAPE  H13X10147   6.375   4.404   4.710 -0.7919  0.0414  0.2027
  100SAPE  H13Y10148   6.510   4.324   4.625 -1.6601  0.3630 -1.1605
  100SAPE  C31410149   6.522   4.372   4.845  0.0829 -0.0493 -0.1222
  100SAPE  H14X10150   6.566   4.474   4.846 -0.4170  0.1673  0.0777
  100SAPE  H14Y10151   6.612   4.308   4.857  0.8976  1.3157  1.5846
  100SAPE  C31510152   6.446   4.375   4.982 -0.1128  0.5329  0.4732
  100SAPE  H15X10153   6.410   4.271   4.995 -0.7613  0.7367  0.3763
  100SAPE  H15Y10154   6.363   4.449   4.990  0.9637  1.6496  1.8577
  100SAPE  C31610155   6.544   4.406   5.094  0.2302 -0.2160  0.0854
  100SAPE  H16X10156   6.576   4.512   5.096 -0.5257  0.0439 -0.6667
  100SAPE  H16Y10157   6.634   4.341   5.089  0.3133 -0.0146 -1.9841
  100SAPE  C31710158   6.473   4.391   5.229  0.2148  0.4112 -0.2187
  100SAPE  H17X10159   6.447   4.284   5.242  2.3860 -0.6069 -3.1388
  100SAPE  H17Y10160   6.373   4.440   5.224 -0.6160 -0.8525  2.3041
  100SAPE  C31810161   6.548   4.432   5.348  0.7863 -1.4623 -0.3051
  100SAPE  H18X10162   6.640   4.370   5.352 -0.2250 -2.9477  1.0093
  100SAPE  H18Y10163   6.493   4.414   5.443 -0.2109  0.4812 -0.4607
  100SAPE  H18Z10164   6.564   4.542   5.356  2.3461 -1.7560  1.2765
  101SAPE     N10165   1.258   5.899   6.362 -0.0166  0.0053 -0.2054
  101SAPE   HN110166   1.207   5.958   6.431 -0.2690  0.1988 -0.5524
  101SAPE   HN210167   1.192   5.850   6.299 -1.2635 -1.7826  2.3328
  101SAPE   HN310168   1.305   5.830   6.423  2.2523  2.2710  0.8386
  101SAPE   C1210169   1.371   5.976   6.297 -0.2804 -0.4118 -0.3701
  101SAPE  H12A10170   1.420   5.900   6.231  0.8509 -0.9057  0.9917
  101SAPE  H12B10171   1.446   5.991   6.377 -0.0545 -1.4626 -0.3619
  101SAPE   C1110172   1.342   6.124   6.236  0.0812 -0.2140 -0.1151
  101SAPE  H11A10173   1.255   6.114   6.167 -0.9365  0.7724  0.9705
  101SAPE  H11B10174   1.424   6.154   6.168 -1.5567 -0.7361 -2.4456
  101SAPE     P10175   1.422   6.323   6.378 -0.4273  0.1587  0.3104
  101SAPE   O1310176   1.378   6.400   6.500 -0.4444  0.2852  0.3876
  101SAPE   O1410177   1.547   6.250   6.389  0.3887 -0.0248  0.0063
  101SAPE   O1210178   1.309   6.218   6.340 -0.2038 -0.5627  0.6318
  101SAPE   O1110179   1.422   6.422   6.244  0.7950 -0.6115 -0.2640
  101SAPE    C110180   1.315   6.516   6.221  0.1470 -0.0176 -0.2851
  101SAPE    HA10181   1.229   6.501   6.290 -0.8684  1.6104 -1.1492
  101SAPE    HB10182   1.369   6.611   6.236  0.2521 -0.3411  1.7010
  101SAPE    C210183   1.264   6.514   6.069  0.3811 -0.4297 -0.3517
  101SAPE    HS10184   1.198   6.427   6.047  0.5706 -0.1978 -1.9279
  101SAPE   O2110185   1.385   6.503   5.989 -0.1214  0.0416 -0.1379
  101SAPE   C2110186   1.374   6.442   5.867 -0.5830  0.0215 -0.8154
  101SAPE   O2210187   1.274   6.394   5.828  0.2053  0.1208  0.4071
  101SAPE   C2210188   1.498   6.447   5.798  0.2864  0.1300 -0.0599
  101SAPE   H2R10189   1.524   6.555   5.802 -0.9543  0.5094 -1.5557
  101SAPE   H2S10190   1.576   6.389   5.853 -0.2870  0.1082  0.7537
  101SAPE    C310191   1.189   6.643   6.034 -0.7313 -0.0519 -0.5554
  101SAPE    HX10192   1.263   6.724   6.050  1.0256 -1.6390 -0.3051
  101SAPE    HY10193   1.110   6.666   6.108 -0.6435 -0.8814 -0.1861
  101SAPE   O3110194   1.132   6.640   5.903 -0.2902 -1.1195  0.6824
  101SAPE   C3110195   1.019   6.569   5.886  0.5603  0.2657 -0.1790
  101SAPE   O3210196   0.946   6.525   5.976  0.3647 -0.0513  0.7469
  101SAPE   C3210197   1.020   6.527   5.740  0.4541  0.7449 -0.3474
  101SAPE   H2X10198   1.054   6.422   5.747  1.2393  1.0616  1.0944
  101SAPE   H2Y10199   1.102   6.581   5.687  1.4788  1.3230  1.7155
  101SAPE   C2310200   1.492   6.396   5.650 -0.0469 -0.2570 -0.4707
  101SAPE   H3R10201   1.414   6.449   5.592  1.5130  0.0386 -2.3955
  101SAPE   H3S10202   1.463   6.289   5.651 -2.1693  0.2627 -1.0289
  101SAPE   C2410203   1.625   6.411   5.582  0.2333  0.3713 -0.6123
  101SAPE   H4R10204   1.611   6.345   5.495  0.0699 -0.7232  0.2212
  101SAPE   H4S10205   1.711   6.367   5.639  0.1682  1.1599  0.1288
  101SAPE   C2510206   1.670   6.548   5.545  0.1116 -0.7607  0.1191
  101SAPE   H5R10207   1.664   6.623   5.625 -2.0759  0.4253 -1.0777
  101SAPE   C2610208   1.712   6.590   5.426  0.4567 -0.0974 -0.0029
  101SAPE   H6R10209   1.734   6.696   5.410  1.2170 -0.6148 -2.9346
  101SAPE   C2710210   1.749   6.500   5.307  0.9274 -0.0488  0.0834
  101SAPE   H7R10211   1.809   6.558   5.235 -0.5490  0.4169 -0.8054
  101SAPE   H7S10212   1.657   6.464   5.256  0.8078 -0.0517  0.2960
  101SAPE   C2810213   1.834   6.375   5.343  0.3967 -0.7545 -0.3990
  101SAPE   H8R10214   1.867   6.349   5.445  2.0556 -0.0109 -0.7136
  101SAPE   C2910215   1.881   6.287   5.254  0.2399 -0.8201 -0.3966
  101SAPE   H9R10216   1.941   6.201   5.286 -0.1226 -1.0380 -0.3043
  101SAPE  C21010217   1.856   6.297   5.104  0.7309 -0.0662 -0.2841
  101SAPE  H10R10218   1.954   6.303   5.052  1.7251 -0.9699  1.3872
  101SAPE  H10S10219   1.788   6.382   5.088  1.0894  0.0633 -1.1640
  101SAPE  C21110220   1.787   6.181   5.039 -0.6061  0.7031 -0.7525
  101SAPE  H11R10221   1.730   6.113   5.103  0.8655  0.4442  0.3663
  101SAPE  C21210222   1.790   6.152   4.906 -0.2092  0.0329  0.0488
  101SAPE  H12R10223   1.744   6.058   4.872 -2.2001  0.4493  1.3785
  101SAPE  C21310224   1.867   6.224   4.803  0.2148 -0.0627 -0.1326
  101SAPE  H13R10225   1.871   6.168   4.707  0.2426  0.6251 -0.5371
  101SAPE  H13S10226   1.971   6.249   4.833 -0.1224  1.8306 -0.4204
  101SAPE  C21410227   1.813   6.358   4.764  0.3842  0.1190  0.3510
  101SAPE  H14R10228   1.721   6.386   4.818  0.8022 -1.5086  2.0050
  101SAPE  C21510229   1.865   6.437   4.674  0.0073 -0.4897 -0.1055
  101SAPE  H15R10230   1.810   6.530   4.650  2.1918  1.8875  3.1574
  101SAPE  C21610231   1.994   6.401   4.589  0.1425 -0.4566 -0.2746
  101SAPE  H16R10232   1.967   6.405   4.481  2.0224  1.2053 -0.7479
  101SAPE  H16S10233   2.034   6.299   4.607 -1.3941 -1.1812 -0.8108
  101SAPE  C21710234   2.104   6.502   4.627  0.2221  0.1847 -0.3158
  101SAPE  H17R10235   2.071   6.607   4.616 -1.1293 -0.2492 -0.6021
  101SAPE  H17S10236   2.194   6.488   4.562  0.4421  1.6191 -0.3470
  101SAPE  C21810237   2.161   6.479   4.770  0.4650 -0.2670  0.3099
  101SAPE  H18R10238   2.159   6.370   4.793  1.1901 -0.3007  0.2413
  101SAPE  H18S10239   2.089   6.531   4.837  1.9453  0.0162  1.7377
  101SAPE  C21910240   2.298   6.533   4.790  0.4853 -0.5747 -0.5253
  101SAPE  H19R10241   2.299   6.550   4.900 -1.5631  3.2115 -0.9437
  101SAPE  H19S10242   2.308   6.637   4.753  2.0817 -0.9878 -1.3245
  101SAPE  C22010243   2.421   6.451   4.744  0.2142 -0.3720  0.2466
  101SAPE  H20R10244   2.396   6.412   4.643 -0.3950 -0.9353  0.6062
  101SAPE  H20S10245   2.457   6.375   4.817  1.1804 -1.6585 -1.4852
  101SAPE  H20T10246   2.506   6.523   4.739  0.6499 -0.9623 -1.1223
  101SAPE   C3310247   0.877   6.552   5.675 -0.9583 -0.1062  0.5654
  101SAPE   H3X10248   0.822   6.639   5.717  0.7529  0.5607  1.5392
  101SAPE   H3Y10249   0.817   6.459   5.688 -1.1634 -0.1861 -0.8282
  101SAPE   C3410250   0.887   6.566   5.527  0.3103 -0.3123 -0.4616
  101SAPE   H4X10251   0.948   6.655   5.498 -0.1801 -0.2429 -1.3097
  101SAPE   H4Y10252   0.783   6.579   5.491 -0.1523  0.3392  1.0258
  101SAPE   C3510253   0.948   6.446   5.463 -0.4490 -0.5596  0.1524
  101SAPE   H5X10254   0.908   6.356   5.514 -0.7687 -0.8461 -0.5938
  101SAPE   H5Y10255   1.059   6.446   5.471 -0.4856  0.3791  0.8135
  101SAPE   C3610256   0.919   6.454   5.311  0.2788 -0.0447 -0.2687
  101SAPE   H6X10257   0.961   6.551   5.277  1.8976 -0.0097  1.6806
  101SAPE   H6Y10258   0.809   6.447   5.295  0.4913 -0.9348 -1.5037
  101SAPE   C3710259   0.984   6.335   5.238  0.3685  0.9028  0.7517
  101SAPE   H7X10260   0.971   6.242   5.297 -3.4003  0.6424 -0.2396
  101SAPE   H7Y10261   1.095   6.340   5.230  0.4704 -0.1386  1.3810
  101SAPE   C3810262   0.941   6.313   5.095  0.6551  0.2244 -0.1159
  101SAPE   H8X10263   0.944   6.407   5.036 -0.7237 -0.5775 -1.5299
  101SAPE   H8Y10264   0.840   6.267   5.090  0.5259  0.4317  0.4119
  101SAPE   C3910265   1.044   6.225   5.019  0.0121  0.4929 -0.5575
  101SAPE   H9X10266   1.054   6.135   5.083  0.9620  0.3425 -0.9015
  101SAPE   H9Y10267   1.138   6.283   5.005  0.8634 -0.8469 -0.5016
  101SAPE  C31010268   0.987   6.191   4.879 -0.1595  0.5895 -0.9953
  101SAPE  H10X10269   0.878   6.171   4.883  0.0978 -1.0195 -1.2729
  101SAPE  H10Y10270   1.019   6.089   4.850 -2.0349 -0.0975 -0.8184
  101SAPE  C31110271   1.038   6.293   4.780 -0.3261 -0.6521  0.0795
  101SAPE  H11X10272   1.149   6.285   4.774 -0.4496 -2.7693 -0.1744
  101SAPE  H11Y10273   1.027   6.394   4.826  0.7739 -1.7611  3.0244
  101SAPE  C31210274   0.988   6.264   4.638  0.1192 -0.0378 -0.3777
  101SAPE  H12X10275   1.037   6.332   4.566  1.0309 -0.7264 -0.4251
  101SAPE  H12Y10276   0.879   6.285   4.648  0.0954 -0.9741  2.3838
  101SAPE  C31310277   1.011   6.117   4.585  0.5259 -0.5568 -0.1174
  101SAPE  H13X10278   0.956   6.041   4.645 -0.2921  1.5518  1.9318
  101SAPE  H13Y10279   1.120   6.104   4.602  0.4937 -0.9635 -0.2188
  101SAPE  C31410280   0.958   6.107   4.441 -0.3027 -0.6761 -0.1833
  101SAPE  H14X10281   1.025   6.167   4.376 -0.2582 -1.0023 -0.4446
  101SAPE  H14Y10282   0.857   6.155   4.443 -0.2439 -0.5144 -0.7339
  101SAPE  C31510283   0.956   5.960   4.391  0.5554 -0.4772 -0.9646
  101SAPE  H15X10284   0.913   5.901   4.474 -0.8919  0.3626 -1.0957
  101SAPE  H15Y10285   1.055   5.910   4.378  1.0832 -0.1472  1.4067
  101SAPE  C31610286   0.863   5.953   4.264 -0.4144  0.7870 -0.1259
  101SAPE  H16X10287   0.911   6.015   4.185 -0.9499 -0.1550 -1.2154
  101SAPE  H16Y10288   0.766   6.001   4.287 -0.8193  0.0385 -0.2614
  101SAPE  C31710289   0.840   5.808   4.213  0.1929 -0.1831 -0.5225
  101SAPE  H17X10290   0.771   5.821   4.127  1.0281  2.4014 -0.8665
  101SAPE  H17Y10291   0.782   5.761   4.295 -0.0161 -0.9626 -1.0976
  101SAPE  C31810292   0.967   5.728   4.178 -0.2394 -0.7712  0.2255
  101SAPE  H18X10293   0.942   5.651   4.103 -0.3031  0.4845 -1.0843
  101SAPE  H18Y10294   0.996   5.674   4.271  0.2555 -1.0566 -0.0929
  101SAPE  H18Z10295   1.050   5.790   4.137 -0.8011 -1.2524 -1.7433
  102SAPE     N10296   6.936   4.968   6.390 -0.3992 -0.3277 -0.0060
  102SAPE   HN110297   6.991   4.933   6.309  2.3995 -1.2919  2.1583
  102SAPE   HN210298   6.872   4.899   6.435 -3.5492  1.8572 -0.7169
  102SAPE   HN310299   6.878   5.050   6.362  0.0056  0.0061  0.1315
  102SAPE   C1210300   7.033   5.002   6.506  0.0434  0.4147  0.1927
  102SAPE  H12A10301   7.064   4.902   6.544 -0.3272 -0.9086 -2.7066
  102SAPE  H12B10302   6.976   5.065   6.577 -0.3591  1.8547 -1.3417
  102SAPE   C1110303   7.158   5.084   6.452  0.1850  0.1315  0.4039
  102SAPE  H11A10304   7.227   5.014   6.401 -0.3179  0.4644 -0.7657
  102SAPE  H11B10305   7.197   5.121   6.549 -0.5657 -0.3906  0.9200
  102SAPE     P10306   7.115   5.343   6.423  0.0658  0.5629  0.3212
  102SAPE   O1310307   6.995   5.375   6.500 -0.3177  0.1617 -0.3928
  102SAPE   O1410308   7.248   5.361   6.481 -0.0768 -0.5840  0.0860
  102SAPE   O1210309   7.111   5.194   6.374 -0.1270  0.1951 -0.3586
  102SAPE   O1110310   7.117   5.423   6.287 -0.1422  0.0703 -0.5451
  102SAPE    C110311   7.029   5.394   6.180  0.1737  0.2294  0.5498
  102SAPE    HA10312   6.938   5.334   6.204 -0.0823  0.5579  0.4060
  102SAPE    HB10313   6.978   5.488   6.149 -1.7521 -1.3844 -1.5299
  102SAPE    C210314   7.111   5.328   6.057 -0.2267 -0.5234 -1.2086
  102SAPE    HS10315   7.181   5.254   6.102  1.3389  0.8590 -1.2834
  102SAPE   O2110316   7.188   5.445   6.008 -0.1130 -0.1654 -0.3884
  102SAPE   C2110317   7.297   5.419   5.933 -0.3297  0.5031 -0.2774
  102SAPE   O2210318   7.334   5.306   5.904 -0.8801 -0.1790  0.1189
  102SAPE   C2210319   7.356   5.556   5.893  0.4335 -0.1817 -0.1757
  102SAPE   H2R10320   7.273   5.629   5.894  0.2366 -0.4040 -0.2826
  102SAPE   H2S10321   7.441   5.574   5.963  2.0780 -2.8964 -1.2799
  102SAPE    C310322   7.014   5.260   5.958 -0.6180 -0.2724 -0.8331
  102SAPE    HX10323   6.958   5.346   5.915 -1.8380 -0.5847  0.0860
  102SAPE    HY10324   6.944   5.191   6.011  0.2314  0.0591  0.7811
  102SAPE   O3110325   7.076   5.191   5.849  0.1093 -0.2069  0.0803
  102SAPE   C3110326   7.135   5.080   5.871  0.9701  0.6090  1.4088
  102SAPE   O3210327   7.126   5.006   5.968  0.1100  0.2373 -0.8508
  102SAPE   C3210328   7.207   5.052   5.744 -0.2536  0.6500 -0.0753
  102SAPE   H2X10329   7.226   4.942   5.746 -4.0904 -0.2816 -3.0856
  102SAPE   H2Y10330   7.305   5.105   5.746  0.6396 -0.8812  2.8914
  102SAPE   C2310331   7.422   5.562   5.754 -0.4706  0.3563  0.2020
  102SAPE   H3R10332   7.349   5.551   5.670  0.8439  1.5218 -1.1616
  102SAPE   H3S10333   7.501   5.483   5.754  1.3756  2.0339  3.1275
  102SAPE   C2410334   7.495   5.697   5.738  0.2346  0.2523 -0.2718
  102SAPE   H4R10335   7.547   5.688   5.640 -2.1070  0.0221 -1.5749
  102SAPE   H4S10336   7.571   5.704   5.818  1.6325  0.7667 -1.6074
  102SAPE   C2510337   7.399   5.809   5.735  0.0105 -0.5153 -0.1692
  102SAPE   H5R10338   7.365   5.845   5.834  1.7344  2.6065 -0.5883
  102SAPE   C2610339   7.344   5.858   5.622  0.4843  0.5260 -0.1766
  102SAPE   H6R10340   7.276   5.944   5.634  1.2696  1.1822 -0.3961
  102SAPE   C2710341   7.370   5.823   5.478  0.6637 -0.2134  0.2598
  102SAPE   H7R10342   7.474   5.792   5.454  1.0284  1.0040  0.1659
  102SAPE   H7S10343   7.372   5.910   5.408 -1.6138 -0.6674 -0.4539
  102SAPE   C2810344   7.278   5.719   5.426  0.1206  0.3456 -0.1627
  102SAPE   H8R10345   7.214   5.669   5.500  1.5576  0.8075  1.4413
  102SAPE   C2910346   7.259   5.689   5.294 -0.2740 -0.6085  0.2416
  102SAPE   H9R10347   7.187   5.613   5.261 -1.7727  0.8146  0.0843
  102SAPE  C21010348   7.322   5.756   5.178 -0.2736  0.4061  0.3378
  102SAPE  H10R10349   7.424   5.771   5.218  0.7052 -0.5046 -1.6615
  102SAPE  H10S10350   7.274   5.856   5.176  0.5067  0.8067  1.1249
  102SAPE  C21110351   7.326   5.672   5.048 -0.1068 -0.7879 -0.6582
  102SAPE  H11R10352   7.367   5.572   5.066  1.1229 -0.4545 -1.4485
  102SAPE  C21210353   7.267   5.707   4.935 -0.1576 -0.0292 -0.0522
  102SAPE  H12R10354   7.270   5.633   4.854  1.1084  0.1553 -0.2017
  102SAPE  C21310355   7.195   5.836   4.907  0.1024  0.2718 -0.7071
  102SAPE  H13R10356   7.265   5.916   4.877 -0.0269  0.0176 -1.7091
  102SAPE  H13S10357   7.140   5.872   4.997  2.2776  0.6398  0.5361
  102SAPE  C21410358   7.095   5.813   4.791 -0.7007 -0.7376  0.0751
  102SAPE  H14R10359   7.067   5.708   4.778 -1.0708 -0.4724 -1.5010
  102SAPE  C21510360   7.043   5.905   4.710 -0.3787 -0.4564 -0.5243
  102SAPE  H15R10361   6.972   5.872   4.632 -0.8651 -2.0235  0.5268
  102SAPE  C21610362   7.080   6.050   4.719  0.5002 -0.0894 -0.1085
  102SAPE  H16R10363   7.134   6.086   4.629  0.3555  2.3878  0.7144
  102SAPE  H16S10364   7.142   6.077   4.807 -1.9146 -0.9342  1.9905
  102SAPE  C21710365   6.956   6.131   4.736  0.1838  0.3213 -0.0042
  102SAPE  H17R10366   6.981   6.236   4.761 -0.3172  0.4099  0.1315
  102SAPE  H17S10367   6.885   6.100   4.815  0.8813 -1.8430 -0.1675
  102SAPE  C21810368   6.882   6.132   4.598 -0.1303  0.2924 -0.4979
  102SAPE  H18R10369   6.824   6.037   4.599  1.0009 -0.4704  2.5526
  102SAPE  H18S10370   6.954   6.131   4.514  1.6621  0.2963  0.9952
  102SAPE  C21910371   6.780   6.239   4.574  0.5166  0.4450 -0.2124
  102SAPE  H19R10372   6.706   6.243   4.657  0.3334 -0.7302 -0.3003
  102SAPE  H19S10373   6.722   6.222   4.481  0.3145  1.2095 -0.2312
  102SAPE  C22010374   6.830   6.381   4.574 -0.2800  0.0080 -0.4397
  102SAPE  H20R10375   6.865   6.411   4.473 -0.5046 -1.4422 -0.9587
  102SAPE  H20S10376   6.902   6.405   4.656 -1.3938  0.6483  0.3875
  102SAPE  H20T10377   6.744   6.451   4.587  0.2546  0.8375 -1.2544
  102SAPE   C3310378   7.118   5.073   5.618 -0.3149  0.6250  0.2755
  102SAPE   H3X10379   7.077   5.176   5.616 -3.1538 -0.4086  0.4821
  102SAPE   H3Y10380   7.028   5.013   5.641  1.7167 -1.8849  2.2576
  102SAPE   C3410381   7.192   5.048   5.480 -0.1414 -0.6353 -0.3759
  102SAPE   H4X10382   7.121   5.048   5.395 -1.3796 -1.2496  0.6155
  102SAPE   H4Y10383   7.230   4.944   5.479  0.4151 -0.4815  1.3937
  102SAPE   C3510384   7.308   5.147   5.465  0.0756 -0.0154  0.0499
  102SAPE   H5X10385   7.356   5.127   5.367  1.3759  0.0774  0.6389
  102SAPE   H5Y10386   7.385   5.110   5.536 -0.9450 -1.6511  0.3577
  102SAPE   C3610387   7.270   5.294   5.458  0.3255  0.3239 -0.3746
  102SAPE   H6X10388   7.354   5.355   5.417  1.5391 -0.3460  1.0074
  102SAPE   H6Y10389   7.256   5.341   5.558  0.1792 -0.3443 -0.0760
  102SAPE   C3710390   7.148   5.333   5.370  0.7920 -0.4501  0.8794
  102SAPE   H7X10391   7.118   5.440   5.373 -2.1054 -1.1458  0.5854
  102SAPE   H7Y10392   7.059   5.286   5.417 -0.6936 -0.0095 -1.3004
  102SAPE   C3810393   7.149   5.289   5.223  0.5399  0.2085  0.4118
  102SAPE   H8X10394   7.132   5.180   5.217  1.1404  0.1081  0.4119
  102SAPE   H8Y10395   7.252   5.296   5.180  0.1854 -1.2086 -0.7306
  102SAPE   C3910396   7.071   5.378   5.121  0.3804  0.2321  0.7855
  102SAPE   H9X10397   7.118   5.475   5.097  2.2096 -0.5912  0.8691
  102SAPE   H9Y10398   6.969   5.394   5.164  0.1117  3.3721 -0.7556
  102SAPE  C31010399   7.057   5.308   4.981 -0.6245  0.5860  0.0137
  102SAPE  H10X10400   7.018   5.205   4.998  0.2236  0.5165  1.6652
  102SAPE  H10Y10401   7.152   5.303   4.924 -0.8002  2.4193 -0.4963
  102SAPE  C31110402   6.965   5.380   4.889  0.0901  0.2404 -0.5248
  102SAPE  H11X10403   7.005   5.483   4.883  0.2046  0.2188 -0.1638
  102SAPE  H11Y10404   6.868   5.379   4.943  0.6181 -0.5904  0.4496
  102SAPE  C31210405   6.941   5.326   4.745 -0.7174  0.5140  0.3770
  102SAPE  H12X10406   6.862   5.380   4.687  1.1094  1.1879 -1.6304
  102SAPE  H12Y10407   6.907   5.221   4.739 -2.2386  1.0303 -0.7331
  102SAPE  C31310408   7.078   5.329   4.672  0.5892 -0.9878  0.5309
  102SAPE  H13X10409   7.144   5.249   4.711 -1.2024 -2.6267  0.3190
  102SAPE  H13Y10410   7.122   5.429   4.693 -0.0652 -0.6331  0.2555
  102SAPE  C31410411   7.054   5.336   4.517 -0.2798 -1.2631 -0.1121
  102SAPE  H14X10412   6.970   5.401   4.483  0.7468  0.2223  0.0976
  102SAPE  H14Y10413   7.031   5.232   4.486 -2.0106 -0.5848 -1.2801
  102SAPE  C31510414   7.165   5.398   4.436  0.0641  0.6202  0.1605
  102SAPE  H15X10415   7.256   5.337   4.449 -0.5476 -0.3363  0.0709
  102SAPE  H15Y10416   7.189   5.499   4.476 -2.0748  0.9825  0.6776
  102SAPE  C31610417   7.127   5.424   4.285  0.2601  0.4954 -0.1798
  102SAPE  H16X10418   7.208   5.489   4.247 -0.5689  2.0810  0.6696
  102SAPE  H16Y10419   7.038   5.490   4.285  0.7612  1.2657  2.0979
  102SAPE  C31710420   7.093   5.300   4.203  0.6319  0.1374  0.0267
  102SAPE  H17X10421   7.093   5.319   4.094  2.0124 -0.1818 -0.0503
  102SAPE  H17Y10422   6.997   5.253   4.234  1.1021 -0.3813  0.7428
  102SAPE  C31810423   7.196   5.185   4.223 -0.1601 -0.9537 -0.4343
  102SAPE  H18X10424   7.299   5.219   4.196  0.0516 -0.0450  1.3832
  102SAPE  H18Y10425   7.163   5.094   4.169 -3.2362  0.6622 -1.5542
  102SAPE  H18Z10426   7.199   5.163   4.332  0.0273 -2.0765 -0.6535
  103SAPE     N10427   6.271   6.924   2.176  0.5463  0.1368  0.1554
  103SAPE   HN110428   6.208   6.953   2.253 -0.0649 -1.3848  0.2593
  103SAPE   HN210429   6.361   6.888   2.215 -0.6895 -3.4455  0.0182
  103SAPE   HN310430   6.297   7.005   2.116  0.2682 -0.9292 -1.4545
  103SAPE   C1210431   6.216   6.828   2.075 -0.2756  0.2163  0.9241
  103SAPE  H12A10432   6.187   6.737   2.132 -2.4806  0.2100 -0.0991
  103SAPE  H12B10433   6.289   6.798   1.997 -0.5573  0.2304  0.6564
  103SAPE   C1110434   6.094   6.882   2.003 -0.2393 -0.6775 -0.8188
  103SAPE  H11A10435   6.064   6.800   1.933  1.3960  0.4517 -2.9512
  103SAPE  H11B10436   6.118   6.971   1.941 -2.2059  0.4039 -0.1220
  103SAPE     P10437   5.945   7.051   2.151 -0.1738 -0.2650  0.0121
  103SAPE   O1310438   5.917   7.142   2.035 -0.3485 -0.0272 -0.0396
  103SAPE   O1410439   5.827   7.035   2.243  0.3288  0.9093  0.2919
  103SAPE   O1210440   5.986   6.907   2.100  0.1552 -0.3300  0.5324
  103SAPE   O1110441   6.069   7.099   2.231 -0.2836 -0.0405  0.2654
  103SAPE    C110442   6.077   7.222   2.303 -0.0158 -0.3232  0.4986
  103SAPE    HA10443   6.137   7.296   2.245  0.5773 -0.8808  0.3894
  103SAPE    HB10444   5.981   7.270   2.332  1.2639  1.5343  1.9993
  103SAPE    C210445   6.138   7.196   2.447 -0.9330 -0.0658 -0.1219
  103SAPE    HS10446   6.239   7.155   2.428 -0.6854  0.6601 -0.4109
  103SAPE   O2110447   6.058   7.110   2.529  0.1605  0.3822  0.2884
  103SAPE   C2110448   6.090   6.981   2.516  0.2766  0.1538 -0.5143
  103SAPE   O2210449   6.153   6.929   2.428  0.4610  0.2711 -0.7989
  103SAPE   C2210450   6.017   6.905   2.626 -0.5584  0.0928  0.7053
  103SAPE   H2R10451   5.983   6.971   2.708  0.3379  0.0134  1.1567
  103SAPE   H2S10452   5.931   6.860   2.572  1.2830 -4.2458  0.9213
  103SAPE    C310453   6.146   7.329   2.524  0.1734  0.6472  0.6512
  103SAPE    HX10454   6.066   7.401   2.495  1.5487  2.3931  1.0065
  103SAPE    HY10455   6.240   7.372   2.482  0.5058  1.4090  2.1079
  103SAPE   O3110456   6.165   7.320   2.669 -0.1141 -0.1639  0.5309
  103SAPE   C3110457   6.084   7.391   2.745  0.8193  0.6250  0.2151
  103SAPE   O3210458   5.993   7.462   2.708 -0.0825 -0.4896  0.0038
  103SAPE   C3210459   6.116   7.373   2.890 -0.8455  0.3233 -0.3107
  103SAPE   H2X10460   6.221   7.404   2.910 -0.3262 -0.0880 -2.1394
  103SAPE   H2Y10461   6.100   7.269   2.925 -1.2860 -0.3774 -2.4595
  103SAPE   C2310462   6.105   6.793   2.689 -0.1430 -0.2899 -1.3994
  103SAPE   H3R10463   6.173   6.740   2.619  0.4721 -0.5994 -0.5868
  103SAPE   H3S10464   6.030   6.722   2.730  1.6004 -0.2259  2.3163
  103SAPE   C2410465   6.175   6.846   2.822  0.1217  0.4571 -0.2957
  103SAPE   H4R10466   6.231   6.761   2.868  1.0381  1.1802 -0.0503
  103SAPE   H4S10467   6.096   6.884   2.889  1.3682 -0.4109  1.7927
  103SAPE   C2510468   6.286   6.936   2.784  0.1877 -0.9770  0.7054
  103SAPE   H5R10469   6.322   6.918   2.681 -1.1402 -0.0665  0.0490
  103SAPE   C2610470   6.331   7.039   2.861  0.4060 -0.2475  0.3532
  103SAPE   H6R10471   6.414   7.096   2.817 -0.2064  1.1500  0.9708
  103SAPE   C2710472   6.291   7.065   3.010 -0.3215 -0.2419  0.6641
  103SAPE   H7R10473   6.180   7.056   3.015 -0.3744  0.6164  1.2660
  103SAPE   H7S10474   6.313   7.172   3.032 -2.2762  0.7710 -1.7392
  103SAPE   C2810475   6.360   6.986   3.117 -0.1829 -0.4325  0.0274
  103SAPE   H8R10476   6.468   6.966   3.107 -0.2174 -0.6635  0.1140
  103SAPE   C2910477   6.302   6.926   3.224  0.0184 -0.7083 -0.2587
  103SAPE   H9R10478   6.361   6.866   3.296 -0.9242  0.4622  1.5639
  103SAPE  C21010479   6.157   6.920   3.254 -0.1499 -0.5585 -0.0942
  103SAPE  H10R10480   6.104   6.850   3.185 -1.2825 -0.8662  1.0515
  103SAPE  H10S10481   6.108   7.017   3.232 -0.4167 -0.6177  0.2206
  103SAPE  C21110482   6.102   6.883   3.390 -0.1123  0.2811  0.6348
  103SAPE  H11R10483   6.100   6.776   3.414  0.5630 -0.2609 -1.5310
  103SAPE  C21210484   6.041   6.969   3.474  0.2031  0.2235  0.7747
  103SAPE  H12R10485   5.982   6.935   3.561 -0.8249  3.3844  1.4500
  103SAPE  C21310486   6.025   7.118   3.446 -0.4081  0.3168  0.3186
  103SAPE  H13R10487   5.950   7.124   3.365 -0.1170 -1.3272 -0.1244
  103SAPE  H13S10488   6.105   7.166   3.385 -1.5810  0.4349 -1.1832
  103SAPE  C21410489   5.999   7.205   3.563 -0.2937 -0.7673 -0.4041
  103SAPE  H14R10490   6.087   7.255   3.607  1.4948 -3.5528 -0.5106
  103SAPE  C21510491   5.882   7.245   3.609 -0.1585 -0.1909 -1.0195
  103SAPE  H15R10492   5.885   7.315   3.693  0.6045 -1.8099  0.3732
  103SAPE  C21610493   5.751   7.202   3.555 -0.0584  0.5230  0.1172
  103SAPE  H16R10494   5.756   7.106   3.499 -1.1636  0.8943 -0.6617
  103SAPE  H16S10495   5.707   7.262   3.472  0.1432 -0.2106 -0.5285
  103SAPE  C21710496   5.635   7.204   3.660 -0.7436 -0.1238  0.0624
  103SAPE  H17R10497   5.544   7.175   3.604  1.0474 -1.4397 -2.3188
  103SAPE  H17S10498   5.625   7.311   3.688 -2.4236 -0.1932 -0.1843
  103SAPE  C21810499   5.658   7.107   3.780  0.2466 -0.2289  0.6529
  103SAPE  H18R10500   5.734   7.147   3.851  0.7846 -2.5636  1.4886
  103SAPE  H18S10501   5.705   7.015   3.739 -0.3641 -1.0523  1.7412
  103SAPE  C21910502   5.526   7.070   3.841 -0.0381  0.1474 -0.6145
  103SAPE  H19R10503   5.548   7.011   3.932  3.3561 -0.1690 -1.5049
  103SAPE  H19S10504   5.473   7.008   3.766 -1.8129  0.0402  0.6541
  103SAPE  C22010505   5.429   7.181   3.870 -0.3259  0.2351  0.1387
  103SAPE  H20R10506   5.475   7.250   3.944 -2.0086 -0.3779  1.8472
  103SAPE  H20S10507   5.330   7.149   3.910 -2.4083  1.3278 -3.6819
  103SAPE  H20T10508   5.400   7.237   3.779  1.6337  1.5455  0.2664
  103SAPE   C3310509   6.021   7.455   2.980  0.7216 -0.0584 -0.4763
  103SAPE   H3X10510   5.914   7.427   2.977  0.6337  0.0214  1.0270
  103SAPE   H3Y10511   6.018   7.564   2.955 -1.9138  0.7809  2.8148
  103SAPE   C3410512   6.057   7.445   3.128 -0.0635 -0.9682 -0.0562
  103SAPE   H4X10513   6.167   7.458   3.131 -0.2731  1.7912 -0.8171
  103SAPE   H4Y10514   6.023   7.351   3.175 -1.4279 -0.4196  0.1105
  103SAPE   C3510515   5.991   7.554   3.210  0.2203 -0.3896 -0.2201
  103SAPE   H5X10516   5.883   7.537   3.230 -0.3753 -0.5102 -3.1136
  103SAPE   H5Y10517   6.007   7.650   3.158 -0.1361  0.8367  1.8167
  103SAPE   C3610518   6.067   7.570   3.340 -0.6131  0.5112  0.4230
  103SAPE   H6X10519   6.177   7.583   3.333 -0.3999 -0.4590  1.7717
  103SAPE   H6Y10520   6.055   7.487   3.413 -0.7474 -0.0644 -0.2437
  103SAPE   C3710521   6.041   7.698   3.416 -1.0550  0.3585 -0.0921
  103SAPE   H7X10522   5.931   7.704   3.427 -1.1427  0.8446 -1.1558
  103SAPE   H7Y10523   6.060   7.789   3.356  0.2518 -1.0170 -1.8623
  103SAPE   C3810524   6.115   7.703   3.553  0.1784 -0.1836  0.0810
  103SAPE   H8X10525   6.099   7.799   3.606 -0.6449 -1.6720  2.7078
  103SAPE   H8Y10526   6.226   7.693   3.552  0.1119 -1.8695  1.9503
  103SAPE   C3910527   6.068   7.604   3.663  0.8501 -0.1061  0.4074
  103SAPE   H9X10528   6.141   7.612   3.747 -0.5604 -0.8699  1.7544
  103SAPE   H9Y10529   6.074   7.497   3.637  2.9209  0.4899 -1.9494
  103SAPE  C31010530   5.941   7.657   3.731  0.0826 -0.0894  0.1426
  103SAPE  H10X10531   5.854   7.639   3.666 -1.6591  0.1797  2.2818
  103SAPE  H10Y10532   5.930   7.766   3.752 -0.4304  0.0300 -0.7163
  103SAPE  C31110533   5.907   7.570   3.858  0.5028  0.0981 -0.4818
  103SAPE  H11X10534   5.982   7.612   3.929  1.0628 -1.8657  0.1257
  103SAPE  H11Y10535   5.938   7.466   3.835  1.2541  0.3545 -0.6769
  103SAPE  C31210536   5.771   7.583   3.911 -0.6083  0.2180  0.2551
  103SAPE  H12X10537   5.697   7.561   3.831 -0.2228 -1.9569  0.4162
  103SAPE  H12Y10538   5.764   7.690   3.941  2.2072  0.3746  0.6160
  103SAPE  C31310539   5.733   7.495   4.031  0.5069 -0.4649 -0.4062
  103SAPE  H13X10540   5.771   7.538   4.125  2.7307  0.5990 -1.7093
  103SAPE  H13Y10541   5.761   7.388   4.020  4.5535  0.3054  1.0204
  103SAPE  C31410542   5.581   7.486   4.056 -0.1765 -0.3740 -0.5835
  103SAPE  H14X10543   5.522   7.453   3.968  0.7744 -0.2240 -1.2888
  103SAPE  H14Y10544   5.535   7.588   4.055 -4.6357 -2.1440 -0.7977
  103SAPE  C31510545   5.557   7.401   4.185  0.4107  0.3001  0.0335
  103SAPE  H15X10546   5.636   7.430   4.258  1.1792  0.9488 -1.0341
  103SAPE  H15Y10547   5.570   7.293   4.163  1.4451  0.3041  0.6057
  103SAPE  C31610548   5.411   7.420   4.237  0.6914  0.2515 -0.3470
  103SAPE  H16X10549   5.336   7.418   4.155  0.5264  0.6142 -0.2064
  103SAPE  H16Y10550   5.402   7.522   4.280  0.0970  0.0869 -0.0700
  103SAPE  C31710551   5.371   7.314   4.336  0.4914 -0.1361 -0.2193
  103SAPE  H17X10552   5.410   7.216   4.303 -0.5723 -0.4098 -0.6972
  103SAPE  H17Y10553   5.260   7.309   4.340  0.5447 -2.5462 -0.5595
  103SAPE  C31810554   5.423   7.348   4.482 -0.0658 -0.0397  0.1427
  103SAPE  H18X10555   5.533   7.340   4.474 -0.1345 -1.9211  0.5078
  103SAPE  H18Y10556   5.393   7.282   4.566  2.3795 -2.5910 -0.8352
  103SAPE  H18Z10557   5.395   7.452   4.510 -0.7600 -0.6618  1.9383
  104SAPE     N10558   6.700   0.241   1.753 -0.2504 -1.0093 -0.2394
  104SAPE   HN110559   6.599   0.264   1.742  0.0867  1.5924  1.2670
  104SAPE   HN210560   6.748   0.320   1.706 -2.2892  1.4587  1.5579
  104SAPE   HN310561   6.725   0.147   1.717  2.5001 -1.0729  1.5723
  104SAPE   C1210562   6.727   0.252   1.902  0.0532  0.2099  0.4268
  104SAPE  H12A10563   6.836   0.265   1.915  0.1565  1.1586 -1.0645
  104SAPE  H12B10564   6.694   0.154   1.943 -0.2060 -0.6885 -1.7809
  104SAPE   C1110565   6.644   0.364   1.960 -0.1172 -0.2642 -0.3795
  104SAPE  H11A10566   6.689   0.462   1.933  0.5177 -0.4129  0.1268
  104SAPE  H11B10567   6.666   0.349   2.068  2.1392  0.0072 -0.7395
  104SAPE     P10568   6.394   0.315   2.011 -0.0505  0.1587 -0.3355
  104SAPE   O1310569   6.259   0.356   1.954 -0.0622 -0.5092 -0.4300
  104SAPE   O1410570   6.397   0.172   2.057  0.2378 -0.0167  0.0419
  104SAPE   O1210571   6.509   0.347   1.914  0.2586 -0.4631 -0.4870
  104SAPE   O1110572   6.423   0.406   2.134  0.1238  0.0515  0.0540
  104SAPE    C110573   6.430   0.548   2.116 -1.4253 -0.1391 -0.5763
  104SAPE    HA10574   6.537   0.578   2.122 -1.9231  1.7281 -0.4852
  104SAPE    HB10575   6.398   0.577   2.013  0.3403 -0.2230 -1.1958
  104SAPE    C210576   6.360   0.639   2.225 -0.0805 -0.0419 -0.1441
  104SAPE    HS10577   6.413   0.737   2.218 -1.7684  1.2422  2.8515
  104SAPE   O2110578   6.379   0.583   2.353  0.0887  0.0769 -0.1124
  104SAPE   C2110579   6.502   0.604   2.400  0.1633  0.3690  0.2107
  104SAPE   O2210580   6.585   0.678   2.353 -0.1885 -0.2268  0.5377
  104SAPE   C2210581   6.530   0.519   2.520 -0.3051  0.0556 -0.4884
  104SAPE   H2R10582   6.591   0.583   2.587 -0.0602 -0.1397 -0.5219
  104SAPE   H2S10583   6.437   0.497   2.577  0.2113  0.4008  0.5137
  104SAPE    C310584   6.208   0.666   2.193 -0.0667  0.5992 -0.7053
  104SAPE    HX10585   6.159   0.571   2.162 -0.6682  0.2857  1.0897
  104SAPE    HY10586   6.201   0.731   2.104 -1.6265 -2.5130 -3.0773
  104SAPE   O3110587   6.125   0.718   2.298 -0.7238  0.9193  0.0139
  104SAPE   C3110588   6.137   0.851   2.311  0.0791 -0.2360 -0.1138
  104SAPE   O3210589   6.219   0.916   2.248  0.6819 -0.3659  0.4914
  104SAPE   C3210590   6.040   0.901   2.424 -0.4286  0.0169  0.3559
  104SAPE   H2X10591   6.059   0.844   2.517  1.9678 -0.3674 -0.3001
  104SAPE   H2Y10592   5.943   0.868   2.383  1.8334 -4.0297 -2.4684
  104SAPE   C2310593   6.607   0.390   2.490 -0.8373 -0.4018  0.0776
  104SAPE   H3R10594   6.703   0.411   2.438  0.7865 -1.7749  2.3530
  104SAPE   H3S10595   6.541   0.328   2.426 -1.2625 -0.1285  0.2481
  104SAPE   C2410596   6.643   0.283   2.599  0.2604 -0.4839  0.4442
  104SAPE   H4R10597   6.678   0.190   2.550  3.0534  0.3786  0.6307
  104SAPE   H4S10598   6.551   0.252   2.653 -1.2476  0.7809 -1.2683
  104SAPE   C2510599   6.743   0.346   2.686 -0.0500 -0.7914  0.6137
  104SAPE   H5R10600   6.835   0.373   2.633 -0.5144  0.5634  0.4470
  104SAPE   C2610601   6.742   0.360   2.817 -0.2008 -0.0479 -1.0885
  104SAPE   H6R10602   6.828   0.406   2.867  0.3944 -1.4393 -0.7929
  104SAPE   C2710603   6.638   0.312   2.915 -0.9137  0.5577 -0.0900
  104SAPE   H7R10604   6.681   0.271   3.009  1.1055  1.9267 -0.3650
  104SAPE   H7S10605   6.576   0.229   2.877  0.1982  0.3361 -1.4997
  104SAPE   C2810606   6.536   0.416   2.954 -1.0516 -0.3155 -0.1416
  104SAPE   H8R10607   6.528   0.496   2.879  1.4894  0.9208  0.7935
  104SAPE   C2910608   6.492   0.431   3.083  0.3608 -0.4772 -0.1534
  104SAPE   H9R10609   6.436   0.520   3.116  2.9570  1.2267 -0.0312
  104SAPE  C21010610   6.510   0.332   3.199 -0.3526 -1.0203  0.3630
  104SAPE  H10R10611   6.564   0.243   3.159  0.5745  1.2229 -3.9879
  104SAPE  H10S10612   6.413   0.293   3.238  0.7267 -2.1030  2.1646
  104SAPE  C21110613   6.601   0.390   3.304 -0.0037  0.6739  0.5894
  104SAPE  H11R10614   6.704   0.414   3.272  0.4247  0.6725  1.9123
  104SAPE  C21210615   6.563   0.414   3.434 -0.1069 -0.3792  0.1366
  104SAPE  H12R10616   6.634   0.454   3.508 -0.8991 -1.2844  1.4407
  104SAPE  C21310617   6.417   0.391   3.489  0.2222 -0.1703  0.5760
  104SAPE  H13R10618   6.340   0.422   3.416  2.4884  2.4209 -0.8877
  104SAPE  H13S10619   6.406   0.459   3.576  2.4604  0.4946  0.4176
  104SAPE  C21410620   6.392   0.247   3.528  0.2431  0.2068  0.2165
  104SAPE  H14R10621   6.364   0.178   3.447  0.7592  0.4584 -0.1808
  104SAPE  C21510622   6.379   0.192   3.653 -0.6418  0.2779 -0.1831
  104SAPE  H15R10623   6.344   0.090   3.674  0.4175  0.5549  3.8556
  104SAPE  C21610624   6.389   0.262   3.792  0.2686  0.4811 -0.0982
  104SAPE  H16R10625   6.425   0.368   3.787  0.2270  0.4588 -1.1548
  104SAPE  H16S10626   6.454   0.202   3.859  1.4686  2.5954  0.7430
  104SAPE  C21710627   6.274   0.256   3.877  0.3927  0.2560  0.3194
  104SAPE  H17R10628   6.224   0.157   3.886 -1.9335  1.4747  1.8952
  104SAPE  H17S10629   6.197   0.322   3.833  0.4482  1.0204  1.3448
  104SAPE  C21810630   6.300   0.304   4.025 -0.1350  0.1724 -0.1071
  104SAPE  H18R10631   6.304   0.415   4.025  0.5642  0.2503 -3.0833
  104SAPE  H18S10632   6.394   0.256   4.062 -0.6896 -0.6630  0.2586
  104SAPE  C21910633   6.180   0.274   4.124 -0.1434  0.0797 -0.3331
  104SAPE  H19R10634   6.219   0.302   4.224  0.4956  2.1227 -1.0924
  104SAPE  H19S10635   6.162   0.165   4.130  0.7621 -0.0711 -0.0968
  104SAPE  C22010636   6.056   0.344   4.077  0.4056  0.0400  0.6481
  104SAPE  H20R10637   6.020   0.293   3.985 -1.6362  2.6413 -0.1439
  104SAPE  H20S10638   6.079   0.449   4.048 -1.9282  0.2291 -0.7713
  104SAPE  H20T10639   5.977   0.342   4.155  0.1702  0.6146  0.4354
  104SAPE   C3310640   6.076   1.055   2.451  0.5946  0.0022  0.3977
  104SAPE   H3X10641   6.045   1.105   2.357  0.0198  0.5301  0.8575
  104SAPE   H3Y10642   6.186   1.067   2.462  0.7101  0.9955 -1.5107
  104SAPE   C3410643   5.997   1.118   2.565 -0.3406 -0.5262 -0.0109
  104SAPE   H4X10644   6.004   1.047   2.651 -0.3034 -2.7157 -1.7300
  104SAPE   H4Y10645   5.889   1.122   2.539  0.2395 -2.6468 -3.3413
  104SAPE   C3510646   6.042   1.261   2.602  0.6079 -0.3097  0.5097
  104SAPE   H5X10647   6.011   1.322   2.514  0.8563 -0.2571  0.4578
  104SAPE   H5Y10648   6.151   1.251   2.621  0.6681 -2.0615 -0.5308
  104SAPE   C3610649   5.975   1.324   2.724 -0.0456 -0.1135 -0.5281
  104SAPE   H6X10650   5.868   1.295   2.728  0.2342 -1.6358 -2.5999
  104SAPE   H6Y10651   5.984   1.434   2.712 -0.6476 -0.1096 -0.9975
  104SAPE   C3710652   6.032   1.270   2.859 -0.0749 -0.1112  0.8757
  104SAPE   H7X10653   6.142   1.284   2.863  0.2866 -2.0902 -0.6142
  104SAPE   H7Y10654   6.025   1.160   2.848  0.2931 -0.0708  0.2292
  104SAPE   C3810655   5.954   1.329   2.977 -0.7006  0.3181 -0.3596
  104SAPE   H8X10656   5.848   1.302   2.963 -0.2502 -1.5203 -0.4069
  104SAPE   H8Y10657   5.981   1.437   2.971  2.5480 -0.3830 -0.2425
  104SAPE   C3910658   6.007   1.281   3.118  0.2796  0.2976 -0.3197
  104SAPE   H9X10659   6.115   1.306   3.125  0.3479 -0.2805  0.8264
  104SAPE   H9Y10660   5.992   1.171   3.126  2.7003 -0.3128 -2.6417
  104SAPE  C31010661   5.925   1.333   3.237 -0.8838 -0.6113 -0.6921
  104SAPE  H10X10662   5.817   1.306   3.238 -1.2024  0.6501  0.1644
  104SAPE  H10Y10663   5.928   1.443   3.225 -0.7194 -0.6720 -1.2604
  104SAPE  C31110664   6.001   1.302   3.370  0.7574  0.6999  0.4060
  104SAPE  H11X10665   6.106   1.337   3.361  0.6242  0.7670 -1.2226
  104SAPE  H11Y10666   6.001   1.192   3.388 -1.1776  0.8375  1.4713
  104SAPE  C31210667   5.932   1.352   3.500 -0.5075 -0.4537  0.2211
  104SAPE  H12X10668   5.842   1.288   3.515 -1.1997  0.3180 -0.4966
  104SAPE  H12Y10669   5.890   1.454   3.485  2.3080  0.5015 -1.8060
  104SAPE  C31310670   6.019   1.355   3.622 -0.0663 -0.3915  0.2836
  104SAPE  H13X10671   5.981   1.418   3.706  2.9525  0.4383  1.1638
  104SAPE  H13Y10672   6.112   1.409   3.593  0.4717 -0.4745  1.7429
  104SAPE  C31410673   6.051   1.216   3.673  0.0122  0.4865  0.4781
  104SAPE  H14X10674   6.077   1.141   3.594 -1.5403  0.6726 -0.2330
  104SAPE  H14Y10675   5.974   1.167   3.736  0.7520 -0.5453  0.6118
  104SAPE  C31510676   6.183   1.227   3.749  0.0212  0.3914 -0.3917
  104SAPE  H15X10677   6.191   1.143   3.822 -3.1201 -0.0763 -0.4306
  104SAPE  H15Y10678   6.169   1.322   3.805  0.5723  0.4012 -0.2685
  104SAPE  C31610679   6.314   1.230   3.662 -0.7265  0.5969 -0.4367
  104SAPE  H16X10680   6.302   1.297   3.575 -1.6917 -0.1828 -0.9255
  104SAPE  H16Y10681   6.325   1.124   3.629  0.9641  0.5883  0.0318
  104SAPE  C31710682   6.445   1.244   3.743 -0.1323  0.1106 -0.2447
  104SAPE  H17X10683   6.537   1.216   3.689  0.4827  1.2537  0.1666
  104SAPE  H17Y10684   6.439   1.168   3.824 -0.9624 -0.0675 -0.4592
  104SAPE  C31810685   6.478   1.381   3.814  0.0547 -0.6727  0.1712
  104SAPE  H18X10686   6.570   1.368   3.874 -0.7276 -0.7455  1.3917
  104SAPE  H18Y10687   6.398   1.425   3.878 -0.0244 -0.2305 -0.2219
  104SAPE  H18Z10688   6.492   1.463   3.741 -1.2336 -2.7031 -2.5171
  105SAPE     N10689   3.645   2.349   2.486 -0.3095  0.2262  0.5084
  105SAPE   HN110690   3.739   2.386   2.463 -0.5869 -0.4156 -1.8852
  105SAPE   HN210691   3.604   2.334   2.392 -1.2213  0.5841  0.8331
  105SAPE   HN310692   3.596   2.429   2.531  0.5764  0.0299  1.8854
  105SAPE   C1210693   3.618   2.219   2.561 -0.1081  0.1974 -0.5789
  105SAPE  H12A10694   3.680   2.220   2.654  1.5672 -1.5708 -1.5912
  105SAPE  H12B10695   3.651   2.140   2.490 -0.6079  1.0141 -1.7560
  105SAPE   C1110696   3.469   2.196   2.586 -0.2503  0.2215 -0.4789
  105SAPE  H11A10697   3.425   2.274   2.651  1.4325  0.6513  0.1805
  105SAPE  H11B10698   3.457   2.106   2.650  0.9663  0.2651 -0.1689
  105SAPE     P10699   3.364   2.045   2.397  0.4496 -0.2396 -0.1656
  105SAPE   O1310700   3.365   2.072   2.255  0.2228  0.2346 -0.5108
  105SAPE   O1410701   3.450   1.930   2.441 -0.1511 -0.2080  0.1836
  105SAPE   O1210702   3.403   2.181   2.460  0.1129 -0.2412 -0.0518
  105SAPE   O1110703   3.216   2.012   2.441 -0.2129  0.5401 -0.1400
  105SAPE    C110704   3.170   2.002   2.580  0.0296  0.1733 -0.0062
  105SAPE    HA10705   3.106   1.913   2.595 -2.1211  1.5427 -0.6476
  105SAPE    HB10706   3.255   2.004   2.652 -1.3289  1.0201  1.6363
  105SAPE    C210707   3.080   2.119   2.623  0.7507 -0.2769 -0.0147
  105SAPE    HS10708   3.136   2.211   2.597 -1.0541  0.6879 -0.6819
  105SAPE   O2110709   3.037   2.111   2.764 -0.1823 -0.0549  0.0054
  105SAPE   C2110710   3.117   2.178   2.842 -0.4477  0.1683  0.5133
  105SAPE   O2210711   3.231   2.215   2.817  0.7453 -0.1483  0.4443
  105SAPE   C2210712   3.031   2.225   2.966 -0.2328  0.1381  0.7245
  105SAPE   H2R10713   2.943   2.281   2.926 -1.4530 -0.6232  2.2423
  105SAPE   H2S10714   3.008   2.129   3.016  1.8141  0.0715  1.6285
  105SAPE    C310715   2.951   2.118   2.533 -0.6676 -0.2045 -0.1894
  105SAPE    HX10716   2.980   2.126   2.426 -3.0427 -3.9558 -1.2995
  105SAPE    HY10717   2.899   2.211   2.565  3.0972  1.3432  2.1179
  105SAPE   O3110718   2.888   1.990   2.549 -0.2924  0.0514 -0.5205
  105SAPE   C3110719   2.778   1.986   2.627 -0.3723 -0.5472 -0.2640
  105SAPE   O3210720   2.716   2.084   2.656  0.0818 -0.0918 -0.3893
  105SAPE   C3210721   2.733   1.842   2.659 -0.4832  0.4865 -0.7078
  105SAPE   H2X10722   2.805   1.765   2.624 -0.2981 -0.3618  1.3807
  105SAPE   H2Y10723   2.636   1.838   2.606 -0.8838 -2.8160  0.0692
  105SAPE   C2310724   3.106   2.328   3.050 -0.0778  0.0175 -0.4597
  105SAPE   H3R10725   3.138   2.414   2.987 -0.4903 -0.1887 -0.9587
  105SAPE   H3S10726   3.200   2.279   3.085 -0.1649  0.2422  0.0948
  105SAPE   C2410727   3.040   2.373   3.178  0.5595  0.0604 -0.5387
  105SAPE   H4R10728   2.940   2.410   3.144  0.2396 -0.0643  0.2410
  105SAPE   H4S10729   3.094   2.465   3.210  1.6894 -0.3881 -1.0980
  105SAPE   C2510730   3.031   2.268   3.282 -0.1606  0.4093  0.0932
  105SAPE   H5R10731   2.995   2.173   3.239 -1.0025  0.6299  0.2952
  105SAPE   C2610732   3.070   2.271   3.413 -0.6059  0.2245 -0.2962
  105SAPE   H6R10733   3.058   2.177   3.470  0.5588  0.7533  0.8561
  105SAPE   C2710734   3.124   2.397   3.483 -0.1956  0.0764 -0.4343
  105SAPE   H7R10735   3.122   2.492   3.426 -3.0965  1.4045  1.5972
  105SAPE   H7S10736   3.231   2.380   3.506  0.5392  3.5341 -0.7787
  105SAPE   C2810737   3.040   2.418   3.609 -0.0038  0.0914  0.0393
  105SAPE   H8R10738   2.932   2.432   3.593  0.0170 -0.0470 -0.2328
  105SAPE   C2910739   3.087   2.440   3.735  0.0033  1.6000 -0.4287
  105SAPE   H9R10740   3.020   2.461   3.819  0.1166  0.4468 -0.0258
  105SAPE  C21010741   3.232   2.438   3.765  0.1355  0.3213  0.3445
  105SAPE  H10R10742   3.264   2.540   3.795  1.0394  0.2849 -0.4348
  105SAPE  H10S10743   3.298   2.416   3.678  0.8565  1.4942  0.5675
  105SAPE  C21110744   3.257   2.340   3.871 -0.3177 -0.0775 -0.0999
  105SAPE  H11R10745   3.229   2.236   3.848  0.2373  0.1235 -1.8533
  105SAPE  C21210746   3.312   2.372   3.989  0.2205 -0.8694 -0.1708
  105SAPE  H12R10747   3.332   2.298   4.068  0.9450  0.4166  0.8666
  105SAPE  C21310748   3.343   2.512   4.041 -0.0912 -0.2052 -0.3854
  105SAPE  H13R10749   3.358   2.503   4.150 -0.5393  1.1294 -0.2007
  105SAPE  H13S10750   3.255   2.578   4.032 -1.4212 -2.0114 -1.2338
  105SAPE  C21410751   3.476   2.568   3.990 -0.0607  0.3908 -0.3947
  105SAPE  H14R10752   3.510   2.521   3.897  1.1554 -0.1259  0.2768
  105SAPE  C21510753   3.549   2.672   4.040 -0.0747  0.2929  0.5381
  105SAPE  H15R10754   3.640   2.698   3.983 -0.4720 -1.8545 -1.2233
  105SAPE  C21610755   3.520   2.763   4.153 -0.1696 -0.8026 -0.0348
  105SAPE  H16R10756   3.596   2.773   4.233  0.6969  0.8699 -1.0221
  105SAPE  H16S10757   3.420   2.749   4.200  0.0827  0.8072  1.0536
  105SAPE  C21710758   3.521   2.913   4.105 -0.0887 -0.6610 -0.3092
  105SAPE  H17R10759   3.428   2.937   4.048  0.5744  3.6669  0.0810
  105SAPE  H17S10760   3.615   2.932   4.049 -1.3062  0.5873 -2.0726
  105SAPE  C21810761   3.515   3.018   4.220 -0.0412  0.4926  0.2151
  105SAPE  H18R10762   3.577   3.106   4.192  1.8910 -0.5543  1.0272
  105SAPE  H18S10763   3.562   2.968   4.307  1.5749 -0.4089 -1.1085
  105SAPE  C21910764   3.370   3.047   4.265  0.2133 -0.9786 -0.3162
  105SAPE  H19R10765   3.328   2.948   4.294  1.0677 -1.6510 -1.2976
  105SAPE  H19S10766   3.309   3.058   4.173  0.1786 -1.6887 -0.3891
  105SAPE  C22010767   3.341   3.169   4.359 -0.1630  0.4274  0.0208
  105SAPE  H20R10768   3.400   3.144   4.450  2.3972  1.2091 -1.3250
  105SAPE  H20S10769   3.236   3.174   4.393 -0.0039  0.6976  0.4760
  105SAPE  H20T10770   3.375   3.259   4.304  1.7656 -0.0004  0.4253
  105SAPE   C3310771   2.710   1.821   2.812 -0.5803 -0.3995 -0.6069
  105SAPE   H3X10772   2.629   1.748   2.833 -0.3280 -0.1611  1.4274
  105SAPE   H3Y10773   2.689   1.917   2.862 -2.1667 -0.8988 -0.2576
  105SAPE   C3410774   2.845   1.788   2.886 -0.2077  0.7943  0.7462
  105SAPE   H4X10775   2.930   1.836   2.832 -0.5035 -0.5377 -0.9747
  105SAPE   H4Y10776   2.861   1.678   2.887 -2.2357  0.4358  2.7424
  105SAPE   C3510777   2.856   1.836   3.028  0.4302 -0.6176  0.0390
  105SAPE   H5X10778   2.755   1.821   3.072  0.9643 -2.9595  0.6049
  105SAPE   H5Y10779   2.889   1.942   3.027  1.0040 -0.7963 -0.5181
  105SAPE   C3610780   2.954   1.757   3.115  0.0235  0.2147  0.0508
  105SAPE   H6X10781   3.051   1.752   3.060  0.1111  1.4695  0.0699
  105SAPE   H6Y10782   2.930   1.650   3.132  2.3066 -0.4665 -0.5472
  105SAPE   C3710783   2.990   1.824   3.246 -0.5923  0.0851 -0.5613
  105SAPE   H7X10784   3.010   1.931   3.227 -0.4247  0.2436  0.5064
  105SAPE   H7Y10785   3.087   1.781   3.277  0.6568  2.7939 -0.4773
  105SAPE   C3810786   2.884   1.811   3.363 -0.4798 -0.6062  0.8627
  105SAPE   H8X10787   2.867   1.706   3.395 -0.9109 -1.6902 -2.5692
  105SAPE   H8Y10788   2.790   1.856   3.326 -0.0298  0.4789  1.0137
  105SAPE   C3910789   2.924   1.899   3.496  0.7072  0.6179 -0.0281
  105SAPE   H9X10790   2.985   1.988   3.470 -1.1125  1.8432 -0.2760
  105SAPE   H9Y10791   3.003   1.833   3.539 -1.7886 -3.2577 -0.8482
  105SAPE  C31010792   2.803   1.925   3.587  0.3378  0.2757 -0.2459
  105SAPE  H10X10793   2.761   1.836   3.639  2.0329  0.5558  1.7286
  105SAPE  H10Y10794   2.717   1.959   3.524 -0.5205 -0.3484  0.5595
  105SAPE  C31110795   2.839   2.024   3.699  0.0012 -0.1075  0.4481
  105SAPE  H11X10796   2.880   2.118   3.655  0.9366 -1.2196 -1.1446
  105SAPE  H11Y10797   2.917   1.967   3.753 -0.1884 -1.0784 -0.2901
  105SAPE  C31210798   2.717   2.056   3.792 -0.1929 -0.6391  0.2276
  105SAPE  H12X10799   2.661   1.963   3.812 -0.7635 -0.0626  1.3725
  105SAPE  H12Y10800   2.648   2.120   3.733  1.4938  0.1331 -1.0295
  105SAPE  C31310801   2.764   2.151   3.902  0.2917  0.9658  0.2462
  105SAPE  H13X10802   2.853   2.204   3.862  0.5992 -1.2856 -2.3393
  105SAPE  H13Y10803   2.811   2.087   3.980  1.5174  0.4338 -0.8958
  105SAPE  C31410804   2.647   2.229   3.953  0.1821  0.0219 -0.2771
  105SAPE  H14X10805   2.563   2.156   3.955  1.6466 -1.7292  0.1492
  105SAPE  H14Y10806   2.625   2.309   3.879 -0.9615 -1.3515 -1.4964
  105SAPE  C31510807   2.660   2.266   4.098 -0.8075 -0.4033 -0.1387
  105SAPE  H15X10808   2.677   2.185   4.172 -0.5632  1.1701  1.5937
  105SAPE  H15Y10809   2.565   2.307   4.137 -0.6554 -3.0870  3.5755
  105SAPE  C31610810   2.767   2.380   4.105  0.6866  0.4585 -0.1076
  105SAPE  H16X10811   2.742   2.466   4.040 -2.2868  0.5164  0.9470
  105SAPE  H16Y10812   2.864   2.340   4.068  2.0590  3.2809  0.1705
  105SAPE  C31710813   2.767   2.436   4.246 -0.4527 -0.8859  0.4023
  105SAPE  H17X10814   2.786   2.350   4.313 -1.1469 -1.9203 -0.6842
  105SAPE  H17Y10815   2.665   2.474   4.269  0.0448  1.3375 -0.7920
  105SAPE  C31810816   2.879   2.546   4.273 -0.4137 -0.3787  0.1018
  105SAPE  H18X10817   2.972   2.500   4.237 -0.7825 -1.7317  0.8196
  105SAPE  H18Y10818   2.889   2.586   4.376  2.3508 -1.1606  0.2030
  105SAPE  H18Z10819   2.863   2.639   4.213  2.9166 -0.1796 -0.6595
  106SAPE     N10820   3.254   5.647   1.848 -0.0001 -0.0364 -0.2773
  106SAPE   HN110821   3.224   5.590   1.929  0.6077  1.1668  0.8218
  106SAPE   HN210822   3.256   5.591   1.761  1.9739 -0.8705  0.2693
  106SAPE   HN310823   3.351   5.676   1.870 -0.8090  1.4766  1.5879
  106SAPE   C1210824   3.169   5.774   1.852 -0.1570 -0.1978  0.4832
  106SAPE  H12A10825   3.068   5.746   1.816 -0.3652 -0.5269  1.2970
  106SAPE  H12B10826   3.215   5.858   1.795 -2.4512 -0.0765 -1.3712
  106SAPE   C1110827   3.147   5.814   1.994 -0.0371  0.6647 -0.4587
  106SAPE  H11A10828   3.077   5.900   2.000  1.0803  1.5566  0.4499
  106SAPE  H11B10829   3.243   5.851   2.036 -0.2311  1.3720 -0.6236
  106SAPE     P10830   2.950   5.686   2.111  0.0125  0.0362  0.3242
  106SAPE   O1310831   2.883   5.816   2.142  0.0387  0.0672  0.2890
  106SAPE   O1410832   2.885   5.610   2.000 -0.1558  0.1371 -0.0059
  106SAPE   O1210833   3.102   5.708   2.080 -0.6482 -0.0671 -0.2168
  106SAPE   O1110834   2.951   5.594   2.249  0.4673  0.5030  0.1549
  106SAPE    C110835   3.051   5.638   2.347  0.0098  0.6662 -0.5586
  106SAPE    HA10836   3.149   5.590   2.323 -1.1572 -1.2221 -1.8161
  106SAPE    HB10837   3.072   5.747   2.355  1.3017  0.4706 -0.9475
  106SAPE    C210838   3.001   5.601   2.492  0.7159 -0.0976  0.1538
  106SAPE    HS10839   3.052   5.660   2.571  0.4011  1.8600 -1.0180
  106SAPE   O2110840   3.005   5.452   2.514  0.2202 -0.4511  0.7803
  106SAPE   C2110841   3.118   5.422   2.573  0.6520  0.3702 -0.0889
  106SAPE   O2210842   3.220   5.487   2.578 -0.6094 -0.1787 -0.6082
  106SAPE   C2210843   3.087   5.286   2.645 -0.4023  0.2273 -1.0948
  106SAPE   H2R10844   2.980   5.288   2.676 -0.8453 -3.3545 -1.9435
  106SAPE   H2S10845   3.087   5.208   2.565  1.3329 -1.3182  0.3114
  106SAPE    C310846   2.850   5.643   2.507  0.1785 -0.2006 -0.4734
  106SAPE    HX10847   2.800   5.572   2.437 -1.4805  2.6375 -2.3976
  106SAPE    HY10848   2.842   5.743   2.460  2.2439  0.3586  0.2728
  106SAPE   O3110849   2.806   5.636   2.644  0.3991 -0.0177  0.3721
  106SAPE   C3110850   2.835   5.745   2.713 -1.1034 -0.5194 -1.1452
  106SAPE   O3210851   2.870   5.852   2.663  0.4463 -1.1397 -0.4193
  106SAPE   C3210852   2.807   5.724   2.868  0.7079  0.3023 -1.0499
  106SAPE   H2X10853   2.792   5.616   2.887 -3.6410  0.6492 -1.3701
  106SAPE   H2Y10854   2.713   5.781   2.887  0.7578 -0.2324  1.0414
  106SAPE   C2310855   3.185   5.243   2.762 -0.2519  0.3738  0.2530
  106SAPE   H3R10856   3.284   5.245   2.712 -1.3735  1.4495 -2.0569
  106SAPE   H3S10857   3.160   5.137   2.786 -0.2590  0.4219  0.4602
  106SAPE   C2410858   3.173   5.323   2.897 -0.1808 -0.0890  0.4022
  106SAPE   H4R10859   3.207   5.427   2.880  1.6829 -0.8670 -0.8330
  106SAPE   H4S10860   3.248   5.277   2.965 -1.4007 -1.9632  0.5558
  106SAPE   C2510861   3.030   5.310   2.953 -0.8217 -0.5134  0.0974
  106SAPE   H5R10862   2.944   5.330   2.887 -1.1192 -0.9049  0.3605
  106SAPE   C2610863   3.004   5.285   3.082 -0.0239 -0.0170 -0.3718
  106SAPE   H6R10864   2.898   5.269   3.109  0.3405  1.0613  1.9352
  106SAPE   C2710865   3.102   5.259   3.193 -0.2908  0.1214  0.0009
  106SAPE   H7R10866   3.201   5.303   3.167  0.1256 -0.2405  0.9403
  106SAPE   H7S10867   3.104   5.148   3.197 -0.8736  0.1316  0.6735
  106SAPE   C2810868   3.054   5.297   3.330 -0.5451  0.5597 -0.6248
  106SAPE   H8R10869   3.060   5.402   3.360 -0.8561  0.4698 -0.2347
  106SAPE   C2910870   2.993   5.219   3.422  0.0382 -0.8516 -0.1414
  106SAPE   H9R10871   2.971   5.271   3.517 -0.9862 -0.6468 -0.4804
  106SAPE  C21010872   2.944   5.075   3.418 -0.7594  0.0101  0.1095
  106SAPE  H10R10873   3.006   5.015   3.347  1.1647  0.0785  1.6342
  106SAPE  H10S10874   2.837   5.073   3.390 -1.5476 -0.4412  2.8217
  106SAPE  C21110875   2.970   5.027   3.561  0.8865 -0.1718  0.0354
  106SAPE  H11R10876   3.061   4.969   3.576 -0.4056 -2.7580 -1.5154
  106SAPE  C21210877   2.887   5.064   3.667  0.3221 -0.1393  0.2108
  106SAPE  H12R10878   2.915   5.031   3.768  1.6651 -0.2399 -0.1749
  106SAPE  C21310879   2.759   5.146   3.663  0.0300  0.0489  0.2882
  106SAPE  H13R10880   2.731   5.183   3.563 -2.0923 -2.2955 -0.0819
  106SAPE  H13S10881   2.776   5.230   3.734  0.0186  0.7321 -0.5146
  106SAPE  C21410882   2.632   5.074   3.704  0.4673 -0.8368 -0.0453
  106SAPE  H14R10883   2.636   4.967   3.679  0.1907 -0.6277 -1.0018
  106SAPE  C21510884   2.535   5.122   3.778  0.0859  0.0515  0.1289
  106SAPE  H15R10885   2.451   5.058   3.806 -2.3657  2.6478 -0.7352
  106SAPE  C21610886   2.537   5.257   3.836 -0.0631 -0.0863 -0.3980
  106SAPE  H16R10887   2.505   5.339   3.769 -0.1829 -0.8127 -1.2407
  106SAPE  H16S10888   2.640   5.277   3.875  0.0992 -0.1489 -0.7943
  106SAPE  C21710889   2.441   5.268   3.956  0.3585  0.5941  0.0185
  106SAPE  H17R10890   2.478   5.221   4.050  2.0132  3.6772  1.0404
  106SAPE  H17S10891   2.347   5.214   3.931 -0.6371  1.3711  1.8781
  106SAPE  C21810892   2.411   5.413   3.991  0.2156 -0.3527  0.3903
  106SAPE  H18R10893   2.363   5.476   3.913  1.6252  0.6809  0.3165
  106SAPE  H18S10894   2.509   5.464   4.001  1.0090 -2.0749  1.9668
  106SAPE  C21910895   2.334   5.439   4.124  0.5813 -0.0077 -0.0578
  106SAPE  H19R10896   2.404   5.400   4.201  0.6428 -1.2935 -0.7473
  106SAPE  H19S10897   2.241   5.378   4.127  2.0136 -2.3493  3.7327
  106SAPE  C22010898   2.289   5.587   4.150 -0.1441  0.8827 -0.0410
  106SAPE  H20R10899   2.210   5.618   4.079 -0.2094 -0.4526 -0.5707
  106SAPE  H20S10900   2.375   5.655   4.136 -0.4645  1.0443 -1.3782
  106SAPE  H20T10901   2.242   5.591   4.251 -1.4390  0.8332 -0.6152
  106SAPE   C3310902   2.910   5.778   2.962  0.3874  0.3978 -0.2757
  106SAPE   H3X10903   2.935   5.885   2.942 -1.3949  0.7461 -0.8036
  106SAPE   H3Y10904   3.006   5.725   2.942  1.1317  2.4006 -2.5112
  106SAPE   C3410905   2.873   5.780   3.113  0.1935 -1.2959  0.0316
  106SAPE   H4X10906   2.783   5.838   3.140  1.6392  0.3026  1.7310
  106SAPE   H4Y10907   2.955   5.832   3.167 -1.4493 -2.1496  3.6442
  106SAPE   C3510908   2.865   5.645   3.187  0.4022  0.5119 -0.4038
  106SAPE   H5X10909   2.962   5.596   3.164  0.2019  0.7607 -1.8737
  106SAPE   H5Y10910   2.782   5.592   3.136  0.9485  0.5542 -1.3502
  106SAPE   C3610911   2.807   5.662   3.328 -0.1442 -0.5036 -0.1137
  106SAPE   H6X10912   2.756   5.566   3.349  0.4233 -0.7811  0.0151
  106SAPE   H6Y10913   2.724   5.731   3.302 -0.5827 -0.6876  0.7924
  106SAPE   C3710914   2.900   5.728   3.435  0.0917 -0.3895 -0.1245
  106SAPE   H7X10915   2.935   5.826   3.398 -0.2100 -0.7195 -1.3053
  106SAPE   H7Y10916   2.989   5.663   3.451 -0.6968 -1.1159  1.5625
  106SAPE   C3810917   2.834   5.748   3.568  0.3978 -0.1356 -0.5335
  106SAPE   H8X10918   2.741   5.809   3.557  0.4003  0.3439  1.7270
  106SAPE   H8Y10919   2.901   5.809   3.633 -1.4026  0.9284  0.4222
  106SAPE   C3910920   2.808   5.623   3.649 -0.1153 -0.4137  0.0984
  106SAPE   H9X10921   2.897   5.567   3.684  0.5079 -0.6168 -1.7218
  106SAPE   H9Y10922   2.745   5.562   3.580  0.6051 -0.1553 -0.8030
  106SAPE  C31010923   2.722   5.657   3.772 -0.1283 -0.2470  0.1991
  106SAPE  H10X10924   2.681   5.557   3.799  0.4894 -0.7028 -0.4965
  106SAPE  H10Y10925   2.651   5.739   3.751  1.6284  1.3234  0.1299
  106SAPE  C31110926   2.816   5.691   3.896  0.5755  0.0707 -0.5229
  106SAPE  H11X10927   2.751   5.757   3.958 -1.8242 -2.8212  0.2649
  106SAPE  H11Y10928   2.901   5.756   3.867  0.4680  0.9268  0.9831
  106SAPE  C31210929   2.853   5.569   3.989  0.9006  0.1910 -0.1194
  106SAPE  H12X10930   2.912   5.497   3.927 -1.5739 -2.2843  0.1699
  106SAPE  H12Y10931   2.754   5.522   4.004  1.3158 -0.1364  1.9211
  106SAPE  C31310932   2.913   5.603   4.131 -0.3926 -0.1693  0.3450
  106SAPE  H13X10933   2.943   5.505   4.173  1.5717  0.3796  0.3302
  106SAPE  H13Y10934   2.832   5.646   4.195 -0.4336 -0.7944  0.7196
  106SAPE  C31410935   3.033   5.699   4.123 -0.6939  0.1373 -0.2657
  106SAPE  H14X10936   2.997   5.798   4.086 -1.5041 -0.9302 -2.4722
  106SAPE  H14Y10937   3.100   5.671   4.040  0.6740  1.2133  0.4359
  106SAPE  C31510938   3.098   5.698   4.256  0.2020 -0.1053  0.4737
  106SAPE  H15X10939   3.147   5.600   4.274  1.3355  0.8308  2.8632
  106SAPE  H15Y10940   3.019   5.707   4.332 -1.2737 -2.2251 -0.7146
  106SAPE  C31610941   3.205   5.808   4.265  0.7424 -0.5958 -0.6805
  106SAPE  H16X10942   3.157   5.893   4.213  1.4985 -0.3358 -0.9685
  106SAPE  H16Y10943   3.302   5.779   4.219  1.1276  0.4748 -0.5793
  106SAPE  C31710944   3.231   5.843   4.417 -0.1315  0.2674  0.4835
  106SAPE  H17X10945   3.279   5.757   4.467  0.9194 -1.3240 -2.9935
  106SAPE  H17Y10946   3.131   5.861   4.463  0.1812  1.1353  0.8368
  106SAPE  C31810947   3.310   5.973   4.432 -0.2452 -0.0830  0.5499
  106SAPE  H18X10948   3.410   5.965   4.383 -1.0345 -2.0200 -0.8648
  106SAPE  H18Y10949   3.332   5.983   4.541 -0.3944 -0.3286  0.6012
  106SAPE  H18Z10950   3.244   6.059   4.404 -1.4971 -1.2338 -0.1203
  107SAPE     N10951   5.639   5.894   1.841 -0.1725 -0.1196 -0.0968
  107SAPE   HN110952   5.577   5.812   1.833  0.5371 -0.5770 -1.1581
  107SAPE   HN210953   5.587   5.984   1.845 -2.7365 -1.2461 -3.4943
  107SAPE   HN310954   5.688   5.898   1.749 -1.5684 -0.2356 -0.8698
  107SAPE   C1210955   5.735   5.869   1.958  0.3378 -0.3166  0.5985
  107SAPE  H12A10956   5.817   5.944   1.953 -0.7297  0.8409 -0.1582
  107SAPE  H12B10957   5.778   5.769   1.936 -1.2938 -0.6940 -1.2706
  107SAPE   C1110958   5.668   5.863   2.092  0.5033  0.5086  0.1169
  107SAPE  H11A10959   5.624   5.965   2.103 -0.3971  0.0575  0.7631
  107SAPE  H11B10960   5.754   5.864   2.162  0.3273  0.8118  0.3295
  107SAPE     P10961   5.615   5.637   2.184  0.0755  0.0130 -0.3392
  107SAPE   O1310962   5.512   5.530   2.193  0.8688 -0.0396 -0.2321
  107SAPE   O1410963   5.751   5.593   2.140 -0.4729 -0.1577 -0.1763
  107SAPE   O1210964   5.568   5.755   2.094  0.3454 -1.1827  0.2006
  107SAPE   O1110965   5.617   5.706   2.328  0.2793  0.6082  0.1679
  107SAPE    C110966   5.732   5.676   2.414  0.2315 -0.6645  0.2863
  107SAPE    HA10967   5.826   5.713   2.367  0.2291 -1.5200 -0.4269
  107SAPE    HB10968   5.716   5.732   2.508  0.6984 -1.6759  0.9840
  107SAPE    C210969   5.759   5.523   2.451  0.4385  0.4976  0.5180
  107SAPE    HS10970   5.757   5.460   2.360  1.1645 -0.2006  0.9698
  107SAPE   O2110971   5.649   5.481   2.533 -0.2855 -0.6578 -0.2835
  107SAPE   C2110972   5.644   5.352   2.557  0.6667  0.1395  0.4484
  107SAPE   O2210973   5.704   5.265   2.497 -0.7598 -0.0499 -0.3683
  107SAPE   C2210974   5.551   5.333   2.671  0.2126 -0.1214  0.0331
  107SAPE   H2R10975   5.579   5.405   2.751  0.2948 -0.3949  0.2498
  107SAPE   H2S10976   5.446   5.362   2.649  0.2252  1.7504  2.0844
  107SAPE    C310977   5.901   5.491   2.517  1.4525 -0.0111 -0.0630
  107SAPE    HX10978   5.974   5.545   2.453  4.2266 -0.8994  2.1834
  107SAPE    HY10979   5.910   5.380   2.519 -1.1877 -0.2764  0.5469
  107SAPE   O3110980   5.906   5.553   2.657 -0.5305  0.2045 -0.1529
  107SAPE   C3110981   5.915   5.464   2.756 -0.4301 -0.8826 -0.6912
  107SAPE   O3210982   5.911   5.342   2.742 -0.6081 -0.0220 -0.2352
  107SAPE   C3210983   5.930   5.539   2.891 -0.6817 -0.0174  0.2292
  107SAPE   H2X10984   5.851   5.616   2.897  2.3924  3.3326  2.3198
  107SAPE   H2Y10985   6.024   5.595   2.871 -0.5317 -1.1042 -2.5544
  107SAPE   C2310986   5.546   5.193   2.750 -0.1090  0.9812 -0.0892
  107SAPE   H3R10987   5.581   5.120   2.673  1.1056  0.7298  0.6759
  107SAPE   H3S10988   5.437   5.176   2.765  0.0139 -0.8682 -0.9931
  107SAPE   C2410989   5.627   5.188   2.878  0.5553  0.2572 -0.8764
  107SAPE   H4R10990   5.639   5.285   2.931  0.0991  1.0232 -2.1033
  107SAPE   H4S10991   5.727   5.156   2.841  1.1718  0.4825  0.5509
  107SAPE   C2510992   5.586   5.076   2.973  0.0154  0.2536  0.8094
  107SAPE   H5R10993   5.603   4.978   2.925 -0.1432  0.1076  1.0494
  107SAPE   C2610994   5.507   5.072   3.077 -0.4125  0.7501 -0.0842
  107SAPE   H6R10995   5.508   4.982   3.142  1.7650 -0.8230 -2.1352
  107SAPE   C2710996   5.452   5.195   3.142  0.7686 -0.1566  0.5906
  107SAPE   H7R10997   5.366   5.226   3.078  0.7270 -0.0255  0.7089
  107SAPE   H7S10998   5.530   5.274   3.139  1.5002 -0.8760  0.3548
  107SAPE   C2810999   5.408   5.179   3.290 -0.2088  0.6485  0.1930
  107SAPE   H8R11000   5.483   5.168   3.370 -0.5976 -1.1482  0.3453
  107SAPE   C2911001   5.287   5.216   3.341  0.3647  0.2275 -0.1916
  107SAPE   H9R11002   5.272   5.211   3.450  1.5187 -0.4490 -0.0502
  107SAPE  C21011003   5.166   5.244   3.257  0.1965  0.7802 -0.0241
  107SAPE  H10R11004   5.153   5.156   3.191  1.1510  0.0746  0.7079
  107SAPE  H10S11005   5.181   5.333   3.191  0.3954 -0.3778 -1.5838
  107SAPE  C21111006   5.041   5.268   3.341  0.1532  0.9282  0.3408
  107SAPE  H11R11007   5.019   5.194   3.420 -2.6818  1.7532  0.4049
  107SAPE  C21211008   4.961   5.374   3.335 -0.1303 -0.2169 -0.2631
  107SAPE  H12R11009   4.866   5.377   3.391 -0.1202  3.5782 -0.1628
  107SAPE  C21311010   4.970   5.488   3.231  0.6778  0.1242 -0.2352
  107SAPE  H13R11011   4.919   5.448   3.141  0.7575 -2.1515  0.6667
  107SAPE  H13S11012   5.075   5.512   3.204  0.7562  1.0658  0.8464
  107SAPE  C21411013   4.908   5.617   3.295  0.0402  0.1428  0.2574
  107SAPE  H14R11014   4.971   5.678   3.362  2.5956 -1.0335 -0.9147
  107SAPE  C21511015   4.795   5.661   3.240  0.4398  0.5630 -0.3286
  107SAPE  H15R11016   4.754   5.758   3.272 -2.9492 -0.8324  0.0536
  107SAPE  C21611017   4.711   5.599   3.127  0.0004 -0.2932  0.5366
  107SAPE  H16R11018   4.606   5.588   3.162 -0.4870  1.8475 -0.0860
  107SAPE  H16S11019   4.731   5.491   3.113  0.2631 -0.0782 -0.8535
  107SAPE  C21711020   4.719   5.680   3.000  0.2172  0.0550  0.3458
  107SAPE  H17R11021   4.825   5.678   2.966  0.8161 -0.6879  2.1304
  107SAPE  H17S11022   4.693   5.787   3.016  2.4026  0.9379 -1.4331
  107SAPE  C21811023   4.636   5.613   2.885  0.2661 -0.5129  0.9664
  107SAPE  H18R11024   4.613   5.686   2.805  1.4163 -1.7071 -0.5356
  107SAPE  H18S11025   4.536   5.591   2.927 -0.7836  0.1268 -1.0533
  107SAPE  C21911026   4.699   5.489   2.837  0.5462  0.0095  0.1954
  107SAPE  H19R11027   4.709   5.419   2.923 -0.3606 -1.6971 -1.0290
  107SAPE  H19S11028   4.799   5.508   2.793  1.0123  0.4831  1.4251
  107SAPE  C22011029   4.618   5.428   2.729 -0.4585 -0.2088  1.1510
  107SAPE  H20R11030   4.603   5.501   2.646  1.1390 -0.4228  0.6396
  107SAPE  H20S11031   4.518   5.398   2.767 -0.1744 -1.1699  1.1639
  107SAPE  H20T11032   4.685   5.353   2.683  2.0175  2.0268  0.8440
  107SAPE   C3311033   5.933   5.441   3.010 -0.1911 -0.1795 -0.4148
  107SAPE   H3X11034   6.017   5.370   2.996  0.1703  0.0386  0.6009
  107SAPE   H3Y11035   5.844   5.375   3.002 -0.6687  0.4626 -0.4513
  107SAPE   C3411036   5.959   5.500   3.145  0.1163 -0.8844  0.1076
  107SAPE   H4X11037   5.896   5.588   3.171  1.5011 -0.3104  1.7382
  107SAPE   H4Y11038   6.066   5.524   3.130  0.5072 -2.2855  0.5132
  107SAPE   C3511039   5.951   5.395   3.260  0.3271  0.7895 -0.5920
  107SAPE   H5X11040   5.993   5.460   3.340 -1.4986  1.5375 -0.1951
  107SAPE   H5Y11041   6.008   5.303   3.233  0.5744  0.9960 -0.7833
  107SAPE   C3611042   5.814   5.362   3.310  0.1548 -0.1903  0.1772
  107SAPE   H6X11043   5.747   5.332   3.226  1.8563  1.0257 -1.6806
  107SAPE   H6Y11044   5.764   5.452   3.351 -1.5059 -0.9913  0.0287
  107SAPE   C3711045   5.802   5.242   3.409 -0.7748 -0.2197 -0.0063
  107SAPE   H7X11046   5.833   5.147   3.361  0.1749 -0.6215  1.3467
  107SAPE   H7Y11047   5.700   5.229   3.452 -0.9297 -0.6534 -0.4998
  107SAPE   C3811048   5.897   5.265   3.522  0.8228  0.4345  0.3266
  107SAPE   H8X11049   5.885   5.367   3.563 -2.5774  0.8393 -1.2827
  107SAPE   H8Y11050   6.001   5.256   3.484  0.9568  1.3835  0.4610
  107SAPE   C3911051   5.880   5.168   3.640  0.6059  0.9927  0.4033
  107SAPE   H9X11052   5.969   5.182   3.705  1.5324 -0.7020 -0.4263
  107SAPE   H9Y11053   5.890   5.064   3.603 -1.2853  1.0014 -0.2454
  107SAPE  C31011054   5.750   5.184   3.724 -0.0874 -0.2807 -0.6475
  107SAPE  H10X11055   5.667   5.153   3.658 -1.8846 -0.0055  1.3808
  107SAPE  H10Y11056   5.720   5.288   3.749 -0.2473 -0.4810  0.0188
  107SAPE  C31111057   5.762   5.101   3.848  0.6435  0.2173  0.7355
  107SAPE  H11X11058   5.861   5.106   3.898  1.4084 -1.3361 -0.5708
  107SAPE  H11Y11059   5.749   4.993   3.826 -0.6066  0.4541  0.2123
  107SAPE  C31211060   5.653   5.144   3.954  0.1858  0.5169 -0.1604
  107SAPE  H12X11061   5.554   5.148   3.903 -0.4989  1.5281  1.2026
  107SAPE  H12Y11062   5.676   5.249   3.982 -0.7881  0.8091 -0.4255
  107SAPE  C31311063   5.655   5.059   4.087  0.0961  0.3713 -0.0206
  107SAPE  H13X11064   5.752   5.066   4.140 -0.9325 -1.0505  2.1878
  107SAPE  H13Y11065   5.637   4.955   4.052  1.1450 -0.0511  0.6532
  107SAPE  C31411066   5.533   5.078   4.173  0.5740  0.4002 -1.1349
  107SAPE  H14X11067   5.540   5.008   4.259 -1.2211  0.0035 -1.2749
  107SAPE  H14Y11068   5.445   5.061   4.108  0.0035 -0.6334 -0.1144
  107SAPE  C31511069   5.520   5.220   4.220 -0.6800  0.0559 -0.0927
  107SAPE  H15X11070   5.490   5.284   4.134 -0.6560  0.1225 -0.0526
  107SAPE  H15Y11071   5.622   5.241   4.258 -0.2947 -0.3943 -0.8668
  107SAPE  C31611072   5.413   5.227   4.329  0.6572  0.2591  0.1624
  107SAPE  H16X11073   5.435   5.150   4.405 -1.0963 -1.1509 -0.6954
  107SAPE  H16Y11074   5.309   5.206   4.296  0.4935  1.8183 -0.4164
  107SAPE  C31711075   5.409   5.363   4.403 -0.0411  0.0996 -0.0197
  107SAPE  H17X11076   5.398   5.444   4.328  1.0631 -0.2174 -0.5496
  107SAPE  H17Y11077   5.510   5.370   4.449 -0.0698 -3.8408  0.9921
  107SAPE  C31811078   5.306   5.380   4.517 -0.5607 -0.3886 -1.0551
  107SAPE  H18X11079   5.320   5.301   4.595 -1.2469  1.8258  1.4459
  107SAPE  H18Y11080   5.207   5.352   4.476 -1.4647  2.1916 -0.8006
  107SAPE  H18Z11081   5.306   5.477   4.570 -0.8475 -1.0699  0.2362
  108SAPE     N11082   6.454   6.363   2.090  0.6058 -0.9000 -0.1373
  108SAPE   HN111083   6.377   6.381   2.022 -0.9322  1.6844  2.0909
  108SAPE   HN211084   6.519   6.443   2.080  0.3270 -0.6804 -0.1798
  108SAPE   HN311085   6.509   6.279   2.061  0.8175 -0.6884 -0.3461
  108SAPE   C1211086   6.389   6.360   2.224 -0.1312  0.0866  0.0148
  108SAPE  H12A11087   6.336   6.263   2.239  1.3121 -0.7356  0.0268
  108SAPE  H12B11088   6.329   6.453   2.232  0.1943  0.3384 -0.4080
  108SAPE   C1111089   6.496   6.383   2.330  0.0055  0.4325 -0.9508
  108SAPE  H11A11090   6.579   6.309   2.326 -0.1895  0.2066 -0.8880
  108SAPE  H11B11091   6.455   6.353   2.429  0.7613 -3.5668 -1.6742
  108SAPE     P11092   6.689   6.551   2.365 -0.4903  0.2055 -0.0826
  108SAPE   O1311093   6.784   6.445   2.323  0.0254 -0.4926 -0.1479
  108SAPE   O1411094   6.715   6.687   2.311 -0.4358  0.2203  0.6159
  108SAPE   O1211095   6.549   6.512   2.320  0.2853  0.7054  0.4094
  108SAPE   O1111096   6.660   6.556   2.517  0.0909  0.0656  0.3156
  108SAPE    C111097   6.541   6.634   2.554 -0.4693 -0.0818 -0.7338
  108SAPE    HA11098   6.554   6.734   2.507  2.7469  0.1186  0.3301
  108SAPE    HB11099   6.449   6.577   2.529 -0.2522 -0.0433 -1.6721
  108SAPE    C211100   6.559   6.656   2.703 -0.1053  0.0364 -0.0139
  108SAPE    HS11101   6.463   6.699   2.740  0.9818  2.2671  0.4100
  108SAPE   O2111102   6.671   6.744   2.731 -0.4041 -0.5686  0.3151
  108SAPE   C2111103   6.660   6.879   2.718 -0.5135  0.5615 -0.3124
  108SAPE   O2211104   6.564   6.932   2.660 -0.3118  0.2354 -0.0716
  108SAPE   C2211105   6.777   6.946   2.788  0.4915 -0.5618  0.7415
  108SAPE   H2R11106   6.867   6.946   2.723  0.4732  0.6141  0.6782
  108SAPE   H2S11107   6.746   7.050   2.812  1.8049 -0.5557  2.7064
  108SAPE    C311108   6.589   6.527   2.780  0.0626  0.9633  0.3008
  108SAPE    HX11109   6.695   6.503   2.756 -0.9370 -1.0408 -2.7714
  108SAPE    HY11110   6.516   6.450   2.745  0.4892 -0.0855  1.6487
  108SAPE   O3111111   6.575   6.546   2.923  0.1360 -0.6848  0.0844
  108SAPE   C3111112   6.453   6.548   2.974 -0.2793 -0.0908 -0.4589
  108SAPE   O3211113   6.348   6.566   2.911  0.6392  0.5034 -0.2564
  108SAPE   C3211114   6.470   6.506   3.121  0.0698 -0.1970 -0.6217
  108SAPE   H2X11115   6.564   6.550   3.162  0.7174 -0.3258 -1.9132
  108SAPE   H2Y11116   6.486   6.396   3.120  1.2017 -0.0857  0.9833
  108SAPE   C2311117   6.826   6.890   2.927  0.0327 -0.9102  0.4638
  108SAPE   H3R11118   6.927   6.932   2.949 -0.2504 -0.0945  0.2498
  108SAPE   H3S11119   6.844   6.782   2.908  1.0869 -0.7801  0.6193
  108SAPE   C2411120   6.719   6.914   3.037  0.1502  0.1879 -0.3249
  108SAPE   H4R11121   6.619   6.887   2.997 -0.7538 -0.7745  2.3744
  108SAPE   H4S11122   6.722   7.020   3.071  1.6951 -0.1697  0.7341
  108SAPE   C2511123   6.734   6.821   3.162  0.0754  0.3403 -0.2971
  108SAPE   H5R11124   6.706   6.715   3.151  0.9650 -0.0159  0.6553
  108SAPE   C2611125   6.752   6.855   3.289  0.4873 -1.2566  1.1725
  108SAPE   H6R11126   6.759   6.772   3.361  2.0372 -1.4952  0.7834
  108SAPE   C2711127   6.793   6.992   3.344  0.2308  0.7600 -0.2773
  108SAPE   H7R11128   6.705   7.037   3.395  1.2218  1.7051  0.6491
  108SAPE   H7S11129   6.808   7.062   3.259 -1.9716  0.6254 -0.8293
  108SAPE   C2811130   6.908   7.003   3.444 -0.2376  0.4090 -0.7476
  108SAPE   H8R11131   7.011   7.003   3.406 -0.2499 -1.3120 -0.8718
  108SAPE   C2911132   6.898   7.026   3.577  0.1134  0.2912  0.1500
  108SAPE   H9R11133   6.990   7.031   3.638  2.0644 -1.4444 -2.4453
  108SAPE  C21011134   6.776   7.042   3.662  0.1533  0.4019  0.5123
  108SAPE  H10R11135   6.728   6.942   3.672  0.6494  0.1487  0.3876
  108SAPE  H10S11136   6.702   7.107   3.610  0.5085  1.2203  1.0085
  108SAPE  C21111137   6.802   7.126   3.794 -0.0965 -0.0796 -0.1244
  108SAPE  H11R11138   6.864   7.217   3.784 -1.7310  1.1012  0.0658
  108SAPE  C21211139   6.762   7.091   3.921  1.1577 -0.1771  0.6358
  108SAPE  H12R11140   6.789   7.155   4.006  0.6298 -0.5926  1.1275
  108SAPE  C21311141   6.674   6.969   3.943  0.6264 -0.5267 -0.0420
  108SAPE  H13R11142   6.617   6.936   3.854 -3.0718  3.5622  0.5022
  108SAPE  H13S11143   6.591   7.002   4.009  1.5164 -0.5020  1.1010
  108SAPE  C21411144   6.748   6.854   4.005 -0.0168 -0.9976 -0.7814
  108SAPE  H14R11145   6.852   6.838   3.974  0.3265 -1.3148  0.4936
  108SAPE  C21511146   6.702   6.774   4.102  0.1071 -0.1539 -0.4999
  108SAPE  H15R11147   6.772   6.696   4.135  0.1001  0.6515  1.6034
  108SAPE  C21611148   6.565   6.777   4.170 -0.0032 -0.1595 -1.3562
  108SAPE  H16R11149   6.516   6.874   4.151 -0.5423  0.0366  0.7840
  108SAPE  H16S11150   6.579   6.753   4.278  0.9160  1.8950 -0.9879
  108SAPE  C21711151   6.483   6.660   4.112  0.4016 -0.5151  0.4978
  108SAPE  H17R11152   6.520   6.556   4.119 -1.2735 -1.3798 -2.3324
  108SAPE  H17S11153   6.474   6.674   4.003 -1.2566 -1.2243  0.5181
  108SAPE  C21811154   6.339   6.669   4.163 -0.1323 -0.5740 -0.4206
  108SAPE  H18R11155   6.278   6.592   4.112  0.1549 -2.2308  1.6109
  108SAPE  H18S11156   6.311   6.772   4.134 -0.7927  0.1985  2.6405
  108SAPE  C21911157   6.322   6.632   4.313  0.3185 -0.1219 -0.0262
  108SAPE  H19R11158   6.397   6.675   4.382  1.9004 -0.3774 -1.5392
  108SAPE  H19S11159   6.346   6.523   4.313 -1.2301 -0.4989  0.5459
  108SAPE  C22011160   6.176   6.656   4.354  0.2522  0.2592 -0.5724
  108SAPE  H20R11161   6.141   6.756   4.322  2.6228  1.6381  0.8807
  108SAPE  H20S11162   6.150   6.654   4.462 -1.5861  2.4739 -0.8974
  108SAPE  H20T11163   6.123   6.582   4.291 -0.8706  1.2828 -0.8627
  108SAPE   C3311164   6.351   6.547   3.207 -0.4318  0.9759 -0.1538
  108SAPE   H3X11165   6.304   6.642   3.174 -0.1088  0.6688 -1.5624
  108SAPE   H3Y11166   6.386   6.553   3.313  0.4977 -0.4256 -0.3482
  108SAPE   C3411167   6.240   6.437   3.195  0.5101 -0.4077 -0.0104
  108SAPE   H4X11168   6.269   6.357   3.124  0.0507  0.1473 -0.8382
  108SAPE   H4Y11169   6.156   6.477   3.135  0.2313  0.1344  0.7244
  108SAPE   C3511170   6.172   6.382   3.318 -0.3610  0.0538 -0.5418
  108SAPE   H5X11171   6.128   6.281   3.308  0.0059 -0.1321 -0.2987
  108SAPE   H5Y11172   6.244   6.382   3.403 -0.8721 -1.0679 -0.0909
  108SAPE   C3611173   6.051   6.465   3.351  0.1499  0.2356 -0.9899
  108SAPE   H6X11174   5.970   6.456   3.276  0.2825  1.1033 -1.2524
  108SAPE   H6Y11175   6.066   6.574   3.366 -0.4430  0.1153  0.7078
  108SAPE   C3711176   5.987   6.412   3.482 -0.1053  0.8840  0.6551
  108SAPE   H7X11177   5.942   6.313   3.459  1.1242  0.6810 -1.1003
  108SAPE   H7Y11178   5.903   6.484   3.491 -0.4864  1.1370 -3.3597
  108SAPE   C3811179   6.075   6.419   3.606 -0.2962  0.0340  0.1648
  108SAPE   H8X11180   6.111   6.524   3.609 -0.1407  0.1671 -3.0616
  108SAPE   H8Y11181   6.165   6.354   3.609  1.7672  2.7498  0.7596
  108SAPE   C3911182   6.004   6.404   3.733 -1.1851  0.0581  0.0945
  108SAPE   H9X11183   5.958   6.303   3.737 -0.0136 -0.4478  2.1621
  108SAPE   H9Y11184   5.924   6.482   3.732  0.9056  2.3059  0.1688
  108SAPE  C31011185   6.098   6.414   3.855 -0.5056 -0.2127 -0.0972
  108SAPE  H10X11186   6.141   6.515   3.865  3.1688 -1.4658 -1.6245
  108SAPE  H10Y11187   6.184   6.345   3.841 -0.5999 -0.7180  1.5368
  108SAPE  C31111188   6.038   6.353   3.979  0.1347 -0.4914 -0.0953
  108SAPE  H11X11189   6.120   6.306   4.036  1.0168  0.3913 -0.6124
  108SAPE  H11Y11190   5.954   6.283   3.960 -0.1483 -0.1246 -0.2192
  108SAPE  C31211191   5.959   6.446   4.071 -0.1137  0.2101  0.5310
  108SAPE  H12X11192   5.876   6.489   4.012  1.9092  2.9549 -0.5241
  108SAPE  H12Y11193   6.028   6.529   4.097 -0.4898 -0.1511  2.8773
  108SAPE  C31311194   5.907   6.381   4.199 -0.1851 -0.3879 -0.0139
  108SAPE  H13X11195   5.988   6.381   4.275  1.7767 -1.3105 -1.9961
  108SAPE  H13Y11196   5.865   6.280   4.179 -2.5602  0.5314 -0.0717
  108SAPE  C31411197   5.798   6.455   4.278 -0.5744  0.2790 -0.4398
  108SAPE  H14X11198   5.705   6.470   4.219  0.0543  1.3516 -1.1856
  108SAPE  H14Y11199   5.823   6.561   4.296 -0.4511  0.3000 -0.7280
  108SAPE  C31511200   5.771   6.391   4.412  0.0787 -0.2568  0.0625
  108SAPE  H15X11201   5.867   6.373   4.464 -0.2478 -0.1112  0.7287
  108SAPE  H15Y11202   5.712   6.298   4.396 -1.8281  0.8530  0.3245
  108SAPE  C31611203   5.684   6.492   4.493 -0.2557  0.8326  0.2758
  108SAPE  H16X11204   5.595   6.522   4.434  0.3668 -2.0347 -2.4230
  108SAPE  H16Y11205   5.754   6.576   4.510 -0.9242  0.9785  2.6728
  108SAPE  C31711206   5.654   6.432   4.627 -0.4988  0.3053  0.3298
  108SAPE  H17X11207   5.750   6.387   4.658 -0.4475  0.6236  0.6275
  108SAPE  H17Y11208   5.573   6.356   4.617 -2.8378  2.8473 -1.8224
  108SAPE  C31811209   5.619   6.542   4.727 -0.1655  0.1819 -0.0304
  108SAPE  H18X11210   5.683   6.634   4.721  0.6268 -0.3204  0.4912
  108SAPE  H18Y11211   5.619   6.496   4.828 -2.2358  1.0163  0.3999
  108SAPE  H18Z11212   5.511   6.562   4.709 -0.5539 -1.1066  0.7809
  109SAPE     N11213   2.084   3.504   2.011 -0.0986  0.2021  0.2633
  109SAPE   HN111214   1.985   3.470   2.007  0.4752 -2.3752  3.5168
  109SAPE   HN211215   2.115   3.516   1.912  2.7977 -1.6220  0.8361
  109SAPE   HN311216   2.132   3.430   2.066  0.7272  1.1794  0.8730
  109SAPE   C1211217   2.099   3.637   2.072  0.3330 -0.0236  0.3816
  109SAPE  H12A11218   2.049   3.704   1.998 -1.7330 -1.5303  0.3379
  109SAPE  H12B11219   2.207   3.663   2.066  0.8354 -2.0732 -0.2800
  109SAPE   C1111220   2.051   3.651   2.214  0.1923  0.1349  0.6771
  109SAPE  H11A11221   2.077   3.756   2.236  2.4768 -0.5673  1.6247
  109SAPE  H11B11222   2.106   3.596   2.293 -0.2595  0.2757  1.0892
  109SAPE     P11223   1.849   3.502   2.289  0.0237  0.0644 -0.1259
  109SAPE   O1311224   1.720   3.475   2.224  0.1162  0.6193  0.1679
  109SAPE   O1411225   1.949   3.392   2.272 -0.3874 -0.3778 -0.1779
  109SAPE   O1211226   1.910   3.636   2.226  0.5474  0.4010 -0.8405
  109SAPE   O1111227   1.824   3.528   2.440 -0.1534  0.6267 -0.1133
  109SAPE    C111228   1.793   3.652   2.506 -0.2533  0.7069 -0.2545
  109SAPE    HA11229   1.876   3.670   2.577  1.9745 -0.9662 -2.2760
  109SAPE    HB11230   1.802   3.740   2.439  0.3970  0.6270 -0.2764
  109SAPE    C211231   1.658   3.630   2.580  0.2530 -0.1331 -0.3005
  109SAPE    HS11232   1.586   3.571   2.520 -2.1557  0.4259  1.8427
  109SAPE   O2111233   1.607   3.765   2.599  0.1707  0.2641 -0.0564
  109SAPE   C2111234   1.478   3.776   2.613  0.2045 -1.2143  0.8314
  109SAPE   O2211235   1.392   3.693   2.585 -0.1588  0.0484 -0.4116
  109SAPE   C2211236   1.440   3.916   2.650  0.5258 -0.4323  0.0660
  109SAPE   H2R11237   1.523   3.990   2.658 -0.2215  0.4941 -0.4601
  109SAPE   H2S11238   1.367   3.947   2.571  1.6306 -0.8937 -1.1752
  109SAPE    C311239   1.687   3.552   2.703  0.4502 -0.4223 -0.1573
  109SAPE    HX11240   1.767   3.595   2.767 -1.0360 -0.6855  1.9872
  109SAPE    HY11241   1.725   3.451   2.675  0.2341 -0.3870 -0.5811
  109SAPE   O3111242   1.569   3.546   2.783 -0.5127 -0.0741  0.2337
  109SAPE   C3111243   1.490   3.447   2.761  0.6344 -0.4350  0.7099
  109SAPE   O3211244   1.504   3.365   2.666  0.2531 -0.4999  0.4428
  109SAPE   C3211245   1.381   3.435   2.868  0.1928 -0.2554 -1.0118
  109SAPE   H2X11246   1.354   3.541   2.887 -0.8387 -0.6680 -0.0722
  109SAPE   H2Y11247   1.433   3.414   2.964 -0.1135 -0.3995 -0.8739
  109SAPE   C2311248   1.372   3.923   2.792  0.5124 -0.1362  0.2083
  109SAPE   H3R11249   1.441   3.861   2.852  1.4032  0.5913 -0.0435
  109SAPE   H3S11250   1.270   3.879   2.797  1.0976 -1.4376  1.0100
  109SAPE   C2411251   1.346   4.067   2.840 -0.3542 -0.2208 -0.3984
  109SAPE   H4R11252   1.286   4.064   2.933  2.1732  1.0927  1.3739
  109SAPE   H4S11253   1.278   4.116   2.766 -2.0323 -1.4552  0.2682
  109SAPE   C2511254   1.474   4.161   2.855  0.6376  0.6576 -0.4085
  109SAPE   H5R11255   1.521   4.211   2.768  0.6316 -1.3227 -1.6144
  109SAPE   C2611256   1.544   4.193   2.965 -0.2122  0.0248 -0.7581
  109SAPE   H6R11257   1.635   4.254   2.962  0.6076 -0.9014  2.1575
  109SAPE   C2711258   1.501   4.152   3.108  0.5087  0.1152  0.3478
  109SAPE   H7R11259   1.597   4.134   3.161  1.0872  0.3702 -0.5837
  109SAPE   H7S11260   1.431   4.067   3.109 -0.8686  1.2195  1.0474
  109SAPE   C2811261   1.423   4.268   3.165  0.5242  0.5906  0.1166
  109SAPE   H8R11262   1.414   4.362   3.109 -1.0540  1.8125  2.2392
  109SAPE   C2911263   1.346   4.268   3.274  0.2095  0.3210  1.0196
  109SAPE   H9R11264   1.297   4.361   3.306 -0.1025  0.9566 -1.1307
  109SAPE  C21011265   1.348   4.162   3.373  0.5238 -0.1105 -0.3056
  109SAPE  H10R11266   1.396   4.070   3.334  0.1467  0.3349 -1.9063
  109SAPE  H10S11267   1.239   4.144   3.390  0.6748 -0.2107  0.5902
  109SAPE  C21111268   1.420   4.206   3.495  0.4933 -0.2329  0.0222
  109SAPE  H11R11269   1.505   4.274   3.482 -0.2326  0.7509  0.2681
  109SAPE  C21211270   1.387   4.188   3.630  0.4753  0.2671  0.3258
  109SAPE  H12R11271   1.465   4.223   3.700  1.2629  0.8959 -0.8342
  109SAPE  C21311272   1.277   4.093   3.675  0.4168  0.4341  0.2678
  109SAPE  H13R11273   1.224   4.038   3.594  3.3822 -3.1103  0.4704
  109SAPE  H13S11274   1.199   4.154   3.727 -1.4208 -1.5589 -0.0168
  109SAPE  C21411275   1.328   3.993   3.771  0.3446 -0.0572 -0.4143
  109SAPE  H14R11276   1.338   4.034   3.872 -1.1804 -0.4261 -0.0926
  109SAPE  C21511277   1.343   3.863   3.749  0.2525 -0.2576  0.2582
  109SAPE  H15R11278   1.398   3.810   3.828  3.2724  2.6183  0.2998
  109SAPE  C21611279   1.311   3.783   3.620 -1.0814 -0.0536 -0.1703
  109SAPE  H16R11280   1.410   3.757   3.577 -0.6910 -1.1098  1.2987
  109SAPE  H16S11281   1.260   3.841   3.541  0.2442 -0.3670 -1.2885
  109SAPE  C21711282   1.222   3.665   3.646 -0.6564 -0.5789  0.0812
  109SAPE  H17R11283   1.199   3.615   3.550 -2.0287  1.0852 -0.5134
  109SAPE  H17S11284   1.123   3.693   3.689 -0.6718 -0.2734 -0.1474
  109SAPE  C21811285   1.275   3.550   3.734 -0.2832  0.5060  0.2170
  109SAPE  H18R11286   1.201   3.467   3.733 -1.1569  1.2615  0.2902
  109SAPE  H18S11287   1.284   3.580   3.840  1.0831 -0.1934  0.3224
  109SAPE  C21911288   1.412   3.507   3.692  0.4385 -0.0374  0.5452
  109SAPE  H19R11289   1.478   3.594   3.709 -0.6133  0.6735  1.0839
  109SAPE  H19S11290   1.425   3.489   3.583 -0.9366 -1.1062  0.5339
  109SAPE  C22011291   1.451   3.384   3.768 -0.3570 -0.0293 -0.1326
  109SAPE  H20R11292   1.378   3.302   3.753 -3.0248  2.5870 -2.8306
  109SAPE  H20S11293   1.461   3.408   3.876  0.9326  0.1954 -0.2945
  109SAPE  H20T11294   1.550   3.341   3.742  0.4343  1.0181  1.0418
  109SAPE   C3311295   1.268   3.340   2.848  0.5929 -0.5476  0.3890
  109SAPE   H3X11296   1.288   3.232   2.836 -2.5075 -1.2771  0.9187
  109SAPE   H3Y11297   1.203   3.365   2.761  1.2906 -1.0563 -0.2915
  109SAPE   C3411298   1.168   3.345   2.959 -0.7537  0.2454  0.1505
  109SAPE   H4X11299   1.075   3.291   2.932 -1.1521  0.0461  1.7893
  109SAPE   H4Y11300   1.137   3.450   2.978 -0.7308 -0.0890  2.3308
  109SAPE   C3511301   1.213   3.281   3.094  0.0720 -0.3971  0.2462
  109SAPE   H5X11302   1.307   3.330   3.129  1.1361 -1.2124 -1.3391
  109SAPE   H5Y11303   1.246   3.175   3.085 -1.0707 -0.6385 -1.5379
  109SAPE   C3611304   1.097   3.286   3.189 -0.2537 -0.5252  0.6753
  109SAPE   H6X11305   1.023   3.206   3.166  2.4043 -2.6549 -1.1954
  109SAPE   H6Y11306   1.050   3.386   3.191  1.7539  0.4799  0.2211
  109SAPE   C3711307   1.152   3.256   3.332 -0.4430  0.0385  0.4779
  109SAPE   H7X11308   1.211   3.345   3.362  1.3106 -1.8710  3.1870
  109SAPE   H7Y11309   1.211   3.162   3.339 -0.0318  0.3424  1.2683
  109SAPE   C3811310   1.044   3.242   3.435  0.5958 -0.0666 -0.0895
  109SAPE   H8X11311   0.978   3.157   3.405  1.0303 -0.9233  1.2963
  109SAPE   H8Y11312   0.978   3.330   3.451  1.6308  0.3834  2.0477
  109SAPE   C3911313   1.091   3.197   3.571 -0.7657  0.0893 -0.1357
  109SAPE   H9X11314   1.165   3.272   3.606 -2.3407  1.4543  0.3903
  109SAPE   H9Y11315   1.134   3.096   3.554  0.0419  0.5901 -1.2229
  109SAPE  C31011316   0.983   3.180   3.678 -0.3640 -0.3451 -0.1115
  109SAPE  H10X11317   0.910   3.098   3.661 -1.2054 -0.0352  1.7572
  109SAPE  H10Y11318   0.938   3.280   3.692 -0.0721 -0.2970  0.5614
  109SAPE  C31111319   1.046   3.140   3.815  0.3029  0.4635  0.0796
  109SAPE  H11X11320   1.114   3.220   3.852  0.4091  0.8535 -0.9133
  109SAPE  H11Y11321   1.090   3.040   3.796 -3.1104 -1.3828  1.1372
  109SAPE  C31211322   0.931   3.123   3.916  0.7896 -0.3736  0.8504
  109SAPE  H12X11323   0.875   3.033   3.884 -0.0121  0.7276 -1.0337
  109SAPE  H12Y11324   0.859   3.208   3.908  0.3187 -0.8393  0.0159
  109SAPE  C31311325   0.972   3.129   4.064  0.4580  0.4835 -0.0505
  109SAPE  H13X11326   1.031   3.038   4.087  1.3968  0.7630 -1.2274
  109SAPE  H13Y11327   0.868   3.121   4.102  0.1387  2.5311 -0.3692
  109SAPE  C31411328   1.035   3.260   4.098 -0.7339  0.0794 -0.6447
  109SAPE  H14X11329   1.135   3.269   4.049 -0.2173 -1.4021  0.0627
  109SAPE  H14Y11330   1.054   3.252   4.207  0.6665  1.1764 -0.7671
  109SAPE  C31511331   0.950   3.387   4.065 -0.3454 -1.0017 -0.2833
  109SAPE  H15X11332   0.849   3.363   4.106  0.8377 -0.1361  3.5218
  109SAPE  H15Y11333   0.949   3.407   3.956 -0.0230 -1.5129 -0.3849
  109SAPE  C31611334   1.014   3.513   4.137 -0.5027  0.3915 -0.6074
  109SAPE  H16X11335   1.050   3.486   4.238  0.0398  1.2399 -0.5630
  109SAPE  H16Y11336   0.938   3.594   4.148 -1.0336 -0.3747  2.2127
  109SAPE  C31711337   1.140   3.576   4.073  0.5624 -0.2752 -0.3932
  109SAPE  H17X11338   1.115   3.627   3.977 -1.1938  0.2796  0.3133
  109SAPE  H17Y11339   1.214   3.494   4.061  0.7079 -0.6332  2.3456
  109SAPE  C31811340   1.215   3.679   4.154 -0.0973  0.2535  0.0584
  109SAPE  H18X11341   1.301   3.717   4.096  0.6042  0.2708  1.0872
  109SAPE  H18Y11342   1.259   3.625   4.241  1.3978 -0.9867 -1.4056
  109SAPE  H18Z11343   1.152   3.765   4.185  0.0536  1.0559 -1.7617
  110SAPE     N11344   6.705   1.727   1.753  0.4553 -0.5509 -0.3832
  110SAPE   HN111345   6.703   1.651   1.682  0.3042 -0.8535 -0.0574
  110SAPE   HN211346   6.647   1.809   1.726  2.6312  0.8612 -1.0299
  110SAPE   HN311347   6.801   1.768   1.746 -0.2348  0.9244 -1.8358
  110SAPE   C1211348   6.672   1.679   1.897  0.0935  0.4466 -0.7648
  110SAPE  H12A11349   6.761   1.629   1.941 -1.2083 -0.5714  0.8172
  110SAPE  H12B11350   6.599   1.596   1.881 -0.4878  0.7994 -0.0036
  110SAPE   C1111351   6.621   1.781   1.993  0.0513  0.8216 -0.1748
  110SAPE  H11A11352   6.693   1.864   2.011 -0.3080  0.5198  3.3128
  110SAPE  H11B11353   6.599   1.729   2.089  2.0575 -0.7409 -0.5043
  110SAPE     P11354   6.446   1.985   1.971  0.2894 -0.1630 -0.1802
  110SAPE   O1311355   6.540   2.081   1.908 -0.2168 -0.7863 -0.2830
  110SAPE   O1411356   6.302   1.983   1.937 -0.2034 -0.1587 -0.1747
  110SAPE   O1211357   6.498   1.839   1.946 -0.1273 -0.1583  0.3183
  110SAPE   O1111358   6.461   2.002   2.122  0.4813 -0.1401 -0.1616
  110SAPE    C111359   6.359   1.959   2.217 -0.1260 -0.5327 -0.4229
  110SAPE    HA11360   6.327   1.855   2.197 -0.3886 -0.0833 -2.5019
  110SAPE    HB11361   6.418   1.931   2.307  0.0780 -0.1555 -0.4381
  110SAPE    C211362   6.238   2.056   2.245  0.5898  0.7527 -0.2210
  110SAPE    HS11363   6.202   2.096   2.148 -1.1522 -1.0659 -0.4077
  110SAPE   O2111364   6.278   2.163   2.332  0.3677  0.3060  0.0702
  110SAPE   C2111365   6.348   2.265   2.275  0.4461  0.1392  0.1282
  110SAPE   O2211366   6.369   2.287   2.155 -0.1598 -0.6003  0.0800
  110SAPE   C2211367   6.382   2.362   2.400  1.1853  0.4270  0.3727
  110SAPE   H2R11368   6.491   2.348   2.417  1.1391 -0.0697  0.2924
  110SAPE   H2S11369   6.348   2.466   2.383  1.7746  0.3550 -1.4680
  110SAPE    C311370   6.118   1.971   2.311  0.4909 -0.0168  0.1245
  110SAPE    HX11371   6.026   2.032   2.307  0.4959 -0.0353 -0.2839
  110SAPE    HY11372   6.097   1.881   2.249  1.7985  0.3008 -0.8380
  110SAPE   O3111373   6.157   1.938   2.442 -0.3901 -0.1503 -0.4241
  110SAPE   C3111374   6.081   1.992   2.539  0.5270 -0.6786  0.1163
  110SAPE   O3211375   5.973   2.056   2.529 -0.3215  0.7360 -0.8363
  110SAPE   C3211376   6.135   1.971   2.678  0.1995  0.1446 -0.1850
  110SAPE   H2X11377   6.232   2.027   2.679  0.9018 -1.0329 -0.4793
  110SAPE   H2Y11378   6.150   1.862   2.692 -0.6417 -0.1033 -1.1097
  110SAPE   C2311379   6.313   2.308   2.528 -0.1189  0.0222  0.3748
  110SAPE   H3R11380   6.346   2.205   2.554  1.2817  0.3869  0.1507
  110SAPE   H3S11381   6.204   2.308   2.505  0.1735 -0.0662 -1.1133
  110SAPE   C2411382   6.333   2.402   2.654 -0.1695 -0.0915  0.2097
  110SAPE   H4R11383   6.265   2.358   2.729  0.6625  1.7548  2.1392
  110SAPE   H4S11384   6.293   2.503   2.634 -0.8800 -0.1691  1.1740
  110SAPE   C2511385   6.470   2.392   2.717 -0.0648 -0.2546  0.6121
  110SAPE   H5R11386   6.533   2.311   2.677 -0.5115 -1.3873  2.1189
  110SAPE   C2611387   6.527   2.478   2.802 -0.0027 -0.3188 -0.2695
  110SAPE   H6R11388   6.632   2.452   2.824 -0.8697 -4.3786 -0.1945
  110SAPE   C2711389   6.477   2.611   2.844 -0.0004  0.2403 -0.1854
  110SAPE   H7R11390   6.421   2.647   2.755  0.0623 -0.4336 -0.5048
  110SAPE   H7S11391   6.564   2.680   2.855 -0.3266  0.4737  1.1759
  110SAPE   C2811392   6.387   2.605   2.966 -0.5373 -0.4053 -0.1420
  110SAPE   H8R11393   6.288   2.561   2.951 -0.4097 -2.1725  3.2155
  110SAPE   C2911394   6.436   2.626   3.093 -0.2745 -0.3598  0.0236
  110SAPE   H9R11395   6.363   2.619   3.175 -1.0844 -0.2944 -0.6658
  110SAPE  C21011396   6.576   2.668   3.129 -0.4803 -0.0120  0.3405
  110SAPE  H10R11397   6.603   2.755   3.065 -0.4613 -1.3397 -1.5232
  110SAPE  H10S11398   6.637   2.579   3.101 -0.5260  0.1571 -0.3222
  110SAPE  C21111399   6.618   2.682   3.274 -0.0533 -0.0269 -0.5678
  110SAPE  H11R11400   6.624   2.589   3.333 -0.3084  1.0465  1.2091
  110SAPE  C21211401   6.640   2.794   3.348 -0.3892 -0.0057  0.4397
  110SAPE  H12R11402   6.658   2.785   3.456 -2.9743  0.4227  0.9598
  110SAPE  C21311403   6.630   2.940   3.304  0.7689  0.3537  0.1581
  110SAPE  H13R11404   6.541   2.943   3.238  0.8457 -0.3366  0.0204
  110SAPE  H13S11405   6.710   2.971   3.233 -0.6618  0.1536 -1.6181
  110SAPE  C21411406   6.616   3.041   3.417 -0.5912  0.5905  0.1913
  110SAPE  H14R11407   6.705   3.103   3.430  1.6145 -2.2658 -0.1506
  110SAPE  C21511408   6.512   3.052   3.502  0.0812 -0.3184  0.3010
  110SAPE  H15R11409   6.520   3.133   3.575  1.1597 -1.6590  1.7441
  110SAPE  C21611410   6.384   2.970   3.494 -0.1131  0.3684  0.0298
  110SAPE  H16R11411   6.387   2.899   3.409 -0.6880 -0.0324  0.3378
  110SAPE  H16S11412   6.310   3.049   3.469 -1.3594 -1.0122 -0.8015
  110SAPE  C21711413   6.351   2.897   3.626 -0.2536 -1.0750  0.5449
  110SAPE  H17R11414   6.289   2.959   3.695 -5.4489 -2.2649 -2.4555
  110SAPE  H17S11415   6.434   2.862   3.690 -1.2364 -2.5113  1.0867
  110SAPE  C21811416   6.240   2.796   3.606  0.1959  0.0989  0.1080
  110SAPE  H18R11417   6.166   2.839   3.535 -0.9186 -1.3985  0.3094
  110SAPE  H18S11418   6.187   2.772   3.700 -1.2523 -0.6072 -0.8575
  110SAPE  C21911419   6.289   2.664   3.541 -0.3485 -0.3027 -1.5426
  110SAPE  H19R11420   6.381   2.635   3.596 -0.8528 -1.1848 -1.1545
  110SAPE  H19S11421   6.324   2.698   3.441 -0.0677  0.8818 -1.0626
  110SAPE  C22011422   6.189   2.554   3.527  0.5918  0.9551  0.0599
  110SAPE  H20R11423   6.182   2.506   3.626  0.5282 -1.0269 -0.8653
  110SAPE  H20S11424   6.223   2.476   3.456 -3.5362  0.1938 -1.3176
  110SAPE  H20T11425   6.090   2.593   3.497  0.1593 -0.8616 -0.9951
  110SAPE   C3311426   6.047   2.033   2.792 -0.6078 -0.1482  0.6971
  110SAPE   H3X11427   5.948   1.982   2.780 -0.2079 -0.5730 -1.1887
  110SAPE   H3Y11428   6.040   2.141   2.766 -0.4944 -0.5202 -0.9846
  110SAPE   C3411429   6.102   2.020   2.930 -0.1059  0.2006 -1.2349
  110SAPE   H4X11430   6.122   1.912   2.948  2.1825  0.7101 -0.3245
  110SAPE   H4Y11431   6.020   2.054   2.997  0.3797 -0.0842 -0.4814
  110SAPE   C3511432   6.234   2.094   2.970  0.1114  0.1641 -0.0440
  110SAPE   H5X11433   6.222   2.193   2.922 -1.1772  0.5358  0.9730
  110SAPE   H5Y11434   6.318   2.045   2.917  0.1154  1.2736 -1.0993
  110SAPE   C3611435   6.268   2.099   3.124 -0.2525  0.6655  0.0243
  110SAPE   H6X11436   6.377   2.116   3.133  0.5963 -3.8387  0.5119
  110SAPE   H6Y11437   6.247   2.002   3.174 -0.7512  0.6891 -0.1318
  110SAPE   C3711438   6.196   2.204   3.209  0.5258  0.4943 -0.2080
  110SAPE   H7X11439   6.086   2.196   3.198  0.7602 -0.0798 -2.6609
  110SAPE   H7Y11440   6.217   2.304   3.167  0.7286  0.3922 -0.3555
  110SAPE   C3811441   6.235   2.210   3.353 -0.4841 -0.1749  0.9088
  110SAPE   H8X11442   6.168   2.273   3.416  1.7026  0.9021  2.2877
  110SAPE   H8Y11443   6.336   2.254   3.370 -0.4264  0.4352 -0.8709
  110SAPE   C3911444   6.245   2.069   3.422 -0.4427  0.2245 -1.0603
  110SAPE   H9X11445   6.341   2.027   3.384 -0.7362 -1.2226 -0.2653
  110SAPE   H9Y11446   6.167   1.999   3.385 -0.1547 -0.3849 -0.5368
  110SAPE  C31011447   6.254   2.075   3.575 -0.0566  0.0816 -0.4641
  110SAPE  H10X11448   6.302   1.990   3.627 -0.3202  1.9540  3.2201
  110SAPE  H10Y11449   6.158   2.082   3.630  0.8028 -0.6007  1.1797
  110SAPE  C31111450   6.339   2.195   3.629  0.2387 -0.0357  0.4080
  110SAPE  H11X11451   6.289   2.289   3.595 -1.2482 -0.8130  0.3335
  110SAPE  H11Y11452   6.439   2.183   3.583 -0.1298 -1.1520 -0.1301
  110SAPE  C31211453   6.355   2.188   3.782  0.1550 -0.2218 -0.2447
  110SAPE  H12X11454   6.423   2.261   3.831  1.8938 -1.3780 -0.8270
  110SAPE  H12Y11455   6.385   2.082   3.799 -1.8763 -1.0590 -1.5535
  110SAPE  C31311456   6.226   2.205   3.857  0.3416 -0.4179 -0.0420
  110SAPE  H13X11457   6.188   2.101   3.865  0.6194 -0.4920  0.3649
  110SAPE  H13Y11458   6.170   2.274   3.790 -1.3609  0.0919  1.7932
  110SAPE  C31411459   6.230   2.262   4.002 -0.6941  0.5292  0.2665
  110SAPE  H14X11460   6.296   2.352   3.998 -3.6025  2.7536 -1.6809
  110SAPE  H14Y11461   6.266   2.183   4.072 -1.5655  0.9027  1.1575
  110SAPE  C31511462   6.091   2.304   4.047 -0.2804 -0.0284 -0.2232
  110SAPE  H15X11463   6.041   2.213   4.086 -0.4704  0.0067 -0.3790
  110SAPE  H15Y11464   6.038   2.346   3.958 -1.0430  0.2676  0.3541
  110SAPE  C31611465   6.078   2.419   4.145  0.0529  0.4351  0.0473
  110SAPE  H16X11466   6.060   2.509   4.082 -0.1384 -0.2711 -0.9414
  110SAPE  H16Y11467   6.171   2.442   4.200  0.3806 -0.6780 -0.0318
  110SAPE  C31711468   5.947   2.408   4.230  0.1575  0.0994 -0.6772
  110SAPE  H17X11469   5.854   2.410   4.170 -0.7445  1.3049  0.7105
  110SAPE  H17Y11470   5.949   2.504   4.286 -0.4831 -1.2420  1.7933
  110SAPE  C31811471   5.954   2.290   4.328  0.0708  0.0703 -0.2522
  110SAPE  H18X11472   6.053   2.273   4.376  0.0845 -0.6538 -0.5120
  110SAPE  H18Y11473   5.919   2.197   4.277 -0.3232 -0.0539  0.2297
  110SAPE  H18Z11474   5.882   2.306   4.411  1.6077  0.1534  1.1342
  111SAPE     N11475   2.068   0.395   2.103 -0.3900 -0.0719 -0.3050
  111SAPE   HN111476   2.148   0.454   2.071 -0.6146  0.3634 -0.0615
  111SAPE   HN211477   2.092   0.294   2.099  1.8858  0.2347  2.5836
  111SAPE   HN311478   1.987   0.412   2.040  1.0793  0.7097 -2.1079
  111SAPE   C1211479   2.034   0.437   2.244  0.6389  0.1583  0.8265
  111SAPE  H12A11480   1.994   0.540   2.234 -0.2892 -0.2905 -0.2646
  111SAPE  H12B11481   2.125   0.453   2.305  0.1042  1.4547  1.3131
  111SAPE   C1111482   1.928   0.346   2.308  0.3420 -0.2822  0.3343
  111SAPE  H11A11483   1.845   0.346   2.234 -0.3552  0.3033  1.1093
  111SAPE  H11B11484   1.883   0.379   2.404 -1.3833 -1.1158 -0.1523
  111SAPE     P11485   1.891   0.090   2.310 -0.3135  0.0191  0.2450
  111SAPE   O1311486   1.750   0.136   2.309 -0.3339 -0.2550  0.4306
  111SAPE   O1411487   1.934   0.021   2.186  0.0931 -0.5738 -0.5181
  111SAPE   O1211488   1.986   0.219   2.333 -0.1113  0.7867  0.4153
  111SAPE   O1111489   1.913  -0.007   2.437  0.4202  0.0010  0.4761
  111SAPE    C111490   2.008   0.046   2.538 -0.1230  0.1782  0.2779
  111SAPE    HA11491   2.113   0.028   2.507 -0.8772 -0.1503 -2.3426
  111SAPE    HB11492   2.002   0.156   2.552 -2.8524 -0.0664  1.7385
  111SAPE    C211493   1.995   0.006   2.684 -0.8471  0.3575  0.8330
  111SAPE    HS11494   2.042  -0.094   2.696  0.3799  0.8835  0.5598
  111SAPE   O2111495   1.855  -0.001   2.712  0.0443 -0.1998 -0.2964
  111SAPE   C2111496   1.790  -0.107   2.689 -0.1423 -0.2825 -0.7634
  111SAPE   O2211497   1.837  -0.219   2.660 -0.3073 -0.1602 -0.0585
  111SAPE   C2211498   1.638  -0.083   2.718  0.6121  0.0524 -0.6172
  111SAPE   H2R11499   1.623   0.009   2.778 -1.4243 -1.0235  0.6424
  111SAPE   H2S11500   1.584  -0.082   2.621  0.0116  0.6948 -0.2773
  111SAPE    C311501   2.060   0.105   2.781  0.4017  0.1549 -0.0708
  111SAPE    HX11502   2.008   0.200   2.758 -0.6741 -0.0665  1.2909
  111SAPE    HY11503   2.169   0.108   2.760  0.0603 -0.0351 -2.0694
  111SAPE   O3111504   2.040   0.061   2.918 -0.6825 -0.4000  0.2820
  111SAPE   C3111505   1.965   0.132   3.000  0.3940 -0.4345 -0.0989
  111SAPE   O3211506   1.922   0.245   2.969 -0.2290  0.2783 -0.3937
  111SAPE   C3211507   1.950   0.057   3.135  0.6955 -0.2777  0.0348
  111SAPE   H2X11508   2.047   0.007   3.159  0.7944 -0.2163 -0.2350
  111SAPE   H2Y11509   1.875  -0.024   3.132  1.6698 -1.1961 -0.2522
  111SAPE   C2311510   1.568  -0.200   2.795 -0.0434  1.1274  0.3530
  111SAPE   H3R11511   1.553  -0.293   2.736  0.6467  0.3792  1.3173
  111SAPE   H3S11512   1.480  -0.153   2.844  0.3211  0.6671  1.4899
  111SAPE   C2411513   1.656  -0.243   2.923 -0.4191 -0.2194 -0.4362
  111SAPE   H4R11514   1.670  -0.147   2.978  1.9778 -0.6984 -0.1368
  111SAPE   H4S11515   1.758  -0.281   2.905 -0.8572 -1.3467 -0.6223
  111SAPE   C2511516   1.583  -0.351   3.002  0.2319 -0.3260 -1.3772
  111SAPE   H5R11517   1.557  -0.444   2.949  2.3509 -1.8918  0.1228
  111SAPE   C2611518   1.564  -0.356   3.136 -0.4041 -0.0393 -0.5739
  111SAPE   H6R11519   1.526  -0.449   3.182 -0.4665  0.0107 -0.5237
  111SAPE   C2711520   1.611  -0.254   3.236  0.1279 -1.1402  0.3298
  111SAPE   H7R11521   1.521  -0.216   3.289  1.1263  1.0827  0.5393
  111SAPE   H7S11522   1.662  -0.166   3.193 -0.7976 -1.0282 -0.5830
  111SAPE   C2811523   1.692  -0.315   3.339  1.0860  0.2700  0.2638
  111SAPE   H8R11524   1.798  -0.336   3.317  1.0781  0.7831 -0.2951
  111SAPE   C2911525   1.656  -0.339   3.470  0.0957 -0.1345 -0.1222
  111SAPE   H9R11526   1.736  -0.373   3.537  2.2699  0.2451 -2.3608
  111SAPE  C21011527   1.516  -0.317   3.526  0.2426 -0.7542  0.1608
  111SAPE  H10R11528   1.459  -0.233   3.480 -0.8055 -0.1206  2.4871
  111SAPE  H10S11529   1.527  -0.282   3.631 -3.0535  0.9463  0.0796
  111SAPE  C21111530   1.433  -0.446   3.516  0.3860  0.0091 -1.0100
  111SAPE  H11R11531   1.407  -0.481   3.415 -0.9147 -1.2580 -0.2743
  111SAPE  C21211532   1.382  -0.510   3.622 -0.2561 -0.4903  0.1899
  111SAPE  H12R11533   1.321  -0.598   3.598  0.1432 -1.2300  1.7242
  111SAPE  C21311534   1.378  -0.469   3.767  0.2734  0.0787  0.3690
  111SAPE  H13R11535   1.391  -0.358   3.769  1.2789 -0.0244  0.1535
  111SAPE  H13S11536   1.464  -0.516   3.819  0.7835  1.4830  0.8536
  111SAPE  C21411537   1.252  -0.509   3.840 -0.1103  0.5967  0.2376
  111SAPE  H14R11538   1.174  -0.437   3.869 -2.8117 -1.3783 -1.6380
  111SAPE  C21511539   1.242  -0.632   3.896 -0.4544 -0.1300  0.3744
  111SAPE  H15R11540   1.156  -0.636   3.966 -1.8070  3.5089 -0.8277
  111SAPE  C21611541   1.323  -0.754   3.848 -0.0908 -0.3338 -0.6879
  111SAPE  H16R11542   1.426  -0.757   3.890  0.8076 -0.9135 -2.7615
  111SAPE  H16S11543   1.333  -0.768   3.738 -1.0270  1.9867 -1.1335
  111SAPE  C21711544   1.254  -0.887   3.890 -0.0261 -0.6640 -0.3024
  111SAPE  H17R11545   1.222  -0.895   3.996  0.2623 -0.6690 -0.2153
  111SAPE  H17S11546   1.331  -0.964   3.870  2.1524  1.6570 -1.4336
  111SAPE  C21811547   1.135  -0.929   3.810  0.2969  0.9037 -0.1992
  111SAPE  H18R11548   1.174  -0.964   3.712 -0.2303 -2.3215  0.6387
  111SAPE  H18S11549   1.059  -0.848   3.801 -0.8405 -0.2543 -1.3736
  111SAPE  C21911550   1.066  -1.050   3.882 -0.0070 -0.7341 -0.0957
  111SAPE  H19R11551   1.032  -1.007   3.979 -0.4750  0.4998 -0.7777
  111SAPE  H19S11552   1.129  -1.137   3.907 -0.5525 -1.6233 -1.6581
  111SAPE  C22011553   0.950  -1.104   3.800  0.2369  0.0418 -0.3225
  111SAPE  H20R11554   0.860  -1.041   3.817 -1.4218 -2.2752  0.0412
  111SAPE  H20S11555   0.920  -1.207   3.830  1.9431 -0.9299 -1.7839
  111SAPE  H20T11556   0.975  -1.119   3.693 -2.4825 -1.6211 -0.8234
  111SAPE   C3311557   1.919   0.172   3.243  0.1269  0.1219 -0.1028
  111SAPE   H3X11558   1.824   0.224   3.222 -0.1005  1.0614  2.7243
  111SAPE   H3Y11559   1.998   0.250   3.239 -0.1839  0.4176 -0.4970
  111SAPE   C3411560   1.897   0.105   3.378  0.3930 -0.6536 -0.2986
  111SAPE   H4X11561   1.988   0.046   3.400  0.2822  0.0802  2.4804
  111SAPE   H4Y11562   1.807   0.039   3.380  0.3907 -0.6514 -0.3211
  111SAPE   C3511563   1.873   0.207   3.498 -0.2754  0.0794 -0.6795
  111SAPE   H5X11564   1.782   0.267   3.480  1.8050  3.3467 -1.2433
  111SAPE   H5Y11565   1.960   0.276   3.513  0.2551 -0.4106 -1.4409
  111SAPE   C3611566   1.854   0.127   3.629  0.1678 -1.3370 -0.0338
  111SAPE   H6X11567   1.942   0.064   3.654  2.1327  0.8674 -0.9395
  111SAPE   H6Y11568   1.764   0.065   3.615  0.5540 -1.9079 -0.0002
  111SAPE   C3711569   1.825   0.226   3.751  0.7410 -0.2729  0.0350
  111SAPE   H7X11570   1.757   0.305   3.714  0.6586  0.5763  1.9106
  111SAPE   H7Y11571   1.917   0.267   3.797 -0.3152  0.9988  1.0789
  111SAPE   C3811572   1.740   0.147   3.848 -0.8667  0.5152  0.4456
  111SAPE   H8X11573   1.643   0.122   3.800  0.1124 -1.4958 -0.5952
  111SAPE   H8Y11574   1.735   0.202   3.945  2.1688  0.0422  0.9572
  111SAPE   C3911575   1.820   0.020   3.887 -0.4574  0.1692 -0.1197
  111SAPE   H9X11576   1.925   0.040   3.917 -0.5191  1.7924 -0.8884
  111SAPE   H9Y11577   1.829  -0.046   3.798 -0.2696 -0.4657  0.3679
  111SAPE  C31011578   1.748  -0.053   4.000  0.8316 -0.3816 -0.2660
  111SAPE  H10X11579   1.726   0.015   4.085  4.9942 -0.0016  0.7389
  111SAPE  H10Y11580   1.819  -0.125   4.047  0.8033  0.3146  0.8824
  111SAPE  C31111581   1.623  -0.138   3.953  0.4900 -0.3780  0.8884
  111SAPE  H11X11582   1.662  -0.179   3.858  0.8946  1.6480  0.1283
  111SAPE  H11Y11583   1.556  -0.060   3.909 -1.3577 -0.5411  3.2060
  111SAPE  C31211584   1.564  -0.238   4.053 -0.0933  0.2037  0.1900
  111SAPE  H12X11585   1.460  -0.268   4.027 -0.4213  0.8772  0.6934
  111SAPE  H12Y11586   1.565  -0.190   4.153 -1.2998 -0.5963  0.6127
  111SAPE  C31311587   1.641  -0.373   4.062  0.0043  0.2651 -0.5805
  111SAPE  H13X11588   1.746  -0.368   4.100  0.5173 -1.7589 -1.5740
  111SAPE  H13Y11589   1.647  -0.418   3.961 -0.0319 -0.8812 -0.0934
  111SAPE  C31411590   1.555  -0.481   4.145 -0.9315  0.3300 -0.7713
  111SAPE  H14X11591   1.470  -0.521   4.087 -1.2321 -0.0799 -0.0622
  111SAPE  H14Y11592   1.517  -0.431   4.237  1.0520 -0.4203  0.5419
  111SAPE  C31511593   1.646  -0.591   4.213  0.2943  0.0585 -0.0377
  111SAPE  H15X11594   1.730  -0.531   4.254  0.7679  0.2024 -1.1774
  111SAPE  H15Y11595   1.683  -0.647   4.125  1.4287  1.4235 -0.4688
  111SAPE  C31611596   1.575  -0.681   4.314  0.0244  0.0670  0.1520
  111SAPE  H16X11597   1.535  -0.627   4.403 -0.3502 -0.1620  0.1239
  111SAPE  H16Y11598   1.648  -0.744   4.369  0.4549  1.1697  0.8906
  111SAPE  C31711599   1.466  -0.758   4.246  0.4610  0.2019  0.2260
  111SAPE  H17X11600   1.518  -0.796   4.155  2.0038  1.5464  0.4867
  111SAPE  H17Y11601   1.386  -0.682   4.231 -1.5198 -1.7618  0.4881
  111SAPE  C31811602   1.392  -0.862   4.332  0.0312 -0.1873 -0.0882
  111SAPE  H18X11603   1.434  -0.964   4.338 -2.1083 -1.0446  1.7058
  111SAPE  H18Y11604   1.293  -0.872   4.282 -1.7874 -0.2029  3.2051
  111SAPE  H18Z11605   1.368  -0.822   4.433  0.3652 -0.4183  0.0842
  112SAPE     N11606   2.444   0.037   2.318 -0.7463 -0.5599  0.0102
  112SAPE   HN111607   2.492   0.054   2.227  0.9781 -2.3684  0.5027
  112SAPE   HN211608   2.512  -0.034   2.353  0.5218 -0.9954 -3.0325
  112SAPE   HN311609   2.354  -0.010   2.298  0.3568 -2.5930 -0.4539
  112SAPE   C1211610   2.447   0.152   2.421  0.0108 -0.0339 -0.0423
  112SAPE  H12A11611   2.537   0.215   2.403  0.1001 -0.0492  0.3443
  112SAPE  H12B11612   2.444   0.099   2.519  4.6378 -2.2726 -0.8479
  112SAPE   C1111613   2.331   0.250   2.389  0.1455  0.1902  0.0091
  112SAPE  H11A11614   2.338   0.342   2.452 -0.1163  0.9680 -1.0653
  112SAPE  H11B11615   2.237   0.194   2.404  0.4529 -0.4197 -0.2996
  112SAPE     P11616   2.423   0.389   2.183  0.0648 -0.2522 -0.0420
  112SAPE   O1311617   2.525   0.322   2.100 -0.1701  0.2158  0.4916
  112SAPE   O1411618   2.346   0.498   2.121  0.2634  0.0551  0.3400
  112SAPE   O1211619   2.327   0.288   2.253  0.1948  0.2208 -0.2397
  112SAPE   O1111620   2.502   0.457   2.306  0.3632 -0.4230  0.2145
  112SAPE    C111621   2.630   0.521   2.295 -0.1003 -0.1726 -0.4289
  112SAPE    HA11622   2.705   0.440   2.303 -0.0022  0.0401  1.2519
  112SAPE    HB11623   2.635   0.592   2.209 -2.0988  2.5205  1.4989
  112SAPE    C211624   2.667   0.617   2.420 -0.2345  0.3040 -0.7511
  112SAPE    HS11625   2.768   0.660   2.405 -0.5219  1.0791 -0.5231
  112SAPE   O2111626   2.659   0.538   2.541  0.4279 -0.2304  0.0409
  112SAPE   C2111627   2.750   0.454   2.557  0.5310  0.0418 -0.6220
  112SAPE   O2211628   2.853   0.448   2.487 -0.1258 -0.6714 -0.6387
  112SAPE   C2211629   2.717   0.368   2.678  0.2953 -0.2085 -0.0255
  112SAPE   H2R11630   2.644   0.424   2.741 -1.1677 -0.9744 -0.9611
  112SAPE   H2S11631   2.656   0.280   2.648  2.0107 -1.7102  0.7411
  112SAPE    C311632   2.562   0.733   2.432  0.0417  0.2394  0.1647
  112SAPE    HX11633   2.466   0.688   2.399  0.3413 -0.6569  0.4981
  112SAPE    HY11634   2.580   0.818   2.363 -2.0287  0.5315 -0.0934
  112SAPE   O3111635   2.548   0.784   2.564 -0.2725  0.1268 -0.0009
  112SAPE   C3111636   2.451   0.864   2.595 -0.6234  0.2656 -0.1550
  112SAPE   O3211637   2.378   0.928   2.520 -0.0038 -0.1679 -0.5708
  112SAPE   C3211638   2.450   0.890   2.750  0.1796  0.1970  1.2930
  112SAPE   H2X11639   2.459   1.000   2.755  0.3991  0.1408  2.7999
  112SAPE   H2Y11640   2.542   0.840   2.788  1.9760  2.1898 -0.2250
  112SAPE   C2311641   2.836   0.324   2.755  0.6245  0.1450 -0.8164
  112SAPE   H3R11642   2.899   0.410   2.788  1.5289 -0.0902 -1.8741
  112SAPE   H3S11643   2.888   0.248   2.693  0.0848 -0.3862 -0.6333
  112SAPE   C2411644   2.797   0.248   2.881  0.2851  0.7387 -0.4202
  112SAPE   H4R11645   2.715   0.177   2.857  1.0569  0.2690 -1.8170
  112SAPE   H4S11646   2.751   0.310   2.960  2.1176  3.0123 -1.0272
  112SAPE   C2511647   2.918   0.178   2.935  0.7178 -0.5995  0.0194
  112SAPE   H5R11648   2.958   0.111   2.858 -1.7274 -2.7812  0.5153
  112SAPE   C2611649   2.985   0.183   3.051  0.3325 -0.8484  0.0260
  112SAPE   H6R11650   3.061   0.105   3.071  1.3557  0.6075  2.3616
  112SAPE   C2711651   2.952   0.267   3.172 -0.0814 -0.0053  0.1651
  112SAPE   H7R11652   2.842   0.268   3.181 -0.0126 -0.5920  1.2279
  112SAPE   H7S11653   2.985   0.373   3.163  1.5590 -0.5286 -0.3904
  112SAPE   C2811654   3.017   0.207   3.297 -0.2022  0.8171  0.2678
  112SAPE   H8R11655   3.081   0.119   3.283 -1.2661  0.0424  0.1672
  112SAPE   C2911656   3.002   0.246   3.426  0.0918  0.4454  0.2795
  112SAPE   H9R11657   3.055   0.194   3.507  0.5547 -1.7063 -1.2967
  112SAPE  C21011658   2.921   0.373   3.458  0.1595  0.3705  0.2599
  112SAPE  H10R11659   2.857   0.396   3.370  0.5292 -3.3699 -1.1757
  112SAPE  H10S11660   2.992   0.457   3.471  0.1387  0.4539 -0.1552
  112SAPE  C21111661   2.827   0.351   3.580 -0.1022 -0.3780  0.1562
  112SAPE  H11R11662   2.720   0.339   3.557 -0.3310  2.0286 -0.2673
  112SAPE  C21211663   2.859   0.358   3.710 -0.2338  0.5183 -0.1514
  112SAPE  H12R11664   2.782   0.338   3.786  1.6495  0.8412  1.9341
  112SAPE  C21311665   2.997   0.379   3.763 -0.1143  0.3540  0.0081
  112SAPE  H13R11666   2.995   0.425   3.864 -1.0077  2.8911 -1.0807
  112SAPE  H13S11667   3.045   0.459   3.703 -2.3872  1.2776 -0.6901
  112SAPE  C21411668   3.080   0.254   3.765  0.5340  0.9628  0.4961
  112SAPE  H14R11669   3.039   0.162   3.721  2.1551  1.1259 -1.4581
  112SAPE  C21511670   3.190   0.239   3.837 -0.1349 -0.4187  0.1998
  112SAPE  H15R11671   3.259   0.152   3.830  2.0130  0.7219  4.1648
  112SAPE  C21611672   3.261   0.354   3.905  0.2736 -0.2257 -0.5729
  112SAPE  H16R11673   3.223   0.451   3.865  1.2106  1.0211  1.3385
  112SAPE  H16S11674   3.369   0.359   3.880  0.4474  2.7117  0.3489
  112SAPE  C21711675   3.242   0.366   4.052  0.3717 -0.3575 -0.5178
  112SAPE  H17R11676   3.292   0.279   4.100 -3.9498 -1.5912  2.3027
  112SAPE  H17S11677   3.134   0.347   4.066  0.5412  0.5383  2.6148
  112SAPE  C21811678   3.287   0.497   4.120 -0.4333  0.0989 -0.1327
  112SAPE  H18R11679   3.250   0.591   4.074 -0.8127 -0.0934 -0.2240
  112SAPE  H18S11680   3.395   0.511   4.098 -0.8856  3.2466 -0.8321
  112SAPE  C21911681   3.272   0.500   4.272  0.7603  0.3631 -0.0358
  112SAPE  H19R11682   3.341   0.425   4.314 -0.1310 -0.5337 -0.1379
  112SAPE  H19S11683   3.169   0.470   4.303 -0.2498 -0.7541 -3.9749
  112SAPE  C22011684   3.319   0.630   4.335  0.5733  0.4927  0.3058
  112SAPE  H20R11685   3.260   0.715   4.295 -1.1413 -0.4973  0.6512
  112SAPE  H20S11686   3.424   0.649   4.305  0.5508 -0.8333 -0.6923
  112SAPE  H20T11687   3.325   0.626   4.446  1.7789 -4.1932  0.2482
  112SAPE   C3311688   2.321   0.869   2.831 -0.1986 -0.2089  0.3883
  112SAPE   H3X11689   2.313   0.762   2.856  0.7904  0.0905  2.0683
  112SAPE   H3Y11690   2.234   0.908   2.773  1.1105 -0.4343 -1.8586
  112SAPE   C3411691   2.333   0.934   2.970  0.7840 -0.9047  0.3773
  112SAPE   H4X11692   2.391   1.028   2.974 -0.7682  0.0733  0.6428
  112SAPE   H4Y11693   2.392   0.860   3.028  0.5076 -0.3358  1.4090
  112SAPE   C3511694   2.191   0.960   3.036 -0.5419 -0.8688  0.1817
  112SAPE   H5X11695   2.144   0.860   3.026 -2.1685 -0.1793  0.6818
  112SAPE   H5Y11696   2.139   1.045   2.987  0.5038  1.1687  2.3957
  112SAPE   C3611697   2.188   0.989   3.191  0.0872 -0.0837  0.1504
  112SAPE   H6X11698   2.250   0.911   3.241  1.5823  0.6361 -0.5145
  112SAPE   H6Y11699   2.081   0.974   3.216  0.0350  0.2348  0.1188
  112SAPE   C3711700   2.224   1.126   3.243  0.8332  0.7889  0.4118
  112SAPE   H7X11701   2.192   1.205   3.172  0.0776 -0.7184 -0.9883
  112SAPE   H7Y11702   2.334   1.131   3.233  0.8674 -1.8906 -1.7727
  112SAPE   C3811703   2.180   1.162   3.389  0.6044 -0.3073  0.7081
  112SAPE   H8X11704   2.070   1.179   3.384  0.7022  0.0897 -0.1247
  112SAPE   H8Y11705   2.231   1.255   3.422  1.0695 -0.1769 -0.3620
  112SAPE   C3911706   2.209   1.047   3.485  0.0920 -0.3871  0.3324
  112SAPE   H9X11707   2.319   1.027   3.489 -0.2337 -2.3331  0.5475
  112SAPE   H9Y11708   2.159   0.950   3.463 -0.4070  0.2676 -1.5337
  112SAPE  C31011709   2.169   1.111   3.625  0.7163  0.4477  0.4077
  112SAPE  H10X11710   2.060   1.127   3.634  1.0609  3.0605  0.8931
  112SAPE  H10Y11711   2.216   1.212   3.630  0.8804  0.3783  0.2994
  112SAPE  C31111712   2.222   1.035   3.750  0.8618 -0.4159 -0.1070
  112SAPE  H11X11713   2.189   0.929   3.758 -2.2170  0.5935  2.8497
  112SAPE  H11Y11714   2.178   1.068   3.847  0.3870 -2.2821  0.3553
  112SAPE  C31211715   2.372   1.052   3.770  0.6378  0.1385 -0.2650
  112SAPE  H12X11716   2.402   1.155   3.799 -1.6682  1.0754 -0.9683
  112SAPE  H12Y11717   2.427   1.027   3.677  0.6204 -0.6486 -0.0738
  112SAPE  C31311718   2.437   0.971   3.887  0.6992 -0.7392 -0.1031
  112SAPE  H13X11719   2.543   0.958   3.858  0.7368  1.6072 -1.2740
  112SAPE  H13Y11720   2.390   0.870   3.889 -2.3494  0.5435 -0.8541
  112SAPE  C31411721   2.432   1.032   4.027  0.8401  0.5378  0.0790
  112SAPE  H14X11722   2.335   1.025   4.080  0.5580  3.4051  0.0877
  112SAPE  H14Y11723   2.445   1.142   4.025 -0.8396  0.7786  0.8917
  112SAPE  C31511724   2.514   0.971   4.139 -0.0340  0.4167 -0.0270
  112SAPE  H15X11725   2.507   1.027   4.235  0.8295 -1.7585  1.3883
  112SAPE  H15Y11726   2.621   0.982   4.111  0.3450 -0.0406  1.1947
  112SAPE  C31611727   2.492   0.824   4.177  0.4883 -0.0025 -0.1247
  112SAPE  H16X11728   2.578   0.767   4.219 -0.8985 -1.4791  0.8419
  112SAPE  H16Y11729   2.472   0.772   4.082 -1.9549 -1.0138  0.8619
  112SAPE  C31711730   2.363   0.807   4.267 -1.0300  0.3322  0.0142
  112SAPE  H17X11731   2.281   0.866   4.223 -0.8489  1.4080  1.0696
  112SAPE  H17Y11732   2.381   0.847   4.370 -0.2784 -1.9124  0.8212
  112SAPE  C31811733   2.317   0.664   4.284 -0.2493 -0.3724 -0.6754
  112SAPE  H18X11734   2.251   0.664   4.373 -1.5510  1.0936 -1.5692
  112SAPE  H18Y11735   2.402   0.597   4.307 -0.5954 -0.5766  0.0340
  112SAPE  H18Z11736   2.269   0.621   4.193 -1.6519  1.9759 -1.1621
  113SAPE     N11737   3.522   3.005   2.620 -0.1191  0.1884  0.7187
  113SAPE   HN111738   3.454   2.972   2.692 -1.1642  0.3556 -0.1674
  113SAPE   HN211739   3.611   2.963   2.653  0.9299  0.4843 -1.5541
  113SAPE   HN311740   3.536   3.107   2.631 -1.4790  0.6648 -1.4645
  113SAPE   C1211741   3.472   2.973   2.484  0.6983  0.3326 -0.5268
  113SAPE  H12A11742   3.543   3.024   2.415 -0.6112  1.4067 -1.1355
  113SAPE  H12B11743   3.368   3.010   2.471 -0.2753 -1.8143  0.6713
  113SAPE   C1111744   3.485   2.818   2.466 -0.4983 -0.1519 -0.0151
  113SAPE  H11A11745   3.589   2.790   2.491 -1.7907 -3.6772  2.1866
  113SAPE  H11B11746   3.468   2.783   2.362  0.4218  0.3088 -0.3296
  113SAPE     P11747   3.368   2.600   2.552 -0.1789 -0.1453  0.4283
  113SAPE   O1311748   3.247   2.576   2.636 -0.2161  0.1728  0.2591
  113SAPE   O1411749   3.354   2.549   2.412 -0.2206 -0.3656  1.1204
  113SAPE   O1211750   3.399   2.755   2.565 -0.3514 -0.3489 -0.0289
  113SAPE   O1111751   3.506   2.533   2.608 -0.0727  0.0493  0.4945
  113SAPE    C111752   3.568   2.594   2.724 -1.2514 -0.7018 -1.1190
  113SAPE    HA11753   3.676   2.607   2.704 -1.6041  1.7650 -1.7461
  113SAPE    HB11754   3.531   2.696   2.749 -0.4919 -1.3095  3.1764
  113SAPE    C211755   3.554   2.516   2.856 -0.3586  1.0877 -0.3579
  113SAPE    HS11756   3.580   2.588   2.937  1.2706 -0.5558  0.6579
  113SAPE   O2111757   3.631   2.391   2.848  0.1353 -0.4614  0.4765
  113SAPE   C2111758   3.753   2.403   2.908  0.6032  0.5146 -0.3742
  113SAPE   O2211759   3.781   2.506   2.970  0.2373 -0.0669 -0.3062
  113SAPE   C2211760   3.816   2.264   2.929  0.4069  0.9861 -0.5488
  113SAPE   H2R11761   3.736   2.188   2.917 -0.8553  2.1991 -0.0659
  113SAPE   H2S11762   3.880   2.250   2.840 -0.2820  1.0184 -1.0539
  113SAPE    C311763   3.410   2.475   2.904 -0.0121 -0.0101  0.0621
  113SAPE    HX11764   3.377   2.402   2.827 -1.2812 -0.8552  1.3655
  113SAPE    HY11765   3.361   2.573   2.887  2.6374  1.2071 -1.1569
  113SAPE   O3111766   3.416   2.421   3.035  0.3896 -0.4718  0.2603
  113SAPE   C3111767   3.375   2.500   3.136  0.3780  0.2541  0.0027
  113SAPE   O3211768   3.329   2.610   3.121 -0.3731 -0.3476  0.2518
  113SAPE   C3211769   3.424   2.434   3.256 -0.3739 -0.9150  0.2703
  113SAPE   H2X11770   3.381   2.332   3.259 -0.3852 -1.0861 -2.8802
  113SAPE   H2Y11771   3.403   2.490   3.350 -0.4952 -2.3430  1.1350
  113SAPE   C2311772   3.899   2.250   3.062 -0.7695 -0.1490  0.0100
  113SAPE   H3R11773   3.822   2.235   3.141 -0.0649  0.2222  0.7950
  113SAPE   H3S11774   3.950   2.349   3.075  0.5020 -0.9020  1.0555
  113SAPE   C2411775   4.008   2.134   3.047 -0.1608  0.0280 -0.2026
  113SAPE   H4R11776   4.069   2.155   3.137  0.2456 -1.0778 -0.2103
  113SAPE   H4S11777   4.074   2.162   2.962  0.2666  0.9205  0.4086
  113SAPE   C2511778   3.946   1.992   3.040 -0.1167 -0.0170 -0.3578
  113SAPE   H5R11779   3.907   1.960   2.943  0.2794 -0.5486 -0.3445
  113SAPE   C2611780   3.938   1.907   3.153 -0.4404 -0.7445 -0.0351
  113SAPE   H6R11781   3.884   1.814   3.133  0.4363 -1.1757 -0.4690
  113SAPE   C2711782   3.985   1.937   3.293 -0.7584  0.0584  0.1304
  113SAPE   H7R11783   4.040   2.034   3.295 -0.9968  0.1924  0.2317
  113SAPE   H7S11784   4.053   1.856   3.325 -3.3088 -1.8634  1.0161
  113SAPE   C2811785   3.875   1.942   3.391  0.0570 -0.4377 -0.2087
  113SAPE   H8R11786   3.774   1.921   3.353  0.0679 -0.9713  0.0538
  113SAPE   C2911787   3.900   1.957   3.524  0.1894  0.6082  0.6631
  113SAPE   H9R11788   3.813   1.944   3.590  1.2825 -1.5494  1.7934
  113SAPE  C21011789   4.026   1.973   3.604  0.4052  0.6319 -0.1312
  113SAPE  H10R11790   4.003   2.031   3.697 -0.2703  1.2937 -0.6940
  113SAPE  H10S11791   4.094   2.039   3.546  0.3123  0.3030 -0.6131
  113SAPE  C21111792   4.096   1.839   3.622  0.2311 -0.2866 -0.0269
  113SAPE  H11R11793   4.098   1.787   3.525  4.2128  0.7364 -0.6596
  113SAPE  C21211794   4.162   1.797   3.732  0.6658  0.2851  0.3070
  113SAPE  H12R11795   4.189   1.690   3.733 -2.0127 -0.4548  0.5054
  113SAPE  C21311796   4.176   1.869   3.861 -0.4521 -0.0752 -0.1339
  113SAPE  H13R11797   4.179   1.794   3.943 -0.5785 -0.6651 -0.6507
  113SAPE  H13S11798   4.099   1.945   3.885  1.2478  1.6105  0.2331
  113SAPE  C21411799   4.311   1.943   3.847  0.3370 -0.0151  0.3859
  113SAPE  H14R11800   4.389   1.882   3.800  0.4579  1.3080 -1.2186
  113SAPE  C21511801   4.329   2.079   3.866  0.4947  0.0545  0.6565
  113SAPE  H15R11802   4.435   2.105   3.849 -0.0114  0.6253 -2.2848
  113SAPE  C21611803   4.235   2.184   3.909 -0.7151 -0.4337  0.0541
  113SAPE  H16R11804   4.131   2.155   3.933 -0.4150 -0.9271  0.8184
  113SAPE  H16S11805   4.251   2.265   3.836  3.0736 -0.3491  0.7698
  113SAPE  C21711806   4.302   2.243   4.037 -0.2136 -1.1860 -0.3762
  113SAPE  H17R11807   4.325   2.176   4.123 -0.4561 -0.6906  0.0812
  113SAPE  H17S11808   4.234   2.320   4.079  1.0421 -1.3675  2.1796
  113SAPE  C21811809   4.429   2.329   3.996 -0.0215  0.0823 -0.2385
  113SAPE  H18R11810   4.406   2.396   3.910  0.8878 -0.3080 -0.8050
  113SAPE  H18S11811   4.509   2.261   3.959  1.3533  1.5963 -0.1230
  113SAPE  C21911812   4.491   2.399   4.115  0.2865  0.1946 -0.0952
  113SAPE  H19R11813   4.594   2.431   4.090  1.2890 -1.6148  1.4319
  113SAPE  H19S11814   4.506   2.312   4.182  1.4974 -0.3968 -1.0923
  113SAPE  C22011815   4.411   2.508   4.181  0.9500 -0.0256 -0.2632
  113SAPE  H20R11816   4.361   2.579   4.111  0.5932 -1.5994 -1.6698
  113SAPE  H20S11817   4.478   2.565   4.249  0.6726 -1.0642  0.9249
  113SAPE  H20T11818   4.329   2.471   4.247 -0.0737  0.8563 -0.9980
  113SAPE   C3311819   3.579   2.413   3.252  0.6815  0.2039  0.6948
  113SAPE   H3X11820   3.626   2.514   3.250  0.7854  0.2097 -2.8981
  113SAPE   H3Y11821   3.625   2.356   3.169 -2.1579  0.7714 -1.4357
  113SAPE   C3411822   3.624   2.343   3.377 -0.5970  0.2964  0.3504
  113SAPE   H4X11823   3.599   2.237   3.352  1.8177  0.5404 -3.9111
  113SAPE   H4Y11824   3.574   2.381   3.469 -0.2608  0.3000  0.5349
  113SAPE   C3511825   3.770   2.361   3.420  0.2973  0.1759  1.1625
  113SAPE   H5X11826   3.799   2.467   3.434  1.7434  0.0318 -0.4257
  113SAPE   H5Y11827   3.839   2.323   3.342 -1.4164  1.2614 -0.9712
  113SAPE   C3611828   3.809   2.286   3.551  1.0718  0.2524 -0.0188
  113SAPE   H6X11829   3.916   2.254   3.554  0.9785 -0.6216 -2.9665
  113SAPE   H6Y11830   3.738   2.201   3.550  0.8470  0.4051  1.1182
  113SAPE   C3711831   3.772   2.363   3.681 -0.0683 -0.1937  0.0684
  113SAPE   H7X11832   3.666   2.398   3.683 -0.3790 -1.1360  1.1556
  113SAPE   H7Y11833   3.835   2.454   3.673 -1.1716  0.7543  1.6172
  113SAPE   C3811834   3.813   2.292   3.811  0.1038 -0.7758  0.3110
  113SAPE   H8X11835   3.762   2.193   3.822 -0.4403 -0.5214  0.1116
  113SAPE   H8Y11836   3.924   2.287   3.815  0.1053 -0.9363  0.0940
  113SAPE   C3911837   3.772   2.374   3.933  0.1418  0.4797  0.6492
  113SAPE   H9X11838   3.670   2.355   3.974  1.1866 -2.6005  2.1546
  113SAPE   H9Y11839   3.786   2.484   3.921  1.3679  0.2575 -0.0663
  113SAPE  C31011840   3.853   2.332   4.060 -0.1149  0.7095  0.1419
  113SAPE  H10X11841   3.952   2.381   4.053  1.1575 -1.7662  0.0306
  113SAPE  H10Y11842   3.857   2.221   4.060 -0.9019  0.6483  2.0235
  113SAPE  C31111843   3.785   2.387   4.188 -0.2719 -0.3677  0.6732
  113SAPE  H11X11844   3.676   2.367   4.185 -0.3870 -0.2585  3.0033
  113SAPE  H11Y11845   3.818   2.492   4.172  0.8118 -0.8626 -0.5781
  113SAPE  C31211846   3.845   2.326   4.312  0.2631  0.4583  0.0278
  113SAPE  H12X11847   3.899   2.232   4.288  1.0308  0.9289 -0.1250
  113SAPE  H12Y11848   3.756   2.302   4.374  0.2823 -1.9342 -0.7621
  113SAPE  C31311849   3.928   2.423   4.398  0.3113 -0.0459  0.2749
  113SAPE  H13X11850   3.878   2.522   4.388 -0.8177 -0.3079  2.5651
  113SAPE  H13Y11851   4.023   2.423   4.342  0.2451  0.3318  0.1622
  113SAPE  C31411852   3.937   2.371   4.546 -0.0373 -0.6791  0.1389
  113SAPE  H14X11853   3.946   2.260   4.544  2.1858 -0.5776  1.4289
  113SAPE  H14Y11854   3.840   2.399   4.593  0.2697 -1.4998  1.3037
  113SAPE  C31511855   4.061   2.424   4.614 -0.1245  0.3461  0.4589
  113SAPE  H15X11856   4.063   2.534   4.602 -0.1466  0.1954 -1.1105
  113SAPE  H15Y11857   4.146   2.380   4.558 -1.5933 -1.8008 -0.2023
  113SAPE  C31611858   4.078   2.370   4.764 -0.4144  0.8472  0.0587
  113SAPE  H16X11859   4.176   2.394   4.810 -0.9905  2.1378  0.6590
  113SAPE  H16Y11860   4.068   2.260   4.750 -2.6394  1.1210 -0.8631
  113SAPE  C31711861   3.982   2.436   4.854 -0.1143  0.2824 -0.0917
  113SAPE  H17X11862   3.879   2.422   4.814 -0.1462  1.4001 -0.4320
  113SAPE  H17Y11863   3.998   2.545   4.839 -0.0647  0.1670 -0.9062
  113SAPE  C31811864   3.994   2.402   5.006  0.0234 -0.2879  0.0052
  113SAPE  H18X11865   3.963   2.483   5.076 -1.3105 -0.6553 -0.1412
  113SAPE  H18Y11866   4.094   2.375   5.046 -1.3445 -3.6149  1.4789
  113SAPE  H18Z11867   3.924   2.319   5.027 -0.6101  0.3447  0.4523
  114SAPE     N11868   5.289   0.077   1.672 -0.1085 -0.0178  0.0965
  114SAPE   HN111869   5.388   0.076   1.642  0.2277  2.7835  0.8114
  114SAPE   HN211870   5.278   0.023   1.760 -1.6839 -0.7242 -0.4954
  114SAPE   HN311871   5.238   0.022   1.599 -1.9265 -1.5710  2.3783
  114SAPE   C1211872   5.234   0.217   1.677  0.2276 -0.3181 -0.5899
  114SAPE  H12A11873   5.265   0.279   1.590  1.8068 -0.9071 -0.4855
  114SAPE  H12B11874   5.276   0.274   1.762  0.2191 -0.5974 -0.3949
  114SAPE   C1111875   5.076   0.217   1.689 -0.0724  0.1417  0.1403
  114SAPE  H11A11876   5.028   0.224   1.589  1.3222  0.1822 -0.5429
  114SAPE  H11B11877   5.043   0.308   1.743 -1.4312  0.9690 -1.9463
  114SAPE     P11878   4.897   0.092   1.848  0.3563  0.1031 -0.0794
  114SAPE   O1311879   4.769   0.140   1.782  0.0449  0.1420 -0.4482
  114SAPE   O1411880   4.898  -0.040   1.906 -0.3507  0.4597 -0.2995
  114SAPE   O1211881   5.023   0.104   1.751 -0.3059 -0.1367  0.1488
  114SAPE   O1111882   4.916   0.194   1.967 -0.7038 -0.0576 -0.2407
  114SAPE    C111883   5.035   0.246   2.007  0.1836  0.2832  0.1750
  114SAPE    HA11884   5.125   0.188   1.978  1.8291  2.5059  0.5290
  114SAPE    HB11885   5.046   0.354   1.979  0.9132  0.7662  2.1896
  114SAPE    C211886   5.047   0.246   2.157 -0.0279  0.6918 -0.4097
  114SAPE    HS11887   5.153   0.250   2.189 -0.2413  2.0609  0.2125
  114SAPE   O2111888   4.986   0.121   2.203 -0.1900  0.0974  0.6811
  114SAPE   C2111889   5.049   0.002   2.192  0.1796  0.1761 -0.3131
  114SAPE   O2211890   5.171  -0.012   2.172 -0.6922  0.5576  0.1635
  114SAPE   C2211891   4.958  -0.112   2.233  0.1049 -0.5996  0.1126
  114SAPE   H2R11892   4.861  -0.126   2.183  0.2020 -0.0124 -0.2444
  114SAPE   H2S11893   5.022  -0.203   2.231  3.1964  1.4066 -2.0931
  114SAPE    C311894   4.947   0.345   2.216  0.4639 -0.3732  0.0209
  114SAPE    HX11895   4.843   0.310   2.201  0.6076 -0.5837 -0.5101
  114SAPE    HY11896   4.960   0.434   2.151 -0.5297 -0.9797 -1.0345
  114SAPE   O3111897   4.961   0.369   2.354 -0.3159  0.4721  0.4084
  114SAPE   C3111898   5.073   0.440   2.385  0.2188  0.0255 -0.0770
  114SAPE   O3211899   5.154   0.483   2.305  0.2273  0.2127 -0.7668
  114SAPE   C3211900   5.067   0.478   2.527  0.0833 -0.6775  0.1551
  114SAPE   H2X11901   5.002   0.403   2.577  0.1028 -1.8254 -1.4522
  114SAPE   H2Y11902   5.012   0.574   2.541 -1.8811 -1.4365 -1.7401
  114SAPE   C2311903   4.914  -0.095   2.381  0.5366  0.8290 -0.4886
  114SAPE   H3R11904   4.855  -0.186   2.403 -1.3506  2.5285  2.0391
  114SAPE   H3S11905   4.847  -0.008   2.394  1.0976  1.3307 -0.8826
  114SAPE   C2411906   5.032  -0.073   2.476 -0.9875  0.1825 -0.5338
  114SAPE   H4R11907   4.984  -0.080   2.576  2.1052 -0.5023  1.0302
  114SAPE   H4S11908   5.075   0.029   2.468  1.1281 -0.7241 -1.3330
  114SAPE   C2511909   5.134  -0.179   2.461 -0.3883  0.5937  0.0856
  114SAPE   H5R11910   5.190  -0.170   2.368  1.8205 -0.9735  1.1780
  114SAPE   C2611911   5.171  -0.267   2.559  0.7471 -0.6670  0.5494
  114SAPE   H6R11912   5.243  -0.347   2.540  0.1893 -1.2937  1.0471
  114SAPE   C2711913   5.101  -0.289   2.695  0.0226 -0.0186  0.2093
  114SAPE   H7R11914   4.991  -0.272   2.691 -0.0212 -0.1332  0.9271
  114SAPE   H7S11915   5.134  -0.205   2.759  2.3791 -1.2477  0.7057
  114SAPE   C2811916   5.134  -0.423   2.751  0.0203  0.6188  0.0196
  114SAPE   H8R11917   5.130  -0.506   2.679  1.7485  1.4609 -1.0974
  114SAPE   C2911918   5.165  -0.451   2.880 -0.8524  0.1414  0.3442
  114SAPE   H9R11919   5.190  -0.557   2.896 -1.6687 -0.5760 -2.5544
  114SAPE  C21011920   5.177  -0.349   2.996  0.2736  0.4910  0.1908
  114SAPE  H10R11921   5.135  -0.252   2.964 -0.4623 -0.1738 -0.9432
  114SAPE  H10S11922   5.283  -0.330   3.023  0.4865 -0.8456  0.3637
  114SAPE  C21111923   5.090  -0.416   3.108  0.9209  0.1264  0.0892
  114SAPE  H11R11924   4.985  -0.396   3.084  0.0645 -1.8037  1.8506
  114SAPE  C21211925   5.127  -0.489   3.212  0.4502  0.0192  0.0128
  114SAPE  H12R11926   5.048  -0.535   3.272  2.1896 -2.6836  0.3728
  114SAPE  C21311927   5.265  -0.519   3.263  0.3955 -0.3727 -0.6578
  114SAPE  H13R11928   5.339  -0.507   3.181  1.3651 -0.1481  0.2203
  114SAPE  H13S11929   5.264  -0.624   3.299 -1.8922 -0.3008 -0.4094
  114SAPE  C21411930   5.314  -0.429   3.375 -0.3933 -0.9778  0.5159
  114SAPE  H14R11931   5.372  -0.340   3.345 -0.8686 -0.9921 -0.4807
  114SAPE  C21511932   5.308  -0.443   3.507 -0.0351 -0.9133 -0.3040
  114SAPE  H15R11933   5.366  -0.383   3.579 -0.4628 -2.7575  1.6973
  114SAPE  C21611934   5.247  -0.552   3.589  0.0596 -0.7737 -0.0801
  114SAPE  H16R11935   5.331  -0.600   3.644  1.0166  0.8340 -0.0647
  114SAPE  H16S11936   5.204  -0.633   3.526 -2.1740  0.4904 -0.2630
  114SAPE  C21711937   5.128  -0.512   3.674  0.0649 -0.9867 -0.5544
  114SAPE  H17R11938   5.155  -0.434   3.749 -0.2261 -0.9918 -0.4393
  114SAPE  H17S11939   5.091  -0.593   3.740  0.4149  0.4434  1.5204
  114SAPE  C21811940   5.008  -0.449   3.598 -0.3986 -0.1320  0.5137
  114SAPE  H18R11941   4.971  -0.520   3.521 -2.2390  0.9300  0.3592
  114SAPE  H18S11942   5.048  -0.362   3.542  0.6121 -2.2675 -2.3178
  114SAPE  C21911943   4.881  -0.399   3.672  0.3508  0.4233 -0.2122
  114SAPE  H19R11944   4.806  -0.356   3.603 -1.9402 -1.6149  0.8808
  114SAPE  H19S11945   4.908  -0.310   3.733 -1.2278  0.4615  0.4822
  114SAPE  C22011946   4.804  -0.503   3.761 -0.4999  0.3100 -0.5267
  114SAPE  H20R11947   4.715  -0.449   3.797 -0.8044 -0.4593 -0.1016
  114SAPE  H20S11948   4.863  -0.534   3.850 -1.6370 -0.7451 -0.1095
  114SAPE  H20T11949   4.776  -0.591   3.698  3.9650 -0.8474 -1.2799
  114SAPE   C3311950   5.208   0.477   2.595  0.3757  0.2331 -1.1409
  114SAPE   H3X11951   5.272   0.566   2.577 -0.8937  1.7575  1.3997
  114SAPE   H3Y11952   5.259   0.390   2.547  0.8020  0.4065 -1.0079
  114SAPE   C3411953   5.197   0.461   2.743 -0.5051  0.2220 -0.5839
  114SAPE   H4X11954   5.297   0.468   2.792 -0.1821 -1.0179 -1.0214
  114SAPE   H4Y11955   5.158   0.360   2.765 -0.7701  0.4317 -0.0786
  114SAPE   C3511956   5.118   0.565   2.821  0.0124 -0.1668  0.4822
  114SAPE   H5X11957   5.022   0.576   2.767 -0.1243 -2.7736  0.0274
  114SAPE   H5Y11958   5.170   0.662   2.804 -0.1832 -0.2984 -1.0672
  114SAPE   C3611959   5.115   0.527   2.967  0.1818  0.1165  0.0669
  114SAPE   H6X11960   5.218   0.511   3.006 -0.1672  2.4461  2.2484
  114SAPE   H6Y11961   5.054   0.438   2.992  0.6654  0.3936  2.5555
  114SAPE   C3711962   5.072   0.641   3.062  0.2833  0.0396  0.4448
  114SAPE   H7X11963   4.981   0.692   3.024 -0.4493 -0.6877  1.1999
  114SAPE   H7Y11964   5.145   0.725   3.065 -1.2525  1.4547  0.1857
  114SAPE   C3811965   5.043   0.594   3.203  0.0718 -0.6723  0.1989
  114SAPE   H8X11966   5.139   0.565   3.251  0.3840 -0.0129 -0.0211
  114SAPE   H8Y11967   4.971   0.509   3.203 -0.5501 -0.1586  0.2832
  114SAPE   C3911968   4.984   0.716   3.282  0.0274 -0.7866  0.5136
  114SAPE   H9X11969   4.885   0.737   3.237  1.2555  3.0060 -0.8943
  114SAPE   H9Y11970   5.039   0.812   3.269 -0.6258 -0.1238  2.3690
  114SAPE  C31011971   4.973   0.685   3.429 -0.0310  0.5685 -0.0081
  114SAPE  H10X11972   5.077   0.679   3.469  0.0068  0.8374 -0.0680
  114SAPE  H10Y11973   4.922   0.588   3.445  1.2343 -0.4447 -1.7508
  114SAPE  C31111974   4.907   0.786   3.518 -0.2525 -0.0289  0.2270
  114SAPE  H11X11975   4.799   0.789   3.496 -0.1642  0.8869 -0.1624
  114SAPE  H11Y11976   4.956   0.883   3.493 -0.2878 -0.2339 -0.7032
  114SAPE  C31211977   4.934   0.767   3.668 -0.1688 -0.9487  0.3289
  114SAPE  H12X11978   4.897   0.862   3.712  0.1998  0.6684 -2.5868
  114SAPE  H12Y11979   5.042   0.762   3.694  0.0983  0.5944 -0.3513
  114SAPE  C31311980   4.877   0.643   3.740  0.9308 -0.8669  0.5295
  114SAPE  H13X11981   4.905   0.555   3.680  1.7217 -0.9978  1.0795
  114SAPE  H13Y11982   4.768   0.659   3.727  1.0110  0.3066  1.1244
  114SAPE  C31411983   4.928   0.609   3.881  0.1275 -0.7838 -0.1327
  114SAPE  H14X11984   4.865   0.674   3.946 -0.1772 -0.4924 -0.7075
  114SAPE  H14Y11985   5.033   0.644   3.892 -0.8010  2.2197  0.0345
  114SAPE  C31511986   4.914   0.465   3.925 -0.1309 -0.7498  0.2659
  114SAPE  H15X11987   4.976   0.408   3.852  0.0421  1.8332 -1.7651
  114SAPE  H15Y11988   4.812   0.422   3.931  0.9213 -3.2226  2.1006
  114SAPE  C31611989   4.982   0.435   4.062 -0.5733  0.0812  0.7042
  114SAPE  H16X11990   4.936   0.507   4.133 -3.1027  0.3509 -1.0730
  114SAPE  H16Y11991   5.088   0.468   4.066 -0.2680 -0.6726 -0.6528
  114SAPE  C31711992   4.975   0.288   4.109  0.0184 -0.6101  0.1138
  114SAPE  H17X11993   4.868   0.257   4.109  0.1057 -0.9722 -0.9648
  114SAPE  H17Y11994   5.015   0.287   4.212  0.6287  4.4128  0.1777
  114SAPE  C31811995   5.056   0.194   4.017 -0.0398  0.2300  0.5171
  114SAPE  H18X11996   5.019   0.191   3.912 -1.2775  0.9053  0.9224
  114SAPE  H18Y11997   5.048   0.088   4.050 -1.6788 -0.2152 -1.1478
  114SAPE  H18Z11998   5.166   0.208   4.022 -0.0964  0.2240  4.1902
  115SAPE     N11999   4.592   2.062   1.841 -0.1070  0.1754  0.1425
  115SAPE   HN112000   4.670   1.996   1.861 -0.7295 -0.8781 -0.8566
  115SAPE   HN212001   4.501   2.014   1.853  0.5103 -1.8898 -2.5274
  115SAPE   HN312002   4.593   2.096   1.743 -1.5664  3.1644  1.0264
  115SAPE   C1212003   4.591   2.183   1.933  0.7987  0.0541  0.0834
  115SAPE  H12A12004   4.575   2.140   2.034 -0.3824  0.1033 -0.0711
  115SAPE  H12B12005   4.505   2.249   1.909  1.6152  1.3507  0.6150
  115SAPE   C1112006   4.724   2.267   1.944 -0.4094  0.2469 -0.7608
  115SAPE  H11A12007   4.701   2.365   1.990 -0.1024 -0.0537  0.0448
  115SAPE  H11B12008   4.749   2.290   1.838  1.4369  1.5094 -0.1094
  115SAPE     P12009   4.869   2.238   2.161 -0.4143 -0.0455  0.1913
  115SAPE   O1312010   4.957   2.357   2.151 -0.0921  1.1605 -0.0666
  115SAPE   O1412011   4.745   2.239   2.241  0.3214 -0.0189  0.1184
  115SAPE   O1212012   4.830   2.198   2.016 -0.1239  0.0530 -0.2227
  115SAPE   O1112013   4.958   2.115   2.194  0.4676  0.5786 -0.2797
  115SAPE    C112014   4.910   1.981   2.183 -0.0193  0.0206  0.2998
  115SAPE    HA12015   4.862   1.973   2.083  1.1236  3.5100 -0.6788
  115SAPE    HB12016   5.006   1.924   2.180  1.0324  1.7497 -0.8955
  115SAPE    C212017   4.826   1.930   2.304  0.2976 -0.7413 -0.1959
  115SAPE    HS12018   4.722   1.969   2.291  1.0887  1.6394  0.1835
  115SAPE   O2112019   4.888   1.966   2.429 -0.1235  0.1734  0.3199
  115SAPE   C2112020   4.803   1.983   2.533 -0.0560 -0.0801 -0.1614
  115SAPE   O2212021   4.680   1.973   2.527  0.3245  0.6513 -0.3079
  115SAPE   C2212022   4.888   2.006   2.657 -0.1169  0.1495  0.2810
  115SAPE   H2R12023   4.947   1.913   2.671  1.9307  1.1812 -0.9173
  115SAPE   H2S12024   4.952   2.094   2.634 -0.7444  0.5792  0.1573
  115SAPE    C312025   4.816   1.777   2.302  0.4229 -0.1338 -0.5504
  115SAPE    HX12026   4.918   1.733   2.302  0.2617 -0.5369  0.3937
  115SAPE    HY12027   4.766   1.765   2.204 -3.2640  0.2883  1.0991
  115SAPE   O3112028   4.736   1.740   2.420 -0.0405 -0.0210  0.1241
  115SAPE   C3112029   4.610   1.692   2.399 -0.2585 -0.1390  0.1224
  115SAPE   O3212030   4.556   1.691   2.291  0.6420 -0.0120 -0.3832
  115SAPE   C3212031   4.558   1.621   2.524  0.2542 -0.1568  0.1388
  115SAPE   H2X12032   4.574   1.514   2.499 -0.9254  0.0310 -1.6439
  115SAPE   H2Y12033   4.447   1.632   2.522  0.1485 -1.0498 -2.2638
  115SAPE   C2312034   4.808   2.023   2.787 -0.3780 -0.0646 -0.4833
  115SAPE   H3R12035   4.745   1.932   2.791  0.8557 -0.8976  0.8718
  115SAPE   H3S12036   4.753   2.119   2.773  0.6103  0.5013 -0.5643
  115SAPE   C2412037   4.897   2.031   2.910 -0.2154 -0.1670 -0.0823
  115SAPE   H4R12038   4.950   1.934   2.916  2.2534  0.9108 -2.3588
  115SAPE   H4S12039   4.829   2.049   2.997 -0.6088 -0.3435 -0.3512
  115SAPE   C2512040   5.009   2.130   2.906  0.7784 -0.0255 -0.3834
  115SAPE   H5R12041   5.091   2.116   2.835  1.2476 -1.1917  0.3557
  115SAPE   C2612042   5.016   2.231   2.991 -0.1213 -0.0895 -0.3550
  115SAPE   H6R12043   5.105   2.295   2.984  0.1565 -0.2355  1.4105
  115SAPE   C2712044   4.917   2.258   3.102 -0.1735  0.4632 -0.0515
  115SAPE   H7R12045   4.903   2.167   3.164  2.2806  0.7665  1.0857
  115SAPE   H7S12046   4.823   2.285   3.050 -1.2585  0.5309  1.8930
  115SAPE   C2812047   4.952   2.372   3.193  0.7937  0.0076  0.6168
  115SAPE   H8R12048   4.931   2.471   3.149  0.5023 -0.8974 -1.4141
  115SAPE   C2912049   5.024   2.381   3.306 -0.0808  0.2298 -0.0692
  115SAPE   H9R12050   5.028   2.479   3.355 -0.5203  1.0357 -1.5981
  115SAPE  C21012051   5.096   2.273   3.398  0.1556 -0.4244  0.5536
  115SAPE  H10R12052   5.188   2.313   3.445  0.5265  0.3899 -0.8135
  115SAPE  H10S12053   5.140   2.206   3.320  1.6175  0.7879  0.3108
  115SAPE  C21112054   5.005   2.178   3.475 -0.1248  0.2402  0.2439
  115SAPE  H11R12055   4.915   2.149   3.418 -0.9076  1.1418  1.0083
  115SAPE  C21212056   5.015   2.134   3.596 -0.3376 -0.5758  0.1651
  115SAPE  H12R12057   4.936   2.069   3.637 -0.7233 -0.3954 -0.2880
  115SAPE  C21312058   5.130   2.171   3.691  0.2212  0.0250 -0.4595
  115SAPE  H13R12059   5.144   2.280   3.681  0.5160  0.2371  1.7876
  115SAPE  H13S12060   5.223   2.119   3.660  1.5196  2.5319 -0.9736
  115SAPE  C21412061   5.092   2.151   3.833 -0.1618  0.2952 -0.4063
  115SAPE  H14R12062   4.983   2.144   3.845 -0.7545  3.8944 -2.2215
  115SAPE  C21512063   5.186   2.171   3.929  0.3143 -0.3636 -0.0516
  115SAPE  H15R12064   5.146   2.166   4.032 -1.0525 -1.6984 -0.6119
  115SAPE  C21612065   5.329   2.195   3.920 -0.1283  1.1022 -0.4008
  115SAPE  H16R12066   5.361   2.224   3.817 -1.7612 -0.0104 -1.2581
  115SAPE  H16S12067   5.379   2.098   3.938 -0.7500  0.7304 -0.6734
  115SAPE  C21712068   5.374   2.292   4.024 -0.4561 -1.2334  0.5577
  115SAPE  H17R12069   5.317   2.279   4.119 -1.8922 -0.5727 -0.1788
  115SAPE  H17S12070   5.338   2.392   3.992  1.2384 -0.3756  1.2308
  115SAPE  C21812071   5.529   2.294   4.051 -0.3435  0.3982  0.1752
  115SAPE  H18R12072   5.587   2.348   3.973  0.4926 -0.3853  0.2376
  115SAPE  H18S12073   5.569   2.190   4.059 -0.3449  0.2096 -1.8643
  115SAPE  C21912074   5.557   2.353   4.187 -0.0878  0.5480  0.5289
  115SAPE  H19R12075   5.663   2.346   4.220  0.1866  0.5310 -0.3209
  115SAPE  H19S12076   5.494   2.296   4.257 -0.2456  0.2547  0.1524
  115SAPE  C22012077   5.532   2.502   4.193  0.3501  0.6252 -1.7323
  115SAPE  H20R12078   5.604   2.553   4.261  1.1185 -3.0252  0.4628
  115SAPE  H20S12079   5.434   2.519   4.243  1.8116 -0.1876  1.6949
  115SAPE  H20T12080   5.509   2.549   4.095 -2.7107 -1.5181 -2.1761
  115SAPE   C3312081   4.624   1.658   2.663  0.1009 -0.3048 -0.4356
  115SAPE   H3X12082   4.588   1.757   2.698 -0.1823 -0.1573 -1.1367
  115SAPE   H3Y12083   4.733   1.678   2.650  0.1988 -0.7491 -0.3222
  115SAPE   C3412084   4.612   1.539   2.760  0.1101 -0.3166 -0.4640
  115SAPE   H4X12085   4.648   1.448   2.707  0.2844  0.6842 -2.1526
  115SAPE   H4Y12086   4.504   1.525   2.780  0.3722  0.6220  2.0612
  115SAPE   C3512087   4.673   1.548   2.901 -0.2593  0.5123 -0.7327
  115SAPE   H5X12088   4.628   1.640   2.943 -0.8508  0.2129 -0.6951
  115SAPE   H5Y12089   4.784   1.549   2.901 -0.1931 -1.5611 -0.0867
  115SAPE   C3612090   4.628   1.434   2.989 -0.3757 -0.2642  0.6586
  115SAPE   H6X12091   4.659   1.332   2.958  2.1399 -0.2669  2.8450
  115SAPE   H6Y12092   4.517   1.426   2.998 -0.3964  0.0790  0.7116
  115SAPE   C3712093   4.682   1.462   3.132  0.3361 -0.2855 -0.3039
  115SAPE   H7X12094   4.666   1.569   3.158  1.7885  0.8841 -3.6763
  115SAPE   H7Y12095   4.793   1.448   3.132  0.6293  1.7303 -1.3640
  115SAPE   C3812096   4.623   1.384   3.252 -0.0394  0.4743  0.5739
  115SAPE   H8X12097   4.623   1.278   3.219  1.9206  0.2840  1.0189
  115SAPE   H8Y12098   4.517   1.407   3.274 -0.4091 -0.8625  0.2529
  115SAPE   C3912099   4.711   1.397   3.381 -0.0332 -0.6766 -0.5220
  115SAPE   H9X12100   4.809   1.359   3.345  1.0946 -2.9942  4.0808
  115SAPE   H9Y12101   4.666   1.332   3.460 -1.9395 -2.0361 -2.6065
  115SAPE  C31012102   4.744   1.537   3.435  0.1561  0.3164  0.8901
  115SAPE  H10X12103   4.812   1.586   3.363 -0.7920 -0.3670 -0.5166
  115SAPE  H10Y12104   4.798   1.530   3.532  1.0889 -1.4834  0.2888
  115SAPE  C31112105   4.625   1.634   3.456 -0.6942  0.2510 -0.6891
  115SAPE  H11X12106   4.563   1.606   3.543  0.1783  0.1616 -0.0843
  115SAPE  H11Y12107   4.557   1.631   3.367 -0.1932  2.6490 -1.2346
  115SAPE  C31212108   4.659   1.784   3.467  0.0122 -0.1018 -0.0846
  115SAPE  H12X12109   4.569   1.848   3.459 -0.4315 -0.7122 -0.0322
  115SAPE  H12Y12110   4.720   1.814   3.379 -1.2029  1.7166 -0.3360
  115SAPE  C31312111   4.735   1.799   3.596  0.1248 -0.5833 -0.2816
  115SAPE  H13X12112   4.829   1.855   3.574  0.1543  0.1751  1.6201
  115SAPE  H13Y12113   4.758   1.707   3.653 -0.1702 -1.4181 -1.4849
  115SAPE  C31412114   4.655   1.891   3.695 -0.8374  0.4505 -0.3530
  115SAPE  H14X12115   4.581   1.826   3.747  0.5604 -1.6386 -0.8610
  115SAPE  H14Y12116   4.616   1.974   3.633 -1.1070 -0.3718 -1.3050
  115SAPE  C31512117   4.749   1.956   3.810 -0.0648  0.1682  0.0359
  115SAPE  H15X12118   4.783   2.060   3.789  1.2415 -0.7220 -2.6744
  115SAPE  H15Y12119   4.839   1.892   3.822  1.2953  2.1412  0.8523
  115SAPE  C31612120   4.681   1.962   3.948 -0.3751 -0.0649 -0.0441
  115SAPE  H16X12121   4.665   1.859   3.987 -1.0972  0.2844  0.6102
  115SAPE  H16Y12122   4.581   2.010   3.938  0.0704  0.6582 -1.2469
  115SAPE  C31712123   4.767   2.044   4.037  0.0802  0.0056 -0.2035
  115SAPE  H17X12124   4.784   2.152   4.018  0.6696  0.1161  0.8858
  115SAPE  H17Y12125   4.873   2.014   4.019  0.7532  2.9057 -1.8060
  115SAPE  C31812126   4.721   2.015   4.179  0.0597  0.3180 -0.0429
  115SAPE  H18X12127   4.623   2.066   4.192 -0.6487 -1.1111  0.3682
  115SAPE  H18Y12128   4.794   2.057   4.251  0.0118  0.3110  0.0097
  115SAPE  H18Z12129   4.704   1.907   4.199  0.2904  0.2110 -0.4083
  116SAPE     N12130   5.126   2.478   2.325 -0.3254  0.1190 -0.0789
  116SAPE   HN112131   5.049   2.449   2.261 -1.7697 -2.4639  2.6171
  116SAPE   HN212132   5.212   2.441   2.281  0.1064 -1.0330  1.6484
  116SAPE   HN312133   5.106   2.444   2.421 -2.9071  0.2405 -0.5076
  116SAPE   C1212134   5.129   2.623   2.346 -0.0710 -0.7503  0.1808
  116SAPE  H12A12135   5.226   2.652   2.391 -0.1219 -0.8915  0.3796
  116SAPE  H12B12136   5.047   2.646   2.417  0.2137  0.2872  0.1953
  116SAPE   C1112137   5.100   2.695   2.210  0.0786  0.0270  0.5068
  116SAPE  H11A12138   5.178   2.656   2.141 -0.3974 -0.0428  0.0010
  116SAPE  H11B12139   5.125   2.803   2.209 -0.3591  0.1333 -0.0753
  116SAPE     P12140   4.840   2.741   2.224  0.0361  0.0783 -0.1974
  116SAPE   O1312141   4.767   2.818   2.121 -0.7616 -0.0468  0.6235
  116SAPE   O1412142   4.763   2.629   2.291 -0.3914 -0.4173  0.1459
  116SAPE   O1212143   4.970   2.674   2.155  0.2019  0.0350 -0.6259
  116SAPE   O1112144   4.898   2.839   2.337 -0.3486  0.3973  0.1029
  116SAPE    C112145   4.793   2.930   2.397  0.0684  0.2347 -0.0973
  116SAPE    HA12146   4.764   3.010   2.326  2.3933  1.6921  0.4729
  116SAPE    HB12147   4.704   2.872   2.429  0.8976 -0.3988  1.1480
  116SAPE    C212148   4.858   2.979   2.531 -0.0729 -0.2065 -0.3764
  116SAPE    HS12149   4.800   3.067   2.565  0.3570 -0.1328  0.1839
  116SAPE   O2112150   4.993   3.025   2.520 -0.4048 -0.1631  1.0003
  116SAPE   C2112151   5.032   3.092   2.413 -0.2608  0.2278 -0.7704
  116SAPE   O2212152   4.965   3.163   2.341 -0.2981  0.2643  0.4061
  116SAPE   C2212153   5.187   3.072   2.387  0.6474 -0.2564 -0.2303
  116SAPE   H2R12154   5.235   3.001   2.457 -0.1428 -1.1850 -0.6081
  116SAPE   H2S12155   5.182   3.021   2.288  0.7219  0.5113 -0.6387
  116SAPE    C312156   4.840   2.871   2.644  0.2272  0.0779  0.4311
  116SAPE    HX12157   4.915   2.869   2.726 -1.5744 -0.7825  2.1348
  116SAPE    HY12158   4.857   2.776   2.589  2.3633  1.0536 -0.6998
  116SAPE   O3112159   4.703   2.868   2.689  0.2427  0.6683 -0.1211
  116SAPE   C3112160   4.678   2.963   2.783  0.3263  0.8417  0.8084
  116SAPE   O3212161   4.760   3.039   2.822  0.0874  0.1678  0.1873
  116SAPE   C3212162   4.534   2.948   2.837  0.4106 -0.0426  0.2763
  116SAPE   H2X12163   4.531   2.854   2.896 -0.8476 -0.1810  0.0281
  116SAPE   H2Y12164   4.459   2.956   2.756  1.4397  0.1333 -0.6794
  116SAPE   C2312165   5.267   3.210   2.379  0.3985  0.3975  0.1652
  116SAPE   H3R12166   5.214   3.271   2.302 -0.6415  3.0325  2.7791
  116SAPE   H3S12167   5.366   3.180   2.340  0.4261  0.2817  0.3239
  116SAPE   C2412168   5.273   3.283   2.512  0.9887 -0.0616 -0.4266
  116SAPE   H4R12169   5.166   3.307   2.527  0.5397 -2.0983 -0.1409
  116SAPE   H4S12170   5.340   3.372   2.511 -0.1137  0.8089 -1.9869
  116SAPE   C2512171   5.318   3.191   2.625 -0.1867  0.0873  0.6848
  116SAPE   H5R12172   5.387   3.112   2.593  1.2265  1.1749  0.9425
  116SAPE   C2612173   5.281   3.197   2.756  0.6206 -0.2233  0.0661
  116SAPE   H6R12174   5.321   3.116   2.820 -0.7258 -0.1043  1.1097
  116SAPE   C2712175   5.195   3.302   2.818  0.5028  0.2215  0.8152
  116SAPE   H7R12176   5.185   3.393   2.756 -1.8340 -0.8181 -0.5009
  116SAPE   H7S12177   5.252   3.342   2.904  1.8376 -1.1265  0.5957
  116SAPE   C2812178   5.050   3.259   2.853 -0.3376 -0.1891  0.2002
  116SAPE   H8R12179   4.993   3.218   2.768  1.3480 -1.6764 -0.2831
  116SAPE   C2912180   4.983   3.280   2.972 -0.1034  0.0874  0.4504
  116SAPE   H9R12181   4.888   3.226   2.981 -0.7693  1.2954  0.8820
  116SAPE  C21012182   5.042   3.335   3.096 -0.0342 -0.0105 -0.5616
  116SAPE  H10R12183   5.150   3.309   3.102 -0.6556 -3.0940 -0.8911
  116SAPE  H10S12184   4.986   3.276   3.172  0.4138  0.0231 -0.2030
  116SAPE  C21112185   5.012   3.480   3.122  0.7221  0.0226 -0.7206
  116SAPE  H11R12186   4.974   3.534   3.034  0.3763 -0.1422 -0.6762
  116SAPE  C21212187   5.016   3.546   3.243 -0.2010  0.3231  0.1160
  116SAPE  H12R12188   4.996   3.654   3.243 -1.3127  0.1379  0.7662
  116SAPE  C21312189   5.060   3.495   3.374  0.3689  0.4576 -0.0551
  116SAPE  H13R12190   5.171   3.497   3.387  0.1834  1.4659  1.6004
  116SAPE  H13S12191   5.037   3.387   3.388  1.8389 -0.1171 -1.6886
  116SAPE  C21412192   4.992   3.576   3.481  0.6221 -0.3199 -0.3511
  116SAPE  H14R12193   5.017   3.683   3.480 -0.0655 -0.1403  0.4248
  116SAPE  C21512194   4.940   3.533   3.597  0.2587  0.0689 -0.0562
  116SAPE  H15R12195   4.911   3.601   3.679  0.8112 -1.3251  1.3507
  116SAPE  C21612196   4.904   3.387   3.627  0.6262 -0.3551  0.0130
  116SAPE  H16R12197   4.896   3.333   3.530  0.7895  1.5980 -1.1404
  116SAPE  H16S12198   4.802   3.396   3.671 -0.2757  0.0336 -2.0672
  116SAPE  C21712199   5.003   3.317   3.726 -0.3576  0.1492  0.2778
  116SAPE  H17R12200   5.017   3.366   3.825  0.2662 -1.6226  1.1039
  116SAPE  H17S12201   5.099   3.302   3.673 -0.7832 -0.5605 -0.3242
  116SAPE  C21812202   4.945   3.179   3.777 -0.0740 -0.0535  0.3368
  116SAPE  H18R12203   4.863   3.208   3.846 -2.5971  0.0763 -2.4848
  116SAPE  H18S12204   5.025   3.144   3.846 -0.5579  2.5487  2.3999
  116SAPE  C21912205   4.903   3.081   3.677 -0.8032  0.1846 -0.0870
  116SAPE  H19R12206   4.992   3.040   3.625  1.1313 -0.4532  3.3572
  116SAPE  H19S12207   4.829   3.125   3.608  0.4492  0.7460 -1.1019
  116SAPE  C22012208   4.825   2.964   3.749 -0.0413 -0.5985 -0.2868
  116SAPE  H20R12209   4.738   2.998   3.809 -0.1215 -2.3838  0.6817
  116SAPE  H20S12210   4.895   2.917   3.821  0.1004 -0.9714 -0.6628
  116SAPE  H20T12211   4.808   2.878   3.682  2.9516 -0.6816 -1.0898
  116SAPE   C3312212   4.495   3.065   2.938 -0.1208  0.2350 -0.0778
  116SAPE   H3X12213   4.536   3.162   2.903  0.0709  0.0043 -0.5010
  116SAPE   H3Y12214   4.545   3.027   3.029 -2.3757 -2.1102  0.2924
  116SAPE   C3412215   4.344   3.074   2.950  0.5452 -0.1284 -0.5590
  116SAPE   H4X12216   4.296   2.977   2.974 -0.9807  1.0256  1.3801
  116SAPE   H4Y12217   4.291   3.107   2.858  0.8078  1.6951 -0.0866
  116SAPE   C3512218   4.303   3.166   3.070  0.8058  0.3998  0.5470
  116SAPE   H5X12219   4.353   3.265   3.074  0.6820  0.4592  0.6337
  116SAPE   H5Y12220   4.321   3.115   3.167 -0.3123  0.5530  0.8560
  116SAPE   C3612221   4.151   3.183   3.069 -0.1079  0.6166  0.8386
  116SAPE   H6X12222   4.109   3.082   3.045  1.5580 -0.3065  1.6008
  116SAPE   H6Y12223   4.137   3.240   2.975  0.4163  1.0230  1.0077
  116SAPE   C3712224   4.086   3.254   3.186 -0.1248 -0.0774 -0.1473
  116SAPE   H7X12225   4.005   3.326   3.163 -0.4157 -0.5759 -0.7141
  116SAPE   H7Y12226   4.159   3.319   3.240 -1.5934  0.9527  0.6567
  116SAPE   C3812227   4.039   3.151   3.287 -1.1315 -0.3404 -0.2394
  116SAPE   H8X12228   4.121   3.087   3.326  0.6856  1.2250 -1.3167
  116SAPE   H8Y12229   3.959   3.081   3.257  0.2050 -1.4832 -1.2489
  116SAPE   C3912230   3.999   3.229   3.415 -0.2632 -0.7213  0.1897
  116SAPE   H9X12231   3.902   3.281   3.396  0.1729  0.0101 -0.0875
  116SAPE   H9Y12232   4.071   3.309   3.443 -3.3312  2.5774 -0.4844
  116SAPE  C31012233   3.957   3.137   3.531  0.0103 -0.0838  0.0893
  116SAPE  H10X12234   4.028   3.057   3.563 -1.7416 -0.8714  2.2212
  116SAPE  H10Y12235   3.867   3.085   3.491 -1.5754  1.5257  1.4170
  116SAPE  C31112236   3.919   3.221   3.658  0.0359 -0.0023  0.4157
  116SAPE  H11X12237   3.835   3.284   3.623  0.6253  0.5204 -0.0795
  116SAPE  H11Y12238   3.995   3.298   3.683 -0.7580  1.5043 -1.5935
  116SAPE  C31212239   3.897   3.135   3.785 -0.3815 -0.3880  0.8459
  116SAPE  H12X12240   3.990   3.107   3.840  1.1364  1.2778 -0.7339
  116SAPE  H12Y12241   3.850   3.047   3.738 -2.3212  0.3733  1.2560
  116SAPE  C31312242   3.799   3.188   3.894 -0.5002 -0.2595  0.4234
  116SAPE  H13X12243   3.744   3.099   3.931  1.6317 -1.0941  1.7736
  116SAPE  H13Y12244   3.734   3.264   3.844  0.2777  0.3518  0.3228
  116SAPE  C31412245   3.866   3.259   4.012 -0.1428  0.5297  0.6901
  116SAPE  H14X12246   3.938   3.331   3.967 -1.3736  0.3426 -1.7476
  116SAPE  H14Y12247   3.917   3.187   4.079 -1.7529  2.0831  3.7951
  116SAPE  C31512248   3.764   3.340   4.088 -0.2735  0.3570 -0.6184
  116SAPE  H15X12249   3.681   3.290   4.143 -0.1498  1.9305  1.0883
  116SAPE  H15Y12250   3.729   3.411   4.010 -0.9744 -0.0263 -0.6574
  116SAPE  C31612251   3.842   3.423   4.204 -0.4415  0.0447  0.0170
  116SAPE  H16X12252   3.771   3.498   4.244  0.3147  0.5577  0.4189
  116SAPE  H16Y12253   3.913   3.494   4.158  1.1625 -1.3060  0.3422
  116SAPE  C31712254   3.918   3.335   4.309  0.1607 -0.0250 -0.5143
  116SAPE  H17X12255   3.983   3.385   4.384  1.1059 -1.5277 -0.3050
  116SAPE  H17Y12256   3.994   3.275   4.254  2.0685 -0.4201  2.3571
  116SAPE  C31812257   3.820   3.233   4.377  0.4838 -0.4170 -0.4815
  116SAPE  H18X12258   3.746   3.294   4.433  2.2253  1.8841 -0.5315
  116SAPE  H18Y12259   3.885   3.169   4.440  0.3216  1.9266  2.2187
  116SAPE  H18Z12260   3.781   3.168   4.296 -1.7617  0.4768 -0.1890
  117SOPE     N12261   2.803   2.183   6.588  0.6159 -0.2553  0.3868
  117SOPE   HN112262   2.766   2.186   6.685  0.0245  2.6282  0.1693
  117SOPE   HN212263   2.906   2.184   6.599  0.3853 -0.2810  3.5167
  117SOPE   HN312264   2.778   2.274   6.543 -2.7400 -1.0475  0.3884
  117SOPE   C1212265   2.772   2.064   6.500 -0.5017 -0.9421 -0.4152
  117SOPE  H12A12266   2.823   2.087   6.404  1.2467  1.0461  0.8755
  117SOPE  H12B12267   2.663   2.063   6.482 -0.5322  0.0979 -0.3472
  117SOPE   C1112268   2.841   1.943   6.563 -0.1041 -0.5375 -1.2441
  117SOPE  H11A12269   2.799   1.942   6.666 -0.3603  0.3199 -1.3256
  117SOPE  H11B12270   2.950   1.963   6.564 -0.5768  2.6071 -0.4675
  117SOPE     P12271   2.900   1.694   6.503  0.2330 -0.3138  0.0328
  117SOPE   O1312272   2.824   1.569   6.479 -0.6064 -0.1237 -0.0879
  117SOPE   O1412273   2.993   1.698   6.624  0.2528  0.6109 -0.2368
  117SOPE   O1212274   2.810   1.823   6.502 -0.5459 -0.2915  0.2286
  117SOPE   O1112275   2.983   1.718   6.367 -0.3389 -0.0665  0.2985
  117SOPE    C112276   2.946   1.816   6.272  0.5201 -0.0781  0.3064
  117SOPE    HA12277   2.905   1.911   6.315 -0.5654 -0.6604  0.6035
  117SOPE    HB12278   2.863   1.774   6.211  0.9195 -0.9146  0.3364
  117SOPE    C212279   3.068   1.856   6.178 -0.3136 -0.0505 -0.1554
  117SOPE    HS12280   3.063   1.964   6.155 -0.5397  0.4947  2.1459
  117SOPE   O2112281   3.053   1.782   6.054 -0.0474  0.1482  0.2411
  117SOPE   C2112282   2.976   1.832   5.953  0.2662 -0.2303 -0.0496
  117SOPE   O2212283   2.915   1.937   5.970  0.2750 -0.5562  0.1181
  117SOPE   C2212284   2.978   1.746   5.831 -0.2501 -0.2288  0.0174
  117SOPE   H2R12285   2.907   1.662   5.849 -0.6004  0.1708  0.5210
  117SOPE   H2S12286   3.078   1.698   5.839 -0.0423  0.3700  1.1740
  117SOPE    C312287   3.207   1.835   6.243  0.3461  0.1307 -0.2381
  117SOPE    HX12288   3.212   1.736   6.292  0.4709  0.3237  0.1393
  117SOPE    HY12289   3.208   1.914   6.321  0.7472  0.9467 -1.0477
  117SOPE   O3112290   3.316   1.839   6.151  0.4832 -0.8694 -0.3061
  117SOPE   C3112291   3.354   1.957   6.115 -0.5456 -0.5175 -0.2851
  117SOPE   O3212292   3.313   2.065   6.154 -0.0692 -0.8379 -0.1075
  117SOPE   C3212293   3.476   1.937   6.015  0.6159  0.1764  0.2733
  117SOPE   H2X12294   3.493   1.830   5.988  2.6709  0.9576 -1.9370
  117SOPE   H2Y12295   3.562   1.972   6.075  1.2474 -0.6183 -0.1460
  117SOPE   C2312296   2.942   1.837   5.708 -0.1971  0.6398 -0.5900
  117SOPE   H3R12297   2.996   1.934   5.720  0.0911  0.2668  1.6964
  117SOPE   H3S12298   2.833   1.853   5.712 -1.2067 -4.6025  0.3897
  117SOPE   C2412299   2.991   1.770   5.578  0.5572  0.1637  0.0927
  117SOPE   H4R12300   3.096   1.735   5.586  0.4484 -0.0912  0.4472
  117SOPE   H4S12301   2.926   1.682   5.559 -1.4926  1.6374  0.0042
  117SOPE   C2512302   2.970   1.852   5.446 -0.4724  0.1175 -0.0443
  117SOPE   H5R12303   2.875   1.908   5.459  0.3818  2.4163 -2.5792
  117SOPE   H5S12304   3.047   1.933   5.443  1.6604 -1.6131  2.7636
  117SOPE   C2612305   2.974   1.761   5.318  0.2978 -0.0981 -0.4216
  117SOPE   H6R12306   3.054   1.685   5.318  0.8639  0.4225 -2.4993
  117SOPE   H6S12307   2.870   1.726   5.300  0.0940  0.3674 -0.1779
  117SOPE   C2712308   3.006   1.850   5.187  0.4160 -0.1859 -0.3178
  117SOPE   H7R12309   2.923   1.921   5.169  0.2333 -0.5159 -0.7674
  117SOPE   H7S12310   3.093   1.906   5.229 -0.0094 -0.5804  1.1461
  117SOPE   C2812311   3.046   1.770   5.061 -1.5503 -0.7083 -0.3659
  117SOPE   H8R12312   3.088   1.845   4.991 -1.1399  1.5108  2.0882
  117SOPE   H8S12313   3.125   1.698   5.088  0.9721  2.0138 -0.0096
  117SOPE   C2912314   2.915   1.712   5.005  0.0071 -0.0950 -0.0550
  117SOPE   H9112315   2.848   1.662   5.076 -0.5214  1.0985  0.3229
  117SOPE  C21012316   2.873   1.716   4.876 -0.5070 -0.3822  0.0231
  117SOPE  H10112317   2.774   1.679   4.847 -0.9120 -1.0807  2.0863
  117SOPE  C21112318   2.946   1.771   4.750 -0.0560  0.3839  0.6228
  117SOPE  H11R12319   2.910   1.727   4.654  1.6985  0.5325 -0.1348
  117SOPE  H11S12320   3.053   1.742   4.754 -0.1373  0.0895  0.7700
  117SOPE  C21212321   2.931   1.930   4.738  0.8811  0.2709  0.9534
  117SOPE  H12R12322   2.946   1.973   4.840  0.4301  0.1099  1.0915
  117SOPE  H12S12323   2.830   1.948   4.696  1.1818 -0.6221 -0.2002
  117SOPE  C21312324   3.029   1.986   4.631  0.9006  0.1790  0.3520
  117SOPE  H13R12325   3.029   1.917   4.544 -2.0844  0.9473 -0.3843
  117SOPE  H13S12326   3.131   1.993   4.674  1.3725 -0.1803 -0.6613
  117SOPE  C21412327   2.991   2.130   4.592  0.0834  0.3943  0.8188
  117SOPE  H14R12328   2.916   2.139   4.510  1.1389  1.9502 -0.0416
  117SOPE  H14S12329   3.076   2.173   4.535 -0.0314 -0.0318  0.3163
  117SOPE  C21512330   2.950   2.215   4.712 -0.1888  0.4046  0.4242
  117SOPE  H15R12331   2.856   2.171   4.753 -1.4769  2.4532 -0.1868
  117SOPE  H15S12332   2.929   2.319   4.680  0.4445  1.0169  1.8882
  117SOPE  C21612333   3.063   2.226   4.808  0.3992  0.3114  0.2236
  117SOPE  H16R12334   3.151   2.274   4.760 -0.1240  0.5981 -0.4632
  117SOPE  H16S12335   3.099   2.129   4.847 -0.1881 -0.5274 -1.2679
  117SOPE  C21712336   3.026   2.315   4.918 -0.0096 -0.2507 -0.8592
  117SOPE  H17R12337   2.964   2.257   4.989 -0.8701 -0.0403 -1.4165
  117SOPE  H17S12338   2.970   2.404   4.883  0.3352 -0.6367 -2.5250
  117SOPE  C21812339   3.143   2.355   5.016 -0.1954  0.6313 -0.1161
  117SOPE  H18R12340   3.224   2.416   4.971 -0.6700  0.0561 -1.7980
  117SOPE  H18S12341   3.182   2.254   5.043  0.0985  1.0735  1.2151
  117SOPE  H18T12342   3.115   2.386   5.119  2.0750 -0.9718  1.0806
  117SOPE   C3312343   3.463   2.024   5.879 -0.1224 -0.3793 -0.1662
  117SOPE   H3X12344   3.566   2.053   5.849  0.3957 -1.7459  0.2176
  117SOPE   H3Y12345   3.421   2.121   5.915  2.2571  0.0882  1.5869
  117SOPE   C3412346   3.404   1.957   5.761  0.9020 -0.0947  0.0965
  117SOPE   H4X12347   3.294   1.963   5.774  0.4878 -1.6465 -2.0963
  117SOPE   H4Y12348   3.444   1.853   5.753  0.6862 -0.1583 -0.2118
  117SOPE   C3512349   3.433   2.026   5.617 -0.1526  0.7690 -0.1787
  117SOPE   H5X12350   3.540   2.050   5.597  0.3672 -2.1313 -1.2078
  117SOPE   H5Y12351   3.384   2.125   5.632  0.7731  0.9285  2.1466
  117SOPE   C3612352   3.373   1.960   5.491 -0.7285 -0.8047 -0.0088
  117SOPE   H6X12353   3.264   1.942   5.506 -0.3716 -2.3262  0.9838
  117SOPE   H6Y12354   3.425   1.863   5.473  0.7063  0.1375 -1.2028
  117SOPE   C3712355   3.388   2.046   5.361  0.1965 -0.4959 -0.3438
  117SOPE   H7X12356   3.481   2.105   5.375  0.3193 -0.3460 -1.7075
  117SOPE   H7Y12357   3.308   2.120   5.343 -1.2379 -1.1162  2.8295
  117SOPE   C3812358   3.405   1.966   5.239 -0.3490  0.4671  0.1772
  117SOPE   H8X12359   3.306   1.918   5.224 -0.3241 -0.3844  2.3694
  117SOPE   H8Y12360   3.492   1.900   5.260  1.2203  1.8498 -1.5507
  117SOPE   C3912361   3.438   2.058   5.121 -0.0510 -0.5827  0.3505
  117SOPE   H9X12362   3.529   2.115   5.150 -0.3173 -0.1454  0.3326
  117SOPE   H9Y12363   3.345   2.117   5.106  0.1727  0.3735  2.3443
  117SOPE  C31012364   3.481   1.986   4.997  0.0959 -0.2509  0.1946
  117SOPE  H10X12365   3.400   1.916   4.967 -0.7751  0.2438  1.3229
  117SOPE  H10Y12366   3.581   1.943   5.017  0.5455  0.5589 -0.2702
  117SOPE  C31112367   3.501   2.082   4.873 -0.0192  0.0337 -0.0223
  117SOPE  H11X12368   3.575   2.160   4.902 -2.5212  2.2042  1.0201
  117SOPE  H11Y12369   3.409   2.139   4.847  1.8371  2.2826 -2.1969
  117SOPE  C31212370   3.565   2.002   4.755  0.1683 -0.8830 -0.2215
  117SOPE  H12X12371   3.670   1.975   4.776  0.4384 -0.2206 -0.7141
  117SOPE  H12Y12372   3.570   2.076   4.673  2.8625 -0.3287  0.3617
  117SOPE  C31312373   3.481   1.875   4.717 -0.2186 -0.1518 -0.8066
  117SOPE  H13X12374   3.385   1.923   4.689 -0.7109 -0.3486  0.4851
  117SOPE  H13Y12375   3.480   1.811   4.808  3.3015  0.9216  0.1542
  117SOPE  C31412376   3.563   1.801   4.607 -0.2722 -0.2422  0.5847
  117SOPE  H14X12377   3.660   1.762   4.645  1.8257  1.8636 -2.1979
  117SOPE  H14Y12378   3.600   1.870   4.528  0.5459 -1.4362 -0.1116
  117SOPE  C31512379   3.493   1.680   4.535 -0.4819  0.8540 -0.4182
  117SOPE  H15X12380   3.510   1.595   4.604 -2.9603 -0.8143 -1.7217
  117SOPE  H15Y12381   3.546   1.662   4.439 -0.4611  0.0045 -0.2530
  117SOPE  C31612382   3.342   1.699   4.511 -0.3061 -0.4428 -0.2098
  117SOPE  H16X12383   3.328   1.803   4.472  2.6322 -0.1245 -0.5991
  117SOPE  H16Y12384   3.283   1.691   4.604 -1.4028  0.2604 -0.8180
  117SOPE  C31712385   3.296   1.582   4.429 -0.0440  0.2737  0.1896
  117SOPE  H17X12386   3.315   1.491   4.490  0.4349  0.2608  0.0180
  117SOPE  H17Y12387   3.360   1.571   4.339  0.5106 -1.0667  0.7253
  117SOPE  C31812388   3.150   1.602   4.381  0.4512  0.4498 -0.1422
  117SOPE  H18X12389   3.139   1.685   4.308  1.2216  0.6501 -0.0394
  117SOPE  H18Y12390   3.076   1.612   4.463 -0.9746 -2.1257 -1.0051
  117SOPE  H18Z12391   3.125   1.517   4.314 -0.3651 -0.0377  0.7563
  118SOPE     N12392   2.818   3.598   6.397 -0.0845  0.2301 -0.1853
  118SOPE   HN112393   2.847   3.599   6.497 -2.3030 -0.0512  0.5054
  118SOPE   HN212394   2.716   3.596   6.414  0.1648 -1.0073  1.4615
  118SOPE   HN312395   2.842   3.506   6.353  1.3687  0.8510 -0.7443
  118SOPE   C1212396   2.854   3.714   6.307 -0.0793 -0.3363 -0.6742
  118SOPE  H12A12397   2.813   3.698   6.204 -2.6457  0.7871  0.0883
  118SOPE  H12B12398   2.963   3.701   6.293 -0.0305 -0.6181 -0.0466
  118SOPE   C1112399   2.807   3.846   6.372 -0.6020 -0.2541  0.0113
  118SOPE  H11A12400   2.697   3.852   6.367 -0.5437  2.7496  0.4256
  118SOPE  H11B12401   2.840   3.927   6.304 -1.1587 -1.1097 -1.2988
  118SOPE     P12402   3.010   3.882   6.547 -0.2594 -0.2566  0.0027
  118SOPE   O1312403   3.075   3.750   6.546 -0.1789 -0.0302  0.1507
  118SOPE   O1412404   3.013   3.959   6.679 -0.1466 -0.6676  0.4296
  118SOPE   O1212405   2.860   3.860   6.503 -0.1940  0.1834  0.0093
  118SOPE   O1112406   3.070   3.972   6.429  0.4312  0.0329  0.4050
  118SOPE    C112407   3.210   3.995   6.407  0.8209 -0.2051 -0.3311
  118SOPE    HA12408   3.262   3.902   6.438 -1.1989 -1.1595  0.3491
  118SOPE    HB12409   3.241   4.081   6.470  0.9457  0.8765 -1.8062
  118SOPE    C212410   3.230   4.033   6.262 -0.2037  0.7145 -0.4018
  118SOPE    HS12411   3.149   4.103   6.232 -0.3941  0.1249 -1.3021
  118SOPE   O2112412   3.232   3.905   6.184 -0.4181 -0.0513  0.0702
  118SOPE   C2112413   3.123   3.882   6.105 -0.5571 -0.2007 -0.5187
  118SOPE   O2212414   3.018   3.937   6.116  0.4446 -0.3052  0.7393
  118SOPE   C2212415   3.155   3.778   6.003  0.5030  0.4029  0.1535
  118SOPE   H2R12416   3.160   3.682   6.059 -1.1588  0.8777  1.1768
  118SOPE   H2S12417   3.256   3.782   5.957  0.6743 -2.0215  0.1568
  118SOPE    C312418   3.367   4.101   6.236 -0.1636 -0.1757  0.3036
  118SOPE    HX12419   3.446   4.023   6.246 -0.3245 -0.7985 -2.4144
  118SOPE    HY12420   3.374   4.184   6.309  0.2401  0.7933 -0.7985
  118SOPE   O3112421   3.383   4.143   6.101  0.4356  0.2236  0.2940
  118SOPE   C3112422   3.331   4.256   6.077 -0.1814  0.3278  0.1460
  118SOPE   O3212423   3.266   4.323   6.154  0.3285  0.2361 -0.1934
  118SOPE   C3212424   3.350   4.295   5.930 -1.1070 -0.0744 -0.3978
  118SOPE   H2X12425   3.460   4.288   5.913 -1.4298 -0.3993 -2.7628
  118SOPE   H2Y12426   3.316   4.399   5.913  0.4910  0.6092  0.3528
  118SOPE   C2312427   3.049   3.777   5.891 -0.3633 -0.4771 -0.0303
  118SOPE   H3R12428   2.944   3.761   5.926 -0.2099 -0.2633  0.5376
  118SOPE   H3S12429   3.071   3.682   5.840 -1.1307 -1.4614  1.3840
  118SOPE   C2412430   3.051   3.899   5.796 -0.6053 -0.3567  0.2815
  118SOPE   H4R12431   3.024   3.991   5.851  0.4179 -0.4049  0.8928
  118SOPE   H4S12432   3.158   3.907   5.767 -0.2406 -0.1906  1.6220
  118SOPE   C2512433   2.966   3.881   5.675  0.5094 -0.4388  0.5294
  118SOPE   H5R12434   2.943   3.775   5.647 -0.5482 -0.5603  1.7760
  118SOPE   H5S12435   2.871   3.928   5.707  2.2880  3.0338  1.1711
  118SOPE   C2612436   3.022   3.960   5.551 -1.0920  0.2480  0.9885
  118SOPE   H6R12437   3.037   4.064   5.586 -0.0127  0.1044  0.9918
  118SOPE   H6S12438   3.119   3.921   5.511  1.4082  3.2439  3.5403
  118SOPE   C2712439   2.916   3.958   5.433  0.1375  0.0882 -0.0222
  118SOPE   H7R12440   2.920   3.855   5.392 -1.7599 -0.2145  0.4621
  118SOPE   H7S12441   2.811   3.969   5.466  0.3154 -0.4734  0.7624
  118SOPE   C2812442   2.944   4.077   5.333 -0.0893 -0.0382 -0.4636
  118SOPE   H8R12443   2.952   4.163   5.402 -1.1034 -1.3961  1.4401
  118SOPE   H8S12444   3.049   4.068   5.298 -0.3658  1.3124 -1.7029
  118SOPE   C2912445   2.843   4.079   5.224  0.4630 -0.1075 -0.1457
  118SOPE   H9112446   2.768   4.159   5.231  0.7719  0.4787 -2.6244
  118SOPE  C21012447   2.842   3.987   5.129 -0.2661 -0.1122  0.2393
  118SOPE  H10112448   2.763   3.982   5.053  0.6444  0.1755 -0.7534
  118SOPE  C21112449   2.952   3.887   5.105 -0.1900  0.5540 -0.0033
  118SOPE  H11R12450   2.933   3.798   5.168  2.3040 -2.9792 -3.7172
  118SOPE  H11S12451   3.054   3.920   5.134  0.6249 -1.7264 -0.0385
  118SOPE  C21212452   2.965   3.824   4.968 -0.1491  0.0796  0.5224
  118SOPE  H12R12453   2.876   3.759   4.951 -0.2357  0.6360 -1.3558
  118SOPE  H12S12454   3.055   3.759   4.977 -0.5643 -0.5988 -0.0433
  118SOPE  C21312455   2.988   3.918   4.848  0.3248 -0.0154 -0.1593
  118SOPE  H13R12456   3.048   4.003   4.886 -1.1903  1.1724 -0.3444
  118SOPE  H13S12457   2.892   3.958   4.809  0.7090 -1.3423 -2.6577
  118SOPE  C21412458   3.034   3.850   4.718  0.1000  0.5551 -0.2669
  118SOPE  H14R12459   2.958   3.773   4.693 -1.4946  2.2574 -0.8617
  118SOPE  H14S12460   3.128   3.795   4.741  0.9483  1.2441 -1.9030
  118SOPE  C21512461   3.064   3.937   4.598  0.7141 -0.3688 -0.6653
  118SOPE  H15R12462   3.146   4.006   4.625  1.6103 -1.7755  0.3544
  118SOPE  H15S12463   2.984   4.013   4.588  1.2000  0.1987 -0.3101
  118SOPE  C21612464   3.096   3.867   4.473 -0.5051 -0.1340 -0.2067
  118SOPE  H16R12465   3.015   3.795   4.448 -0.2180 -0.0701 -1.3476
  118SOPE  H16S12466   3.184   3.803   4.496 -1.1273 -1.3332 -1.0745
  118SOPE  C21712467   3.140   3.948   4.349 -0.0155 -0.0782  0.4464
  118SOPE  H17R12468   3.045   3.991   4.312 -1.7455 -3.8247  0.0038
  118SOPE  H17S12469   3.169   3.876   4.269  0.3715  1.5139 -0.8920
  118SOPE  C21812470   3.244   4.050   4.383  0.1271 -0.0251 -0.5623
  118SOPE  H18R12471   3.317   4.005   4.453 -0.8180  0.9193  1.1020
  118SOPE  H18S12472   3.205   4.139   4.438  0.0815 -0.6858  0.5018
  118SOPE  H18T12473   3.313   4.074   4.300 -0.3242 -0.1386 -0.9762
  118SOPE   C3312474   3.274   4.197   5.838  0.0332 -0.4110 -0.9005
  118SOPE   H3X12475   3.167   4.204   5.864 -0.0996 -1.6556 -1.0428
  118SOPE   H3Y12476   3.301   4.094   5.872 -0.8512 -0.8309 -1.4486
  118SOPE   C3412477   3.302   4.215   5.685  0.1873  0.2484 -0.7594
  118SOPE   H4X12478   3.260   4.130   5.627  2.4759 -0.8072 -0.9883
  118SOPE   H4Y12479   3.411   4.211   5.664  0.3310  0.1123 -0.0131
  118SOPE   C3512480   3.253   4.354   5.635 -0.2142  1.1645 -0.2345
  118SOPE   H5X12481   3.275   4.431   5.713 -1.3493  0.2796  1.0112
  118SOPE   H5Y12482   3.143   4.335   5.639  0.0135 -0.6835 -1.4918
  118SOPE   C3612483   3.319   4.381   5.505  0.5015  0.1421  0.2759
  118SOPE   H6X12484   3.430   4.378   5.510  0.4632 -0.7217  0.9764
  118SOPE   H6Y12485   3.285   4.484   5.481  0.6032  0.5370  1.7541
  118SOPE   C3712486   3.268   4.292   5.390  0.5123  0.3338  0.0672
  118SOPE   H7X12487   3.158   4.280   5.386  0.5218  0.5049 -1.9125
  118SOPE   H7Y12488   3.319   4.193   5.386 -2.6602 -1.3952 -0.4963
  118SOPE   C3812489   3.300   4.362   5.247 -0.4098  0.5972  0.3433
  118SOPE   H8X12490   3.407   4.389   5.236 -0.4790  0.9377  0.4700
  118SOPE   H8Y12491   3.243   4.457   5.241 -0.1268  0.8201  1.0214
  118SOPE   C3912492   3.259   4.281   5.127  0.3937 -0.2310  0.2647
  118SOPE   H9X12493   3.183   4.206   5.159  0.9104  0.0507  2.2845
  118SOPE   H9Y12494   3.348   4.232   5.082 -0.5485  1.9022 -4.4793
  118SOPE  C31012495   3.198   4.373   5.014  0.1824  0.7111 -0.4821
  118SOPE  H10X12496   3.277   4.439   4.973  1.3294 -0.6290 -0.5133
  118SOPE  H10Y12497   3.112   4.428   5.056 -1.2744 -1.6055 -0.2291
  118SOPE  C31112498   3.147   4.296   4.904 -0.0197 -0.3162 -0.2646
  118SOPE  H11X12499   3.066   4.228   4.940 -1.3071  0.6023 -1.3429
  118SOPE  H11Y12500   3.226   4.231   4.861 -0.2255 -0.3676 -0.5642
  118SOPE  C31212501   3.109   4.383   4.788 -0.1768  0.1098 -0.5748
  118SOPE  H12X12502   3.195   4.439   4.746  1.8265 -2.3654  0.0229
  118SOPE  H12Y12503   3.025   4.448   4.822 -0.1330 -0.2165  0.1659
  118SOPE  C31312504   3.063   4.302   4.660 -0.5693  0.0393  0.1248
  118SOPE  H13X12505   2.970   4.249   4.690 -2.0997  0.5001 -3.2751
  118SOPE  H13Y12506   3.145   4.230   4.638  0.0660  1.0198 -0.7971
  118SOPE  C31412507   3.017   4.394   4.543  0.0017 -0.0862  0.2999
  118SOPE  H14X12508   3.103   4.463   4.526 -0.0027  0.0677  0.8841
  118SOPE  H14Y12509   2.935   4.458   4.580 -2.5637 -2.8917 -0.1581
  118SOPE  C31512510   2.969   4.319   4.417  0.8246  1.0311  1.0111
  118SOPE  H15X12511   3.050   4.247   4.391 -0.8051 -0.8223  0.8002
  118SOPE  H15Y12512   2.954   4.390   4.333  1.7670  1.3930  1.1398
  118SOPE  C31612513   2.835   4.250   4.437 -0.1437  0.2855 -0.2892
  118SOPE  H16X12514   2.768   4.328   4.478  0.5873  1.1320 -0.6676
  118SOPE  H16Y12515   2.850   4.169   4.512 -1.2258  0.4640  0.1436
  118SOPE  C31712516   2.779   4.183   4.310  0.0452  0.1058  0.6941
  118SOPE  H17X12517   2.847   4.105   4.270  0.3308  2.0844 -3.1703
  118SOPE  H17Y12518   2.750   4.252   4.228 -4.7110 -0.9880  1.1426
  118SOPE  C31812519   2.650   4.102   4.335 -0.2043  0.6879 -0.0512
  118SOPE  H18X12520   2.645   4.020   4.260  1.8000 -0.1161  0.6388
  118SOPE  H18Y12521   2.561   4.167   4.320 -1.1271 -0.1962  1.3057
  118SOPE  H18Z12522   2.647   4.058   4.437  0.7511  1.8562  0.5103
  119SOPE     N12523   5.573   6.509   6.813  0.3106 -0.5463 -0.2839
  119SOPE   HN112524   5.591   6.553   6.906  0.3243  0.7858 -0.8884
  119SOPE   HN212525   5.627   6.560   6.740 -0.7731 -0.1441 -0.8339
  119SOPE   HN312526   5.471   6.523   6.797 -0.2338  0.0747  3.0676
  119SOPE   C1212527   5.602   6.365   6.837 -0.0455 -0.2567  1.0216
  119SOPE  H12A12528   5.517   6.330   6.898 -2.2476  2.7970 -0.0626
  119SOPE  H12B12529   5.702   6.353   6.885  0.8601 -1.8471 -1.0652
  119SOPE   C1112530   5.595   6.293   6.702 -0.3143 -0.1005 -0.5626
  119SOPE  H11A12531   5.630   6.188   6.712  0.7569  0.3726  1.0261
  119SOPE  H11B12532   5.678   6.344   6.648  0.2750 -0.5254 -0.0756
  119SOPE     P12533   5.454   6.310   6.499 -0.3225  0.4306  0.3623
  119SOPE   O1312534   5.495   6.449   6.461  0.6336  0.1655  0.4407
  119SOPE   O1412535   5.318   6.278   6.451  0.1451 -0.0795  0.0442
  119SOPE   O1212536   5.471   6.297   6.649  0.0196  0.1279  0.3377
  119SOPE   O1112537   5.562   6.206   6.448  0.2156 -0.5890  0.1398
  119SOPE    C112538   5.618   6.216   6.315 -0.2431  0.3492  0.1083
  119SOPE    HA12539   5.563   6.293   6.258 -0.1234  1.0910  0.9638
  119SOPE    HB12540   5.600   6.116   6.269 -3.4194  0.4680  0.8629
  119SOPE    C212541   5.773   6.248   6.322  0.3781 -0.3573 -0.1825
  119SOPE    HS12542   5.799   6.196   6.416 -1.5718 -2.0193 -0.4806
  119SOPE   O2112543   5.791   6.392   6.332 -0.1322 -0.4606  0.5075
  119SOPE   C2112544   5.903   6.430   6.390 -0.0858  0.5665  0.1730
  119SOPE   O2212545   5.968   6.361   6.470  0.3408 -0.0382  0.7195
  119SOPE   C2212546   5.931   6.572   6.345  0.1798 -0.4910  0.4158
  119SOPE   H2R12547   6.006   6.614   6.415  1.5140 -3.4921  0.9688
  119SOPE   H2S12548   5.837   6.631   6.355  0.4112  0.9195 -3.8100
  119SOPE    C312549   5.846   6.191   6.204  0.1003 -0.3428 -0.0603
  119SOPE    HX12550   5.840   6.080   6.205 -0.0160 -0.3595 -1.1444
  119SOPE    HY12551   5.951   6.227   6.212 -0.0021  0.2589 -1.2759
  119SOPE   O3112552   5.787   6.239   6.078  0.1121  0.5472 -0.4354
  119SOPE   C3112553   5.860   6.203   5.974  0.1889 -0.1765  0.3588
  119SOPE   O3212554   5.974   6.159   5.986  0.4383  0.0539  0.1433
  119SOPE   C3212555   5.772   6.241   5.852 -0.1022  0.8288 -0.1448
  119SOPE   H2X12556   5.818   6.330   5.804 -0.3120  0.0597 -1.8217
  119SOPE   H2Y12557   5.675   6.276   5.894  1.0117  0.9058  2.5712
  119SOPE   C2312558   5.968   6.570   6.199  0.5202 -0.3274  0.2775
  119SOPE   H3R12559   5.953   6.678   6.181 -2.7503 -0.2478  2.5534
  119SOPE   H3S12560   5.896   6.526   6.126 -0.3863  1.2660  0.1614
  119SOPE   C2412561   6.108   6.515   6.175  0.4480  0.4621  0.7876
  119SOPE   H4R12562   6.165   6.603   6.212 -3.2194  2.6715  1.7160
  119SOPE   H4S12563   6.119   6.424   6.238 -1.3994 -0.3585 -0.0148
  119SOPE   C2512564   6.135   6.466   6.036 -0.9570  0.1990  0.6037
  119SOPE   H5R12565   6.241   6.439   6.021 -0.5281  0.2317  3.1473
  119SOPE   H5S12566   6.076   6.372   6.030  0.5743 -0.6984 -1.0355
  119SOPE   C2612567   6.095   6.563   5.929 -0.5991 -0.2803 -0.0487
  119SOPE   H6R12568   5.986   6.584   5.934 -1.0061 -1.7653 -1.5527
  119SOPE   H6S12569   6.151   6.658   5.935  1.5236 -1.3793 -1.4435
  119SOPE   C2712570   6.102   6.504   5.786  0.1334 -0.1477  0.5847
  119SOPE   H7R12571   6.208   6.483   5.759 -0.2013 -0.2919 -0.6587
  119SOPE   H7S12572   6.055   6.406   5.767  0.1208  0.0458 -0.4524
  119SOPE   C2812573   6.042   6.599   5.674  0.4793  0.1802  0.0318
  119SOPE   H8R12574   6.045   6.704   5.708  1.7070  0.9308 -2.1960
  119SOPE   H8S12575   6.109   6.581   5.587 -1.1106 -1.0739 -1.0119
  119SOPE   C2912576   5.893   6.575   5.639 -0.0355 -0.1901 -0.0048
  119SOPE   H9112577   5.822   6.602   5.719 -1.6018  0.3717 -1.5343
  119SOPE  C21012578   5.846   6.530   5.519  0.2973 -0.2330 -0.1038
  119SOPE  H10112579   5.738   6.521   5.503  0.5136  0.8002 -2.6321
  119SOPE  C21112580   5.924   6.509   5.394  0.1316  0.0452 -0.0271
  119SOPE  H11R12581   5.905   6.403   5.365  2.8871 -1.1262  1.9556
  119SOPE  H11S12582   6.032   6.515   5.419  0.0188  3.6944  0.0353
  119SOPE  C21212583   5.871   6.609   5.291 -0.3283 -0.0466 -0.0622
  119SOPE  H12R12584   5.858   6.708   5.339 -1.3195 -0.7425  1.1591
  119SOPE  H12S12585   5.785   6.572   5.231  0.4237  1.1175 -1.9425
  119SOPE  C21312586   5.977   6.634   5.178  0.1929  0.0002  0.3123
  119SOPE  H13R12587   5.990   6.528   5.145 -1.4253  0.4298 -1.9722
  119SOPE  H13S12588   6.074   6.670   5.219  0.0479  0.7731 -0.0066
  119SOPE  C21412589   5.933   6.731   5.067 -0.2861  0.3649  0.3812
  119SOPE  H14R12590   5.939   6.834   5.109  0.9392 -0.5447  2.5879
  119SOPE  H14S12591   5.824   6.713   5.054 -0.4745 -0.7919  3.1059
  119SOPE  C21512592   6.006   6.709   4.932  0.5554  0.0245  0.4715
  119SOPE  H15R12593   6.116   6.724   4.938  0.8218 -0.5655 -1.8573
  119SOPE  H15S12594   5.967   6.760   4.841 -0.5171 -0.9697  0.3500
  119SOPE  C21612595   5.984   6.564   4.884  0.6273 -0.2137 -0.5980
  119SOPE  H16R12596   5.884   6.558   4.836 -0.1338  0.5462  0.8122
  119SOPE  H16S12597   5.985   6.490   4.967 -0.2698  1.2610  0.8047
  119SOPE  C21712598   6.094   6.523   4.789 -0.4425  0.4493 -0.3423
  119SOPE  H17R12599   6.191   6.526   4.844 -0.8706 -1.6452  0.6050
  119SOPE  H17S12600   6.108   6.599   4.709  2.8717  1.6423  1.1719
  119SOPE  C21812601   6.069   6.378   4.734 -0.3103 -0.7361  0.0990
  119SOPE  H18R12602   6.009   6.381   4.641  1.2841 -0.1714 -0.9547
  119SOPE  H18S12603   6.033   6.303   4.807  0.2986  0.8492  2.1327
  119SOPE  H18T12604   6.167   6.335   4.703  0.1815  0.8963 -0.6856
  119SOPE   C3312605   5.769   6.137   5.731  0.2313 -0.5018  0.1495
  119SOPE   H3X12606   5.717   6.044   5.763  0.9425 -0.9620 -0.0253
  119SOPE   H3Y12607   5.874   6.112   5.705 -0.1319  0.0296 -2.1057
  119SOPE   C3412608   5.693   6.196   5.610  0.7065  0.7113  0.0472
  119SOPE   H4X12609   5.739   6.164   5.514 -0.4575 -0.1813 -0.2457
  119SOPE   H4Y12610   5.689   6.307   5.613  0.0750  0.7810  4.4025
  119SOPE   C3512611   5.542   6.143   5.602  0.0859  0.2222 -0.3080
  119SOPE   H5X12612   5.495   6.203   5.521  1.5037  1.6259 -0.1329
  119SOPE   H5Y12613   5.495   6.174   5.698  1.5227 -2.3332  1.3153
  119SOPE   C3612614   5.519   5.993   5.591  0.2434 -0.0749 -0.4902
  119SOPE   H6X12615   5.409   5.987   5.603  0.0409  3.4866  0.8929
  119SOPE   H6Y12616   5.568   5.931   5.670 -0.2176 -0.7451 -0.7275
  119SOPE   C3712617   5.560   5.927   5.452  0.0721  0.4357  0.5439
  119SOPE   H7X12618   5.662   5.970   5.438  0.5677 -0.6670  0.6439
  119SOPE   H7Y12619   5.494   5.961   5.369  0.5645  1.2005  0.4525
  119SOPE   C3812620   5.571   5.772   5.463  0.0235 -0.1968  0.7442
  119SOPE   H8X12621   5.473   5.722   5.480 -0.7855  0.3206 -1.9961
  119SOPE   H8Y12622   5.648   5.752   5.540  1.9778  1.6608 -0.6254
  119SOPE   C3912623   5.623   5.711   5.337  0.1223  0.9023  0.2885
  119SOPE   H9X12624   5.702   5.782   5.303  1.0076  1.1525  2.6855
  119SOPE   H9Y12625   5.546   5.713   5.258 -1.9571 -0.8596  2.1326
  119SOPE  C31012626   5.679   5.568   5.350  0.1316 -0.0858  0.4832
  119SOPE  H10X12627   5.746   5.553   5.438  1.2590  0.2843 -0.2811
  119SOPE  H10Y12628   5.739   5.548   5.259 -1.1884  0.0348 -0.4346
  119SOPE  C31112629   5.566   5.457   5.349 -0.0460 -0.2685 -0.5485
  119SOPE  H11X12630   5.531   5.467   5.454  0.9751 -2.7959  0.1200
  119SOPE  H11Y12631   5.598   5.352   5.332  0.7796  0.0134 -0.7766
  119SOPE  C31212632   5.445   5.477   5.253  0.1937 -0.4597  0.6117
  119SOPE  H12X12633   5.471   5.493   5.146 -1.7408 -3.3032 -0.4025
  119SOPE  H12Y12634   5.388   5.562   5.297  0.3249 -0.8749  1.6013
  119SOPE  C31312635   5.338   5.361   5.260  0.3683  0.0004 -0.0165
  119SOPE  H13X12636   5.378   5.264   5.222  2.6116  1.8235 -2.6545
  119SOPE  H13Y12637   5.255   5.395   5.194  0.8908  0.6265 -0.3628
  119SOPE  C31412638   5.279   5.334   5.404  0.5078 -0.3179  0.7741
  119SOPE  H14X12639   5.223   5.424   5.436 -2.7497 -1.9929  0.2498
  119SOPE  H14Y12640   5.359   5.330   5.480 -0.5107 -0.2835  1.8813
  119SOPE  C31512641   5.184   5.215   5.406  0.2315 -0.3576  0.0779
  119SOPE  H15X12642   5.241   5.121   5.394  0.2780 -0.5452  1.5770
  119SOPE  H15Y12643   5.109   5.214   5.324  2.4358 -0.4204 -2.0356
  119SOPE  C31612644   5.112   5.205   5.543 -0.4848  0.3607  0.5135
  119SOPE  H16X12645   5.071   5.302   5.579  0.6060  0.8525  0.4866
  119SOPE  H16Y12646   5.195   5.183   5.613  0.0316  0.6391 -0.0001
  119SOPE  C31712647   5.015   5.088   5.549 -0.2517  1.3258 -0.3278
  119SOPE  H17X12648   4.951   5.086   5.458 -2.6684  1.6942  1.2660
  119SOPE  H17Y12649   4.948   5.106   5.636 -1.7974  0.7472 -1.3476
  119SOPE  C31812650   5.084   4.956   5.596  0.5527  0.5441  0.0077
  119SOPE  H18X12651   5.179   4.937   5.540  0.8427  1.6413  0.1155
  119SOPE  H18Y12652   5.016   4.868   5.593  1.6760 -0.3514 -1.6499
  119SOPE  H18Z12653   5.115   4.956   5.703  0.9027 -1.2088 -0.0563
  120SOPE     N12654   0.507   6.921   6.711 -0.4576 -0.0272  0.0649
  120SOPE   HN112655   0.467   6.857   6.639 -1.3465  1.2881 -0.6755
  120SOPE   HN212656   0.486   7.020   6.685  1.4325  0.0172 -1.5498
  120SOPE   HN312657   0.608   6.921   6.689 -0.4826  0.2536 -0.0608
  120SOPE   C1212658   0.482   6.875   6.853 -0.3981  0.6586 -0.2604
  120SOPE  H12A12659   0.373   6.864   6.872  0.0430 -2.4365  1.0298
  120SOPE  H12B12660   0.546   6.940   6.917  4.2228 -3.4528 -0.0757
  120SOPE   C1112661   0.544   6.731   6.879  0.0947  0.2483 -0.0934
  120SOPE  H11A12662   0.526   6.697   6.983  2.2064  0.1922  0.3032
  120SOPE  H11B12663   0.653   6.748   6.865  0.1670 -0.9714 -1.1262
  120SOPE     P12664   0.350   6.553   6.819 -0.0543  0.5810  0.2918
  120SOPE   O1312665   0.258   6.656   6.876 -0.2185 -0.1125  0.3151
  120SOPE   O1412666   0.361   6.425   6.887  0.2437 -0.5648 -0.0041
  120SOPE   O1212667   0.491   6.626   6.789 -0.0534 -0.2395 -0.5393
  120SOPE   O1112668   0.299   6.513   6.676 -0.2344  0.2160  0.5183
  120SOPE    C112669   0.155   6.509   6.647 -0.3209 -0.8161 -0.5222
  120SOPE    HA12670   0.111   6.611   6.653  1.7815  0.0807  2.5344
  120SOPE    HB12671   0.107   6.465   6.737 -0.9099  3.4258  1.4829
  120SOPE    C212672   0.122   6.449   6.509  0.5838  0.0342  0.6206
  120SOPE    HS12673   0.140   6.529   6.433  1.6291  0.0163  0.8351
  120SOPE   O2112674  -0.018   6.398   6.498 -0.3660 -0.5341  0.0192
  120SOPE   C2112675  -0.116   6.476   6.493 -0.0353 -0.0017  0.0232
  120SOPE   O2212676  -0.110   6.601   6.487  0.2149 -0.0279  0.6902
  120SOPE   C2212677  -0.244   6.393   6.474 -0.1082  0.0271  0.2105
  120SOPE   H2R12678  -0.306   6.407   6.565 -2.4285  0.5483 -1.3583
  120SOPE   H2S12679  -0.219   6.285   6.470 -0.1961  0.0077  0.1788
  120SOPE    C312680   0.217   6.337   6.470  0.9276 -0.0279 -0.2789
  120SOPE    HX12681   0.208   6.254   6.544  0.6999 -1.4117 -1.7973
  120SOPE    HY12682   0.320   6.376   6.461  0.7223  0.3029 -1.3742
  120SOPE   O3112683   0.179   6.294   6.340  0.4492  0.4144  0.0262
  120SOPE   C3112684   0.093   6.190   6.332  0.5222  0.4315  0.2547
  120SOPE   O3212685   0.050   6.132   6.429  0.4168  0.6433 -0.6525
  120SOPE   C3212686   0.063   6.150   6.196 -0.4020  0.1724  0.0934
  120SOPE   H2X12687   0.158   6.147   6.138  0.5020  1.9080  1.3615
  120SOPE   H2Y12688  -0.003   6.227   6.151 -0.4143 -0.7054 -1.4352
  120SOPE   C2312689  -0.327   6.436   6.357  0.0523 -0.6719  0.0322
  120SOPE   H3R12690  -0.351   6.544   6.353  1.4169 -0.3986 -1.9071
  120SOPE   H3S12691  -0.434   6.408   6.372 -0.2800  0.2641 -0.5375
  120SOPE   C2412692  -0.275   6.360   6.236 -0.3672 -0.5118 -0.0391
  120SOPE   H4R12693  -0.179   6.404   6.200 -0.9207 -0.1467 -1.1160
  120SOPE   H4S12694  -0.253   6.255   6.265  2.9007  0.2915  0.8130
  120SOPE   C2512695  -0.374   6.374   6.120  0.0315  0.3897  0.2976
  120SOPE   H5R12696  -0.469   6.335   6.161  0.6448 -3.1633 -1.2476
  120SOPE   H5S12697  -0.376   6.479   6.082  1.6475  0.4286  0.2171
  120SOPE   C2612698  -0.317   6.285   6.009 -0.5068 -0.2489 -0.1110
  120SOPE   H6R12699  -0.226   6.314   5.951 -1.2001  0.4595 -0.8732
  120SOPE   H6S12700  -0.298   6.183   6.049  0.0625 -0.0080  0.2599
  120SOPE   C2712701  -0.416   6.266   5.891 -0.4552 -0.4160 -1.1615
  120SOPE   H7R12702  -0.510   6.227   5.937 -0.6422  1.4674  0.1549
  120SOPE   H7S12703  -0.448   6.366   5.856  0.3362  0.3431  0.2148
  120SOPE   C2812704  -0.358   6.177   5.783  0.0783 -0.3222 -1.0062
  120SOPE   H8R12705  -0.319   6.088   5.837  1.2088  1.1497  0.6863
  120SOPE   H8S12706  -0.435   6.138   5.713  1.0592 -0.5366 -1.9941
  120SOPE   C2912707  -0.255   6.257   5.705  0.4899  0.2458  0.6892
  120SOPE   H9112708  -0.159   6.280   5.754  2.1412 -1.9395 -1.3032
  120SOPE  C21012709  -0.270   6.296   5.581 -0.0650 -0.8851 -0.0384
  120SOPE  H10112710  -0.202   6.358   5.520 -2.3540  1.1961 -0.6628
  120SOPE  C21112711  -0.388   6.268   5.493 -0.1778  0.7607  0.1917
  120SOPE  H11R12712  -0.396   6.349   5.418 -1.5306  0.0621 -0.4499
  120SOPE  H11S12713  -0.483   6.265   5.551 -1.3279  0.8565 -1.6093
  120SOPE  C21212714  -0.381   6.143   5.404 -0.2729  0.1441  0.2645
  120SOPE  H12R12715  -0.383   6.057   5.474 -2.1695 -0.0751 -0.0119
  120SOPE  H12S12716  -0.282   6.140   5.353 -0.7295  0.4047 -0.6587
  120SOPE  C21312717  -0.501   6.134   5.306  0.5548 -0.2429 -0.8030
  120SOPE  H13R12718  -0.531   6.235   5.271 -1.0946 -0.4452 -0.0431
  120SOPE  H13S12719  -0.576   6.097   5.379  2.8427 -1.0773  1.2776
  120SOPE  C21412720  -0.483   6.032   5.191  0.8751 -0.3357 -0.3052
  120SOPE  H14R12721  -0.583   5.998   5.157  0.4176 -0.4593  1.0755
  120SOPE  H14S12722  -0.431   5.942   5.232  0.6015 -1.0026 -1.3883
  120SOPE  C21512723  -0.395   6.092   5.075 -0.3954 -0.0565 -0.6054
  120SOPE  H15R12724  -0.391   6.012   4.997  2.7726  1.3151 -2.0080
  120SOPE  H15S12725  -0.294   6.108   5.120 -2.2698  1.7624  3.5065
  120SOPE  C21612726  -0.453   6.221   5.012 -0.6559 -0.3257  0.5267
  120SOPE  H16R12727  -0.430   6.306   5.080  0.7752  0.4099 -0.8042
  120SOPE  H16S12728  -0.562   6.208   4.996 -0.5485  0.1352 -0.7052
  120SOPE  C21712729  -0.393   6.259   4.872  0.6764  0.4314  0.5661
  120SOPE  H17R12730  -0.379   6.163   4.819  0.0937  0.0867  1.0215
  120SOPE  H17S12731  -0.290   6.297   4.886  1.2361 -1.3250  1.4482
  120SOPE  C21812732  -0.470   6.370   4.795 -0.3310  0.9018 -0.3851
  120SOPE  H18R12733  -0.434   6.374   4.689  2.4207 -1.7131  0.3233
  120SOPE  H18S12734  -0.458   6.465   4.852  0.8452  1.4944 -1.5580
  120SOPE  H18T12735  -0.578   6.349   4.780 -0.4739  2.2913 -1.6385
  120SOPE   C3312736  -0.014   6.017   6.180  0.3344  0.0854 -0.4251
  120SOPE   H3X12737  -0.113   6.024   6.231  0.7639 -1.6503  0.7491
  120SOPE   H3Y12738   0.039   5.935   6.233  0.7134 -0.0117 -0.9490
  120SOPE   C3412739  -0.047   5.993   6.037 -0.2886  0.0658  0.1515
  120SOPE   H4X12740   0.028   6.033   5.965  0.6609 -0.1785  0.9811
  120SOPE   H4Y12741  -0.141   6.045   6.007  0.2365  0.9144 -0.0747
  120SOPE   C3512742  -0.062   5.842   6.008 -0.4317 -0.5176  0.5632
  120SOPE   H5X12743  -0.140   5.786   6.064 -2.2309 -1.9514 -3.0929
  120SOPE   H5Y12744   0.033   5.801   6.049 -0.3413 -1.4905 -0.5722
  120SOPE   C3612745  -0.077   5.831   5.863 -0.4507  0.2124  0.2493
  120SOPE   H6X12746  -0.004   5.901   5.817 -0.5776 -1.0521 -2.0678
  120SOPE   H6Y12747  -0.178   5.849   5.819 -1.0975 -1.8192  0.7874
  120SOPE   C3712748  -0.017   5.701   5.805 -0.0041  0.0034  0.6424
  120SOPE   H7X12749  -0.076   5.616   5.844  0.3046 -0.2035  0.6689
  120SOPE   H7Y12750   0.080   5.693   5.858 -0.4962  0.3371  1.6105
  120SOPE   C3812751  -0.004   5.681   5.651 -0.4250 -0.0046 -0.8346
  120SOPE   H8X12752   0.037   5.579   5.630 -2.5301 -1.5832  2.0352
  120SOPE   H8Y12753   0.072   5.753   5.613 -0.2250 -0.1431 -0.6995
  120SOPE   C3912754  -0.117   5.696   5.555  0.6680 -0.2993 -0.0123
  120SOPE   H9X12755  -0.165   5.796   5.570 -1.7239 -1.5592  1.2533
  120SOPE   H9Y12756  -0.191   5.622   5.591 -2.7558  1.2807 -3.0611
  120SOPE  C31012757  -0.070   5.673   5.410  0.3389  0.9013 -0.8086
  120SOPE  H10X12758  -0.043   5.565   5.407 -3.2684 -0.4329  3.5919
  120SOPE  H10Y12759   0.022   5.729   5.382  1.5230 -1.5786 -2.2220
  120SOPE  C31112760  -0.185   5.700   5.304 -0.5842  0.1066  0.1189
  120SOPE  H11X12761  -0.238   5.796   5.318 -0.6743 -0.1703  2.0453
  120SOPE  H11Y12762  -0.262   5.624   5.329  0.4782 -1.7708 -1.9535
  120SOPE  C31212763  -0.137   5.679   5.159 -0.0714  0.3649  0.2091
  120SOPE  H12X12764  -0.109   5.576   5.128 -0.5092  0.0317  0.9064
  120SOPE  H12Y12765  -0.051   5.746   5.137  1.7496 -2.4836 -2.0759
  120SOPE  C31312766  -0.241   5.720   5.054 -0.3248 -0.2240  0.5981
  120SOPE  H13X12767  -0.262   5.828   5.072 -2.1529 -0.0998 -1.7559
  120SOPE  H13Y12768  -0.340   5.670   5.060 -0.6179  0.1957 -0.5570
  120SOPE  C31412769  -0.182   5.699   4.913 -0.2670 -0.4019  0.5161
  120SOPE  H14X12770  -0.174   5.589   4.901  0.0973 -0.4337  1.0266
  120SOPE  H14Y12771  -0.077   5.731   4.896  0.1488 -2.3428 -0.8593
  120SOPE  C31512772  -0.274   5.750   4.803  0.4073 -0.1577 -0.1659
  120SOPE  H15X12773  -0.271   5.859   4.823  1.0284  0.6545 -3.9184
  120SOPE  H15Y12774  -0.383   5.729   4.811  0.0818  0.0049 -3.0237
  120SOPE  C31612775  -0.226   5.719   4.657 -0.6122 -0.1242 -0.7093
  120SOPE  H16X12776  -0.237   5.609   4.643 -0.6315 -0.3815  1.0154
  120SOPE  H16Y12777  -0.117   5.741   4.653 -1.0473  2.3513 -0.7450
  120SOPE  C31712778  -0.297   5.797   4.548  0.4235  0.1459 -0.2305
  120SOPE  H17X12779  -0.298   5.904   4.577 -2.5512  0.0277  0.5033
  120SOPE  H17Y12780  -0.404   5.766   4.552  0.6917 -0.6778  1.0286
  120SOPE  C31812781  -0.238   5.787   4.406  0.3141  0.2670 -0.4392
  120SOPE  H18X12782  -0.178   5.695   4.387 -1.6548 -0.6027 -3.0370
  120SOPE  H18Y12783  -0.169   5.873   4.391 -0.9598  1.4630  0.2643
  120SOPE  H18Z12784  -0.315   5.800   4.327  0.0521  0.4932 -0.1517
  121SOPE     N12785   5.208   3.980   6.303 -1.0661  0.8954  0.5328
  121SOPE   HN112786   5.310   3.999   6.293 -0.5576 -1.3213  1.0424
  121SOPE   HN212787   5.170   4.063   6.354 -0.8636 -0.8809  3.8807
  121SOPE   HN312788   5.189   3.903   6.370 -0.5636 -0.7997 -1.1954
  121SOPE   C1212789   5.134   3.946   6.176  0.5437 -0.3792  0.0170
  121SOPE  H12A12790   5.130   3.836   6.157 -0.3351 -0.1199 -1.4702
  121SOPE  H12B12791   5.196   3.982   6.091 -1.4559  2.1742 -0.4975
  121SOPE   C1112792   4.992   4.010   6.192  0.3743  0.0831  0.2366
  121SOPE  H11A12793   4.942   3.998   6.094  0.0606 -1.5839  0.5706
  121SOPE  H11B12794   4.984   4.118   6.218 -2.3585 -0.4503  1.9755
  121SOPE     P12795   4.828   4.009   6.401 -0.4804  0.2592 -0.3954
  121SOPE   O1312796   4.930   4.029   6.512 -0.2059  0.0182 -0.2810
  121SOPE   O1412797   4.713   3.927   6.430 -0.0665 -0.1935 -0.3308
  121SOPE   O1212798   4.899   3.941   6.283  0.4795  0.4968 -0.3028
  121SOPE   O1112799   4.780   4.144   6.343  0.0490  0.1562  0.5857
  121SOPE    C112800   4.644   4.159   6.290 -0.0775  0.3303  0.0046
  121SOPE    HA12801   4.621   4.267   6.294  0.9270  0.5286  0.5177
  121SOPE    HB12802   4.571   4.104   6.354  0.0517 -1.6607 -1.4523
  121SOPE    C212803   4.636   4.120   6.136 -0.6857  0.0532 -0.5141
  121SOPE    HS12804   4.687   4.022   6.122 -1.3803 -0.3756 -0.0815
  121SOPE   O2112805   4.684   4.228   6.058 -0.6667  0.2516  0.1728
  121SOPE   C2112806   4.735   4.195   5.945 -0.4897 -0.7658  0.5899
  121SOPE   O2212807   4.765   4.081   5.907 -0.1155 -0.0461 -0.4355
  121SOPE   C2212808   4.743   4.316   5.855 -0.6475 -0.6523  0.2978
  121SOPE   H2R12809   4.839   4.366   5.879 -0.2103 -1.6876  0.7891
  121SOPE   H2S12810   4.660   4.387   5.873 -0.7906 -1.0041  1.0753
  121SOPE    C312811   4.484   4.096   6.092 -0.6520  0.3569 -0.6741
  121SOPE    HX12812   4.432   4.192   6.111  1.0908  1.0684  0.8288
  121SOPE    HY12813   4.448   4.027   6.171  3.0411  0.1616  1.0240
  121SOPE   O3112814   4.465   4.039   5.957 -0.8874  0.2531 -0.2533
  121SOPE   C3112815   4.491   3.907   5.952 -0.0510 -0.2363  0.2703
  121SOPE   O3212816   4.512   3.843   6.051 -0.4542 -0.3396 -0.3002
  121SOPE   C3212817   4.510   3.865   5.808  0.3315  0.0889  0.5540
  121SOPE   H2X12818   4.613   3.889   5.775  0.9055  0.0417  2.2394
  121SOPE   H2Y12819   4.443   3.931   5.748  0.4303  0.5754  0.9713
  121SOPE   C2312820   4.757   4.286   5.703 -0.0271  0.2473  0.2249
  121SOPE   H3R12821   4.821   4.199   5.678 -2.1358 -1.6478  1.0428
  121SOPE   H3S12822   4.799   4.375   5.652  0.7909  0.0674  0.5702
  121SOPE   C2412823   4.609   4.261   5.643 -0.2368  1.1804  0.6851
  121SOPE   H4R12824   4.563   4.187   5.711  0.3348 -0.8821 -1.0604
  121SOPE   H4S12825   4.549   4.354   5.656 -0.1356  0.9899  2.8785
  121SOPE   C2512826   4.612   4.197   5.497  0.4401 -0.6347  0.5247
  121SOPE   H5R12827   4.667   4.100   5.493 -1.5291 -1.8747  1.6489
  121SOPE   H5S12828   4.508   4.166   5.476  0.1982  0.8697 -0.6119
  121SOPE   C2612829   4.658   4.274   5.370  0.3857  0.1811 -0.9141
  121SOPE   H6R12830   4.594   4.364   5.384  0.4862 -0.2077  3.0985
  121SOPE   H6S12831   4.763   4.310   5.375  0.9455 -1.0045 -2.8839
  121SOPE   C2712832   4.621   4.206   5.240 -0.1077  0.2079  0.4298
  121SOPE   H7R12833   4.681   4.114   5.223 -0.8628 -0.0557 -0.9565
  121SOPE   H7S12834   4.515   4.173   5.245 -0.5884  1.4616 -0.7571
  121SOPE   C2812835   4.624   4.301   5.121  0.4790 -0.3060 -0.3410
  121SOPE   H8R12836   4.570   4.391   5.157  2.9061  1.1963 -0.2492
  121SOPE   H8S12837   4.720   4.355   5.112 -1.7455  4.3879  0.7842
  121SOPE   C2912838   4.577   4.247   4.983  0.3285 -0.1954 -0.2841
  121SOPE   H9112839   4.642   4.173   4.935 -2.0791 -1.4724 -1.7172
  121SOPE  C21012840   4.458   4.289   4.925 -0.7854  0.1404 -0.0957
  121SOPE  H10112841   4.439   4.247   4.825  1.3518  0.1008 -0.5308
  121SOPE  C21112842   4.357   4.382   4.987  0.4450 -0.1073 -0.0319
  121SOPE  H11R12843   4.387   4.487   4.968  2.1446  0.0755  3.0668
  121SOPE  H11S12844   4.359   4.362   5.096  2.7451  0.6283  0.1217
  121SOPE  C21212845   4.213   4.356   4.943 -0.2030 -0.5484 -1.1615
  121SOPE  H12R12846   4.145   4.413   5.010  1.2373 -0.3776  0.2124
  121SOPE  H12S12847   4.182   4.253   4.969  0.8826 -0.6674 -0.3021
  121SOPE  C21312848   4.188   4.387   4.796 -0.0490  0.2629 -0.0888
  121SOPE  H13R12849   4.281   4.367   4.739 -1.0040 -1.1229 -1.2434
  121SOPE  H13S12850   4.168   4.496   4.793  1.6252  0.7111  1.9699
  121SOPE  C21412851   4.068   4.323   4.720  0.0675 -0.2456 -0.4326
  121SOPE  H14R12852   3.973   4.376   4.745  0.1903 -0.4493  0.5191
  121SOPE  H14S12853   4.058   4.214   4.741 -0.8719  0.0484  0.7773
  121SOPE  C21512854   4.087   4.337   4.571 -0.1621  0.0385 -0.0446
  121SOPE  H15R12855   4.179   4.288   4.531  0.7439  1.4472  0.2428
  121SOPE  H15S12856   4.093   4.443   4.541 -0.8271 -0.1486 -0.8934
  121SOPE  C21612857   3.970   4.272   4.496  0.1318  0.1721  0.1937
  121SOPE  H16R12858   3.877   4.328   4.518 -1.0415 -2.2159  1.6470
  121SOPE  H16S12859   3.963   4.170   4.539  2.1148 -2.0433 -4.0978
  121SOPE  C21712860   3.986   4.270   4.342 -0.2347 -0.6127  0.1223
  121SOPE  H17R12861   4.076   4.209   4.317 -0.5963 -0.2788 -2.1804
  121SOPE  H17S12862   4.012   4.375   4.314 -1.4892  0.0813  1.4481
  121SOPE  C21812863   3.867   4.207   4.272 -0.1113 -0.1025  0.3841
  121SOPE  H18R12864   3.773   4.230   4.327 -1.9650 -0.8758 -2.2291
  121SOPE  H18S12865   3.873   4.096   4.266  2.4445 -0.1778  2.5774
  121SOPE  H18T12866   3.847   4.252   4.172 -1.3507  0.7180  0.9781
  121SOPE   C3312867   4.476   3.714   5.783  0.2869  0.7157 -0.9830
  121SOPE   H3X12868   4.401   3.673   5.853  0.3444 -0.4992 -1.6126
  121SOPE   H3Y12869   4.570   3.655   5.794 -0.1595 -0.0135 -1.0035
  121SOPE   C3412870   4.414   3.679   5.645  0.2439  0.3052 -0.0747
  121SOPE   H4X12871   4.331   3.749   5.620 -0.9345 -1.5138 -1.4793
  121SOPE   H4Y12872   4.376   3.575   5.651  3.7927 -1.1068  0.3080
  121SOPE   C3512873   4.510   3.695   5.522  0.0779 -0.4274  0.1925
  121SOPE   H5X12874   4.588   3.619   5.545  0.8685  0.1093 -0.6195
  121SOPE   H5Y12875   4.554   3.797   5.524 -1.8875  0.4461  1.2895
  121SOPE   C3612876   4.445   3.677   5.383 -0.6375  0.1927 -1.0063
  121SOPE   H6X12877   4.405   3.574   5.373 -0.3159  0.0253 -0.5965
  121SOPE   H6Y12878   4.530   3.673   5.311 -0.5026  3.4229 -1.1726
  121SOPE   C3712879   4.349   3.790   5.351 -0.6556  0.9314  0.7372
  121SOPE   H7X12880   4.401   3.887   5.363  2.1579 -0.5762  1.7074
  121SOPE   H7Y12881   4.266   3.784   5.424  0.1095  0.0664  1.5672
  121SOPE   C3812882   4.303   3.775   5.206  0.4405  0.2859  0.0894
  121SOPE   H8X12883   4.220   3.846   5.189  0.9731  1.0383  0.5381
  121SOPE   H8Y12884   4.269   3.672   5.181  2.7777 -0.3828 -0.6431
  121SOPE   C3912885   4.416   3.800   5.100  0.2111 -0.6618  0.2962
  121SOPE   H9X12886   4.496   3.723   5.102  1.6837  0.8153  0.7560
  121SOPE   H9Y12887   4.459   3.901   5.117 -1.5528 -0.0800  1.5321
  121SOPE  C31012888   4.358   3.804   4.958 -0.0729  0.1089  0.0930
  121SOPE  H10X12889   4.247   3.804   4.968 -0.0124 -0.5124  0.8076
  121SOPE  H10Y12890   4.387   3.716   4.896 -1.9980 -1.3349  1.1455
  121SOPE  C31112891   4.392   3.928   4.879 -0.4830  0.6052 -0.1329
  121SOPE  H11X12892   4.501   3.945   4.887 -0.0945 -1.5033 -0.4671
  121SOPE  H11Y12893   4.325   4.014   4.904  0.6111  1.7775 -1.1116
  121SOPE  C31212894   4.354   3.914   4.731  0.5759  0.8003  0.4193
  121SOPE  H12X12895   4.248   3.881   4.731  1.1900 -1.3414  1.6347
  121SOPE  H12Y12896   4.405   3.826   4.686 -1.4763 -0.0763 -0.2881
  121SOPE  C31312897   4.364   4.047   4.657 -0.3334  0.6402 -0.1268
  121SOPE  H13X12898   4.472   4.075   4.652  0.0158 -0.1416  1.9147
  121SOPE  H13Y12899   4.298   4.116   4.713 -0.2177  1.5690 -1.1177
  121SOPE  C31412900   4.307   4.042   4.516  0.6636 -0.0429 -0.5350
  121SOPE  H14X12901   4.344   4.134   4.466 -1.6986  1.4253  0.2516
  121SOPE  H14Y12902   4.197   4.051   4.519  0.8032  2.5000 -0.4761
  121SOPE  C31512903   4.342   3.920   4.423 -0.0004 -0.3367 -0.1634
  121SOPE  H15X12904   4.284   3.837   4.469  0.3827 -0.4129  0.1892
  121SOPE  H15Y12905   4.451   3.899   4.429  0.1569  0.7298  1.4268
  121SOPE  C31612906   4.289   3.944   4.289  0.0893 -0.5209 -0.0574
  121SOPE  H16X12907   4.325   4.042   4.251 -0.8205  0.6531  1.9458
  121SOPE  H16Y12908   4.178   3.956   4.291  0.1287  1.3041 -2.6629
  121SOPE  C31712909   4.308   3.837   4.181 -0.5890 -0.2484 -0.5162
  121SOPE  H17X12910   4.265   3.741   4.218  0.0153 -0.1650  0.4237
  121SOPE  H17Y12911   4.417   3.822   4.172  0.1938  1.0946  4.0408
  121SOPE  C31812912   4.246   3.882   4.053  0.3379 -0.1719  0.9325
  121SOPE  H18X12913   4.307   3.960   4.003  0.6273 -0.0606  1.4557
  121SOPE  H18Y12914   4.139   3.911   4.067 -0.0604 -0.8239 -0.5601
  121SOPE  H18Z12915   4.242   3.793   3.987 -0.4814  0.7903 -0.3837
  122SOPE     N12916   5.781   3.976   6.215  0.3972  0.0745 -0.8810
  122SOPE   HN112917   5.797   4.062   6.270 -2.7537 -0.2883  0.7916
  122SOPE   HN212918   5.718   3.917   6.274 -0.2522  1.1233 -0.5044
  122SOPE   HN312919   5.871   3.929   6.191 -0.0914  0.1165 -3.0579
  122SOPE   C1212920   5.693   4.006   6.103 -0.4358 -0.7695  0.2971
  122SOPE  H12A12921   5.739   4.089   6.045 -0.9242 -0.2569  0.6331
  122SOPE  H12B12922   5.601   4.055   6.142 -0.1268  0.0847 -0.0172
  122SOPE   C1112923   5.653   3.886   6.013  0.0805  0.3772 -1.2830
  122SOPE  H11A12924   5.734   3.838   5.954  0.7073 -0.8068  0.4873
  122SOPE  H11B12925   5.579   3.942   5.951 -1.7225 -1.3853 -0.8150
  122SOPE     P12926   5.466   3.705   6.097 -0.0637 -0.2537  0.1218
  122SOPE   O1312927   5.378   3.767   6.200 -0.5050  0.7054 -0.6778
  122SOPE   O1412928   5.510   3.568   6.119  0.0071  0.2761 -0.5071
  122SOPE   O1212929   5.604   3.778   6.097  0.1415 -0.4683 -0.6324
  122SOPE   O1112930   5.398   3.730   5.958 -0.4271 -0.3171 -0.0042
  122SOPE    C112931   5.344   3.636   5.867 -1.0469 -0.2024  0.2066
  122SOPE    HA12932   5.248   3.680   5.834 -1.8385 -4.0460 -3.4356
  122SOPE    HB12933   5.331   3.536   5.913  0.5472 -0.4939  0.0763
  122SOPE    C212934   5.446   3.625   5.750 -0.9129  0.0121  0.5601
  122SOPE    HS12935   5.412   3.551   5.675 -0.7345  0.4340  0.0529
  122SOPE   O2112936   5.569   3.578   5.801 -0.0623  0.1787  0.4840
  122SOPE   C2112937   5.585   3.441   5.813  0.3448  0.2682 -0.6974
  122SOPE   O2212938   5.497   3.360   5.814  0.7596  0.5060 -0.3799
  122SOPE   C2212939   5.736   3.414   5.811 -0.3579  0.7617 -0.4790
  122SOPE   H2R12940   5.767   3.402   5.917 -0.1601 -0.1667 -0.6298
  122SOPE   H2S12941   5.797   3.503   5.784 -0.8023  1.0383 -0.5771
  122SOPE    C312942   5.478   3.761   5.672  0.2416  0.5236 -0.4627
  122SOPE    HX12943   5.556   3.821   5.724 -0.9916  2.3654 -0.6192
  122SOPE    HY12944   5.378   3.809   5.672 -1.2112 -2.3103 -1.2270
  122SOPE   O3112945   5.497   3.735   5.531  0.0721 -0.7622 -0.0703
  122SOPE   C3112946   5.616   3.690   5.497  0.4276 -0.1211  0.4089
  122SOPE   O3212947   5.710   3.656   5.564  0.2183  0.0587  0.0895
  122SOPE   C3212948   5.623   3.688   5.349 -0.5800 -0.3242  0.5822
  122SOPE   H2X12949   5.537   3.734   5.296 -0.2496 -2.6880 -2.2438
  122SOPE   H2Y12950   5.643   3.581   5.329 -0.1268 -0.3346  1.0464
  122SOPE   C2312951   5.789   3.279   5.757 -0.2226  0.0560 -0.5833
  122SOPE   H3R12952   5.710   3.205   5.783 -0.0528 -0.0502 -0.3615
  122SOPE   H3S12953   5.870   3.246   5.826 -0.6573  1.8748  0.9019
  122SOPE   C2412954   5.824   3.285   5.610 -0.1916 -0.2092 -0.1039
  122SOPE   H4R12955   5.890   3.372   5.592  0.1130 -0.5177 -0.4665
  122SOPE   H4S12956   5.895   3.203   5.588  0.0880  0.8025 -3.3728
  122SOPE   C2512957   5.707   3.290   5.510 -0.3238 -0.1174 -0.3957
  122SOPE   H5R12958   5.638   3.208   5.540 -1.3103  0.8391  0.0190
  122SOPE   H5S12959   5.656   3.387   5.524  0.1644  0.4383 -2.1876
  122SOPE   C2612960   5.750   3.293   5.366 -0.0085  0.2981 -0.1541
  122SOPE   H6R12961   5.797   3.393   5.354 -0.7355  0.5101 -1.5811
  122SOPE   H6S12962   5.833   3.221   5.357  0.8892  1.2396  0.3712
  122SOPE   C2712963   5.642   3.260   5.266  0.0777  0.0263  0.2359
  122SOPE   H7R12964   5.586   3.169   5.293  0.1786  0.2198  1.1075
  122SOPE   H7S12965   5.563   3.337   5.274 -0.4465 -0.4087 -0.6208
  122SOPE   C2812966   5.686   3.259   5.118 -0.5296  0.0076  0.2181
  122SOPE   H8R12967   5.596   3.272   5.054 -1.5988 -0.8995  1.4889
  122SOPE   H8S12968   5.757   3.344   5.110  1.6733 -1.7974 -0.7652
  122SOPE   C2912969   5.763   3.126   5.091  0.4483  0.0362 -0.1519
  122SOPE   H9112970   5.817   3.089   5.179  2.0942 -0.7702 -1.4504
  122SOPE  C21012971   5.761   3.059   4.975 -0.4524  0.4138  0.1767
  122SOPE  H10112972   5.826   2.971   4.965 -0.5902  0.2843  0.4461
  122SOPE  C21112973   5.706   3.109   4.840  0.6035  0.4751 -0.1075
  122SOPE  H11R12974   5.604   3.151   4.855  0.9624  0.6085  2.4121
  122SOPE  H11S12975   5.694   3.029   4.764 -2.1452  0.2825  0.4029
  122SOPE  C21212976   5.796   3.219   4.785  0.2519 -0.3812  0.6010
  122SOPE  H12R12977   5.813   3.292   4.867  0.0189 -0.4069  0.6750
  122SOPE  H12S12978   5.739   3.269   4.704  2.0245 -2.7596 -2.3196
  122SOPE  C21312979   5.931   3.173   4.722  0.1798 -0.0640 -0.2679
  122SOPE  H13R12980   5.973   3.094   4.789 -0.2181  1.1518  1.4866
  122SOPE  H13S12981   5.996   3.262   4.734  0.7099 -0.7107  2.4046
  122SOPE  C21412982   5.921   3.128   4.580 -0.4958  0.7421 -0.2366
  122SOPE  H14R12983   5.932   3.224   4.525  2.5083  0.2509 -0.6304
  122SOPE  H14S12984   5.818   3.096   4.553 -0.4278  0.5353 -0.2518
  122SOPE  C21512985   6.032   3.034   4.540  0.1129  0.1219  0.7422
  122SOPE  H15R12986   6.032   2.946   4.607 -0.1423 -0.9376 -0.6171
  122SOPE  H15S12987   6.131   3.084   4.543 -1.1298  2.7485  0.6841
  122SOPE  C21612988   6.012   2.979   4.396  0.2443 -0.3989  0.0926
  122SOPE  H16R12989   6.054   3.050   4.322  0.7152 -0.1923  0.5551
  122SOPE  H16S12990   5.910   2.972   4.351  1.5386  1.8531 -3.6532
  122SOPE  C21712991   6.092   2.850   4.385  0.5279 -0.7680 -0.3541
  122SOPE  H17R12992   6.058   2.776   4.460 -1.0134  2.1982  2.1446
  122SOPE  H17S12993   6.199   2.874   4.405  0.3108  1.1748 -1.1873
  122SOPE  C21812994   6.115   2.788   4.247  0.4973  0.1161  0.0840
  122SOPE  H18R12995   6.042   2.708   4.222  1.7507 -0.7017 -1.1398
  122SOPE  H18S12996   6.212   2.734   4.247  0.2230 -0.3988  1.2196
  122SOPE  H18T12997   6.111   2.869   4.171 -1.6020 -0.3314 -0.3373
  122SOPE   C3312998   5.750   3.769   5.290  0.3847  0.4482 -0.4905
  122SOPE   H3X12999   5.840   3.715   5.326  1.5222  3.2452  1.1297
  122SOPE   H3Y13000   5.746   3.861   5.352 -3.2974 -0.0463  0.2202
  122SOPE   C3413001   5.762   3.796   5.134  0.4046  0.0034  0.5271
  122SOPE   H4X13002   5.840   3.874   5.118 -2.6039  2.7310 -2.5520
  122SOPE   H4Y13003   5.666   3.842   5.100  0.9889 -0.9385 -2.7695
  122SOPE   C3513004   5.806   3.676   5.043 -0.2160  0.3969  0.0231
  122SOPE   H5X13005   5.727   3.600   5.063 -1.1075  0.6122 -2.3095
  122SOPE   H5Y13006   5.903   3.644   5.086 -0.9012 -0.0296  1.3135
  122SOPE   C3613007   5.802   3.714   4.896  0.4621  0.4159 -0.7185
  122SOPE   H6X13008   5.900   3.761   4.874  0.7366  1.3925  2.1208
  122SOPE   H6Y13009   5.724   3.791   4.879 -0.1095 -0.1355 -0.6371
  122SOPE   C3713010   5.781   3.591   4.808  0.0889 -0.3749  0.0800
  122SOPE   H7X13011   5.681   3.556   4.839  0.4026  0.6355  2.3946
  122SOPE   H7Y13012   5.859   3.513   4.825 -0.2700 -0.9761 -0.9396
  122SOPE   C3813013   5.781   3.629   4.660 -0.0336 -0.2591 -0.0075
  122SOPE   H8X13014   5.864   3.586   4.600  0.1271  3.2644 -2.6229
  122SOPE   H8Y13015   5.826   3.731   4.657  0.4776 -0.5029 -0.9524
  122SOPE   C3913016   5.639   3.638   4.592  0.2371 -0.1241  0.2143
  122SOPE   H9X13017   5.568   3.691   4.659 -0.7771 -1.0105 -0.1242
  122SOPE   H9Y13018   5.596   3.537   4.573  2.9131 -1.2096 -0.4617
  122SOPE  C31013019   5.630   3.714   4.460 -0.0716  0.7906 -0.3786
  122SOPE  H10X13020   5.676   3.812   4.484  2.2702 -0.3727  0.2017
  122SOPE  H10Y13021   5.525   3.737   4.431 -0.0839  1.2175 -0.0223
  122SOPE  C31113022   5.713   3.660   4.347  0.1129 -0.0528  0.6183
  122SOPE  H11X13023   5.656   3.575   4.305  1.4051 -0.4871 -0.3055
  122SOPE  H11Y13024   5.811   3.629   4.389  1.1129  1.1902 -0.6919
  122SOPE  C31213025   5.728   3.770   4.239 -0.1222  0.2581  0.1527
  122SOPE  H12X13026   5.778   3.856   4.287  0.9624  0.6469 -1.5941
  122SOPE  H12Y13027   5.626   3.805   4.211 -0.2954 -0.0154  0.4476
  122SOPE  C31313028   5.817   3.736   4.108 -0.2022 -0.3817  0.3636
  122SOPE  H13X13029   5.758   3.672   4.039  1.8012 -1.4369 -0.4450
  122SOPE  H13Y13030   5.901   3.678   4.152  1.0268  2.1107  1.5344
  122SOPE  C31413031   5.870   3.861   4.028  1.0348  0.0741 -0.8160
  122SOPE  H14X13032   5.922   3.934   4.094 -0.5550  0.7948 -0.3137
  122SOPE  H14Y13033   5.780   3.909   3.984  0.6360 -0.6873 -0.8387
  122SOPE  C31513034   5.962   3.828   3.915  0.0642 -0.5588 -0.7010
  122SOPE  H15X13035   5.984   3.924   3.863 -1.5766  0.4503  0.3697
  122SOPE  H15Y13036   5.911   3.769   3.836 -0.4853 -0.8992 -0.0953
  122SOPE  C31613037   6.093   3.771   3.968  0.0713  0.4488  0.4510
  122SOPE  H16X13038   6.074   3.662   3.980 -1.7007  0.7495  0.6620
  122SOPE  H16Y13039   6.121   3.808   4.069 -0.5925 -0.3496  0.9456
  122SOPE  C31713040   6.206   3.800   3.882 -0.1697  0.0539 -0.3501
  122SOPE  H17X13041   6.236   3.907   3.880  0.5637 -0.1497 -0.6436
  122SOPE  H17Y13042   6.191   3.761   3.779  1.0992 -0.0144 -0.5369
  122SOPE  C31813043   6.336   3.731   3.933  0.1921  0.5759  0.8140
  122SOPE  H18X13044   6.311   3.624   3.949 -0.1997  0.8280  1.9576
  122SOPE  H18Y13045   6.356   3.769   4.036  0.2814  1.7148  0.3877
  122SOPE  H18Z13046   6.427   3.745   3.871 -1.6069  3.0262 -1.4914
  123SOPE     N13047   1.126   3.735   1.613  0.6131 -0.5361 -0.6854
  123SOPE   HN113048   1.165   3.653   1.562  0.4360 -2.0015  1.3895
  123SOPE   HN213049   1.026   3.753   1.588  0.0807 -0.9229  0.9886
  123SOPE   HN313050   1.193   3.814   1.617 -1.7383  1.5835 -0.1962
  123SOPE   C1213051   1.119   3.697   1.760  0.6858 -0.2992 -0.3870
  123SOPE  H12A13052   1.219   3.649   1.769 -0.1181 -2.3895 -1.8075
  123SOPE  H12B13053   1.031   3.635   1.786  0.4152 -0.3907 -1.4652
  123SOPE   C1113054   1.124   3.831   1.839  0.3081  0.3238 -0.0120
  123SOPE  H11A13055   1.031   3.886   1.813 -0.2698 -0.6381 -0.0270
  123SOPE  H11B13056   1.204   3.902   1.807 -2.3400  4.2768  1.2999
  123SOPE     P13057   1.014   3.749   2.065 -0.3839  0.2529  0.0298
  123SOPE   O1313058   1.080   3.679   2.175  0.0333 -0.4629 -0.4582
  123SOPE   O1413059   0.923   3.670   1.973  0.2276 -0.4960  0.1612
  123SOPE   O1213060   1.130   3.802   1.976  0.0880  0.2579  0.0811
  123SOPE   O1113061   0.921   3.864   2.118 -0.2939 -0.9563 -0.4666
  123SOPE    C113062   0.979   3.989   2.170  0.5463 -0.6156  0.3649
  123SOPE    HA13063   0.962   4.070   2.095  0.7389 -0.8201  0.1003
  123SOPE    HB13064   1.090   3.993   2.175  0.7700  1.1867 -3.0098
  123SOPE    C213065   0.914   4.046   2.295  0.4500 -0.0645 -0.6773
  123SOPE    HS13066   0.965   4.140   2.324  1.1759 -0.3323 -1.0546
  123SOPE   O2113067   0.930   3.956   2.405 -0.3252 -0.4274  0.2532
  123SOPE   C2113068   1.045   3.953   2.462  0.0806 -0.5379 -0.1430
  123SOPE   O2213069   1.137   4.030   2.447  0.1067 -0.0616  0.3413
  123SOPE   C2213070   1.057   3.833   2.560 -0.2824 -0.3609 -0.3041
  123SOPE   H2R13071   1.157   3.830   2.608  0.1213  0.0066 -1.1057
  123SOPE   H2S13072   1.036   3.741   2.500  0.8523  0.1750 -1.5826
  123SOPE    C313073   0.766   4.083   2.270  0.5834  0.7385  0.3454
  123SOPE    HX13074   0.719   3.998   2.217  1.8959 -0.5307  1.1369
  123SOPE    HY13075   0.747   4.170   2.205 -1.0696 -0.3291 -0.6721
  123SOPE   O3113076   0.706   4.123   2.394  0.2357  0.0631  0.1741
  123SOPE   C3113077   0.619   4.046   2.459 -0.0269 -0.1444  0.1096
  123SOPE   O3213078   0.586   3.934   2.429 -0.0882  0.0455 -0.3773
  123SOPE   C3213079   0.569   4.114   2.584  0.2249  0.0626  0.3330
  123SOPE   H2X13080   0.551   4.041   2.666 -1.0988  0.6487  0.5884
  123SOPE   H2Y13081   0.481   4.174   2.554  0.3022 -0.9718 -2.2133
  123SOPE   C2313082   0.944   3.835   2.672  0.7636  0.5223 -0.4848
  123SOPE   H3R13083   0.850   3.815   2.618 -0.0556 -1.8679  1.6418
  123SOPE   H3S13084   0.941   3.934   2.723 -1.1979 -0.2246  0.9583
  123SOPE   C2413085   0.965   3.729   2.779 -0.7260 -0.0959 -0.4909
  123SOPE   H4R13086   0.983   3.635   2.724  1.4776  1.2689 -2.3053
  123SOPE   H4S13087   1.060   3.758   2.830  0.2530  0.0411 -2.3409
  123SOPE   C2513088   0.862   3.731   2.883  0.7995 -0.0843 -0.6699
  123SOPE   H5R13089   0.861   3.822   2.947  1.4492 -0.4153 -0.1792
  123SOPE   H5S13090   0.759   3.738   2.842  0.0710  0.1024  1.1419
  123SOPE   C2613091   0.857   3.605   2.975  0.1266 -1.4183  0.0892
  123SOPE   H6R13092   0.872   3.527   2.898 -1.2362 -0.2927 -1.3897
  123SOPE   H6S13093   0.945   3.617   3.042  0.3832  1.0404 -0.5938
  123SOPE   C2713094   0.721   3.589   3.045  0.2630  0.2696 -0.1476
  123SOPE   H7R13095   0.708   3.665   3.125  2.5265 -0.5996  1.1451
  123SOPE   H7S13096   0.634   3.595   2.976 -0.8555 -1.5396  1.0254
  123SOPE   C2813097   0.729   3.452   3.109  0.0612 -0.0120 -0.0401
  123SOPE   H8R13098   0.752   3.383   3.025  0.9010  0.8973 -0.5627
  123SOPE   H8S13099   0.807   3.435   3.187 -1.1401 -0.7116  1.0514
  123SOPE   C2913100   0.592   3.411   3.159  0.5049  0.8817 -0.1531
  123SOPE   H9113101   0.510   3.479   3.131  0.1657  1.6225  2.4177
  123SOPE  C21013102   0.553   3.306   3.237 -0.3414  0.8612 -0.2125
  123SOPE  H10113103   0.445   3.287   3.242 -0.3961  1.0456 -0.6022
  123SOPE  C21113104   0.647   3.200   3.291 -0.3257  0.3373  0.2761
  123SOPE  H11R13105   0.750   3.241   3.294 -0.3664  0.4772 -0.1202
  123SOPE  H11S13106   0.653   3.108   3.230 -0.2339 -1.3785  2.7474
  123SOPE  C21213107   0.606   3.160   3.431  0.5224  0.4209  0.6398
  123SOPE  H12R13108   0.668   3.069   3.448 -0.1738 -0.7370 -2.3669
  123SOPE  H12S13109   0.502   3.123   3.429  0.4875  0.5210 -1.8916
  123SOPE  C21313110   0.637   3.251   3.542  0.0910  0.0278 -0.7782
  123SOPE  H13R13111   0.606   3.356   3.524 -1.5180 -0.2534  0.1366
  123SOPE  H13S13112   0.748   3.246   3.547  0.0885  0.8212  3.1007
  123SOPE  C21413113   0.579   3.207   3.682 -0.1324 -0.0354  0.8141
  123SOPE  H14R13114   0.473   3.239   3.685 -0.0470  0.2758  0.5478
  123SOPE  H14S13115   0.638   3.255   3.763  0.9742 -2.2777  1.4222
  123SOPE  C21513116   0.596   3.051   3.704 -0.1637  0.5237  0.2989
  123SOPE  H15R13117   0.703   3.021   3.706 -0.7970 -2.1235 -0.8663
  123SOPE  H15S13118   0.542   3.009   3.617 -0.2642  2.4547 -0.6044
  123SOPE  C21613119   0.523   3.010   3.834 -0.0758  0.6077 -0.3318
  123SOPE  H16R13120   0.416   3.030   3.809 -0.6137 -0.7668  0.6982
  123SOPE  H16S13121   0.538   3.072   3.925 -0.8852  0.2740  0.0426
  123SOPE  C21713122   0.550   2.858   3.858 -0.1437 -0.3563  0.1777
  123SOPE  H17R13123   0.502   2.801   3.775 -1.6061  0.6331  0.2999
  123SOPE  H17S13124   0.491   2.844   3.951 -0.5135  0.2031  0.0369
  123SOPE  C21813125   0.695   2.815   3.884 -0.9194 -0.4200 -0.3941
  123SOPE  H18R13126   0.756   2.837   3.794  0.6365 -0.7851  0.5409
  123SOPE  H18S13127   0.699   2.704   3.884  2.5987 -0.4193 -1.6833
  123SOPE  H18T13128   0.731   2.862   3.978 -2.1342  0.4990 -0.3645
  123SOPE   C3313129   0.681   4.193   2.647 -0.1373  1.3484 -0.1616
  123SOPE   H3X13130   0.706   4.291   2.600  2.2323  0.1014 -1.6850
  123SOPE   H3Y13131   0.770   4.127   2.636 -0.7494  0.2802  1.0824
  123SOPE   C3413132   0.662   4.214   2.801  0.6226 -0.3132  0.5191
  123SOPE   H4X13133   0.565   4.268   2.809 -0.4958 -1.7520 -1.9036
  123SOPE   H4Y13134   0.750   4.272   2.835 -0.1932  0.6022  1.0949
  123SOPE   C3513135   0.653   4.092   2.898  0.0964  0.3783  0.6506
  123SOPE   H5X13136   0.733   4.019   2.871 -0.7652 -0.0329 -0.9376
  123SOPE   H5Y13137   0.556   4.040   2.883  0.5528 -0.3115 -0.0383
  123SOPE   C3613138   0.655   4.146   3.045  0.3722 -0.0250 -0.0537
  123SOPE   H6X13139   0.588   4.233   3.061  0.1801 -0.4027  1.2987
  123SOPE   H6Y13140   0.760   4.172   3.069  0.0520  1.2227  0.0487
  123SOPE   C3713141   0.615   4.036   3.145  0.2296 -0.7708 -0.0584
  123SOPE   H7X13142   0.678   3.950   3.115  2.1408  0.5471 -0.0016
  123SOPE   H7Y13143   0.509   4.022   3.114  0.8517 -0.9068 -2.2687
  123SOPE   C3813144   0.630   4.078   3.294 -0.8253 -0.6371  0.6379
  123SOPE   H8X13145   0.550   4.030   3.355 -1.8720 -1.0675 -1.0166
  123SOPE   H8Y13146   0.606   4.186   3.302 -2.6646 -0.9835  0.2703
  123SOPE   C3913147   0.773   4.048   3.354  0.2500 -0.0899 -0.0416
  123SOPE   H9X13148   0.837   4.131   3.318  2.2993 -2.5021 -2.4302
  123SOPE   H9Y13149   0.822   3.955   3.316  2.0817  0.7852  0.0664
  123SOPE  C31013150   0.776   4.036   3.509  0.0369  0.7327  0.6442
  123SOPE  H10X13151   0.690   3.969   3.530 -0.3371  1.4195  1.3814
  123SOPE  H10Y13152   0.753   4.134   3.556 -4.5246 -0.1935  0.8170
  123SOPE  C31113153   0.910   3.986   3.562  0.5802  0.9468 -0.1414
  123SOPE  H11X13154   0.985   4.051   3.513 -0.7431  2.4372 -0.2905
  123SOPE  H11Y13155   0.913   3.882   3.521 -0.4581  0.5581  0.7081
  123SOPE  C31213156   0.927   3.979   3.719 -0.3840 -0.1030 -0.2801
  123SOPE  H12X13157   0.918   4.082   3.760 -2.1462 -0.7380  1.0217
  123SOPE  H12Y13158   1.025   3.929   3.736 -0.0005 -0.6716 -3.4695
  123SOPE  C31313159   0.810   3.896   3.778  0.3331 -0.3219 -0.3454
  123SOPE  H13X13160   0.813   3.795   3.731  0.7158 -1.5754  2.1894
  123SOPE  H13Y13161   0.711   3.942   3.759  0.5925 -0.5116 -2.2751
  123SOPE  C31413162   0.826   3.862   3.926  0.5149  0.3675 -0.3711
  123SOPE  H14X13163   0.858   3.952   3.984 -1.2467  2.5903 -2.5828
  123SOPE  H14Y13164   0.903   3.783   3.938 -1.0883 -1.4234 -1.5048
  123SOPE  C31513165   0.700   3.807   3.994 -0.5090 -0.1279  0.6743
  123SOPE  H15X13166   0.622   3.886   3.994  1.2552  1.7270  2.8673
  123SOPE  H15Y13167   0.726   3.790   4.100  1.0668 -1.6494  0.1058
  123SOPE  C31613168   0.646   3.668   3.947 -0.0937  0.1379  0.2520
  123SOPE  H16X13169   0.726   3.593   3.965 -0.6938 -0.0884  2.2328
  123SOPE  H16Y13170   0.618   3.659   3.840 -0.6634 -1.0512  0.4809
  123SOPE  C31713171   0.525   3.639   4.025  0.5552  0.5517 -0.8356
  123SOPE  H17X13172   0.463   3.725   3.993 -0.1620  0.3084 -0.1508
  123SOPE  H17Y13173   0.540   3.640   4.135  1.3067 -0.2940 -0.9204
  123SOPE  C31813174   0.458   3.511   3.979 -0.0086  0.5034  0.3382
  123SOPE  H18X13175   0.350   3.500   4.003  0.3072 -0.0375  1.5605
  123SOPE  H18Y13176   0.505   3.417   4.017 -0.9567 -0.3715 -0.5782
  123SOPE  H18Z13177   0.480   3.512   3.870 -0.3877  0.8641  0.2635
  124SOPE     N13178   3.263   2.528   2.155  0.3148 -0.1416  0.4651
  124SOPE   HN113179   3.329   2.582   2.096  0.9381 -0.6731  0.6651
  124SOPE   HN213180   3.276   2.565   2.251 -0.9097  1.0438  0.2048
  124SOPE   HN313181   3.274   2.424   2.159 -0.4051 -0.2607 -0.2156
  124SOPE   C1213182   3.115   2.569   2.144  0.1597 -0.2298 -0.0290
  124SOPE  H12A13183   3.040   2.490   2.166 -1.1643 -0.2377 -3.7177
  124SOPE  H12B13184   3.092   2.605   2.041 -0.4482  0.7032  0.4263
  124SOPE   C1113185   3.093   2.693   2.231 -0.1482  0.0589  0.0050
  124SOPE  H11A13186   3.103   2.650   2.333  0.2447 -1.0607 -0.4934
  124SOPE  H11B13187   2.986   2.721   2.228 -0.3793 -0.6947  0.7384
  124SOPE     P13188   3.119   2.950   2.217  0.1387 -0.3288  0.0377
  124SOPE   O1313189   3.035   2.969   2.098 -0.1005  0.5157 -0.8107
  124SOPE   O1413190   3.228   3.045   2.237  0.0116  0.0859 -0.3140
  124SOPE   O1213191   3.182   2.806   2.212  0.5679 -0.0465 -0.1455
  124SOPE   O1113192   3.027   2.945   2.344 -0.2340 -0.3536 -0.6024
  124SOPE    C113193   3.069   2.892   2.469 -0.0941  0.0307 -0.0699
  124SOPE    HA13194   3.179   2.877   2.475 -0.0010  1.1324  2.6530
  124SOPE    HB13195   3.013   2.800   2.496  0.9252 -0.6513 -0.2382
  124SOPE    C213196   3.037   2.991   2.583 -0.3140  0.3673 -0.0757
  124SOPE    HS13197   3.090   2.949   2.671 -0.0145 -4.0487 -2.1019
  124SOPE   O2113198   2.896   2.989   2.598  0.3467  0.1399  0.2907
  124SOPE   C2113199   2.846   3.013   2.719 -0.3150  0.1714  0.3062
  124SOPE   O2213200   2.916   3.031   2.814 -0.2114 -0.9179 -0.0389
  124SOPE   C2213201   2.697   3.000   2.731  0.1349 -0.4855  0.2402
  124SOPE   H2R13202   2.680   2.895   2.701 -0.1767 -0.6719  1.0497
  124SOPE   H2S13203   2.647   3.058   2.651  0.5679 -2.3162 -1.4224
  124SOPE    C313204   3.093   3.135   2.543 -0.6153 -0.2352 -0.1032
  124SOPE    HX13205   3.041   3.180   2.456 -1.6022 -2.9299 -1.0320
  124SOPE    HY13206   3.197   3.115   2.509 -0.4403  0.1180  0.2225
  124SOPE   O3113207   3.097   3.220   2.662 -0.0347 -0.4603 -0.5844
  124SOPE   C3113208   3.196   3.209   2.742  0.6518  0.4298  1.0414
  124SOPE   O3213209   3.281   3.123   2.738 -0.1760 -0.0713  0.7014
  124SOPE   C3213210   3.195   3.325   2.838  1.1672 -0.4093 -0.4637
  124SOPE   H2X13211   3.099   3.322   2.895  2.5586  2.3580  2.3448
  124SOPE   H2Y13212   3.200   3.422   2.784  0.9761  0.8359  1.6408
  124SOPE   C2313213   2.634   3.029   2.864  0.4180  0.5272 -0.0982
  124SOPE   H3R13214   2.664   3.130   2.898  0.1856  0.1253  1.3720
  124SOPE   H3S13215   2.680   2.950   2.927  2.3147  1.9554  0.3912
  124SOPE   C2413216   2.481   3.028   2.854 -0.2301 -0.9887  0.8908
  124SOPE   H4R13217   2.456   3.064   2.752  0.7536  2.0047  1.5932
  124SOPE   H4S13218   2.434   2.928   2.862  0.2998 -1.2702  0.5265
  124SOPE   C2513219   2.404   3.127   2.952  0.0675  0.4278  0.1898
  124SOPE   H5R13220   2.444   3.224   2.917  0.8676 -0.4135 -1.3528
  124SOPE   H5S13221   2.295   3.130   2.934  0.7059  0.2693 -5.3454
  124SOPE   C2613222   2.412   3.099   3.104  0.1934 -0.5051 -0.0548
  124SOPE   H6R13223   2.370   3.000   3.132 -0.1846 -0.0807  0.9490
  124SOPE   H6S13224   2.514   3.113   3.146 -0.0008  0.9099  0.0168
  124SOPE   C2713225   2.323   3.191   3.183  0.7970 -0.2675 -0.0953
  124SOPE   H7R13226   2.360   3.295   3.170 -1.8464  0.7094 -0.2935
  124SOPE   H7S13227   2.220   3.206   3.146  1.1505  2.2579 -0.2048
  124SOPE   C2813228   2.322   3.138   3.332 -0.1236  0.4329  0.4298
  124SOPE   H8R13229   2.253   3.051   3.332 -0.1709  0.4520 -0.5709
  124SOPE   H8S13230   2.427   3.104   3.346 -0.0661 -0.8280 -2.3673
  124SOPE   C2913231   2.276   3.241   3.436  0.0360 -0.5957  0.1452
  124SOPE   H9113232   2.324   3.338   3.418  0.5481 -0.8564  0.0785
  124SOPE  C21013233   2.166   3.224   3.507  0.6168  0.8771  0.0369
  124SOPE  H10113234   2.143   3.315   3.565  0.5291  1.5497 -1.0255
  124SOPE  C21113235   2.062   3.104   3.517 -0.1201 -0.1711  0.6329
  124SOPE  H11R13236   2.116   3.008   3.502  2.1631  1.0527  0.5125
  124SOPE  H11S13237   1.983   3.116   3.441 -0.6924 -0.0516  1.2386
  124SOPE  C21213238   2.011   3.098   3.656 -0.1612  0.8882 -1.3032
  124SOPE  H12R13239   1.964   3.193   3.687  1.3666  0.9689  1.0312
  124SOPE  H12S13240   2.096   3.094   3.727 -0.8389  1.7555 -0.4234
  124SOPE  C21313241   1.913   2.986   3.676  0.2168 -0.7786  0.3198
  124SOPE  H13R13242   1.965   2.889   3.660 -0.7580 -0.9008 -2.6111
  124SOPE  H13S13243   1.839   2.987   3.594 -2.1962 -2.7324  2.2995
  124SOPE  C21413244   1.848   2.986   3.817 -0.5538 -0.4115 -0.1161
  124SOPE  H14R13245   1.806   2.883   3.828  0.3809 -0.8285 -0.2832
  124SOPE  H14S13246   1.769   3.063   3.824 -0.1194 -0.0867  2.1211
  124SOPE  C21513247   1.951   3.017   3.924  0.5167 -0.6403  0.3117
  124SOPE  H15R13248   1.993   3.119   3.913 -0.6010 -0.3180 -1.4883
  124SOPE  H15S13249   2.027   2.937   3.919  0.1440 -0.9629 -0.2454
  124SOPE  C21613250   1.888   3.015   4.058 -0.1378 -0.4277  0.2319
  124SOPE  H16R13251   1.950   2.969   4.138  0.5988  0.0316 -0.0608
  124SOPE  H16S13252   1.794   2.957   4.063 -1.0608  0.9395 -0.6928
  124SOPE  C21713253   1.858   3.162   4.101  0.3937  0.1252 -0.2868
  124SOPE  H17R13254   1.804   3.200   4.012 -2.2379 -0.7825  0.8193
  124SOPE  H17S13255   1.952   3.219   4.115 -1.0731  3.1488 -1.7622
  124SOPE  C21813256   1.761   3.173   4.223  0.4696 -0.8044  0.8877
  124SOPE  H18R13257   1.740   3.280   4.242 -0.3934 -0.6631 -0.6907
  124SOPE  H18S13258   1.814   3.128   4.309 -0.0302 -1.9262  0.6260
  124SOPE  H18T13259   1.663   3.123   4.208  0.2166  0.3781 -2.1537
  124SOPE   C3313260   3.317   3.334   2.938 -0.2488 -0.7132  0.2594
  124SOPE   H3X13261   3.303   3.427   2.997 -0.3069  0.9265 -2.2095
  124SOPE   H3Y13262   3.408   3.336   2.876 -0.6170 -2.1081 -0.3602
  124SOPE   C3413263   3.338   3.217   3.041  0.0854 -0.5327 -0.1508
  124SOPE   H4X13264   3.369   3.131   2.977  0.1319  0.4379 -1.4691
  124SOPE   H4Y13265   3.239   3.207   3.090  0.7143  0.9830  1.5295
  124SOPE   C3513266   3.452   3.241   3.143 -0.2254 -0.0487  0.0138
  124SOPE   H5X13267   3.544   3.274   3.089 -0.3171 -3.5904 -2.7173
  124SOPE   H5Y13268   3.468   3.141   3.189  0.5576  1.0658  2.2679
  124SOPE   C3613269   3.429   3.339   3.256 -0.2670 -0.2187 -0.8362
  124SOPE   H6X13270   3.319   3.343   3.274 -0.4134 -2.6183 -0.9355
  124SOPE   H6Y13271   3.457   3.438   3.214  0.6569 -0.3403 -0.5128
  124SOPE   C3713272   3.519   3.315   3.382  0.0945  0.0711 -0.2944
  124SOPE   H7X13273   3.621   3.320   3.340  0.6482  2.0340  1.1303
  124SOPE   H7Y13274   3.510   3.212   3.423 -1.7762  1.0993  2.1672
  124SOPE   C3813275   3.504   3.428   3.492 -0.8386 -0.2073  0.4469
  124SOPE   H8X13276   3.393   3.433   3.499 -1.0084 -1.0537 -1.0441
  124SOPE   H8Y13277   3.539   3.524   3.450  0.9575 -1.3733 -0.8611
  124SOPE   C3913278   3.576   3.399   3.624 -0.2961  0.5950  0.0232
  124SOPE   H9X13279   3.683   3.426   3.609 -0.3159  1.4196  1.2605
  124SOPE   H9Y13280   3.582   3.290   3.645  1.6526  1.0407  2.1318
  124SOPE  C31013281   3.524   3.462   3.748 -0.1575 -0.1379  0.7283
  124SOPE  H10X13282   3.520   3.573   3.747  2.5722  0.0595 -1.8146
  124SOPE  H10Y13283   3.593   3.433   3.830  0.0963 -0.7643  0.3025
  124SOPE  C31113284   3.383   3.417   3.789 -0.3780 -0.0731 -0.2549
  124SOPE  H11X13285   3.383   3.307   3.803  1.2647 -0.1797 -0.8890
  124SOPE  H11Y13286   3.315   3.452   3.708 -0.5023 -0.7864 -0.4672
  124SOPE  C31213287   3.340   3.496   3.914 -0.5084  0.3274 -0.3998
  124SOPE  H12X13288   3.311   3.598   3.880 -0.6912  0.4826  0.2043
  124SOPE  H12Y13289   3.414   3.506   3.996 -3.0770  0.7394  1.9964
  124SOPE  C31313290   3.209   3.444   3.972 -0.0073 -0.2240 -0.6671
  124SOPE  H13X13291   3.229   3.342   4.010 -1.0358 -0.7847 -1.5578
  124SOPE  H13Y13292   3.140   3.438   3.884  0.3208 -1.4318 -0.8603
  124SOPE  C31413293   3.155   3.542   4.077 -0.1510 -1.2123  0.6165
  124SOPE  H14X13294   3.160   3.646   4.037  0.6492 -0.9123  1.4478
  124SOPE  H14Y13295   3.220   3.537   4.167  1.4735  0.4118 -0.3881
  124SOPE  C31513296   3.004   3.519   4.113 -0.1001  0.1289 -0.2041
  124SOPE  H15X13297   2.999   3.413   4.145 -1.9648  0.3192  0.2051
  124SOPE  H15Y13298   2.938   3.522   4.024 -1.1623 -0.6527  0.5417
  124SOPE  C31613299   2.970   3.620   4.224  0.8879  0.6653 -0.2739
  124SOPE  H16X13300   3.024   3.715   4.206 -0.6477  1.6416  0.0796
  124SOPE  H16Y13301   3.013   3.572   4.315  1.0974  0.9262 -0.2369
  124SOPE  C31713302   2.817   3.640   4.227  0.4193  0.6199  0.2218
  124SOPE  H17X13303   2.769   3.541   4.245 -1.7026  1.4265 -0.6430
  124SOPE  H17Y13304   2.792   3.667   4.122  0.7545  1.1249  0.2700
  124SOPE  C31813305   2.770   3.751   4.320  0.0520 -0.2371 -0.4818
  124SOPE  H18X13306   2.665   3.774   4.291  0.0510  0.0187 -0.2830
  124SOPE  H18Y13307   2.834   3.842   4.309  1.6824 -1.1637  0.8059
  124SOPE  H18Z13308   2.769   3.716   4.426  0.8226  1.1444  0.0127
  125SOPE     N13309   4.478   0.480   1.639  0.2161 -0.5689  0.3132
  125SOPE   HN113310   4.527   0.455   1.551 -0.7045 -1.3374  0.0092
  125SOPE   HN213311   4.546   0.474   1.718  1.1634  3.2913  0.0274
  125SOPE   HN313312   4.397   0.417   1.654 -0.4200 -0.1416 -1.1603
  125SOPE   C1213313   4.436   0.624   1.621  0.1745 -0.0843 -0.4387
  125SOPE  H12A13314   4.349   0.629   1.552 -1.0573 -2.0222  0.8895
  125SOPE  H12B13315   4.518   0.690   1.585  0.4686  1.3732  2.5818
  125SOPE   C1113316   4.402   0.678   1.761 -0.0557  0.4917  0.2335
  125SOPE  H11A13317   4.368   0.779   1.728 -0.0226 -0.2788 -2.4079
  125SOPE  H11B13318   4.500   0.693   1.812  0.9189  0.1055 -1.4190
  125SOPE     P13319   4.231   0.666   1.946 -0.3080 -0.0115 -0.3970
  125SOPE   O1313320   4.141   0.561   1.999  0.3558 -0.0444  0.0964
  125SOPE   O1413321   4.167   0.792   1.904  0.2364 -0.4390 -0.4913
  125SOPE   O1213322   4.308   0.598   1.825 -0.0981 -0.1871 -0.1435
  125SOPE   O1113323   4.347   0.696   2.048 -0.3951  0.1980 -0.0709
  125SOPE    C113324   4.366   0.655   2.181 -0.0674 -0.3533  0.3566
  125SOPE    HA13325   4.283   0.595   2.224 -1.6364  1.6550  0.2605
  125SOPE    HB13326   4.378   0.745   2.246  0.0656  0.3092 -0.5665
  125SOPE    C213327   4.492   0.564   2.195  0.3819 -0.1189  0.0487
  125SOPE    HS13328   4.526   0.559   2.089  1.0975  2.6134  0.0720
  125SOPE   O2113329   4.450   0.436   2.247  0.6447 -0.2962 -0.0780
  125SOPE   C2113330   4.531   0.328   2.221  0.3270  0.2528 -0.2140
  125SOPE   O2213331   4.615   0.331   2.134  0.3524  0.1068  0.0351
  125SOPE   C2213332   4.523   0.216   2.321  0.1657 -0.7333 -0.1187
  125SOPE   H2R13333   4.533   0.126   2.256  1.5512 -1.1805  0.6770
  125SOPE   H2S13334   4.425   0.210   2.373  0.2844 -0.5262  0.1286
  125SOPE    C313335   4.602   0.637   2.285  0.1984 -0.5681  0.5568
  125SOPE    HX13336   4.620   0.739   2.244 -1.3972 -0.4086  0.1782
  125SOPE    HY13337   4.695   0.579   2.265  0.9486  0.9528 -0.6334
  125SOPE   O3113338   4.568   0.647   2.424  0.1377  0.1399  0.0271
  125SOPE   C3113339   4.672   0.674   2.498 -0.5306  0.3810 -0.0506
  125SOPE   O3213340   4.788   0.691   2.456  0.4141  0.4601  0.0003
  125SOPE   C3213341   4.642   0.675   2.645 -0.0596 -1.0728  0.1817
  125SOPE   H2X13342   4.533   0.657   2.660  0.1406 -2.3799  0.2317
  125SOPE   H2Y13343   4.660   0.781   2.670  2.5615 -0.9754 -1.6368
  125SOPE   C2313344   4.628   0.214   2.434 -0.1837 -0.4387 -0.4587
  125SOPE   H3R13345   4.612   0.307   2.493  3.0185 -1.0430  1.6178
  125SOPE   H3S13346   4.728   0.205   2.387  0.0784  2.3247 -0.5821
  125SOPE   C2413347   4.598   0.099   2.529  0.0826 -0.3672 -0.4403
  125SOPE   H4R13348   4.489   0.096   2.552  0.1281 -0.0920 -0.1830
  125SOPE   H4S13349   4.625   0.001   2.484  2.3566 -0.0368  0.0847
  125SOPE   C2513350   4.694   0.105   2.651 -0.2469  0.1903  0.0954
  125SOPE   H5R13351   4.798   0.120   2.617 -0.0851 -0.8963  0.0741
  125SOPE   H5S13352   4.675   0.197   2.711 -0.7715  0.2339 -0.1291
  125SOPE   C2613353   4.704  -0.017   2.741  0.4247  0.0938  0.5876
  125SOPE   H6R13354   4.606  -0.069   2.734  0.5373 -0.0447  0.0026
  125SOPE   H6S13355   4.780  -0.085   2.697  0.4128  1.3521 -1.4626
  125SOPE   C2713356   4.721   0.007   2.896  0.9359 -0.4818 -0.9103
  125SOPE   H7R13357   4.819   0.054   2.915  1.4839 -1.1126 -2.0120
  125SOPE   H7S13358   4.639   0.073   2.929  0.7843 -1.2069  0.2131
  125SOPE   C2813359   4.715  -0.131   2.964  0.1834  0.9384 -0.4257
  125SOPE   H8R13360   4.619  -0.184   2.949  0.3104  0.5041  0.2326
  125SOPE   H8S13361   4.782  -0.193   2.900 -0.3323 -0.1062  0.0237
  125SOPE   C2913362   4.757  -0.150   3.108 -0.4039 -0.0376 -0.5986
  125SOPE   H9113363   4.862  -0.130   3.135  0.2809 -3.1718 -0.4641
  125SOPE  C21013364   4.672  -0.178   3.209 -0.5537  0.1041  1.0835
  125SOPE  H10113365   4.714  -0.177   3.311  4.4049 -1.0349 -0.6984
  125SOPE  C21113366   4.520  -0.202   3.223 -0.0255 -0.3599 -0.4188
  125SOPE  H11R13367   4.470  -0.277   3.157 -1.0164 -0.8353  0.8279
  125SOPE  H11S13368   4.466  -0.107   3.204  3.4565  1.8479 -0.1365
  125SOPE  C21213369   4.474  -0.235   3.373 -0.2121  0.5531 -0.4379
  125SOPE  H12R13370   4.363  -0.234   3.367 -0.2206  0.2423 -0.3594
  125SOPE  H12S13371   4.501  -0.152   3.442 -0.9717  1.2839 -0.9939
  125SOPE  C21313372   4.518  -0.377   3.411 -0.6107  0.4126 -0.6396
  125SOPE  H13R13373   4.629  -0.373   3.407 -0.4851 -0.2789  1.1895
  125SOPE  H13S13374   4.477  -0.451   3.339  1.6876 -1.4189 -0.2231
  125SOPE  C21413375   4.484  -0.404   3.558 -0.2282 -0.2436 -0.4970
  125SOPE  H14R13376   4.385  -0.361   3.585  1.1961  2.8985  0.1461
  125SOPE  H14S13377   4.553  -0.345   3.622 -0.0792 -0.0762 -0.8111
  125SOPE  C21513378   4.486  -0.553   3.593  0.7777 -0.0645  0.3660
  125SOPE  H15R13379   4.590  -0.588   3.576  0.1030 -1.4307 -1.1546
  125SOPE  H15S13380   4.418  -0.593   3.516  1.4191  2.1100 -1.4502
  125SOPE  C21613381   4.451  -0.568   3.738  0.3391  0.1971 -0.1813
  125SOPE  H16R13382   4.348  -0.538   3.767  0.8635 -0.3013  2.4459
  125SOPE  H16S13383   4.525  -0.511   3.798  0.0368 -0.1068  0.4944
  125SOPE  C21713384   4.448  -0.718   3.789  0.5748  0.1274  0.4349
  125SOPE  H17R13385   4.553  -0.754   3.796  1.6363  2.3858 -1.9168
  125SOPE  H17S13386   4.396  -0.781   3.715 -0.8427  3.4641 -1.6472
  125SOPE  C21813387   4.389  -0.731   3.926  0.4929 -0.0864 -0.2366
  125SOPE  H18R13388   4.387  -0.837   3.957 -0.7994  0.3497  1.3526
  125SOPE  H18S13389   4.280  -0.706   3.929  0.2885 -0.9389 -0.3131
  125SOPE  H18T13390   4.449  -0.666   3.993 -0.9394  2.1879 -1.0134
  125SOPE   C3313391   4.723   0.588   2.740 -0.0480  0.2441 -0.8083
  125SOPE   H3X13392   4.813   0.638   2.779  0.6516 -2.0242  0.6667
  125SOPE   H3Y13393   4.765   0.506   2.678 -0.5255  0.7135 -1.7774
  125SOPE   C3413394   4.657   0.518   2.863 -0.4570  0.2023 -0.6376
  125SOPE   H4X13395   4.726   0.444   2.907  0.2277  2.8263  3.2583
  125SOPE   H4Y13396   4.566   0.461   2.834  0.4407 -0.7435 -1.6841
  125SOPE   C3513397   4.617   0.625   2.968 -0.1530  0.7374 -1.0990
  125SOPE   H5X13398   4.508   0.645   2.963 -0.1378  1.3168  0.4499
  125SOPE   H5Y13399   4.668   0.720   2.940  1.7936  0.2805  0.6300
  125SOPE   C3613400   4.651   0.595   3.118 -0.2210  0.0662  0.5776
  125SOPE   H6X13401   4.761   0.610   3.117 -0.3620  1.1972  1.0200
  125SOPE   H6Y13402   4.634   0.488   3.139 -1.4044  0.1568  0.1779
  125SOPE   C3713403   4.578   0.675   3.224 -0.4499  0.7900 -0.1671
  125SOPE   H7X13404   4.470   0.679   3.197 -0.7885  1.2316  1.1641
  125SOPE   H7Y13405   4.621   0.778   3.218  0.4799  0.4470  0.3665
  125SOPE   C3813406   4.593   0.627   3.364  0.7029 -0.2036 -0.0193
  125SOPE   H8X13407   4.535   0.704   3.419  0.4332  0.5505 -1.2978
  125SOPE   H8Y13408   4.695   0.635   3.405  0.8094  0.7570 -0.4467
  125SOPE   C3913409   4.530   0.495   3.399  0.1257  0.1430 -0.4936
  125SOPE   H9X13410   4.568   0.414   3.333  0.7517 -0.9659  1.1719
  125SOPE   H9Y13411   4.421   0.497   3.377 -0.2136 -1.5447  0.7770
  125SOPE  C31013412   4.534   0.458   3.550  0.6079  0.2698  0.2255
  125SOPE  H10X13413   4.636   0.429   3.581  0.7126  2.2559  1.9947
  125SOPE  H10Y13414   4.453   0.382   3.557  0.1988  0.4501 -1.9135
  125SOPE  C31113415   4.495   0.575   3.645  0.1775  0.3450  0.2731
  125SOPE  H11X13416   4.389   0.604   3.631 -0.0611 -1.0296 -0.9751
  125SOPE  H11Y13417   4.557   0.664   3.620 -0.9127  0.5974 -1.6975
  125SOPE  C31213418   4.517   0.534   3.789 -0.0254  0.1181 -0.4749
  125SOPE  H12X13419   4.619   0.494   3.807 -0.1274  1.1059  3.1232
  125SOPE  H12Y13420   4.447   0.453   3.819 -1.2729  1.1755 -0.4574
  125SOPE  C31313421   4.482   0.638   3.894  0.1672 -0.1514 -0.1869
  125SOPE  H13X13422   4.492   0.598   3.998  2.0007  0.7810  0.0211
  125SOPE  H13Y13423   4.377   0.674   3.890 -0.0674 -0.6452  1.0910
  125SOPE  C31413424   4.569   0.771   3.884 -0.4080 -0.0426  0.3508
  125SOPE  H14X13425   4.580   0.799   3.777 -3.2626  2.4461  0.5571
  125SOPE  H14Y13426   4.666   0.756   3.936 -0.2956  0.2587  0.2313
  125SOPE  C31513427   4.499   0.884   3.948 -0.0163  0.0971  0.1940
  125SOPE  H15X13428   4.441   0.858   4.040 -2.3417  0.9503 -0.9419
  125SOPE  H15Y13429   4.413   0.907   3.882 -0.1022 -0.4173  0.1241
  125SOPE  C31613430   4.588   1.003   3.971 -0.4863  0.3591 -0.2992
  125SOPE  H16X13431   4.599   1.065   3.879  1.5745 -0.6239 -0.7677
  125SOPE  H16Y13432   4.694   0.994   4.002 -0.3826 -0.3407 -0.8442
  125SOPE  C31713433   4.533   1.094   4.091 -0.1917  0.3116 -0.2394
  125SOPE  H17X13434   4.512   1.027   4.177  1.0066 -0.6895 -0.7025
  125SOPE  H17Y13435   4.440   1.140   4.051  0.5722  0.4300 -1.9573
  125SOPE  C31813436   4.637   1.193   4.150 -0.7577  0.2497  0.7022
  125SOPE  H18X13437   4.614   1.238   4.249 -0.3714 -2.0558  1.9085
  125SOPE  H18Y13438   4.645   1.276   4.076 -3.5225  0.3066  0.4003
  125SOPE  H18Z13439   4.731   1.133   4.143  0.6353  2.4780 -3.0718
  126SOPE     N13440   5.091   3.920   2.105 -0.5790 -0.0689 -0.6395
  126SOPE   HN113441   5.012   3.977   2.142  0.0474 -0.0648  0.7176
  126SOPE   HN213442   5.055   3.824   2.125  1.6845 -0.6184  1.0776
  126SOPE   HN313443   5.172   3.944   2.165 -0.3580  3.2269 -2.0701
  126SOPE   C1213444   5.124   3.959   1.961  0.5523 -0.4833 -0.8056
  126SOPE  H12A13445   5.028   3.979   1.908 -0.3199  0.9652  1.1675
  126SOPE  H12B13446   5.179   3.874   1.916  0.7976 -1.3203  0.9966
  126SOPE   C1113447   5.202   4.094   1.956 -0.0795  0.7174  0.5466
  126SOPE  H11A13448   5.231   4.114   1.850 -1.0829  0.6249  0.2423
  126SOPE  H11B13449   5.297   4.079   2.012  1.2175  2.2150 -1.1313
  126SOPE     P13450   5.172   4.351   2.017 -0.0063 -0.1340  0.3752
  126SOPE   O1313451   5.049   4.429   2.039  0.6895 -0.2760  0.0636
  126SOPE   O1413452   5.252   4.379   1.893 -0.1500 -0.5206 -0.4406
  126SOPE   O1213453   5.124   4.199   1.995 -0.4018 -0.0160 -0.5570
  126SOPE   O1113454   5.253   4.352   2.153 -0.6790 -0.0689 -0.3432
  126SOPE    C113455   5.190   4.275   2.258 -0.3256 -0.0841  0.3995
  126SOPE    HA13456   5.263   4.195   2.284 -0.5970 -1.2958 -2.2034
  126SOPE    HB13457   5.091   4.230   2.235 -0.5132  0.2542  0.5413
  126SOPE    C213458   5.160   4.359   2.385  0.9063  0.0984 -0.0895
  126SOPE    HS13459   5.088   4.438   2.355  0.4451 -0.6023 -0.8835
  126SOPE   O2113460   5.284   4.418   2.430 -0.8454 -0.3452 -0.2869
  126SOPE   C2113461   5.277   4.533   2.497 -0.4262 -0.4502  0.4734
  126SOPE   O2213462   5.176   4.599   2.519  0.0867  0.2115  0.2204
  126SOPE   C2213463   5.417   4.575   2.508  0.3772 -0.7087  0.0250
  126SOPE   H2R13464   5.445   4.628   2.414  2.0332 -1.6729 -0.0604
  126SOPE   H2S13465   5.476   4.481   2.505  0.2268 -0.7902 -3.0322
  126SOPE    C313466   5.112   4.263   2.502  0.4277 -0.0729  0.0497
  126SOPE    HX13467   5.178   4.174   2.499  2.6804  1.4388  1.2324
  126SOPE    HY13468   5.014   4.214   2.482  1.9784 -2.6777 -1.8012
  126SOPE   O3113469   5.124   4.330   2.631 -0.0879  0.1381 -0.1922
  126SOPE   C3113470   5.013   4.383   2.678  0.1588  0.0154 -0.0308
  126SOPE   O3213471   4.903   4.378   2.622 -0.1964 -0.1749 -0.2231
  126SOPE   C3213472   5.044   4.469   2.796 -0.2189 -0.2245  0.4094
  126SOPE   H2X13473   5.100   4.555   2.755 -1.8394  0.4199 -0.5467
  126SOPE   H2Y13474   5.106   4.411   2.867  1.7811  0.8358 -0.4033
  126SOPE   C2313475   5.447   4.674   2.619 -0.3383  0.1899 -0.1324
  126SOPE   H3R13476   5.383   4.765   2.613 -1.5189 -0.6496 -0.7575
  126SOPE   H3S13477   5.556   4.695   2.624 -0.1877 -0.8332  1.1590
  126SOPE   C2413478   5.421   4.602   2.751  0.1370  0.5223  0.2077
  126SOPE   H4R13479   5.318   4.559   2.755  0.1418  0.4262 -0.5031
  126SOPE   H4S13480   5.494   4.520   2.766 -1.2323 -0.5122  1.5788
  126SOPE   C2513481   5.434   4.705   2.862  0.2983 -0.5009  0.3092
  126SOPE   H5R13482   5.541   4.735   2.869  0.4215 -0.9585  0.3857
  126SOPE   H5S13483   5.376   4.794   2.831  0.6950 -0.9936 -1.9789
  126SOPE   C2613484   5.389   4.631   2.992 -0.6265  0.0850  0.1109
  126SOPE   H6R13485   5.396   4.703   3.076  1.7002 -1.9973  1.8618
  126SOPE   H6S13486   5.281   4.605   2.991 -0.3253 -1.2853 -1.4199
  126SOPE   C2713487   5.468   4.502   3.028 -0.3107  0.5759 -0.8555
  126SOPE   H7R13488   5.446   4.410   2.970 -1.3491 -0.5398  1.1844
  126SOPE   H7S13489   5.577   4.521   3.022  0.7228 -4.0038 -0.1528
  126SOPE   C2813490   5.446   4.447   3.177 -0.3406 -0.2864  0.0216
  126SOPE   H8R13491   5.509   4.355   3.187 -0.5608 -0.1723  3.8009
  126SOPE   H8S13492   5.477   4.515   3.258  1.9644 -0.5772 -0.5397
  126SOPE   C2913493   5.302   4.400   3.198 -0.0256 -0.6845  0.2167
  126SOPE   H9113494   5.270   4.338   3.113 -0.6166  1.5917 -1.3366
  126SOPE  C21013495   5.228   4.408   3.318  0.3894  0.0191 -0.0670
  126SOPE  H10113496   5.130   4.357   3.316 -0.8133  2.1837  0.2493
  126SOPE  C21113497   5.272   4.480   3.442 -0.5188 -0.5208  0.4080
  126SOPE  H11R13498   5.331   4.564   3.398  1.7133 -2.8814 -1.3832
  126SOPE  H11S13499   5.331   4.418   3.513 -0.6241 -0.9859  0.0882
  126SOPE  C21213500   5.159   4.554   3.524  0.0117 -0.2402  0.9862
  126SOPE  H12R13501   5.128   4.637   3.457  3.4509  0.4121 -0.0256
  126SOPE  H12S13502   5.206   4.591   3.618 -1.1899  0.8946  1.1624
  126SOPE  C21313503   5.031   4.476   3.563  0.7205 -0.1163  1.0730
  126SOPE  H13R13504   4.988   4.417   3.479 -0.9297  0.8119  1.2332
  126SOPE  H13S13505   4.951   4.548   3.591 -0.0609 -0.0441 -1.1428
  126SOPE  C21413506   5.058   4.371   3.674 -0.2407 -0.0313  0.4542
  126SOPE  H14R13507   5.144   4.307   3.646  0.3042  0.5475  0.8041
  126SOPE  H14S13508   4.968   4.306   3.686  0.1545 -0.3641  1.8109
  126SOPE  C21513509   5.088   4.441   3.809  0.4039  0.1253 -0.9310
  126SOPE  H15R13510   5.009   4.513   3.840 -1.0526 -1.9889  0.5773
  126SOPE  H15S13511   5.183   4.497   3.797  0.2312  0.5462 -0.3558
  126SOPE  C21613512   5.117   4.350   3.925  0.1923 -1.0284 -0.7893
  126SOPE  H16R13513   5.214   4.298   3.910  0.9446  0.4575 -1.2835
  126SOPE  H16S13514   5.034   4.276   3.928  0.2156 -1.0393  1.5174
  126SOPE  C21713515   5.124   4.428   4.058 -0.2125  0.2238 -0.2706
  126SOPE  H17R13516   5.024   4.471   4.081 -1.7784 -1.6318 -3.0030
  126SOPE  H17S13517   5.194   4.513   4.043  2.3791 -1.7926 -0.3344
  126SOPE  C21813518   5.177   4.341   4.167  0.4793  0.3805  0.4910
  126SOPE  H18R13519   5.185   4.400   4.260 -2.1544  1.5324  0.0643
  126SOPE  H18S13520   5.284   4.317   4.150  1.0558  2.6458  0.6125
  126SOPE  H18T13521   5.115   4.250   4.183 -0.4750  1.0110  0.4501
  126SOPE   C3313522   4.917   4.516   2.872  0.8016 -0.0655 -0.3539
  126SOPE   H3X13523   4.842   4.566   2.806  0.5102 -0.1531 -0.0907
  126SOPE   H3Y13524   4.944   4.585   2.954 -1.1027  0.2891  0.0229
  126SOPE   C3413525   4.837   4.408   2.939  1.0965 -0.3801  0.0554
  126SOPE   H4X13526   4.900   4.320   2.962  2.4849  0.6215  0.1572
  126SOPE   H4Y13527   4.760   4.369   2.868 -1.9558 -1.1318  3.4979
  126SOPE   C3513528   4.758   4.466   3.060 -0.2788  0.4569  0.2131
  126SOPE   H5X13529   4.675   4.398   3.087  0.6849 -0.9980 -0.3969
  126SOPE   H5Y13530   4.708   4.557   3.020 -0.6003 -0.6760 -2.1437
  126SOPE   C3613531   4.852   4.492   3.180 -0.1306  0.2077 -0.1796
  126SOPE   H6X13532   4.928   4.573   3.176 -0.1640  0.2212 -0.5452
  126SOPE   H6Y13533   4.898   4.392   3.195  0.1848 -0.1526 -2.9375
  126SOPE   C3713534   4.770   4.543   3.304  0.0141 -0.0340 -0.0724
  126SOPE   H7X13535   4.718   4.634   3.267 -0.4688 -0.6603 -0.9822
  126SOPE   H7Y13536   4.840   4.579   3.382 -1.0049 -0.5023  1.0733
  126SOPE   C3813537   4.685   4.428   3.368  0.2159 -0.4071  0.8494
  126SOPE   H8X13538   4.755   4.370   3.431  0.4995  1.4654  2.3493
  126SOPE   H8Y13539   4.643   4.363   3.288  2.0247  0.4363 -0.8880
  126SOPE   C3913540   4.557   4.459   3.452 -0.8494  0.3935  0.4467
  126SOPE   H9X13541   4.489   4.486   3.369  0.9479  1.5037 -0.7582
  126SOPE   H9Y13542   4.579   4.544   3.521 -0.0908  0.9358 -0.4367
  126SOPE  C31013543   4.511   4.333   3.534 -0.3924  0.0859 -0.8299
  126SOPE  H10X13544   4.508   4.239   3.474 -1.4888  0.2350 -1.0314
  126SOPE  H10Y13545   4.407   4.337   3.574  0.5718  0.9412  1.7691
  126SOPE  C31113546   4.606   4.302   3.655  0.4190 -0.0955  0.0543
  126SOPE  H11X13547   4.706   4.287   3.608  0.8993  1.4269  0.5558
  126SOPE  H11Y13548   4.570   4.209   3.704 -0.5767  0.5038  0.4885
  126SOPE  C31213549   4.593   4.401   3.767 -0.2436 -0.3202  0.0007
  126SOPE  H12X13550   4.486   4.399   3.797 -0.3733  0.0689 -0.4249
  126SOPE  H12Y13551   4.607   4.507   3.735  0.7652 -1.2035 -2.7437
  126SOPE  C31313552   4.670   4.362   3.890 -0.4207 -0.2932  0.2349
  126SOPE  H13X13553   4.777   4.372   3.859 -0.5895  0.8826 -0.0336
  126SOPE  H13Y13554   4.646   4.255   3.908 -2.1635 -0.0855 -0.6502
  126SOPE  C31413555   4.639   4.443   4.021  0.6407  0.1068  0.6176
  126SOPE  H14X13556   4.616   4.545   3.983 -1.6072 -0.3555  0.6023
  126SOPE  H14Y13557   4.736   4.440   4.075  0.6574 -0.0995  0.5777
  126SOPE  C31513558   4.528   4.376   4.103  0.4663  0.3907 -0.2693
  126SOPE  H15X13559   4.567   4.277   4.137 -1.0062  0.1144  0.7139
  126SOPE  H15Y13560   4.426   4.365   4.061  0.3873 -1.7368  0.3661
  126SOPE  C31613561   4.521   4.458   4.236 -0.4394  0.3555  0.7390
  126SOPE  H16X13562   4.475   4.557   4.216 -0.1649 -0.0005 -2.0799
  126SOPE  H16Y13563   4.628   4.461   4.265  0.7596 -3.8373 -2.2314
  126SOPE  C31713564   4.435   4.386   4.341  0.1427 -0.4399 -0.2314
  126SOPE  H17X13565   4.457   4.278   4.353 -2.1451 -0.7786  1.6465
  126SOPE  H17Y13566   4.332   4.376   4.301 -0.4784 -0.1784  1.2376
  126SOPE  C31813567   4.422   4.462   4.471 -0.4009  0.5950  0.0011
  126SOPE  H18X13568   4.374   4.561   4.453  0.6031  0.9741 -0.6814
  126SOPE  H18Y13569   4.518   4.461   4.527 -0.0451 -1.7904 -0.5340
  126SOPE  H18Z13570   4.346   4.403   4.527  0.2741 -2.0401 -1.6456
  127SOPE     N13571   0.430   5.780   2.382  0.1054  0.1950 -0.1062
  127SOPE   HN113572   0.433   5.837   2.469 -1.6268 -0.2868  0.3088
  127SOPE   HN213573   0.513   5.805   2.325 -0.2303  1.4493 -0.0760
  127SOPE   HN313574   0.343   5.799   2.329 -0.5239 -0.7180  0.5462
  127SOPE   C1213575   0.429   5.634   2.430 -0.6150 -0.9233  0.0700
  127SOPE  H12A13576   0.400   5.574   2.341 -1.0757 -0.0210 -0.4021
  127SOPE  H12B13577   0.343   5.623   2.498 -1.3968  0.4907 -0.6423
  127SOPE   C1113578   0.565   5.594   2.483 -0.3125 -0.3090  0.1343
  127SOPE  H11A13579   0.557   5.487   2.513 -1.1725 -0.5268 -0.8232
  127SOPE  H11B13580   0.587   5.658   2.571 -1.1089  0.4285 -0.1947
  127SOPE     P13581   0.725   5.514   2.291 -0.3041 -0.2168 -0.1842
  127SOPE   O1313582   0.868   5.535   2.259  0.1647  0.5162  0.6962
  127SOPE   O1413583   0.624   5.532   2.183 -0.0931 -0.2506 -0.4787
  127SOPE   O1213584   0.680   5.616   2.400  0.2795  0.2419 -0.5446
  127SOPE   O1113585   0.709   5.374   2.363  0.1705  0.3167 -0.0887
  127SOPE    C113586   0.783   5.338   2.472  0.2007 -0.0990 -0.1496
  127SOPE    HA13587   0.744   5.383   2.566  1.9169  0.5975  0.2629
  127SOPE    HB13588   0.889   5.364   2.456  0.4531 -0.2934  1.1116
  127SOPE    C213589   0.793   5.189   2.506  0.3507 -0.2397  0.3447
  127SOPE    HS13590   0.837   5.133   2.420 -0.3004 -2.1919  1.2303
  127SOPE   O2113591   0.657   5.152   2.534  0.3104 -0.4632 -0.4456
  127SOPE   C2113592   0.589   5.100   2.437  0.0588  0.1737  0.1166
  127SOPE   O2213593   0.625   5.094   2.320  0.1551 -0.4761  0.3133
  127SOPE   C2213594   0.458   5.051   2.488 -0.4286 -0.3971  0.1288
  127SOPE   H2R13595   0.381   5.102   2.426  0.4175  1.4045  0.5008
  127SOPE   H2S13596   0.445   5.070   2.596 -1.8850  0.6245 -0.1971
  127SOPE    C313597   0.883   5.155   2.635  0.8998 -0.0441  0.4707
  127SOPE    HX13598   0.815   5.194   2.715  0.2736  1.0793 -0.5672
  127SOPE    HY13599   0.981   5.207   2.627  1.4405 -1.3725 -3.7787
  127SOPE   O3113600   0.906   5.015   2.657 -0.4156  0.0435  0.1406
  127SOPE   C3113601   0.998   4.995   2.751  0.2485  0.3905 -0.0713
  127SOPE   O3213602   1.063   5.079   2.808 -0.7789  0.2559 -0.7598
  127SOPE   C3213603   1.031   4.848   2.756  0.1822  0.3160 -0.6211
  127SOPE   H2X13604   0.956   4.789   2.700  0.4360 -1.0812  0.4821
  127SOPE   H2Y13605   1.025   4.812   2.860 -0.8635 -1.1708 -1.1705
  127SOPE   C2313606   0.454   4.900   2.461 -0.5396  0.3111  0.6182
  127SOPE   H3R13607   0.454   4.886   2.351 -0.4793  0.1317  0.6397
  127SOPE   H3S13608   0.356   4.859   2.494 -0.3699 -0.7400 -0.1264
  127SOPE   C2413609   0.560   4.811   2.542 -0.4853  0.3441 -0.1331
  127SOPE   H4R13610   0.543   4.704   2.518 -0.1456 -0.4818  2.9200
  127SOPE   H4S13611   0.665   4.841   2.519  0.9320 -1.0494  3.6321
  127SOPE   C2513612   0.545   4.826   2.695  0.7137 -0.5005 -0.0494
  127SOPE   H5R13613   0.592   4.919   2.733  0.1601 -0.0988 -0.3455
  127SOPE   H5S13614   0.439   4.846   2.720  0.4937 -0.5443 -0.9078
  127SOPE   C2613615   0.615   4.710   2.778 -0.1266  0.3104 -0.3456
  127SOPE   H6R13616   0.583   4.611   2.739 -0.2599  0.6677 -1.1679
  127SOPE   H6S13617   0.721   4.717   2.748 -0.7015  2.2500 -2.1097
  127SOPE   C2713618   0.603   4.723   2.936  0.4230  0.4622 -0.0396
  127SOPE   H7R13619   0.501   4.766   2.942  1.2216  2.7837 -1.5578
  127SOPE   H7S13620   0.616   4.630   2.994 -0.3357  0.3403 -0.0541
  127SOPE   C2813621   0.703   4.833   2.988  0.5257  0.9215  0.2947
  127SOPE   H8R13622   0.811   4.807   2.979  0.1084 -0.9591  0.2406
  127SOPE   H8S13623   0.686   4.921   2.922  1.0214  1.1795  0.5060
  127SOPE   C2913624   0.684   4.887   3.126  0.7768 -0.3209  1.6161
  127SOPE   H9113625   0.588   4.855   3.167 -0.7492  0.4643 -1.1207
  127SOPE  C21013626   0.759   4.972   3.196  0.0301  0.7274 -0.1682
  127SOPE  H10113627   0.737   4.995   3.301  2.0364  1.5845  0.1134
  127SOPE  C21113628   0.892   5.033   3.147  0.4824 -0.5890 -0.3203
  127SOPE  H11R13629   0.881   5.143   3.137  4.1879  0.0297  0.9799
  127SOPE  H11S13630   0.919   5.001   3.045  2.4539  0.4498 -0.1707
  127SOPE  C21213631   1.011   5.020   3.244  0.0850 -0.3509 -0.2086
  127SOPE  H12R13632   1.022   4.911   3.261 -1.0261 -0.5501 -0.7040
  127SOPE  H12S13633   0.987   5.060   3.345 -1.8408 -0.6783 -0.4980
  127SOPE  C21313634   1.144   5.086   3.201 -0.2158  0.2030 -0.6703
  127SOPE  H13R13635   1.146   5.197   3.198  1.3475  0.2122 -3.4452
  127SOPE  H13S13636   1.170   5.046   3.100 -1.9245 -2.9928  0.0183
  127SOPE  C21413637   1.264   5.051   3.287 -0.2373 -0.0520  0.3565
  127SOPE  H14R13638   1.290   4.943   3.288 -1.6049 -0.4596 -1.7866
  127SOPE  H14S13639   1.238   5.076   3.392  1.2422  0.8172  0.5454
  127SOPE  C21513640   1.389   5.125   3.241 -0.5048  0.5448  0.7373
  127SOPE  H15R13641   1.362   5.232   3.229  0.1040  0.4948 -1.5783
  127SOPE  H15S13642   1.416   5.099   3.137  0.0670  1.4789  0.6364
  127SOPE  C21613643   1.516   5.092   3.315  0.0814 -0.6495 -0.4663
  127SOPE  H16R13644   1.606   5.142   3.271 -0.1944  1.9416  1.6801
  127SOPE  H16S13645   1.550   4.987   3.300  1.3433 -0.0812 -1.9637
  127SOPE  C21713646   1.508   5.152   3.455  0.0191  0.0802  0.2952
  127SOPE  H17R13647   1.460   5.073   3.517  0.9068  0.0103  0.9072
  127SOPE  H17S13648   1.434   5.234   3.443 -2.8913 -2.5241 -0.8936
  127SOPE  C21813649   1.644   5.194   3.503  0.0717 -0.5706  0.1895
  127SOPE  H18R13650   1.713   5.107   3.508 -1.0166 -1.4582  0.2726
  127SOPE  H18S13651   1.639   5.242   3.603  1.8077 -3.0200  1.5715
  127SOPE  H18T13652   1.674   5.267   3.425  0.7769 -0.3681  0.6414
  127SOPE   C3313653   1.178   4.804   2.712 -0.8443  0.7444 -0.1331
  127SOPE   H3X13654   1.180   4.817   2.601 -2.6922 -0.6829 -0.3721
  127SOPE   H3Y13655   1.199   4.696   2.727  0.4175  1.3629  3.2841
  127SOPE   C3413656   1.294   4.883   2.765  0.2473 -0.1901  0.1557
  127SOPE   H4X13657   1.261   4.988   2.749 -1.7300 -0.9972 -1.4870
  127SOPE   H4Y13658   1.385   4.861   2.706 -0.9213 -0.3888 -1.6523
  127SOPE   C3513659   1.323   4.865   2.915 -0.9249 -1.1805  0.1833
  127SOPE   H5X13660   1.237   4.815   2.963 -0.5929 -2.1890 -0.2350
  127SOPE   H5Y13661   1.344   4.965   2.957  1.7620 -0.8678 -1.6384
  127SOPE   C3613662   1.454   4.790   2.934  0.3121 -0.0120 -0.0128
  127SOPE   H6X13663   1.539   4.850   2.896  0.5833  0.0875  0.7414
  127SOPE   H6Y13664   1.450   4.694   2.878 -0.0919 -0.3090  0.5095
  127SOPE   C3713665   1.487   4.759   3.079  0.2976  0.4744 -0.0402
  127SOPE   H7X13666   1.392   4.735   3.131 -0.6687 -1.5512 -2.5138
  127SOPE   H7Y13667   1.529   4.857   3.113  0.1352  1.0080 -1.3104
  127SOPE   C3813668   1.585   4.641   3.099  0.1287 -0.6818 -0.0370
  127SOPE   H8X13669   1.690   4.654   3.065  0.0243 -1.1602 -0.5720
  127SOPE   H8Y13670   1.546   4.565   3.028 -0.7203  0.7070 -1.1247
  127SOPE   C3913671   1.568   4.592   3.245 -0.0831  0.0725  0.7206
  127SOPE   H9X13672   1.611   4.490   3.242 -0.8406 -0.2432  0.2322
  127SOPE   H9Y13673   1.461   4.579   3.271  0.0882  0.0886  1.4524
  127SOPE  C31013674   1.637   4.683   3.347  0.7435  0.7692  0.3431
  127SOPE  H10X13675   1.599   4.784   3.373  1.5892  0.5564  2.6179
  127SOPE  H10Y13676   1.734   4.697   3.294  1.2818 -0.1424  1.0576
  127SOPE  C31113677   1.665   4.606   3.476 -0.2724  0.6511  0.4157
  127SOPE  H11X13678   1.741   4.533   3.441 -2.0208  0.2264 -2.8656
  127SOPE  H11Y13679   1.565   4.568   3.505 -0.3598 -0.7962 -1.5816
  127SOPE  C31213680   1.731   4.709   3.574 -0.2526 -0.0434  0.1433
  127SOPE  H12X13681   1.658   4.792   3.588 -0.3787 -0.1975  0.3995
  127SOPE  H12Y13682   1.819   4.755   3.524  0.3413 -0.8106  0.4461
  127SOPE  C31313683   1.795   4.662   3.702  0.5362 -0.5530 -0.1418
  127SOPE  H13X13684   1.811   4.756   3.760 -2.8076  0.8109 -1.2415
  127SOPE  H13Y13685   1.896   4.621   3.676  1.4849  0.9693  0.9769
  127SOPE  C31413686   1.705   4.558   3.773 -0.2222 -0.4818  0.2191
  127SOPE  H14X13687   1.750   4.516   3.866  0.6399 -1.9543 -0.8119
  127SOPE  H14Y13688   1.698   4.474   3.701 -0.2272  0.0126 -0.3628
  127SOPE  C31513689   1.572   4.617   3.812  0.1292  0.4686  0.4598
  127SOPE  H15X13690   1.509   4.644   3.724  2.3533  0.6405 -1.1698
  127SOPE  H15Y13691   1.580   4.711   3.871 -2.6590  1.0639  0.0309
  127SOPE  C31613692   1.476   4.516   3.879  0.2065 -0.2726 -0.5686
  127SOPE  H16X13693   1.485   4.415   3.835  0.3517 -0.2734 -0.5368
  127SOPE  H16Y13694   1.374   4.556   3.860  0.7979  0.8651 -1.4639
  127SOPE  C31713695   1.485   4.492   4.036 -0.0220 -0.3558 -0.1063
  127SOPE  H17X13696   1.471   4.594   4.077 -1.6577  0.2566 -2.0939
  127SOPE  H17Y13697   1.585   4.453   4.068 -0.0873  0.5416  1.2824
  127SOPE  C31813698   1.358   4.414   4.101 -0.5365 -1.0537  0.1705
  127SOPE  H18X13699   1.338   4.333   4.029 -1.7259 -2.5161  2.0645
  127SOPE  H18Y13700   1.276   4.489   4.097 -0.3909 -0.8150  1.2549
  127SOPE  H18Z13701   1.385   4.393   4.206  3.4748  0.6173 -0.3457
  128SOPE     N13702   5.799   2.200   1.975  0.7262  0.2909 -0.1004
  128SOPE   HN113703   5.753   2.273   1.917 -2.2344 -1.9443 -0.7943
  128SOPE   HN213704   5.899   2.199   1.945  0.0563 -0.6266 -2.5436
  128SOPE   HN313705   5.747   2.121   1.932  0.2031  1.7183 -2.2957
  128SOPE   C1213706   5.769   2.205   2.122  0.0415  0.4209 -0.8136
  128SOPE  H12A13707   5.807   2.305   2.152  2.5276 -0.6094 -0.2462
  128SOPE  H12B13708   5.818   2.116   2.166 -2.6020 -1.8045 -2.0580
  128SOPE   C1113709   5.613   2.219   2.156  0.3100  0.5251  0.2315
  128SOPE  H11A13710   5.613   2.221   2.267 -0.0840 -1.6864  0.3156
  128SOPE  H11B13711   5.565   2.128   2.112  0.1831  0.4035  0.6182
  128SOPE     P13712   5.509   2.465   2.159  0.0088 -0.1938  0.1185
  128SOPE   O1313713   5.382   2.453   2.227  0.0895  0.0347 -0.5303
  128SOPE   O1413714   5.523   2.560   2.046  0.5472  0.5193 -0.0275
  128SOPE   O1213715   5.552   2.334   2.095 -0.0961  0.4567  0.1141
  128SOPE   O1113716   5.626   2.481   2.265  0.4798 -0.0976 -0.1971
  128SOPE    C113717   5.748   2.548   2.236  0.2627 -0.4726  0.6360
  128SOPE    HA13718   5.761   2.574   2.129  1.0784 -2.7626  0.1221
  128SOPE    HB13719   5.834   2.480   2.253  0.4833 -0.1538  0.8200
  128SOPE    C213720   5.756   2.677   2.314 -0.1649  0.4983 -0.5072
  128SOPE    HS13721   5.859   2.715   2.299  0.7832 -1.7796 -0.2722
  128SOPE   O2113722   5.727   2.650   2.450  0.0793  0.0542  1.0582
  128SOPE   C2113723   5.821   2.577   2.513  0.3699 -0.1576 -0.0916
  128SOPE   O2213724   5.936   2.564   2.470  0.1307 -0.2130 -0.6990
  128SOPE   C2213725   5.783   2.527   2.658 -0.1218 -0.3087  1.1136
  128SOPE   H2R13726   5.782   2.415   2.661 -0.4408 -0.2995  1.3770
  128SOPE   H2S13727   5.691   2.575   2.698  0.8433  2.1214  0.5232
  128SOPE    C313728   5.657   2.788   2.266  0.0242  0.1650  0.2777
  128SOPE    HX13729   5.554   2.772   2.305 -0.5113  0.3336 -1.0426
  128SOPE    HY13730   5.651   2.788   2.155 -0.2251  0.8450  0.2833
  128SOPE   O3113731   5.715   2.916   2.299  0.2875  0.0876 -0.0228
  128SOPE   C3113732   5.671   2.988   2.401  0.4217  0.2733 -1.0259
  128SOPE   O3213733   5.581   2.954   2.475  0.4208 -0.0504 -0.1589
  128SOPE   C3213734   5.746   3.124   2.407  0.1538 -0.1262 -0.1673
  128SOPE   H2X13735   5.680   3.189   2.345 -1.2070  0.4188  1.7423
  128SOPE   H2Y13736   5.847   3.110   2.363 -0.9131 -1.8999 -2.2301
  128SOPE   C2313737   5.901   2.561   2.749 -0.9234 -0.1300 -0.4406
  128SOPE   H3R13738   5.945   2.661   2.730 -0.8292 -0.4122 -1.8058
  128SOPE   H3S13739   5.983   2.487   2.736 -0.5904  0.2814 -0.7036
  128SOPE   C2413740   5.870   2.562   2.899 -0.0800 -0.1239 -0.8297
  128SOPE   H4R13741   5.782   2.629   2.915 -0.8944 -1.4841  0.8221
  128SOPE   H4S13742   5.823   2.467   2.933  0.3188  0.5318  1.7595
  128SOPE   C2513743   5.980   2.597   3.004  0.0737 -0.0922 -0.7600
  128SOPE   H5R13744   6.050   2.511   3.012  2.1960  1.6023 -0.1498
  128SOPE   H5S13745   6.044   2.685   2.981  0.9074 -0.0597  1.4537
  128SOPE   C2613746   5.922   2.633   3.144 -0.6898  0.2267 -0.1351
  128SOPE   H6R13747   5.872   2.541   3.184  0.3448 -0.9166 -1.3789
  128SOPE   H6S13748   6.013   2.636   3.207 -1.3832 -0.8012  0.9799
  128SOPE   C2713749   5.837   2.762   3.148  0.1058  0.2784  0.2263
  128SOPE   H7R13750   5.876   2.850   3.093 -0.0002  1.2430  1.6411
  128SOPE   H7S13751   5.744   2.742   3.090  0.5718 -2.5190  0.2827
  128SOPE   C2813752   5.810   2.802   3.291  0.9734  0.5065 -0.2941
  128SOPE   H8R13753   5.725   2.873   3.290  0.7223  0.2237 -1.5186
  128SOPE   H8S13754   5.762   2.716   3.342 -1.0627  1.9242  0.2679
  128SOPE   C2913755   5.922   2.871   3.376  0.0529  1.2704 -0.0935
  128SOPE   H9113756   6.020   2.823   3.387  0.8120  2.3890 -1.5565
  128SOPE  C21013757   5.917   2.983   3.441  0.2899  0.2178 -0.3484
  128SOPE  H10113758   6.015   3.024   3.468  0.9162 -0.0207 -2.1319
  128SOPE  C21113759   5.804   3.082   3.442  0.5874 -0.1529 -1.0420
  128SOPE  H11R13760   5.706   3.030   3.446  1.3835 -1.6714 -0.0533
  128SOPE  H11S13761   5.804   3.148   3.353 -0.7984  0.0946 -0.8707
  128SOPE  C21213762   5.793   3.171   3.572  0.0768 -0.0718  0.2510
  128SOPE  H12R13763   5.721   3.253   3.552 -0.3994 -0.1176  1.7117
  128SOPE  H12S13764   5.886   3.224   3.600  0.2238  0.5561 -1.2868
  128SOPE  C21313765   5.757   3.090   3.699 -0.4151  0.1514  0.2536
  128SOPE  H13R13766   5.831   3.015   3.733  0.8146  0.7068 -1.0856
  128SOPE  H13S13767   5.660   3.043   3.671  0.6826 -1.3817 -1.0963
  128SOPE  C21413768   5.734   3.186   3.814 -0.4351 -0.0204 -0.5709
  128SOPE  H14R13769   5.663   3.260   3.773  2.7764  1.6242 -3.6040
  128SOPE  H14S13770   5.828   3.244   3.817  0.4465 -1.3457 -1.4326
  128SOPE  C21513771   5.710   3.116   3.949  0.1008 -0.1234 -0.1674
  128SOPE  H15R13772   5.797   3.050   3.969  0.0248 -0.2384 -0.2128
  128SOPE  H15S13773   5.621   3.049   3.953  0.8785 -1.4663 -2.7195
  128SOPE  C21613774   5.699   3.224   4.057 -0.2721 -0.1999 -0.0903
  128SOPE  H16R13775   5.628   3.304   4.025 -0.2591  0.4436  1.3858
  128SOPE  H16S13776   5.798   3.274   4.057  0.0574 -0.7881  1.4500
  128SOPE  C21713777   5.650   3.177   4.192  0.7961 -0.7652  0.1169
  128SOPE  H17R13778   5.688   3.076   4.219 -2.0676 -2.4768 -1.7212
  128SOPE  H17S13779   5.541   3.161   4.183  0.2373  2.5969 -0.4745
  128SOPE  C21813780   5.673   3.291   4.301 -0.0784 -0.2729  0.5089
  128SOPE  H18R13781   5.602   3.293   4.386 -1.3295  1.0518 -0.5276
  128SOPE  H18S13782   5.649   3.388   4.253  0.0208  0.3426  1.6866
  128SOPE  H18T13783   5.781   3.286   4.326  0.4362 -0.5368 -1.5690
  128SOPE   C3313784   5.763   3.177   2.554  0.0661  0.5117  0.5110
  128SOPE   H3X13785   5.663   3.167   2.601 -0.0286 -0.3729  0.1423
  128SOPE   H3Y13786   5.784   3.286   2.562  1.0101  0.3785 -0.0072
  128SOPE   C3413787   5.864   3.095   2.638  0.0186  0.4213  0.3289
  128SOPE   H4X13788   5.958   3.153   2.620  1.0431 -0.8668  1.3122
  128SOPE   H4Y13789   5.874   2.993   2.595 -0.3231  0.9243 -1.0070
  128SOPE   C3513790   5.836   3.101   2.791 -0.2927 -0.6298 -0.2175
  128SOPE   H5X13791   5.808   3.206   2.815 -3.8155 -1.3019 -0.8966
  128SOPE   H5Y13792   5.928   3.064   2.841 -0.6379 -1.0624  0.0962
  128SOPE   C3613793   5.729   3.002   2.843  0.0641  0.0229 -0.4763
  128SOPE   H6X13794   5.757   2.894   2.844 -0.3261 -0.0922 -1.4174
  128SOPE   H6Y13795   5.644   3.016   2.773 -0.7942  1.1826  0.7421
  128SOPE   C3713796   5.684   3.042   2.984 -0.0946 -0.0821  0.3295
  128SOPE   H7X13797   5.762   3.015   3.058 -0.3507 -0.3691  0.4952
  128SOPE   H7Y13798   5.599   2.978   3.016  0.0556  0.3715  1.6907
  128SOPE   C3813799   5.627   3.180   3.002  0.3629 -0.3415 -0.3393
  128SOPE   H8X13800   5.566   3.203   2.912 -0.3058  0.0902  0.2122
  128SOPE   H8Y13801   5.717   3.246   3.002  1.0863 -1.2890 -1.2265
  128SOPE   C3913802   5.550   3.191   3.141  0.2959  0.1277 -0.4278
  128SOPE   H9X13803   5.628   3.173   3.217  0.8692 -1.0717 -1.2726
  128SOPE   H9Y13804   5.476   3.110   3.156 -0.1199  0.6203  0.2820
  128SOPE  C31013805   5.481   3.324   3.149  0.7767  0.0175 -0.8559
  128SOPE  H10X13806   5.410   3.338   3.065  0.7963  1.5812 -0.6377
  128SOPE  H10Y13807   5.558   3.402   3.135  0.1689  0.9168  0.5587
  128SOPE  C31113808   5.399   3.340   3.276  0.2147 -0.2968  0.3286
  128SOPE  H11X13809   5.305   3.282   3.290  2.2107 -3.5437  1.3685
  128SOPE  H11Y13810   5.373   3.448   3.284 -0.5316 -0.4262 -0.2760
  128SOPE  C31213811   5.476   3.297   3.402  0.3344  0.0434 -0.3883
  128SOPE  H12X13812   5.581   3.334   3.402  0.4565 -0.0346  2.3569
  128SOPE  H12Y13813   5.490   3.188   3.422  0.9988  0.3880  1.2017
  128SOPE  C31313814   5.407   3.327   3.541 -0.3491 -0.8439 -0.0686
  128SOPE  H13X13815   5.479   3.274   3.607  0.1723 -1.2470 -0.9488
  128SOPE  H13Y13816   5.305   3.282   3.542 -0.6760 -0.1136 -0.0462
  128SOPE  C31413817   5.406   3.472   3.587  0.2968 -0.3068  0.0316
  128SOPE  H14X13818   5.331   3.528   3.527  0.3873  0.8316  0.9409
  128SOPE  H14Y13819   5.507   3.517   3.582 -1.1799  3.7048  1.7881
  128SOPE  C31513820   5.372   3.476   3.735 -0.0920 -0.4283  0.5966
  128SOPE  H15X13821   5.457   3.456   3.803 -0.8296 -0.3782  1.5462
  128SOPE  H15Y13822   5.287   3.413   3.768 -0.8403  0.7432  1.0033
  128SOPE  C31613823   5.329   3.619   3.781  0.6566 -0.1173 -0.1830
  128SOPE  H16X13824   5.239   3.649   3.723  0.6222 -1.1215 -0.6698
  128SOPE  H16Y13825   5.406   3.698   3.766  0.2281  0.0858 -1.4120
  128SOPE  C31713826   5.297   3.629   3.933 -0.0990 -0.9601 -0.3935
  128SOPE  H17X13827   5.198   3.584   3.954 -1.7555  2.4290 -0.3973
  128SOPE  H17Y13828   5.297   3.737   3.955  2.2011 -0.8802 -0.4795
  128SOPE  C31813829   5.398   3.572   4.033 -0.0061 -0.4744  0.3596
  128SOPE  H18X13830   5.358   3.570   4.137 -2.7819  0.3207 -0.6143
  128SOPE  H18Y13831   5.494   3.628   4.039 -0.4038  0.4882 -1.7544
  128SOPE  H18Z13832   5.412   3.462   4.019 -1.2961 -0.6406  0.3227
  129OSM      N13833   5.305   0.940   6.387  0.1051 -0.3164 -0.4540
  129OSM    C1513834   5.399   0.913   6.275 -0.6169 -0.0379  0.4104
  129OSM   H15A13835   5.446   0.820   6.302 -0.6676  0.0416  0.7735
  129OSM   H15B13836   5.468   0.994   6.262 -3.1516  1.8367 -3.4092
  129OSM   H15C13837   5.360   0.894   6.176 -0.6545 -1.3771  0.6549
  129OSM    C1413838   5.182   0.854   6.394 -0.3072  0.6422 -0.0534
  129OSM   H14A13839   5.194   0.766   6.455 -3.9675  0.7549  1.0848
  129OSM   H14B13840   5.155   0.829   6.293  1.3108  0.9072 -0.5864
  129OSM   H14C13841   5.103   0.913   6.439  0.6529  1.8201  0.1461
  129OSM    C1313842   5.380   0.919   6.519 -0.0394  0.2734  0.1832
  129OSM   H13A13843   5.425   0.821   6.520  1.6451  1.0016 -0.0513
  129OSM   H13B13844   5.306   0.917   6.597 -0.2216  0.0206  0.0056
  129OSM   H13C13845   5.459   0.993   6.528 -0.8841  1.2810 -0.4094
  129OSM    C1213846   5.259   1.087   6.377 -0.6305  0.4866 -0.5006
  129OSM   H12A13847   5.198   1.093   6.288 -0.8687  2.0639 -0.2547
  129OSM   H12B13848   5.342   1.154   6.359 -1.0440  1.3638  0.7230
  129OSM    C1113849   5.184   1.153   6.493 -0.9559  0.2674  0.3347
  129OSM   H11A13850   5.155   1.259   6.480 -2.4221  0.2333  2.6706
  129OSM   H11B13851   5.251   1.159   6.582  0.8751  1.7934 -1.0476
  129OSM      P13852   4.931   1.105   6.440  0.0337 -0.4313 -0.2467
  129OSM    O1313853   4.847   0.984   6.448 -0.6906  0.1134 -0.0574
  129OSM    O1413854   4.861   1.226   6.484 -0.2038  0.1246 -0.5207
  129OSM    O1113855   4.979   1.132   6.298  0.2831 -0.5551 -0.0134
  129OSM    O1213856   5.064   1.083   6.521  0.0812 -0.4070 -0.2422
  129OSM    C1S13857   4.944   1.047   6.189 -0.0410 -0.1103 -0.9083
  129OSM    H1S13858   4.853   0.985   6.206  0.4316 -0.3117  1.1854
  129OSM    H1T13859   5.024   0.971   6.176 -0.0528 -0.0134 -1.5664
  129OSM     NF13860   4.862   1.041   5.951  0.0319  0.4000 -0.0362
  129OSM    HNF13861   4.924   1.009   5.879 -0.7048  0.2605 -0.6267
  129OSM    C2S13862   4.935   1.120   6.053 -0.4072 -0.3186  0.3806
  129OSM    H2S13863   4.868   1.207   6.071  0.0607  0.2694 -0.6150
  129OSM    C3S13864   5.074   1.167   6.011 -0.1901 -0.6181  0.0948
  129OSM    H3S13865   5.135   1.075   6.000 -0.6435 -0.8069 -1.0147
  129OSM     O313866   5.155   1.232   6.111  0.3330  0.1615  0.5920
  129OSM    HO313867   5.108   1.232   6.195 -2.6695  0.3674 -0.9397
  129OSM    C4S13868   5.075   1.246   5.884 -0.1254  0.1765  0.0886
  129OSM    H4S13869   5.078   1.192   5.788  3.3482 -1.6302  1.0232
  129OSM    C5S13870   5.093   1.386   5.873  0.7263  0.1625  0.2703
  129OSM    H5S13871   5.098   1.447   5.964  0.1598  0.5351  0.0548
  129OSM    C6S13872   5.096   1.459   5.741 -0.3171  0.2667  0.2512
  129OSM    H6S13873   5.190   1.519   5.738 -0.2256  0.1231 -2.6894
  129OSM    H6T13874   5.011   1.531   5.736  0.6316  1.4428  0.5775
  129OSM    C7S13875   5.099   1.379   5.605  0.1635  0.9006  0.4000
  129OSM    H7S13876   5.011   1.311   5.606  2.0397 -1.8287 -2.1111
  129OSM    H7T13877   5.194   1.322   5.602 -0.8614 -0.9183  0.8872
  129OSM    C8S13878   5.090   1.466   5.479 -0.8418 -0.1369 -0.2086
  129OSM    H8S13879   5.186   1.522   5.472  0.6848 -2.4572  0.8747
  129OSM    H8T13880   5.004   1.536   5.483 -0.1610  0.7873 -1.1163
  129OSM    C9S13881   5.080   1.377   5.355 -0.7369 -0.2797 -0.1185
  129OSM    H9S13882   4.976   1.340   5.355 -0.7104 -0.6174  3.0937
  129OSM    H9T13883   5.149   1.291   5.368  0.8517  1.0182  0.5162
  129OSM   C10S13884   5.116   1.456   5.229 -0.0437 -0.0035 -0.3494
  129OSM   H10S13885   5.219   1.492   5.249 -0.9380  1.4239  2.1328
  129OSM   H10T13886   5.053   1.546   5.211  0.0876  0.1796  0.0885
  129OSM   C11S13887   5.109   1.372   5.106  0.4483  0.4016  0.3009
  129OSM   H11S13888   5.000   1.353   5.113  0.6682 -0.4043  2.4410
  129OSM   H11T13889   5.162   1.275   5.123  0.4061  0.4468  0.7027
  129OSM   C12S13890   5.162   1.442   4.980 -0.3650 -0.4013  0.7838
  129OSM   H12S13891   5.273   1.440   4.981 -0.3621 -1.7772 -0.2790
  129OSM   H12T13892   5.116   1.543   4.980  1.2554  0.3803  1.9923
  129OSM   C13S13893   5.120   1.382   4.846 -0.1177  0.2443  0.2643
  129OSM   H13S13894   5.016   1.347   4.863 -0.3084  1.2973  1.4476
  129OSM   H13T13895   5.183   1.295   4.819  0.9106  0.6504  1.2508
  129OSM   C14S13896   5.133   1.484   4.728  0.2135 -0.1097  0.2472
  129OSM   H14S13897   5.148   1.432   4.631  2.2032  1.4602 -0.3693
  129OSM   H14T13898   5.226   1.542   4.749 -1.2990  2.2535  0.7695
  129OSM   C15S13899   5.022   1.595   4.701  0.7886 -0.0459  0.3318
  129OSM   H15S13900   5.014   1.654   4.794  2.0292  0.1076  0.3626
  129OSM   H15T13901   4.922   1.548   4.688  1.1407 -0.5613 -0.5775
  129OSM   C16S13902   5.051   1.682   4.582  0.4595 -0.5337  0.6656
  129OSM   H16S13903   5.113   1.625   4.510  3.5247  0.2385  2.5162
  129OSM   H16T13904   5.121   1.765   4.607  0.1134 -0.3145  0.9178
  129OSM   C17S13905   4.916   1.751   4.519  0.0347  0.9965 -0.3642
  129OSM   H17S13906   4.869   1.666   4.466  1.0806 -0.3039  0.7164
  129OSM   H17T13907   4.941   1.831   4.447 -0.0589  2.0450  0.7330
  129OSM   C18S13908   4.819   1.804   4.632  0.0324 -0.4104 -0.3382
  129OSM   H18S13909   4.883   1.851   4.709 -0.5700  0.5823 -0.4318
  129OSM   H18T13910   4.765   1.719   4.679 -0.7137  0.2291 -0.0320
  129OSM   H18U13911   4.747   1.880   4.595 -2.1043 -1.4543  1.4731
  129OSM    C1F13912   4.734   0.997   5.960 -0.2678 -0.0862 -0.1062
  129OSM     OF13913   4.660   1.046   6.043  0.2027  0.1122 -0.2470
  129OSM    C2F13914   4.695   0.890   5.854  0.0885  0.5054  0.0901
  129OSM    H2F13915   4.756   0.799   5.869 -2.1131 -0.7497  2.2074
  129OSM    H2G13916   4.707   0.933   5.752  0.5380  0.2880  0.0495
  129OSM    C3F13917   4.543   0.859   5.850  0.2891  0.2127  0.1077
  129OSM    H3F13918   4.489   0.956   5.838 -0.6433 -0.5697 -2.9023
  129OSM    H3G13919   4.511   0.833   5.953  0.7229  0.6335  0.3576
  129OSM    C4F13920   4.496   0.749   5.752 -0.1646 -0.5855  0.0795
  129OSM    H4F13921   4.392   0.725   5.780 -0.0707 -1.3235 -0.1856
  129OSM    H4G13922   4.559   0.658   5.759 -0.3870 -0.8208 -0.7920
  129OSM    C5F13923   4.475   0.791   5.604  0.2417  0.1659 -0.4163
  129OSM    H5F13924   4.463   0.697   5.547  1.2702 -1.0144  1.2335
  129OSM    H5G13925   4.574   0.833   5.573  1.2846 -1.7103  0.2335
  129OSM    C6F13926   4.360   0.889   5.583 -0.3986  0.9746  0.1028
  129OSM    H6F13927   4.373   0.962   5.666 -0.9877 -0.9147  1.9441
  129OSM    H6G13928   4.268   0.830   5.601  0.5225 -0.4705  0.2578
  129OSM    C7F13929   4.371   0.961   5.446  0.3669 -0.2133 -0.7096
  129OSM    H7F13930   4.463   1.023   5.448  0.7211 -0.7503  0.4211
  129OSM    H7G13931   4.283   1.030   5.443 -0.1131 -0.8485 -2.4441
  129OSM    C8F13932   4.349   0.869   5.332 -0.3753 -0.2611 -0.2299
  129OSM    H8F13933   4.243   0.837   5.342 -1.7401  3.7529 -0.1945
  129OSM    H8G13934   4.408   0.776   5.345 -3.5085 -2.6758 -1.7366
  129OSM    C9F13935   4.374   0.937   5.202  0.4766  0.1491 -0.2305
  129OSM    H9F13936   4.351   1.045   5.210  0.8362  0.1319  1.2860
  129OSM   C10F13937   4.405   0.887   5.077 -0.0377 -0.9134 -1.2271
  129OSM   H10F13938   4.437   0.964   5.005 -0.7917 -0.7671 -1.4083
  129OSM   C11F13939   4.445   0.746   5.053  0.3310 -0.5032  0.1231
  129OSM   H11F13940   4.465   0.683   5.143 -0.1944  0.5175  0.9707
  129OSM   H11G13941   4.538   0.741   4.993 -0.3090 -3.0051 -0.7848
  129OSM   C12F13942   4.343   0.673   4.963  0.1713 -0.4070 -0.0337
  129OSM   H12F13943   4.276   0.748   4.916  1.9906  1.5026  0.2609
  129OSM   H12G13944   4.275   0.619   5.032 -0.7613 -1.7368 -1.9086
  129OSM   C13F13945   4.400   0.577   4.861  0.4316 -0.4091 -0.6563
  129OSM   H13F13946   4.314   0.550   4.796 -1.4854  1.3393  0.9904
  129OSM   H13G13947   4.429   0.479   4.903  1.2578  0.1122  0.0237
  129OSM   C14F13948   4.507   0.630   4.760 -0.0796 -0.0024 -0.4356
  129OSM   H14F13949   4.521   0.554   4.680  0.4187  1.3480 -1.6836
  129OSM   H14G13950   4.603   0.646   4.814 -0.0758 -0.3770 -0.3307
  129OSM   C15F13951   4.477   0.766   4.690  0.1659 -0.3273 -0.1585
  129OSM   H15F13952   4.564   0.783   4.623  1.7303 -1.8383  1.4019
  129OSM   H15G13953   4.463   0.849   4.762  0.1068 -1.5214  1.2622
  129OSM   C16F13954   4.351   0.777   4.598 -0.2924  0.6948 -0.0299
  129OSM   H16F13955   4.263   0.736   4.652  0.1134  0.1985  0.2604
  129OSM   H16G13956   4.374   0.703   4.518 -1.7198 -1.9348  1.8370
  129OSM   C17F13957   4.332   0.916   4.541  1.0856 -0.6588 -0.0657
  129OSM   H17F13958   4.297   0.980   4.625  0.6297 -2.9645  1.5836
  129OSM   H17G13959   4.246   0.913   4.471  1.6195  1.1181 -0.8668
  129OSM   C18F13960   4.451   0.985   4.476 -0.6880  0.1257 -0.3918
  129OSM   H18F13961   4.532   1.015   4.546 -0.8710  3.0421 -1.2683
  129OSM   H18G13962   4.430   1.092   4.452  1.1432  0.3618 -1.1371
  129OSM   H18H13963   4.491   0.925   4.391 -0.3961  1.9543 -1.6144
  130OSM      N13964   6.918   5.707   6.515  0.4527 -0.5037 -0.3911
  130OSM    C1513965   6.842   5.833   6.553  0.0293  0.0336 -0.0753
  130OSM   H15A13966   6.765   5.861   6.482  0.7787  1.2103 -0.4484
  130OSM   H15B13967   6.909   5.918   6.548 -0.4778  0.5522  1.4410
  130OSM   H15C13968   6.799   5.826   6.651 -0.3270 -0.7821 -0.2824
  130OSM    C1413969   7.007   5.722   6.399  0.1754 -0.2813 -0.1419
  130OSM   H14A13970   7.091   5.783   6.428 -1.1619  0.7319  1.7954
  130OSM   H14B13971   6.965   5.777   6.316 -0.5604 -0.7424 -0.0923
  130OSM   H14C13972   7.050   5.628   6.368 -2.5888 -1.1809 -1.6203
  130OSM    C1313973   7.005   5.672   6.632 -0.7462 -0.6889 -0.4884
  130OSM   H13A13974   6.956   5.651   6.726 -1.9098 -0.8631 -1.1131
  130OSM   H13B13975   7.080   5.750   6.626  0.8180 -2.1754 -1.3641
  130OSM   H13C13976   7.055   5.582   6.598  0.1648 -0.1776 -0.5430
  130OSM    C1213977   6.818   5.598   6.484 -0.2959 -0.4150 -0.1225
  130OSM   H12A13978   6.748   5.580   6.564  1.6177 -1.3019  1.4325
  130OSM   H12B13979   6.883   5.516   6.458 -0.7227 -1.3059  1.4840
  130OSM    C1113980   6.714   5.611   6.361  0.2216  0.6792 -0.3927
  130OSM   H11A13981   6.681   5.514   6.320 -0.4547 -0.1594  1.9322
  130OSM   H11B13982   6.773   5.664   6.284  1.8418  0.6987  0.8133
  130OSM      P13983   6.472   5.631   6.473  0.0038 -0.3921 -0.0017
  130OSM    O1313984   6.517   5.538   6.575  0.0145  0.1990 -0.4429
  130OSM    O1413985   6.409   5.758   6.515  0.6681 -0.5303 -0.9165
  130OSM    O1113986   6.379   5.554   6.369  0.0498  0.3932  0.3928
  130OSM    O1213987   6.597   5.685   6.393  0.2761 -0.1096 -0.3127
  130OSM    C1S13988   6.307   5.611   6.261 -0.6092  0.2746  0.0686
  130OSM    H1S13989   6.347   5.713   6.249  0.8721  0.0250  2.1877
  130OSM    H1T13990   6.199   5.633   6.280 -0.7293  0.2442 -0.5614
  130OSM     NF13991   6.298   5.594   6.009 -0.0357  0.6847  0.0437
  130OSM    HNF13992   6.204   5.613   5.983  0.7092  1.0265 -2.7307
  130OSM    C2S13993   6.316   5.519   6.135  0.1508 -0.0807  0.7627
  130OSM    H2S13994   6.424   5.492   6.139  0.6384  1.3347 -1.0881
  130OSM    C3S13995   6.221   5.398   6.140  0.5546 -0.4927 -0.7944
  130OSM    H3S13996   6.119   5.428   6.172  0.8401 -0.1625 -0.1615
  130OSM     O313997   6.234   5.316   6.255  0.5555  0.3647  0.0062
  130OSM    HO313998   6.298   5.359   6.312 -0.6185  1.7835  0.2962
  130OSM    C4S13999   6.215   5.312   6.020  0.2681  0.2066 -0.0307
  130OSM    H4S14000   6.311   5.266   5.991 -0.1616 -0.8137  0.1217
  130OSM    C5S14001   6.110   5.300   5.942 -0.1554 -0.9507 -0.3828
  130OSM    H5S14002   6.016   5.355   5.959  0.9087  1.2611 -1.1735
  130OSM    C6S14003   6.083   5.205   5.828  0.1868  0.5225  0.0303
  130OSM    H6S14004   5.975   5.179   5.827  0.7440 -1.9831 -0.4747
  130OSM    H6T14005   6.131   5.106   5.839 -1.1110 -0.3422 -1.6485
  130OSM    C7S14006   6.137   5.268   5.696  0.8140  0.2235 -0.3760
  130OSM    H7S14007   6.246   5.260   5.713  0.4205 -3.2807  1.3869
  130OSM    H7T14008   6.115   5.375   5.674 -2.9010 -0.5075 -0.7920
  130OSM    C8S14009   6.086   5.198   5.566  0.1566  0.0019  0.0908
  130OSM    H8S14010   5.984   5.158   5.582 -0.6177  2.6795  2.7019
  130OSM    H8T14011   6.138   5.100   5.556 -0.3876 -0.5280  1.9854
  130OSM    C9S14012   6.091   5.294   5.448 -0.3347 -0.0424  0.0890
  130OSM    H9S14013   6.198   5.318   5.431 -0.2461 -0.7688 -0.4617
  130OSM    H9T14014   6.026   5.383   5.461 -1.3983 -0.4080 -2.2982
  130OSM   C10S14015   6.054   5.234   5.308 -0.1012 -0.5200  0.1633
  130OSM   H10S14016   5.946   5.209   5.317 -0.3596  0.6385  0.4837
  130OSM   H10T14017   6.109   5.142   5.280  0.7590 -0.4572  1.5192
  130OSM   C11S14018   6.065   5.344   5.202 -0.8901 -0.7460 -0.3829
  130OSM   H11S14019   6.175   5.344   5.186 -0.8192 -0.6712  0.0865
  130OSM   H11T14020   6.032   5.447   5.229 -0.3013 -0.3216 -1.2279
  130OSM   C12S14021   6.004   5.319   5.067 -0.0047 -0.0533  0.3119
  130OSM   H12S14022   5.897   5.301   5.090 -0.2062  1.9494  1.1095
  130OSM   H12T14023   6.047   5.226   5.022  0.8435  1.3995 -2.0799
  130OSM   C13S14024   6.032   5.432   4.978  0.7314  0.7145  1.4662
  130OSM   H13S14025   6.134   5.428   4.935 -0.2355 -3.1770 -0.9584
  130OSM   H13T14026   6.014   5.528   5.031  0.5516  1.2265  0.5017
  130OSM   C14S14027   5.931   5.419   4.862 -0.8232  0.0104  0.0543
  130OSM   H14S14028   5.934   5.507   4.793 -1.4558 -0.7263 -0.9511
  130OSM   H14T14029   5.827   5.406   4.899 -0.8682 -1.5612 -0.5769
  130OSM   C15S14030   5.960   5.296   4.771  0.2007 -0.3955  0.7178
  130OSM   H15S14031   5.965   5.206   4.835  1.3554 -0.1393  1.0171
  130OSM   H15T14032   6.058   5.309   4.720  0.1159  0.6763  0.8119
  130OSM   C16S14033   5.847   5.281   4.664 -0.1938  0.2759 -0.4349
  130OSM   H16S14034   5.848   5.369   4.597  0.8419  0.7774  0.2160
  130OSM   H16T14035   5.752   5.297   4.720  0.9534  1.2835  1.3022
  130OSM   C17S14036   5.855   5.146   4.595  0.0648 -0.0764 -0.4481
  130OSM   H17S14037   5.867   5.072   4.677  1.0883 -1.8215 -2.0747
  130OSM   H17T14038   5.944   5.145   4.528 -0.2804  1.2052 -0.9572
  130OSM   C18S14039   5.734   5.107   4.511  0.0304 -0.8349 -0.1966
  130OSM   H18S14040   5.653   5.078   4.581  2.2855 -2.3504  1.9910
  130OSM   H18T14041   5.765   5.021   4.448  0.2780 -1.6454  0.9954
  130OSM   H18U14042   5.690   5.183   4.444  1.8608  0.2825 -0.2176
  130OSM    C1F14043   6.387   5.687   5.972 -0.2367 -0.2085  0.1863
  130OSM     OF14044   6.500   5.684   6.017 -0.1194  0.4270 -0.4710
  130OSM    C2F14045   6.336   5.791   5.878 -0.1042 -0.1421 -0.2936
  130OSM    H2F14046   6.288   5.866   5.945 -0.5499  0.0257 -0.7928
  130OSM    H2G14047   6.253   5.757   5.813 -1.6081  1.3152  0.7722
  130OSM    C3F14048   6.444   5.861   5.799 -0.7402  0.4926 -1.1500
  130OSM    H3F14049   6.529   5.883   5.867 -0.3202  0.2907 -1.6042
  130OSM    H3G14050   6.409   5.962   5.768  0.9620  1.4331 -0.1821
  130OSM    C4F14051   6.491   5.780   5.677 -0.4638  0.1967  0.2686
  130OSM    H4F14052   6.515   5.676   5.709 -0.1161  0.0536 -0.4255
  130OSM    H4G14053   6.583   5.829   5.639 -1.2841  1.7654  0.2254
  130OSM    C5F14054   6.389   5.781   5.566  0.0659 -0.7184 -0.1316
  130OSM    H5F14055   6.361   5.888   5.556  2.5825  0.0196  0.2429
  130OSM    H5G14056   6.304   5.716   5.597 -0.3893 -0.8590 -1.5962
  130OSM    C6F14057   6.438   5.730   5.422  0.1561  1.3380 -0.8580
  130OSM    H6F14058   6.479   5.627   5.429  1.2389  1.6971 -1.6194
  130OSM    H6G14059   6.523   5.795   5.393  1.8066  0.1292  1.0278
  130OSM    C7F14060   6.324   5.726   5.309 -0.3910 -0.2009 -0.7059
  130OSM    H7F14061   6.278   5.827   5.311 -1.3978 -0.6657  0.2574
  130OSM    H7G14062   6.249   5.648   5.335  1.3350 -1.1160  2.0279
  130OSM    C8F14063   6.383   5.709   5.173  0.0044 -0.4714  0.7331
  130OSM    H8F14064   6.448   5.619   5.182 -2.7743 -2.4341  2.9894
  130OSM    H8G14065   6.446   5.794   5.138  0.4248 -0.9440  0.3240
  130OSM    C9F14066   6.277   5.687   5.068  0.2580  0.4115  0.6452
  130OSM    H9F14067   6.202   5.610   5.090  0.1816  0.0049 -0.9227
  130OSM   C10F14068   6.234   5.760   4.965  0.4511  0.0020  0.5576
  130OSM   H10F14069   6.156   5.722   4.897  1.2918  1.0511 -1.0461
  130OSM   C11F14070   6.309   5.880   4.909 -0.2519  0.1178 -0.7780
  130OSM   H11F14071   6.420   5.865   4.909 -0.1424  0.4078  1.9372
  130OSM   H11G14072   6.275   5.967   4.969 -3.1320 -2.2822  1.3539
  130OSM   C12F14073   6.271   5.889   4.762  0.1642  0.2215  0.3147
  130OSM   H12F14074   6.161   5.901   4.764  0.0017 -1.2595  1.5499
  130OSM   H12G14075   6.307   5.795   4.713  1.0813  0.3308  0.7540
  130OSM   C13F14076   6.331   6.017   4.701 -0.6470 -0.1014 -0.8849
  130OSM   H13F14077   6.438   6.014   4.730 -1.0861 -0.3883  0.8412
  130OSM   H13G14078   6.274   6.099   4.749 -0.2137 -0.7764  0.8725
  130OSM   C14F14079   6.321   6.016   4.544  0.5506 -0.2474 -0.3676
  130OSM   H14F14080   6.222   6.016   4.494  1.4894 -0.7480 -2.3400
  130OSM   H14G14081   6.383   5.928   4.515  1.3723  0.5819 -1.2139
  130OSM   C15F14082   6.415   6.126   4.474 -0.2775 -0.8311 -0.5741
  130OSM   H15F14083   6.515   6.107   4.517  0.2426  2.2654 -0.1858
  130OSM   H15G14084   6.387   6.223   4.521  0.9960  1.7058 -4.5697
  130OSM   C16F14085   6.430   6.126   4.320  0.4866  0.0443 -0.3413
  130OSM   H16F14086   6.337   6.181   4.295  0.0290 -0.9720 -0.9169
  130OSM   H16G14087   6.407   6.025   4.281 -2.4747  0.4379  0.1649
  130OSM   C17F14088   6.562   6.180   4.264 -0.7672 -0.5397  0.0006
  130OSM   H17F14089   6.637   6.099   4.275  1.0052  0.2776 -4.1646
  130OSM   H17G14090   6.585   6.272   4.322  1.1800 -1.2018  0.3409
  130OSM   C18F14091   6.583   6.217   4.120 -0.3135  0.0108  0.3773
  130OSM   H18F14092   6.692   6.216   4.099 -0.1975  0.4156  0.9293
  130OSM   H18G14093   6.552   6.324   4.116 -0.0516  0.1072  0.8732
  130OSM   H18H14094   6.528   6.152   4.048  0.4574  0.4792 -0.6610
  131OSM      N14095   0.639   1.328   6.777 -0.6060  0.0877 -0.1778
  131OSM    C1514096   0.751   1.411   6.829  0.5080  0.6526  0.1186
  131OSM   H15A14097   0.744   1.424   6.936  0.5868 -1.3335  0.4121
  131OSM   H15B14098   0.754   1.502   6.771 -2.1252  1.0144  0.4076
  131OSM   H15C14099   0.842   1.358   6.806 -0.2600 -0.5941 -0.1434
  131OSM    C1414100   0.629   1.199   6.856  0.2726  0.3449 -0.1636
  131OSM   H14A14101   0.595   1.226   6.955  0.5584  0.0370  0.0211
  131OSM   H14B14102   0.729   1.160   6.864 -0.0668 -0.1236  3.3427
  131OSM   H14C14103   0.573   1.123   6.804  0.8900 -0.2697  0.0491
  131OSM    C1314104   0.511   1.400   6.812 -0.7404 -0.1978  0.4954
  131OSM   H13A14105   0.494   1.485   6.748 -2.0049 -0.3178  0.6417
  131OSM   H13B14106   0.520   1.427   6.916  1.1960 -2.3550  0.9726
  131OSM   H13C14107   0.424   1.338   6.795 -0.3613 -1.0473  1.5411
  131OSM    C1214108   0.651   1.312   6.628 -0.4679 -0.0022  0.4604
  131OSM   H12A14109   0.734   1.245   6.609  0.4386  0.8574  1.2475
  131OSM   H12B14110   0.685   1.406   6.587  0.2292 -1.1065 -1.6976
  131OSM    C1114111   0.531   1.267   6.543  0.0611 -0.0681  0.2889
  131OSM   H11A14112   0.561   1.274   6.436 -0.5352 -0.7646  0.0628
  131OSM   H11B14113   0.443   1.330   6.567 -0.8979 -1.6170  1.0115
  131OSM      P14114   0.353   1.069   6.547  0.2670 -0.4078 -0.4896
  131OSM    O1314115   0.290   1.041   6.682  0.3161  0.6027  0.9258
  131OSM    O1414116   0.268   1.150   6.459  0.4685 -0.2973 -0.0027
  131OSM    O1114117   0.388   0.936   6.478  0.5010 -0.4936 -0.4836
  131OSM    O1214118   0.495   1.126   6.565  0.1817 -0.1227  0.3819
  131OSM    C1S14119   0.304   0.886   6.373  1.0883  0.3417  0.1423
  131OSM    H1S14120   0.195   0.891   6.393  0.7879 -2.3084 -0.4909
  131OSM    H1T14121   0.323   0.777   6.370  0.4539  0.2351 -0.1869
  131OSM     NF14122   0.239   0.852   6.134 -0.4595  0.6577  0.0515
  131OSM    HNF14123   0.265   0.761   6.101 -1.8607 -0.0858  0.8651
  131OSM    C2S14124   0.340   0.925   6.223 -0.2934 -0.6086  0.3484
  131OSM    H2S14125   0.312   1.032   6.215  0.8803 -0.4333 -4.3433
  131OSM    C3S14126   0.481   0.910   6.179  1.4872  0.0646 -0.6805
  131OSM    H3S14127   0.509   0.802   6.182 -1.6270 -0.8619 -1.8248
  131OSM     O314128   0.578   0.984   6.258 -0.3774 -0.6152  0.0809
  131OSM    HO314129   0.536   1.034   6.328 -1.3070  1.3861 -1.7779
  131OSM    C4S14130   0.502   0.954   6.034  0.9134 -0.6844 -0.3731
  131OSM    H4S14131   0.418   0.970   5.964  2.1891 -0.7011 -1.9822
  131OSM    C5S14132   0.621   0.967   5.979 -0.0788 -0.3119  0.4087
  131OSM    H5S14133   0.712   0.959   6.039 -0.4899 -1.6169  0.8895
  131OSM    C6S14134   0.647   1.004   5.838  0.0442 -0.5423 -0.2475
  131OSM    H6S14135   0.563   1.065   5.799  2.1300  1.5606 -1.7092
  131OSM    H6T14136   0.667   0.902   5.799  1.3227 -1.4467  2.4622
  131OSM    C7S14137   0.768   1.097   5.829 -0.1038  0.0199  0.4892
  131OSM    H7S14138   0.868   1.049   5.824 -0.1970 -0.1138 -0.1973
  131OSM    H7T14139   0.752   1.168   5.913 -1.5445  2.0808 -1.4039
  131OSM    C8S14140   0.758   1.194   5.715  0.1338 -0.7128  0.0362
  131OSM    H8S14141   0.834   1.274   5.726 -1.4118  1.0792 -1.4263
  131OSM    H8T14142   0.655   1.232   5.734 -0.4210 -2.1971  0.1106
  131OSM    C9S14143   0.782   1.131   5.573 -0.3790  0.1164  0.0319
  131OSM    H9S14144   0.736   1.201   5.501 -0.7698 -1.4592 -1.3203
  131OSM    H9T14145   0.726   1.035   5.566  2.1148 -1.4129 -0.2958
  131OSM   C10S14146   0.928   1.106   5.530  0.4030 -0.3419  0.3129
  131OSM   H10S14147   0.964   1.026   5.598 -0.4762  0.5616  1.9011
  131OSM   H10T14148   0.996   1.192   5.551  1.0834 -0.4039 -1.4402
  131OSM   C11S14149   0.929   1.065   5.377  0.4838 -0.6257  0.0849
  131OSM   H11S14150   0.852   0.988   5.356  0.7673 -0.5494 -1.3822
  131OSM   H11T14151   1.027   1.015   5.361  0.7348 -0.4110  0.9068
  131OSM   C12S14152   0.928   1.166   5.262  0.1387  1.1221  0.2547
  131OSM   H12S14153   0.998   1.249   5.287  0.5187  1.2158 -1.0461
  131OSM   H12T14154   0.827   1.213   5.258  0.4676  1.9572  1.2624
  131OSM   C13S14155   0.976   1.118   5.131 -0.5951  0.9049  0.0181
  131OSM   H13S14156   0.955   1.205   5.065 -2.0104  2.0560  1.8824
  131OSM   H13T14157   0.919   1.030   5.092 -2.9948  3.4917 -2.8522
  131OSM   C14S14158   1.126   1.092   5.133  0.1404  0.0042 -0.3841
  131OSM   H14S14159   1.147   1.002   5.195  0.5006  0.2981 -0.0743
  131OSM   H14T14160   1.177   1.182   5.172  0.4770 -0.7059  0.8982
  131OSM   C15S14161   1.186   1.063   5.000  0.1747  0.1699 -0.3826
  131OSM   H15S14162   1.143   1.133   4.926 -0.8522 -0.6546 -0.5759
  131OSM   H15T14163   1.162   0.963   4.958  0.9328  0.7119 -2.1901
  131OSM   C16S14164   1.335   1.060   5.007  0.2122 -0.2580  0.5305
  131OSM   H16S14165   1.363   1.145   5.074 -1.5442 -0.7816  2.0174
  131OSM   H16T14166   1.358   1.078   4.900 -0.9556  2.1160  0.6171
  131OSM   C17S14167   1.405   0.927   5.052  0.2926 -0.1961  0.2418
  131OSM   H17S14168   1.384   0.850   4.975 -1.6915  1.7208 -1.2392
  131OSM   H17T14169   1.371   0.891   5.151  0.3390  1.5345  0.9222
  131OSM   C18S14170   1.562   0.933   5.058 -0.2528  0.1160 -0.1038
  131OSM   H18S14171   1.608   0.833   5.069  0.2595  0.2222 -1.1591
  131OSM   H18T14172   1.582   1.003   5.142 -0.1590 -1.5050  1.2773
  131OSM   H18U14173   1.598   0.978   4.963 -1.0621  1.8995  0.3918
  131OSM    C1F14174   0.109   0.886   6.133 -0.5123 -0.2279  0.4929
  131OSM     OF14175   0.068   0.999   6.181 -0.1415  0.4019 -0.0355
  131OSM    C2F14176   0.012   0.778   6.096 -0.2629 -0.1380 -0.6534
  131OSM    H2F14177  -0.090   0.815   6.119  0.1091  0.4319  0.1030
  131OSM    H2G14178   0.021   0.697   6.172  1.0209 -1.0124 -1.6877
  131OSM    C3F14179   0.016   0.736   5.943 -0.1975 -0.1908  0.1048
  131OSM    H3F14180   0.122   0.724   5.912 -0.2916  0.9646 -0.7580
  131OSM    H3G14181  -0.040   0.818   5.892  0.1427  0.0883  0.1781
  131OSM    C4F14182  -0.059   0.606   5.913  0.6522  0.4113 -0.1035
  131OSM    H4F14183  -0.168   0.622   5.931  0.6378  1.3922 -0.9688
  131OSM    H4G14184  -0.013   0.527   5.976  1.9122  2.3470  1.5345
  131OSM    C5F14185  -0.041   0.565   5.773 -0.8054  0.0201  0.1259
  131OSM    H5F14186   0.069   0.552   5.769 -0.6693  1.2981 -2.2468
  131OSM    H5G14187  -0.076   0.641   5.700 -0.9692 -0.5844 -0.4385
  131OSM    C6F14188  -0.103   0.431   5.729  0.5636 -0.1321  0.2754
  131OSM    H6F14189  -0.213   0.427   5.725  0.4143  2.5279 -0.6973
  131OSM    H6G14190  -0.068   0.361   5.808 -0.3107 -0.6900  0.1730
  131OSM    C7F14191  -0.047   0.371   5.598  0.6856 -0.1041  0.1609
  131OSM    H7F14192  -0.077   0.264   5.588  1.3566 -0.1004 -2.6549
  131OSM    H7G14193   0.063   0.368   5.589  0.8508 -3.6684  1.5861
  131OSM    C8F14194  -0.112   0.445   5.483  0.4463 -0.4169 -0.2935
  131OSM    H8F14195  -0.101   0.554   5.498 -1.5840 -0.0726 -0.9187
  131OSM    H8G14196  -0.223   0.436   5.490  0.5134  0.0626  2.4496
  131OSM    C9F14197  -0.069   0.416   5.339 -0.3198 -0.3471  0.2750
  131OSM    H9F14198  -0.085   0.316   5.297  1.5200 -0.0235 -1.3172
  131OSM   C10F14199  -0.016   0.498   5.253  0.4036 -0.4841 -0.6984
  131OSM   H10F14200   0.001   0.458   5.152  1.2333 -1.6195 -0.1209
  131OSM   C11F14201   0.008   0.646   5.262 -0.7768  0.2162 -1.2357
  131OSM   H11F14202   0.115   0.673   5.252 -1.2048  2.8026  0.0985
  131OSM   H11G14203  -0.038   0.695   5.351 -2.4331 -0.5695 -1.6113
  131OSM   C12F14204  -0.046   0.734   5.150  0.0499  0.5713 -0.9153
  131OSM   H12F14205  -0.025   0.841   5.171 -0.8027  0.8362 -1.3640
  131OSM   H12G14206  -0.154   0.716   5.131 -0.4635  0.3938  1.8309
  131OSM   C13F14207   0.014   0.708   5.010  0.4222 -0.2366  0.2002
  131OSM   H13F14208  -0.025   0.778   4.934  1.6302 -0.2154 -0.4243
  131OSM   H13G14209  -0.024   0.608   4.980 -0.0543  0.3962 -1.4020
  131OSM   C14F14210   0.162   0.703   4.992 -0.6700 -0.1088 -0.3257
  131OSM   H14F14211   0.201   0.624   5.061 -2.8560 -1.4251 -0.4949
  131OSM   H14G14212   0.199   0.806   5.011 -0.8182 -0.1457  0.1765
  131OSM   C15F14213   0.211   0.667   4.847 -0.4890 -0.5308 -0.5808
  131OSM   H15F14214   0.166   0.750   4.788 -2.7522 -1.3049 -0.0507
  131OSM   H15G14215   0.182   0.562   4.823  0.3610 -1.0309  0.5085
  131OSM   C16F14216   0.362   0.667   4.811 -0.0564 -0.3292 -0.4507
  131OSM   H16F14217   0.400   0.569   4.847 -0.1907  0.4402  1.9780
  131OSM   H16G14218   0.399   0.751   4.874  1.0086  0.3504 -1.9315
  131OSM   C17F14219   0.385   0.685   4.660  0.0504 -0.7100  0.2054
  131OSM   H17F14220   0.490   0.713   4.638 -0.3369  0.2880 -0.4554
  131OSM   H17G14221   0.322   0.764   4.613 -0.0991 -0.9072  0.0733
  131OSM   C18F14222   0.371   0.554   4.584  0.3713  0.3560 -0.0126
  131OSM   H18F14223   0.374   0.577   4.476 -1.2931 -0.2556 -0.2313
  131OSM   H18G14224   0.272   0.505   4.599 -0.2686  1.5388 -0.2357
  131OSM   H18H14225   0.447   0.475   4.602 -0.6342 -0.6520 -0.0473
  132OSM      N14226   3.555   2.518   6.707  0.2992  0.1701 -0.4164
  132OSM    C1514227   3.416   2.575   6.700 -0.2858 -0.5020 -0.1447
  132OSM   H15A14228   3.367   2.502   6.637  0.0997  0.4384 -1.5633
  132OSM   H15B14229   3.431   2.673   6.658  2.2169 -0.7428  0.0744
  132OSM   H15C14230   3.357   2.579   6.791 -3.5759  1.2991 -2.1711
  132OSM    C1414231   3.608   2.530   6.569  0.1799 -0.2459  0.2832
  132OSM   H14A14232   3.533   2.487   6.505 -2.9478  2.0751  2.1114
  132OSM   H14B14233   3.704   2.486   6.548 -1.2997 -2.1624 -3.2736
  132OSM   H14C14234   3.612   2.629   6.527 -0.8283 -0.0043  0.7335
  132OSM    C1314235   3.646   2.591   6.795 -0.7247 -0.2913 -0.6707
  132OSM   H13A14236   3.638   2.694   6.765 -0.3818 -0.3733 -1.0553
  132OSM   H13B14237   3.745   2.552   6.774 -0.9102 -0.2368 -1.6983
  132OSM   H13C14238   3.608   2.595   6.896 -4.0172  1.6712 -1.8333
  132OSM    C1214239   3.541   2.366   6.743  0.0593 -0.5974  0.4212
  132OSM   H12A14240   3.498   2.358   6.841  0.3391  1.8641  0.8110
  132OSM   H12B14241   3.643   2.331   6.752 -0.3279 -1.4436  1.7705
  132OSM    C1114242   3.454   2.283   6.649 -1.0182 -0.3111 -0.1140
  132OSM   H11A14243   3.475   2.176   6.666  1.2606  0.4099  2.4336
  132OSM   H11B14244   3.472   2.304   6.541  0.1321  2.2094  0.4715
  132OSM      P14245   3.211   2.206   6.604 -0.5125  0.6604 -0.0594
  132OSM    O1314246   3.260   2.069   6.606 -0.0869  0.4038  0.0762
  132OSM    O1414247   3.078   2.237   6.644 -0.0542  0.2398 -0.4392
  132OSM    O1114248   3.214   2.236   6.446 -0.0490  0.1010 -0.6474
  132OSM    O1214249   3.314   2.313   6.669  0.0392  0.0712  0.2872
  132OSM    C1S14250   3.209   2.372   6.395  0.2970  0.7172 -0.7090
  132OSM    H1S14251   3.295   2.431   6.433 -0.2869  0.9844  0.2480
  132OSM    H1T14252   3.116   2.426   6.423 -0.7483 -0.9751 -0.7766
  132OSM     NF14253   3.240   2.511   6.186  0.5987  0.3374  0.2078
  132OSM    HNF14254   3.168   2.547   6.127  1.0426 -1.1375 -1.3161
  132OSM    C2S14255   3.204   2.375   6.234  0.0126  0.5558 -0.3503
  132OSM    H2S14256   3.287   2.306   6.207  0.6558  1.4321 -0.6592
  132OSM    C3S14257   3.071   2.319   6.183  0.0962 -0.1717  0.5557
  132OSM    H3S14258   2.992   2.389   6.218 -1.3037 -1.1438 -0.5651
  132OSM     O314259   3.038   2.186   6.244  0.2264 -0.3830  0.3517
  132OSM    HO314260   3.109   2.182   6.308  0.1816  0.4731  0.4714
  132OSM    C4S14261   3.078   2.316   6.038 -0.5882  0.5410 -0.1988
  132OSM    H4S14262   2.986   2.360   5.998 -0.7977  0.2151 -0.0836
  132OSM    C5S14263   3.174   2.270   5.958 -0.0019  0.4713 -0.4308
  132OSM    H5S14264   3.267   2.237   6.007  0.0869  1.0596 -0.1865
  132OSM    C6S14265   3.170   2.270   5.808 -0.2130  0.3707  0.4323
  132OSM    H6S14266   3.071   2.303   5.770 -0.6898 -0.2397  1.1024
  132OSM    H6T14267   3.189   2.172   5.758 -0.7872 -0.1874  1.2848
  132OSM    C7S14268   3.270   2.363   5.740  0.0228  0.1764  1.1233
  132OSM    H7S14269   3.375   2.327   5.746  0.1188 -0.3757 -2.0114
  132OSM    H7T14270   3.260   2.459   5.794  1.5637  0.3660  1.0949
  132OSM    C8S14271   3.237   2.386   5.587  0.5971 -0.5622 -0.0351
  132OSM    H8S14272   3.138   2.435   5.573  0.4999 -0.1139  1.9307
  132OSM    H8T14273   3.245   2.287   5.538 -0.3065 -1.3072  1.2524
  132OSM    C9S14274   3.327   2.487   5.514  0.3200 -0.6836  0.6664
  132OSM    H9S14275   3.430   2.482   5.555  0.1095  0.0624  1.3272
  132OSM    H9T14276   3.290   2.588   5.541  0.7724 -0.3848  0.2021
  132OSM   C10S14277   3.333   2.480   5.353 -0.9118  0.1314  0.0637
  132OSM   H10S14278   3.250   2.530   5.298  1.3404  3.6215 -0.4671
  132OSM   H10T14279   3.348   2.373   5.328 -0.3756  0.0308  0.7755
  132OSM   C11S14280   3.460   2.557   5.307 -0.6101  0.0772  0.1962
  132OSM   H11S14281   3.553   2.518   5.355 -0.4012 -0.4193 -0.6061
  132OSM   H11T14282   3.444   2.663   5.337 -1.8130  1.7045 -5.1963
  132OSM   C12S14283   3.483   2.564   5.153  0.3150  0.5104 -0.5093
  132OSM   H12S14284   3.394   2.599   5.096 -1.2605 -0.4569  1.2523
  132OSM   H12T14285   3.504   2.459   5.126 -1.5138  0.4652 -2.0437
  132OSM   C13S14286   3.602   2.650   5.115 -0.6098 -0.6283  0.1908
  132OSM   H13S14287   3.693   2.608   5.163  2.0790 -0.0064 -3.8748
  132OSM   H13T14288   3.597   2.749   5.166 -1.3949 -1.2875  1.4410
  132OSM   C14S14289   3.627   2.649   4.967 -0.1644 -0.0050 -1.3601
  132OSM   H14S14290   3.535   2.697   4.928 -1.0896  0.2710  1.0409
  132OSM   H14T14291   3.632   2.547   4.923  0.0261 -0.0105 -1.3285
  132OSM   C15S14292   3.747   2.727   4.910  0.1177  0.0583 -0.1093
  132OSM   H15S14293   3.830   2.668   4.954 -1.3292 -1.3674  0.8096
  132OSM   H15T14294   3.760   2.829   4.953 -1.9350  0.9012 -1.3601
  132OSM   C16S14295   3.750   2.719   4.761  0.5709  0.1429 -0.2482
  132OSM   H16S14296   3.760   2.615   4.723 -1.2877 -0.2866  0.3247
  132OSM   H16T14297   3.849   2.765   4.738  1.2318 -0.5553  1.0779
  132OSM   C17S14298   3.638   2.788   4.687  0.4343  0.7387 -0.1854
  132OSM   H17S14299   3.613   2.886   4.734  0.4273  0.1039  1.1899
  132OSM   H17T14300   3.546   2.726   4.685 -0.0335  1.4292 -1.4552
  132OSM   C18S14301   3.675   2.826   4.541 -0.1712  1.2094  0.1443
  132OSM   H18S14302   3.588   2.871   4.489  0.6458 -0.6985 -3.1400
  132OSM   H18T14303   3.694   2.737   4.478 -0.7093 -1.3520  3.3709
  132OSM   H18U14304   3.763   2.891   4.524  0.1061  0.2848 -2.3448
  132OSM    C1F14305   3.369   2.553   6.190  0.4065 -0.1823  0.1901
  132OSM     OF14306   3.460   2.491   6.239  0.1763 -0.1609 -0.1709
  132OSM    C2F14307   3.387   2.684   6.129 -0.7806 -1.0939  0.4201
  132OSM    H2F14308   3.457   2.745   6.190 -1.4965  1.9228 -1.5447
  132OSM    H2G14309   3.287   2.731   6.122 -1.1024 -1.9168 -0.8368
  132OSM    C3F14310   3.461   2.659   5.998  0.4363 -0.1499  0.0214
  132OSM    H3F14311   3.405   2.585   5.938  1.7427 -2.2323  1.2593
  132OSM    H3G14312   3.564   2.630   6.027  0.1107  0.7153  2.2375
  132OSM    C4F14313   3.489   2.786   5.910  0.3086 -0.2073 -0.0175
  132OSM    H4F14314   3.539   2.864   5.971  2.3735 -0.8522 -0.8063
  132OSM    H4G14315   3.393   2.824   5.868  0.3124  0.6653  0.7309
  132OSM    C5F14316   3.576   2.776   5.783 -0.6740 -0.8088 -0.2843
  132OSM    H5F14317   3.537   2.697   5.715  0.2021 -0.8862 -0.7173
  132OSM    H5G14318   3.681   2.743   5.800 -1.1521 -1.5626  1.3709
  132OSM    C6F14319   3.572   2.902   5.695  0.3073 -0.4716 -0.6898
  132OSM    H6F14320   3.611   2.986   5.755 -1.9519  0.4486 -0.4272
  132OSM    H6G14321   3.468   2.930   5.670  0.8008 -1.2416 -4.2960
  132OSM    C7F14322   3.655   2.876   5.576 -0.6747 -0.2714 -0.3366
  132OSM    H7F14323   3.605   2.796   5.518 -2.8350  0.2012  0.7579
  132OSM    H7G14324   3.755   2.841   5.609  0.7693  0.9070 -3.1621
  132OSM    C8F14325   3.674   2.999   5.485 -0.5418 -0.0998 -0.1268
  132OSM    H8F14326   3.736   3.073   5.540  0.3193 -0.6950 -0.2766
  132OSM    H8G14327   3.572   3.035   5.462 -0.1701  1.2896  0.2776
  132OSM    C9F14328   3.758   2.959   5.358  0.8798  0.5234 -0.2506
  132OSM    H9F14329   3.699   2.954   5.265 -1.4302 -1.9603  1.2158
  132OSM   C10F14330   3.892   2.937   5.349  0.5894 -0.1428 -0.9379
  132OSM   H10F14331   3.932   2.910   5.250 -0.9750 -1.5787 -1.2227
  132OSM   C11F14332   3.999   2.954   5.458 -0.2362  0.3623  0.0765
  132OSM   H11F14333   4.064   2.864   5.460  1.7199  1.5162 -3.3507
  132OSM   H11G14334   3.963   2.979   5.560 -2.0965  0.0364 -0.4512
  132OSM   C12F14335   4.085   3.072   5.416  0.4869 -0.1651  0.7186
  132OSM   H12F14336   4.142   3.107   5.505  2.1303 -1.0354  0.0496
  132OSM   H12G14337   4.027   3.163   5.389  2.4884  0.9406 -0.1483
  132OSM   C13F14338   4.184   3.032   5.302  0.4368  0.5735 -0.1038
  132OSM   H13F14339   4.127   2.984   5.219  0.0905  0.2038  0.3457
  132OSM   H13G14340   4.263   2.964   5.341  0.3948  0.8105  0.4012
  132OSM   C14F14341   4.272   3.147   5.247  0.1114  0.3843 -0.9216
  132OSM   H14F14342   4.353   3.107   5.183  0.8797  0.3128  0.0753
  132OSM   H14G14343   4.328   3.210   5.319 -2.0615  2.7266 -1.1492
  132OSM   C15F14344   4.188   3.247   5.154  0.0069 -0.3473 -0.6893
  132OSM   H15F14345   4.119   3.302   5.222  2.5237  1.5410  0.5149
  132OSM   H15G14346   4.129   3.185   5.084 -3.2417 -0.1839  1.6620
  132OSM   C16F14347   4.262   3.356   5.071  0.4143 -0.6880 -0.3015
  132OSM   H16F14348   4.344   3.391   5.137  0.8487 -0.4975 -0.9392
  132OSM   H16G14349   4.186   3.435   5.052 -0.5081 -1.5794 -0.4493
  132OSM   C17F14350   4.315   3.308   4.940 -0.2401  0.2617 -0.3245
  132OSM   H17F14351   4.231   3.274   4.875 -0.4685  1.0378 -0.4441
  132OSM   H17G14352   4.383   3.221   4.948 -1.0584 -0.4760 -1.1197
  132OSM   C18F14353   4.381   3.421   4.856 -0.1675 -0.4365  0.4179
  132OSM   H18F14354   4.410   3.382   4.756  0.4741  3.1344 -0.9370
  132OSM   H18G14355   4.475   3.459   4.902 -0.1728  1.4895 -1.0539
  132OSM   H18H14356   4.314   3.510   4.855  1.2625  0.6876  0.6884
  133OSM      N14357   2.925   4.303   6.517 -0.6717 -0.0945  0.4471
  133OSM    C1514358   3.058   4.262   6.569 -0.4374  0.2630 -0.8395
  133OSM   H15A14359   3.081   4.281   6.672 -1.4013  2.6050 -1.0032
  133OSM   H15B14360   3.139   4.294   6.505 -1.1496  1.6841 -1.0624
  133OSM   H15C14361   3.059   4.154   6.564  0.0644  0.3004 -4.1989
  133OSM    C1414362   2.881   4.195   6.431 -0.5501 -0.1054 -0.6425
  133OSM   H14A14363   2.790   4.221   6.379 -0.5470  1.3919  0.0365
  133OSM   H14B14364   2.854   4.112   6.495  1.0728  0.1641  0.4577
  133OSM   H14C14365   2.948   4.162   6.354 -0.4295 -0.6939 -0.2873
  133OSM    C1314366   2.833   4.315   6.627  0.7700  0.1692 -0.9798
  133OSM   H13A14367   2.880   4.356   6.715  0.0815  1.2643 -1.1057
  133OSM   H13B14368   2.815   4.214   6.659  0.1022  0.4982 -0.2965
  133OSM   H13C14369   2.734   4.349   6.599  0.8761  0.3970 -1.0817
  133OSM    C1214370   2.935   4.433   6.435 -0.6010 -0.1895  0.2534
  133OSM   H12A14371   2.995   4.415   6.347  1.7291  0.3029  1.6506
  133OSM   H12B14372   3.004   4.496   6.490  0.1843 -1.1435  0.3989
  133OSM    C1114373   2.815   4.518   6.405 -0.5509 -0.5688 -0.3518
  133OSM   H11A14374   2.839   4.606   6.340 -1.3319 -0.0981 -0.0099
  133OSM   H11B14375   2.777   4.553   6.503  0.1019 -2.4320  0.6076
  133OSM      P14376   2.577   4.483   6.313 -0.1249  0.3496  0.5491
  133OSM    O1314377   2.509   4.356   6.278 -0.4024 -0.6331  0.1689
  133OSM    O1414378   2.534   4.578   6.414  0.7707  0.5096 -0.0389
  133OSM    O1114379   2.580   4.576   6.187  0.4389  0.1985  0.5794
  133OSM    O1214380   2.727   4.441   6.348  0.6636  0.3613  0.0784
  133OSM    C1S14381   2.644   4.518   6.067 -0.2560 -0.4294 -0.4690
  133OSM    H1S14382   2.586   4.440   6.012  0.0326 -0.8696 -0.1511
  133OSM    H1T14383   2.740   4.471   6.096  0.4326  0.9331 -0.4649
  133OSM     NF14384   2.778   4.573   5.857 -0.3900 -0.6578 -0.0967
  133OSM    HNF14385   2.877   4.588   5.858 -0.4900  0.0694 -0.4237
  133OSM    C2S14386   2.690   4.631   5.957  0.4879  0.1249 -0.6735
  133OSM    H2S14387   2.592   4.659   5.912 -1.0027  1.0828  2.8553
  133OSM    C3S14388   2.735   4.772   6.023  0.3364  1.3039  0.1252
  133OSM    H3S14389   2.823   4.748   6.087  1.6434 -0.5216 -2.1831
  133OSM     O314390   2.635   4.823   6.115 -0.8695  0.1029  0.0692
  133OSM    HO314391   2.598   4.742   6.151  1.8528 -1.1978  0.2297
  133OSM    C4S14392   2.763   4.878   5.925  0.0638 -0.1336  0.0572
  133OSM    H4S14393   2.680   4.947   5.902  1.4276  1.2463 -0.9244
  133OSM    C5S14394   2.886   4.914   5.892  0.0023 -0.1989  0.0310
  133OSM    H5S14395   2.975   4.865   5.932 -0.6703 -2.4297 -1.0276
  133OSM    C6S14396   2.926   5.022   5.795  0.2953  0.2761 -0.2237
  133OSM    H6S14397   3.017   4.980   5.747 -1.5478 -1.5101 -2.4221
  133OSM    H6T14398   2.956   5.108   5.859  1.6296 -0.2859 -0.0596
  133OSM    C7S14399   2.817   5.075   5.704 -0.1384  0.2910 -0.1674
  133OSM    H7S14400   2.862   5.156   5.642  0.2584  2.5865  2.8687
  133OSM    H7T14401   2.749   5.132   5.771  0.2637  1.5407 -0.7800
  133OSM    C8S14402   2.736   4.985   5.615 -0.1994  0.1924  0.6427
  133OSM    H8S14403   2.632   5.023   5.614 -0.9810 -1.8317 -0.3783
  133OSM    H8T14404   2.724   4.886   5.664 -1.0610  0.6845  1.4420
  133OSM    C9S14405   2.788   4.971   5.467  0.2136 -0.0901  0.0292
  133OSM    H9S14406   2.891   4.932   5.481  0.9501  1.1109 -1.6959
  133OSM    H9T14407   2.800   5.075   5.429 -1.4370 -0.7083 -2.4694
  133OSM   C10S14408   2.717   4.884   5.365 -0.0408  0.0527 -0.1203
  133OSM   H10S14409   2.607   4.880   5.382 -0.0502  1.0913  0.1277
  133OSM   H10T14410   2.751   4.781   5.391 -0.6458 -0.2403 -0.4659
  133OSM   C11S14411   2.744   4.930   5.226  0.3410  0.4882  0.0807
  133OSM   H11S14412   2.702   4.857   5.153 -0.1445  0.8411  0.0071
  133OSM   H11T14413   2.855   4.917   5.219  0.0916 -2.0126 -0.1396
  133OSM   C12S14414   2.704   5.073   5.195 -0.0026  0.0772 -0.4982
  133OSM   H12S14415   2.756   5.148   5.260 -1.2463  0.9067 -0.4354
  133OSM   H12T14416   2.596   5.089   5.213  0.4565  0.5432  2.3213
  133OSM   C13S14417   2.741   5.131   5.059  0.1959 -0.1423  0.5501
  133OSM   H13S14418   2.852   5.129   5.056  0.3229 -1.2636  3.0582
  133OSM   H13T14419   2.705   5.236   5.054  0.7282 -0.0158 -1.5967
  133OSM   C14S14420   2.682   5.057   4.933 -0.8425  0.3168 -0.3212
  133OSM   H14S14421   2.572   5.042   4.931 -1.0833  0.9221  2.8111
  133OSM   H14T14422   2.717   4.952   4.921  0.2141  0.7132 -0.7660
  133OSM   C15S14423   2.703   5.133   4.799 -0.4287 -0.0724  0.4656
  133OSM   H15S14424   2.811   5.160   4.799  0.3831 -2.7520  3.3193
  133OSM   H15T14425   2.650   5.231   4.803  1.0578  0.7354  1.2356
  133OSM   C16S14426   2.678   5.057   4.669  0.2171 -0.2143 -0.1390
  133OSM   H16S14427   2.599   4.982   4.689  1.3481 -1.5492 -0.5446
  133OSM   H16T14428   2.769   4.999   4.645  1.1546  0.3268  1.8523
  133OSM   C17S14429   2.617   5.150   4.570  0.4489 -0.0637 -0.5086
  133OSM   H17S14430   2.702   5.219   4.551  0.7846  0.2631  1.9091
  133OSM   H17T14431   2.532   5.208   4.611 -0.4447 -0.5515 -1.6312
  133OSM   C18S14432   2.564   5.089   4.438  0.4371 -1.0333  0.7059
  133OSM   H18S14433   2.498   5.005   4.467  0.8089 -0.6658  2.7353
  133OSM   H18T14434   2.651   5.039   4.389 -0.0048 -0.9032 -0.2468
  133OSM   H18U14435   2.526   5.166   4.366  0.8780 -1.6630 -0.2290
  133OSM    C1F14436   2.726   4.500   5.758  0.0557  0.6089 -0.3248
  133OSM     OF14437   2.607   4.481   5.760  0.2969  0.0159 -0.5733
  133OSM    C2F14438   2.802   4.451   5.636  0.6191 -0.0645 -0.1680
  133OSM    H2F14439   2.741   4.376   5.581  2.8670 -0.5735 -2.1238
  133OSM    H2G14440   2.900   4.414   5.671  1.9344  2.6722 -0.6850
  133OSM    C3F14441   2.830   4.561   5.536 -0.0704  1.1318  0.0292
  133OSM    H3F14442   2.893   4.638   5.586  1.1694  0.2490 -0.1301
  133OSM    H3G14443   2.730   4.608   5.519 -0.4876 -0.0136 -0.8325
  133OSM    C4F14444   2.905   4.520   5.408 -0.8457 -0.6901 -0.4323
  133OSM    H4F14445   2.959   4.423   5.416  0.1733 -0.1837 -0.9684
  133OSM    H4G14446   2.982   4.592   5.376 -0.2406 -0.8213  0.6889
  133OSM    C5F14447   2.804   4.506   5.296 -0.3141  0.2243  0.3379
  133OSM    H5F14448   2.751   4.599   5.269  1.3389  0.8532 -0.8814
  133OSM    H5G14449   2.722   4.441   5.335  2.0663 -1.3327  3.1855
  133OSM    C6F14450   2.866   4.458   5.164 -0.3034  0.8026  0.4593
  133OSM    H6F14451   2.932   4.370   5.183 -1.0286  0.3373  0.8705
  133OSM    H6G14452   2.917   4.546   5.121  0.0552  0.1731 -0.4271
  133OSM    C7F14453   2.755   4.407   5.065 -0.5392 -0.5819 -0.2617
  133OSM    H7F14454   2.689   4.341   5.126 -1.4220  0.3208 -0.2313
  133OSM    H7G14455   2.787   4.350   4.974 -1.9525  0.8075 -1.6795
  133OSM    C8F14456   2.669   4.522   5.012  0.3606 -1.2276 -0.1454
  133OSM    H8F14457   2.645   4.583   5.102 -0.5946  0.4522 -1.4840
  133OSM    H8G14458   2.568   4.489   4.977 -0.3817 -2.7765  3.0301
  133OSM    C9F14459   2.739   4.626   4.917 -0.3561 -0.0265 -0.0045
  133OSM    H9F14460   2.776   4.714   4.971  1.7724  0.8217 -2.6523
  133OSM   C10F14461   2.722   4.637   4.784 -0.0570  0.1799  0.3255
  133OSM   H10F14462   2.786   4.707   4.730 -0.3818 -0.3697 -0.8090
  133OSM   C11F14463   2.660   4.534   4.698  0.3963 -0.6449 -0.0496
  133OSM   H11F14464   2.608   4.457   4.759  0.6530 -0.1995  0.7543
  133OSM   H11G14465   2.725   4.472   4.632  0.3594 -0.8279  0.0848
  133OSM   C12F14466   2.568   4.607   4.598  1.0988  0.0786  0.0608
  133OSM   H12F14467   2.499   4.664   4.664  1.3418  0.3642  0.0698
  133OSM   H12G14468   2.506   4.529   4.548  0.7284 -0.6658  1.6164
  133OSM   C13F14469   2.633   4.698   4.490 -0.3603  0.5217 -0.6133
  133OSM   H13F14470   2.698   4.770   4.545 -1.7682  0.5701  1.0767
  133OSM   H13G14471   2.550   4.753   4.441  0.0668 -1.0532 -3.3185
  133OSM   C14F14472   2.709   4.627   4.377  0.3327  0.0871  0.0064
  133OSM   H14F14473   2.641   4.552   4.331  0.5326 -0.2581  0.2668
  133OSM   H14G14474   2.798   4.571   4.415 -0.3697 -0.2571  1.1718
  133OSM   C15F14475   2.746   4.728   4.266  0.2075 -0.4780  0.4517
  133OSM   H15F14476   2.819   4.794   4.317  0.7326  0.0942 -0.9826
  133OSM   H15G14477   2.662   4.780   4.216 -0.5203 -0.5114  1.6124
  133OSM   C16F14478   2.818   4.658   4.153 -0.0177  0.0722  0.3684
  133OSM   H16F14479   2.762   4.581   4.096  1.7738 -0.2825 -1.0217
  133OSM   H16G14480   2.903   4.601   4.196 -0.9961 -0.3664  1.7806
  133OSM   C17F14481   2.864   4.762   4.050 -0.9263 -0.4996  0.3387
  133OSM   H17F14482   2.931   4.709   3.980 -0.6873  0.3991 -0.1236
  133OSM   H17G14483   2.925   4.846   4.089  0.2085 -0.9521 -0.4266
  133OSM   C18F14484   2.758   4.818   3.949  0.1036  0.0954  0.1737
  133OSM   H18F14485   2.713   4.725   3.908  1.5062  0.0576 -1.3482
  133OSM   H18G14486   2.804   4.883   3.872 -0.7748 -0.3709 -0.7874
  133OSM   H18H14487   2.680   4.878   4.001 -0.4266 -1.0432  0.7502
  134OSM      N14488   3.947   1.378   6.679  0.5907  0.3400 -0.9079
  134OSM    C1514489   4.025   1.487   6.745 -0.5337  0.3610 -0.4576
  134OSM   H15A14490   4.006   1.584   6.702  0.9938  0.0564 -1.8897
  134OSM   H15B14491   4.131   1.477   6.728  0.1854  0.0663  3.2855
  134OSM   H15C14492   4.002   1.487   6.851 -1.2816  1.0757 -0.6125
  134OSM    C1414493   3.994   1.244   6.734  0.7004 -0.4302  0.3291
  134OSM   H14A14494   4.090   1.218   6.692 -0.3220 -1.7005 -1.3455
  134OSM   H14B14495   3.928   1.163   6.707  0.9749 -1.2262  1.9500
  134OSM   H14C14496   4.004   1.241   6.841  0.6290 -0.9307  0.3217
  134OSM    C1314497   3.798   1.392   6.713 -0.5672  0.2381 -0.5978
  134OSM   H13A14498   3.739   1.328   6.649 -0.0036 -0.9762  0.0798
  134OSM   H13B14499   3.767   1.494   6.697  0.3805  0.4086 -1.4187
  134OSM   H13C14500   3.788   1.365   6.817  0.8869  1.6765 -0.0545
  134OSM    C1214501   3.966   1.375   6.527  0.4705 -0.5124 -0.0931
  134OSM   H12A14502   4.071   1.395   6.511  1.3840 -3.6652  1.2819
  134OSM   H12B14503   3.917   1.461   6.485  0.9837  0.0442  0.4317
  134OSM    C1114504   3.911   1.255   6.442 -0.0390 -0.8313 -0.1621
  134OSM   H11A14505   3.946   1.164   6.495  0.4291 -1.0131 -0.7643
  134OSM   H11B14506   3.964   1.243   6.345  2.4777 -0.3186  1.0618
  134OSM      P14507   3.686   1.176   6.336  0.1150 -0.2910 -0.4882
  134OSM    O1314508   3.724   1.039   6.362  0.4402 -0.1280 -0.8235
  134OSM    O1414509   3.542   1.218   6.349 -0.0006 -0.0329 -0.1589
  134OSM    O1114510   3.746   1.231   6.205 -0.0477 -0.0502 -0.4399
  134OSM    O1214511   3.764   1.266   6.441 -0.2444  0.0240 -0.0991
  134OSM    C1S14512   3.646   1.283   6.110  0.4757  0.4710  0.2523
  134OSM    H1S14513   3.600   1.379   6.142 -2.6507 -1.0870  0.8285
  134OSM    H1T14514   3.563   1.211   6.091 -0.4584  1.7424 -0.6477
  134OSM     NF14515   3.605   1.364   5.876 -0.1939 -0.0444 -1.0212
  134OSM    HNF14516   3.568   1.306   5.804  1.0503 -0.6288 -1.2277
  134OSM    C2S14517   3.706   1.305   5.966 -0.1594  0.0221 -0.3634
  134OSM    H2S14518   3.787   1.380   5.978 -0.0631 -0.4738  2.7001
  134OSM    C3S14519   3.772   1.166   5.916  0.0980 -0.3635 -0.5200
  134OSM    H3S14520   3.684   1.102   5.895 -0.7046  0.5328  0.0168
  134OSM     O314521   3.858   1.102   6.007  0.1281 -0.0947 -0.4534
  134OSM    HO314522   3.837   1.149   6.088  3.4457  0.5413  0.1586
  134OSM    C4S14523   3.841   1.192   5.786 -0.0302 -0.2231  0.4300
  134OSM    H4S14524   3.770   1.170   5.705  1.5007  0.3310 -1.1141
  134OSM    C5S14525   3.975   1.190   5.763 -0.0696  0.6285  0.7463
  134OSM    H5S14526   4.045   1.174   5.846 -0.2175  2.0414  1.1726
  134OSM    C6S14527   4.028   1.191   5.625 -0.6201  0.8206 -0.2947
  134OSM    H6S14528   4.071   1.091   5.604 -2.0448  0.2384 -0.5184
  134OSM    H6T14529   4.110   1.263   5.647  0.8351 -1.5201  2.7907
  134OSM    C7S14530   3.935   1.226   5.521 -0.1952 -0.9708 -0.0270
  134OSM    H7S14531   3.878   1.319   5.544  0.5321 -0.8814  1.5363
  134OSM    H7T14532   3.859   1.145   5.511  0.3428 -1.8464  2.4526
  134OSM    C8S14533   4.006   1.245   5.388 -0.3648  0.4692 -0.3226
  134OSM    H8S14534   4.090   1.172   5.379  0.3149  0.7710  2.3847
  134OSM    H8T14535   4.053   1.346   5.389 -1.5572  1.0357  0.3325
  134OSM    C9S14536   3.913   1.226   5.270  0.1128 -1.1377 -0.1999
  134OSM    H9S14537   3.834   1.304   5.281  1.3240  0.3773 -1.7411
  134OSM    H9T14538   3.866   1.125   5.272  0.6303 -1.4326 -1.7093
  134OSM   C10S14539   3.974   1.225   5.129 -0.1618 -0.1858 -0.3098
  134OSM   H10S14540   4.044   1.140   5.114  0.6913  0.7138 -1.5751
  134OSM   H10T14541   4.027   1.322   5.121  0.3482 -0.4722 -0.4531
  134OSM   C11S14542   3.866   1.225   5.025 -0.2037 -0.1950  0.1154
  134OSM   H11S14543   3.796   1.309   5.043 -0.2129 -0.3452  0.8129
  134OSM   H11T14544   3.805   1.134   5.039 -0.0916 -0.0275  1.8459
  134OSM   C12S14545   3.919   1.224   4.883  0.0419 -1.1351 -0.0657
  134OSM   H12S14546   3.832   1.225   4.815 -0.1766 -0.4099  0.2115
  134OSM   H12T14547   3.986   1.137   4.866  1.2488 -0.6423  1.8105
  134OSM   C13S14548   4.007   1.343   4.860  0.0601 -0.4493 -0.4027
  134OSM   H13S14549   4.095   1.339   4.928  0.4473  2.3129 -0.6019
  134OSM   H13T14550   3.966   1.442   4.889  1.5373 -0.0946  0.5764
  134OSM   C14S14551   4.077   1.328   4.723 -0.7075  0.2765 -0.0293
  134OSM   H14S14552   4.117   1.225   4.728 -0.7431  0.3112  1.2303
  134OSM   H14T14553   4.162   1.399   4.712 -2.3855  2.4591  0.2067
  134OSM   C15S14554   3.982   1.332   4.604  0.6137 -0.1126  0.5173
  134OSM   H15S14555   3.879   1.324   4.645  0.2423  1.2110 -0.1013
  134OSM   H15T14556   4.010   1.245   4.540  0.2337  0.1255  0.0248
  134OSM   C16S14557   3.974   1.464   4.529 -0.4256 -0.2605  0.1884
  134OSM   H16S14558   4.075   1.483   4.485 -1.3433  0.3422 -1.7583
  134OSM   H16T14559   3.947   1.550   4.594 -2.4466  0.3169 -1.3260
  134OSM   C17S14560   3.873   1.465   4.409  0.2491 -0.2733  0.2640
  134OSM   H17S14561   3.769   1.462   4.448  0.1952 -1.6695  0.0367
  134OSM   H17T14562   3.887   1.373   4.349 -2.2403 -0.9306  0.5566
  134OSM   C18S14563   3.881   1.596   4.321 -0.7658 -0.1966 -0.0445
  134OSM   H18S14564   3.794   1.610   4.254 -1.2366  0.0938  0.6189
  134OSM   H18T14565   3.975   1.592   4.262  1.0073 -0.7146  2.6362
  134OSM   H18U14566   3.880   1.685   4.387  0.5749 -1.0456  1.1891
  134OSM    C1F14567   3.557   1.485   5.894  0.4751 -0.9089 -0.0333
  134OSM     OF14568   3.605   1.563   5.984  0.2734  0.0392  0.6421
  134OSM    C2F14569   3.439   1.525   5.816 -0.5591 -0.0520 -0.1156
  134OSM    H2F14570   3.402   1.625   5.849  1.2200  0.1705  1.3553
  134OSM    H2G14571   3.361   1.449   5.837 -0.1383 -0.6489 -0.7018
  134OSM    C3F14572   3.451   1.522   5.661 -0.3158  0.4689 -0.5140
  134OSM    H3F14573   3.491   1.423   5.630 -0.7928 -0.7233  2.3187
  134OSM    H3G14574   3.521   1.600   5.624 -0.7208  0.0537 -2.2184
  134OSM    C4F14575   3.321   1.542   5.584  0.4690 -0.6759 -0.0696
  134OSM    H4F14576   3.258   1.617   5.636  0.2952 -1.4206  0.8064
  134OSM    H4G14577   3.262   1.448   5.582 -0.3447 -0.1950  0.5235
  134OSM    C5F14578   3.337   1.584   5.438  1.0563  0.4003  0.0114
  134OSM    H5F14579   3.425   1.650   5.421 -1.2760  2.9801 -3.3432
  134OSM    H5G14580   3.265   1.654   5.391  0.8412  0.3136  0.2089
  134OSM    C6F14581   3.339   1.454   5.360  0.2919 -0.3406  0.0433
  134OSM    H6F14582   3.231   1.434   5.342  0.5954 -0.1297 -2.3946
  134OSM    H6G14583   3.383   1.358   5.397 -2.1704 -2.0665 -1.2350
  134OSM    C7F14584   3.397   1.487   5.221  0.6399  0.0714 -0.3030
  134OSM    H7F14585   3.504   1.513   5.233  0.6837 -0.1599 -0.1845
  134OSM    H7G14586   3.341   1.579   5.194 -0.3452 -0.4059  0.0653
  134OSM    C8F14587   3.392   1.379   5.114  0.1905 -0.4346  0.0514
  134OSM    H8F14588   3.286   1.354   5.096 -0.5942  1.9173  1.0404
  134OSM    H8G14589   3.444   1.294   5.163  1.7163  1.0124  1.0995
  134OSM    C9F14590   3.478   1.420   4.998 -0.6107  0.1127 -0.4014
  134OSM    H9F14591   3.581   1.385   5.013 -1.3370 -1.6237  0.8507
  134OSM   C10F14592   3.438   1.488   4.892 -0.1679 -0.5404  0.3115
  134OSM   H10F14593   3.511   1.535   4.825 -0.7974  0.9808  0.6563
  134OSM   C11F14594   3.301   1.539   4.873 -0.3963 -0.3500  0.2495
  134OSM   H11F14595   3.304   1.635   4.816  0.5417 -1.6205 -1.9652
  134OSM   H11G14596   3.245   1.560   4.966 -0.8129  2.5797 -0.5560
  134OSM   C12F14597   3.205   1.443   4.792 -0.9039 -0.0980 -0.3060
  134OSM   H12F14598   3.244   1.419   4.691  0.3589  2.5636 -0.5242
  134OSM   H12G14599   3.119   1.509   4.770 -1.0163  0.5531  1.8732
  134OSM   C13F14600   3.157   1.316   4.866 -0.5546 -0.0398 -0.2270
  134OSM   H13F14601   3.105   1.336   4.962 -1.0679 -1.8106 -0.1003
  134OSM   H13G14602   3.251   1.268   4.902 -2.1367 -1.0430  2.9231
  134OSM   C14F14603   3.077   1.224   4.782  0.5218  0.0310  0.4042
  134OSM   H14F14604   2.988   1.271   4.735 -0.7673 -0.1143  2.5472
  134OSM   H14G14605   3.026   1.154   4.853  1.8973 -0.6588  0.7488
  134OSM   C15F14606   3.162   1.134   4.697 -0.2446 -0.6551  0.3285
  134OSM   H15F14607   3.210   1.070   4.774  1.5915  0.5946  0.2845
  134OSM   H15G14608   3.231   1.194   4.634 -2.3626  0.4286 -1.0999
  134OSM   C16F14609   3.081   1.049   4.599  0.2631  0.7230 -0.0564
  134OSM   H16F14610   2.997   1.107   4.556  0.4994  0.5678 -0.7413
  134OSM   H16G14611   3.030   0.959   4.640 -0.9169  0.6894 -1.5255
  134OSM   C17F14612   3.172   0.995   4.488 -0.2843  0.6640  0.3793
  134OSM   H17F14613   3.264   0.947   4.527  0.7321  2.1269 -0.1206
  134OSM   H17G14614   3.197   1.079   4.421 -1.9754 -0.6813 -2.0829
  134OSM   C18F14615   3.095   0.892   4.398  0.3044  0.0545 -0.3897
  134OSM   H18F14616   3.140   0.870   4.298  0.0202 -1.2804 -0.2428
  134OSM   H18G14617   2.990   0.924   4.381  0.0697 -0.8432 -0.6968
  134OSM   H18H14618   3.077   0.792   4.443  0.0443  0.0026 -0.6085
  135OSM      N14619   2.844   5.585   6.802 -0.3490  0.6123  0.0299
  135OSM    C1514620   2.924   5.556   6.923  0.7299 -0.5242 -0.3441
  135OSM   H15A14621   2.864   5.584   7.009  1.0857 -0.0605 -0.2450
  135OSM   H15B14622   3.019   5.606   6.918  1.0459 -1.2291 -1.6812
  135OSM   H15C14623   2.939   5.451   6.945 -1.0432 -0.5122  1.1971
  135OSM    C1414624   2.908   5.514   6.685  0.0384  0.9802 -0.4518
  135OSM   H14A14625   2.946   5.415   6.706  0.2190  1.0093 -0.6387
  135OSM   H14B14626   2.991   5.567   6.641 -0.2009  0.0105 -2.2031
  135OSM   H14C14627   2.850   5.503   6.594  0.5118 -0.6907 -0.5953
  135OSM    C1314628   2.709   5.523   6.817  0.4811 -0.1045 -0.2821
  135OSM   H13A14629   2.669   5.518   6.717  0.9304  1.8217 -0.6082
  135OSM   H13B14630   2.649   5.591   6.876  0.3048 -1.0967  0.7101
  135OSM   H13C14631   2.713   5.424   6.861  0.6152  0.3254  0.7137
  135OSM    C1214632   2.841   5.730   6.764 -0.2316  0.1340  0.3175
  135OSM   H12A14633   2.937   5.779   6.754 -0.8395  1.6216  1.4611
  135OSM   H12B14634   2.784   5.788   6.836  1.3175  3.3222 -0.8427
  135OSM    C1114635   2.760   5.751   6.630  0.9439  0.7024  0.2972
  135OSM   H11A14636   2.679   5.676   6.618  1.6161  0.1021 -0.7031
  135OSM   H11B14637   2.827   5.739   6.542  0.4979 -1.5509  0.2092
  135OSM      P14638   2.777   5.997   6.545 -0.0651 -0.1532  0.3090
  135OSM    O1314639   2.733   6.132   6.592 -0.0216  0.2538 -0.7897
  135OSM    O1414640   2.919   5.971   6.535 -0.3269  0.1215 -0.0649
  135OSM    O1114641   2.716   5.969   6.402  0.1016 -0.2954  0.2113
  135OSM    O1214642   2.710   5.886   6.636 -1.0910  0.3516  0.0494
  135OSM    C1S14643   2.574   5.956   6.388 -0.3371  0.0524  0.5344
  135OSM    H1S14644   2.524   6.043   6.438  0.4362  1.2552 -0.7142
  135OSM    H1T14645   2.533   5.865   6.435 -0.5766  0.3708  0.9516
  135OSM     NF14646   2.394   5.950   6.214 -0.2703  0.7610 -0.4526
  135OSM    HNF14647   2.350   5.869   6.176 -0.2950  0.7557 -0.4124
  135OSM    C2S14648   2.536   5.949   6.234  0.0311  0.4700 -0.1962
  135OSM    H2S14649   2.588   6.043   6.204  1.2645  0.4905  1.8514
  135OSM    C3S14650   2.614   5.828   6.162  1.0039 -0.6999 -0.3703
  135OSM    H3S14651   2.565   5.734   6.195  1.1104 -0.7274 -0.2913
  135OSM     O314652   2.747   5.810   6.206 -0.0036  0.2455  0.6855
  135OSM    HO314653   2.765   5.868   6.280 -1.2054  2.0689 -0.3674
  135OSM    C4S14654   2.593   5.816   6.014 -0.1795  0.8788 -1.0155
  135OSM    H4S14655   2.501   5.760   5.987 -1.6157  2.4087  0.4336
  135OSM    C5S14656   2.680   5.839   5.919  0.1721  0.2741 -0.1832
  135OSM    H5S14657   2.782   5.856   5.958 -0.9894 -0.9099  3.8870
  135OSM    C6S14658   2.657   5.828   5.781 -0.2237  0.9020  0.6223
  135OSM    H6S14659   2.712   5.736   5.750 -0.6646  0.6923  0.4535
  135OSM    H6T14660   2.699   5.917   5.729 -0.0763  2.2515  2.9009
  135OSM    C7S14661   2.509   5.822   5.731 -0.4639 -0.1007  0.6724
  135OSM    H7S14662   2.455   5.908   5.776  1.1429  0.9950  0.5957
  135OSM    H7T14663   2.465   5.734   5.782 -2.9277  0.5634 -0.1797
  135OSM    C8S14664   2.495   5.823   5.577  0.1862  0.0033 -0.2402
  135OSM    H8S14665   2.523   5.915   5.520 -1.4975  0.5840 -0.1871
  135OSM    H8T14666   2.388   5.830   5.548 -0.1176  0.0757  0.8746
  135OSM    C9S14667   2.564   5.704   5.514 -0.1467 -0.2047  0.7462
  135OSM    H9S14668   2.508   5.619   5.559 -1.4961 -0.3449 -1.0536
  135OSM    H9T14669   2.672   5.689   5.535 -0.0118  1.1398  1.1010
  135OSM   C10S14670   2.543   5.689   5.365  0.1168 -0.9944 -0.2680
  135OSM   H10S14671   2.436   5.680   5.340 -0.4884  1.4915  1.0518
  135OSM   H10T14672   2.585   5.596   5.321  2.8270 -0.4350  0.8931
  135OSM   C11S14673   2.597   5.804   5.271 -0.1818  0.1870  0.1394
  135OSM   H11S14674   2.689   5.840   5.322  0.3665 -1.7947  0.6364
  135OSM   H11T14675   2.541   5.897   5.295  1.2708  0.8704  0.9951
  135OSM   C12S14676   2.608   5.774   5.121  0.4777 -0.4469 -0.8809
  135OSM   H12S14677   2.688   5.696   5.115 -0.7300 -1.8617  0.5544
  135OSM   H12T14678   2.644   5.860   5.061  0.1230  0.7143  0.5125
  135OSM   C13S14679   2.476   5.718   5.060  1.0236 -0.3226  0.2305
  135OSM   H13S14680   2.399   5.788   5.099  0.4911  0.1244 -1.5067
  135OSM   H13T14681   2.460   5.619   5.106  0.5418  0.1939  1.2032
  135OSM   C14S14682   2.474   5.707   4.912 -0.0323  0.3623 -0.3912
  135OSM   H14S14683   2.496   5.811   4.881  1.0036  1.2317  2.9159
  135OSM   H14T14684   2.373   5.676   4.876  0.2617  0.3181 -1.2009
  135OSM   C15S14685   2.580   5.618   4.844  0.1708 -0.0065 -0.7459
  135OSM   H15S14686   2.573   5.512   4.878  0.3457 -0.3379 -1.7228
  135OSM   H15T14687   2.677   5.658   4.880  0.7642 -0.5384 -1.7138
  135OSM   C16S14688   2.568   5.621   4.689  0.4212 -0.5583  0.2451
  135OSM   H16S14689   2.573   5.727   4.656  0.7177 -0.9846 -1.1498
  135OSM   H16T14690   2.460   5.598   4.680  0.3425  0.0452 -0.4453
  135OSM   C17S14691   2.659   5.525   4.617 -0.1864 -0.1812 -0.2881
  135OSM   H17S14692   2.649   5.423   4.660 -0.9552  0.6541  1.6004
  135OSM   H17T14693   2.761   5.564   4.636 -0.1997 -0.4068  0.2550
  135OSM   C18S14694   2.636   5.516   4.462  0.1743 -0.7478  0.6038
  135OSM   H18S14695   2.712   5.442   4.428  0.4755 -0.2041  0.0711
  135OSM   H18T14696   2.663   5.613   4.416 -1.4603  0.2320  1.6214
  135OSM   H18U14697   2.532   5.485   4.440 -0.4410  0.9279  1.0615
  135OSM    C1F14698   2.324   6.051   6.247  0.1907 -0.7890 -0.0832
  135OSM     OF14699   2.378   6.156   6.282  0.6361  0.3116 -0.3858
  135OSM    C2F14700   2.182   6.039   6.239 -0.7541 -0.3391 -0.4316
  135OSM    H2F14701   2.135   6.070   6.335  0.6314 -0.8011  0.4215
  135OSM    H2G14702   2.168   5.930   6.228  2.3573 -1.1519  2.2464
  135OSM    C3F14703   2.130   6.135   6.126 -0.4007 -0.2091 -0.0658
  135OSM    H3F14704   2.174   6.237   6.129 -1.6183  0.3347 -0.0853
  135OSM    H3G14705   2.021   6.151   6.140 -0.4508  0.2115 -0.8660
  135OSM    C4F14706   2.147   6.069   5.992 -0.0306 -0.0509 -1.0676
  135OSM    H4F14707   2.254   6.064   5.961  0.6636 -0.9854  1.2544
  135OSM    H4G14708   2.117   5.963   6.011  1.8976 -0.5306 -0.4822
  135OSM    C5F14709   2.069   6.142   5.881  0.7753 -0.7064 -0.4142
  135OSM    H5F14710   2.088   6.251   5.888 -3.1776  0.0558  0.4208
  135OSM    H5G14711   1.962   6.156   5.908  0.9945  0.6005 -0.1833
  135OSM    C6F14712   2.090   6.090   5.741  0.9376  0.5681  0.2831
  135OSM    H6F14713   2.000   6.123   5.685  1.5551  0.4715 -0.7982
  135OSM    H6G14714   2.095   5.980   5.748  0.4540  0.4823 -0.5657
  135OSM    C7F14715   2.215   6.154   5.680  0.2574  0.4717  0.4760
  135OSM    H7F14716   2.295   6.129   5.752  0.3526 -2.8930 -0.6260
  135OSM    H7G14717   2.188   6.260   5.663  1.5013  0.6171 -0.7079
  135OSM    C8F14718   2.261   6.110   5.532  0.3158  0.3415 -0.0187
  135OSM    H8F14719   2.166   6.108   5.474  0.4298 -2.6187 -0.2538
  135OSM    H8G14720   2.277   6.001   5.539 -1.1659  0.1212  0.3212
  135OSM    C9F14721   2.382   6.187   5.481  0.3675  0.4470 -0.1009
  135OSM    H9F14722   2.454   6.203   5.563 -1.0698  0.8164  1.1500
  135OSM   C10F14723   2.403   6.224   5.355 -0.3705  0.6043  0.1698
  135OSM   H10F14724   2.498   6.277   5.339 -0.4712  0.7788  0.1511
  135OSM   C11F14725   2.310   6.196   5.234 -0.8931 -0.8402 -0.3959
  135OSM   H11F14726   2.260   6.291   5.206 -0.6879  0.2192  2.4974
  135OSM   H11G14727   2.229   6.121   5.250 -0.3518 -1.2463  0.5094
  135OSM   C12F14728   2.387   6.151   5.102  0.0612 -0.6456  0.6214
  135OSM   H12F14729   2.465   6.074   5.117  0.9726  0.2893  0.7818
  135OSM   H12G14730   2.450   6.232   5.059  0.7168 -0.9823  0.9393
  135OSM   C13F14731   2.276   6.116   4.996 -0.4880  0.5806  0.3622
  135OSM   H13F14732   2.200   6.196   4.986  0.6535  1.9179  1.8778
  135OSM   H13G14733   2.221   6.028   5.033  1.5861 -0.6167  0.7945
  135OSM   C14F14734   2.343   6.074   4.862 -0.6393 -0.2511 -0.8556
  135OSM   H14F14735   2.428   6.002   4.872  1.6222  2.0756 -2.2129
  135OSM   H14G14736   2.390   6.156   4.803  0.6296 -0.2246  0.1490
  135OSM   C15F14737   2.234   6.008   4.774  0.2154 -0.0581 -0.1964
  135OSM   H15F14738   2.162   6.085   4.739  1.0428  0.0198 -1.8610
  135OSM   H15G14739   2.178   5.922   4.819 -2.2077  0.0948 -2.6345
  135OSM   C16F14740   2.306   5.947   4.653  0.0378 -0.3914  0.0975
  135OSM   H16F14741   2.390   5.884   4.687  1.1904  0.4521 -1.0873
  135OSM   H16G14742   2.352   6.020   4.583  0.0742 -1.2996 -0.8618
  135OSM   C17F14743   2.202   5.871   4.575  0.3634  0.0094 -0.7729
  135OSM   H17F14744   2.111   5.934   4.578  0.3317 -0.0515  1.0561
  135OSM   H17G14745   2.168   5.778   4.627  1.9704  0.4187  1.1087
  135OSM   C18F14746   2.245   5.844   4.432 -0.2274  0.6489  0.6731
  135OSM   H18F14747   2.340   5.787   4.422  0.9191  1.8476  3.5660
  135OSM   H18G14748   2.253   5.930   4.363  1.4641 -0.7176 -0.9563
  135OSM   H18H14749   2.177   5.775   4.379  0.9915  0.0619 -0.1792
  136OSM      N14750   6.328   1.792   6.524  0.3025 -0.3438 -0.1197
  136OSM    C1514751   6.267   1.710   6.633 -0.0802  0.6427  0.4657
  136OSM   H15A14752   6.224   1.762   6.717  0.0886 -1.2018  1.7659
  136OSM   H15B14753   6.342   1.640   6.669 -1.2935 -1.4860 -0.8884
  136OSM   H15C14754   6.183   1.660   6.587  0.0235  2.2181 -1.5280
  136OSM    C1414755   6.454   1.850   6.577 -0.2742  0.4536 -0.3876
  136OSM   H14A14756   6.440   1.910   6.666 -1.9912 -2.3469  1.4015
  136OSM   H14B14757   6.495   1.921   6.507  0.0128  0.3675 -0.3048
  136OSM   H14C14758   6.517   1.765   6.599 -2.3509 -1.1369 -0.2623
  136OSM    C1314759   6.354   1.707   6.400  0.6167 -0.8737 -0.5688
  136OSM   H13A14760   6.382   1.773   6.319  0.2494 -0.5632 -0.4460
  136OSM   H13B14761   6.259   1.665   6.372 -0.0917  0.1835  0.1787
  136OSM   H13C14762   6.424   1.627   6.420 -1.4419 -2.1436  2.2935
  136OSM    C1214763   6.227   1.908   6.492 -0.9887  0.2865 -0.5213
  136OSM   H12A14764   6.219   1.966   6.583  0.4533 -0.2426 -0.0245
  136OSM   H12B14765   6.132   1.860   6.479  0.3616 -2.7273 -0.0716
  136OSM    C1114766   6.263   2.006   6.382  0.3090 -0.1471 -0.2947
  136OSM   H11A14767   6.174   2.073   6.376  0.8935  0.8129  1.0805
  136OSM   H11B14768   6.283   1.939   6.296  1.0410 -0.7336  0.3114
  136OSM      P14769   6.400   2.235   6.443  0.1409 -0.0409  0.2362
  136OSM    O1314770   6.332   2.283   6.564 -0.7774  0.5664 -0.1709
  136OSM    O1414771   6.541   2.267   6.443 -0.2648 -0.4467  0.3317
  136OSM    O1114772   6.324   2.290   6.315  0.3026 -0.0871 -0.5018
  136OSM    O1214773   6.381   2.080   6.421  0.0086 -0.1417  0.4411
  136OSM    C1S14774   6.407   2.334   6.206  0.3143 -0.6075  0.1243
  136OSM    H1S14775   6.512   2.323   6.240 -0.4078 -0.5783  2.4895
  136OSM    H1T14776   6.376   2.439   6.188  0.0415 -0.5146  1.0919
  136OSM     NF14777   6.466   2.289   5.974  0.6893 -0.2436 -0.0936
  136OSM    HNF14778   6.419   2.335   5.900 -0.1971 -1.8666 -0.5902
  136OSM    C2S14779   6.382   2.245   6.086 -0.0446  0.1680  0.3292
  136OSM    H2S14780   6.420   2.143   6.113  1.1740  0.7602  0.9427
  136OSM    C3S14781   6.233   2.231   6.057  0.3561 -0.4749  0.6730
  136OSM    H3S14782   6.198   2.333   6.033  3.1643  0.5920  0.7388
  136OSM     O314783   6.139   2.179   6.150  0.2775 -0.0154  0.0796
  136OSM    HO314784   6.180   2.200   6.234  0.7807  1.1811 -0.4548
  136OSM    C4S14785   6.210   2.148   5.933 -0.4623 -0.4262 -0.4992
  136OSM    H4S14786   6.230   2.203   5.840  0.7239  0.7437  0.3994
  136OSM    C5S14787   6.195   2.015   5.916  0.0450  0.1605 -0.4186
  136OSM    H5S14788   6.218   1.954   6.005  1.6377  2.7034  1.0618
  136OSM    C6S14789   6.190   1.939   5.785  1.0931 -0.3108 -0.2244
  136OSM    H6S14790   6.090   1.894   5.765  1.3483 -0.2995 -1.6296
  136OSM    H6T14791   6.258   1.851   5.791  0.8908 -0.3878  1.3647
  136OSM    C7S14792   6.235   2.010   5.654 -0.2309 -0.2978  0.1705
  136OSM    H7S14793   6.331   2.064   5.670 -0.4210  0.3778 -0.8317
  136OSM    H7T14794   6.162   2.091   5.631 -0.0433 -0.5808 -1.5897
  136OSM    C8S14795   6.247   1.910   5.541 -0.1389  0.2412 -0.5719
  136OSM    H8S14796   6.151   1.855   5.531  0.3949 -0.7885 -0.2652
  136OSM    H8T14797   6.331   1.842   5.566 -1.0222 -0.3696  0.8753
  136OSM    C9S14798   6.282   1.990   5.410 -0.1606  1.2606 -0.1360
  136OSM    H9S14799   6.386   2.027   5.421 -0.0115  0.4743  1.2328
  136OSM    H9T14800   6.226   2.086   5.400  1.6470  2.1725 -2.7660
  136OSM   C10S14801   6.300   1.912   5.279 -0.1201 -0.1325 -0.2155
  136OSM   H10S14802   6.202   1.864   5.259 -1.7230  2.9256 -0.3680
  136OSM   H10T14803   6.380   1.838   5.299  1.2924  1.1327 -0.9884
  136OSM   C11S14804   6.337   2.004   5.159 -0.2595 -0.2523  0.3117
  136OSM   H11S14805   6.427   2.062   5.188 -1.1934  1.6856 -0.5091
  136OSM   H11T14806   6.258   2.078   5.134  2.3513  1.8560 -2.5596
  136OSM   C12S14807   6.344   1.918   5.026  0.1380 -0.0593 -0.7508
  136OSM   H12S14808   6.243   1.872   5.021 -1.1178  1.7992  3.2351
  136OSM   H12T14809   6.417   1.836   5.041 -0.2843 -0.1692  0.8707
  136OSM   C13S14810   6.379   2.001   4.905  0.5856  0.0981  0.2366
  136OSM   H13S14811   6.477   2.050   4.924  0.2601  0.5780  0.6977
  136OSM   H13T14812   6.318   2.094   4.898  1.4319  0.7230  0.9799
  136OSM   C14S14813   6.379   1.918   4.778 -0.3311  0.7228  0.0143
  136OSM   H14S14814   6.288   1.854   4.780 -0.4400  0.7991 -1.5874
  136OSM   H14T14815   6.465   1.847   4.777  0.4237  1.6206 -0.2263
  136OSM   C15S14816   6.384   2.011   4.651  0.2935  0.5403  0.5985
  136OSM   H15S14817   6.482   2.063   4.659  1.0789 -0.9073  0.6927
  136OSM   H15T14818   6.308   2.091   4.660 -0.2445  0.4811 -2.4598
  136OSM   C16S14819   6.381   1.948   4.509  0.5984  0.3364  0.1327
  136OSM   H16S14820   6.281   1.902   4.491  1.8277 -1.5012 -2.7401
  136OSM   H16T14821   6.465   1.876   4.509  0.4292  0.1027 -1.3803
  136OSM   C17S14822   6.414   2.047   4.397  0.1007  0.4479  0.3303
  136OSM   H17S14823   6.411   2.003   4.295 -1.1182  1.8311 -0.2806
  136OSM   H17T14824   6.514   2.092   4.415  0.2385  0.3740 -0.2405
  136OSM   C18S14825   6.300   2.140   4.386 -0.0182  0.1040 -0.4137
  136OSM   H18S14826   6.278   2.181   4.486 -2.4360 -4.3224  1.1831
  136OSM   H18T14827   6.215   2.083   4.342 -2.6602  2.1607  1.6983
  136OSM   H18U14828   6.335   2.217   4.314  1.3077  1.3494  1.4815
  136OSM    C1F14829   6.597   2.262   5.965  0.3526  0.2325 -0.0780
  136OSM     OF14830   6.657   2.190   6.050 -0.0182 -0.7041  0.1583
  136OSM    C2F14831   6.670   2.329   5.849  0.1992  0.6259  0.6835
  136OSM    H2F14832   6.635   2.430   5.820 -0.4134  0.8695  2.1396
  136OSM    H2G14833   6.647   2.275   5.755  1.4687  0.5651  0.4012
  136OSM    C3F14834   6.823   2.333   5.867 -0.0787 -0.9773  0.6801
  136OSM    H3F14835   6.868   2.233   5.883  0.5997 -1.3458 -2.6870
  136OSM    H3G14836   6.840   2.408   5.947  2.0918 -0.9894  0.2702
  136OSM    C4F14837   6.882   2.387   5.732  0.0109 -0.2474 -0.0505
  136OSM    H4F14838   6.990   2.401   5.757  0.2479  1.0089 -1.5712
  136OSM    H4G14839   6.842   2.488   5.708  0.5525 -0.1251 -0.4884
  136OSM    C5F14840   6.858   2.302   5.606 -0.1115 -0.2955 -0.0999
  136OSM    H5F14841   6.752   2.310   5.576  0.2703  0.2804 -1.4076
  136OSM    H5G14842   6.881   2.195   5.625 -1.2620 -0.5149  0.1009
  136OSM    C6F14843   6.939   2.356   5.491  0.3539 -0.0059  0.2832
  136OSM    H6F14844   7.042   2.374   5.529  0.6160 -0.9071  0.0180
  136OSM    H6G14845   6.889   2.448   5.453 -1.3165 -0.3130  1.6335
  136OSM    C7F14846   6.947   2.255   5.367 -0.0251  0.4818 -1.0255
  136OSM    H7F14847   6.843   2.242   5.331  0.1279  0.9878 -1.6836
  136OSM    H7G14848   6.999   2.161   5.396 -1.1027 -0.1184 -0.9951
  136OSM    C8F14849   7.037   2.300   5.247  0.1988 -0.2097  0.0455
  136OSM    H8F14850   7.068   2.206   5.197 -1.2439 -0.5362 -0.2666
  136OSM    H8G14851   7.131   2.341   5.290  0.7944 -3.0714  1.7174
  136OSM    C9F14852   6.957   2.392   5.164 -0.6752 -0.1217  0.1943
  136OSM    H9F14853   6.952   2.497   5.198  1.5994 -0.1559  0.7579
  136OSM   C10F14854   6.881   2.355   5.058  0.0219  0.1266  0.3986
  136OSM   H10F14855   6.842   2.438   4.997 -1.2221  0.9643  2.2098
  136OSM   C11F14856   6.859   2.214   5.020  0.4886  1.0632 -0.0440
  136OSM   H11F14857   6.753   2.181   5.034  0.8215  0.3941  1.0567
  136OSM   H11G14858   6.931   2.142   5.065  0.8881  1.8215  0.5559
  136OSM   C12F14859   6.875   2.205   4.869  0.4970 -0.0201  0.4825
  136OSM   H12F14860   6.979   2.237   4.845  0.0882  1.1885  0.2420
  136OSM   H12G14861   6.806   2.281   4.827  0.6818 -0.1024  0.0328
  136OSM   C13F14862   6.844   2.067   4.815 -0.3067  1.2946 -1.0228
  136OSM   H13F14863   6.739   2.038   4.833  0.5514 -0.7491  1.3408
  136OSM   H13G14864   6.901   1.987   4.869 -0.8452  1.4142 -0.2609
  136OSM   C14F14865   6.869   2.047   4.664 -0.1046 -0.0811  0.2897
  136OSM   H14F14866   6.974   2.016   4.646 -0.2025  0.0122 -0.5110
  136OSM   H14G14867   6.874   2.146   4.613  1.1216 -0.4713 -0.3903
  136OSM   C15F14868   6.790   1.941   4.593 -0.1461 -0.0147  0.0300
  136OSM   H15F14869   6.685   1.935   4.629  0.9630  2.1569  4.3228
  136OSM   H15G14870   6.833   1.841   4.616  0.3383  0.3609  0.8016
  136OSM   C16F14871   6.792   1.954   4.445  0.0031 -0.5820  0.3295
  136OSM   H16F14872   6.764   2.057   4.413  0.6911  0.3508  2.5101
  136OSM   H16G14873   6.713   1.888   4.404 -2.2397  1.1988  1.5786
  136OSM   C17F14874   6.918   1.914   4.369 -0.3975 -0.4433  0.4360
  136OSM   H17F14875   6.947   1.809   4.387 -1.0688 -0.8323 -0.6795
  136OSM   H17G14876   6.999   1.979   4.408  0.6405 -0.7527 -1.1524
  136OSM   C18F14877   6.913   1.923   4.217  0.5073  0.2729  0.2052
  136OSM   H18F14878   6.893   2.031   4.197  1.1429  0.9329  2.6952
  136OSM   H18G14879   6.842   1.855   4.166  1.6936 -1.1019  0.3218
  136OSM   H18H14880   7.017   1.901   4.184  1.2377 -0.2637  2.6434
  137OSM      N14881   2.580   0.334   6.511  0.1535  0.3246 -0.3596
  137OSM    C1514882   2.566   0.305   6.364  0.6990  0.1683  0.8528
  137OSM   H15A14883   2.529   0.209   6.330  0.8283  0.3195  0.2695
  137OSM   H15B14884   2.666   0.312   6.323 -0.2002 -0.0046 -1.5439
  137OSM   H15C14885   2.504   0.380   6.316 -1.4759 -0.3354  2.7093
  137OSM    C1414886   2.682   0.237   6.566 -0.5268  0.2015  0.0815
  137OSM   H14A14887   2.769   0.225   6.503 -1.8373 -0.1450 -1.7601
  137OSM   H14B14888   2.646   0.136   6.579 -1.0406  0.4197  0.4087
  137OSM   H14C14889   2.711   0.270   6.664 -1.3449  0.9902  0.0782
  137OSM    C1314890   2.634   0.470   6.536 -0.4608  0.3261  0.3592
  137OSM   H13A14891   2.724   0.473   6.477 -0.8370 -2.7126 -0.5493
  137OSM   H13B14892   2.650   0.490   6.641  0.2694  0.5672  0.2039
  137OSM   H13C14893   2.569   0.551   6.507 -0.2569  1.2053  2.2340
  137OSM    C1214894   2.453   0.320   6.592  0.3190  0.4593  0.1019
  137OSM   H12A14895   2.469   0.351   6.694  1.9050 -1.3144  0.4397
  137OSM   H12B14896   2.423   0.216   6.592 -1.0712  0.8192 -0.9008
  137OSM    C1114897   2.332   0.405   6.547  0.2501  0.2160 -0.2196
  137OSM   H11A14898   2.253   0.381   6.620 -0.5501 -3.1040 -2.0018
  137OSM   H11B14899   2.294   0.379   6.446 -0.4316  3.7730 -1.0162
  137OSM      P14900   2.314   0.643   6.447 -0.0381 -0.0804  0.0375
  137OSM    O1314901   2.166   0.654   6.446 -0.2736  0.2062  0.2511
  137OSM    O1414902   2.392   0.769   6.478 -0.2735  0.1770  0.1335
  137OSM    O1114903   2.354   0.584   6.301  0.3220  0.4239 -0.3327
  137OSM    O1214904   2.356   0.547   6.559 -0.3242  0.4254 -0.3049
  137OSM    C1S14905   2.477   0.619   6.238 -0.4073 -0.4704 -0.1264
  137OSM    H1S14906   2.564   0.564   6.279 -0.0711  0.3021  0.2170
  137OSM    H1T14907   2.509   0.725   6.249  1.2807 -0.9516 -0.1377
  137OSM     NF14908   2.607   0.619   6.022  0.0445 -0.0340 -0.5425
  137OSM    HNF14909   2.605   0.687   5.949 -0.5671  0.7965  0.2274
  137OSM    C2S14910   2.474   0.581   6.084 -0.5241 -0.1816 -0.3345
  137OSM    H2S14911   2.471   0.470   6.091  1.0952 -0.1976  0.5280
  137OSM    C3S14912   2.352   0.641   6.007  0.2287 -0.1910 -0.8890
  137OSM    H3S14913   2.375   0.749   6.008  1.3896 -0.4194 -1.3379
  137OSM     O314914   2.231   0.648   6.075  0.7007 -0.2776 -0.1643
  137OSM    HO314915   2.256   0.620   6.163  1.6653 -2.3422 -1.0202
  137OSM    C4S14916   2.328   0.601   5.862  0.1891 -0.0932 -1.0755
  137OSM    H4S14917   2.363   0.686   5.803  1.4182  0.3182  0.1970
  137OSM    C5S14918   2.267   0.489   5.819 -0.3380  0.2726 -0.1400
  137OSM    H5S14919   2.225   0.408   5.880  1.1593 -0.4623 -0.0287
  137OSM    C6S14920   2.252   0.450   5.673  0.3338  0.0966 -0.2004
  137OSM    H6S14921   2.144   0.426   5.662  0.5318 -0.5121 -0.8959
  137OSM    H6T14922   2.314   0.360   5.651  0.5723  0.1835  0.1066
  137OSM    C7S14923   2.286   0.567   5.573 -0.7494 -0.3688 -0.5976
  137OSM    H7S14924   2.392   0.595   5.584 -0.8515  0.0048 -0.5487
  137OSM    H7T14925   2.222   0.654   5.598  1.3899  1.2168 -0.4029
  137OSM    C8S14926   2.248   0.529   5.422  0.1250  0.0373  0.1286
  137OSM    H8S14927   2.279   0.424   5.404 -1.3765 -0.8803  2.4365
  137OSM    H8T14928   2.310   0.598   5.361  1.7555  0.5590  2.2867
  137OSM    C9S14929   2.096   0.546   5.382  0.6350  0.7996  0.3335
  137OSM    H9S14930   2.071   0.648   5.419  1.1151  0.7759  0.7393
  137OSM    H9T14931   2.049   0.468   5.446  1.4339 -0.0125 -0.0482
  137OSM   C10S14932   2.069   0.518   5.233  0.4198 -0.7099 -0.1122
  137OSM   H10S14933   2.103   0.413   5.214  0.2705 -1.0033  1.1835
  137OSM   H10T14934   2.139   0.581   5.175  1.6012 -2.4868 -0.7235
  137OSM   C11S14935   1.924   0.545   5.189 -0.3175  0.5684 -0.1886
  137OSM   H11S14936   1.909   0.649   5.225  0.5630  0.9461 -0.8675
  137OSM   H11T14937   1.869   0.474   5.254  1.0382  1.3183  1.8606
  137OSM   C12S14938   1.911   0.529   5.037 -0.3665 -0.3185 -0.3309
  137OSM   H12S14939   1.943   0.423   5.019 -0.8092 -0.8869  1.9835
  137OSM   H12T14940   1.985   0.598   4.991  2.6503 -1.2498  2.7070
  137OSM   C13S14941   1.766   0.558   4.985  0.4672  0.9767 -0.0543
  137OSM   H13S14942   1.751   0.668   4.990  0.3302  0.9070  2.8522
  137OSM   H13T14943   1.691   0.513   5.053  0.1890  0.9222 -0.3962
  137OSM   C14S14944   1.760   0.506   4.834  0.1891  0.8931 -0.1256
  137OSM   H14S14945   1.812   0.408   4.828 -0.5268  0.4580  0.5452
  137OSM   H14T14946   1.819   0.583   4.779  0.8802 -0.1036 -0.8265
  137OSM   C15S14947   1.613   0.478   4.781 -0.6691  0.2484  0.4804
  137OSM   H15S14948   1.578   0.382   4.824  0.7894 -0.5981 -0.1866
  137OSM   H15T14949   1.611   0.456   4.672  1.5872  0.0934  0.4216
  137OSM   C16S14950   1.512   0.589   4.808  0.5371  0.2398 -0.7343
  137OSM   H16S14951   1.541   0.675   4.745  0.5624  2.3896  2.0478
  137OSM   H16T14952   1.522   0.633   4.910 -0.0232  1.3188 -1.1285
  137OSM   C17S14953   1.366   0.553   4.791  0.5633 -0.6999  0.4771
  137OSM   H17S14954   1.304   0.633   4.837  0.5714 -1.5106  1.9348
  137OSM   H17T14955   1.349   0.464   4.854  1.0288 -0.4604  0.9444
  137OSM   C18S14956   1.319   0.514   4.648 -0.3336  0.1781  0.5470
  137OSM   H18S14957   1.212   0.483   4.649 -0.0046 -1.2125 -1.5754
  137OSM   H18T14958   1.376   0.423   4.624  0.9220  1.3807 -1.2931
  137OSM   H18U14959   1.356   0.594   4.581  1.6084 -1.4361 -0.3849
  137OSM    C1F14960   2.723   0.569   6.054  0.3133  0.1178  0.5983
  137OSM     OF14961   2.738   0.481   6.135 -0.3307  0.1528 -0.0222
  137OSM    C2F14962   2.849   0.617   5.970  0.5424  0.1580 -0.7794
  137OSM    H2F14963   2.940   0.611   6.034  0.0810 -0.8351 -0.1995
  137OSM    H2G14964   2.832   0.726   5.953 -0.6469  0.8424  3.4888
  137OSM    C3F14965   2.862   0.535   5.842  0.2289  0.1577  0.1262
  137OSM    H3F14966   2.776   0.560   5.776  0.2757  0.8224  0.3130
  137OSM    H3G14967   2.862   0.426   5.864  1.4490  0.1531  0.1878
  137OSM    C4F14968   2.996   0.560   5.765  0.1636 -0.3639 -0.1659
  137OSM    H4F14969   3.079   0.536   5.836  0.7457  0.8873 -0.3853
  137OSM    H4G14970   3.015   0.669   5.752  0.6713 -0.4745 -0.4032
  137OSM    C5F14971   3.016   0.497   5.623 -0.0360  0.1092  0.1868
  137OSM    H5F14972   2.925   0.534   5.571  0.1368  2.0364  1.1961
  137OSM    H5G14973   3.021   0.386   5.624 -3.3776 -0.1264 -0.0525
  137OSM    C6F14974   3.130   0.553   5.544 -0.0793  0.0050  0.6156
  137OSM    H6F14975   3.224   0.521   5.593 -1.4257 -0.5400  3.0012
  137OSM    H6G14976   3.135   0.664   5.547  2.5682 -0.0647  0.5818
  137OSM    C7F14977   3.132   0.511   5.389  0.0254  0.0722 -0.4662
  137OSM    H7F14978   3.029   0.515   5.346 -0.2237 -2.6620 -0.2944
  137OSM    H7G14979   3.163   0.405   5.382 -2.6978 -1.0836  2.4990
  137OSM    C8F14980   3.212   0.605   5.302  0.0080 -0.2175  0.9016
  137OSM    H8F14981   3.179   0.702   5.345  1.0382 -1.4941  5.0889
  137OSM    H8G14982   3.184   0.591   5.196 -0.8057 -1.6577  1.2765
  137OSM    C9F14983   3.352   0.585   5.344 -0.2019  0.3085  0.0586
  137OSM    H9F14984   3.376   0.598   5.450  2.4018  2.2043 -0.6678
  137OSM   C10F14985   3.452   0.538   5.266 -0.2160  0.5880  0.0304
  137OSM   H10F14986   3.552   0.514   5.306  0.8345 -0.5002 -2.9856
  137OSM   C11F14987   3.433   0.493   5.124 -0.5966  0.4437  0.1926
  137OSM   H11F14988   3.348   0.546   5.077 -2.1242  0.6266  2.9513
  137OSM   H11G14989   3.414   0.384   5.124 -1.7755  0.6246  1.7664
  137OSM   C12F14990   3.567   0.499   5.043  1.0466 -0.0879 -0.1186
  137OSM   H12F14991   3.653   0.469   5.106 -0.7786 -0.3634  2.3870
  137OSM   H12G14992   3.584   0.605   5.011 -0.4782  0.8962  2.0998
  137OSM   C13F14993   3.567   0.418   4.914 -0.0976  0.9547 -0.6207
  137OSM   H13F14994   3.471   0.412   4.858  0.1754 -1.0883 -0.9673
  137OSM   H13G14995   3.574   0.313   4.950 -2.0871  0.7059 -0.8141
  137OSM   C14F14996   3.690   0.446   4.823 -0.0786 -0.2635 -0.2027
  137OSM   H14F14997   3.787   0.456   4.876  1.3683 -2.2140 -2.2725
  137OSM   H14G14998   3.664   0.547   4.786 -0.5095  0.0713  0.9600
  137OSM   C15F14999   3.703   0.337   4.707 -0.7202 -0.1289 -0.0697
  137OSM   H15F15000   3.601   0.338   4.662 -1.0657  0.6159  0.7088
  137OSM   H15G15001   3.728   0.238   4.752 -1.5590  0.3932  1.6380
  137OSM   C16F15002   3.813   0.377   4.610  0.5235 -0.1882  0.0807
  137OSM   H16F15003   3.810   0.486   4.588  2.8067 -0.3593 -1.4929
  137OSM   H16G15004   3.806   0.310   4.522 -0.6604 -0.1917  0.1691
  137OSM   C17F15005   3.958   0.356   4.677 -0.3839 -0.8905 -0.1501
  137OSM   H17F15006   3.970   0.259   4.729  3.1676 -1.7382 -2.1938
  137OSM   H17G15007   3.981   0.432   4.755 -0.8665  1.2269 -1.9694
  137OSM   C18F15008   4.057   0.380   4.564 -0.4080 -0.1806 -0.5088
  137OSM   H18F15009   4.033   0.320   4.474  1.0634 -2.7201  0.6937
  137OSM   H18G15010   4.159   0.360   4.602  0.2318  2.4512 -0.6325
  137OSM   H18H15011   4.056   0.487   4.536 -0.4194 -0.5980 -2.2027
  138OSM      N15012   0.607   0.607   6.562  0.0954  0.1488 -0.5458
  138OSM    C1515013   0.487   0.631   6.648  0.1940  0.4249  0.5540
  138OSM   H15A15014   0.472   0.566   6.733 -1.0997  0.4332  0.3511
  138OSM   H15B15015   0.402   0.606   6.586 -0.1096  1.6160  0.4686
  138OSM   H15C15016   0.488   0.731   6.688  0.6893  1.1162 -1.1041
  138OSM    C1415017   0.609   0.708   6.453  0.2861  0.2461 -0.6309
  138OSM   H14A15018   0.523   0.699   6.388 -0.6057 -0.2317  0.5634
  138OSM   H14B15019   0.698   0.695   6.394  1.0596  1.2136  0.2748
  138OSM   H14C15020   0.607   0.806   6.499 -1.1982 -0.2848  0.5285
  138OSM    C1315021   0.722   0.634   6.651 -0.2383  0.6485  0.0175
  138OSM   H13A15022   0.817   0.610   6.604  0.1904  1.2307  0.5742
  138OSM   H13B15023   0.722   0.563   6.732  0.7305  0.6827  0.0663
  138OSM   H13C15024   0.719   0.732   6.695  1.2699  0.4776  0.5857
  138OSM    C1215025   0.618   0.464   6.508 -0.3814 -0.2742  0.1277
  138OSM   H12A15026   0.634   0.395   6.590 -2.5932  1.5618  2.2634
  138OSM   H12B15027   0.710   0.470   6.452 -0.7333  1.8623 -0.3328
  138OSM    C1115028   0.517   0.410   6.407 -0.1079  0.0904  0.0858
  138OSM   H11A15029   0.549   0.312   6.365  1.1556  0.5247  0.0102
  138OSM   H11B15030   0.511   0.487   6.327  1.7614  1.5037  1.2423
  138OSM      P15031   0.357   0.262   6.546 -0.0919 -0.1647  0.3457
  138OSM    O1315032   0.475   0.218   6.621 -0.7374  0.1080 -0.4801
  138OSM    O1415033   0.227   0.283   6.624  0.1944  0.1926 -0.1340
  138OSM    O1115034   0.326   0.160   6.434  0.3676  1.0786 -0.0664
  138OSM    O1215035   0.390   0.398   6.463  0.5742 -0.7425  0.1052
  138OSM    C1S15036   0.279   0.199   6.305 -0.0133 -0.2729 -0.1552
  138OSM    H1S15037   0.363   0.248   6.250  2.9089 -1.3321  3.0669
  138OSM    H1T15038   0.194   0.270   6.316  0.5222  0.0330  2.6905
  138OSM     NF15039   0.196   0.109   6.085  0.0825 -0.2615  0.1900
  138OSM    HNF15040   0.099   0.113   6.062 -0.0244  1.5712  0.7621
  138OSM    C2S15041   0.218   0.079   6.222 -0.1361 -0.2830  0.2453
  138OSM    H2S15042   0.294  -0.002   6.218 -2.2630 -2.3466 -1.8110
  138OSM    C3S15043   0.087   0.030   6.287 -0.4369  0.5624 -0.1882
  138OSM    H3S15044  -0.002   0.096   6.293 -1.7386 -1.2194  2.8961
  138OSM     O315045   0.105   0.003   6.427  0.0924 -0.1087 -0.2756
  138OSM    HO315046   0.183   0.056   6.442 -1.1267  2.2963 -1.7710
  138OSM    C4S15047   0.034  -0.098   6.215 -0.3825 -0.0709  0.5073
  138OSM    H4S15048  -0.049  -0.084   6.144 -0.7610  1.7295  1.2460
  138OSM    C5S15049   0.091  -0.221   6.236  0.1930  0.3609  0.6096
  138OSM    H5S15050   0.171  -0.238   6.309 -0.9102  1.0983  2.0424
  138OSM    C6S15051   0.033  -0.348   6.168 -0.1476  0.1258  0.5431
  138OSM    H6S15052  -0.011  -0.410   6.250 -0.6968 -1.7964 -1.1093
  138OSM    H6T15053   0.107  -0.419   6.125  0.0912  0.3490  0.5890
  138OSM    C7S15054  -0.055  -0.337   6.036 -0.2339 -0.3373  0.0185
  138OSM    H7S15055  -0.137  -0.263   6.041  0.6347  0.7139 -0.8049
  138OSM    H7T15056  -0.096  -0.439   6.020 -0.0555 -0.7605  1.9434
  138OSM    C8S15057   0.028  -0.303   5.917 -0.0274 -0.3728 -0.6569
  138OSM    H8S15058   0.093  -0.388   5.888  0.2270  0.0930 -1.4833
  138OSM    H8T15059   0.087  -0.215   5.949 -1.1211 -0.3354  1.5031
  138OSM    C9S15060  -0.058  -0.253   5.804 -0.2723  0.2415 -0.1965
  138OSM    H9S15061  -0.119  -0.166   5.836 -2.6490 -0.0675 -3.3068
  138OSM    H9T15062  -0.139  -0.326   5.782 -1.9572  2.2248 -0.9041
  138OSM   C10S15063   0.015  -0.214   5.672 -0.0639  0.3070 -0.1629
  138OSM   H10S15064   0.084  -0.299   5.648 -2.5770 -1.5698 -1.1666
  138OSM   H10T15065   0.072  -0.118   5.674 -2.3750  1.7400  0.7089
  138OSM   C11S15066  -0.084  -0.204   5.562  0.6659  0.2514 -0.0461
  138OSM   H11S15067  -0.167  -0.131   5.576 -0.9395 -1.6240  0.7357
  138OSM   H11T15068  -0.125  -0.305   5.538  0.0401  0.3511  0.5509
  138OSM   C12S15069  -0.010  -0.132   5.439 -0.0947  0.6815 -0.2539
  138OSM   H12S15070   0.062  -0.195   5.383 -0.4183  0.7340 -0.7363
  138OSM   H12T15071   0.037  -0.037   5.471 -0.9974  0.9184  0.3863
  138OSM   C13S15072  -0.103  -0.109   5.323  0.4094 -0.2105 -0.3446
  138OSM   H13S15073  -0.160  -0.020   5.358 -0.1972 -0.4156 -0.8069
  138OSM   H13T15074  -0.175  -0.192   5.311 -0.0208  0.4120 -2.5209
  138OSM   C14S15075  -0.031  -0.075   5.193  0.7529 -1.0214 -0.1034
  138OSM   H14S15076  -0.017  -0.170   5.138  0.0918 -0.0122 -2.1040
  138OSM   H14T15077   0.069  -0.028   5.200  0.0859  0.6384 -1.1696
  138OSM   C15S15078  -0.110   0.025   5.097  0.0892  0.2402 -0.3202
  138OSM   H15S15079  -0.117   0.123   5.150  1.2301 -0.7367  1.7344
  138OSM   H15T15080  -0.214  -0.004   5.074 -0.8702  2.1909  1.2007
  138OSM   C16S15081  -0.036   0.018   4.962 -0.7082 -0.0385  0.2598
  138OSM   H16S15082  -0.074  -0.073   4.911  0.2779  2.0144 -4.8001
  138OSM   H16T15083   0.074   0.022   4.968 -0.7229 -1.2384  2.1160
  138OSM   C17S15084  -0.085   0.134   4.875 -0.8352  0.1735  0.2179
  138OSM   H17S15085  -0.195   0.128   4.863 -0.6341 -0.3282 -1.7541
  138OSM   H17T15086  -0.043   0.115   4.774  1.6749  2.8854  0.6317
  138OSM   C18S15087  -0.044   0.280   4.914  0.0342 -1.3520  0.1286
  138OSM   H18S15088   0.058   0.282   4.957  0.8059  1.5936 -1.5498
  138OSM   H18T15089  -0.115   0.307   4.994  1.0009 -0.8088  0.8235
  138OSM   H18U15090  -0.054   0.361   4.839  0.1391  0.5170  2.0670
  138OSM    C1F15091   0.290   0.131   5.991  1.0401 -0.5834 -0.2945
  138OSM     OF15092   0.406   0.141   6.024 -0.9868 -0.7992 -0.1856
  138OSM    C2F15093   0.247   0.161   5.849  1.3443  0.1907  0.1789
  138OSM    H2F15094   0.261   0.271   5.842  0.2219  0.4906  1.9405
  138OSM    H2G15095   0.149   0.116   5.822  1.0429  1.9111 -1.8664
  138OSM    C3F15096   0.342   0.097   5.743  0.2830  0.1653 -0.5971
  138OSM    H3F15097   0.336  -0.014   5.746  0.8692  0.1571  0.8065
  138OSM    H3G15098   0.448   0.127   5.758  0.7897 -0.1700 -3.0199
  138OSM    C4F15099   0.310   0.143   5.603  0.2693  0.1726  0.2011
  138OSM    H4F15100   0.340   0.248   5.586  1.5432  0.1776  2.1254
  138OSM    H4G15101   0.200   0.138   5.585  0.3452  0.4312 -0.3437
  138OSM    C5F15102   0.368   0.047   5.498  0.0690  0.9059  0.8175
  138OSM    H5F15103   0.306  -0.045   5.491  0.2915  0.8758 -1.8963
  138OSM    H5G15104   0.465   0.004   5.531  1.1420  2.1957 -0.5398
  138OSM    C6F15105   0.381   0.096   5.350  0.0624 -0.4652  0.3850
  138OSM    H6F15106   0.397   0.009   5.282 -0.8522 -0.4190  0.1005
  138OSM    H6G15107   0.465   0.168   5.337 -0.9179  0.4194 -1.5013
  138OSM    C7F15108   0.249   0.167   5.311  0.8968  0.3583 -0.2543
  138OSM    H7F15109   0.245   0.271   5.350 -0.5082  0.0533  0.5150
  138OSM    H7G15110   0.158   0.109   5.338 -0.6344  2.7061 -0.0316
  138OSM    C8F15111   0.235   0.196   5.157 -0.2995  0.3217 -0.5254
  138OSM    H8F15112   0.128   0.212   5.133 -0.8601 -1.8154  0.2958
  138OSM    H8G15113   0.273   0.107   5.103  0.3735  1.6963 -2.4155
  138OSM    C9F15114   0.308   0.318   5.111 -0.3605  0.2156 -0.2044
  138OSM    H9F15115   0.280   0.411   5.163 -2.9057  0.5254 -1.9239
  138OSM   C10F15116   0.396   0.319   5.007  0.1445  0.1037 -0.1012
  138OSM   H10F15117   0.437   0.420   4.988  1.2561 -0.5349 -1.2577
  138OSM   C11F15118   0.432   0.213   4.913  0.1990  0.1768  0.7111
  138OSM   H11F15119   0.356   0.133   4.922 -0.7206  0.6959 -1.6972
  138OSM   H11G15120   0.533   0.174   4.942  0.5187  0.8609  0.5416
  138OSM   C12F15121   0.425   0.252   4.759  0.4341 -0.0123 -0.3579
  138OSM   H12F15122   0.508   0.323   4.738  0.8942 -0.9051 -1.6215
  138OSM   H12G15123   0.331   0.310   4.744  0.7769  0.6043 -0.1636
  138OSM   C13F15124   0.422   0.130   4.667  0.4043 -0.6958  0.3481
  138OSM   H13F15125   0.350   0.055   4.705 -0.4464 -0.4509 -0.7188
  138OSM   H13G15126   0.522   0.083   4.668  0.6537 -0.2308 -1.0314
  138OSM   C14F15127   0.397   0.171   4.521  0.0065  0.8764 -0.1083
  138OSM   H14F15128   0.320   0.250   4.512 -1.0779 -0.1743 -0.2555
  138OSM   H14G15129   0.353   0.084   4.469 -0.1137  0.5403  0.5460
  138OSM   C15F15130   0.519   0.232   4.447 -0.1065  0.7431 -0.7262
  138OSM   H15F15131   0.601   0.159   4.463 -0.6926 -0.6168 -3.2999
  138OSM   H15G15132   0.556   0.328   4.489 -0.0263  0.5697 -0.3959
  138OSM   C16F15133   0.485   0.243   4.297 -0.9116 -0.2479 -0.0521
  138OSM   H16F15134   0.380   0.277   4.296 -1.9610 -3.1321  1.8870
  138OSM   H16G15135   0.489   0.146   4.244  0.9761 -0.1442 -0.1685
  138OSM   C17F15136   0.566   0.351   4.222 -0.6761 -0.0343  0.0633
  138OSM   H17F15137   0.674   0.323   4.224 -0.8214 -0.5864  0.3685
  138OSM   H17G15138   0.577   0.446   4.279 -0.4561  0.2853 -0.5119
  138OSM   C18F15139   0.514   0.391   4.085  0.5060  0.3171  0.1638
  138OSM   H18F15140   0.404   0.406   4.091  0.9293  3.4724  1.5260
  138OSM   H18G15141   0.519   0.308   4.011 -3.3499  1.1413 -1.3007
  138OSM   H18H15142   0.563   0.487   4.058  1.8336 -0.1205  0.9079
  139OSM      N15143   5.541   2.745   6.556  0.4875  0.2521 -0.5460
  139OSM    C1515144   5.617   2.863   6.619  0.6211  0.5986  0.3798
  139OSM   H15A15145   5.711   2.888   6.571  0.4570  2.0100  0.7316
  139OSM   H15B15146   5.653   2.845   6.719  1.2835 -2.8091 -0.3647
  139OSM   H15C15147   5.557   2.952   6.606  1.4104  0.9904 -0.7678
  139OSM    C1415148   5.415   2.736   6.638 -0.3003 -0.7277  0.3303
  139OSM   H14A15149   5.362   2.646   6.610 -0.2084 -0.3450 -1.1330
  139OSM   H14B15150   5.352   2.823   6.628  0.0663 -0.6830 -2.3673
  139OSM   H14C15151   5.436   2.738   6.744 -0.4415 -0.6338  0.3577
  139OSM    C1315152   5.507   2.774   6.412 -0.8172 -0.2256  0.3965
  139OSM   H13A15153   5.598   2.777   6.353  0.6854  0.6082  2.6273
  139OSM   H13B15154   5.457   2.867   6.387 -0.4237 -0.7489 -2.7490
  139OSM   H13C15155   5.437   2.701   6.373 -1.0770  0.5726 -0.6908
  139OSM    C1215156   5.617   2.613   6.558  0.5144 -0.0118  0.0726
  139OSM   H12A15157   5.636   2.588   6.661  1.8577  1.0393  0.1098
  139OSM   H12B15158   5.714   2.629   6.513  1.4163  1.4255  2.3745
  139OSM    C1115159   5.555   2.489   6.493  0.3527  0.1957 -0.0583
  139OSM   H11A15160   5.635   2.414   6.514  0.2328 -0.3227 -1.3670
  139OSM   H11B15161   5.550   2.509   6.384  0.4931 -0.6470 -0.2242
  139OSM      P15162   5.423   2.385   6.693 -0.0286 -0.1462  0.0454
  139OSM    O1315163   5.535   2.433   6.781 -0.0759 -0.1490  0.5469
  139OSM    O1415164   5.281   2.392   6.746 -0.0583  0.1159  0.2103
  139OSM    O1115165   5.456   2.239   6.653  0.4234  0.4086 -0.0915
  139OSM    O1215166   5.428   2.461   6.554  0.2862  0.0771 -0.0586
  139OSM    C1S15167   5.377   2.165   6.556  0.4030  0.0811  0.0078
  139OSM    H1S15168   5.269   2.186   6.571 -0.0671 -1.9509 -0.1532
  139OSM    H1T15169   5.383   2.057   6.583  1.7053  0.1679  0.1106
  139OSM     NF15170   5.318   2.116   6.314  0.5264 -0.0435 -0.1231
  139OSM    HNF15171   5.340   2.028   6.273 -2.2075 -1.0248  0.3569
  139OSM    C2S15172   5.418   2.174   6.404  0.1228 -0.1808  0.0663
  139OSM    H2S15173   5.418   2.279   6.369 -0.6842 -0.3385 -0.4290
  139OSM    C3S15174   5.565   2.123   6.383 -0.8252  0.2533 -0.3822
  139OSM    H3S15175   5.566   2.012   6.387 -0.4942  0.2776  0.8869
  139OSM     O315176   5.658   2.151   6.494 -0.1327  0.0726  0.2762
  139OSM    HO315177   5.598   2.191   6.557 -1.0806 -3.7856  2.0427
  139OSM    C4S15178   5.615   2.175   6.249 -0.3413  0.6973 -1.0330
  139OSM    H4S15179   5.592   2.281   6.229  0.6314  1.1130 -0.0847
  139OSM    C5S15180   5.689   2.107   6.162 -0.0486 -0.8913  0.0232
  139OSM    H5S15181   5.726   2.010   6.196  1.9601  0.9711  3.8061
  139OSM    C6S15182   5.741   2.167   6.032 -0.0239 -0.6663 -0.3629
  139OSM    H6S15183   5.851   2.167   6.044  0.0278 -0.0903 -0.8247
  139OSM    H6T15184   5.699   2.268   6.014  1.5947 -0.5302 -4.3745
  139OSM    C7S15185   5.700   2.088   5.910 -0.2105  0.9934  0.0663
  139OSM    H7S15186   5.590   2.079   5.896 -0.2190 -1.0850  1.1139
  139OSM    H7T15187   5.740   1.985   5.909  0.0587  1.1027 -0.7618
  139OSM    C8S15188   5.766   2.146   5.785 -0.9031 -0.1264  0.1147
  139OSM    H8S15189   5.876   2.157   5.791 -0.8570 -0.1645 -0.6019
  139OSM    H8T15190   5.713   2.244   5.780 -0.5604  0.0985  0.7709
  139OSM    C9S15191   5.743   2.078   5.647 -0.0970  0.0025 -0.5073
  139OSM    H9S15192   5.635   2.071   5.623 -0.3291  1.2785  0.0612
  139OSM    H9T15193   5.769   1.972   5.667 -0.8412 -0.2827 -1.0171
  139OSM   C10S15194   5.821   2.134   5.529  0.4444  0.7220  0.2810
  139OSM   H10S15195   5.929   2.115   5.542  0.1212 -2.5511 -0.9373
  139OSM   H10T15196   5.814   2.245   5.527 -1.2967  0.7017  2.1869
  139OSM   C11S15197   5.781   2.058   5.400 -0.3501  0.2758  0.6768
  139OSM   H11S15198   5.672   2.079   5.387 -0.1965  0.4321 -0.4797
  139OSM   H11T15199   5.795   1.948   5.405  0.0879  0.1208 -2.3053
  139OSM   C12S15200   5.864   2.105   5.286  0.0950 -0.1934  0.0142
  139OSM   H12S15201   5.972   2.106   5.310  0.4440  1.3652 -1.4481
  139OSM   H12T15202   5.844   2.213   5.265  0.8681 -0.2419 -1.0639
  139OSM   C13S15203   5.824   2.039   5.153 -0.3946 -0.4006  0.4790
  139OSM   H13S15204   5.724   2.069   5.114 -1.0633 -3.0110  0.0245
  139OSM   H13T15205   5.815   1.931   5.176  0.9035 -0.1387  2.4586
  139OSM   C14S15206   5.931   2.063   5.050 -0.1569  0.0186  0.2339
  139OSM   H14S15207   6.025   2.016   5.086  0.4648  0.2287 -1.0746
  139OSM   H14T15208   5.950   2.172   5.059 -1.6694  0.2014  1.4882
  139OSM   C15S15209   5.892   2.009   4.915 -0.2220  0.0514  0.3402
  139OSM   H15S15210   5.824   2.082   4.867  0.7837  1.7144  1.3591
  139OSM   H15T15211   5.836   1.915   4.936 -1.4622  0.8334  0.6288
  139OSM   C16S15212   6.012   1.981   4.825  0.5101 -0.4578  0.2455
  139OSM   H16S15213   6.064   1.888   4.855  1.6709  0.1996  0.3234
  139OSM   H16T15214   6.093   2.056   4.835 -0.8452  0.8960  1.5421
  139OSM   C17S15215   5.977   1.971   4.672  0.0915  0.7493 -0.3914
  139OSM   H17S15216   5.895   1.897   4.660  1.3890 -0.7205 -0.5447
  139OSM   H17T15217   6.072   1.930   4.633  0.0811 -0.3997  0.6886
  139OSM   C18S15218   5.946   2.105   4.604  0.3223  0.2941  0.5961
  139OSM   H18S15219   5.951   2.092   4.493 -0.4753  2.4424  0.2584
  139OSM   H18T15220   6.023   2.178   4.637  2.4510 -1.2153 -0.7328
  139OSM   H18U15221   5.850   2.139   4.647  0.6037  1.2218  0.5177
  139OSM    C1F15222   5.189   2.163   6.309  0.0840  0.9426 -0.3213
  139OSM     OF15223   5.154   2.276   6.347 -0.2587  0.2335  0.2796
  139OSM    C2F15224   5.096   2.058   6.273 -0.0878  0.0676 -0.4476
  139OSM    H2F15225   5.029   2.025   6.356 -2.7300  0.4856 -2.3114
  139OSM    H2G15226   5.137   1.961   6.239  0.0818  0.4169 -1.2549
  139OSM    C3F15227   5.000   2.101   6.163  0.7993  0.1241 -0.1848
  139OSM    H3F15228   4.927   2.172   6.205  1.5195  1.7875 -1.6063
  139OSM    H3G15229   4.941   2.013   6.129  1.0267 -0.6130  1.2512
  139OSM    C4F15230   5.060   2.162   6.032 -0.4679 -0.1431 -0.1282
  139OSM    H4F15231   5.151   2.113   5.991  1.2052  2.7825 -0.2023
  139OSM    H4G15232   5.082   2.267   6.060  0.3786 -0.2472 -0.3661
  139OSM    C5F15233   4.963   2.177   5.909 -0.1491  0.3010  0.3119
  139OSM    H5F15234   4.993   2.278   5.873  4.2496 -1.1223 -0.5495
  139OSM    H5G15235   4.859   2.168   5.946 -0.7353 -1.1728 -1.5863
  139OSM    C6F15236   4.984   2.081   5.788 -0.4054  0.3593 -0.7499
  139OSM    H6F15237   4.961   1.975   5.811  1.6300  0.1751  0.6738
  139OSM    H6G15238   5.092   2.099   5.768 -0.0975 -0.0487  0.4453
  139OSM    C7F15239   4.911   2.121   5.652  0.7609  0.2965  0.5412
  139OSM    H7F15240   4.962   2.205   5.599  1.9056  0.1355  1.3481
  139OSM    H7G15241   4.808   2.148   5.681 -0.2554 -2.0344 -0.6135
  139OSM    C8F15242   4.882   2.011   5.550 -0.1745  0.1964 -0.0287
  139OSM    H8F15243   4.824   2.042   5.461  0.8719  0.8081 -0.5140
  139OSM    H8G15244   4.824   1.926   5.592 -1.1433  0.3046 -1.1045
  139OSM    C9F15245   5.007   1.954   5.505  0.0815 -0.6242 -0.6392
  139OSM    H9F15246   5.076   1.902   5.574  3.1207  0.4008 -2.6946
  139OSM   C10F15247   5.049   1.940   5.376  1.2387  0.0002 -0.7301
  139OSM   H10F15248   5.146   1.888   5.368  2.2280  1.0798  2.5342
  139OSM   C11F15249   4.987   2.002   5.257 -0.1087 -0.0041  0.4273
  139OSM   H11F15250   5.063   2.074   5.220  0.4582  0.0756  1.6894
  139OSM   H11G15251   4.888   2.044   5.285 -1.1500 -3.0025  1.6216
  139OSM   C12F15252   4.967   1.898   5.145 -0.5621  0.0864 -0.6132
  139OSM   H12F15253   4.912   1.815   5.194  0.1912 -0.9511 -1.4806
  139OSM   H12G15254   5.061   1.852   5.106 -0.2176 -1.5745  1.9112
  139OSM   C13F15255   4.877   1.944   5.027  0.6558 -0.0927 -0.4102
  139OSM   H13F15256   4.780   1.970   5.074  0.7613  0.5163 -0.5199
  139OSM   H13G15257   4.857   1.855   4.963  1.6761 -0.6761  0.0516
  139OSM   C14F15258   4.941   2.056   4.946  0.6280 -0.0622  0.4966
  139OSM   H14F15259   4.939   2.148   5.007  0.2895  0.2177  0.0661
  139OSM   H14G15260   4.873   2.070   4.859  2.6497  0.5765 -1.0576
  139OSM   C15F15261   5.076   2.031   4.892 -0.6640  0.6633 -0.3903
  139OSM   H15F15262   5.085   1.926   4.857  0.6301  0.2230  1.1157
  139OSM   H15G15263   5.157   2.044   4.967  1.2275 -0.7065 -2.0704
  139OSM   C16F15264   5.113   2.130   4.784 -0.0810  0.3660  0.3833
  139OSM   H16F15265   5.220   2.160   4.780 -0.4319  1.5977 -0.1532
  139OSM   H16G15266   5.058   2.218   4.825 -0.1865 -0.3337  1.7907
  139OSM   C17F15267   5.057   2.096   4.646  1.0198  0.6024  0.0392
  139OSM   H17F15268   4.948   2.074   4.651  1.3023 -1.1507 -0.5990
  139OSM   H17G15269   5.102   1.999   4.614 -1.6170 -0.5476 -0.4420
  139OSM   C18F15270   5.075   2.195   4.534 -0.6462 -0.0358  0.3666
  139OSM   H18F15271   5.183   2.194   4.506 -0.3920  1.5935  1.1726
  139OSM   H18G15272   5.051   2.289   4.589 -1.6998 -0.3672  0.4774
  139OSM   H18H15273   5.015   2.188   4.441  0.4469 -0.9987 -0.2959
  140OSM      N15274   2.417   1.123   6.321 -0.0398  0.5381 -0.2408
  140OSM    C1515275   2.477   1.212   6.218 -0.0606  0.5221 -0.0140
  140OSM   H15A15276   2.547   1.168   6.149 -0.4261 -0.7242  0.3910
  140OSM   H15B15277   2.516   1.300   6.268  0.4399  0.4298 -0.2390
  140OSM   H15C15278   2.407   1.261   6.151  1.5423  1.0826 -1.3609
  140OSM    C1415279   2.529   1.077   6.420  0.0053 -0.5205  0.1077
  140OSM   H14A15280   2.594   1.004   6.373  0.0990  0.2116 -0.9220
  140OSM   H14B15281   2.484   1.029   6.506 -0.1059 -0.0545  0.3091
  140OSM   H14C15282   2.593   1.158   6.452 -1.2949  0.1123  1.2302
  140OSM    C1315283   2.317   1.217   6.386  0.4536 -0.0777  0.0648
  140OSM   H13A15284   2.368   1.291   6.446 -1.6536  1.1674  0.4184
  140OSM   H13B15285   2.245   1.165   6.447  1.4177 -1.6943 -0.1214
  140OSM   H13C15286   2.264   1.258   6.301 -1.8225 -0.1860  1.3741
  140OSM    C1215287   2.357   0.995   6.261 -0.1212 -0.2934  0.2959
  140OSM   H12A15288   2.343   0.926   6.343 -0.3999 -1.9523 -1.0953
  140OSM   H12B15289   2.438   0.960   6.199  0.0905  2.2371 -0.9987
  140OSM    C1115290   2.223   1.011   6.181  0.1175  0.1049 -0.1727
  140OSM   H11A15291   2.207   0.912   6.132  0.3687 -0.1108  0.1839
  140OSM   H11B15292   2.222   1.098   6.112  1.4096 -0.2975 -0.7371
  140OSM      P15293   1.971   1.065   6.235 -0.0370 -0.5425  0.3643
  140OSM    O1315294   1.896   0.943   6.205  0.1188  0.0628  0.0757
  140OSM    O1415295   1.913   1.159   6.337 -0.2122 -0.5173 -0.4585
  140OSM    O1115296   1.995   1.136   6.088  0.0066  0.0191  0.0569
  140OSM    O1215297   2.121   1.028   6.277 -0.1314 -0.7840  0.0161
  140OSM    C1S15298   2.002   1.282   6.090  0.6029  0.1594  0.0923
  140OSM    H1S15299   2.102   1.321   6.117 -0.9825  2.0764  4.1511
  140OSM    H1T15300   1.940   1.332   6.168  0.5238  0.8118 -0.3872
  140OSM     NF15301   1.973   1.487   5.957 -0.7802 -0.3630  0.2324
  140OSM    HNF15302   1.891   1.544   5.956  0.4874  1.5921  0.9645
  140OSM    C2S15303   1.954   1.344   5.951  0.2351  0.4236 -0.4130
  140OSM    H2S15304   2.022   1.300   5.875  0.8679  2.0888 -0.8478
  140OSM    C3S15305   1.808   1.296   5.924  0.1119 -0.6975  0.0478
  140OSM    H3S15306   1.745   1.358   5.991 -2.1093 -1.1475 -1.5017
  140OSM     O315307   1.779   1.158   5.950  0.4647  0.3166  0.1820
  140OSM    HO315308   1.855   1.139   6.005  0.7735  0.8550 -0.0514
  140OSM    C4S15309   1.755   1.330   5.786 -0.6153  0.0744 -0.2789
  140OSM    H4S15310   1.713   1.431   5.783  1.2133  0.8536 -0.7841
  140OSM    C5S15311   1.752   1.257   5.674  0.0795  0.3499 -0.1945
  140OSM    H5S15312   1.797   1.157   5.669 -0.1334  0.2330  0.1561
  140OSM    C6S15313   1.712   1.318   5.549 -0.2592  0.2378  0.5610
  140OSM    H6S15314   1.806   1.342   5.496  0.0449  0.4130  1.1627
  140OSM    H6T15315   1.646   1.408   5.554  0.7195  1.2690 -2.9036
  140OSM    C7S15316   1.652   1.208   5.455 -0.4525  0.0041 -0.4388
  140OSM    H7S15317   1.557   1.169   5.497 -0.9773  1.7112  0.0748
  140OSM    H7T15318   1.718   1.120   5.447 -0.7366 -0.4041  1.3829
  140OSM    C8S15319   1.615   1.261   5.319  0.5748  0.4859  0.3821
  140OSM    H8S15320   1.563   1.356   5.343 -0.9590 -0.6535  1.7833
  140OSM    H8T15321   1.534   1.196   5.280  0.7515  1.4207 -1.6993
  140OSM    C9S15322   1.733   1.273   5.218  0.3959  0.1263  0.4877
  140OSM    H9S15323   1.765   1.174   5.179  0.6983  0.2304  0.4661
  140OSM    H9T15324   1.819   1.328   5.262  0.8852 -0.1207 -0.1358
  140OSM   C10S15325   1.684   1.339   5.094  0.0459  0.5749 -0.7018
  140OSM   H10S15326   1.621   1.426   5.125 -1.1320 -0.1721 -0.9250
  140OSM   H10T15327   1.614   1.284   5.027 -1.9041  2.4771 -0.3659
  140OSM   C11S15328   1.794   1.389   4.999 -1.0286 -0.0757  0.0843
  140OSM   H11S15329   1.864   1.306   4.974  0.4298  1.3815 -0.8700
  140OSM   H11T15330   1.862   1.450   5.061  1.1289 -0.2604 -1.9376
  140OSM   C12S15331   1.725   1.461   4.881 -0.3773 -0.5644 -0.1765
  140OSM   H12S15332   1.671   1.549   4.924 -0.4258 -0.3902 -0.5879
  140OSM   H12T15333   1.664   1.385   4.828 -2.2590  0.1621  0.8236
  140OSM   C13S15334   1.833   1.522   4.788  0.6563 -0.9203  0.3514
  140OSM   H13S15335   1.914   1.565   4.850 -0.1203 -0.0282  0.7699
  140OSM   H13T15336   1.801   1.608   4.725 -0.6148  0.3723  2.6327
  140OSM   C14S15337   1.875   1.407   4.689 -0.4129 -0.1291  0.3873
  140OSM   H14S15338   1.777   1.373   4.652 -1.4354  0.4312  2.4410
  140OSM   H14T15339   1.922   1.331   4.756  0.5145 -0.1538 -0.2731
  140OSM   C15S15340   1.985   1.443   4.581 -0.7009  0.3909  0.1358
  140OSM   H15S15341   2.063   1.508   4.627 -0.2184 -0.2374  0.2180
  140OSM   H15T15342   1.937   1.507   4.504 -2.6752 -1.7220 -0.4917
  140OSM   C16S15343   2.050   1.327   4.512 -0.3745  0.7461  0.1373
  140OSM   H16S15344   1.988   1.268   4.441 -2.9641 -0.4278  3.1300
  140OSM   H16T15345   2.083   1.254   4.589 -0.8225 -0.1232 -0.4802
  140OSM   C17S15346   2.185   1.364   4.440 -0.8010  0.1632 -0.9139
  140OSM   H17S15347   2.238   1.428   4.513 -1.2371 -0.4190 -0.0808
  140OSM   H17T15348   2.152   1.432   4.358 -0.3589 -0.0800 -1.3012
  140OSM   C18S15349   2.274   1.253   4.381 -0.3307 -0.1181 -0.2058
  140OSM   H18S15350   2.215   1.174   4.329 -2.2550  1.7082 -0.9749
  140OSM   H18T15351   2.334   1.205   4.461  0.1788  0.4035 -0.2682
  140OSM   H18U15352   2.349   1.304   4.317 -0.6118 -1.0997 -1.3615
  140OSM    C1F15353   2.095   1.544   5.951 -0.5961 -0.7266  0.8328
  140OSM     OF15354   2.202   1.481   5.960  0.1097  0.2896  0.2942
  140OSM    C2F15355   2.100   1.696   5.941 -0.4766  0.0726  0.8070
  140OSM    H2F15356   2.139   1.735   6.038  1.3386  0.9986 -0.2392
  140OSM    H2G15357   1.996   1.729   5.921 -0.8296 -1.8691 -0.8985
  140OSM    C3F15358   2.188   1.745   5.820  0.6974 -0.0262  0.4623
  140OSM    H3F15359   2.268   1.668   5.823 -1.5743 -2.5157  1.6062
  140OSM    H3G15360   2.227   1.846   5.841 -0.9855  0.6974  0.2889
  140OSM    C4F15361   2.134   1.736   5.676 -0.1444 -0.5520 -0.0623
  140OSM    H4F15362   2.183   1.819   5.620  0.5263  0.0640  1.3827
  140OSM    H4G15363   2.028   1.766   5.676  0.5367  2.4069 -2.6793
  140OSM    C5F15364   2.158   1.601   5.617 -0.4007  0.7337  0.6166
  140OSM    H5F15365   2.119   1.521   5.683 -0.5529 -1.1938 -1.7031
  140OSM    H5G15366   2.267   1.590   5.601 -0.5387 -0.0010  0.1600
  140OSM    C6F15367   2.089   1.567   5.481  0.6300  0.1766  0.7421
  140OSM    H6F15368   1.981   1.561   5.508  0.2240 -1.4487 -1.0331
  140OSM    H6G15369   2.123   1.464   5.454 -1.7094 -0.3381 -0.5239
  140OSM    C7F15370   2.132   1.653   5.357  0.4309 -0.5608 -0.0862
  140OSM    H7F15371   2.242   1.654   5.342  0.8579  3.1707  2.1049
  140OSM    H7G15372   2.112   1.756   5.394 -1.7403 -1.2115  0.7226
  140OSM    C8F15373   2.063   1.625   5.220  0.0434  0.2730  0.0623
  140OSM    H8F15374   2.088   1.710   5.154 -1.3702  0.7208  0.0728
  140OSM    H8G15375   1.952   1.621   5.229 -0.2772  2.5699 -2.1010
  140OSM    C9F15376   2.108   1.489   5.165  0.3102  0.0729  0.4264
  140OSM    H9F15377   2.078   1.399   5.219 -2.1152 -0.3375 -1.4134
  140OSM   C10F15378   2.187   1.479   5.056 -0.2098  0.3676  0.0761
  140OSM   H10F15379   2.205   1.378   5.016 -2.7656 -0.1717  0.1253
  140OSM   C11F15380   2.247   1.590   4.968  1.1674 -0.4293  0.5399
  140OSM   H11F15381   2.334   1.645   5.011  0.4228  1.5788 -0.4117
  140OSM   H11G15382   2.165   1.652   4.929  2.0899 -0.2860 -1.2591
  140OSM   C12F15383   2.305   1.537   4.833  0.2220 -0.9171 -0.5658
  140OSM   H12F15384   2.230   1.500   4.760  0.7967 -2.5249 -0.3845
  140OSM   H12G15385   2.371   1.449   4.854 -2.4035 -3.1362 -1.0942
  140OSM   C13F15386   2.375   1.641   4.750  0.6968 -0.3935  0.1132
  140OSM   H13F15387   2.414   1.595   4.657  0.2186 -0.2832 -0.1421
  140OSM   H13G15388   2.450   1.689   4.817 -2.4524  0.9531  2.9781
  140OSM   C14F15389   2.296   1.768   4.708 -0.6647  0.2938 -0.3942
  140OSM   H14F15390   2.253   1.814   4.800  0.4699 -1.3269  1.0054
  140OSM   H14G15391   2.216   1.744   4.635 -0.8509  0.3763 -0.2182
  140OSM   C15F15392   2.390   1.870   4.642  0.2254 -0.0461 -0.0241
  140OSM   H15F15393   2.445   1.820   4.560  0.4195  0.5587 -0.2673
  140OSM   H15G15394   2.463   1.904   4.718 -1.2493 -0.0180  1.4423
  140OSM   C16F15395   2.325   1.995   4.583  0.4264 -0.4490 -0.0932
  140OSM   H16F15396   2.304   2.073   4.660 -1.6968 -1.6723  0.6776
  140OSM   H16G15397   2.225   1.959   4.551  0.8686 -1.1782 -0.6704
  140OSM   C17F15398   2.386   2.060   4.460 -0.6805 -0.2061 -0.1433
  140OSM   H17F15399   2.442   1.982   4.404  0.1089  0.5142 -0.3676
  140OSM   H17G15400   2.458   2.140   4.487 -1.0981 -0.0633  0.5851
  140OSM   C18F15401   2.295   2.120   4.358  0.0153 -0.0012  0.3372
  140OSM   H18F15402   2.233   2.205   4.395  0.1863 -1.3460  4.2056
  140OSM   H18G15403   2.227   2.046   4.310 -0.1352  1.2631 -1.5071
  140OSM   H18H15404   2.350   2.152   4.267 -1.8165 -1.1829 -1.2580
  141OSM      N15405   1.724   2.347   6.744 -0.3194 -0.7148 -0.0264
  141OSM    C1515406   1.792   2.217   6.715  0.1620 -0.2230 -0.3018
  141OSM   H15A15407   1.762   2.135   6.779  0.9443  0.0582  0.4465
  141OSM   H15B15408   1.899   2.216   6.727  0.0605 -1.8856  0.6584
  141OSM   H15C15409   1.762   2.195   6.614 -0.5053  1.5591 -0.5394
  141OSM    C1415410   1.579   2.331   6.711 -0.1241 -0.5975  0.3234
  141OSM   H14A15411   1.522   2.422   6.723 -0.6176 -0.8635  0.0489
  141OSM   H14B15412   1.529   2.249   6.761 -1.4377  0.5655  0.9841
  141OSM   H14C15413   1.565   2.307   6.606 -0.9988  0.0895  0.2711
  141OSM    C1315414   1.740   2.370   6.889  0.0065  0.5048 -0.3990
  141OSM   H13A15415   1.694   2.286   6.939  2.6147  0.1035  1.4926
  141OSM   H13B15416   1.677   2.453   6.918  0.3464  0.6374 -0.0394
  141OSM   H13C15417   1.846   2.373   6.907 -0.0226 -2.9464  1.2603
  141OSM    C1215418   1.777   2.461   6.660  0.6670 -0.1074  0.3491
  141OSM   H12A15419   1.875   2.483   6.700  1.3759 -1.0738 -0.7934
  141OSM   H12B15420   1.716   2.545   6.691  1.3722 -0.0270  1.6131
  141OSM    C1115421   1.790   2.458   6.509  0.3988  0.5149 -0.5843
  141OSM   H11A15422   1.848   2.367   6.483 -1.8816 -0.2163 -3.7982
  141OSM   H11B15423   1.851   2.543   6.471  0.5458  0.2290 -0.9997
  141OSM      P15424   1.589   2.579   6.397  0.0433  0.0474  0.0828
  141OSM    O1315425   1.460   2.540   6.344 -0.2372  0.1054  0.0273
  141OSM    O1415426   1.589   2.682   6.505  0.1124  0.5152 -0.3124
  141OSM    O1115427   1.693   2.622   6.282 -0.3395 -0.1617  0.0104
  141OSM    O1215428   1.657   2.450   6.448 -0.2460 -0.3559  0.0255
  141OSM    C1S15429   1.740   2.544   6.172 -0.3402  0.0164 -0.2388
  141OSM    H1S15430   1.700   2.441   6.174 -1.1858  0.3530  1.3188
  141OSM    H1T15431   1.850   2.548   6.162 -0.2761  0.2597  0.5200
  141OSM     NF15432   1.712   2.522   5.913  0.9122 -0.4686 -0.1606
  141OSM    HNF15433   1.767   2.559   5.837 -1.4768  0.1596 -1.7154
  141OSM    C2S15434   1.688   2.609   6.031  0.1618  0.1293  0.4250
  141OSM    H2S15435   1.580   2.615   6.055  0.3866  0.9181  1.2902
  141OSM    C3S15436   1.743   2.755   6.012 -0.0100 -0.1939 -0.7051
  141OSM    H3S15437   1.853   2.753   5.992 -0.0905  1.3856 -1.4561
  141OSM     O315438   1.732   2.841   6.120  0.5328 -0.0632  0.2919
  141OSM    HO315439   1.694   2.790   6.192  1.4702 -1.3649 -0.1021
  141OSM    C4S15440   1.672   2.822   5.905  0.1040 -0.1136  0.4323
  141OSM    H4S15441   1.563   2.835   5.914  0.2626  0.8081  1.1488
  141OSM    C5S15442   1.724   2.873   5.788  0.4413  0.0634 -0.7057
  141OSM    H5S15443   1.827   2.851   5.759  0.1751 -0.7755 -1.0278
  141OSM    C6S15444   1.648   2.961   5.689 -0.3139  0.5246 -1.0346
  141OSM    H6S15445   1.715   2.990   5.605  2.5728 -0.3834  0.7895
  141OSM    H6T15446   1.617   3.061   5.724 -1.9193  0.2714 -1.6283
  141OSM    C7S15447   1.523   2.889   5.640 -0.4419 -0.5856 -1.1390
  141OSM    H7S15448   1.452   2.898   5.725 -0.6255  1.5448 -1.4589
  141OSM    H7T15449   1.531   2.778   5.628 -0.1838 -0.6248 -0.6126
  141OSM    C8S15450   1.470   2.962   5.510 -0.2430  0.4518  0.1584
  141OSM    H8S15451   1.487   3.072   5.504  3.8408  0.1262  2.2230
  141OSM    H8T15452   1.359   2.950   5.502 -0.3541  0.9044  0.8693
  141OSM    C9S15453   1.520   2.895   5.386  0.1798  0.1056 -0.0933
  141OSM    H9S15454   1.489   2.788   5.388  0.9634 -0.1379 -0.5816
  141OSM    H9T15455   1.631   2.893   5.389  0.1887 -2.4448  0.4849
  141OSM   C10S15456   1.473   2.965   5.256  0.1057  0.1809 -0.0424
  141OSM   H10S15457   1.521   3.065   5.265  0.9379 -0.3018  1.3835
  141OSM   H10T15458   1.363   2.965   5.264  0.1861  0.3656  1.2663
  141OSM   C11S15459   1.521   2.869   5.145 -0.4092 -0.1791  0.0284
  141OSM   H11S15460   1.472   2.771   5.167 -0.5294  0.2822  2.0343
  141OSM   H11T15461   1.626   2.838   5.160 -0.1853  0.1697 -0.7876
  141OSM   C12S15462   1.499   2.922   5.000 -0.1170 -0.6027  0.0965
  141OSM   H12S15463   1.568   3.000   4.961  0.0853  0.6594  2.7011
  141OSM   H12T15464   1.394   2.955   4.989  0.3675  0.7739 -0.6816
  141OSM   C13S15465   1.515   2.797   4.908  0.5973 -0.4911  0.3941
  141OSM   H13S15466   1.430   2.732   4.938 -1.0836  1.1842 -0.5088
  141OSM   H13T15467   1.612   2.749   4.932  0.4395  0.1916  2.6155
  141OSM   C14S15468   1.505   2.846   4.763  0.1240 -0.0533  0.1127
  141OSM   H14S15469   1.595   2.909   4.747 -0.6406  1.3106  0.9607
  141OSM   H14T15470   1.413   2.907   4.756 -0.8579 -1.5218 -0.1979
  141OSM   C15S15471   1.480   2.737   4.666 -0.0911  0.1908 -0.3512
  141OSM   H15S15472   1.382   2.689   4.685 -0.8985  2.0188  0.3645
  141OSM   H15T15473   1.559   2.660   4.678 -0.9832 -0.5079  1.2346
  141OSM   C16S15474   1.495   2.801   4.524  0.1879  1.0030  0.3635
  141OSM   H16S15475   1.575   2.878   4.516 -0.3987  1.8181  1.9177
  141OSM   H16T15476   1.401   2.855   4.498 -0.6719 -0.7664 -0.3709
  141OSM   C17S15477   1.521   2.686   4.426 -0.3554  0.2346 -0.3262
  141OSM   H17S15478   1.437   2.614   4.428  0.0120 -0.2526 -1.6445
  141OSM   H17T15479   1.618   2.638   4.452 -0.2460  0.0789 -1.0046
  141OSM   C18S15480   1.530   2.723   4.282 -0.3919 -0.6604  0.4723
  141OSM   H18S15481   1.613   2.792   4.259 -0.4687 -0.9914 -0.8980
  141OSM   H18T15482   1.441   2.770   4.235  0.3876  0.8017  0.4067
  141OSM   H18U15483   1.540   2.625   4.229 -1.2706 -0.0837 -0.8032
  141OSM    C1F15484   1.667   2.399   5.893  0.1492  0.2745 -0.1679
  141OSM     OF15485   1.636   2.325   5.985  0.6001  0.2115  0.2924
  141OSM    C2F15486   1.663   2.346   5.758  0.7672 -0.6013  0.5467
  141OSM    H2F15487   1.569   2.287   5.749  0.2960  0.3308 -1.0901
  141OSM    H2G15488   1.744   2.272   5.741 -1.7175 -3.4231  0.0912
  141OSM    C3F15489   1.640   2.456   5.647  0.4499  0.4997  0.4302
  141OSM    H3F15490   1.733   2.514   5.628 -0.3438  0.9950 -2.5382
  141OSM    H3G15491   1.561   2.525   5.681  0.1965  0.5453 -0.2239
  141OSM    C4F15492   1.600   2.385   5.518  0.0026 -0.4071 -0.2040
  141OSM    H4F15493   1.499   2.342   5.537  0.7932 -1.7818  1.1405
  141OSM    H4G15494   1.670   2.299   5.503 -0.8208 -1.0226 -0.6097
  141OSM    C5F15495   1.591   2.479   5.400  0.4074  0.0163  0.4131
  141OSM    H5F15496   1.694   2.507   5.367 -0.9720  3.0000 -1.8175
  141OSM    H5G15497   1.526   2.566   5.422  0.4049 -0.3519  2.0233
  141OSM    C6F15498   1.528   2.393   5.287  0.4324 -0.0125 -0.0880
  141OSM    H6F15499   1.432   2.351   5.322 -0.2198 -0.1126 -1.8916
  141OSM    H6G15500   1.596   2.308   5.267 -1.0152 -1.5256  1.1700
  141OSM    C7F15501   1.521   2.469   5.152  0.5224  0.0197 -0.7664
  141OSM    H7F15502   1.621   2.513   5.133  0.3463 -0.0579 -1.9634
  141OSM    H7G15503   1.449   2.553   5.154 -1.0845 -1.3206  0.2724
  141OSM    C8F15504   1.492   2.369   5.035 -0.0259  0.5620 -0.3023
  141OSM    H8F15505   1.555   2.279   5.049  0.3543  0.6893 -1.1218
  141OSM    H8G15506   1.524   2.418   4.940  0.6955  1.1094  0.2133
  141OSM    C9F15507   1.350   2.327   5.034  0.0578 -0.6397 -0.4288
  141OSM    H9F15508   1.294   2.302   5.125 -3.9295  0.9792 -2.1883
  141OSM   C10F15509   1.286   2.310   4.920 -0.0988 -0.0538  0.7118
  141OSM   H10F15510   1.177   2.295   4.923 -0.0953  0.0277  3.2736
  141OSM   C11F15511   1.334   2.343   4.780 -0.5285  0.0938  0.6033
  141OSM   H11F15512   1.408   2.267   4.748  0.4145  1.8926 -1.7966
  141OSM   H11G15513   1.387   2.440   4.792  1.4989 -0.8744 -0.1941
  141OSM   C12F15514   1.224   2.370   4.668  1.2027  0.3717  0.5117
  141OSM   H12F15515   1.212   2.481   4.665  1.0399  0.3398 -0.1426
  141OSM   H12G15516   1.125   2.325   4.694  1.6131 -0.6775  0.3042
  141OSM   C13F15517   1.277   2.321   4.532  0.3850 -0.4557 -0.6295
  141OSM   H13F15518   1.286   2.211   4.537 -0.1055 -0.4596  0.4172
  141OSM   H13G15519   1.383   2.351   4.518  1.3270 -3.1403  0.2104
  141OSM   C14F15520   1.191   2.371   4.412 -0.1867 -0.1409  0.0261
  141OSM   H14F15521   1.195   2.481   4.405 -0.8035 -0.1468 -0.5328
  141OSM   H14G15522   1.083   2.355   4.432 -0.2677 -0.4233 -0.6314
  141OSM   C15F15523   1.241   2.326   4.281  0.7120  0.3053 -0.0664
  141OSM   H15F15524   1.248   2.215   4.275 -1.0394  0.2396 -2.2212
  141OSM   H15G15525   1.343   2.368   4.270  1.5232 -1.1247  1.5190
  141OSM   C16F15526   1.140   2.362   4.165 -0.9459 -0.3235 -0.3825
  141OSM   H16F15527   1.209   2.371   4.079  0.3683  2.1089  0.8362
  141OSM   H16G15528   1.102   2.466   4.174  0.9402  0.4423 -0.8277
  141OSM   C17F15529   1.038   2.251   4.139  0.3341  0.6728  0.2437
  141OSM   H17F15530   0.987   2.241   4.237  0.2699  1.2652  0.2753
  141OSM   H17G15531   1.086   2.153   4.118 -0.8684  0.0255  0.4168
  141OSM   C18F15532   0.947   2.284   4.022 -0.3062  0.3541 -0.0315
  141OSM   H18F15533   0.895   2.194   3.982  2.4511 -1.3362 -0.0658
  141OSM   H18G15534   1.007   2.310   3.933 -0.5708 -3.6293 -1.5569
  141OSM   H18H15535   0.886   2.373   4.051  2.0709  2.4792 -1.1675
  142OSM      N15536   0.882   6.431   6.787 -0.5346  0.2797 -0.5882
  142OSM    C1515537   0.930   6.460   6.925 -0.6584 -0.9110  0.1009
  142OSM   H15A15538   0.852   6.494   6.991  0.6869 -1.0721  1.8486
  142OSM   H15B15539   1.001   6.542   6.926 -1.3811 -0.2799  0.8965
  142OSM   H15C15540   0.968   6.367   6.964  2.2269 -0.7840 -2.0526
  142OSM    C1415541   0.785   6.325   6.798  0.4510 -0.2096 -0.0421
  142OSM   H14A15542   0.752   6.286   6.703  0.0329 -0.1704  0.0853
  142OSM   H14B15543   0.691   6.355   6.842  0.8374 -0.1500  0.7551
  142OSM   H14C15544   0.821   6.242   6.856 -0.9550 -0.8925 -0.1091
  142OSM    C1315545   0.797   6.546   6.740  0.0067  0.7503 -0.0138
  142OSM   H13A15546   0.757   6.508   6.647 -2.5808 -0.2293  1.3683
  142OSM   H13B15547   0.853   6.636   6.720  0.9684 -0.1533 -1.4930
  142OSM   H13C15548   0.715   6.567   6.808 -0.5961  1.1711 -0.8533
  142OSM    C1215549   0.989   6.413   6.682  0.9555  0.0819 -0.1003
  142OSM   H12A15550   1.042   6.507   6.688 -2.3680  2.0441  0.8047
  142OSM   H12B15551   0.933   6.408   6.591 -0.0955  0.5139  0.5086
  142OSM    C1115552   1.086   6.290   6.688 -0.4961  0.0291  0.0209
  142OSM   H11A15553   1.144   6.298   6.783  0.1343  0.5781 -0.4027
  142OSM   H11B15554   1.170   6.296   6.615  1.0892 -0.1856  1.7389
  142OSM      P15555   0.958   6.111   6.555 -0.5900 -0.2037  0.2696
  142OSM    O1315556   1.052   6.009   6.500  0.0400  0.0549 -0.4075
  142OSM    O1415557   0.821   6.055   6.571 -0.2343 -0.2725  0.0398
  142OSM    O1115558   0.947   6.239   6.467 -0.3567 -1.2627 -0.3251
  142OSM    O1215559   1.017   6.166   6.686 -0.9953  0.2734 -0.4940
  142OSM    C1S15560   0.987   6.239   6.329 -0.0890  0.1686 -0.6174
  142OSM    H1S15561   1.047   6.157   6.287 -0.2534 -0.8306  1.0000
  142OSM    H1T15562   1.041   6.335   6.313 -0.1321 -0.1239 -2.7047
  142OSM     NF15563   0.907   6.256   6.088  0.0705  1.0354 -0.6545
  142OSM    HNF15564   0.912   6.344   6.041 -2.1780  2.1317  0.9465
  142OSM    C2S15565   0.863   6.259   6.230  0.3673  0.1605  0.1022
  142OSM    H2S15566   0.810   6.163   6.250 -0.7110  0.9424  1.1005
  142OSM    C3S15567   0.766   6.377   6.265 -0.4385 -0.1916  0.5535
  142OSM    H3S15568   0.828   6.469   6.271 -2.1517  1.1654 -1.3416
  142OSM     O315569   0.714   6.374   6.400  0.0427  0.4353 -0.6482
  142OSM    HO315570   0.771   6.307   6.437  2.0513  2.8660  0.9100
  142OSM    C4S15571   0.659   6.405   6.164  0.1190  0.6156 -0.2556
  142OSM    H4S15572   0.680   6.472   6.079 -0.4307  1.8710  0.5689
  142OSM    C5S15573   0.536   6.344   6.175  0.0960  0.4504  0.1954
  142OSM    H5S15574   0.517   6.283   6.264  1.3988  0.5638  0.5643
  142OSM    C6S15575   0.426   6.382   6.076  0.1879  0.6236 -0.1112
  142OSM    H6S15576   0.473   6.459   6.011  2.3525  1.0744  1.8344
  142OSM    H6T15577   0.335   6.424   6.123 -1.2353 -2.0238 -0.3297
  142OSM    C7S15578   0.373   6.268   6.002 -0.9280 -0.2522 -0.1405
  142OSM    H7S15579   0.354   6.168   6.047 -0.5560  0.4774  1.7139
  142OSM    H7T15580   0.454   6.248   5.928 -1.2394 -0.5259 -0.4146
  142OSM    C8S15581   0.259   6.306   5.909 -0.6137 -0.2257 -0.2062
  142OSM    H8S15582   0.255   6.417   5.908 -0.4649 -0.2177  0.0135
  142OSM    H8T15583   0.169   6.274   5.965 -0.3862 -0.4954  0.0059
  142OSM    C9S15584   0.266   6.268   5.763 -0.0737  0.2296 -0.6592
  142OSM    H9S15585   0.267   6.157   5.767 -0.2069  0.1609 -1.9166
  142OSM    H9T15586   0.362   6.308   5.722 -0.3239  3.7020  1.7322
  142OSM   C10S15587   0.144   6.334   5.692 -0.7074  0.8445  0.5579
  142OSM   H10S15588   0.167   6.443   5.694 -1.5697  1.0249  1.1648
  142OSM   H10T15589   0.049   6.313   5.746 -1.7727 -5.3663 -2.7815
  142OSM   C11S15590   0.126   6.282   5.551 -0.6002  0.2086  0.6193
  142OSM   H11S15591   0.229   6.276   5.511 -0.4769 -0.2332  0.9887
  142OSM   H11T15592   0.077   6.352   5.480 -0.8509 -1.4166 -0.8879
  142OSM   C12S15593   0.073   6.139   5.535 -0.1965 -0.0395 -0.6389
  142OSM   H12S15594  -0.037   6.144   5.528 -0.0805  1.2981 -1.8789
  142OSM   H12T15595   0.107   6.079   5.623  4.0455  1.3471 -1.1057
  142OSM   C13S15596   0.122   6.065   5.410  0.2481  0.2973  0.1365
  142OSM   H13S15597   0.104   5.956   5.420 -0.6206  0.1328 -2.5371
  142OSM   H13T15598   0.232   6.072   5.403  0.2386  1.0976  0.6408
  142OSM   C14S15599   0.037   6.086   5.281 -0.1100  0.0503  0.0097
  142OSM   H14S15600  -0.070   6.070   5.306 -0.1678  1.7798  1.0538
  142OSM   H14T15601   0.068   6.021   5.196  0.5900  1.2394 -0.6849
  142OSM   C15S15602   0.060   6.224   5.213  0.4476  0.1443  0.2755
  142OSM   H15S15603   0.163   6.244   5.175  0.4443 -0.7014 -0.2006
  142OSM   H15T15604   0.039   6.298   5.292 -1.3624 -1.2644  1.1762
  142OSM   C16S15605  -0.031   6.241   5.090  0.6253  0.2897  0.2626
  142OSM   H16S15606  -0.129   6.198   5.120 -0.1636  2.3701  0.8606
  142OSM   H16T15607   0.018   6.186   5.007  0.1513  1.0753 -0.5598
  142OSM   C17S15608  -0.029   6.387   5.038 -0.3975 -0.8852 -0.3611
  142OSM   H17S15609  -0.098   6.402   4.953 -0.4410  1.5342  0.0294
  142OSM   H17T15610   0.070   6.406   4.990 -0.0902 -0.3033  0.4608
  142OSM   C18S15611  -0.062   6.499   5.137 -0.6084  0.1981 -0.3973
  142OSM   H18S15612  -0.089   6.584   5.070  0.1261 -0.3293 -1.3875
  142OSM   H18T15613   0.027   6.520   5.199 -1.8077 -3.4552  2.9398
  142OSM   H18U15614  -0.146   6.464   5.201  0.9678 -3.7229 -0.1844
  142OSM    C1F15615   0.946   6.139   6.030  0.5045 -0.5308 -0.2551
  142OSM     OF15616   0.950   6.038   6.096  0.3979 -0.6696  0.4012
  142OSM    C2F15617   0.973   6.140   5.884 -0.0529 -0.1683  0.0172
  142OSM    H2F15618   1.083   6.126   5.873 -0.0971  0.6505 -1.9297
  142OSM    H2G15619   0.936   6.230   5.829  2.1074  0.0617 -1.1953
  142OSM    C3F15620   0.916   6.017   5.813 -0.2938 -0.4948  0.1134
  142OSM    H3F15621   0.958   5.927   5.862 -5.1951 -3.2640 -0.1265
  142OSM    H3G15622   0.955   6.021   5.709 -1.3664 -0.9975 -0.3274
  142OSM    C4F15623   0.762   5.986   5.800 -0.8265 -0.2913  0.6949
  142OSM    H4F15624   0.723   5.982   5.904  0.4818  1.5013  1.3149
  142OSM    H4G15625   0.755   5.889   5.747 -1.7745 -0.7147  1.5743
  142OSM    C5F15626   0.685   6.099   5.726  0.0868 -0.1096 -0.0693
  142OSM    H5F15627   0.674   6.203   5.764  1.6200 -0.4268  1.3411
  142OSM    H5G15628   0.584   6.053   5.722 -0.5481  1.2835 -1.6228
  142OSM    C6F15629   0.717   6.104   5.576  0.2398 -0.4373 -0.6189
  142OSM    H6F15630   0.704   6.003   5.534 -0.3205 -1.6987  2.3232
  142OSM    H6G15631   0.823   6.121   5.548  0.5583 -1.2180  0.0822
  142OSM    C7F15632   0.615   6.192   5.510  0.1317 -0.7076  0.6316
  142OSM    H7F15633   0.604   6.293   5.555 -2.5117  0.6095 -2.5252
  142OSM    H7G15634   0.515   6.145   5.521 -1.2744  2.0141  0.3155
  142OSM    C8F15635   0.638   6.213   5.361 -0.1664 -0.8336 -0.1209
  142OSM    H8F15636   0.643   6.115   5.309 -1.0189  0.0965 -2.0312
  142OSM    H8G15637   0.728   6.273   5.340 -0.2551 -0.7287 -0.2045
  142OSM    C9F15638   0.520   6.292   5.301  0.5639  0.1555 -0.6951
  142OSM    H9F15639   0.506   6.388   5.354 -0.5928 -0.4570  0.1632
  142OSM   C10F15640   0.441   6.268   5.194 -0.1656  0.3897 -0.1490
  142OSM   H10F15641   0.366   6.345   5.171  0.3130  0.9408  0.1079
  142OSM   C11F15642   0.445   6.141   5.112  0.1564 -0.1409  0.2103
  142OSM   H11F15643   0.340   6.119   5.080  1.1218 -2.2610 -1.8181
  142OSM   H11G15644   0.487   6.062   5.177  2.3779  0.2642 -0.6396
  142OSM   C12F15645   0.527   6.145   4.981  0.0493  0.3169 -0.4362
  142OSM   H12F15646   0.530   6.045   4.933  4.3489 -1.2707  2.5562
  142OSM   H12G15647   0.634   6.164   5.004  0.3075  2.2398 -2.8264
  142OSM   C13F15648   0.468   6.251   4.887  0.0368  0.1568  0.6593
  142OSM   H13F15649   0.488   6.352   4.928  1.7307 -1.0958  3.2109
  142OSM   H13G15650   0.357   6.244   4.893 -0.0090  1.5931  2.1354
  142OSM   C14F15651   0.505   6.227   4.736  0.4835  0.2050 -0.5741
  142OSM   H14F15652   0.471   6.126   4.706  1.1990 -0.1429 -0.2207
  142OSM   H14G15653   0.616   6.220   4.732  0.4574 -1.8292  0.8704
  142OSM   C15F15654   0.453   6.343   4.641  0.0195 -0.0442  0.4179
  142OSM   H15F15655   0.506   6.433   4.679  0.5344  0.5733 -1.6577
  142OSM   H15G15656   0.342   6.350   4.651  0.2538  3.1803  2.0279
  142OSM   C16F15657   0.508   6.330   4.499 -0.2331 -0.1991  0.0443
  142OSM   H16F15658   0.607   6.291   4.530 -1.3097 -1.6462  1.8389
  142OSM   H16G15659   0.521   6.432   4.458 -2.8198 -0.0470 -0.5661
  142OSM   C17F15660   0.431   6.239   4.408  0.4332  0.1961 -0.3809
  142OSM   H17F15661   0.445   6.132   4.436 -0.8516 -0.2830 -1.4501
  142OSM   H17G15662   0.483   6.250   4.310 -0.9102  0.9357 -1.0426
  142OSM   C18F15663   0.285   6.285   4.375 -0.5261  0.4506 -0.1365
  142OSM   H18F15664   0.285   6.394   4.357 -1.6550  0.9315  2.4001
  142OSM   H18G15665   0.211   6.272   4.457 -1.1372 -0.4932 -0.8097
  142OSM   H18H15666   0.257   6.242   4.276  0.3930  1.6374 -0.9361
  143OSM      N15667   0.191   3.588   6.284  0.4702 -0.0869 -0.3991
  143OSM    C1515668   0.092   3.647   6.191  0.2246 -0.7594  0.2410
  143OSM   H15A15669   0.097   3.608   6.090 -0.0172 -3.1802  1.0959
  143OSM   H15B15670   0.098   3.753   6.174  1.7249 -0.9220 -0.4599
  143OSM   H15C15671  -0.009   3.624   6.221  0.2569 -0.2096  0.7702
  143OSM    C1415672   0.199   3.442   6.246 -0.7832 -0.6358  0.6658
  143OSM   H14A15673   0.224   3.430   6.141 -0.3717 -0.0619  0.6940
  143OSM   H14B15674   0.106   3.389   6.257 -1.0041 -0.0468  1.7697
  143OSM   H14C15675   0.279   3.395   6.300  2.0621  1.8997 -0.9969
  143OSM    C1315676   0.315   3.661   6.267 -0.6336 -0.6289 -0.0263
  143OSM   H13A15677   0.353   3.653   6.166  3.1747 -0.2579  1.2319
  143OSM   H13B15678   0.400   3.627   6.324 -0.8008  0.6424  1.0338
  143OSM   H13C15679   0.291   3.759   6.304  2.5180  0.7265 -1.2336
  143OSM    C1215680   0.136   3.583   6.422 -0.0622  0.5744 -0.1673
  143OSM   H12A15681   0.210   3.537   6.487 -0.5305  0.4925  0.3122
  143OSM   H12B15682   0.060   3.508   6.411  0.2003  0.2559  0.1483
  143OSM    C1115683   0.090   3.715   6.490 -0.1879 -0.2053 -0.8239
  143OSM   H11A15684   0.069   3.692   6.596 -0.2493 -2.4428 -1.2652
  143OSM   H11B15685  -0.001   3.756   6.441 -0.3450 -2.3612 -2.5229
  143OSM      P15686   0.171   3.966   6.497  0.1742 -0.1643 -0.2142
  143OSM    O1315687   0.052   3.987   6.584 -0.2344 -0.2362  0.7760
  143OSM    O1415688   0.297   4.019   6.547 -0.1345  0.5839  0.5743
  143OSM    O1115689   0.136   4.010   6.348  0.2756 -0.7325  0.0058
  143OSM    O1215690   0.197   3.809   6.497  0.3388 -0.2140 -0.1101
  143OSM    C1S15691   0.218   3.982   6.229 -0.1729  0.1469  0.1917
  143OSM    H1S15692   0.186   3.888   6.179 -0.2584  0.5889 -0.6014
  143OSM    H1T15693   0.327   3.990   6.249 -0.0169 -1.1991  0.0181
  143OSM     NF15694   0.200   3.998   5.986 -0.0935  0.0638  0.1957
  143OSM    HNF15695   0.282   4.010   5.930  1.1522  3.2453  2.3960
  143OSM    C2S15696   0.201   4.081   6.108 -0.2585 -0.4401 -0.3022
  143OSM    H2S15697   0.103   4.132   6.109 -0.5206 -0.9124 -1.1705
  143OSM    C3S15698   0.302   4.204   6.116  0.5635  0.3883 -0.1574
  143OSM    H3S15699   0.405   4.166   6.096  1.0087  1.1634  0.6036
  143OSM     O315700   0.325   4.271   6.243 -0.2340 -0.2923  0.4187
  143OSM    HO315701   0.299   4.216   6.318 -0.7682 -3.3089 -1.7851
  143OSM    C4S15702   0.279   4.304   6.010  0.3700 -0.2760 -0.1522
  143OSM    H4S15703   0.373   4.317   5.955  0.4375  1.1559  0.2693
  143OSM    C5S15704   0.171   4.388   5.996 -0.3754  0.4952  0.3142
  143OSM    H5S15705   0.090   4.395   6.069  0.3977 -2.1912  1.5680
  143OSM    C6S15706   0.167   4.488   5.885 -0.0008  0.0187 -0.1500
  143OSM    H6S15707   0.209   4.582   5.927 -1.6365  0.9010 -0.3841
  143OSM    H6T15708   0.059   4.507   5.863 -0.7865 -1.3918  2.1681
  143OSM    C7S15709   0.239   4.445   5.756 -0.5725 -0.3781 -0.7844
  143OSM    H7S15710   0.224   4.340   5.722 -0.6573 -0.0608 -1.7438
  143OSM    H7T15711   0.349   4.447   5.770 -0.6345  0.3525 -0.3596
  143OSM    C8S15712   0.199   4.537   5.644 -0.4078  0.1657  0.3134
  143OSM    H8S15713   0.247   4.637   5.655  1.5041 -0.3987 -2.0073
  143OSM    H8T15714   0.091   4.553   5.627 -0.5063 -0.3266  0.4518
  143OSM    C9S15715   0.240   4.464   5.506  0.5295  0.1155 -0.3298
  143OSM    H9S15716   0.195   4.363   5.495  0.8729 -0.0266 -0.4676
  143OSM    H9T15717   0.350   4.449   5.516  0.3522  0.0657  2.1005
  143OSM   C10S15718   0.207   4.568   5.394 -0.3055 -0.9242 -0.6500
  143OSM   H10S15719   0.276   4.654   5.410 -0.4923 -1.0666  1.0839
  143OSM   H10T15720   0.105   4.611   5.396  0.8592  2.4838 -3.7081
  143OSM   C11S15721   0.219   4.520   5.251  0.0934 -0.2544  0.5986
  143OSM   H11S15722   0.165   4.425   5.228 -1.8421  0.6431  1.2534
  143OSM   H11T15723   0.324   4.488   5.235 -0.0671 -0.6470  0.3008
  143OSM   C12S15724   0.173   4.621   5.145  0.2486  0.0163 -0.0075
  143OSM   H12S15725   0.211   4.720   5.176  0.0176 -0.5008  2.0914
  143OSM   H12T15726   0.062   4.620   5.147  0.1681  2.6515 -0.1728
  143OSM   C13S15727   0.212   4.598   4.998  0.1877  0.3200  0.4052
  143OSM   H13S15728   0.323   4.589   4.999  0.0522 -1.9442  1.0554
  143OSM   H13T15729   0.178   4.688   4.942 -1.6143 -0.3722  0.3253
  143OSM   C14S15730   0.158   4.473   4.930  0.0075 -0.2013  0.0291
  143OSM   H14S15731   0.052   4.492   4.904 -0.3732 -2.3563 -0.1421
  143OSM   H14T15732   0.165   4.386   4.998 -0.0075 -1.0223 -0.9830
  143OSM   C15S15733   0.227   4.430   4.801  0.0747  0.2522  0.6045
  143OSM   H15S15734   0.336   4.415   4.821  0.3305  2.1780  0.8003
  143OSM   H15T15735   0.212   4.517   4.734  1.4337 -0.1738 -0.3160
  143OSM   C16S15736   0.173   4.292   4.747 -0.0609 -0.0787  0.5989
  143OSM   H16S15737   0.069   4.298   4.706  0.6264  1.1164 -1.1256
  143OSM   H16T15738   0.180   4.213   4.824 -0.7806 -1.3005 -0.5347
  143OSM   C17S15739   0.258   4.257   4.626 -0.2058  0.1248  0.1502
  143OSM   H17S15740   0.362   4.240   4.664  0.5325  1.4807 -1.1504
  143OSM   H17T15741   0.260   4.338   4.550  1.4934  0.7209  0.7681
  143OSM   C18S15742   0.219   4.124   4.559 -0.1450  0.0295 -0.4745
  143OSM   H18S15743   0.289   4.105   4.475  0.4607  0.6384 -0.1095
  143OSM   H18T15744   0.110   4.133   4.538  0.0400 -0.0715 -1.5273
  143OSM   H18U15745   0.237   4.043   4.633  2.4413  1.1821  0.2457
  143OSM    C1F15746   0.086   3.930   5.940 -0.4411  0.4906 -0.5938
  143OSM     OF15747  -0.003   3.912   6.022  0.0771 -0.2778 -1.0781
  143OSM    C2F15748   0.085   3.876   5.802  0.0075  0.5242  0.1662
  143OSM    H2F15749   0.178   3.817   5.793  1.2866  2.2673  1.3041
  143OSM    H2G15750   0.088   3.959   5.728  0.6268 -0.0515 -0.4627
  143OSM    C3F15751  -0.042   3.794   5.774  0.4036  0.4163  0.0794
  143OSM    H3F15752  -0.131   3.856   5.800 -1.3582 -1.9091 -0.1686
  143OSM    H3G15753  -0.051   3.695   5.823 -1.3122  0.5756  0.1564
  143OSM    C4F15754  -0.031   3.754   5.626  0.2443 -0.0369 -0.1411
  143OSM    H4F15755  -0.011   3.848   5.571  2.4000  1.0806  2.3668
  143OSM    H4G15756  -0.130   3.712   5.597  0.9404 -1.0997 -1.0647
  143OSM    C5F15757   0.083   3.649   5.589  0.0271  0.0491  0.5004
  143OSM    H5F15758   0.047   3.546   5.608  2.5641 -1.1681 -0.8051
  143OSM    H5G15759   0.170   3.662   5.657 -1.5011  1.4806  2.2887
  143OSM    C6F15760   0.144   3.668   5.448  0.1310 -0.6922  0.1006
  143OSM    H6F15761   0.235   3.605   5.434  0.6970  0.2993 -0.8076
  143OSM    H6G15762   0.177   3.773   5.438  0.1709 -0.9127 -3.0851
  143OSM    C7F15763   0.042   3.652   5.338 -0.2385 -0.0810  0.7987
  143OSM    H7F15764  -0.036   3.725   5.367 -0.3033  0.6928 -1.1258
  143OSM    H7G15765   0.010   3.548   5.357  2.9190 -1.3612 -0.1887
  143OSM    C8F15766   0.096   3.664   5.194 -0.1882 -0.3979  0.0091
  143OSM    H8F15767   0.019   3.640   5.117 -1.4330 -0.4651  1.2159
  143OSM    H8G15768   0.175   3.586   5.190 -0.7198 -1.0667  1.5699
  143OSM    C9F15769   0.147   3.809   5.169  0.0731  0.3781  0.3173
  143OSM    H9F15770   0.124   3.886   5.244  0.2434  2.0779 -1.3007
  143OSM   C10F15771   0.223   3.840   5.061  0.1453  0.2546  0.8496
  143OSM   H10F15772   0.261   3.943   5.050  0.5032  0.1064  0.6566
  143OSM   C11F15773   0.285   3.745   4.960 -0.2715  0.2167 -0.0736
  143OSM   H11F15774   0.232   3.648   4.963 -1.1907  0.7344  0.8853
  143OSM   H11G15775   0.390   3.730   4.991 -0.7684 -0.6537  1.2413
  143OSM   C12F15776   0.286   3.807   4.815 -0.3533 -0.1466  0.0125
  143OSM   H12F15777   0.324   3.911   4.815  0.4595 -0.3212 -3.3593
  143OSM   H12G15778   0.179   3.809   4.788 -1.0278 -3.3635  1.8771
  143OSM   C13F15779   0.374   3.725   4.718  0.1951  0.5382  0.0346
  143OSM   H13F15780   0.334   3.623   4.696 -1.1938  0.9977  0.2957
  143OSM   H13G15781   0.473   3.704   4.763  0.6933  0.7720 -0.9246
  143OSM   C14F15782   0.402   3.798   4.593  0.8478 -0.3935  0.9543
  143OSM   H14F15783   0.454   3.893   4.617  3.7763 -0.7116 -3.0469
  143OSM   H14G15784   0.307   3.824   4.542  0.1862 -2.1848  1.2236
  143OSM   C15F15785   0.497   3.724   4.487  0.2656 -0.2709 -0.0442
  143OSM   H15F15786   0.467   3.777   4.395  1.1178  0.8719  0.3137
  143OSM   H15G15787   0.463   3.618   4.484  0.8368 -0.5134 -4.4826
  143OSM   C16F15788   0.651   3.743   4.510  0.9741  0.2907 -0.4478
  143OSM   H16F15789   0.688   3.692   4.602  1.8608  0.2220 -0.8250
  143OSM   H16G15790   0.685   3.847   4.528  0.3938  0.0843  2.1571
  143OSM   C17F15791   0.741   3.693   4.395  0.4091 -0.1472  0.5852
  143OSM   H17F15792   0.718   3.759   4.308  0.9198  1.2550  1.4692
  143OSM   H17G15793   0.725   3.594   4.348  1.3731 -0.0963  0.1158
  143OSM   C18F15794   0.884   3.716   4.427 -0.3908  0.1884  0.5612
  143OSM   H18F15795   0.916   3.663   4.519  1.4806  1.3083  0.6095
  143OSM   H18G15796   0.920   3.821   4.430  1.5547 -0.4039 -0.4875
  143OSM   H18H15797   0.941   3.676   4.340  0.3501  0.1146  1.0714
  144OSM      N15798   1.128   3.291   6.550  0.4046  0.5140 -0.9426
  144OSM    C1515799   1.196   3.383   6.650  0.4184  0.1378  0.5995
  144OSM   H15A15800   1.283   3.423   6.600  0.7742 -2.0963 -0.7085
  144OSM   H15B15801   1.241   3.318   6.724  0.7487 -0.8502 -0.4290
  144OSM   H15C15802   1.125   3.457   6.682  1.3416  1.6247 -0.6462
  144OSM    C1415803   1.233   3.181   6.527  0.2876 -0.3859  0.2965
  144OSM   H14A15804   1.273   3.142   6.619  0.3515 -0.5138  0.2157
  144OSM   H14B15805   1.311   3.216   6.462 -0.5765 -0.9164 -1.0723
  144OSM   H14C15806   1.185   3.100   6.473 -1.3781 -0.1995  1.3983
  144OSM    C1315807   1.006   3.233   6.625 -0.5471  0.0019 -0.0036
  144OSM   H13A15808   0.934   3.312   6.641 -0.9730  0.2203 -2.5310
  144OSM   H13B15809   1.038   3.196   6.721 -1.0515  0.4210  0.3308
  144OSM   H13C15810   0.963   3.159   6.559  0.1079 -0.1692 -0.2522
  144OSM    C1215811   1.081   3.352   6.422  0.2105  0.0580 -0.3298
  144OSM   H12A15812   1.022   3.286   6.359  0.0192  0.9562 -1.1167
  144OSM   H12B15813   1.171   3.367   6.365  0.5698 -0.3236  0.1291
  144OSM    C1115814   1.009   3.482   6.436  0.1828 -0.6791 -0.3960
  144OSM   H11A15815   0.992   3.525   6.335 -0.0455  0.3702  0.0689
  144OSM   H11B15816   1.078   3.559   6.479 -2.1969  0.5446  1.4794
  144OSM      P15817   0.750   3.459   6.464  0.5127 -0.3028  0.3512
  144OSM    O1315818   0.666   3.365   6.546  0.6219  0.5315  0.3473
  144OSM    O1415819   0.700   3.598   6.451  0.0254 -0.1128 -0.3555
  144OSM    O1115820   0.766   3.396   6.322 -0.4757  0.5607  1.1211
  144OSM    O1215821   0.898   3.470   6.523  0.4265 -0.1155 -0.2447
  144OSM    C1S15822   0.651   3.357   6.252  0.5501 -0.6938 -0.1031
  144OSM    H1S15823   0.585   3.444   6.232  2.6633  1.5538  1.9443
  144OSM    H1T15824   0.607   3.271   6.308 -1.9560  1.3557  1.3117
  144OSM     NF15825   0.576   3.246   6.043  0.1245 -0.3246  0.0633
  144OSM    HNF15826   0.573   3.147   6.036  0.6528 -0.7996  4.0681
  144OSM    C2S15827   0.694   3.302   6.116 -0.5265 -0.0727 -0.6821
  144OSM    H2S15828   0.725   3.396   6.065  2.3004 -0.7085 -0.2949
  144OSM    C3S15829   0.818   3.211   6.129 -0.1326 -0.2768  0.3151
  144OSM    H3S15830   0.802   3.144   6.217 -0.5849  0.3227  0.6956
  144OSM     O315831   0.940   3.275   6.152  0.1683 -0.2303 -0.0174
  144OSM    HO315832   0.920   3.366   6.176 -1.5839 -0.1671 -1.4692
  144OSM    C4S15833   0.829   3.120   6.010 -0.6365 -0.5812 -0.5536
  144OSM    H4S15834   0.828   3.176   5.916 -2.5448  2.4932  1.1074
  144OSM    C5S15835   0.838   2.990   6.012 -0.6149  0.3826  0.5049
  144OSM    H5S15836   0.851   2.939   6.109  3.9760  0.1027 -0.0224
  144OSM    C6S15837   0.848   2.905   5.895  0.1162 -0.5205  0.2136
  144OSM    H6S15838   0.788   2.813   5.909 -0.7507 -0.2264 -1.3202
  144OSM    H6T15839   0.949   2.864   5.877  0.0856 -1.1789  1.4094
  144OSM    C7S15840   0.803   2.973   5.761 -0.1374 -0.0353 -0.9155
  144OSM    H7S15841   0.886   3.046   5.750  0.4971 -0.1781  2.0513
  144OSM    H7T15842   0.700   3.014   5.763  0.4180  1.5746 -2.5148
  144OSM    C8S15843   0.818   2.879   5.643  0.3083  0.1023  0.2624
  144OSM    H8S15844   0.758   2.787   5.660 -1.4175  1.0560 -0.3820
  144OSM    H8T15845   0.924   2.854   5.621 -0.1841 -1.2542 -0.6943
  144OSM    C9S15846   0.767   2.950   5.522 -0.3215  0.0968 -0.0689
  144OSM    H9S15847   0.808   3.050   5.497 -0.4940  0.1959  0.0442
  144OSM    H9T15848   0.659   2.968   5.538 -0.9843 -2.0680 -1.6310
  144OSM   C10S15849   0.765   2.853   5.406  0.2088 -0.3169 -0.1134
  144OSM   H10S15850   0.706   2.760   5.423  1.9077 -1.8927 -2.3266
  144OSM   H10T15851   0.868   2.817   5.381  0.2526  0.0439 -0.4540
  144OSM   C11S15852   0.708   2.924   5.281 -0.4226 -0.2415  0.2915
  144OSM   H11S15853   0.767   3.014   5.253 -0.5707 -0.1429  0.3006
  144OSM   H11T15854   0.602   2.951   5.299 -1.0866 -0.0958 -3.1050
  144OSM   C12S15855   0.701   2.817   5.177  0.3985 -0.1503  0.5934
  144OSM   H12S15856   0.641   2.733   5.218  2.6839 -1.3574  1.5941
  144OSM   H12T15857   0.800   2.781   5.142 -0.5008 -1.5287 -0.6837
  144OSM   C13S15858   0.637   2.863   5.048 -0.2269 -0.2664 -0.2260
  144OSM   H13S15859   0.688   2.947   4.996 -1.5137  2.6608  2.8709
  144OSM   H13T15860   0.542   2.912   5.079 -0.3164 -0.2312 -0.5490
  144OSM   C14S15861   0.619   2.753   4.940  0.8173 -0.7330  0.3591
  144OSM   H14S15862   0.541   2.676   4.958  1.6231 -1.0620  2.8117
  144OSM   H14T15863   0.718   2.702   4.934 -0.5464 -3.6777  1.1294
  144OSM   C15S15864   0.577   2.813   4.799  0.1334 -0.4799 -0.1824
  144OSM   H15S15865   0.654   2.876   4.750 -1.1001 -0.8075 -2.7137
  144OSM   H15T15866   0.492   2.885   4.811  0.6599  0.1346 -0.0652
  144OSM   C16S15867   0.521   2.707   4.701  0.4127 -0.1205 -0.1135
  144OSM   H16S15868   0.455   2.638   4.758  1.2243  0.5175  1.6701
  144OSM   H16T15869   0.611   2.654   4.664 -0.2447 -0.4528 -1.3174
  144OSM   C17S15870   0.472   2.778   4.571 -1.1226  0.0052 -0.7911
  144OSM   H17S15871   0.541   2.862   4.547  1.1945 -0.9962  1.8572
  144OSM   H17T15872   0.364   2.800   4.584 -1.4635 -1.2933 -1.2221
  144OSM   C18S15873   0.484   2.675   4.456  0.4417  0.4151 -0.7860
  144OSM   H18S15874   0.425   2.592   4.501 -0.0302  0.6670 -0.9379
  144OSM   H18T15875   0.586   2.642   4.428  0.9078 -0.2840  1.5370
  144OSM   H18U15876   0.442   2.722   4.364  0.7286  0.2033 -1.0256
  144OSM    C1F15877   0.467   3.306   6.011 -0.1258 -0.3203 -0.4644
  144OSM     OF15878   0.446   3.428   6.027 -0.0027  0.3520  0.2166
  144OSM    C2F15879   0.347   3.220   5.969  0.5923 -0.4075 -0.0731
  144OSM    H2F15880   0.276   3.217   6.054  1.1518 -1.0093  0.3722
  144OSM    H2G15881   0.381   3.119   5.939  2.2897  0.3480 -0.8249
  144OSM    C3F15882   0.283   3.294   5.848  0.5397 -0.1913  0.3471
  144OSM    H3F15883   0.343   3.287   5.755 -0.4838 -0.0700 -0.3415
  144OSM    H3G15884   0.258   3.401   5.865  0.0343 -0.2638  0.0705
  144OSM    C4F15885   0.143   3.234   5.818 -0.3774 -0.2444 -0.7940
  144OSM    H4F15886   0.091   3.235   5.917 -0.0608  0.2670 -0.6268
  144OSM    H4G15887   0.150   3.128   5.787  0.8845 -0.1461 -0.8725
  144OSM    C5F15888   0.069   3.318   5.708  0.1488  1.0085 -0.4215
  144OSM    H5F15889   0.126   3.315   5.613  2.0632  1.7452  0.6423
  144OSM    H5G15890   0.071   3.421   5.749 -0.2685  1.6092 -1.8619
  144OSM    C6F15891  -0.075   3.261   5.677  0.3111 -0.5620  0.4194
  144OSM    H6F15892  -0.115   3.232   5.777 -0.9444  0.8706  0.3570
  144OSM    H6G15893  -0.076   3.164   5.623 -2.5617 -0.1708 -0.3836
  144OSM    C7F15894  -0.157   3.358   5.589  0.5008  0.3191 -0.6553
  144OSM    H7F15895  -0.089   3.381   5.506  3.4141  0.9321  1.7365
  144OSM    H7G15896  -0.171   3.450   5.649  1.6994 -1.1301  2.0274
  144OSM    C8F15897  -0.297   3.308   5.541 -0.3158  0.2512 -0.3152
  144OSM    H8F15898  -0.351   3.382   5.478  0.7964 -0.2332 -1.9151
  144OSM    H8G15899  -0.367   3.275   5.621 -0.1625  0.3372 -0.1434
  144OSM    C9F15900  -0.290   3.200   5.445  0.0554 -0.1547  1.1707
  144OSM    H9F15901  -0.275   3.102   5.492  0.0093 -1.0458 -0.5816
  144OSM   C10F15902  -0.321   3.195   5.312  0.0584 -0.4600 -0.4218
  144OSM   H10F15903  -0.276   3.112   5.257  2.0797  1.7522 -2.2778
  144OSM   C11F15904  -0.359   3.314   5.218  0.6237  0.2699 -0.2101
  144OSM   H11F15905  -0.336   3.412   5.264  1.8848 -0.7192  1.3427
  144OSM   H11G15906  -0.467   3.304   5.192 -0.5456  2.2069  3.2709
  144OSM   C12F15907  -0.268   3.303   5.094  0.2374 -0.0445 -0.6414
  144OSM   H12F15908  -0.298   3.206   5.048 -2.0361  1.0863 -1.6811
  144OSM   H12G15909  -0.163   3.303   5.130 -0.0922  1.8977  0.4295
  144OSM   C13F15910  -0.292   3.410   4.992 -0.5155 -0.0877  0.3876
  144OSM   H13F15911  -0.295   3.510   5.041  1.1894 -1.2811  3.1183
  144OSM   H13G15912  -0.396   3.395   4.955 -0.6082  1.1793  0.0873
  144OSM   C14F15913  -0.201   3.414   4.876 -0.2982 -0.2058  0.2267
  144OSM   H14F15914  -0.190   3.309   4.842 -0.7775  0.3397 -1.7348
  144OSM   H14G15915  -0.098   3.446   4.903 -0.1484  0.4658 -1.0629
  144OSM   C15F15916  -0.246   3.512   4.763 -1.5833  0.9137  0.5224
  144OSM   H15F15917  -0.256   3.618   4.795 -1.7514  1.1376 -0.2268
  144OSM   H15G15918  -0.347   3.479   4.730 -0.3067 -0.9322 -1.8536
  144OSM   C16F15919  -0.160   3.501   4.636 -0.4498 -0.6894 -0.0960
  144OSM   H16F15920  -0.207   3.564   4.557  1.0571 -1.1400 -1.4011
  144OSM   H16G15921  -0.159   3.393   4.610  1.1625 -0.4527 -1.1314
  144OSM   C17F15922  -0.018   3.549   4.660 -0.1243 -0.1547  0.3259
  144OSM   H17F15923   0.031   3.480   4.732  2.1034 -0.4400 -1.3277
  144OSM   H17G15924  -0.019   3.650   4.705 -1.1298  1.0686 -2.2764
  144OSM   C18F15925   0.067   3.554   4.530  0.0036  0.2653  0.3447
  144OSM   H18F15926   0.011   3.619   4.459  2.4191  1.9744 -0.1172
  144OSM   H18G15927   0.084   3.449   4.498  1.5488  1.0357 -1.5664
  144OSM   H18H15928   0.169   3.591   4.551 -0.0059  1.0215 -0.8226
  145OSM      N15929   0.638   5.224   6.298 -0.1550 -0.4189  0.0440
  145OSM    C1515930   0.727   5.249   6.184 -0.3567  0.6718 -0.0267
  145OSM   H15A15931   0.760   5.351   6.175  1.7056  0.0077 -0.4491
  145OSM   H15B15932   0.680   5.213   6.094  0.8168  0.0913 -0.4342
  145OSM   H15C15933   0.813   5.184   6.190 -0.8584 -0.3047 -2.4520
  145OSM    C1415934   0.505   5.277   6.263  0.7175 -0.4828 -0.4296
  145OSM   H14A15935   0.504   5.382   6.241 -1.7571 -0.2878  0.2720
  145OSM   H14B15936   0.437   5.266   6.347  0.3378  1.0523 -0.5057
  145OSM   H14C15937   0.461   5.219   6.183  1.1993 -0.3144 -0.8154
  145OSM    C1315938   0.642   5.081   6.319  0.3763  0.3021 -0.4855
  145OSM   H13A15939   0.737   5.038   6.346 -0.1292 -0.6660 -0.2101
  145OSM   H13B15940   0.620   5.019   6.234  2.4601 -2.9850  1.1760
  145OSM   H13C15941   0.572   5.052   6.396  0.1746  2.0449  0.0496
  145OSM    C1215942   0.679   5.293   6.424  0.2067  0.6146 -0.7873
  145OSM   H12A15943   0.783   5.266   6.435  0.0403 -0.0573 -0.8136
  145OSM   H12B15944   0.617   5.256   6.504  1.5667  3.3944  1.7342
  145OSM    C1115945   0.671   5.449   6.424  0.1632 -0.6505  0.6977
  145OSM   H11A15946   0.682   5.478   6.530  0.1417  0.7361  0.3289
  145OSM   H11B15947   0.570   5.482   6.392  1.9647  4.1380 -0.9623
  145OSM      P15948   0.924   5.542   6.378  0.2475 -0.4133  0.4590
  145OSM    O1315949   0.919   5.687   6.419  0.9826  0.3920  0.3662
  145OSM    O1415950   0.982   5.446   6.478  0.6502  0.3569  0.6058
  145OSM    O1115951   1.014   5.538   6.248  0.7572 -0.1456 -0.0956
  145OSM    O1215952   0.774   5.503   6.339  0.3568  0.1725 -0.2052
  145OSM    C1S15953   0.961   5.540   6.120  0.5187 -0.1916 -0.3303
  145OSM    H1S15954   0.953   5.647   6.091 -0.8652 -0.3179 -0.4899
  145OSM    H1T15955   0.870   5.477   6.111  1.0890 -0.7828 -2.5836
  145OSM     NF15956   1.015   5.495   5.878  0.3724  0.4446 -0.5658
  145OSM    HNF15957   0.967   5.428   5.821 -0.4532 -0.0488  0.6860
  145OSM    C2S15958   1.058   5.466   6.020  0.5006 -0.6361 -0.1349
  145OSM    H2S15959   1.159   5.509   6.036 -0.0125  0.9308 -0.8542
  145OSM    C3S15960   1.063   5.316   6.058  0.4137  0.0068  0.6432
  145OSM    H3S15961   0.960   5.273   6.047  1.3563 -1.8921 -1.7178
  145OSM     O315962   1.091   5.282   6.195  0.1667 -0.7219 -0.2886
  145OSM    HO315963   1.091   5.369   6.237  0.9134 -0.5546 -0.6294
  145OSM    C4S15964   1.142   5.230   5.963  0.1151  0.5959  0.5348
  145OSM    H4S15965   1.087   5.195   5.874 -2.0565  0.5913  1.8019
  145OSM    C5S15966   1.274   5.214   5.958 -0.2220 -0.3172  0.2226
  145OSM    H5S15967   1.333   5.269   6.033 -2.7182  1.6159  0.9423
  145OSM    C6S15968   1.350   5.153   5.839  0.2723 -0.8092  0.1036
  145OSM    H6S15969   1.392   5.055   5.872  0.5021 -0.3974  1.0754
  145OSM    H6T15970   1.441   5.211   5.812 -0.3073 -0.1534 -0.4595
  145OSM    C7S15971   1.275   5.135   5.707  0.2984 -0.4841 -0.0268
  145OSM    H7S15972   1.233   5.233   5.674  3.1897  0.5992 -0.7729
  145OSM    H7T15973   1.194   5.060   5.717 -1.3011  1.1190 -0.3180
  145OSM    C8S15974   1.368   5.090   5.590  0.1044 -0.3841 -0.3037
  145OSM    H8S15975   1.427   5.004   5.628  0.1140  0.4268  1.6662
  145OSM    H8T15976   1.447   5.167   5.575  1.2951 -1.2954  0.9958
  145OSM    C9S15977   1.300   5.053   5.461  1.0801 -0.2234  0.2536
  145OSM    H9S15978   1.225   5.130   5.432  1.2598  0.5334  1.6704
  145OSM    H9T15979   1.243   4.961   5.488  0.1563  0.2934  0.1033
  145OSM   C10S15980   1.384   5.036   5.333 -0.7970  0.2275  0.2136
  145OSM   H10S15981   1.446   4.946   5.348 -2.6513 -0.6680  3.4821
  145OSM   H10T15982   1.453   5.120   5.311  1.0000 -1.6365 -1.7477
  145OSM   C11S15983   1.300   5.015   5.202 -0.2160 -0.0082  0.0047
  145OSM   H11S15984   1.270   5.115   5.165  1.5033  0.6801  0.4191
  145OSM   H11T15985   1.206   4.961   5.231 -1.1533  0.3635 -2.1574
  145OSM   C12S15986   1.381   4.944   5.092  0.7228  0.3573 -0.5877
  145OSM   H12S15987   1.379   4.838   5.124 -1.0130 -0.1150 -2.0899
  145OSM   H12T15988   1.489   4.967   5.096  0.1951  2.9640  1.3869
  145OSM   C13S15989   1.329   4.955   4.944 -0.0339  0.0226 -0.0879
  145OSM   H13S15990   1.332   5.060   4.908  1.4280 -0.3572 -1.1316
  145OSM   H13T15991   1.222   4.924   4.947  0.0182 -0.2216 -0.8089
  145OSM   C14S15992   1.417   4.882   4.838  0.3971  0.0652 -0.7429
  145OSM   H14S15993   1.411   4.772   4.847  0.5713 -0.0980 -2.2590
  145OSM   H14T15994   1.524   4.912   4.849 -0.4973  3.2612  0.3961
  145OSM   C15S15995   1.378   4.902   4.689 -0.5904 -0.7802 -0.9082
  145OSM   H15S15996   1.391   5.009   4.661  0.8446 -0.9350 -0.9500
  145OSM   H15T15997   1.271   4.876   4.692 -0.4558 -1.4352 -1.5617
  145OSM   C16S15998   1.444   4.806   4.592 -0.4426  0.7226  0.4859
  145OSM   H16S15999   1.443   4.698   4.618  1.7234 -0.3138 -2.9874
  145OSM   H16T16000   1.549   4.842   4.585 -0.2964  0.2839  0.4175
  145OSM   C17S16001   1.385   4.813   4.448 -0.2285 -0.0189 -0.5370
  145OSM   H17S16002   1.446   4.877   4.381  0.6164 -0.2220  0.0176
  145OSM   H17T16003   1.285   4.861   4.450 -0.0239  0.4237 -0.7282
  145OSM   C18S16004   1.359   4.672   4.383 -0.0972  0.1549  0.5023
  145OSM   H18S16005   1.342   4.680   4.273  2.6551 -1.9082 -0.1810
  145OSM   H18T16006   1.273   4.621   4.431  0.3378 -1.3401 -0.2562
  145OSM   H18U16007   1.454   4.616   4.389  1.6573  3.0645  1.4566
  145OSM    C1F16008   1.011   5.612   5.826 -0.0429 -0.0275  0.3713
  145OSM     OF16009   1.079   5.705   5.864 -0.6079 -0.2160 -0.0935
  145OSM    C2F16010   0.912   5.630   5.707  0.4611 -0.2101 -0.7567
  145OSM    H2F16011   0.821   5.679   5.747  0.8495 -0.5188  0.5741
  145OSM    H2G16012   0.891   5.527   5.672  1.1374 -0.3928 -0.6493
  145OSM    C3F16013   0.975   5.711   5.590  0.5730  0.5818  0.1471
  145OSM    H3F16014   1.056   5.650   5.546  1.7196  0.7967  1.8676
  145OSM    H3G16015   1.018   5.810   5.618 -0.5678  2.0963 -2.9697
  145OSM    C4F16016   0.866   5.748   5.486 -0.2152 -0.7356  0.2364
  145OSM    H4F16017   0.813   5.831   5.537  0.9482  0.2035 -0.0323
  145OSM    H4G16018   0.797   5.663   5.469 -2.4446  1.3767 -2.0607
  145OSM    C5F16019   0.916   5.785   5.343 -0.0041  0.8559 -0.4654
  145OSM    H5F16020   0.960   5.696   5.292  1.8083 -1.4351  4.4910
  145OSM    H5G16021   0.975   5.878   5.333  1.5188 -0.2937 -3.4443
  145OSM    C6F16022   0.792   5.823   5.257 -0.0755  0.0634 -0.0847
  145OSM    H6F16023   0.730   5.888   5.322 -1.1791  0.5312 -1.5559
  145OSM    H6G16024   0.726   5.736   5.234  1.4147 -0.8580 -1.1306
  145OSM    C7F16025   0.835   5.890   5.126 -0.3277  0.7322  0.5960
  145OSM    H7F16026   0.940   5.925   5.132 -0.5219  1.4365 -0.0269
  145OSM    H7G16027   0.773   5.980   5.106  0.5901  0.9965 -1.2069
  145OSM    C8F16028   0.827   5.792   5.005  0.2624 -0.2717 -0.3724
  145OSM    H8F16029   0.856   5.693   5.048 -1.5000 -0.0448  1.4896
  145OSM    H8G16030   0.893   5.821   4.921 -1.0590 -0.1951 -1.4104
  145OSM    C9F16031   0.684   5.779   4.962 -0.3232 -0.5639 -0.6324
  145OSM    H9F16032   0.615   5.742   5.039 -0.0023  0.9490  0.4329
  145OSM   C10F16033   0.644   5.800   4.839  0.0210  0.1002  0.7874
  145OSM   H10F16034   0.540   5.777   4.812  0.0072  0.3212  0.6462
  145OSM   C11F16035   0.721   5.853   4.718  0.5630 -0.7785 -0.9402
  145OSM   H11F16036   0.815   5.796   4.703  0.2086 -1.3346 -1.0668
  145OSM   H11G16037   0.757   5.957   4.736 -1.8244  0.0793 -0.7896
  145OSM   C12F16038   0.633   5.862   4.593 -0.3678  0.4776 -0.0180
  145OSM   H12F16039   0.682   5.913   4.507  0.7016  2.1796  1.5200
  145OSM   H12G16040   0.546   5.927   4.619  0.3622  1.2545  0.5283
  145OSM   C13F16041   0.579   5.728   4.541 -0.3335 -0.0714 -0.4837
  145OSM   H13F16042   0.525   5.661   4.611  1.0420 -1.8185 -1.0297
  145OSM   H13G16043   0.667   5.668   4.508 -0.5411 -0.0276 -1.1282
  145OSM   C14F16044   0.492   5.751   4.418 -0.4724  0.4681  0.2755
  145OSM   H14F16045   0.494   5.656   4.360 -1.8815 -1.0535  2.5175
  145OSM   H14G16046   0.543   5.833   4.363  1.1215  0.7604  2.0602
  145OSM   C15F16047   0.353   5.795   4.443  0.5884  0.5910 -0.5058
  145OSM   H15F16048   0.346   5.889   4.501 -1.1110  0.0175  0.2810
  145OSM   H15G16049   0.316   5.712   4.507  0.5720  1.7298  1.0081
  145OSM   C16F16050   0.278   5.804   4.312  0.0188  0.4166 -0.0297
  145OSM   H16F16051   0.290   5.708   4.258  0.5370  1.6567 -2.2379
  145OSM   H16G16052   0.326   5.887   4.257 -0.5636  0.0120 -1.1781
  145OSM   C17F16053   0.139   5.849   4.329 -0.1768 -0.3376 -0.1745
  145OSM   H17F16054   0.157   5.950   4.372  1.8866 -0.1969 -1.2570
  145OSM   H17G16055   0.085   5.790   4.407 -0.5777  0.8021  0.4365
  145OSM   C18F16056   0.064   5.848   4.190 -1.0424 -0.1591  0.8942
  145OSM   H18F16057   0.114   5.922   4.125  1.2437 -2.1160  0.2676
  145OSM   H18G16058  -0.045   5.862   4.202 -0.9434 -1.4286  4.6208
  145OSM   H18H16059   0.095   5.756   4.135  1.7129  1.2313 -0.0883
  146OSM      N16060   1.279   0.104   6.583 -0.2596 -0.0534  0.6435
  146OSM    C1516061   1.217   0.104   6.718  0.0689  0.3194  0.2106
  146OSM   H15A16062   1.122   0.154   6.729 -0.2950 -0.2134 -0.4635
  146OSM   H15B16063   1.274   0.157   6.793  0.3874  0.8570 -0.4049
  146OSM   H15C16064   1.190   0.004   6.749  0.2829 -0.2911 -1.5133
  146OSM    C1416065   1.292   0.248   6.540  0.2049  0.9221  0.9102
  146OSM   H14A16066   1.361   0.299   6.605  1.5798  0.8922 -0.4992
  146OSM   H14B16067   1.197   0.299   6.553 -0.0788  0.4297  0.8096
  146OSM   H14C16068   1.320   0.250   6.436 -0.2838  0.3111  0.7550
  146OSM    C1316069   1.421   0.051   6.601  0.5771  0.3272  0.5234
  146OSM   H13A16070   1.483   0.053   6.513 -1.4736  0.3996 -0.9729
  146OSM   H13B16071   1.421  -0.051   6.638 -0.0541  0.5803  1.2643
  146OSM   H13C16072   1.474   0.109   6.675 -1.6924  0.4892  2.1218
  146OSM    C1216073   1.202   0.017   6.490  0.5163 -0.7726 -0.1477
  146OSM   H12A16074   1.206  -0.084   6.530  1.7513 -0.8272 -0.3814
  146OSM   H12B16075   1.262   0.016   6.401  1.0258  4.0071 -0.1114
  146OSM    C1116076   1.055   0.045   6.447 -0.2082 -0.1109 -0.0679
  146OSM   H11A16077   1.024  -0.044   6.388  2.7486  0.2323 -2.3280
  146OSM   H11B16078   1.038   0.125   6.372 -2.0031 -2.2622 -2.0945
  146OSM      P16079   0.860  -0.037   6.612 -0.2085  0.0634  0.2465
  146OSM    O1316080   0.932  -0.164   6.632 -0.0648 -0.3642  0.8223
  146OSM    O1416081   0.793   0.016   6.734  0.3945 -0.0357 -0.5619
  146OSM    O1116082   0.757  -0.044   6.499  0.4446  0.5014  0.6528
  146OSM    O1216083   0.970   0.066   6.557  0.3882 -0.5428 -0.2663
  146OSM    C1S16084   0.716   0.057   6.404 -0.2879  0.0021  0.2691
  146OSM    H1S16085   0.782   0.146   6.417  2.2255 -1.9273  1.6146
  146OSM    H1T16086   0.615   0.095   6.430 -0.0035 -0.3990  2.1167
  146OSM     NF16087   0.667   0.117   6.171  0.3945 -0.0984 -0.2446
  146OSM    HNF16088   0.573   0.120   6.137  1.0562  3.4447 -2.3123
  146OSM    C2S16089   0.706   0.007   6.256  0.2899 -0.0123 -0.3461
  146OSM    H2S16090   0.806  -0.021   6.217 -0.7371  0.4489 -3.6787
  146OSM    C3S16091   0.619  -0.126   6.256 -0.4507  0.4528  0.2303
  146OSM    H3S16092   0.526  -0.112   6.317  0.8260  0.5433  2.2567
  146OSM     O316093   0.685  -0.232   6.318 -0.3073 -0.4247  0.2350
  146OSM    HO316094   0.717  -0.201   6.403  1.6891 -1.4130 -0.0978
  146OSM    C4S16095   0.570  -0.162   6.115  0.4190 -0.1536 -0.4830
  146OSM    H4S16096   0.632  -0.144   6.026 -0.3296 -4.7389 -2.2155
  146OSM    C5S16097   0.444  -0.194   6.086 -0.6892 -0.5308 -0.3611
  146OSM    H5S16098   0.369  -0.208   6.165 -0.5986  3.1363  0.5674
  146OSM    C6S16099   0.381  -0.215   5.951  0.0247 -0.4439  0.5690
  146OSM    H6S16100   0.324  -0.122   5.927  2.2705  1.1035  0.9305
  146OSM    H6T16101   0.311  -0.301   5.955  1.4042 -1.6593 -0.4959
  146OSM    C7S16102   0.480  -0.247   5.836 -0.7369  0.1548 -0.0463
  146OSM    H7S16103   0.555  -0.325   5.862 -0.8879 -0.1296 -0.4410
  146OSM    H7T16104   0.533  -0.152   5.815  0.6639 -0.2600  1.3982
  146OSM    C8S16105   0.406  -0.308   5.708 -0.3983  0.9136 -0.3128
  146OSM    H8S16106   0.313  -0.248   5.711 -2.1509 -1.6705  1.9206
  146OSM    H8T16107   0.386  -0.413   5.738  1.0685  0.7357  0.1646
  146OSM    C9S16108   0.479  -0.309   5.576  0.2399 -0.1353  0.7453
  146OSM    H9S16109   0.569  -0.375   5.571  1.3252  1.3260  0.0627
  146OSM    H9T16110   0.522  -0.207   5.562 -1.3048  0.6024  1.2122
  146OSM   C10S16111   0.378  -0.321   5.463 -0.1230  0.2730  0.2784
  146OSM   H10S16112   0.304  -0.241   5.482  0.4022  0.6613  0.7343
  146OSM   H10T16113   0.324  -0.418   5.470 -1.1054  0.9419  3.2967
  146OSM   C11S16114   0.442  -0.297   5.321  0.3522 -0.2053 -0.3095
  146OSM   H11S16115   0.511  -0.378   5.289  2.6314  2.1900 -1.8558
  146OSM   H11T16116   0.491  -0.197   5.320 -1.7408  0.9585 -3.7316
  146OSM   C12S16117   0.337  -0.290   5.209 -0.4154  0.2556  0.3356
  146OSM   H12S16118   0.277  -0.198   5.223 -1.9762 -0.6849  0.1774
  146OSM   H12T16119   0.265  -0.375   5.221 -0.2694 -0.1869 -1.6306
  146OSM   C13S16120   0.392  -0.296   5.067  0.2507  0.6779 -0.7745
  146OSM   H13S16121   0.463  -0.379   5.047 -1.6862 -1.3777  0.3673
  146OSM   H13T16122   0.448  -0.201   5.059  2.3137 -0.3701  0.5463
  146OSM   C14S16123   0.281  -0.288   4.957  0.6013  0.0042  0.2197
  146OSM   H14S16124   0.228  -0.192   4.973  4.2379  2.3730 -0.6417
  146OSM   H14T16125   0.218  -0.378   4.976  0.7652 -0.0632  0.4516
  146OSM   C15S16126   0.342  -0.279   4.813 -0.0455 -0.2755 -0.2169
  146OSM   H15S16127   0.416  -0.360   4.800  1.5145  0.6710  2.2094
  146OSM   H15T16128   0.404  -0.187   4.800 -0.2290 -0.2607 -1.1117
  146OSM   C16S16129   0.245  -0.291   4.697  0.9499  0.0086 -0.2612
  146OSM   H16S16130   0.180  -0.201   4.688 -0.2989 -0.8701 -0.2228
  146OSM   H16T16131   0.184  -0.383   4.708  2.7682 -1.0664  1.7903
  146OSM   C17S16132   0.314  -0.304   4.562 -0.1360 -0.4446 -0.2401
  146OSM   H17S16133   0.362  -0.404   4.553  2.5887  0.6128  1.1449
  146OSM   H17T16134   0.397  -0.231   4.546  0.7351 -1.2404  0.4895
  146OSM   C18S16135   0.215  -0.282   4.450 -0.2673 -0.5293  1.1116
  146OSM   H18S16136   0.169  -0.181   4.454  0.3929 -0.0650 -1.5898
  146OSM   H18T16137   0.126  -0.348   4.461 -0.4847 -0.6032 -0.8223
  146OSM   H18U16138   0.246  -0.300   4.345 -2.1962  4.1908 -0.5401
  146OSM    C1F16139   0.734   0.234   6.150  0.4733 -0.2426 -0.4509
  146OSM     OF16140   0.850   0.241   6.188 -0.9510 -1.2501  0.3159
  146OSM    C2F16141   0.663   0.351   6.077 -0.7720  0.0508 -0.5034
  146OSM    H2F16142   0.587   0.395   6.145 -1.1735  0.5200 -1.2418
  146OSM    H2G16143   0.618   0.297   5.991  0.5752 -0.2998 -1.0238
  146OSM    C3F16144   0.762   0.454   6.025 -0.3286  0.6717 -0.4526
  146OSM    H3F16145   0.841   0.411   5.961 -1.6546 -0.5535 -1.3418
  146OSM    H3G16146   0.818   0.506   6.105 -1.1581  0.3622  0.3602
  146OSM    C4F16147   0.674   0.560   5.956  0.4999  0.1343  0.2079
  146OSM    H4F16148   0.745   0.641   5.928 -1.4176  1.1888 -1.9565
  146OSM    H4G16149   0.598   0.604   6.023  0.3382 -1.5525  1.1803
  146OSM    C5F16150   0.609   0.514   5.816  0.1287 -0.0526  0.0641
  146OSM    H5F16151   0.535   0.436   5.843 -0.1666  0.2612  0.1673
  146OSM    H5G16152   0.693   0.472   5.756  1.8350  0.0911  2.1969
  146OSM    C6F16153   0.555   0.629   5.737  0.4903 -1.0738  0.1546
  146OSM    H6F16154   0.638   0.700   5.718 -0.4323  0.4076  1.3799
  146OSM    H6G16155   0.479   0.667   5.809  2.1169 -1.8508  2.3836
  146OSM    C7F16156   0.485   0.593   5.607 -0.1782  0.0552  0.1096
  146OSM    H7F16157   0.381   0.554   5.616 -0.0630 -0.5520 -0.9861
  146OSM    H7G16158   0.526   0.502   5.557  0.3968 -0.4415  1.4322
  146OSM    C8F16159   0.498   0.714   5.509  0.3420  0.0131 -0.1070
  146OSM    H8F16160   0.467   0.692   5.404 -0.2539  0.1297  0.0435
  146OSM    H8G16161   0.604   0.747   5.507 -0.3533  2.6104  1.3036
  146OSM    C9F16162   0.428   0.837   5.554 -0.1958 -0.2961 -0.1634
  146OSM    H9F16163   0.437   0.856   5.662  0.3750  3.8444 -0.7469
  146OSM   C10F16164   0.380   0.939   5.482  0.1230 -0.1065  0.7461
  146OSM   H10F16165   0.332   1.023   5.535  0.2953 -0.0851  0.8689
  146OSM   C11F16166   0.373   0.938   5.336  0.3498  0.3317  0.7990
  146OSM   H11F16167   0.274   0.974   5.302 -0.9366 -4.2016 -1.0178
  146OSM   H11G16168   0.365   0.837   5.291 -0.7173  0.5914  0.3703
  146OSM   C12F16169   0.498   0.988   5.272  0.6997 -0.0736  0.3123
  146OSM   H12F16170   0.581   0.915   5.264  0.9713  0.0401  1.7252
  146OSM   H12G16171   0.541   1.070   5.334  3.3701  0.8741 -2.5558
  146OSM   C13F16172   0.488   1.063   5.138 -0.0215 -0.4636  0.1320
  146OSM   H13F16173   0.586   1.078   5.088 -0.3095  0.2180 -0.2367
  146OSM   H13G16174   0.449   1.167   5.146 -0.9265 -0.8269  0.5990
  146OSM   C14F16175   0.403   0.998   5.027  0.6447  0.2448  0.2163
  146OSM   H14F16176   0.425   0.890   5.039 -1.4109 -0.1255  1.0223
  146OSM   H14G16177   0.296   1.013   5.052  0.4255 -0.9255  0.0480
  146OSM   C15F16178   0.442   1.041   4.881 -0.6120 -0.1587  0.5987
  146OSM   H15F16179   0.412   1.147   4.874  0.6424  0.2782  1.4357
  146OSM   H15G16180   0.373   0.980   4.819 -0.2407 -0.3263  0.3429
  146OSM   C16F16181   0.589   1.027   4.841 -0.6182  0.0442 -0.1632
  146OSM   H16F16182   0.627   0.938   4.896  1.3487 -0.6654 -2.5167
  146OSM   H16G16183   0.646   1.115   4.877 -2.6313  0.4553  2.2994
  146OSM   C17F16184   0.604   1.008   4.692  0.8712 -0.7272  0.3006
  146OSM   H17F16185   0.572   1.096   4.633  0.4478 -1.7422 -1.0203
  146OSM   H17G16186   0.547   0.919   4.658 -1.0120  0.1577  0.9885
  146OSM   C18F16187   0.753   0.983   4.659  0.0790  0.5692  0.2720
  146OSM   H18F16188   0.749   0.937   4.558  0.1245 -2.3091  1.4708
  146OSM   H18G16189   0.794   0.912   4.734  0.7043 -0.4309 -0.9810
  146OSM   H18H16190   0.803   1.082   4.666 -2.0181  1.6178  1.7558
  147OSM      N16191   1.388   5.317   2.139  0.2072  0.8451 -1.3658
  147OSM    C1516192   1.274   5.235   2.082 -0.5690  0.9863  0.2981
  147OSM   H15A16193   1.321   5.138   2.068 -1.0450  0.7837  0.0761
  147OSM   H15B16194   1.246   5.272   1.985 -1.0566 -1.6579 -0.6669
  147OSM   H15C16195   1.191   5.239   2.151 -0.8579  1.2111 -0.0578
  147OSM    C1416196   1.443   5.251   2.265  0.1895 -0.2614  0.2745
  147OSM   H14A16197   1.518   5.178   2.239  0.6931  0.7430 -1.3038
  147OSM   H14B16198   1.363   5.212   2.325  1.2855 -0.2827  1.7765
  147OSM   H14C16199   1.509   5.312   2.325  1.2202 -1.5958  0.5302
  147OSM    C1316200   1.507   5.324   2.043  0.1946 -0.5818  0.1032
  147OSM   H13A16201   1.535   5.224   2.011  0.9209 -0.5953  0.7256
  147OSM   H13B16202   1.580   5.373   2.106  0.0111  0.3979 -0.4363
  147OSM   H13C16203   1.497   5.380   1.952  0.4031 -2.0145 -0.8337
  147OSM    C1216204   1.333   5.452   2.184  0.4422  0.5434 -0.0209
  147OSM   H12A16205   1.261   5.448   2.264 -2.5749 -1.4526 -2.6197
  147OSM   H12B16206   1.294   5.490   2.091 -0.1713  0.4026  0.1781
  147OSM    C1116207   1.442   5.562   2.221  0.4886  0.1322 -0.1312
  147OSM   H11A16208   1.518   5.535   2.298  0.0498  0.7716  0.5411
  147OSM   H11B16209   1.379   5.643   2.263 -1.6582 -0.7821 -1.4137
  147OSM      P16210   1.643   5.664   2.070  0.1486 -0.1757 -0.3605
  147OSM    O1316211   1.724   5.566   1.999  0.5346  0.6634 -0.2049
  147OSM    O1416212   1.630   5.788   2.006  0.4210 -0.3893 -0.3616
  147OSM    O1116213   1.701   5.670   2.220 -0.7955  0.0977  0.5219
  147OSM    O1216214   1.498   5.615   2.098 -0.5722  0.3251 -0.8042
  147OSM    C1S16215   1.723   5.805   2.266  0.0403 -0.0270 -0.0126
  147OSM    H1S16216   1.624   5.854   2.267 -1.0168 -2.0368  0.2944
  147OSM    H1T16217   1.790   5.863   2.199  0.3958  0.1472  0.4851
  147OSM     NF16218   1.768   5.936   2.469 -0.6430  0.1712  0.0372
  147OSM    HNF16219   1.853   5.986   2.484  0.4444 -0.7682 -2.4351
  147OSM    C2S16220   1.791   5.814   2.406  0.1669  0.7109  0.6727
  147OSM    H2S16221   1.736   5.744   2.474  1.1078 -0.9058 -0.1591
  147OSM    C3S16222   1.936   5.762   2.400  0.1010 -0.1883 -0.2988
  147OSM    H3S16223   1.991   5.847   2.356 -1.8043  0.9742 -0.5654
  147OSM     O316224   1.966   5.652   2.317  0.4411  0.1835 -0.6190
  147OSM    HO316225   1.885   5.628   2.272 -0.1357  0.7840  0.0862
  147OSM    C4S16226   1.990   5.742   2.542 -0.5380  0.1753  0.3343
  147OSM    H4S16227   2.025   5.839   2.581 -1.0492  2.0602 -3.4223
  147OSM    C5S16228   1.999   5.629   2.614  0.0207 -0.2708 -0.6314
  147OSM    H5S16229   1.964   5.530   2.582  0.1678 -1.3334  2.1935
  147OSM    C6S16230   2.062   5.610   2.748 -0.3732 -0.4927 -0.0896
  147OSM    H6S16231   2.082   5.711   2.789 -1.1946 -0.4602  0.2578
  147OSM    H6T16232   2.154   5.548   2.743 -0.4085 -0.5598  0.0728
  147OSM    C7S16233   1.974   5.545   2.854 -0.0793  0.4310 -0.0848
  147OSM    H7S16234   1.927   5.448   2.827 -0.4737  0.6039 -0.0241
  147OSM    H7T16235   1.893   5.621   2.864  0.2066  0.8001 -0.5339
  147OSM    C8S16236   2.055   5.535   2.986 -0.3109 -0.0665 -0.7589
  147OSM    H8S16237   2.128   5.619   2.995  1.0030 -1.2351 -0.1768
  147OSM    H8T16238   2.111   5.440   2.973  1.8861  0.9398  0.6771
  147OSM    C9S16239   1.964   5.546   3.116 -0.2341 -0.4797  0.5918
  147OSM    H9S16240   1.886   5.468   3.107 -0.1653 -0.3428 -1.7744
  147OSM    H9T16241   1.911   5.643   3.124  0.6965  0.4497 -2.6848
  147OSM   C10S16242   2.041   5.531   3.242 -0.0370  0.1870 -0.5346
  147OSM   H10S16243   2.106   5.619   3.262 -0.2043  0.0715  0.5473
  147OSM   H10T16244   2.101   5.438   3.246 -1.2286 -0.5741  0.1048
  147OSM   C11S16245   1.946   5.532   3.363 -0.3997 -0.4352 -0.3163
  147OSM   H11S16246   1.870   5.451   3.350 -0.3593 -0.9726  2.2562
  147OSM   H11T16247   1.899   5.632   3.369 -3.8431 -1.8915 -0.3908
  147OSM   C12S16248   2.030   5.515   3.497  0.2660 -0.5759  0.0666
  147OSM   H12S16249   2.102   5.599   3.499 -1.6697  1.2272  2.8415
  147OSM   H12T16250   2.087   5.421   3.514 -0.2087 -0.6567  1.3916
  147OSM   C13S16251   1.940   5.527   3.621  0.4763 -0.2995  0.3579
  147OSM   H13S16252   1.863   5.448   3.613 -0.2127  0.3987 -0.0768
  147OSM   H13T16253   1.887   5.625   3.625  2.3864  0.8734 -1.1309
  147OSM   C14S16254   2.018   5.523   3.754 -0.2714  0.1485  0.5658
  147OSM   H14S16255   2.088   5.609   3.758  1.0821 -0.9023  0.4338
  147OSM   H14T16256   2.082   5.432   3.748 -0.2679  0.2183 -0.9775
  147OSM   C15S16257   1.930   5.512   3.877 -0.2004  0.1104  0.1692
  147OSM   H15S16258   2.000   5.495   3.962 -0.0406 -2.0299 -0.3236
  147OSM   H15T16259   1.872   5.417   3.868  1.9834 -1.2072 -0.9814
  147OSM   C16S16260   1.824   5.615   3.916  0.3729  0.4161 -0.0069
  147OSM   H16S16261   1.751   5.580   3.991 -2.0013  2.0563 -1.4077
  147OSM   H16T16262   1.758   5.622   3.826  0.0490 -1.4123  0.0527
  147OSM   C17S16263   1.885   5.748   3.953  0.1429  0.5888 -0.6878
  147OSM   H17S16264   1.811   5.830   3.936 -0.7895 -0.3836 -1.4552
  147OSM   H17T16265   1.964   5.770   3.878  0.2838 -0.6855 -0.9244
  147OSM   C18S16266   1.935   5.746   4.099 -0.5968 -0.0984 -0.9868
  147OSM   H18S16267   1.971   5.849   4.123  1.1566 -0.9904  0.4928
  147OSM   H18T16268   2.015   5.670   4.114  1.3409  2.2837  1.9560
  147OSM   H18U16269   1.856   5.715   4.170 -0.1697 -0.4682 -0.6643
  147OSM    C1F16270   1.653   5.980   2.514 -0.4981 -0.4724  0.3669
  147OSM     OF16271   1.555   5.905   2.521 -0.2801  0.0838  0.2896
  147OSM    C2F16272   1.642   6.120   2.560 -0.0441  0.0755  0.1869
  147OSM    H2F16273   1.717   6.177   2.500  1.1900 -0.9690  0.6834
  147OSM    H2G16274   1.660   6.127   2.669 -2.3764  0.4700  0.5961
  147OSM    C3F16275   1.498   6.185   2.537  0.7945 -0.1031 -0.1525
  147OSM    H3F16276   1.415   6.116   2.562  0.0868 -0.0769 -2.2367
  147OSM    H3G16277   1.487   6.195   2.427  0.5560 -0.3986 -0.1550
  147OSM    C4F16278   1.470   6.328   2.597 -0.2163  0.2787 -0.0232
  147OSM    H4F16279   1.385   6.374   2.542  0.5781 -0.5341 -2.0189
  147OSM    H4G16280   1.563   6.386   2.580  0.8145 -0.2776  3.1117
  147OSM    C5F16281   1.425   6.340   2.750  0.1103 -1.0358 -0.5384
  147OSM    H5F16282   1.442   6.438   2.801  0.7581 -1.7838  0.7249
  147OSM    H5G16283   1.497   6.273   2.801  0.6037  0.7214  1.1894
  147OSM    C6F16284   1.287   6.275   2.777  0.1119  0.4749  0.5378
  147OSM    H6F16285   1.300   6.165   2.784 -0.3957  0.3801  0.0450
  147OSM    H6G16286   1.229   6.310   2.690 -0.6771 -0.4508  0.6778
  147OSM    C7F16287   1.216   6.322   2.901 -0.3234  0.5876 -0.0310
  147OSM    H7F16288   1.111   6.284   2.904 -0.3755  0.7174 -0.2253
  147OSM    H7G16289   1.214   6.429   2.870 -0.5475  0.9467  1.1655
  147OSM    C8F16290   1.301   6.290   3.029  0.3270 -0.5176  0.4214
  147OSM    H8F16291   1.404   6.326   3.009  0.6708 -1.5196  0.3861
  147OSM    H8G16292   1.313   6.182   3.047 -0.9363 -0.5289  1.3811
  147OSM    C9F16293   1.245   6.371   3.141 -0.8479 -0.5027  0.3947
  147OSM    H9F16294   1.225   6.477   3.121  1.3628 -0.0037  0.5544
  147OSM   C10F16295   1.243   6.334   3.269  0.6033 -0.6949 -0.0957
  147OSM   H10F16296   1.188   6.403   3.335 -0.0839 -2.7133  1.5370
  147OSM   C11F16297   1.277   6.202   3.325  0.0847  0.0002  0.0203
  147OSM   H11F16298   1.319   6.207   3.428  1.4895 -0.3281 -0.5072
  147OSM   H11G16299   1.357   6.150   3.268  0.3256 -1.8709  1.9062
  147OSM   C12F16300   1.155   6.111   3.324 -0.5980 -0.3959  0.3569
  147OSM   H12F16301   1.187   6.015   3.369  1.7497  1.0033  1.9253
  147OSM   H12G16302   1.123   6.093   3.219  0.0109  1.2906 -0.1606
  147OSM   C13F16303   1.023   6.167   3.397  0.0211 -0.3622 -0.1807
  147OSM   H13F16304   0.954   6.224   3.330  1.8110  1.1209 -0.8355
  147OSM   H13G16305   1.051   6.248   3.467 -1.0644 -1.1285  1.1875
  147OSM   C14F16306   0.939   6.059   3.470 -0.1781 -0.4783  0.3196
  147OSM   H14F16307   1.004   5.996   3.535  0.5856  0.7605  0.7892
  147OSM   H14G16308   0.896   5.993   3.391  0.9972  1.3997 -2.0073
  147OSM   C15F16309   0.831   6.126   3.561  0.0490  0.0552  0.2384
  147OSM   H15F16310   0.872   6.220   3.602 -1.5741  1.3623 -0.9878
  147OSM   H15G16311   0.801   6.055   3.642 -0.1529 -0.5642 -0.3640
  147OSM   C16F16312   0.712   6.172   3.481 -0.2611  0.0977 -0.0539
  147OSM   H16F16313   0.657   6.083   3.442 -0.3489  0.2581 -0.2963
  147OSM   H16G16314   0.752   6.235   3.398  2.4954  0.9919  1.8215
  147OSM   C17F16315   0.607   6.249   3.561  0.0453 -0.1626 -0.5965
  147OSM   H17F16316   0.522   6.268   3.493 -0.3374  0.6035  0.0928
  147OSM   H17G16317   0.653   6.339   3.607 -0.3381 -0.6169  0.7008
  147OSM   C18F16318   0.547   6.170   3.681  0.2644  0.2585  0.3140
  147OSM   H18F16319   0.612   6.115   3.753  0.6346 -1.6983 -1.4318
  147OSM   H18G16320   0.478   6.091   3.644 -0.2647 -0.0864  1.9849
  147OSM   H18H16321   0.491   6.238   3.749 -0.4669 -1.6384  1.6735
  148OSM      N16322   1.069   6.153   2.074 -0.3956 -0.4951 -0.2216
  148OSM    C1516323   1.223   6.139   2.063  0.1909  0.4355  0.0436
  148OSM   H15A16324   1.266   6.094   2.151 -2.0517 -2.1524 -0.0541
  148OSM   H15B16325   1.264   6.239   2.051  1.0465  0.2375  1.1906
  148OSM   H15C16326   1.251   6.084   1.974  0.0750  0.4549 -0.0055
  148OSM    C1416327   1.044   6.230   2.197  0.1702 -0.3016 -0.2936
  148OSM   H14A16328   1.091   6.324   2.177  1.7693 -1.0583 -0.2306
  148OSM   H14B16329   1.066   6.188   2.295 -1.1526  1.0845  0.6497
  148OSM   H14C16330   0.937   6.244   2.196  0.0228 -1.3365 -1.4871
  148OSM    C1316331   1.038   6.234   1.946  0.9093  0.4144 -0.1605
  148OSM   H13A16332   1.092   6.327   1.940 -2.1348  2.2825 -1.4093
  148OSM   H13B16333   0.931   6.249   1.939  1.0713  0.9105 -2.1657
  148OSM   H13C16334   1.075   6.189   1.855  0.4116  0.1655 -0.2463
  148OSM    C1216335   1.006   6.010   2.080 -0.2977  0.1152 -0.0798
  148OSM   H12A16336   1.030   5.965   2.175  0.7261 -0.8866 -0.7854
  148OSM   H12B16337   1.055   5.946   2.008  1.4644 -2.8998  3.4678
  148OSM    C1116338   0.850   5.993   2.059 -0.6115 -0.5202 -0.6518
  148OSM   H11A16339   0.825   5.887   2.081  0.7118 -0.8897 -0.8187
  148OSM   H11B16340   0.832   6.017   1.952  2.4971  0.4588 -1.0644
  148OSM      P16341   0.719   6.045   2.272 -0.2195  0.0499  0.0238
  148OSM    O1316342   0.596   5.969   2.258 -0.4076 -0.2567  0.0010
  148OSM    O1416343   0.822   5.978   2.351  0.0677 -0.8367 -0.6012
  148OSM    O1116344   0.692   6.184   2.327 -0.2810  0.0728 -0.1518
  148OSM    O1216345   0.777   6.083   2.136 -0.3775 -0.3667 -0.7941
  148OSM    C1S16346   0.589   6.219   2.422 -0.1484  0.2542  0.5808
  148OSM    H1S16347   0.492   6.169   2.404 -0.4778  1.2925 -0.6750
  148OSM    H1T16348   0.568   6.328   2.413 -0.0944  0.1860 -0.4001
  148OSM     NF16349   0.499   6.166   2.643 -0.0717  0.3897 -0.0729
  148OSM    HNF16350   0.456   6.251   2.670 -2.4674 -0.3678 -1.2536
  148OSM    C2S16351   0.618   6.177   2.570  0.1676  0.7020  0.3598
  148OSM    H2S16352   0.669   6.078   2.565 -0.0253  0.5781  0.8168
  148OSM    C3S16353   0.735   6.274   2.622 -0.6571 -0.1200  0.8234
  148OSM    H3S16354   0.694   6.377   2.617 -1.8612 -0.5878  0.5036
  148OSM     O316355   0.852   6.279   2.538  0.3818  0.0571 -0.2585
  148OSM    HO316356   0.822   6.228   2.462 -0.5744  0.4697 -0.1750
  148OSM    C4S16357   0.776   6.234   2.757 -0.1407  0.1612 -0.2984
  148OSM    H4S16358   0.799   6.127   2.767 -0.2739  0.1831  0.2702
  148OSM    C5S16359   0.773   6.309   2.866  0.2675 -0.3735  0.0604
  148OSM    H5S16360   0.761   6.417   2.846  0.9105 -0.2639  0.2336
  148OSM    C6S16361   0.797   6.265   3.008  0.5207 -0.8223  0.0908
  148OSM    H6S16362   0.902   6.298   3.021  0.7095  0.3590 -3.3362
  148OSM    H6T16363   0.799   6.154   3.016 -0.2246 -0.8376  0.1460
  148OSM    C7S16364   0.686   6.315   3.101 -0.4067 -0.7923 -0.4457
  148OSM    H7S16365   0.683   6.425   3.115  0.2307 -0.9808  1.3675
  148OSM    H7T16366   0.709   6.282   3.204 -0.6933  0.8948  0.1952
  148OSM    C8S16367   0.534   6.275   3.069 -0.5549  0.2496 -0.2033
  148OSM    H8S16368   0.539   6.166   3.051  0.0896  0.3941 -0.9333
  148OSM    H8T16369   0.497   6.321   2.975  0.1391 -1.5996 -1.4135
  148OSM    C9S16370   0.432   6.276   3.182  0.2854 -0.1448  0.2558
  148OSM    H9S16371   0.475   6.218   3.266 -1.4087 -0.2896  1.0511
  148OSM    H9T16372   0.347   6.217   3.144 -1.1729  2.2209 -0.3793
  148OSM   C10S16373   0.379   6.407   3.239 -0.0045 -0.7677 -0.1805
  148OSM   H10S16374   0.349   6.473   3.155  4.0293 -1.0354 -2.0779
  148OSM   H10T16375   0.460   6.467   3.285 -0.8343 -0.3890  0.8189
  148OSM   C11S16376   0.279   6.395   3.350  0.3674 -0.6506 -0.4547
  148OSM   H11S16377   0.326   6.325   3.423 -1.7203 -2.6093 -0.8743
  148OSM   H11T16378   0.180   6.358   3.314  0.2770  0.6634 -1.6270
  148OSM   C12S16379   0.249   6.526   3.432  0.1288  0.4959 -0.6896
  148OSM   H12S16380   0.185   6.589   3.368 -0.2136  2.5245  1.5255
  148OSM   H12T16381   0.344   6.576   3.460 -0.7931  1.8758  0.1141
  148OSM   C13S16382   0.164   6.494   3.556 -0.6516 -0.4314  0.2360
  148OSM   H13S16383   0.075   6.434   3.528  0.6689 -1.6705 -1.5153
  148OSM   H13T16384   0.146   6.594   3.601  1.3726  0.6603 -1.2142
  148OSM   C14S16385   0.237   6.438   3.676 -0.6617  0.3998  0.0527
  148OSM   H14S16386   0.327   6.498   3.700 -0.1919 -0.4909  0.5725
  148OSM   H14T16387   0.282   6.345   3.635  0.3917 -0.0453  2.0660
  148OSM   C15S16388   0.150   6.402   3.797 -0.4286 -0.6378 -0.7960
  148OSM   H15S16389   0.223   6.361   3.871  0.0361  1.1848 -0.1986
  148OSM   H15T16390   0.069   6.328   3.777 -1.7842 -0.1394  2.2198
  148OSM   C16S16391   0.089   6.527   3.859 -0.2814  0.1506  0.1537
  148OSM   H16S16392   0.016   6.570   3.787  0.8024  2.4096  0.3271
  148OSM   H16T16393   0.162   6.609   3.876  0.0414 -0.0485 -0.2564
  148OSM   C17S16394   0.005   6.486   3.987 -0.5002 -0.8553 -0.1946
  148OSM   H17S16395  -0.016   6.378   3.998 -2.1301 -0.4355  1.3703
  148OSM   H17T16396  -0.089   6.540   3.962 -0.4597 -1.0820 -0.8404
  148OSM   C18S16397   0.061   6.545   4.119 -0.0901 -0.2455  0.3330
  148OSM   H18S16398   0.003   6.514   4.208  0.2387 -0.9414  0.3069
  148OSM   H18T16399   0.072   6.656   4.113  0.9037 -0.3396  0.2712
  148OSM   H18U16400   0.163   6.500   4.126  0.1207 -0.1145 -1.3522
  148OSM    C1F16401   0.429   6.050   2.656 -0.5937  0.5357  0.3354
  148OSM     OF16402   0.452   5.949   2.586  0.1612  0.2524  0.2054
  148OSM    C2F16403   0.305   6.054   2.742 -0.2105 -0.2197 -0.6133
  148OSM    H2F16404   0.221   6.084   2.676 -1.5339  0.6191  1.3453
  148OSM    H2G16405   0.326   6.136   2.815 -2.9369  1.0529 -1.1498
  148OSM    C3F16406   0.270   5.920   2.815  0.4982 -0.2485  0.4361
  148OSM    H3F16407   0.235   5.854   2.732 -1.2564  0.8253  0.2764
  148OSM    H3G16408   0.179   5.940   2.877 -0.2254 -1.0941 -0.3204
  148OSM    C4F16409   0.374   5.847   2.892 -0.3515  0.6677 -0.2720
  148OSM    H4F16410   0.437   5.913   2.955  1.3141 -0.2267 -0.9369
  148OSM    H4G16411   0.444   5.789   2.827 -0.7328 -0.3819  0.2275
  148OSM    C5F16412   0.317   5.739   2.983 -0.1409 -0.0033 -0.1571
  148OSM    H5F16413   0.226   5.770   3.038  0.0016 -1.1752  0.7898
  148OSM    H5G16414   0.389   5.721   3.066  0.2286  1.0618 -0.2378
  148OSM    C6F16415   0.279   5.611   2.902 -0.2543 -0.6215  0.1960
  148OSM    H6F16416   0.205   5.645   2.826  0.5442  0.4496 -0.1317
  148OSM    H6G16417   0.231   5.541   2.974 -0.6062 -1.6670 -1.0144
  148OSM    C7F16418   0.399   5.540   2.838  0.5344  0.9026 -0.0011
  148OSM    H7F16419   0.480   5.536   2.914 -0.2767 -1.6029  0.8390
  148OSM    H7G16420   0.419   5.600   2.747  2.2651  1.6918  0.8490
  148OSM    C8F16421   0.378   5.400   2.797 -0.2497 -0.0328 -0.6834
  148OSM    H8F16422   0.317   5.397   2.705 -1.0457 -0.3110 -0.1621
  148OSM    H8G16423   0.309   5.353   2.872  0.8240  0.4029  0.6197
  148OSM    C9F16424   0.500   5.323   2.774 -0.1879  0.1411 -0.1189
  148OSM    H9F16425   0.570   5.356   2.696  0.1777 -1.8126 -0.6529
  148OSM   C10F16426   0.542   5.230   2.857  0.2931  0.2741  0.3407
  148OSM   H10F16427   0.630   5.172   2.828 -2.4342 -3.5012 -1.2996
  148OSM   C11F16428   0.475   5.164   2.982  0.2987 -0.0852  0.0928
  148OSM   H11F16429   0.497   5.055   2.981 -0.9865 -0.3630 -1.2685
  148OSM   H11G16430   0.365   5.179   2.970  0.2289 -0.5217  0.1689
  148OSM   C12F16431   0.528   5.232   3.107 -0.4296 -0.3697 -0.2920
  148OSM   H12F16432   0.512   5.341   3.118  2.0816  0.0001  0.3423
  148OSM   H12G16433   0.639   5.225   3.101 -0.3900 -0.7312  0.7040
  148OSM   C13F16434   0.469   5.174   3.237 -0.5537 -0.2794 -0.3245
  148OSM   H13F16435   0.475   5.064   3.249 -1.0461 -0.3610 -0.7611
  148OSM   H13G16436   0.360   5.190   3.220 -0.6383 -0.3687  0.1314
  148OSM   C14F16437   0.497   5.260   3.366 -0.3718  0.2734 -0.0719
  148OSM   H14F16438   0.444   5.358   3.368 -0.8545  0.0588  3.1472
  148OSM   H14G16439   0.607   5.270   3.374 -0.1817 -0.9208 -0.9418
  148OSM   C15F16440   0.446   5.183   3.481  0.1799 -1.1277 -0.4730
  148OSM   H15F16441   0.519   5.103   3.506  1.1101 -0.3440 -0.6509
  148OSM   H15G16442   0.349   5.131   3.467 -0.4435 -0.1805  0.2232
  148OSM   C16F16443   0.436   5.283   3.596 -0.2486  0.2867  0.6425
  148OSM   H16F16444   0.380   5.365   3.547 -0.0955 -0.7902 -1.4255
  148OSM   H16G16445   0.540   5.310   3.623  0.4454 -0.8201 -0.7697
  148OSM   C17F16446   0.381   5.227   3.726 -0.1434 -0.8870  0.1559
  148OSM   H17F16447   0.459   5.154   3.757 -0.0856 -1.0766 -0.4283
  148OSM   H17G16448   0.287   5.173   3.701 -2.3828  1.4698  2.8262
  148OSM   C18F16449   0.346   5.327   3.841  0.3774 -0.2105 -0.4729
  148OSM   H18F16450   0.421   5.409   3.849 -0.7938  0.7865  0.6901
  148OSM   H18G16451   0.353   5.275   3.939  0.1999  1.1397  0.2792
  148OSM   H18H16452   0.243   5.367   3.838  1.2712  2.2484 -0.8327
  149OSM      N16453   0.859   5.111   2.038 -0.3943 -0.9888 -0.3364
  149OSM    C1516454   0.973   5.083   1.940  0.6571 -0.1248  0.1677
  149OSM   H15A16455   1.063   5.068   1.998 -1.8322  0.8513  4.8030
  149OSM   H15B16456   1.005   5.169   1.883  0.5349  0.8917  1.5666
  149OSM   H15C16457   0.942   5.000   1.878 -2.3606  0.2914  0.9604
  149OSM    C1416458   0.884   5.241   2.113 -0.4840  0.4743 -0.1867
  149OSM   H14A16459   0.815   5.269   2.191  1.3197  0.3134  1.5196
  149OSM   H14B16460   0.908   5.323   2.048 -0.2158  0.7821  0.3024
  149OSM   H14C16461   0.969   5.227   2.177  0.4549 -0.3508 -1.5569
  149OSM    C1316462   0.732   5.136   1.961  0.0349 -0.7748 -0.9466
  149OSM   H13A16463   0.731   5.235   1.918 -0.1920  0.0492  0.8832
  149OSM   H13B16464   0.642   5.132   2.021 -1.2695 -2.3610 -2.8592
  149OSM   H13C16465   0.715   5.071   1.876 -2.4558 -0.8825 -0.4486
  149OSM    C1216466   0.839   4.996   2.131 -0.2092  0.1267 -0.1714
  149OSM   H12A16467   0.797   4.913   2.076  0.2459  0.1833 -0.6082
  149OSM   H12B16468   0.757   5.021   2.198  1.2295 -0.7350  2.0325
  149OSM    C1116469   0.964   4.943   2.199  0.0238  0.1851 -0.0033
  149OSM   H11A16470   0.947   4.892   2.296  0.0408  1.1700  0.5350
  149OSM   H11B16471   1.036   5.025   2.222  1.0093 -0.1276 -1.8259
  149OSM      P16472   0.970   4.712   2.084  0.2312  0.3220 -0.5455
  149OSM    O1316473   0.829   4.725   2.076  0.0227 -0.2978  0.3325
  149OSM    O1416474   1.047   4.660   1.972  0.0005  0.0923  0.3057
  149OSM    O1116475   0.999   4.644   2.224 -0.2092 -0.0592  0.1246
  149OSM    O1216476   1.027   4.854   2.106  0.0196 -0.3759  0.0048
  149OSM    C1S16477   1.107   4.554   2.256 -0.9914 -0.3007 -0.1036
  149OSM    H1S16478   1.198   4.607   2.221 -0.2973  0.4805  2.6137
  149OSM    H1T16479   1.097   4.455   2.207  1.8541 -0.4396 -0.5692
  149OSM     NF16480   1.264   4.495   2.430  0.1853  0.3191  0.2070
  149OSM    HNF16481   1.270   4.396   2.440  0.7284  0.2618 -0.6001
  149OSM    C2S16482   1.133   4.555   2.402 -0.3502 -0.2166 -0.7537
  149OSM    H2S16483   1.134   4.660   2.440  2.4486 -0.3397 -0.3084
  149OSM    C3S16484   1.013   4.488   2.469 -0.6962  0.2905 -0.5365
  149OSM    H3S16485   1.000   4.383   2.437 -1.4156 -0.8311  3.0385
  149OSM     O316486   0.897   4.567   2.464  0.2269 -0.3668  0.2296
  149OSM    HO316487   0.921   4.640   2.407 -2.6769  1.0943  0.6923
  149OSM    C4S16488   1.035   4.472   2.615  0.6206  0.5421  0.5633
  149OSM    H4S16489   1.003   4.559   2.673  0.0609  0.6075  0.1604
  149OSM    C5S16490   1.069   4.355   2.684  0.4110  0.1257  0.3243
  149OSM    H5S16491   1.083   4.256   2.638 -0.9078 -0.6267  1.4618
  149OSM    C6S16492   1.077   4.342   2.830 -0.9615  0.6338 -0.6356
  149OSM    H6S16493   1.183   4.332   2.863 -1.2707  0.9044  0.4643
  149OSM    H6T16494   1.032   4.243   2.853 -0.0463  0.0679 -1.1969
  149OSM    C7S16495   1.013   4.451   2.924 -0.5803  0.3434  0.2616
  149OSM    H7S16496   0.912   4.479   2.886 -0.6113 -0.9269 -0.6312
  149OSM    H7T16497   1.077   4.541   2.907  1.1588 -1.1392 -1.5181
  149OSM    C8S16498   0.994   4.421   3.075 -0.1998 -0.1873  0.1153
  149OSM    H8S16499   1.096   4.414   3.120  0.3865  1.1043 -0.9343
  149OSM    H8T16500   0.935   4.328   3.067  1.1704 -0.9580 -1.5925
  149OSM    C9S16501   0.907   4.530   3.140  0.0803 -0.1338  0.5375
  149OSM    H9S16502   0.867   4.501   3.240  1.4336  1.0903  1.4878
  149OSM    H9T16503   0.820   4.550   3.075 -0.4703 -0.7682  1.0648
  149OSM   C10S16504   0.985   4.658   3.153  0.2515  0.0335 -0.0029
  149OSM   H10S16505   0.929   4.746   3.191  1.6559  0.5719  0.8797
  149OSM   H10T16506   1.014   4.681   3.049 -0.2560 -0.7811 -0.3373
  149OSM   C11S16507   1.119   4.646   3.240  0.3548 -0.6037  0.4896
  149OSM   H11S16508   1.166   4.746   3.233 -2.6502  0.8333 -1.2391
  149OSM   H11T16509   1.188   4.574   3.190  0.2884  0.3709 -1.0789
  149OSM   C12S16510   1.089   4.605   3.380  0.0286  0.2518 -0.8229
  149OSM   H12S16511   1.075   4.496   3.393 -0.8098  0.4976  0.5643
  149OSM   H12T16512   1.006   4.661   3.429 -0.3380  0.6052 -1.8204
  149OSM   C13S16513   1.206   4.639   3.476  0.0190 -0.1292 -0.2971
  149OSM   H13S16514   1.243   4.741   3.453 -1.7852  0.3245 -1.4292
  149OSM   H13T16515   1.289   4.567   3.461  1.0424  0.7037  1.0623
  149OSM   C14S16516   1.160   4.647   3.619  0.2414  0.5091  0.0435
  149OSM   H14S16517   1.073   4.716   3.616 -1.8402 -1.9619 -2.6560
  149OSM   H14T16518   1.240   4.693   3.679  0.5941  0.6882 -0.5515
  149OSM   C15S16519   1.114   4.515   3.678  0.4179  0.2034 -0.0334
  149OSM   H15S16520   1.204   4.452   3.697  0.9833  1.2202  0.7363
  149OSM   H15T16521   1.051   4.459   3.605 -1.6131  0.7927  1.1882
  149OSM   C16S16522   1.045   4.539   3.812 -0.0335  0.5196  0.7047
  149OSM   H16S16523   0.946   4.589   3.805 -2.0893 -3.2332  0.4907
  149OSM   H16T16524   1.107   4.594   3.886 -1.3696  4.5969 -0.9330
  149OSM   C17S16525   1.008   4.409   3.876  0.7079 -0.9302 -0.0668
  149OSM   H17S16526   1.027   4.403   3.985  0.4151 -0.4604  0.0147
  149OSM   H17T16527   1.070   4.326   3.836 -0.2941 -0.3853 -3.0125
  149OSM   C18S16528   0.865   4.380   3.837  0.4751 -0.4438  0.6266
  149OSM   H18S16529   0.793   4.455   3.878  1.3612  0.1746  1.0732
  149OSM   H18T16530   0.835   4.277   3.864 -0.9741 -0.3982 -0.6436
  149OSM   H18U16531   0.857   4.386   3.726  1.6332 -1.6896  0.4576
  149OSM    C1F16532   1.376   4.565   2.424  0.3910 -0.5623 -0.3310
  149OSM     OF16533   1.371   4.683   2.397  0.4058  0.2999 -0.0664
  149OSM    C2F16534   1.507   4.501   2.475 -0.2999  0.3638  0.0011
  149OSM    H2F16535   1.556   4.431   2.403  0.8732 -1.5051  2.4662
  149OSM    H2G16536   1.481   4.425   2.551  2.0843 -0.6295 -0.0922
  149OSM    C3F16537   1.606   4.595   2.540 -0.1560 -0.6734  0.2514
  149OSM    H3F16538   1.544   4.631   2.625 -0.0140 -0.8763  0.4408
  149OSM    H3G16539   1.646   4.664   2.462  3.0883 -2.4660  0.1650
  149OSM    C4F16540   1.735   4.520   2.592  0.6902 -0.3973 -0.1048
  149OSM    H4F16541   1.776   4.485   2.495  1.0167  0.2315 -0.1982
  149OSM    H4G16542   1.713   4.434   2.659  0.0858 -0.8477 -0.8751
  149OSM    C5F16543   1.836   4.615   2.665 -0.3992 -0.7537 -0.1989
  149OSM    H5F16544   1.877   4.701   2.608  0.4238  0.6927  2.4283
  149OSM    H5G16545   1.923   4.549   2.688 -1.9805 -2.3480  1.5342
  149OSM    C6F16546   1.782   4.671   2.797  0.9405 -0.0175  0.0383
  149OSM    H6F16547   1.736   4.582   2.846  2.3265 -1.6480 -1.4698
  149OSM    H6G16548   1.696   4.737   2.772  0.5404 -0.2479  0.7615
  149OSM    C7F16549   1.885   4.749   2.884  0.4861  0.3731 -0.2522
  149OSM    H7F16550   1.817   4.776   2.967 -1.4657  0.9255 -1.9465
  149OSM    H7G16551   1.918   4.832   2.817  0.5158 -0.4155 -1.2428
  149OSM    C8F16552   1.997   4.659   2.940 -0.0176 -0.6781  0.0280
  149OSM    H8F16553   2.072   4.635   2.862  0.2329  0.4216 -0.0920
  149OSM    H8G16554   1.944   4.564   2.962 -2.1336 -0.2860 -2.7596
  149OSM    C9F16555   2.064   4.715   3.060 -0.5827  0.4278  0.2326
  149OSM    H9F16556   2.136   4.796   3.040  0.7909 -0.5273  1.0821
  149OSM   C10F16557   2.065   4.672   3.190  0.6237 -0.0293 -0.6216
  149OSM   H10F16558   2.121   4.720   3.272  0.4870 -0.4508 -0.2814
  149OSM   C11F16559   1.968   4.576   3.250  0.6725 -0.7911  0.1789
  149OSM   H11F16560   1.870   4.583   3.200  0.6888  1.8633  0.3355
  149OSM   H11G16561   1.948   4.601   3.356 -0.9957 -1.2942  0.0058
  149OSM   C12F16562   2.023   4.440   3.240  0.1092  0.2926 -0.0951
  149OSM   H12F16563   2.120   4.430   3.293  0.0560 -2.1931 -0.3455
  149OSM   H12G16564   2.047   4.416   3.135  0.6088  0.9768 -0.1380
  149OSM   C13F16565   1.943   4.326   3.300  0.1445  0.5390 -0.3119
  149OSM   H13F16566   1.840   4.328   3.259 -0.4230  3.2327  1.0449
  149OSM   H13G16567   1.923   4.335   3.409 -3.8957 -0.0023 -0.8731
  149OSM   C14F16568   2.002   4.189   3.282 -0.2903  0.2274 -0.1377
  149OSM   H14F16569   2.093   4.189   3.346  0.7637  2.6042 -1.5061
  149OSM   H14G16570   2.035   4.171   3.178 -0.5770  0.7819 -0.3283
  149OSM   C15F16571   1.900   4.076   3.313 -0.7452  0.0467 -0.3472
  149OSM   H15F16572   1.949   3.979   3.290  0.0845  0.8096 -1.9538
  149OSM   H15G16573   1.819   4.080   3.237  0.3555  1.4268 -1.5030
  149OSM   C16F16574   1.863   4.067   3.463 -0.3429  0.4036 -0.2073
  149OSM   H16F16575   1.803   4.155   3.494 -0.0793  0.6195 -0.3063
  149OSM   H16G16576   1.959   4.057   3.518 -0.2412 -0.4361 -0.5205
  149OSM   C17F16577   1.780   3.932   3.475  0.0684 -0.1269  0.2118
  149OSM   H17F16578   1.846   3.845   3.455 -1.9794 -1.1385 -2.9998
  149OSM   H17G16579   1.708   3.931   3.390  0.6331  0.3825 -0.2873
  149OSM   C18F16580   1.686   3.917   3.600 -0.3564  0.0374  0.5799
  149OSM   H18F16581   1.612   3.998   3.615 -1.4008 -1.1364  2.1017
  149OSM   H18G16582   1.746   3.926   3.693 -1.4105  3.3000  1.0871
  149OSM   H18H16583   1.627   3.823   3.591 -0.4868  0.0790  0.9795
  150OSM      N16584   3.758   5.974   1.821  0.8281  0.2331  0.2848
  150OSM    C1516585   3.655   6.034   1.726 -0.5668  0.3538  0.5503
  150OSM   H15A16586   3.557   5.987   1.727  0.9698 -3.3755 -2.0018
  150OSM   H15B16587   3.691   6.031   1.625 -1.1437 -0.9588  0.3531
  150OSM   H15C16588   3.642   6.137   1.753  0.1309  0.4416  0.5692
  150OSM    C1416589   3.762   5.831   1.785 -0.3899  0.4125 -0.8696
  150OSM   H14A16590   3.671   5.774   1.799  0.3830 -0.5150  0.6498
  150OSM   H14B16591   3.839   5.782   1.843  0.2804  0.5743 -1.6007
  150OSM   H14C16592   3.780   5.822   1.678  2.3911 -0.0471 -0.4514
  150OSM    C1316593   3.888   6.051   1.820 -0.1457  0.6599 -0.1723
  150OSM   H13A16594   3.930   6.039   1.722 -1.2718 -0.3755 -0.5467
  150OSM   H13B16595   3.966   6.024   1.891  1.8324  4.8241 -0.4530
  150OSM   H13C16596   3.872   6.157   1.834 -0.8357  0.6269 -0.7187
  150OSM    C1216597   3.701   5.992   1.961  0.3389 -0.6952 -0.0711
  150OSM   H12A16598   3.595   5.972   1.953  0.1953 -0.2948  0.7811
  150OSM   H12B16599   3.711   6.097   1.983  0.9852  0.2575 -4.0627
  150OSM    C1116600   3.753   5.911   2.087 -0.2554 -0.0127  0.2962
  150OSM   H11A16601   3.721   5.806   2.070 -0.2172 -0.2550  1.5880
  150OSM   H11B16602   3.699   5.945   2.178  1.2936 -3.2271  2.6273
  150OSM      P16603   3.956   6.024   2.189  0.0055  0.0960  0.1307
  150OSM    O1316604   4.101   5.992   2.194  0.6707  0.4272  0.1800
  150OSM    O1416605   3.922   6.155   2.133  0.1603 -0.3994  0.0399
  150OSM    O1116606   3.898   6.003   2.330  0.5227  0.0643 -0.6115
  150OSM    O1216607   3.897   5.911   2.102 -0.0718  0.2064 -0.0749
  150OSM    C1S16608   3.874   5.865   2.383 -0.5341  0.1385  0.0843
  150OSM    H1S16609   3.960   5.801   2.357 -1.0587 -0.6089  0.1601
  150OSM    H1T16610   3.780   5.823   2.341 -0.2754 -1.3450  0.9204
  150OSM     NF16611   3.900   5.724   2.592  0.2182  0.8933  0.3205
  150OSM    HNF16612   3.824   5.674   2.633 -0.0450  0.2672 -0.8633
  150OSM    C2S16613   3.863   5.858   2.539  0.6884  0.3069  0.4331
  150OSM    H2S16614   3.931   5.936   2.578  0.4180  1.0416 -0.5201
  150OSM    C3S16615   3.726   5.922   2.574  0.7579  0.4206 -0.1048
  150OSM    H3S16616   3.643   5.852   2.548  0.2126  0.9371  0.2290
  150OSM     O316617   3.703   6.041   2.501 -0.3849 -0.2111 -0.0298
  150OSM    HO316618   3.773   6.049   2.437  0.0607  0.0644  0.4878
  150OSM    C4S16619   3.726   5.946   2.724  0.4203  0.1064  0.1559
  150OSM    H4S16620   3.753   6.050   2.746  1.7789 -0.0749 -0.5711
  150OSM    C5S16621   3.699   5.863   2.829 -0.2162 -0.5564  0.6712
  150OSM    H5S16622   3.686   5.756   2.811  2.7196 -0.5457 -2.6667
  150OSM    C6S16623   3.692   5.902   2.972 -0.0087 -0.1182 -0.6618
  150OSM    H6S16624   3.584   5.918   2.994  0.0942 -2.7231  2.3651
  150OSM    H6T16625   3.756   5.991   2.991 -0.3108 -0.0864  0.2999
  150OSM    C7S16626   3.754   5.802   3.075 -0.0025  0.7804  1.0876
  150OSM    H7S16627   3.858   5.771   3.051 -1.1450 -3.1951  0.4922
  150OSM    H7T16628   3.693   5.712   3.055  0.2251  1.3506 -2.9182
  150OSM    C8S16629   3.737   5.849   3.220 -0.0824 -0.1765 -0.8187
  150OSM    H8S16630   3.633   5.880   3.245  0.4180  1.0136 -0.1291
  150OSM    H8T16631   3.807   5.933   3.241 -0.2303 -0.4025  0.6674
  150OSM    C9S16632   3.774   5.739   3.327 -0.0722  0.0257  0.1626
  150OSM    H9S16633   3.879   5.704   3.314 -0.0979 -1.0051  2.3113
  150OSM    H9T16634   3.723   5.641   3.323  0.7276 -0.3740 -2.7284
  150OSM   C10S16635   3.751   5.787   3.469  0.4069  0.2500 -0.0557
  150OSM   H10S16636   3.643   5.783   3.492  0.4641 -0.5877  0.1100
  150OSM   H10T16637   3.782   5.893   3.483 -0.8858  0.5992  0.2785
  150OSM   C11S16638   3.819   5.695   3.579 -0.2694  0.5729 -0.1752
  150OSM   H11S16639   3.913   5.744   3.612 -1.6401  1.1940  3.2685
  150OSM   H11T16640   3.848   5.600   3.528  1.4147  2.2978 -2.6716
  150OSM   C12S16641   3.726   5.665   3.695  0.6534 -0.7171  0.4643
  150OSM   H12S16642   3.627   5.622   3.668  0.7836 -0.2760 -0.7851
  150OSM   H12T16643   3.701   5.760   3.748  1.9552  0.6595 -1.2478
  150OSM   C13S16644   3.787   5.561   3.780  0.0396  0.0078 -0.3065
  150OSM   H13S16645   3.894   5.569   3.806  0.5379 -3.0087 -0.9799
  150OSM   H13T16646   3.767   5.468   3.722 -1.1384  0.0923 -0.0621
  150OSM   C14S16647   3.715   5.549   3.914 -0.2261 -0.6962  0.1764
  150OSM   H14S16648   3.604   5.557   3.909 -0.1415  1.6192  0.8486
  150OSM   H14T16649   3.745   5.634   3.979  1.8880  0.5901 -2.2911
  150OSM   C15S16650   3.762   5.429   4.003  0.5767  0.1741 -0.8872
  150OSM   H15S16651   3.870   5.416   4.022  0.0541  0.3066  2.9950
  150OSM   H15T16652   3.729   5.342   3.942 -0.9027 -2.0667  2.7274
  150OSM   C16S16653   3.702   5.427   4.145  0.3050  0.2553 -0.4705
  150OSM   H16S16654   3.738   5.524   4.185  1.4313  0.1308 -1.1338
  150OSM   H16T16655   3.739   5.338   4.199 -2.6142 -0.5301  0.3709
  150OSM   C17S16656   3.548   5.433   4.171 -0.0056  0.6263 -0.5395
  150OSM   H17S16657   3.514   5.328   4.175 -4.6158  1.9121 -0.5365
  150OSM   H17T16658   3.505   5.465   4.074 -0.5189 -0.1294 -0.5711
  150OSM   C18S16659   3.506   5.505   4.293  0.3548 -0.1878 -0.3272
  150OSM   H18S16660   3.535   5.611   4.305 -1.9294  0.5333 -0.7456
  150OSM   H18T16661   3.541   5.442   4.378  0.4199  0.0535 -0.1739
  150OSM   H18U16662   3.396   5.503   4.307 -0.0155  3.9651 -1.3706
  150OSM    C1F16663   4.029   5.675   2.589  0.9400 -0.2217  0.9026
  150OSM     OF16664   4.122   5.737   2.542 -0.0755  0.3088  0.4573
  150OSM    C2F16665   4.046   5.536   2.639  0.5162 -0.2917  0.5583
  150OSM    H2F16666   4.092   5.473   2.559  1.1921 -0.6808  1.2410
  150OSM    H2G16667   3.952   5.491   2.676  1.1520 -0.2137  2.3590
  150OSM    C3F16668   4.149   5.521   2.749  0.0344 -0.4613 -0.0266
  150OSM    H3F16669   4.228   5.596   2.730  0.5646 -0.9036  0.4035
  150OSM    H3G16670   4.201   5.424   2.732  0.5757 -0.3143  0.7453
  150OSM    C4F16671   4.105   5.548   2.893  0.1349  0.1313  1.1743
  150OSM    H4F16672   4.050   5.452   2.906  1.2678 -1.1940 -2.4086
  150OSM    H4G16673   4.046   5.641   2.904  0.6225  0.4606  1.0159
  150OSM    C5F16674   4.217   5.550   2.998 -0.3754 -0.3607 -0.0084
  150OSM    H5F16675   4.299   5.621   2.972 -0.2920 -0.5287 -0.2035
  150OSM    H5G16676   4.262   5.449   2.995  0.2764 -0.1132  0.8565
  150OSM    C6F16677   4.165   5.605   3.127  0.2045 -0.1538 -0.5860
  150OSM    H6F16678   4.079   5.550   3.171 -0.3183  2.0820  1.4020
  150OSM    H6G16679   4.133   5.711   3.122 -2.0214 -0.6954  0.5078
  150OSM    C7F16680   4.267   5.618   3.243 -0.1386 -0.5504 -0.2151
  150OSM    H7F16681   4.361   5.673   3.220  0.7042 -1.5386  0.7227
  150OSM    H7G16682   4.322   5.525   3.270 -0.3105 -0.0041  2.1720
  150OSM    C8F16683   4.213   5.671   3.376  0.1497 -0.6979 -0.1463
  150OSM    H8F16684   4.311   5.673   3.429  0.4876  1.5019 -0.7537
  150OSM    H8G16685   4.144   5.597   3.423 -1.8065  1.1088 -0.0532
  150OSM    C9F16686   4.156   5.813   3.380  0.1336 -0.1154 -0.7250
  150OSM    H9F16687   4.100   5.844   3.290  0.0868  0.1932 -0.5914
  150OSM   C10F16688   4.181   5.909   3.472  0.8866 -0.0595 -0.6747
  150OSM   H10F16689   4.123   6.001   3.453  1.8906  0.6508 -0.4267
  150OSM   C11F16690   4.239   5.897   3.610  0.0537 -0.1390 -0.1003
  150OSM   H11F16691   4.326   5.966   3.618  2.2233 -2.2179 -3.2826
  150OSM   H11G16692   4.274   5.794   3.633 -0.0616 -0.3141 -0.7042
  150OSM   C12F16693   4.139   5.934   3.721 -0.2452 -0.3911  0.2686
  150OSM   H12F16694   4.051   5.872   3.695  0.5332 -1.2262 -0.4235
  150OSM   H12G16695   4.133   6.045   3.715 -1.4410 -0.5278 -1.7506
  150OSM   C13F16696   4.176   5.888   3.863  0.2059 -0.5197  0.5095
  150OSM   H13F16697   4.114   5.948   3.933 -0.6183  0.6674 -1.1465
  150OSM   H13G16698   4.284   5.901   3.881  0.0336 -0.7560  1.8096
  150OSM   C14F16699   4.146   5.733   3.884 -0.8621 -0.7122 -0.0664
  150OSM   H14F16700   4.196   5.677   3.801 -0.5231 -1.1884  0.4549
  150OSM   H14G16701   4.036   5.718   3.877 -0.8295 -1.9855  1.5088
  150OSM   C15F16702   4.200   5.692   4.025 -0.0953  0.1401  0.3471
  150OSM   H15F16703   4.157   5.763   4.098  0.3622  0.5720  0.1972
  150OSM   H15G16704   4.308   5.711   4.009 -0.1235  0.9669  1.0888
  150OSM   C16F16705   4.156   5.548   4.056 -0.2058 -0.5673  0.3047
  150OSM   H16F16706   4.182   5.490   3.965 -0.8719  2.1368 -1.7374
  150OSM   H16G16707   4.046   5.550   4.069 -0.2143  0.3648  0.1681
  150OSM   C17F16708   4.222   5.496   4.184  0.7959 -0.0720  0.1163
  150OSM   H17F16709   4.209   5.572   4.264 -1.2148 -1.2392  0.9734
  150OSM   H17G16710   4.331   5.486   4.165  0.6332 -2.3281  0.0840
  150OSM   C18F16711   4.167   5.358   4.229 -0.7948  0.3688  0.6489
  150OSM   H18F16712   4.058   5.356   4.212 -0.6158  3.2520 -1.7487
  150OSM   H18G16713   4.185   5.347   4.338 -0.0571  0.5941  0.5592
  150OSM   H18H16714   4.207   5.274   4.168 -1.2799 -0.2975  1.2407
  151OSM      N16715   4.192   5.430   2.102 -0.1551 -0.0921 -0.4109
  151OSM    C1516716   4.261   5.519   2.002 -0.8178  0.2688  0.2582
  151OSM   H15A16717   4.327   5.595   2.041 -1.5936  0.8172  0.5102
  151OSM   H15B16718   4.186   5.572   1.946  2.3313  4.0782 -0.8393
  151OSM   H15C16719   4.321   5.460   1.933 -0.8549  2.1467 -1.4820
  151OSM    C1416720   4.113   5.329   2.030 -0.7007 -0.5308  0.2664
  151OSM   H14A16721   4.165   5.298   1.941 -1.1007  1.1630 -0.5843
  151OSM   H14B16722   4.010   5.355   2.014 -1.0620 -2.4439 -0.7941
  151OSM   H14C16723   4.092   5.238   2.085 -1.7120 -0.2949  0.2795
  151OSM    C1316724   4.297   5.367   2.187 -0.9834  0.2015 -0.2525
  151OSM   H13A16725   4.369   5.316   2.124  0.5093  0.3554  1.2327
  151OSM   H13B16726   4.253   5.291   2.250 -0.6930 -0.1718 -0.4977
  151OSM   H13C16727   4.347   5.442   2.247  0.5693 -2.2299  1.7048
  151OSM    C1216728   4.105   5.516   2.180  0.3018  0.9581  0.6197
  151OSM   H12A16729   4.036   5.566   2.114  1.1280 -0.7540 -1.7003
  151OSM   H12B16730   4.163   5.588   2.234  0.4894  0.8086  0.6205
  151OSM    C1116731   4.017   5.445   2.289  0.2015 -0.6982 -0.6421
  151OSM   H11A16732   3.979   5.520   2.362  1.0876  0.2938 -1.1742
  151OSM   H11B16733   4.082   5.387   2.357  0.9762  0.6759 -0.1755
  151OSM      P16734   3.789   5.404   2.168  0.2800 -0.7391 -0.1499
  151OSM    O1316735   3.818   5.474   2.041 -0.0834 -0.3196 -0.2214
  151OSM    O1416736   3.699   5.292   2.148  0.0956 -0.3672 -0.6257
  151OSM    O1116737   3.737   5.514   2.271 -0.5384  0.3604 -0.3663
  151OSM    O1216738   3.920   5.351   2.231 -0.3500 -0.4429 -0.6199
  151OSM    C1S16739   3.669   5.463   2.390 -0.3272  0.0969  0.4027
  151OSM    H1S16740   3.745   5.449   2.469 -0.4749  0.4133  0.6002
  151OSM    H1T16741   3.606   5.371   2.394  0.3372 -0.3217  2.7381
  151OSM     NF16742   3.516   5.541   2.566 -0.1092  0.1420 -0.2524
  151OSM    HNF16743   3.417   5.529   2.569 -0.5217  3.1411  2.0309
  151OSM    C2S16744   3.571   5.572   2.442  0.2800 -0.2914 -0.1057
  151OSM    H2S16745   3.627   5.665   2.465 -1.5845  1.3023 -1.5651
  151OSM    C3S16746   3.462   5.621   2.340 -0.5791  0.1860 -1.2883
  151OSM    H3S16747   3.391   5.541   2.313  1.2148 -0.5473 -4.2677
  151OSM     O316748   3.523   5.660   2.219 -0.1288 -0.7257  0.8461
  151OSM    HO316749   3.616   5.640   2.233  0.2156 -1.1542 -1.6726
  151OSM    C4S16750   3.382   5.735   2.401  0.6015  0.6474 -0.2723
  151OSM    H4S16751   3.300   5.698   2.464 -2.4170  1.6757 -3.2686
  151OSM    C5S16752   3.407   5.867   2.388 -0.3481  0.0970  0.2735
  151OSM    H5S16753   3.482   5.900   2.315  0.0089  0.1270  0.6526
  151OSM    C6S16754   3.335   5.966   2.470  0.2838  0.5760  0.1933
  151OSM    H6S16755   3.260   6.009   2.399 -1.1254  0.6125  1.6355
  151OSM    H6T16756   3.412   6.042   2.497  0.5326  1.4044 -2.5603
  151OSM    C7S16757   3.256   5.926   2.598 -0.1301 -0.4026 -0.1533
  151OSM    H7S16758   3.185   5.845   2.570 -0.4115 -0.0007 -0.6328
  151OSM    H7T16759   3.194   6.013   2.626 -1.0730 -1.1561  0.1525
  151OSM    C8S16760   3.351   5.874   2.707  0.1095  0.2239 -0.1905
  151OSM    H8S16761   3.411   5.959   2.744  0.9179 -0.0114 -0.9304
  151OSM    H8T16762   3.422   5.794   2.678 -0.8682 -1.1126  0.9323
  151OSM    C9S16763   3.270   5.810   2.820 -0.1139  0.6185 -0.1452
  151OSM    H9S16764   3.237   5.708   2.792 -0.3673 -0.2570  2.9821
  151OSM    H9T16765   3.175   5.864   2.841  0.2238  0.4701  1.9934
  151OSM   C10S16766   3.346   5.808   2.950  0.6127 -0.2379 -0.3459
  151OSM   H10S16767   3.349   5.913   2.986 -0.8445 -0.3688  0.2056
  151OSM   H10T16768   3.450   5.771   2.935  1.3933  1.9454 -0.7843
  151OSM   C11S16769   3.289   5.722   3.061  0.1703 -0.5976  0.5188
  151OSM   H11S16770   3.281   5.617   3.027 -1.0325 -0.8126  1.3955
  151OSM   H11T16771   3.183   5.749   3.084  0.8649  1.0604  2.0442
  151OSM   C12S16772   3.372   5.729   3.192  0.4772 -0.7532  0.2360
  151OSM   H12S16773   3.398   5.836   3.209  1.4167 -0.6846 -1.4237
  151OSM   H12T16774   3.470   5.679   3.176  0.8663 -0.4734  1.6546
  151OSM   C13S16775   3.287   5.675   3.308  0.3960  0.3951 -0.2380
  151OSM   H13S16776   3.282   5.568   3.278  2.9116  0.5217 -1.3914
  151OSM   H13T16777   3.188   5.725   3.299  0.0925 -0.4950 -2.8371
  151OSM   C14S16778   3.353   5.702   3.440 -0.2905  0.2288  0.0248
  151OSM   H14S16779   3.366   5.812   3.453  0.1375  0.4144 -1.6540
  151OSM   H14T16780   3.452   5.655   3.457 -0.5116  0.5520  2.4983
  151OSM   C15S16781   3.261   5.651   3.557  0.6680 -0.5589  0.4702
  151OSM   H15S16782   3.224   5.551   3.528 -1.0792  0.3275 -0.5803
  151OSM   H15T16783   3.171   5.716   3.569  0.1962 -0.7304 -1.7388
  151OSM   C16S16784   3.317   5.645   3.703  0.1320  0.0663  0.5135
  151OSM   H16S16785   3.417   5.596   3.701  0.8545  1.5098 -1.1679
  151OSM   H16T16786   3.248   5.594   3.774 -0.9909  0.2740 -0.3967
  151OSM   C17S16787   3.333   5.786   3.775  0.5599  0.2270  0.2494
  151OSM   H17S16788   3.238   5.842   3.762 -0.5879 -1.9522 -1.3477
  151OSM   H17T16789   3.402   5.856   3.722  2.4365 -0.5987  1.4703
  151OSM   C18S16790   3.382   5.770   3.918 -0.4476 -0.1173 -0.0833
  151OSM   H18S16791   3.485   5.732   3.905  0.1401  1.3024  0.2544
  151OSM   H18T16792   3.321   5.707   3.986  0.0195  0.3222  0.7508
  151OSM   H18U16793   3.384   5.875   3.956 -1.6037  0.3851 -1.3011
  151OSM    C1F16794   3.590   5.510   2.675  0.1195 -0.0738 -0.1706
  151OSM     OF16795   3.703   5.550   2.692 -0.6785 -0.2342  0.3993
  151OSM    C2F16796   3.517   5.433   2.775  0.5482 -0.0331 -0.4909
  151OSM    H2F16797   3.524   5.326   2.749  2.4517 -0.4944  1.5871
  151OSM    H2G16798   3.413   5.472   2.763  0.5652  0.6339  1.2564
  151OSM    C3F16799   3.566   5.474   2.916  0.2636  0.0111 -0.4593
  151OSM    H3F16800   3.544   5.581   2.937  2.1945  0.0642  1.7304
  151OSM    H3G16801   3.677   5.478   2.923  0.1660  0.1013  1.6257
  151OSM    C4F16802   3.513   5.378   3.023  0.1673  0.1218 -0.1440
  151OSM    H4F16803   3.509   5.272   2.989 -0.3860 -0.0929  0.5428
  151OSM    H4G16804   3.406   5.406   3.036  0.4759  0.1840  3.3455
  151OSM    C5F16805   3.583   5.384   3.152 -0.3944  0.0916 -0.2017
  151OSM    H5F16806   3.572   5.482   3.204 -0.3976  0.3986 -0.7742
  151OSM    H5G16807   3.689   5.362   3.127 -0.9915 -0.6035 -2.3652
  151OSM    C6F16808   3.518   5.286   3.256 -0.4031  0.2193  0.9933
  151OSM    H6F16809   3.540   5.185   3.214  0.4886  0.3984  1.0221
  151OSM    H6G16810   3.408   5.299   3.253 -0.5134 -0.8293 -1.0482
  151OSM    C7F16811   3.581   5.317   3.391  0.5602 -1.0092  0.3522
  151OSM    H7F16812   3.533   5.412   3.421  1.7519  0.0919 -1.0756
  151OSM    H7G16813   3.690   5.339   3.385  0.4297 -0.4379 -0.0438
  151OSM    C8F16814   3.544   5.206   3.490  0.0016 -0.7119 -0.1274
  151OSM    H8F16815   3.630   5.210   3.560  0.1566 -1.6876 -0.2420
  151OSM    H8G16816   3.547   5.112   3.431 -1.5541  0.3618 -2.0330
  151OSM    C9F16817   3.401   5.218   3.529 -0.1595  0.0987  0.5063
  151OSM    H9F16818   3.336   5.185   3.446 -1.7343  0.9857  1.3212
  151OSM   C10F16819   3.347   5.258   3.644  0.0374 -0.8389 -0.1778
  151OSM   H10F16820   3.238   5.271   3.653  0.0901 -1.4197  1.7086
  151OSM   C11F16821   3.428   5.290   3.773  0.5062 -0.2594  0.3416
  151OSM   H11F16822   3.382   5.378   3.821 -1.5175  0.1547 -2.1384
  151OSM   H11G16823   3.534   5.310   3.744 -0.3739  1.1026 -2.2268
  151OSM   C12F16824   3.431   5.184   3.882 -0.4747  0.1366 -0.7702
  151OSM   H12F16825   3.520   5.205   3.945 -0.7353 -0.5807 -0.1540
  151OSM   H12G16826   3.454   5.079   3.853 -3.7898 -0.4486 -1.6617
  151OSM   C13F16827   3.312   5.188   3.979 -0.2121  0.5909 -0.6705
  151OSM   H13F16828   3.311   5.286   4.032  0.8643  0.2446  0.0182
  151OSM   H13G16829   3.335   5.117   4.061  0.1836 -0.3213 -1.5430
  151OSM   C14F16830   3.176   5.142   3.919  0.3930  0.8817  0.7761
  151OSM   H14F16831   3.187   5.059   3.845 -1.2920  1.4181 -0.1151
  151OSM   H14G16832   3.118   5.229   3.884 -0.7432 -0.5979 -1.2374
  151OSM   C15F16833   3.079   5.078   4.028 -0.5894  0.1574  0.5412
  151OSM   H15F16834   3.118   4.982   4.069  1.0045  0.5641  0.0644
  151OSM   H15G16835   2.991   5.046   3.969  0.9053 -3.1707 -0.1368
  151OSM   C16F16836   3.050   5.159   4.156 -0.2256  0.4111 -0.4175
  151OSM   H16F16837   3.018   5.260   4.123 -3.7653 -1.0072 -1.7545
  151OSM   H16G16838   3.135   5.174   4.226  1.1098 -4.3450 -0.6938
  151OSM   C17F16839   2.926   5.103   4.233 -0.1858 -0.7867 -0.0728
  151OSM   H17F16840   2.911   5.168   4.322  0.2562 -1.7006  0.6930
  151OSM   H17G16841   2.943   5.006   4.286 -0.7607 -0.0961  1.4423
  151OSM   C18F16842   2.796   5.105   4.153  0.5780  0.0548  0.0417
  151OSM   H18F16843   2.794   5.068   4.048  0.3033 -2.0621  0.7399
  151OSM   H18G16844   2.761   5.211   4.154  2.1269  0.5955 -0.5533
  151OSM   H18H16845   2.724   5.038   4.205 -0.4317  1.7972  1.0119
  152OSM      N16846   2.145   1.125   2.422  0.0926 -0.2155 -0.4874
  152OSM    C1516847   2.174   1.158   2.569 -0.4459  0.2800 -0.0189
  152OSM   H15A16848   2.087   1.163   2.632  1.9012  0.7179  3.5032
  152OSM   H15B16849   2.216   1.256   2.583  1.1283 -0.4516  0.6713
  152OSM   H15C16850   2.237   1.079   2.608 -2.1415 -1.1392 -0.0628
  152OSM    C1416851   2.037   1.218   2.374  0.0384  0.7420  0.2178
  152OSM   H14A16852   2.001   1.172   2.283 -0.8515 -1.0237  1.3865
  152OSM   H14B16853   2.068   1.321   2.366  1.8599  0.4661  2.7220
  152OSM   H14C16854   1.950   1.215   2.439  2.0268 -0.6821  3.0311
  152OSM    C1316855   2.270   1.143   2.348  0.3576  0.4019  0.1760
  152OSM   H13A16856   2.348   1.072   2.372  0.5469  0.8032  0.7825
  152OSM   H13B16857   2.312   1.242   2.361  1.5985 -0.2375  1.3708
  152OSM   H13C16858   2.253   1.123   2.244  0.7068  2.0709 -0.2395
  152OSM    C1216859   2.105   0.983   2.408 -1.0020  0.7238 -0.2420
  152OSM   H12A16860   2.180   0.913   2.443 -2.5164 -1.7638 -1.6918
  152OSM   H12B16861   2.084   0.949   2.307 -1.6993 -0.6850  0.3535
  152OSM    C1116862   1.980   0.933   2.484  0.3401  0.0953 -0.9674
  152OSM   H11A16863   1.896   0.984   2.432  2.2677 -0.2316 -4.7780
  152OSM   H11B16864   1.974   0.962   2.591  2.0325 -0.6558 -0.6400
  152OSM      P16865   1.844   0.718   2.478  0.6857 -0.1081  0.0093
  152OSM    O1316866   1.750   0.781   2.565  0.3405 -0.0750 -0.0962
  152OSM    O1416867   1.798   0.687   2.340  0.1767 -0.3043 -0.1978
  152OSM    O1116868   1.889   0.581   2.536 -0.3724 -0.4927  0.3947
  152OSM    O1216869   1.983   0.789   2.479  0.1025 -0.3290 -0.4709
  152OSM    C1S16870   1.925   0.564   2.673 -0.3676  0.7525  0.3223
  152OSM    H1S16871   1.973   0.654   2.716 -0.3915  1.0899 -0.3455
  152OSM    H1T16872   1.995   0.478   2.679  2.2500  2.8053  0.7201
  152OSM     NF16873   1.846   0.492   2.888  0.0241  0.4288 -0.5078
  152OSM    HNF16874   1.872   0.404   2.926  1.5219  1.3618  0.7838
  152OSM    C2S16875   1.804   0.514   2.751 -0.3874  0.8381 -0.8369
  152OSM    H2S16876   1.723   0.590   2.750 -2.9424 -1.6472  0.6050
  152OSM    C3S16877   1.730   0.382   2.695  0.2207  0.0045  0.0621
  152OSM    H3S16878   1.805   0.301   2.681 -2.2803 -2.2962 -0.7652
  152OSM     O316879   1.674   0.390   2.564 -0.4709  0.4821  0.4232
  152OSM    HO316880   1.696   0.475   2.527  1.8935 -0.2644 -0.0783
  152OSM    C4S16881   1.623   0.322   2.785  0.1803 -0.1524  0.8001
  152OSM    H4S16882   1.655   0.231   2.838  0.4981 -0.0493  0.7895
  152OSM    C5S16883   1.493   0.355   2.781  0.0439 -0.8527  0.4707
  152OSM    H5S16884   1.475   0.437   2.710  3.3969 -0.2987  0.1074
  152OSM    C6S16885   1.371   0.287   2.833  0.5256  0.2161 -0.2896
  152OSM    H6S16886   1.329   0.226   2.749  2.8593  0.5557 -1.7793
  152OSM    H6T16887   1.285   0.352   2.860 -0.2165 -0.4174 -1.0441
  152OSM    C7S16888   1.393   0.180   2.944 -0.2849  0.1328 -0.4406
  152OSM    H7S16889   1.451   0.099   2.896 -1.4366 -1.4490  0.7193
  152OSM    H7T16890   1.297   0.134   2.975 -0.0147 -0.3463 -0.3070
  152OSM    C8S16891   1.466   0.236   3.077  0.0674  0.0619 -0.3861
  152OSM    H8S16892   1.425   0.336   3.102  0.9471 -0.6098  4.9237
  152OSM    H8T16893   1.576   0.238   3.061 -0.1706  1.2555 -2.1624
  152OSM    C9S16894   1.431   0.154   3.201 -0.0491  0.2067  0.5554
  152OSM    H9S16895   1.473   0.052   3.193 -3.0310 -0.9703 -2.4349
  152OSM    H9T16896   1.320   0.146   3.200 -0.0207 -0.1730  0.5743
  152OSM   C10S16897   1.485   0.227   3.323  0.5091  0.5790  0.1813
  152OSM   H10S16898   1.432   0.324   3.330  0.8668  0.7736  0.1847
  152OSM   H10T16899   1.593   0.242   3.304  0.6451 -1.4667 -1.0154
  152OSM   C11S16900   1.468   0.141   3.447  0.0760  0.5447 -0.7855
  152OSM   H11S16901   1.521   0.187   3.533 -3.9387  1.4500  1.4978
  152OSM   H11T16902   1.522   0.048   3.421 -0.2413 -0.3395  1.4902
  152OSM   C12S16903   1.326   0.111   3.491  0.5197  0.8806 -0.2449
  152OSM   H12S16904   1.272   0.060   3.408 -0.1485  0.5093  0.4047
  152OSM   H12T16905   1.276   0.206   3.517  0.6402  0.5196  1.4440
  152OSM   C13S16906   1.327   0.023   3.622  0.1177 -0.2959  0.1335
  152OSM   H13S16907   1.416   0.050   3.683  0.6060  1.7031 -1.3523
  152OSM   H13T16908   1.338  -0.082   3.589 -3.3255 -1.4311  2.0043
  152OSM   C14S16909   1.192   0.020   3.703 -0.1761 -0.2605  0.8412
  152OSM   H14S16910   1.114  -0.032   3.643  0.4028 -1.2220  0.8958
  152OSM   H14T16911   1.174   0.125   3.733 -0.4027 -0.3809  1.1424
  152OSM   C15S16912   1.211  -0.068   3.827 -0.3152  0.2299 -0.1452
  152OSM   H15S16913   1.300  -0.028   3.881  0.5536 -0.5013 -0.9969
  152OSM   H15T16914   1.237  -0.169   3.789  2.1094 -0.2739  2.5137
  152OSM   C16S16915   1.084  -0.082   3.916 -0.3693  0.6893  0.3926
  152OSM   H16S16916   1.003  -0.122   3.851  1.8903 -1.1822 -1.4201
  152OSM   H16T16917   1.056   0.017   3.960 -1.4542  0.1937  0.8493
  152OSM   C17S16918   1.105  -0.187   4.034  0.4528  0.2955 -0.2113
  152OSM   H17S16919   1.158  -0.278   3.998  1.4645 -0.0648  1.9651
  152OSM   H17T16920   1.013  -0.211   4.092  1.1797  1.9109  1.7351
  152OSM   C18S16921   1.202  -0.128   4.136 -0.1978 -0.1455 -0.2373
  152OSM   H18S16922   1.177  -0.025   4.171 -0.2257  0.5287 -2.1381
  152OSM   H18T16923   1.296  -0.089   4.091 -1.9675  1.3334 -2.9508
  152OSM   H18U16924   1.232  -0.200   4.215  1.7394  0.2017 -0.6130
  152OSM    C1F16925   1.863   0.591   2.969 -1.5319  0.1648 -0.1633
  152OSM     OF16926   1.827   0.704   2.941 -0.3676  0.7600 -0.2193
  152OSM    C2F16927   1.934   0.563   3.095 -0.7724 -0.0725 -0.0012
  152OSM    H2F16928   2.033   0.611   3.080 -0.0032 -1.6780 -0.2801
  152OSM    H2G16929   1.951   0.454   3.109  0.2198  0.2877  1.9156
  152OSM    C3F16930   1.868   0.634   3.218 -0.4578 -0.9323  0.3536
  152OSM    H3F16931   1.843   0.742   3.207 -0.6657 -0.9910  0.2269
  152OSM    H3G16932   1.953   0.639   3.290  1.2656 -1.5118 -1.5570
  152OSM    C4F16933   1.758   0.548   3.289  0.7810 -0.3164  0.2531
  152OSM    H4F16934   1.805   0.450   3.313  2.1756  0.3195  0.2729
  152OSM    H4G16935   1.671   0.525   3.225  0.4860  2.4540 -0.4599
  152OSM    C5F16936   1.724   0.613   3.427 -0.2709  0.2574 -0.2147
  152OSM    H5F16937   1.649   0.694   3.413 -0.9161 -0.2512  0.2666
  152OSM    H5G16938   1.812   0.655   3.480 -0.8031  1.6177 -0.3483
  152OSM    C6F16939   1.640   0.519   3.517 -0.1735  0.3240  0.1430
  152OSM    H6F16940   1.702   0.443   3.569  0.6474 -1.2300 -2.8427
  152OSM    H6G16941   1.563   0.459   3.463 -0.4813  1.1931 -0.4023
  152OSM    C7F16942   1.587   0.592   3.643  0.1632 -0.2636 -0.2512
  152OSM    H7F16943   1.512   0.672   3.623  1.7233  1.3047 -0.0788
  152OSM    H7G16944   1.663   0.659   3.689 -1.5295  1.2745  0.4301
  152OSM    C8F16945   1.537   0.501   3.753 -0.0070 -0.3200  0.0551
  152OSM    H8F16946   1.628   0.458   3.799 -0.4980 -0.5390  0.8499
  152OSM    H8G16947   1.482   0.419   3.701  0.1144  0.3888 -1.2461
  152OSM    C9F16948   1.458   0.573   3.860  0.3290 -0.2210 -0.4714
  152OSM    H9F16949   1.372   0.624   3.814 -1.1263 -2.3867 -0.3444
  152OSM   C10F16950   1.484   0.576   3.988 -0.4432  0.3839  0.0415
  152OSM   H10F16951   1.415   0.635   4.051 -1.8058  0.7694 -1.7566
  152OSM   C11F16952   1.594   0.513   4.068  0.0009 -0.2380 -0.8105
  152OSM   H11F16953   1.656   0.594   4.110  1.2361 -2.1470  1.2861
  152OSM   H11G16954   1.658   0.446   4.007 -1.3888 -0.9380 -1.5516
  152OSM   C12F16955   1.557   0.404   4.174 -0.2833  0.2368  0.1389
  152OSM   H12F16956   1.494   0.452   4.252 -2.9518  1.2449 -2.4465
  152OSM   H12G16957   1.653   0.368   4.216  1.2490 -0.0027 -3.2152
  152OSM   C13F16958   1.486   0.284   4.115  0.6176  0.0151  0.7541
  152OSM   H13F16959   1.532   0.251   4.020 -3.5397 -1.9816 -0.8447
  152OSM   H13G16960   1.388   0.323   4.079  1.7798  2.5069  0.0484
  152OSM   C14F16961   1.463   0.164   4.207 -0.0213  0.0002  0.3942
  152OSM   H14F16962   1.562   0.120   4.231  1.0056  1.4177 -1.1059
  152OSM   H14G16963   1.408   0.082   4.156 -0.2048 -0.9643  2.0388
  152OSM   C15F16964   1.393   0.201   4.337  0.0902 -0.4540 -0.2878
  152OSM   H15F16965   1.301   0.258   4.311  0.1203 -0.4158 -0.3105
  152OSM   H15G16966   1.448   0.271   4.403  2.0783 -2.5193  0.4025
  152OSM   C16F16967   1.365   0.077   4.424  0.4828  0.2383 -0.4155
  152OSM   H16F16968   1.451   0.007   4.413 -0.1545 -0.4845 -0.9535
  152OSM   H16G16969   1.272   0.027   4.390 -0.9881  1.3905  1.6935
  152OSM   C17F16970   1.344   0.101   4.575 -0.6359  0.3625 -0.4965
  152OSM   H17F16971   1.277   0.189   4.582 -2.9098 -0.9808 -3.4411
  152OSM   H17G16972   1.440   0.107   4.630  0.7813 -1.9905 -2.5014
  152OSM   C18F16973   1.269  -0.015   4.647  0.3579 -1.5247 -0.1237
  152OSM   H18F16974   1.183   0.022   4.706  0.6781  0.6964 -0.9247
  152OSM   H18G16975   1.340  -0.064   4.718  0.7589  2.8617  2.9565
  152OSM   H18H16976   1.247  -0.087   4.566  1.5962  1.2363 -3.1359
  153OSM      N16977   5.096   2.058   1.668  0.8502 -0.1633  0.2422
  153OSM    C1516978   4.957   2.063   1.735 -0.8662  0.5302 -0.3795
  153OSM   H15A16979   4.952   1.997   1.820 -1.2603  1.7004  0.5377
  153OSM   H15B16980   4.886   2.026   1.663 -2.0846 -1.6693  1.8141
  153OSM   H15C16981   4.940   2.166   1.765  0.5097  0.5418  0.4185
  153OSM    C1416982   5.121   1.918   1.624  0.3256  0.8944  0.9852
  153OSM   H14A16983   5.149   1.861   1.712  0.6043  0.0530  0.3686
  153OSM   H14B16984   5.203   1.902   1.555  0.2874  2.7125  0.4800
  153OSM   H14C16985   5.030   1.876   1.583  0.2728  3.3644 -1.7535
  153OSM    C1316986   5.080   2.151   1.547 -0.1662  0.2440  0.5388
  153OSM   H13A16987   5.055   2.249   1.586  1.2352  0.7274  0.2926
  153OSM   H13B16988   5.010   2.108   1.478 -2.0301  1.9409  1.2799
  153OSM   H13C16989   5.175   2.168   1.498 -1.1264  1.4877 -0.9569
  153OSM    C1216990   5.193   2.106   1.770 -0.3479  0.3980  0.6444
  153OSM   H12A16991   5.176   2.211   1.786 -3.1115  0.1229  0.0215
  153OSM   H12B16992   5.287   2.090   1.719  0.2866 -3.5357  2.6390
  153OSM    C1116993   5.200   2.039   1.918  0.3372 -0.3003  0.4951
  153OSM   H11A16994   5.102   2.071   1.959 -0.6503 -0.1683 -1.8051
  153OSM   H11B16995   5.287   2.093   1.960 -0.2403 -0.2408  1.6522
  153OSM      P16996   5.365   1.836   1.882 -0.1456 -0.6188 -0.2254
  153OSM    O1316997   5.345   1.692   1.839 -0.1341 -0.0395  0.3560
  153OSM    O1416998   5.440   1.930   1.789  0.0115  0.3021 -0.2736
  153OSM    O1116999   5.436   1.833   2.023 -0.2831  0.0895  0.0316
  153OSM    O1217000   5.224   1.897   1.915 -0.3426 -0.0171 -0.0186
  153OSM    C1S17001   5.389   1.884   2.141  0.5044 -0.2994  0.6583
  153OSM    H1S17002   5.279   1.874   2.151  0.5406 -3.4664 -0.7504
  153OSM    H1T17003   5.410   1.992   2.156 -1.8099  0.2241  0.5673
  153OSM     NF17004   5.371   1.811   2.385  0.1613  0.3014  0.6560
  153OSM    HNF17005   5.388   1.882   2.453 -1.3374  0.3304  1.0359
  153OSM    C2S17006   5.451   1.802   2.261  0.8843 -0.4193  0.1287
  153OSM    H2S17007   5.448   1.694   2.234 -1.1819 -0.9595  2.2404
  153OSM    C3S17008   5.600   1.840   2.273 -0.0855 -0.2408  0.1903
  153OSM    H3S17009   5.610   1.950   2.280 -0.4373 -0.2200  0.3824
  153OSM     O317010   5.675   1.807   2.153 -0.0136  0.2294  0.0697
  153OSM    HO317011   5.613   1.791   2.082  0.1664 -1.2414  0.2205
  153OSM    C4S17012   5.678   1.796   2.397  1.3017  0.4901 -0.0351
  153OSM    H4S17013   5.635   1.858   2.477 -1.0935 -0.8070 -0.2378
  153OSM    C5S17014   5.769   1.696   2.409  0.2502 -0.1521 -0.2002
  153OSM    H5S17015   5.788   1.631   2.322 -1.1351 -0.0656 -0.6005
  153OSM    C6S17016   5.832   1.659   2.539 -0.7948  0.6698 -0.0386
  153OSM    H6S17017   5.942   1.654   2.532 -0.9088 -1.2364 -1.0228
  153OSM    H6T17018   5.816   1.551   2.558 -0.5338  0.9092  1.7198
  153OSM    C7S17019   5.775   1.731   2.662 -0.3789  0.0450  0.0489
  153OSM    H7S17020   5.672   1.692   2.680  0.0441 -1.8360 -1.2513
  153OSM    H7T17021   5.776   1.842   2.657  0.4458  0.0563  0.4825
  153OSM    C8S17022   5.855   1.696   2.789  0.1763 -0.3136  0.3252
  153OSM    H8S17023   5.960   1.734   2.783 -1.2113  3.8485 -1.5704
  153OSM    H8T17024   5.847   1.586   2.798 -0.1716 -0.3384 -0.2465
  153OSM    C9S17025   5.783   1.757   2.914 -0.4260  0.0225  0.4224
  153OSM    H9S17026   5.675   1.775   2.895 -0.0326  1.1650 -0.8850
  153OSM    H9T17027   5.824   1.860   2.916 -0.4048  0.1172 -1.7309
  153OSM   C10S17028   5.820   1.680   3.048  0.7667  0.2683 -0.1519
  153OSM   H10S17029   5.918   1.632   3.032  1.4381  1.3803  0.5239
  153OSM   H10T17030   5.747   1.599   3.067  0.3317  0.4761 -0.8827
  153OSM   C11S17031   5.807   1.781   3.168 -0.3375 -0.5882  0.0877
  153OSM   H11S17032   5.713   1.840   3.162  2.0584  3.4508 -1.7530
  153OSM   H11T17033   5.878   1.863   3.149 -2.6240  1.3966 -0.3891
  153OSM   C12S17034   5.838   1.713   3.302 -0.0967 -0.2487 -0.2899
  153OSM   H12S17035   5.940   1.669   3.297 -0.3545 -0.7779 -1.1020
  153OSM   H12T17036   5.783   1.619   3.321  0.7499 -0.5533  0.7544
  153OSM   C13S17037   5.818   1.806   3.424  0.0324 -0.8536  0.6778
  153OSM   H13S17038   5.714   1.838   3.404  0.8110  3.0735  1.9456
  153OSM   H13T17039   5.878   1.900   3.419 -3.5424  1.9302  3.8355
  153OSM   C14S17040   5.857   1.740   3.555 -0.1050  0.3705  0.4323
  153OSM   H14S17041   5.968   1.739   3.556 -0.0928 -0.5337  1.5746
  153OSM   H14T17042   5.826   1.633   3.559 -0.2685  0.3681 -0.7549
  153OSM   C15S17043   5.803   1.805   3.681 -0.2171  0.6509  0.0302
  153OSM   H15S17044   5.699   1.841   3.672  0.4174  2.0542 -3.0946
  153OSM   H15T17045   5.862   1.897   3.703  0.3954  0.2902 -0.0579
  153OSM   C16S17046   5.829   1.712   3.801  0.0828  0.3962  0.6866
  153OSM   H16S17047   5.937   1.686   3.802 -0.3245 -1.7110 -1.4997
  153OSM   H16T17048   5.768   1.620   3.787 -0.8656  1.2171 -0.7692
  153OSM   C17S17049   5.782   1.773   3.932  0.2743  0.1919 -0.1336
  153OSM   H17S17050   5.681   1.817   3.914  0.0617  0.4525  1.5591
  153OSM   H17T17051   5.846   1.861   3.956 -0.4841  1.2140 -1.6537
  153OSM   C18S17052   5.772   1.657   4.028 -0.2666 -0.4476 -0.5795
  153OSM   H18S17053   5.739   1.695   4.127  0.1879  0.6906 -0.8550
  153OSM   H18T17054   5.874   1.615   4.045  0.0680  0.6991  0.4574
  153OSM   H18U17055   5.697   1.593   3.976 -0.5713  2.3686 -3.9310
  153OSM    C1F17056   5.263   1.731   2.394  0.2999  0.3821 -0.0986
  153OSM     OF17057   5.236   1.660   2.300  0.1856  0.1521  0.3360
  153OSM    C2F17058   5.180   1.735   2.524 -0.1062  0.5095  0.8068
  153OSM    H2F17059   5.085   1.793   2.523 -0.8436 -0.6172  2.1712
  153OSM    H2G17060   5.254   1.768   2.600 -0.1767  1.0434  0.6518
  153OSM    C3F17061   5.142   1.590   2.567  0.2095  0.0451 -0.1215
  153OSM    H3F17062   5.229   1.548   2.622 -0.0718  0.4601  0.6584
  153OSM    H3G17063   5.118   1.529   2.478 -1.1520  0.8287 -0.3182
  153OSM    C4F17064   5.016   1.604   2.652 -0.0476 -0.5076 -0.0886
  153OSM    H4F17065   4.992   1.500   2.684 -1.2940  0.0980  1.0129
  153OSM    H4G17066   4.930   1.640   2.593 -0.1271 -0.5255  0.0154
  153OSM    C5F17067   5.027   1.684   2.781  0.4625  0.4749  0.0166
  153OSM    H5F17068   4.925   1.708   2.819  0.6940  2.2652 -0.3838
  153OSM    H5G17069   5.080   1.781   2.770  3.1348 -0.0793  4.9041
  153OSM    C6F17070   5.103   1.621   2.897 -0.5631  0.0380 -0.3106
  153OSM    H6F17071   5.212   1.610   2.877 -0.1928 -0.1944  1.5799
  153OSM    H6G17072   5.061   1.520   2.915 -0.5209 -0.1622 -1.2752
  153OSM    C7F17073   5.115   1.708   3.017 -0.1262 -0.3025 -0.7378
  153OSM    H7F17074   5.143   1.812   2.989  0.1143 -0.0607  0.3904
  153OSM    H7G17075   5.195   1.685   3.089  0.2398  0.6389 -0.8336
  153OSM    C8F17076   4.991   1.714   3.109 -0.4613 -0.0775 -0.1600
  153OSM    H8F17077   4.986   1.615   3.159  0.3049 -1.0812 -1.9839
  153OSM    H8G17078   4.895   1.727   3.055 -0.2286 -2.4923 -1.2539
  153OSM    C9F17079   5.009   1.814   3.217  0.1497 -0.0493 -0.6986
  153OSM    H9F17080   4.964   1.913   3.199  0.9910  0.4899  0.0386
  153OSM   C10F17081   5.088   1.807   3.321  0.5269  0.6755 -1.0629
  153OSM   H10F17082   5.085   1.892   3.391 -0.4184  0.8706 -1.3323
  153OSM   C11F17083   5.166   1.681   3.372  0.5130 -0.1866 -0.3916
  153OSM   H11F17084   5.274   1.707   3.383  0.3630  0.5218 -0.4940
  153OSM   H11G17085   5.144   1.594   3.306 -0.8207 -1.4244  1.5901
  153OSM   C12F17086   5.130   1.639   3.515  0.4367 -0.0265 -0.2128
  153OSM   H12F17087   5.160   1.536   3.541  0.0440 -0.3649 -1.0498
  153OSM   H12G17088   5.019   1.642   3.525  0.2083 -0.4894 -2.2048
  153OSM   C13F17089   5.172   1.733   3.634 -0.2872  0.5893  0.2851
  153OSM   H13F17090   5.132   1.836   3.634 -0.0710  0.6959 -1.0471
  153OSM   H13G17091   5.282   1.746   3.633 -0.2474  0.5918  1.9043
  153OSM   C14F17092   5.144   1.672   3.769 -0.4585  0.3738  0.1702
  153OSM   H14F17093   5.169   1.565   3.787  0.1319 -0.0115 -2.5532
  153OSM   H14G17094   5.036   1.676   3.793 -0.5323  2.2586 -0.3274
  153OSM   C15F17095   5.208   1.764   3.884 -0.2484  0.6131  0.3455
  153OSM   H15F17096   5.132   1.842   3.908 -0.8885 -0.4678  2.0698
  153OSM   H15G17097   5.300   1.809   3.841  1.1508 -0.9840  1.5473
  153OSM   C16F17098   5.233   1.696   4.021  0.0188 -0.1456 -0.8243
  153OSM   H16F17099   5.318   1.625   4.012  1.0327  1.0555 -0.9386
  153OSM   H16G17100   5.144   1.641   4.058  2.0129 -1.6623  2.1573
  153OSM   C17F17101   5.272   1.802   4.126 -0.3998 -0.5353  0.4895
  153OSM   H17F17102   5.333   1.878   4.071 -1.4417  0.4752  0.6816
  153OSM   H17G17103   5.321   1.753   4.212  0.8161  1.3630  0.9483
  153OSM   C18F17104   5.152   1.871   4.178 -0.3465  0.0079 -0.2233
  153OSM   H18F17105   5.099   1.926   4.097 -0.9755  0.1713  0.2843
  153OSM   H18G17106   5.177   1.942   4.260  1.3990 -0.0156 -0.6955
  153OSM   H18H17107   5.082   1.792   4.213 -0.4216 -0.2646 -0.9621
  154OSM      N17108   4.068   4.535   2.071  0.4304  0.9537  0.0501
  154OSM    C1517109   4.138   4.489   2.199 -0.2323  0.6108 -0.1635
  154OSM   H15A17110   4.203   4.569   2.228 -0.3798  0.6008  0.2010
  154OSM   H15B17111   4.199   4.402   2.180 -0.0412  0.7241 -0.0611
  154OSM   H15C17112   4.076   4.468   2.285  0.1966  0.0382  0.0088
  154OSM    C1417113   4.178   4.546   1.967  0.1282  0.0032  0.8706
  154OSM   H14A17114   4.231   4.452   1.960  0.2227  0.1149 -0.1605
  154OSM   H14B17115   4.225   4.640   1.990  1.8752 -1.4484  3.8682
  154OSM   H14C17116   4.139   4.578   1.871  1.0435  2.4795  1.2498
  154OSM    C1317117   3.969   4.433   2.025 -0.1987  0.1241  0.8823
  154OSM   H13A17118   3.936   4.451   1.923  2.0601 -2.3814 -0.3880
  154OSM   H13B17119   3.879   4.444   2.084 -0.5206 -1.4632  0.7217
  154OSM   H13C17120   4.008   4.333   2.024 -1.2069 -0.2845  0.8538
  154OSM    C1217121   4.005   4.672   2.101  1.0384  0.0505 -0.0150
  154OSM   H12A17122   3.943   4.649   2.186  1.0112  0.1686 -0.0030
  154OSM   H12B17123   3.942   4.715   2.024  0.5107  0.9357  0.8870
  154OSM    C1117124   4.102   4.790   2.131  1.1242 -0.6344  0.3028
  154OSM   H11A17125   4.147   4.775   2.231 -0.6036 -0.3506  1.1677
  154OSM   H11B17126   4.031   4.876   2.139  0.4091 -1.2018  0.1203
  154OSM      P17127   4.302   4.944   2.058 -0.0275 -0.3302 -0.0008
  154OSM    O1317128   4.374   4.999   1.943  0.0297 -0.5487 -0.2334
  154OSM    O1417129   4.231   5.049   2.142 -0.0639  0.4925  0.7615
  154OSM    O1117130   4.398   4.865   2.142 -0.6517  0.4418 -0.1790
  154OSM    O1217131   4.197   4.825   2.028 -0.0476 -0.1778  0.8661
  154OSM    C1S17132   4.512   4.907   2.221  0.3672  0.0079  0.6694
  154OSM    H1S17133   4.505   5.014   2.248  2.6899  1.1661 -2.7255
  154OSM    H1T17134   4.607   4.899   2.164 -0.0435 -0.0116 -0.0272
  154OSM     NF17135   4.601   4.864   2.443 -0.1590  0.0270  0.3075
  154OSM    HNF17136   4.694   4.830   2.459  0.5469  2.8109  3.0546
  154OSM    C2S17137   4.516   4.803   2.340  0.5695 -0.4111 -1.0251
  154OSM    H2S17138   4.410   4.810   2.374  0.0666 -0.9200 -2.3812
  154OSM    C3S17139   4.547   4.658   2.298  0.1852  0.0339  0.1659
  154OSM    H3S17140   4.655   4.655   2.272  0.3300  1.4236  0.4991
  154OSM     O317141   4.483   4.616   2.176  0.4039 -0.4828  0.2325
  154OSM    HO317142   4.448   4.697   2.138 -0.9336 -1.1492 -0.0103
  154OSM    C4S17143   4.516   4.570   2.422  0.2730 -0.4452 -0.3547
  154OSM    H4S17144   4.602   4.559   2.489 -1.4105 -0.0420  1.9635
  154OSM    C5S17145   4.391   4.534   2.454 -0.0909 -0.1414  0.4807
  154OSM    H5S17146   4.307   4.581   2.400 -1.2884 -0.7831  1.7401
  154OSM    C6S17147   4.354   4.466   2.581  0.0724 -0.1658  0.4608
  154OSM    H6S17148   4.318   4.365   2.552 -0.6084  0.7344 -2.0331
  154OSM    H6T17149   4.265   4.519   2.624 -0.0343 -0.8863  1.1618
  154OSM    C7S17150   4.466   4.465   2.686  0.1944  0.3311 -0.3554
  154OSM    H7S17151   4.504   4.566   2.713  2.7641 -1.0885  1.9772
  154OSM    H7T17152   4.554   4.408   2.648 -0.6693 -0.7580 -0.7869
  154OSM    C8S17153   4.416   4.409   2.819 -0.2438  0.1932  0.5334
  154OSM    H8S17154   4.508   4.401   2.881  1.0259  0.9417 -1.1579
  154OSM    H8T17155   4.378   4.306   2.798  1.3966 -0.3135 -0.1876
  154OSM    C9S17156   4.320   4.494   2.901  0.2517 -0.6973  0.2648
  154OSM    H9S17157   4.325   4.459   3.007  1.7878 -2.2950 -0.2854
  154OSM    H9T17158   4.216   4.476   2.865 -0.1640 -1.7065  1.8524
  154OSM   C10S17159   4.360   4.644   2.897 -0.0011  0.1108  0.0715
  154OSM   H10S17160   4.310   4.678   2.804 -0.6613 -0.3001  0.2675
  154OSM   H10T17161   4.470   4.659   2.892 -0.4558  4.5684 -0.3146
  154OSM   C11S17162   4.293   4.731   3.006 -0.3692 -0.2077 -0.4981
  154OSM   H11S17163   4.183   4.735   3.001 -0.4438 -1.8805 -0.7849
  154OSM   H11T17164   4.333   4.833   2.987  0.5200 -0.4080  0.2240
  154OSM   C12S17165   4.348   4.699   3.145  0.4068 -0.2954 -0.5575
  154OSM   H12S17166   4.459   4.699   3.148  0.6413 -2.4516 -3.6472
  154OSM   H12T17167   4.312   4.599   3.176  0.2692 -0.2096 -0.4410
  154OSM   C13S17168   4.297   4.808   3.244 -0.1798  0.0406 -0.0740
  154OSM   H13S17169   4.196   4.842   3.215 -0.2457 -0.4819 -0.4564
  154OSM   H13T17170   4.365   4.896   3.248 -1.9726  1.4381  1.3934
  154OSM   C14S17171   4.292   4.769   3.391 -0.4823  0.5564 -0.0706
  154OSM   H14S17172   4.375   4.699   3.420 -0.7355  0.3472  0.1572
  154OSM   H14T17173   4.200   4.708   3.404 -0.1190  0.0651  0.2321
  154OSM   C15S17174   4.283   4.889   3.491  0.0642 -0.0183  0.0618
  154OSM   H15S17175   4.180   4.904   3.531 -0.1586  0.2816 -0.6084
  154OSM   H15T17176   4.304   4.981   3.433 -1.1173 -0.6886 -1.4956
  154OSM   C16S17177   4.393   4.887   3.597  0.0674 -0.1096 -0.0898
  154OSM   H16S17178   4.405   4.996   3.619  1.0595  0.1157 -1.6055
  154OSM   H16T17179   4.485   4.841   3.554 -0.8875 -0.5286 -1.8047
  154OSM   C17S17180   4.355   4.816   3.723 -0.0307 -0.3278 -0.0679
  154OSM   H17S17181   4.264   4.867   3.761  0.8236  0.6277  0.7822
  154OSM   H17T17182   4.432   4.825   3.803 -1.1916 -0.8778  1.1595
  154OSM   C18S17183   4.327   4.670   3.706 -0.0230  0.0053  0.1957
  154OSM   H18S17184   4.230   4.651   3.657 -0.4000  1.0283  0.5235
  154OSM   H18T17185   4.317   4.612   3.800 -1.7810  0.6815  0.4698
  154OSM   H18U17186   4.414   4.638   3.644 -1.5185 -2.5135 -0.7175
  154OSM    C1F17187   4.557   4.968   2.516  0.0011  0.4438 -0.4834
  154OSM     OF17188   4.456   5.034   2.499 -0.0544  0.2801 -0.1860
  154OSM    C2F17189   4.642   4.996   2.636 -0.1280 -0.5532  0.3063
  154OSM    H2F17190   4.664   5.104   2.652  2.6888 -0.8094 -1.0575
  154OSM    H2G17191   4.743   4.951   2.619 -0.0041 -0.1246 -0.1164
  154OSM    C3F17192   4.574   4.926   2.756  0.3468 -0.1220  0.1316
  154OSM    H3F17193   4.593   4.817   2.740 -0.4853 -0.0026 -1.9734
  154OSM    H3G17194   4.463   4.933   2.752  0.2183 -1.8035 -0.3689
  154OSM    C4F17195   4.614   4.982   2.890  0.5280  0.5357 -0.1587
  154OSM    H4F17196   4.716   5.023   2.874  1.3828 -1.5740 -0.3730
  154OSM    H4G17197   4.630   4.898   2.962  0.7821  0.5604 -0.1863
  154OSM    C5F17198   4.510   5.086   2.941  0.1818  0.0890 -0.0653
  154OSM    H5F17199   4.414   5.029   2.943  1.2214 -1.7366  0.9255
  154OSM    H5G17200   4.497   5.168   2.868 -1.4329 -0.8445 -0.8942
  154OSM    C6F17201   4.534   5.131   3.083 -0.7744 -0.0496 -0.5370
  154OSM    H6F17202   4.633   5.181   3.090 -0.3928 -0.8739  0.1315
  154OSM    H6G17203   4.529   5.039   3.145  1.5734 -0.3525 -0.7212
  154OSM    C7F17204   4.422   5.217   3.144  0.2512 -0.2760  0.2667
  154OSM    H7F17205   4.337   5.146   3.131  0.4638 -0.3433 -0.8270
  154OSM    H7G17206   4.413   5.315   3.093 -0.3884 -0.7792 -0.6262
  154OSM    C8F17207   4.443   5.239   3.301  0.1150  0.1735  0.3820
  154OSM    H8F17208   4.463   5.138   3.344  1.5950 -0.2351 -1.1534
  154OSM    H8G17209   4.349   5.280   3.343 -0.3110 -2.5336  2.4212
  154OSM    C9F17210   4.549   5.345   3.340 -0.2024  0.3508  0.0438
  154OSM    H9F17211   4.621   5.372   3.261  1.5311 -0.8002  1.1754
  154OSM   C10F17212   4.573   5.395   3.462  0.3415  1.0978 -0.4790
  154OSM   H10F17213   4.656   5.465   3.477  1.5105 -0.7689  2.7869
  154OSM   C11F17214   4.487   5.358   3.577 -0.1325  0.3685 -0.2794
  154OSM   H11F17215   4.404   5.288   3.554  1.3882 -1.3300 -0.8050
  154OSM   H11G17216   4.448   5.450   3.627  2.3510  1.1912  0.2934
  154OSM   C12F17217   4.568   5.289   3.688  0.1164  0.1516 -0.2726
  154OSM   H12F17218   4.641   5.360   3.731 -0.1264 -0.8320  1.9175
  154OSM   H12G17219   4.613   5.194   3.651 -0.7335 -0.0378 -0.8736
  154OSM   C13F17220   4.480   5.228   3.798 -0.2195  0.4681  0.3129
  154OSM   H13F17221   4.393   5.169   3.762 -0.8458  2.9206 -2.6726
  154OSM   H13G17222   4.432   5.308   3.860 -0.6639  0.9416 -0.6245
  154OSM   C14F17223   4.553   5.139   3.901  0.1737 -0.2751 -0.6360
  154OSM   H14F17224   4.627   5.208   3.948  1.3952 -2.4742  0.8829
  154OSM   H14G17225   4.592   5.047   3.853 -0.2595 -0.3551 -0.8405
  154OSM   C15F17226   4.456   5.110   4.019 -0.4293  1.3717 -0.0683
  154OSM   H15F17227   4.389   5.028   3.987  3.1376 -1.1349 -1.7791
  154OSM   H15G17228   4.392   5.197   4.042 -0.6403  0.9479  0.9662
  154OSM   C16F17229   4.526   5.098   4.160  0.4696 -0.2084 -1.0400
  154OSM   H16F17230   4.441   5.077   4.229  0.8386  1.4834 -0.0186
  154OSM   H16G17231   4.569   5.197   4.184 -0.2267  0.4889 -2.5343
  154OSM   C17F17232   4.627   4.975   4.164 -0.3541 -0.4880 -0.2649
  154OSM   H17F17233   4.654   4.961   4.271 -0.5272 -0.8324 -0.2640
  154OSM   H17G17234   4.718   4.999   4.105  0.0114 -1.1860 -0.0015
  154OSM   C18F17235   4.553   4.843   4.127  0.0668 -0.4117  0.2451
  154OSM   H18F17236   4.619   4.756   4.146  1.8912  1.2725  2.1686
  154OSM   H18G17237   4.528   4.845   4.018  0.6714 -0.6068  0.1018
  154OSM   H18H17238   4.452   4.843   4.173  0.1690  2.0666  0.6461
  155OSM      N17239   6.826   5.011   1.491 -0.2998 -0.1347  0.7018
  155OSM    C1517240   6.739   5.123   1.441  0.3948  0.3986 -0.4061
  155OSM   H15A17241   6.682   5.159   1.526  1.0609 -0.4090  0.4022
  155OSM   H15B17242   6.661   5.083   1.377 -0.7759 -0.6580  1.5807
  155OSM   H15C17243   6.787   5.212   1.403  0.5913  0.0985 -0.8692
  155OSM    C1417244   6.748   4.880   1.515  0.4504  0.1678  0.5957
  155OSM   H14A17245   6.697   4.854   1.423 -0.4161 -1.8539  1.5713
  155OSM   H14B17246   6.686   4.888   1.602 -0.4875 -1.3732  0.1200
  155OSM   H14C17247   6.824   4.806   1.537  1.5010  1.2076  0.5675
  155OSM    C1317248   6.929   4.985   1.388  0.0392 -0.9374 -0.3717
  155OSM   H13A17249   6.979   4.892   1.410  0.6942 -1.1312 -2.4739
  155OSM   H13B17250   7.001   5.065   1.378 -0.1441 -0.9079 -1.4673
  155OSM   H13C17251   6.886   4.968   1.291  1.5747  1.2968 -1.5512
  155OSM    C1217252   6.896   5.053   1.615 -0.5167 -0.2643 -0.2150
  155OSM   H12A17253   6.972   5.126   1.590 -3.9910  3.4327 -1.2524
  155OSM   H12B17254   6.939   4.961   1.651 -1.2225 -0.4478  0.1817
  155OSM    C1117255   6.816   5.100   1.742 -0.2235 -0.2868  1.1015
  155OSM   H11A17256   6.750   5.185   1.716  0.9710  1.0344  2.2366
  155OSM   H11B17257   6.890   5.137   1.816 -0.3969 -1.1549  1.7365
  155OSM      P17258   6.806   4.882   1.884 -0.0539 -0.3504  0.1375
  155OSM    O1317259   6.702   4.787   1.923  0.0202 -0.7116 -0.0901
  155OSM    O1417260   6.917   4.830   1.800 -0.3502 -0.3496 -0.1781
  155OSM    O1117261   6.878   4.953   2.007 -0.0458  0.2791 -0.5543
  155OSM    O1217262   6.736   5.000   1.804  0.0305  0.4041  1.0265
  155OSM    C1S17263   6.837   5.066   2.078  0.0416 -0.2376 -0.4550
  155OSM    H1S17264   6.738   5.101   2.041  1.2478  0.8326 -2.8809
  155OSM    H1T17265   6.903   5.154   2.062  0.4563 -0.4983 -0.2094
  155OSM     NF17266   6.718   5.127   2.285 -0.1747  0.3213  0.0219
  155OSM    HNF17267   6.738   5.211   2.334 -3.5056  2.1096 -1.3725
  155OSM    C2S17268   6.830   5.048   2.235 -0.2167  0.4011  0.0284
  155OSM    H2S17269   6.798   4.943   2.248 -1.6305  1.0960  3.1925
  155OSM    C3S17270   6.979   5.076   2.283  0.2320  0.0931 -0.4797
  155OSM    H3S17271   7.018   5.169   2.237  1.0345 -0.5855 -1.1925
  155OSM     O317272   7.060   4.976   2.226  0.2238  0.3892  0.0199
  155OSM    HO317273   6.997   4.942   2.162  1.7661 -0.9092 -0.8829
  155OSM    C4S17274   6.998   5.084   2.435 -0.4183  0.4384  0.1661
  155OSM    H4S17275   7.005   5.188   2.471 -1.5458 -0.1922  2.3669
  155OSM    C5S17276   7.027   4.980   2.521 -0.4311 -0.0191 -0.3217
  155OSM    H5S17277   7.050   4.883   2.475 -2.2504  0.2066 -1.8226
  155OSM    C6S17278   7.047   4.982   2.671  0.2469  0.0703  0.5228
  155OSM    H6S17279   7.153   4.953   2.691  0.0718 -2.2675 -1.5319
  155OSM    H6T17280   6.981   4.904   2.715  2.1457 -2.0940 -0.2074
  155OSM    C7S17281   6.996   5.111   2.748 -0.2819  0.3210  0.1581
  155OSM    H7S17282   6.895   5.145   2.716 -0.5222 -0.1566  0.4034
  155OSM    H7T17283   7.050   5.197   2.703 -2.0280  1.3600 -0.0408
  155OSM    C8S17284   7.026   5.099   2.897  0.0962  0.5769 -0.1666
  155OSM    H8S17285   7.136   5.082   2.895  0.1238  0.6113 -2.3703
  155OSM    H8T17286   6.968   5.013   2.936 -1.2781  2.2579  1.7031
  155OSM    C9S17287   6.998   5.226   2.967 -0.0497 -1.1852 -0.7665
  155OSM    H9S17288   6.897   5.269   2.948  0.9072  0.6185 -2.0370
  155OSM    H9T17289   7.067   5.307   2.933  0.1485  0.4893  3.1340
  155OSM   C10S17290   7.028   5.213   3.122 -0.2158 -0.1389  0.0374
  155OSM   H10S17291   7.133   5.179   3.134 -0.5587 -1.4096 -0.3568
  155OSM   H10T17292   6.966   5.132   3.166 -0.7412  0.3298  0.1780
  155OSM   C11S17293   7.021   5.344   3.194 -0.1555 -0.4255 -0.2294
  155OSM   H11S17294   6.920   5.385   3.175 -0.4669 -0.9757  0.2204
  155OSM   H11T17295   7.100   5.416   3.163  0.3773 -1.7813 -2.1763
  155OSM   C12S17296   7.044   5.325   3.349 -0.3003  0.7306  0.7070
  155OSM   H12S17297   7.150   5.322   3.382 -0.3278  1.1763  0.8322
  155OSM   H12T17298   7.001   5.226   3.377 -0.8708  0.3648 -1.3111
  155OSM   C13S17299   6.972   5.419   3.443 -0.1027  1.1754 -0.2720
  155OSM   H13S17300   6.864   5.401   3.428 -0.0003  0.7898 -0.5824
  155OSM   H13T17301   6.989   5.525   3.414  1.5216  0.6754 -1.3401
  155OSM   C14S17302   7.019   5.410   3.591 -0.5310  0.4839  0.2596
  155OSM   H14S17303   7.127   5.434   3.579 -0.0268 -1.0785  1.3697
  155OSM   H14T17304   7.016   5.310   3.639 -1.0534  0.6587  0.5997
  155OSM   C15S17305   6.947   5.499   3.678  0.4470  0.4193  0.5356
  155OSM   H15S17306   6.976   5.470   3.782 -2.3144 -1.1120  0.9606
  155OSM   H15T17307   6.839   5.477   3.667  1.0186 -3.1890  1.0061
  155OSM   C16S17308   6.972   5.652   3.655 -0.5051  0.0417  0.7842
  155OSM   H16S17309   6.899   5.702   3.589 -1.7643 -0.0445  2.0563
  155OSM   H16T17310   7.076   5.666   3.618  0.2611 -3.9355  0.9144
  155OSM   C17S17311   6.954   5.724   3.792  0.3187 -0.2495 -0.2938
  155OSM   H17S17312   7.043   5.683   3.843 -0.2001 -1.3843 -0.2790
  155OSM   H17T17313   6.863   5.694   3.849 -0.5012  2.7988  0.2322
  155OSM   C18S17314   6.962   5.884   3.789 -0.0979  0.1867 -0.7892
  155OSM   H18S17315   6.981   5.913   3.895 -0.0830 -2.4761 -0.0071
  155OSM   H18T17316   6.863   5.917   3.750 -1.1334 -1.9207 -0.1059
  155OSM   H18U17317   7.051   5.910   3.727  0.5688 -0.2001 -0.0175
  155OSM    C1F17318   6.593   5.097   2.261  0.2259 -0.2097  0.4402
  155OSM     OF17319   6.556   5.015   2.182  0.3630  0.2475 -0.2448
  155OSM    C2F17320   6.492   5.180   2.334 -0.4358 -0.1280 -0.1698
  155OSM    H2F17321   6.411   5.201   2.259 -1.3682  0.9721  1.0918
  155OSM    H2G17322   6.534   5.281   2.356 -2.4176  0.9979 -1.1318
  155OSM    C3F17323   6.441   5.096   2.449 -0.2960  0.8555 -0.9319
  155OSM    H3F17324   6.408   4.996   2.414  1.6842 -0.4325  0.6245
  155OSM    H3G17325   6.358   5.146   2.503 -0.0897  0.0371  0.1748
  155OSM    C4F17326   6.545   5.059   2.561  0.0606  0.1429 -0.3817
  155OSM    H4F17327   6.568   5.162   2.596  0.4999 -0.5273  1.4069
  155OSM    H4G17328   6.633   5.012   2.513  0.1870  0.4914 -0.4917
  155OSM    C5F17329   6.497   4.978   2.688 -0.5075 -0.2814 -0.6506
  155OSM    H5F17330   6.485   4.871   2.662 -0.2710 -0.8292  1.3446
  155OSM    H5G17331   6.396   5.022   2.704 -0.6288 -0.2189 -1.5090
  155OSM    C6F17332   6.596   5.012   2.809  0.3978  0.0366  0.3603
  155OSM    H6F17333   6.578   5.118   2.835  1.6921  0.5339 -0.6845
  155OSM    H6G17334   6.699   5.004   2.768  0.0903  1.5484 -0.7803
  155OSM    C7F17335   6.578   4.921   2.927  0.4011  0.3359 -0.0365
  155OSM    H7F17336   6.572   4.822   2.879  0.9022  0.8093 -1.1103
  155OSM    H7G17337   6.483   4.940   2.982  1.2841  0.0954  1.6402
  155OSM    C8F17338   6.695   4.933   3.018 -0.4449  0.2640 -1.3092
  155OSM    H8F17339   6.723   5.039   3.038 -0.5003  0.0763 -0.1356
  155OSM    H8G17340   6.788   4.892   2.973  0.1098 -0.7439  0.6040
  155OSM    C9F17341   6.676   4.847   3.142 -0.1656  0.2946 -0.3157
  155OSM    H9F17342   6.662   4.744   3.109  1.3358  0.0382 -0.2120
  155OSM   C10F17343   6.684   4.884   3.266 -0.2176 -0.4036 -0.0146
  155OSM   H10F17344   6.681   4.808   3.346 -0.9955 -1.3358 -0.8885
  155OSM   C11F17345   6.714   5.028   3.304 -0.4554 -0.4101  0.0959
  155OSM   H11F17346   6.623   5.089   3.319 -0.7785 -0.8042 -0.2565
  155OSM   H11G17347   6.776   5.080   3.228  0.5975 -1.7504 -0.0058
  155OSM   C12F17348   6.782   5.029   3.445 -0.2414 -0.7433  0.1539
  155OSM   H12F17349   6.814   5.135   3.454  3.4119 -1.6702 -0.4810
  155OSM   H12G17350   6.877   4.972   3.440  2.7271  3.7489 -0.5071
  155OSM   C13F17351   6.680   5.002   3.562 -0.3216  0.1596 -0.0971
  155OSM   H13F17352   6.650   4.895   3.558 -0.8195  0.2459  0.8972
  155OSM   H13G17353   6.588   5.058   3.536 -0.0523  1.4474  1.5535
  155OSM   C14F17354   6.722   5.038   3.699  0.4612 -0.3364  0.1473
  155OSM   H14F17355   6.635   5.034   3.768  1.2084 -1.9292  1.0471
  155OSM   H14G17356   6.764   5.141   3.692  0.6343 -0.5201 -3.1158
  155OSM   C15F17357   6.814   4.931   3.759 -0.3651  0.7266 -0.1531
  155OSM   H15F17358   6.914   4.921   3.710  0.6042  0.3674  1.7900
  155OSM   H15G17359   6.768   4.830   3.759  1.2564 -0.0496 -0.3933
  155OSM   C16F17360   6.840   4.962   3.912 -0.1728  0.2326 -0.4633
  155OSM   H16F17361   6.742   4.982   3.960 -0.7673  0.1855 -1.6420
  155OSM   H16G17362   6.892   5.060   3.919  0.3910  0.1158 -2.5477
  155OSM   C17F17363   6.915   4.854   3.981 -0.1580 -0.0766 -0.2780
  155OSM   H17F17364   7.015   4.844   3.935  0.0963 -0.2474  0.3029
  155OSM   H17G17365   6.876   4.750   3.974 -3.7756  1.1702 -0.9214
  155OSM   C18F17366   6.942   4.894   4.121  0.6288  0.4495 -0.1683
  155OSM   H18F17367   6.991   4.994   4.119  1.1441  0.2123  0.1770
  155OSM   H18G17368   7.005   4.818   4.172  1.5669  0.5870 -1.0926
  155OSM   H18H17369   6.841   4.892   4.167  0.3224  1.0125 -0.8074
  156OSM      N17370   1.275   1.768   1.620  0.4576 -0.2275 -0.6083
  156OSM    C1517371   1.408   1.749   1.546  0.5088  0.0189  0.0426
  156OSM   H15A17372   1.437   1.645   1.544  2.2910  0.4907  0.2877
  156OSM   H15B17373   1.479   1.808   1.602 -1.3424  0.2657  2.2994
  156OSM   H15C17374   1.399   1.793   1.448 -2.2716  0.5209  0.4202
  156OSM    C1417375   1.185   1.653   1.572  0.5027 -0.5294  0.1429
  156OSM   H14A17376   1.174   1.576   1.647 -0.5211  0.2488  0.8184
  156OSM   H14B17377   1.235   1.601   1.491 -0.4254 -1.4647  0.1378
  156OSM   H14C17378   1.087   1.689   1.542  1.2078  0.3424 -1.2193
  156OSM    C1317379   1.292   1.736   1.764 -1.0007 -0.2327 -0.4935
  156OSM   H13A17380   1.352   1.650   1.792  0.5377 -0.1158 -3.1087
  156OSM   H13B17381   1.201   1.726   1.821  0.5445 -1.0056  2.0113
  156OSM   H13C17382   1.350   1.811   1.816 -0.3747 -0.4453 -0.8701
  156OSM    C1217383   1.211   1.903   1.586  0.1399  0.1010 -0.0755
  156OSM   H12A17384   1.210   1.910   1.479  1.0933 -3.2927 -0.4074
  156OSM   H12B17385   1.270   1.985   1.625 -0.7533  0.6271  0.2161
  156OSM    C1117386   1.063   1.931   1.639  0.2201  0.0575  0.5266
  156OSM   H11A17387   0.988   1.851   1.619 -0.9036  1.3406 -0.5771
  156OSM   H11B17388   1.027   2.019   1.582  1.6061 -1.2484 -2.5954
  156OSM      P17389   1.111   2.097   1.834 -0.5668  0.0839 -0.2497
  156OSM    O1317390   1.222   2.071   1.930 -0.1168  0.0319  0.0124
  156OSM    O1417391   1.145   2.193   1.718  0.0417  0.0149 -0.4293
  156OSM    O1117392   0.992   2.154   1.918  0.0439 -0.4077 -0.1755
  156OSM    O1217393   1.056   1.955   1.780 -0.5741  0.3944 -0.1465
  156OSM    C1S17394   0.861   2.091   1.936  0.1794  0.0079  0.6394
  156OSM    H1S17395   0.849   2.023   1.849  1.6095  0.3566  0.1414
  156OSM    H1T17396   0.782   2.168   1.923  0.9571  0.4917 -1.8079
  156OSM     NF17397   0.725   1.955   2.099  0.1446  0.5916  0.6046
  156OSM    HNF17398   0.649   2.001   2.144 -1.4236 -0.6898 -0.6270
  156OSM    C2S17399   0.850   2.026   2.078 -0.0204 -0.3494  0.2879
  156OSM    H2S17400   0.939   1.959   2.076  0.0199 -0.2996  0.4119
  156OSM    C3S17401   0.875   2.134   2.186  0.0200 -0.5769  0.5439
  156OSM    H3S17402   0.784   2.196   2.174 -0.8467 -1.7232  0.9742
  156OSM     O317403   0.994   2.217   2.170  0.3034 -0.6829 -0.2872
  156OSM    HO317404   1.018   2.200   2.078 -1.0723 -2.4021 -0.3856
  156OSM    C4S17405   0.887   2.083   2.324  0.0139 -0.0140 -0.9435
  156OSM    H4S17406   0.981   2.030   2.346  0.1513  0.4699 -0.3421
  156OSM    C5S17407   0.806   2.108   2.427 -0.3946  0.3490 -0.3923
  156OSM    H5S17408   0.724   2.180   2.416 -0.7144  0.2833  1.2122
  156OSM    C6S17409   0.822   2.057   2.563  0.0689  0.2680  0.0254
  156OSM    H6S17410   0.824   2.146   2.630  1.6574  2.7048 -2.9568
  156OSM    H6T17411   0.923   2.010   2.569  1.8774  3.8378  0.4851
  156OSM    C7S17412   0.706   1.959   2.605 -0.4478  0.1970  0.3182
  156OSM    H7S17413   0.702   1.877   2.530 -1.0854 -0.7292  1.3302
  156OSM    H7T17414   0.610   2.015   2.616  0.8034  2.1996  1.5843
  156OSM    C8S17415   0.736   1.880   2.731  0.5667 -0.0748  0.2982
  156OSM    H8S17416   0.821   1.810   2.719  3.5937  3.2779  0.2660
  156OSM    H8T17417   0.644   1.819   2.744  0.2244  0.6295  1.2696
  156OSM    C9S17418   0.767   1.975   2.848 -0.5617  0.3771 -0.1063
  156OSM    H9S17419   0.675   2.038   2.853 -1.1958 -0.4844 -0.6483
  156OSM    H9T17420   0.856   2.035   2.821 -0.0469  0.0530  0.8343
  156OSM   C10S17421   0.784   1.901   2.982 -0.0784 -0.0055  0.9240
  156OSM   H10S17422   0.892   1.872   2.985 -0.1765 -0.5218 -0.0860
  156OSM   H10T17423   0.713   1.815   2.987  0.7823 -0.7573  0.5453
  156OSM   C11S17424   0.745   1.996   3.095 -0.2096  0.4163  0.1337
  156OSM   H11S17425   0.637   2.019   3.084 -0.4380 -1.5613 -2.9076
  156OSM   H11T17426   0.803   2.091   3.099 -1.8649  1.4227  1.9736
  156OSM   C12S17427   0.753   1.939   3.238 -0.8158  0.2720 -0.6019
  156OSM   H12S17428   0.855   1.902   3.261 -1.1377  1.1569  2.7205
  156OSM   H12T17429   0.685   1.852   3.248  0.3175 -0.3422  3.3555
  156OSM   C13S17430   0.714   2.046   3.344  0.2198  0.4351 -0.0749
  156OSM   H13S17431   0.623   2.099   3.308  1.1955  0.8224 -2.1347
  156OSM   H13T17432   0.793   2.122   3.365 -0.6311  1.1382  0.6514
  156OSM   C14S17433   0.671   1.987   3.484 -0.4004  0.1323  0.2035
  156OSM   H14S17434   0.603   1.904   3.455  0.7904 -0.6562 -0.4041
  156OSM   H14T17435   0.611   2.068   3.532 -0.5044  1.9274 -2.7070
  156OSM   C15S17436   0.783   1.928   3.561  0.8003 -0.4170  0.6311
  156OSM   H15S17437   0.841   2.008   3.611 -1.9154  1.2664  1.2699
  156OSM   H15T17438   0.848   1.856   3.506 -1.0202  0.1630 -2.5185
  156OSM   C16S17439   0.721   1.843   3.675 -0.1733  0.4875 -0.0938
  156OSM   H16S17440   0.664   1.758   3.632 -0.0577  0.3789 -0.0345
  156OSM   H16T17441   0.644   1.908   3.722  1.3703  2.0706  0.3957
  156OSM   C17S17442   0.827   1.787   3.771 -0.2065 -0.4179 -0.0597
  156OSM   H17S17443   0.889   1.874   3.802  2.3009 -1.5142 -1.6351
  156OSM   H17T17444   0.899   1.726   3.713  1.1023  0.5258  0.5334
  156OSM   C18S17445   0.787   1.702   3.892 -0.6535  0.8024  0.0119
  156OSM   H18S17446   0.717   1.759   3.956 -2.0452 -0.4480 -0.3495
  156OSM   H18T17447   0.883   1.671   3.941 -1.3070 -0.8871  0.2793
  156OSM   H18U17448   0.729   1.612   3.864  0.6133 -0.4529  1.2057
  156OSM    C1F17449   0.689   1.843   2.039  1.1302  0.8121  0.2282
  156OSM     OF17450   0.757   1.794   1.949  0.2011  0.3843 -0.2766
  156OSM    C2F17451   0.560   1.786   2.083  0.0179  0.3261 -0.1289
  156OSM    H2F17452   0.530   1.714   2.003  0.1595 -0.7960  0.7941
  156OSM    H2G17453   0.480   1.859   2.106 -2.2494 -1.8968 -0.4912
  156OSM    C3F17454   0.591   1.703   2.209 -0.3854 -0.3061 -0.5029
  156OSM    H3F17455   0.642   1.770   2.281  0.8774 -0.1380 -1.5225
  156OSM    H3G17456   0.668   1.625   2.193  0.3505  0.3463 -0.1865
  156OSM    C4F17457   0.475   1.638   2.273 -0.0679  0.7126 -0.3241
  156OSM    H4F17458   0.518   1.545   2.315  1.0590  1.7506  0.9221
  156OSM    H4G17459   0.395   1.606   2.202 -1.6578  0.9947  1.2618
  156OSM    C5F17460   0.425   1.715   2.396 -0.3068  0.1925  0.2430
  156OSM    H5F17461   0.342   1.784   2.368  0.9923  2.1090  0.9439
  156OSM    H5G17462   0.498   1.790   2.432 -0.4244  2.3880 -3.5958
  156OSM    C6F17463   0.380   1.633   2.519 -0.2859  0.7450  0.0767
  156OSM    H6F17464   0.469   1.580   2.559  0.9780  1.5313 -1.5742
  156OSM    H6G17465   0.306   1.555   2.490  0.6788 -0.2577  0.2739
  156OSM    C7F17466   0.310   1.724   2.627 -0.0520  0.4163 -0.3986
  156OSM    H7F17467   0.251   1.793   2.564 -1.5045 -0.1466  0.3030
  156OSM    H7G17468   0.385   1.786   2.680  0.1564  0.6376 -0.9391
  156OSM    C8F17469   0.219   1.651   2.727  0.2327  0.0633  0.4452
  156OSM    H8F17470   0.166   1.565   2.681 -0.0919  1.0117 -1.0571
  156OSM    H8G17471   0.140   1.720   2.765  0.3142 -0.7160  2.0924
  156OSM    C9F17472   0.312   1.598   2.834 -0.1403 -0.0284  0.2357
  156OSM    H9F17473   0.419   1.593   2.809 -0.5409 -0.4530 -1.5389
  156OSM   C10F17474   0.276   1.559   2.953 -0.0752  0.2282  0.2064
  156OSM   H10F17475   0.351   1.511   3.017 -0.5130  0.5981  1.0245
  156OSM   C11F17476   0.136   1.560   2.996 -0.0204  0.5055  0.4241
  156OSM   H11F17477   0.073   1.476   2.961  3.0116 -1.0673 -1.6286
  156OSM   H11G17478   0.091   1.656   2.960  1.0394  0.8631  0.0335
  156OSM   C12F17479   0.146   1.560   3.147  0.1541 -0.4325  0.8154
  156OSM   H12F17480   0.215   1.642   3.176  0.0694  0.3678 -1.1501
  156OSM   H12G17481   0.185   1.464   3.186  2.9497 -0.3167 -1.4066
  156OSM   C13F17482   0.016   1.595   3.226  0.8956 -0.2157  0.3421
  156OSM   H13F17483  -0.052   1.644   3.152  0.6356 -1.1625 -0.0529
  156OSM   H13G17484   0.030   1.671   3.306  0.6378  0.7049 -0.4562
  156OSM   C14F17485  -0.048   1.465   3.283 -0.2537 -0.5088  0.0924
  156OSM   H14F17486   0.030   1.402   3.331 -0.2498 -1.1112 -0.6743
  156OSM   H14G17487  -0.092   1.405   3.200  1.6845  1.1397 -2.2582
  156OSM   C15F17488  -0.148   1.507   3.394  0.2354  0.0235  0.2806
  156OSM   H15F17489  -0.234   1.561   3.349 -1.0736 -2.9740 -1.0568
  156OSM   H15G17490  -0.109   1.583   3.465 -4.0852 -0.0860  3.1444
  156OSM   C16F17491  -0.179   1.386   3.479  0.3398  0.2230 -0.0979
  156OSM   H16F17492  -0.206   1.304   3.408  2.3733 -0.9645  0.4078
  156OSM   H16G17493  -0.258   1.402   3.555  0.0089 -1.4459 -0.0494
  156OSM   C17F17494  -0.067   1.342   3.573  0.0645 -0.4379  0.0450
  156OSM   H17F17495  -0.043   1.433   3.630  0.4565 -0.5118 -0.0011
  156OSM   H17G17496   0.023   1.316   3.513 -0.9928  0.8038 -2.2073
  156OSM   C18F17497  -0.099   1.236   3.674  0.2659  0.1529 -0.5365
  156OSM   H18F17498  -0.124   1.140   3.623  1.0072  0.4694 -1.5164
  156OSM   H18G17499  -0.192   1.277   3.719  1.4912  1.5960  0.7681
  156OSM   H18H17500  -0.024   1.221   3.756  0.9999  0.1281 -1.2027
  157OSM      N17501   0.774   3.467   2.286 -0.1642  0.6020 -0.8299
  157OSM    C1517502   0.822   3.584   2.373  0.3077  0.3321  0.5722
  157OSM   H15A17503   0.750   3.665   2.376 -0.2139 -0.1667  2.4859
  157OSM   H15B17504   0.916   3.630   2.346  0.6794 -0.1233  1.0850
  157OSM   H15C17505   0.846   3.550   2.472  1.9986 -0.5327 -0.0976
  157OSM    C1417506   0.747   3.502   2.148  0.0778  0.2987  0.1639
  157OSM   H14A17507   0.704   3.417   2.098  1.7514 -0.9418  0.7217
  157OSM   H14B17508   0.831   3.548   2.097  0.0190  1.5668  1.1555
  157OSM   H14C17509   0.668   3.575   2.146  0.5635  0.9280  1.7901
  157OSM    C1317510   0.888   3.365   2.278 -0.4377  0.5322  0.1615
  157OSM   H13A17511   0.932   3.330   2.370  2.0762 -0.6496 -1.3750
  157OSM   H13B17512   0.976   3.412   2.236 -0.6383  1.3839  0.6529
  157OSM   H13C17513   0.855   3.275   2.229  0.1123  0.3785  0.0634
  157OSM    C1217514   0.656   3.397   2.348 -0.3770  0.2570 -0.3158
  157OSM   H12A17515   0.680   3.361   2.447  2.8280  0.4524 -0.9200
  157OSM   H12B17516   0.628   3.307   2.294  0.1058 -0.2586  0.2770
  157OSM    C1117517   0.524   3.478   2.358  0.4037  0.6858  0.3874
  157OSM   H11A17518   0.538   3.573   2.412  0.3545  0.1581  1.3541
  157OSM   H11B17519   0.446   3.427   2.418  1.9620 -2.8321 -0.3158
  157OSM      P17520   0.362   3.396   2.167 -0.2755 -0.1258  0.2559
  157OSM    O1317521   0.373   3.416   2.016  0.4057 -0.2281 -0.5347
  157OSM    O1417522   0.390   3.255   2.206 -0.5011  0.0307  0.3181
  157OSM    O1117523   0.218   3.440   2.209  0.5497 -0.0390  0.3471
  157OSM    O1217524   0.465   3.502   2.231 -0.0155 -0.5756 -0.2221
  157OSM    C1S17525   0.167   3.447   2.348  0.1942  0.4920  0.3432
  157OSM    H1S17526   0.185   3.549   2.387  0.2873  0.6552 -0.1184
  157OSM    H1T17527   0.213   3.371   2.415 -1.0433 -1.8632 -1.3169
  157OSM     NF17528  -0.020   3.512   2.483  0.1607 -0.1346  0.3269
  157OSM    HNF17529  -0.010   3.462   2.569  1.2194  1.7990  1.3827
  157OSM    C2S17530   0.010   3.440   2.357  0.1386 -0.5277 -0.2919
  157OSM    H2S17531  -0.034   3.502   2.276 -1.0776 -0.3361  0.5031
  157OSM    C3S17532  -0.043   3.293   2.341 -0.0643 -0.6770 -0.1274
  157OSM    H3S17533   0.005   3.227   2.417  0.7422  0.9690  0.8283
  157OSM     O317534  -0.013   3.233   2.216  0.5927  0.3502  0.3540
  157OSM    HO317535   0.047   3.295   2.176 -0.2373  1.2566  0.4712
  157OSM    C4S17536  -0.195   3.278   2.362 -0.3491 -0.3016 -0.2117
  157OSM    H4S17537  -0.263   3.291   2.276 -0.5154  0.1125 -0.0193
  157OSM    C5S17538  -0.244   3.231   2.474  0.6000 -0.2273 -0.0093
  157OSM    H5S17539  -0.175   3.194   2.551 -2.4783  0.3224  3.2923
  157OSM    C6S17540  -0.383   3.195   2.503 -0.0439  0.1770  0.9388
  157OSM    H6S17541  -0.374   3.139   2.599  2.2361 -2.2976 -0.5685
  157OSM    H6T17542  -0.413   3.123   2.423 -1.3977 -0.4938  1.9929
  157OSM    C7S17543  -0.472   3.321   2.512 -0.7730  0.0477  0.0732
  157OSM    H7S17544  -0.573   3.278   2.529 -0.3778 -0.9092  0.0944
  157OSM    H7T17545  -0.458   3.383   2.421  1.8201 -1.8715 -0.9730
  157OSM    C8S17546  -0.437   3.413   2.630  0.2832  0.3916  0.2005
  157OSM    H8S17547  -0.337   3.461   2.623 -0.6523  2.4282 -0.1169
  157OSM    H8T17548  -0.426   3.342   2.714 -5.2851 -0.9222  0.2081
  157OSM    C9S17549  -0.550   3.512   2.669  0.6268 -0.5720 -0.3732
  157OSM    H9S17550  -0.647   3.460   2.665  0.8727 -0.9692 -1.6661
  157OSM    H9T17551  -0.554   3.594   2.594  0.2986 -1.3891 -1.2688
  157OSM   C10S17552  -0.519   3.571   2.809 -0.0081  0.1191  0.2943
  157OSM   H10S17553  -0.590   3.653   2.833 -0.7771 -0.8419  1.4205
  157OSM   H10T17554  -0.416   3.614   2.815  0.3436 -0.9228  2.7528
  157OSM   C11S17555  -0.530   3.466   2.929 -0.4742 -0.6424 -0.5768
  157OSM   H11S17556  -0.462   3.380   2.913 -0.3727 -0.4533 -1.1734
  157OSM   H11T17557  -0.630   3.418   2.925 -0.5791 -0.9843  2.9904
  157OSM   C12S17558  -0.513   3.532   3.072  0.5590  0.2419  0.1727
  157OSM   H12S17559  -0.586   3.616   3.078  0.1702 -0.1381  1.1792
  157OSM   H12T17560  -0.409   3.570   3.080  1.1617 -1.4541  0.9619
  157OSM   C13S17561  -0.540   3.434   3.187 -0.2842  0.2143 -0.6773
  157OSM   H13S17562  -0.456   3.361   3.182 -0.1097  0.4017 -0.5269
  157OSM   H13T17563  -0.641   3.396   3.164  0.3920 -3.4702  1.5493
  157OSM   C14S17564  -0.542   3.505   3.320 -0.3670  0.4612 -0.1441
  157OSM   H14S17565  -0.621   3.583   3.329  1.1120  1.9423  0.6474
  157OSM   H14T17566  -0.448   3.563   3.336  0.8677 -1.2950 -0.7455
  157OSM   C15S17567  -0.556   3.400   3.438 -0.4712  0.2277  0.2693
  157OSM   H15S17568  -0.478   3.324   3.416 -0.1414 -0.3594  3.0492
  157OSM   H15T17569  -0.657   3.354   3.428 -0.0859 -0.2978 -1.6477
  157OSM   C16S17570  -0.521   3.470   3.564  0.6801 -0.0332  0.1482
  157OSM   H16S17571  -0.558   3.574   3.554 -0.2314 -0.2734  0.8530
  157OSM   H16T17572  -0.410   3.473   3.573  0.6923  0.2473 -0.0784
  157OSM   C17S17573  -0.573   3.390   3.689 -0.1874  0.3101 -0.4761
  157OSM   H17S17574  -0.605   3.290   3.655 -0.7847  0.5012 -0.4894
  157OSM   H17T17575  -0.663   3.433   3.737  0.2010  0.6327 -0.0199
  157OSM   C18S17576  -0.475   3.384   3.808 -0.2250 -0.6027  0.3524
  157OSM   H18S17577  -0.524   3.343   3.900 -0.6418  0.3710  0.5810
  157OSM   H18T17578  -0.457   3.490   3.835 -0.2245 -0.4290 -0.3140
  157OSM   H18U17579  -0.386   3.322   3.786  0.2069  0.4553 -1.0423
  157OSM    C1F17580  -0.056   3.644   2.486 -0.7280 -1.1076 -0.4923
  157OSM     OF17581  -0.040   3.713   2.384 -0.1509 -0.1562  0.4861
  157OSM    C2F17582  -0.135   3.690   2.609 -0.0531  0.6189 -0.3423
  157OSM    H2F17583  -0.103   3.621   2.690  1.2496 -0.1089 -1.4319
  157OSM    H2G17584  -0.244   3.685   2.588 -0.2285  1.0457  0.4062
  157OSM    C3F17585  -0.110   3.841   2.643 -0.0592  0.0135 -0.0956
  157OSM    H3F17586  -0.140   3.904   2.557 -2.6207  0.8324  1.2740
  157OSM    H3G17587  -0.002   3.863   2.655 -0.3416  0.0609  3.5185
  157OSM    C4F17588  -0.180   3.887   2.771 -0.1113  0.3613 -0.5582
  157OSM    H4F17589  -0.291   3.894   2.762 -0.2968  3.7163  2.2223
  157OSM    H4G17590  -0.163   3.996   2.784 -0.5333  0.2683  0.8987
  157OSM    C5F17591  -0.157   3.810   2.903 -0.2118 -0.1483 -0.4792
  157OSM    H5F17592  -0.046   3.802   2.904 -0.2617 -1.4269 -1.6140
  157OSM    H5G17593  -0.206   3.710   2.898  0.5956 -0.7110  1.7665
  157OSM    C6F17594  -0.214   3.883   3.018 -0.1391  0.6278 -0.7732
  157OSM    H6F17595  -0.324   3.872   3.024  0.0203 -0.3764  2.5254
  157OSM    H6G17596  -0.190   3.992   3.026  0.5243  0.4637 -0.3914
  157OSM    C7F17597  -0.157   3.814   3.153  0.2000 -0.0512  0.2935
  157OSM    H7F17598  -0.048   3.827   3.164  0.2133 -0.0419  0.1487
  157OSM    H7G17599  -0.185   3.707   3.160  2.6261 -0.6384  1.9799
  157OSM    C8F17600  -0.216   3.873   3.285  0.1403  0.1729 -0.7055
  157OSM    H8F17601  -0.185   3.790   3.352  1.2490  0.4384 -0.8577
  157OSM    H8G17602  -0.326   3.868   3.271  0.1654  1.9804 -1.8956
  157OSM    C9F17603  -0.172   4.010   3.324 -0.2567 -0.0249 -0.0206
  157OSM    H9F17604  -0.185   4.072   3.235  0.0694 -0.5916 -0.4652
  157OSM   C10F17605  -0.144   4.054   3.444  0.3948 -0.2400 -0.4889
  157OSM   H10F17606  -0.121   4.162   3.448  2.5290 -0.6465 -0.5195
  157OSM   C11F17607  -0.140   3.965   3.573 -0.3068 -1.0238  0.7901
  157OSM   H11F17608  -0.209   3.879   3.568 -0.5418 -0.9247  1.9980
  157OSM   H11G17609  -0.176   4.023   3.661 -2.0988 -0.6231 -0.1666
  157OSM   C12F17610   0.007   3.924   3.609 -0.4993 -0.3874 -0.0336
  157OSM   H12F17611   0.054   3.893   3.513  1.0901 -0.3265  0.6902
  157OSM   H12G17612   0.016   3.831   3.669 -0.1072 -0.7845 -0.6989
  157OSM   C13F17613   0.087   4.037   3.659  0.0030  0.2009 -0.2755
  157OSM   H13F17614   0.065   4.080   3.759  0.8402  1.7673 -0.7243
  157OSM   H13G17615   0.070   4.123   3.590  0.5972  0.4497 -0.1160
  157OSM   C14F17616   0.232   4.002   3.656  0.2669 -0.2058  0.1919
  157OSM   H14F17617   0.262   3.971   3.554  5.2695 -2.0223  1.9077
  157OSM   H14G17618   0.248   3.912   3.720  0.2431  0.0737  0.5944
  157OSM   C15F17619   0.309   4.125   3.720 -0.2666  0.1641  0.9862
  157OSM   H15F17620   0.261   4.136   3.819 -1.7177  1.1622  0.2102
  157OSM   H15G17621   0.288   4.215   3.659 -1.8037 -0.6648  0.2299
  157OSM   C16F17622   0.461   4.108   3.729 -0.0807  0.1489 -0.1688
  157OSM   H16F17623   0.498   4.136   3.628  2.0851  0.8087  0.7462
  157OSM   H16G17624   0.476   3.998   3.734 -0.1403  0.1769  0.8877
  157OSM   C17F17625   0.528   4.184   3.845 -0.1793  1.0823  0.3852
  157OSM   H17F17626   0.635   4.157   3.854 -0.5558 -1.6083 -1.9493
  157OSM   H17G17627   0.470   4.145   3.932  0.5901 -1.9313 -0.3715
  157OSM   C18F17628   0.520   4.332   3.832  0.5186 -0.7574 -0.5491
  157OSM   H18F17629   0.602   4.382   3.776  0.3199  0.7013  0.4063
  157OSM   H18G17630   0.504   4.366   3.936 -0.2203 -2.6479  0.0117
  157OSM   H18H17631   0.426   4.353   3.776 -0.0403 -3.4169 -0.7723
  158OSM      N17632   4.827   5.617   1.954  0.7123  1.0915 -0.0943
  158OSM    C1517633   4.707   5.535   1.925 -0.3239  0.4695 -0.3442
  158OSM   H15A17634   4.691   5.457   1.998  1.6571 -0.5954 -0.9705
  158OSM   H15B17635   4.713   5.473   1.837 -1.7278  0.1107 -0.2053
  158OSM   H15C17636   4.617   5.592   1.939 -0.3116  0.6474 -0.9680
  158OSM    C1417637   4.942   5.519   1.940 -0.5112  0.2326  0.8104
  158OSM   H14A17638   4.928   5.465   1.847  0.5044 -0.6724  1.1718
  158OSM   H14B17639   4.920   5.450   2.020 -0.9728 -0.8025 -0.1794
  158OSM   H14C17640   5.040   5.561   1.953 -0.5277  0.2681  0.8206
  158OSM    C1317641   4.843   5.722   1.850  0.0642  0.2641 -0.2588
  158OSM   H13A17642   4.772   5.803   1.860  0.3625  0.6442 -1.1831
  158OSM   H13B17643   4.849   5.685   1.749  0.7386  2.2160 -0.9740
  158OSM   H13C17644   4.935   5.776   1.863  0.2641 -0.0178 -0.5111
  158OSM    C1217645   4.825   5.670   2.096  0.5394  1.4400 -0.0012
  158OSM   H12A17646   4.827   5.581   2.158 -0.1490  1.9040  0.7189
  158OSM   H12B17647   4.729   5.717   2.114 -1.3639 -2.2172  0.2553
  158OSM    C1117648   4.938   5.756   2.142 -0.0742  0.1127  0.6615
  158OSM   H11A17649   5.039   5.718   2.115 -0.7988 -1.4926  0.0592
  158OSM   H11B17650   4.925   5.751   2.253  0.6119 -0.0648  0.7364
  158OSM      P17651   4.831   5.993   2.157 -0.3428  0.3254  0.1281
  158OSM    O1317652   4.848   6.121   2.084  0.0479  0.0050  0.4787
  158OSM    O1417653   4.692   5.929   2.154 -0.1080  0.3675 -0.3059
  158OSM    O1117654   4.868   5.996   2.311  0.1418 -0.1796 -0.0946
  158OSM    O1217655   4.941   5.894   2.088 -0.1486  0.4305 -0.0061
  158OSM    C1S17656   5.000   6.029   2.360 -0.3934  0.1639  0.2357
  158OSM    H1S17657   5.035   6.124   2.314 -2.2944 -0.3901 -2.7036
  158OSM    H1T17658   5.079   5.958   2.325  0.4254  1.6382 -1.0431
  158OSM     NF17659   5.141   6.115   2.547 -0.2088  0.0188  0.2622
  158OSM    HNF17660   5.197   6.045   2.590 -1.0567 -1.6843 -1.2581
  158OSM    C2S17661   5.012   6.057   2.510 -0.4332  0.3042 -0.4405
  158OSM    H2S17662   4.931   6.131   2.526 -0.1807  0.7138 -1.0118
  158OSM    C3S17663   4.979   5.931   2.593  0.2648  0.4951 -0.5001
  158OSM    H3S17664   5.057   5.855   2.575 -1.0713 -0.5452 -2.3228
  158OSM     O317665   4.858   5.859   2.552 -0.0896  0.1726 -0.1142
  158OSM    HO317666   4.830   5.912   2.478 -1.8026 -0.0900  0.3104
  158OSM    C4S17667   4.957   5.954   2.735  0.1629  0.0320  0.5033
  158OSM    H4S17668   4.859   5.996   2.762 -0.5223 -1.1459 -0.0400
  158OSM    C5S17669   5.047   5.921   2.831  0.0270 -0.1881 -0.8916
  158OSM    H5S17670   5.151   5.893   2.807  0.9301  2.7320 -0.7497
  158OSM    C6S17671   5.019   5.949   2.976  0.4817  0.7561 -0.1077
  158OSM    H6S17672   5.016   5.849   3.025  4.0582  0.5950  0.0679
  158OSM    H6T17673   4.914   5.986   2.980  0.6832  1.3090  0.2588
  158OSM    C7S17674   5.105   6.042   3.056  1.0915  0.1305 -0.4474
  158OSM    H7S17675   5.096   6.146   3.018  1.8186  0.4837  0.3248
  158OSM    H7T17676   5.213   6.034   3.033  0.7797 -0.8189 -1.7284
  158OSM    C8S17677   5.087   6.033   3.211  0.2617  0.0628 -0.7156
  158OSM    H8S17678   4.983   6.002   3.233  0.5745 -0.3803  0.1686
  158OSM    H8T17679   5.113   6.133   3.251  2.2092 -0.8631  0.4914
  158OSM    C9S17680   5.165   5.913   3.276 -0.0701 -1.0073  0.4415
  158OSM    H9S17681   5.273   5.936   3.264 -0.0362 -1.0642  0.6249
  158OSM    H9T17682   5.148   5.828   3.206 -0.1849 -1.6305  1.2030
  158OSM   C10S17683   5.119   5.877   3.420 -0.5366  0.6474  0.0542
  158OSM   H10S17684   5.163   5.779   3.448 -1.3040 -0.0993 -1.2723
  158OSM   H10T17685   5.011   5.885   3.444 -0.1298  2.3485  1.6105
  158OSM   C11S17686   5.168   5.984   3.524  0.4192  0.0440 -0.6471
  158OSM   H11S17687   5.140   6.085   3.488 -2.9469 -0.0898  1.1747
  158OSM   H11T17688   5.278   5.982   3.536  0.4361  3.9156  1.1487
  158OSM   C12S17689   5.095   5.966   3.657  0.2392 -0.2876  0.3922
  158OSM   H12S17690   5.107   5.867   3.705  1.7186 -0.9348 -1.2070
  158OSM   H12T17691   4.987   5.976   3.630  0.3810  1.1349  0.2814
  158OSM   C13S17692   5.143   6.071   3.757  0.1640  0.5067  0.3686
  158OSM   H13S17693   5.154   6.173   3.714  0.8151 -0.2114 -1.2497
  158OSM   H13T17694   5.241   6.040   3.798  0.0224 -0.2059  0.1794
  158OSM   C14S17695   5.050   6.085   3.876 -0.8325 -0.7894 -0.3663
  158OSM   H14S17696   5.030   5.984   3.919  2.6275 -2.7059 -2.7489
  158OSM   H14T17697   4.950   6.129   3.854  0.5107  2.2931 -0.7455
  158OSM   C15S17698   5.114   6.175   3.988  0.5088  0.0784 -0.2240
  158OSM   H15S17699   5.147   6.260   3.925 -0.5364  0.1621 -0.6949
  158OSM   H15T17700   5.199   6.136   4.048  1.9733  1.7452 -1.1164
  158OSM   C16S17701   5.008   6.213   4.098  0.0127 -0.0491  0.2998
  158OSM   H16S17702   4.921   6.264   4.051 -0.3795  0.2476  1.3279
  158OSM   H16T17703   5.059   6.284   4.166 -0.0748  1.8277 -1.4763
  158OSM   C17S17704   4.952   6.095   4.176 -0.9994  0.4414  0.4611
  158OSM   H17S17705   5.043   6.047   4.218 -0.8127 -0.8923 -1.3506
  158OSM   H17T17706   4.908   6.009   4.120 -2.8459  0.0277  2.3963
  158OSM   C18S17707   4.863   6.133   4.296 -0.3922  0.6186  0.0826
  158OSM   H18S17708   4.778   6.202   4.275  0.5013  1.0344 -2.6581
  158OSM   H18T17709   4.929   6.183   4.370  0.4438  1.6616 -1.3159
  158OSM   H18U17710   4.833   6.038   4.345  0.8797  1.1239  1.9832
  158OSM    C1F17711   5.181   6.232   2.511  0.4829 -0.2504  0.4871
  158OSM     OF17712   5.103   6.318   2.463  0.0526  0.1182 -0.2848
  158OSM    C2F17713   5.330   6.259   2.538  0.0521 -0.1606  0.2813
  158OSM    H2F17714   5.385   6.167   2.510 -0.9812 -0.8096  0.3235
  158OSM    H2G17715   5.346   6.300   2.640 -1.5555  0.6489  0.2412
  158OSM    C3F17716   5.398   6.363   2.440  0.0256  0.4744  0.4275
  158OSM    H3F17717   5.335   6.453   2.420  0.4565  0.9343  1.1143
  158OSM    H3G17718   5.400   6.311   2.342 -0.2610  1.8454 -0.3405
  158OSM    C4F17719   5.539   6.406   2.464 -0.0007  0.9471  0.3317
  158OSM    H4F17720   5.592   6.444   2.374  0.0877 -0.4733 -0.2484
  158OSM    H4G17721   5.595   6.315   2.492  1.1013  1.1600 -1.0591
  158OSM    C5F17722   5.547   6.513   2.567 -0.5741 -0.2263 -0.3083
  158OSM    H5F17723   5.479   6.509   2.654 -0.9466  1.3394 -0.4902
  158OSM    H5G17724   5.501   6.607   2.529 -1.2453 -0.6758 -0.6341
  158OSM    C6F17725   5.693   6.526   2.611 -0.2836 -0.0311 -0.2234
  158OSM    H6F17726   5.755   6.554   2.524 -2.0753  2.5837 -0.7744
  158OSM    H6G17727   5.738   6.435   2.656 -0.3096  0.0608 -0.0118
  158OSM    C7F17728   5.717   6.642   2.714 -0.3590  0.2566  0.1253
  158OSM    H7F17729   5.674   6.732   2.666  1.8720  0.7771 -1.0732
  158OSM    H7G17730   5.827   6.649   2.728 -0.3293 -1.4174  0.9205
  158OSM    C8F17731   5.665   6.606   2.851 -0.1670 -0.3732 -0.0249
  158OSM    H8F17732   5.564   6.559   2.849 -0.6585  0.6938 -1.1259
  158OSM    H8G17733   5.653   6.704   2.901 -1.1921 -0.0860 -0.8268
  158OSM    C9F17734   5.761   6.528   2.944 -0.3484  0.0358 -0.3606
  158OSM    H9F17735   5.773   6.422   2.915  1.3908 -0.1115  0.6814
  158OSM   C10F17736   5.836   6.585   3.045 -0.2747  0.3931  0.5571
  158OSM   H10F17737   5.900   6.516   3.102 -2.3642 -0.0633  2.4729
  158OSM   C11F17738   5.840   6.727   3.081 -0.0044  0.1948 -0.0118
  158OSM   H11F17739   5.778   6.790   3.013  0.1257 -0.2102 -0.5087
  158OSM   H11G17740   5.942   6.767   3.063  0.5742 -0.7193  1.1056
  158OSM   C12F17741   5.812   6.747   3.232 -0.1977 -0.2523  0.7208
  158OSM   H12F17742   5.835   6.853   3.255  0.7594  0.1832 -1.8965
  158OSM   H12G17743   5.882   6.684   3.291 -2.2588 -2.9051  0.5341
  158OSM   C13F17744   5.666   6.722   3.275  0.1767  0.4287  0.1336
  158OSM   H13F17745   5.647   6.613   3.272 -0.5618  0.4516  2.2330
  158OSM   H13G17746   5.601   6.769   3.197 -0.5370  1.3132  1.2287
  158OSM   C14F17747   5.630   6.767   3.415 -0.2629 -0.8223  0.2112
  158OSM   H14F17748   5.521   6.770   3.440 -0.1070  0.9694  0.7897
  158OSM   H14G17749   5.669   6.870   3.429 -1.6005  0.0755 -2.0562
  158OSM   C15F17750   5.700   6.685   3.528  0.6087  0.4037 -0.3707
  158OSM   H15F17751   5.808   6.709   3.528  0.6572  0.7021  3.4319
  158OSM   H15G17752   5.680   6.577   3.507 -0.0115  0.3284  0.5644
  158OSM   C16F17753   5.642   6.723   3.661 -0.2618 -0.0704 -0.0981
  158OSM   H16F17754   5.532   6.710   3.659 -0.6370  2.5470 -0.6577
  158OSM   H16G17755   5.681   6.827   3.672 -0.3808 -0.0196 -0.1559
  158OSM   C17F17756   5.689   6.642   3.782 -0.0812  0.0329  0.1724
  158OSM   H17F17757   5.800   6.650   3.779 -0.1299  1.0818 -3.0409
  158OSM   H17G17758   5.666   6.537   3.757 -1.5524 -0.1243  1.9489
  158OSM   C18F17759   5.636   6.704   3.911  0.3935  0.5642  0.2938
  158OSM   H18F17760   5.530   6.729   3.888  0.3978  2.4759  2.0294
  158OSM   H18G17761   5.692   6.798   3.930 -3.3231  3.1416 -0.5404
  158OSM   H18H17762   5.645   6.645   4.005 -1.4965  1.0169  0.8013
  159OSM      N17763   5.609   4.618   1.940 -0.2059 -0.0500  0.4064
  159OSM    C1517764   5.636   4.711   2.054  0.4053  0.0823 -0.8168
  159OSM   H15A17765   5.731   4.693   2.102  0.2556 -0.9064 -0.8696
  159OSM   H15B17766   5.570   4.701   2.139  1.2618 -0.7995 -0.2282
  159OSM   H15C17767   5.647   4.813   2.021 -0.4325  0.1891 -0.7930
  159OSM    C1417768   5.471   4.629   1.895  0.8860  0.3131 -0.2173
  159OSM   H14A17769   5.467   4.599   1.791  1.6186 -1.9293  0.3513
  159OSM   H14B17770   5.439   4.732   1.889 -1.4901 -0.4383 -3.0560
  159OSM   H14C17771   5.400   4.568   1.949  2.9731  1.8008  4.7329
  159OSM    C1317772   5.705   4.643   1.826  0.6255  0.7230  0.3633
  159OSM   H13A17773   5.706   4.744   1.789  0.9915  0.0813 -1.4740
  159OSM   H13B17774   5.669   4.588   1.740  1.9130  0.7853 -0.2305
  159OSM   H13C17775   5.805   4.609   1.849 -0.8418 -2.7925  2.3792
  159OSM    C1217776   5.635   4.475   1.988  0.1374 -0.2634  0.5486
  159OSM   H12A17777   5.585   4.404   1.922  0.7832  0.6668 -1.0004
  159OSM   H12B17778   5.579   4.467   2.080 -1.9473  0.6956 -0.5652
  159OSM    C1117779   5.775   4.421   2.002  0.2957  0.6622 -0.2709
  159OSM   H11A17780   5.749   4.330   2.059  1.2870  0.8600  0.5232
  159OSM   H11B17781   5.838   4.493   2.059  0.2037 -0.6413  1.5608
  159OSM      P17782   5.986   4.315   1.882  0.7011 -0.3918  0.2930
  159OSM    O1317783   5.969   4.182   1.827  0.3356  0.5931  0.5755
  159OSM    O1417784   6.076   4.409   1.812  0.3162 -0.0779  0.0972
  159OSM    O1117785   6.027   4.307   2.031 -0.0517  0.4422 -0.2562
  159OSM    O1217786   5.843   4.386   1.877  0.2041 -0.5386 -0.2137
  159OSM    C1S17787   6.137   4.213   2.061 -0.2006  0.2207  0.3988
  159OSM    H1S17788   6.231   4.231   2.006  0.0157  0.7490  0.9299
  159OSM    H1T17789   6.104   4.107   2.053 -1.5375  0.7466 -1.6484
  159OSM     NF17790   6.298   4.145   2.227 -0.2827  0.6790 -0.5364
  159OSM    HNF17791   6.284   4.056   2.271  0.7793  0.1830 -1.1614
  159OSM    C2S17792   6.179   4.226   2.206  0.4590 -0.8683 -0.1141
  159OSM    H2S17793   6.211   4.331   2.220  1.1047 -0.9094 -1.1487
  159OSM    C3S17794   6.053   4.188   2.300  0.6079  0.5185 -0.1388
  159OSM    H3S17795   6.026   4.083   2.275 -1.8393  1.0125  0.1467
  159OSM     O317796   5.937   4.268   2.273  0.4148 -1.2990 -0.0156
  159OSM    HO317797   5.950   4.295   2.182  0.8129  1.2193  0.7081
  159OSM    C4S17798   6.090   4.184   2.444 -0.6196 -0.2692  0.4007
  159OSM    H4S17799   6.131   4.085   2.469 -1.0663 -0.8016 -0.8842
  159OSM    C5S17800   6.100   4.288   2.531  0.2470 -0.0143  0.1786
  159OSM    H5S17801   6.084   4.393   2.503  1.9027  1.2446  3.4978
  159OSM    C6S17802   6.155   4.276   2.668 -0.5044 -0.2674  0.3912
  159OSM    H6S17803   6.098   4.340   2.739  1.1442 -0.1309  1.6510
  159OSM    H6T17804   6.250   4.332   2.673 -0.4336 -0.4802  3.1627
  159OSM    C7S17805   6.180   4.145   2.749 -0.1966  0.3794 -0.4975
  159OSM    H7S17806   6.270   4.084   2.723 -0.9906 -1.5999  1.1274
  159OSM    H7T17807   6.092   4.079   2.737 -3.3755  3.2593  4.0809
  159OSM    C8S17808   6.190   4.174   2.901 -0.1342 -0.0788 -0.0333
  159OSM    H8S17809   6.087   4.208   2.927 -0.4991 -0.9349 -0.3281
  159OSM    H8T17810   6.268   4.251   2.920  1.3872 -1.6979  0.6054
  159OSM    C9S17811   6.234   4.054   2.993  0.0587  0.4810  0.7762
  159OSM    H9S17812   6.324   4.005   2.951 -0.8302 -0.1005 -0.5036
  159OSM    H9T17813   6.160   3.972   2.988 -1.5013  1.8844 -0.7848
  159OSM   C10S17814   6.262   4.091   3.137 -0.2195  0.4498 -0.3013
  159OSM   H10S17815   6.167   4.138   3.168 -0.3247 -1.7538  3.2753
  159OSM   H10T17816   6.344   4.165   3.150 -0.5488  0.5304  1.5508
  159OSM   C11S17817   6.277   3.966   3.226  0.5039 -0.3480 -0.1605
  159OSM   H11S17818   6.344   3.896   3.173  0.8280  0.4322 -0.7916
  159OSM   H11T17819   6.174   3.927   3.244  0.5350  0.6404  2.8059
  159OSM   C12S17820   6.352   4.013   3.349 -0.0337  0.0668  0.2397
  159OSM   H12S17821   6.311   4.110   3.382 -2.4733  0.0713 -2.3914
  159OSM   H12T17822   6.462   4.018   3.331  0.1157  0.5566  1.2174
  159OSM   C13S17823   6.348   3.900   3.456 -0.1818 -0.2397  0.0374
  159OSM   H13S17824   6.362   3.802   3.407 -2.1301  0.9897 -3.3245
  159OSM   H13T17825   6.247   3.906   3.502  1.0474  2.0252  2.7587
  159OSM   C14S17826   6.433   3.929   3.582  0.0848  0.0481 -0.1756
  159OSM   H14S17827   6.540   3.908   3.559  0.0731  1.3132 -1.6070
  159OSM   H14T17828   6.419   3.853   3.662 -0.5592  0.9698  0.6057
  159OSM   C15S17829   6.433   4.077   3.632  0.1170  0.1814  0.3354
  159OSM   H15S17830   6.330   4.118   3.639 -0.0285 -0.0907 -0.2092
  159OSM   H15T17831   6.485   4.131   3.551 -0.4884 -0.9646 -0.8495
  159OSM   C16S17832   6.513   4.089   3.758 -0.0836 -0.3658  0.5607
  159OSM   H16S17833   6.602   4.023   3.746 -1.3394 -2.4500  2.0274
  159OSM   H16T17834   6.454   4.052   3.845 -1.1136  1.6031  0.7409
  159OSM   C17S17835   6.549   4.237   3.787 -0.0661 -0.0824 -0.4961
  159OSM   H17S17836   6.464   4.289   3.836  2.0757  1.4209  1.8777
  159OSM   H17T17837   6.569   4.281   3.687  0.0079 -2.9015 -1.8195
  159OSM   C18S17838   6.668   4.254   3.883 -0.5777 -0.2568 -0.5193
  159OSM   H18S17839   6.761   4.223   3.830 -0.4756  0.1463 -0.5776
  159OSM   H18T17840   6.668   4.181   3.966  2.5398 -0.5889 -0.6940
  159OSM   H18U17841   6.678   4.359   3.917 -0.8304 -0.7514  1.1491
  159OSM    C1F17842   6.421   4.180   2.189 -0.3281  0.3249 -0.0576
  159OSM     OF17843   6.444   4.289   2.136 -0.0941  0.3910  0.3503
  159OSM    C2F17844   6.532   4.085   2.220 -0.0073 -0.3370  0.5015
  159OSM    H2F17845   6.587   4.069   2.125  1.0802  1.3099  0.8166
  159OSM    H2G17846   6.497   3.990   2.266  2.1219 -1.6492 -0.4426
  159OSM    C3F17847   6.652   4.134   2.309  0.9956  0.0382  0.0536
  159OSM    H3F17848   6.693   4.227   2.264 -0.6632  1.1405  0.6899
  159OSM    H3G17849   6.729   4.055   2.314  0.4068 -0.5458  0.0561
  159OSM    C4F17850   6.599   4.170   2.450 -0.5902  0.5201 -0.1163
  159OSM    H4F17851   6.551   4.095   2.517  1.7241  2.3742  4.0611
  159OSM    H4G17852   6.523   4.251   2.442 -0.7839  0.2013 -1.9138
  159OSM    C5F17853   6.707   4.234   2.539  0.3769 -0.2672  0.1049
  159OSM    H5F17854   6.760   4.316   2.485  0.7068 -0.4073  0.2137
  159OSM    H5G17855   6.778   4.154   2.567  1.0942  0.1304 -0.5248
  159OSM    C6F17856   6.662   4.294   2.675 -0.0263  0.3570  0.3085
  159OSM    H6F17857   6.745   4.329   2.740 -2.0757  3.3723  1.5721
  159OSM    H6G17858   6.621   4.209   2.733 -0.0889  0.6547  0.7074
  159OSM    C7F17859   6.542   4.398   2.671 -0.6119 -0.0445  1.2948
  159OSM    H7F17860   6.448   4.353   2.635 -1.4833  2.7318 -0.1586
  159OSM    H7G17861   6.564   4.490   2.612 -0.9359 -0.7596  0.0224
  159OSM    C8F17862   6.503   4.444   2.814 -0.1775 -0.0742 -0.0409
  159OSM    H8F17863   6.583   4.496   2.872 -0.2607 -1.4430  1.3765
  159OSM    H8G17864   6.495   4.354   2.878  1.2450  0.5838  1.1471
  159OSM    C9F17865   6.389   4.539   2.817  0.6961 -0.4640 -0.1992
  159OSM    H9F17866   6.396   4.610   2.733 -0.3021  1.7529  1.4772
  159OSM   C10F17867   6.295   4.555   2.907 -0.3079  0.6423 -0.0127
  159OSM   H10F17868   6.219   4.631   2.883 -0.8290  0.3121  0.5638
  159OSM   C11F17869   6.284   4.490   3.045 -0.6219 -0.1934 -0.0341
  159OSM   H11F17870   6.374   4.426   3.056 -0.1192  0.7862  2.4834
  159OSM   H11G17871   6.188   4.435   3.050 -0.6731 -0.0259  1.4530
  159OSM   C12F17872   6.304   4.584   3.163  0.7714  0.0426  0.3428
  159OSM   H12F17873   6.213   4.646   3.173  1.1832  0.6458  0.3807
  159OSM   H12G17874   6.393   4.645   3.140  1.8062 -1.3866  0.4001
  159OSM   C13F17875   6.322   4.520   3.298 -0.3363 -0.2295  0.2867
  159OSM   H13F17876   6.238   4.452   3.322 -0.0387 -0.6658  0.0972
  159OSM   H13G17877   6.323   4.599   3.376 -0.0553  0.9247 -0.8500
  159OSM   C14F17878   6.453   4.451   3.322 -0.2446  0.3423 -0.3067
  159OSM   H14F17879   6.460   4.369   3.248 -1.8568 -0.5103  0.4412
  159OSM   H14G17880   6.444   4.397   3.419  0.7017 -1.9438 -1.4141
  159OSM   C15F17881   6.578   4.539   3.335  0.5146  0.5464 -0.6452
  159OSM   H15F17882   6.558   4.626   3.401 -0.1344 -0.7580  0.9188
  159OSM   H15G17883   6.596   4.580   3.233  1.5815  1.0740 -0.2646
  159OSM   C16F17884   6.697   4.456   3.391  0.3210 -0.0394 -0.0085
  159OSM   H16F17885   6.725   4.382   3.313  1.9432 -0.3822  0.8546
  159OSM   H16G17886   6.667   4.394   3.478 -0.0358  0.1313 -0.0116
  159OSM   C17F17887   6.820   4.549   3.426  0.3865  0.4086 -0.3209
  159OSM   H17F17888   6.782   4.642   3.475  2.1943  0.9837  0.0615
  159OSM   H17G17889   6.879   4.582   3.338  1.2560 -0.8707 -0.2359
  159OSM   C18F17890   6.921   4.478   3.520  0.1169  0.0717  0.2987
  159OSM   H18F17891   6.960   4.385   3.472 -0.1278 -0.7421  1.6169
  159OSM   H18G17892   6.868   4.443   3.611 -0.1990 -1.2291 -0.3540
  159OSM   H18H17893   7.001   4.551   3.544 -1.2238  1.1798  1.5671
  160OSM      N17894   5.767   1.069   1.939  0.0229  0.5925 -0.0626
  160OSM    C1517895   5.809   1.112   1.803  0.6073  0.1080  0.0615
  160OSM   H15A17896   5.914   1.108   1.781  0.1366 -1.5843 -2.3390
  160OSM   H15B17897   5.770   1.211   1.782 -2.4495 -0.6571  1.5105
  160OSM   H15C17898   5.764   1.044   1.732  0.9337  0.5066 -0.5349
  160OSM    C1417899   5.830   0.935   1.968 -0.1518  0.2301  0.0147
  160OSM   H14A17900   5.936   0.950   1.957 -0.0652 -1.8007 -3.0672
  160OSM   H14B17901   5.798   0.851   1.909 -0.3928 -0.6344  1.3199
  160OSM   H14C17902   5.820   0.906   2.072  0.6977 -0.8111 -0.1743
  160OSM    C1317903   5.812   1.160   2.047  0.8591 -0.4417 -0.2659
  160OSM   H13A17904   5.918   1.170   2.066  0.4482 -0.1791  2.1992
  160OSM   H13B17905   5.779   1.135   2.146 -0.2794  2.6947  0.2516
  160OSM   H13C17906   5.767   1.256   2.025 -0.7097 -1.0530  0.1501
  160OSM    C1217907   5.617   1.058   1.955  0.2449 -0.8195 -0.6076
  160OSM   H12A17908   5.578   1.156   1.979  0.7567 -1.4717  3.5512
  160OSM   H12B17909   5.589   0.989   2.032 -2.8347  0.3172 -0.5879
  160OSM    C1117910   5.539   1.002   1.830  0.3561  0.2111 -0.1503
  160OSM   H11A17911   5.438   0.971   1.864  0.6705 -2.7056 -1.5617
  160OSM   H11B17912   5.592   0.910   1.799  0.1857  0.2335 -0.5057
  160OSM      P17913   5.437   1.219   1.715  0.4062 -0.1542  0.2107
  160OSM    O1317914   5.500   1.314   1.624 -0.6774 -0.2200 -0.3380
  160OSM    O1417915   5.299   1.179   1.685  0.3330  0.5511  0.1937
  160OSM    O1117916   5.437   1.267   1.871  0.1833  0.5357 -0.5011
  160OSM    O1217917   5.527   1.088   1.714 -0.3597  0.5215 -0.0562
  160OSM    C1S17918   5.335   1.354   1.915  0.2150  0.7899  0.6799
  160OSM    H1S17919   5.234   1.307   1.906  1.2091 -1.8485  2.1560
  160OSM    H1T17920   5.335   1.449   1.857 -3.6268 -0.8326 -2.4548
  160OSM     NF17921   5.222   1.401   2.143  0.9276 -0.0140 -0.8581
  160OSM    HNF17922   5.215   1.495   2.176  0.1905 -0.4403  0.2736
  160OSM    C2S17923   5.343   1.360   2.072  0.3781 -0.5890 -0.4346
  160OSM    H2S17924   5.366   1.254   2.098  0.6771 -0.5414 -0.5025
  160OSM    C3S17925   5.474   1.440   2.105  0.6818  0.8024 -0.0538
  160OSM    H3S17926   5.475   1.547   2.074  2.2725  0.9053  0.2657
  160OSM     O317927   5.590   1.394   2.035 -0.1024 -0.8145 -0.2166
  160OSM    HO317928   5.545   1.364   1.956 -1.6739 -1.9509  1.0298
  160OSM    C4S17929   5.491   1.434   2.250  0.0081 -0.5501 -0.4297
  160OSM    H4S17930   5.416   1.487   2.309  0.7669  0.3968 -0.2754
  160OSM    C5S17931   5.573   1.340   2.314  0.7886  0.8579 -0.6965
  160OSM    H5S17932   5.626   1.265   2.254 -0.9198 -1.3996  0.4905
  160OSM    C6S17933   5.592   1.304   2.457 -0.6363  0.5045  0.3430
  160OSM    H6S17934   5.701   1.301   2.478 -0.7799 -2.4012  1.0667
  160OSM    H6T17935   5.550   1.205   2.484  1.5673 -0.8380 -0.8427
  160OSM    C7S17936   5.510   1.398   2.555 -0.1773  0.5194 -0.1880
  160OSM    H7S17937   5.403   1.394   2.526 -0.8343 -0.9336  2.1742
  160OSM    H7T17938   5.554   1.498   2.534  1.3855 -0.5421 -2.2974
  160OSM    C8S17939   5.529   1.350   2.700 -0.1826 -0.0645 -0.1819
  160OSM    H8S17940   5.638   1.337   2.716 -0.4359 -0.2759  1.5880
  160OSM    H8T17941   5.486   1.248   2.701 -0.4956  0.0564  1.4052
  160OSM    C9S17942   5.472   1.439   2.804 -0.5611  0.2047  0.0509
  160OSM    H9S17943   5.361   1.441   2.795 -0.4622 -0.4991 -1.9004
  160OSM    H9T17944   5.507   1.541   2.776 -0.7442  0.5320  0.9848
  160OSM   C10S17945   5.507   1.389   2.948  0.3615  0.1700 -0.4015
  160OSM   H10S17946   5.618   1.392   2.944  0.4811 -2.8551 -1.9523
  160OSM   H10T17947   5.461   1.290   2.968  2.8547 -0.8923  0.5178
  160OSM   C11S17948   5.470   1.486   3.062  0.7759  0.4400  0.8023
  160OSM   H11S17949   5.359   1.496   3.072  0.6940  0.3139  0.0800
  160OSM   H11T17950   5.509   1.589   3.047 -0.7199  1.0564  0.9002
  160OSM   C12S17951   5.512   1.418   3.195 -0.3609  0.2456 -0.4984
  160OSM   H12S17952   5.623   1.410   3.193 -0.3213  0.8952 -1.9952
  160OSM   H12T17953   5.471   1.317   3.177 -0.3324  0.3145 -0.9530
  160OSM   C13S17954   5.455   1.483   3.319  0.0177  0.0743  0.3437
  160OSM   H13S17955   5.345   1.471   3.308  0.3267 -2.5058 -0.5727
  160OSM   H13T17956   5.473   1.593   3.315  0.6067  0.0467  1.8573
  160OSM   C14S17957   5.510   1.428   3.447  0.0168  0.1676  0.6291
  160OSM   H14S17958   5.620   1.428   3.430 -0.3485 -2.0068 -2.2788
  160OSM   H14T17959   5.473   1.325   3.466 -0.1391  0.3668  1.4541
  160OSM   C15S17960   5.485   1.506   3.571 -0.4034 -0.1130 -0.0148
  160OSM   H15S17961   5.391   1.564   3.562  0.8932  2.1630  0.1209
  160OSM   H15T17962   5.556   1.591   3.566 -0.9374  0.2730 -1.8151
  160OSM   C16S17963   5.504   1.429   3.703  0.0153 -0.0069  0.0627
  160OSM   H16S17964   5.416   1.361   3.707 -0.8401  1.0924  0.3735
  160OSM   H16T17965   5.473   1.507   3.776  2.3055 -0.9895  2.2215
  160OSM   C17S17966   5.641   1.362   3.735 -0.1841 -0.5957  0.0130
  160OSM   H17S17967   5.725   1.433   3.731 -1.0974  0.4279 -2.5498
  160OSM   H17T17968   5.670   1.285   3.661 -3.0864  0.0435 -1.9471
  160OSM   C18S17969   5.636   1.289   3.873  0.8702 -0.9189  0.1560
  160OSM   H18S17970   5.528   1.269   3.890  0.4338 -2.1228 -3.3177
  160OSM   H18T17971   5.677   1.355   3.953  0.0966 -0.5460  0.2576
  160OSM   H18U17972   5.689   1.193   3.859 -0.7248 -1.8669  0.3784
  160OSM    C1F17973   5.113   1.328   2.139  0.2427 -0.2843  0.8545
  160OSM     OF17974   5.127   1.209   2.107 -0.3732  0.1430  0.2990
  160OSM    C2F17975   4.978   1.394   2.172  0.4209 -0.1772 -0.6422
  160OSM    H2F17976   4.934   1.429   2.076  1.3808 -2.7683 -2.1203
  160OSM    H2G17977   4.997   1.486   2.233  0.3061  0.3659 -1.4126
  160OSM    C3F17978   4.868   1.310   2.226 -0.1730  0.4420  0.2399
  160OSM    H3F17979   4.917   1.262   2.314  1.3879 -0.5505 -1.0960
  160OSM    H3G17980   4.848   1.228   2.154 -0.6776  0.6214  0.1713
  160OSM    C4F17981   4.744   1.384   2.253  0.0559  0.2487 -0.0891
  160OSM    H4F17982   4.702   1.436   2.165 -0.2486  0.7599  0.3521
  160OSM    H4G17983   4.762   1.463   2.329 -1.4674 -0.2695  0.8374
  160OSM    C5F17984   4.636   1.293   2.308  0.3725  0.1227 -0.4146
  160OSM    H5F17985   4.610   1.226   2.223  0.2406  0.5098 -0.6820
  160OSM    H5G17986   4.545   1.350   2.336  0.7803  0.5837 -0.0263
  160OSM    C6F17987   4.674   1.209   2.425 -0.3326  0.3232 -0.7018
  160OSM    H6F17988   4.722   1.269   2.505  0.4582 -0.2061 -0.7619
  160OSM    H6G17989   4.745   1.131   2.390 -1.7804 -2.0008  1.2757
  160OSM    C7F17990   4.559   1.127   2.482 -0.0532 -0.2719  0.5666
  160OSM    H7F17991   4.530   1.056   2.401 -2.8572  1.0029  0.3588
  160OSM    H7G17992   4.467   1.189   2.476  1.4482  1.9699 -1.3877
  160OSM    C8F17993   4.586   1.057   2.617  0.0933  0.3106 -0.9170
  160OSM    H8F17994   4.624   1.145   2.674  0.7705 -0.0508 -0.8030
  160OSM    H8G17995   4.672   0.990   2.603 -1.2199 -1.3096 -1.5556
  160OSM    C9F17996   4.463   0.980   2.674  0.0492 -0.6819 -0.5036
  160OSM    H9F17997   4.384   0.959   2.600  0.8491 -2.5792 -0.8527
  160OSM   C10F17998   4.429   0.961   2.801 -0.6492  0.1816 -0.5080
  160OSM   H10F17999   4.337   0.915   2.842  0.5827 -0.5944  1.5670
  160OSM   C11F18000   4.513   1.010   2.922 -0.4362  1.0549  0.2199
  160OSM   H11F18001   4.613   1.037   2.882 -0.4619 -0.5375 -1.0482
  160OSM   H11G18002   4.547   0.928   2.990  2.7508 -0.1662 -2.5561
  160OSM   C12F18003   4.439   1.121   2.998 -0.2721 -0.6627 -0.3673
  160OSM   H12F18004   4.408   1.202   2.928  0.5158  0.3701  0.4414
  160OSM   H12G18005   4.504   1.155   3.082  0.1047 -0.5905 -0.6810
  160OSM   C13F18006   4.314   1.073   3.061 -0.6818  0.6707  0.3819
  160OSM   H13F18007   4.319   0.972   3.106  4.1725 -0.1869 -1.4459
  160OSM   H13G18008   4.236   1.076   2.982 -0.1929  0.3657 -0.1183
  160OSM   C14F18009   4.267   1.159   3.176 -0.2024 -0.1970  0.2668
  160OSM   H14F18010   4.157   1.171   3.168 -0.2444 -1.0981 -0.6673
  160OSM   H14G18011   4.308   1.259   3.149 -0.0897 -0.6676 -1.4228
  160OSM   C15F18012   4.296   1.090   3.310 -0.0755  0.9199  0.5860
  160OSM   H15F18013   4.260   0.985   3.317 -1.7618  1.4738  0.6111
  160OSM   H15G18014   4.240   1.150   3.385 -0.1330  2.1617 -0.4200
  160OSM   C16F18015   4.449   1.080   3.354  0.8803 -0.2629  0.5115
  160OSM   H16F18016   4.479   1.187   3.360 -1.4873  0.5710 -1.1866
  160OSM   H16G18017   4.504   1.035   3.268 -0.1609 -0.1749 -0.2153
  160OSM   C17F18018   4.480   1.014   3.490  0.3307 -0.1636  0.1330
  160OSM   H17F18019   4.449   0.907   3.492  0.5301 -0.2230  2.8268
  160OSM   H17G18020   4.425   1.068   3.569  0.1201  0.0119 -0.1311
  160OSM   C18F18021   4.626   1.031   3.538 -0.0518  0.6478 -0.0777
  160OSM   H18F18022   4.691   0.969   3.473  0.6642  0.9482  0.3463
  160OSM   H18G18023   4.637   0.982   3.637 -2.4173 -1.8506 -0.9037
  160OSM   H18H18024   4.646   1.140   3.537 -1.3808  1.0166  2.8065
  161OSM      N18025   2.872   1.608   2.073  0.3076  0.6764  1.3918
  161OSM    C1518026   2.741   1.624   1.993 -0.2837  0.1004 -0.4278
  161OSM   H15A18027   2.740   1.559   1.907 -2.3788 -2.4747  1.3669
  161OSM   H15B18028   2.704   1.724   1.973 -1.2112 -0.6302 -2.7044
  161OSM   H15C18029   2.663   1.576   2.051  1.2063 -0.8970  0.8466
  161OSM    C1418030   2.907   1.459   2.066  0.6534 -0.6188  0.4435
  161OSM   H14A18031   2.915   1.431   1.962 -0.2521  1.7223 -0.3346
  161OSM   H14B18032   2.821   1.403   2.101 -0.0596  0.0172 -0.2485
  161OSM   H14C18033   2.997   1.424   2.114  2.6847  1.2972 -1.6895
  161OSM    C1318034   2.974   1.685   2.000  0.3972 -0.3470 -0.2093
  161OSM   H13A18035   2.979   1.654   1.896  3.1494 -0.9628  0.0291
  161OSM   H13B18036   3.074   1.674   2.040  0.3574 -1.4556 -0.3697
  161OSM   H13C18037   2.948   1.789   2.006 -1.2216 -0.6606 -1.1818
  161OSM    C1218038   2.846   1.662   2.216  0.3429  0.9959 -0.4834
  161OSM   H12A18039   2.826   1.767   2.206 -1.1530  0.6740 -1.1369
  161OSM   H12B18040   2.934   1.666   2.279 -0.3436 -1.2584  0.7383
  161OSM    C1118041   2.729   1.592   2.292 -0.6325  0.2620 -0.0330
  161OSM   H11A18042   2.736   1.632   2.396  2.0152  0.1205 -0.0841
  161OSM   H11B18043   2.750   1.483   2.302  1.5533  0.8238  3.4793
  161OSM      P18044   2.531   1.745   2.250  0.2301 -0.2131  0.3482
  161OSM    O1318045   2.614   1.859   2.208 -0.6703  0.0247  0.6629
  161OSM    O1418046   2.402   1.728   2.179 -0.1256 -0.0282 -0.2971
  161OSM    O1118047   2.506   1.745   2.409  0.1671 -0.9391  0.1453
  161OSM    O1218048   2.604   1.602   2.232  0.0494 -0.6157 -0.2360
  161OSM    C1S18049   2.383   1.705   2.469 -0.2473  0.3047 -0.5564
  161OSM    H1S18050   2.378   1.595   2.476 -1.9237  0.4396  1.2784
  161OSM    H1T18051   2.295   1.751   2.418 -0.7991 -1.1547 -0.9593
  161OSM     NF18052   2.267   1.671   2.703  0.7434 -0.7183 -0.3948
  161OSM    HNF18053   2.186   1.712   2.744  0.9338 -2.1051  1.5427
  161OSM    C2S18054   2.366   1.753   2.623  0.7555  0.2177  0.0083
  161OSM    H2S18055   2.469   1.739   2.664  0.8398  1.3305  0.2149
  161OSM    C3S18056   2.331   1.901   2.638  0.1015 -0.2520  0.4395
  161OSM    H3S18057   2.224   1.907   2.612 -0.7531 -0.6500  3.4930
  161OSM     O318058   2.399   1.982   2.538  0.0886  0.6950  0.3379
  161OSM    HO318059   2.443   1.916   2.484  1.2616  2.2048 -0.6455
  161OSM    C4S18060   2.361   1.952   2.772 -0.5420 -0.1600  0.1143
  161OSM    H4S18061   2.468   1.972   2.789 -0.3788 -0.5122 -0.4586
  161OSM    C5S18062   2.271   1.987   2.863  0.0014  0.7076  0.0015
  161OSM    H5S18063   2.162   1.991   2.850 -0.3203 -1.8166  1.2870
  161OSM    C6S18064   2.320   2.041   3.000  0.2516  0.2346  0.4661
  161OSM    H6S18065   2.258   2.121   3.046 -1.4243  0.3080 -1.7500
  161OSM    H6T18066   2.421   2.086   2.988  0.6813 -0.6702  0.6306
  161OSM    C7S18067   2.341   1.923   3.102 -0.8326  0.2332 -0.1692
  161OSM    H7S18068   2.393   1.834   3.061 -0.1351 -0.8436  2.8342
  161OSM    H7T18069   2.242   1.887   3.135 -0.7068  0.4550  0.4505
  161OSM    C8S18070   2.415   1.987   3.231 -0.4652  0.2523  0.5138
  161OSM    H8S18071   2.509   2.041   3.202 -0.6768  0.6817  0.6138
  161OSM    H8T18072   2.455   1.906   3.296  0.1596 -0.5215 -0.7917
  161OSM    C9S18073   2.331   2.070   3.328 -0.4580 -0.2668  0.7134
  161OSM    H9S18074   2.253   2.011   3.382 -0.7480 -1.4048 -0.8928
  161OSM    H9T18075   2.270   2.140   3.268  2.6238  1.7383 -0.3170
  161OSM   C10S18076   2.421   2.139   3.427  0.1935  0.3878 -0.1977
  161OSM   H10S18077   2.496   2.204   3.376  1.2130  1.2843  2.2719
  161OSM   H10T18078   2.475   2.056   3.478 -0.7759  0.3432  0.7861
  161OSM   C11S18079   2.336   2.211   3.529  0.5163  0.9172  0.1478
  161OSM   H11S18080   2.275   2.289   3.479  0.4576  1.5168  1.1068
  161OSM   H11T18081   2.406   2.270   3.593 -0.1229 -0.5056  2.2670
  161OSM   C12S18082   2.239   2.141   3.629 -0.2151  0.3298 -0.8929
  161OSM   H12S18083   2.156   2.101   3.566 -0.5770  0.7388 -0.6716
  161OSM   H12T18084   2.195   2.224   3.688  1.4732  0.8500 -0.3266
  161OSM   C13S18085   2.309   2.039   3.725  0.4631 -0.4546  0.3109
  161OSM   H13S18086   2.392   2.096   3.773  0.2384  1.6856 -1.6526
  161OSM   H13T18087   2.356   1.958   3.666 -0.7556 -0.9604  0.0085
  161OSM   C14S18088   2.211   1.988   3.823  0.0034  0.8042 -0.9018
  161OSM   H14S18089   2.124   1.938   3.775  0.9415 -2.1189  0.2064
  161OSM   H14T18090   2.179   2.074   3.887  1.7222  1.5155 -0.9619
  161OSM   C15S18091   2.272   1.884   3.923  0.3700  0.5709 -0.1117
  161OSM   H15S18092   2.364   1.918   3.975 -0.5132  1.1757  1.1218
  161OSM   H15T18093   2.289   1.786   3.874  2.2040  0.1979  1.1530
  161OSM   C16S18094   2.187   1.850   4.043 -0.1900 -0.3034  0.2628
  161OSM   H16S18095   2.094   1.795   4.018 -0.4950  0.2669  0.1206
  161OSM   H16T18096   2.170   1.948   4.092  1.5922  0.0196  0.3086
  161OSM   C17S18097   2.266   1.741   4.128 -0.1278 -0.3880 -0.1130
  161OSM   H17S18098   2.366   1.785   4.151 -0.7811  0.9193  0.3569
  161OSM   H17T18099   2.294   1.655   4.064 -0.9322 -0.2189 -0.7008
  161OSM   C18S18100   2.188   1.696   4.252 -0.1308  1.1881 -0.3068
  161OSM   H18S18101   2.161   1.774   4.325 -4.1620  1.1882 -1.5759
  161OSM   H18T18102   2.241   1.623   4.317 -1.0882  0.0681 -0.7388
  161OSM   H18U18103   2.099   1.647   4.206  0.5683 -0.9249  0.4384
  161OSM    C1F18104   2.280   1.549   2.733  0.3653 -0.3941  0.4466
  161OSM     OF18105   2.375   1.479   2.693  0.4900 -0.3084 -0.0755
  161OSM    C2F18106   2.169   1.499   2.827 -0.1271  0.5297  0.2384
  161OSM    H2F18107   2.182   1.389   2.828 -1.4532  0.3374 -0.7676
  161OSM    H2G18108   2.072   1.534   2.786  0.8316 -0.0780 -2.7881
  161OSM    C3F18109   2.197   1.550   2.976 -0.4460  0.1056  0.9492
  161OSM    H3F18110   2.191   1.661   2.979  1.9119  0.3022  0.3653
  161OSM    H3G18111   2.298   1.513   3.005  0.1064  0.5635 -0.3071
  161OSM    C4F18112   2.102   1.488   3.081 -0.2489 -0.2043  0.7786
  161OSM    H4F18113   2.093   1.377   3.073 -1.5943 -0.2031  2.0226
  161OSM    H4G18114   2.007   1.540   3.059  0.1944  1.7887  3.1799
  161OSM    C5F18115   2.147   1.516   3.226 -0.3857  0.3950  0.2772
  161OSM    H5F18116   2.183   1.621   3.233 -2.0324  0.9524  1.1601
  161OSM    H5G18117   2.233   1.447   3.236 -0.7550 -0.1123  0.0071
  161OSM    C6F18118   2.044   1.480   3.330  0.3197  0.8503 -0.4465
  161OSM    H6F18119   2.026   1.374   3.357 -2.3112  1.4375  0.3511
  161OSM    H6G18120   1.946   1.528   3.309 -0.6878 -0.2703  1.4360
  161OSM    C7F18121   2.095   1.556   3.464 -1.0218  0.3328 -0.1744
  161OSM    H7F18122   2.121   1.662   3.446  0.5753 -0.1792 -1.1291
  161OSM    H7G18123   2.189   1.502   3.489 -0.4449  0.8541 -1.1537
  161OSM    C8F18124   1.992   1.538   3.571 -0.0437  0.5421 -0.8418
  161OSM    H8F18125   1.968   1.431   3.588  0.1391  1.0329  3.6772
  161OSM    H8G18126   1.892   1.575   3.538 -1.2163 -2.1617 -0.6114
  161OSM    C9F18127   2.029   1.607   3.701 -0.3171  0.7598 -0.5992
  161OSM    H9F18128   2.057   1.713   3.708 -0.7490  0.7887  1.0892
  161OSM   C10F18129   2.030   1.538   3.818  0.1858  0.1532  0.1005
  161OSM   H10F18130   2.050   1.602   3.905  2.8537 -0.9674  0.4167
  161OSM   C11F18131   1.986   1.394   3.842  1.1534  0.0632 -0.3498
  161OSM   H11F18132   2.002   1.332   3.752  0.6934  1.2711 -1.2930
  161OSM   H11G18133   1.876   1.406   3.842  1.2739  2.1775 -3.1059
  161OSM   C12F18134   2.042   1.331   3.969  0.2798 -0.1296 -0.1458
  161OSM   H12F18135   2.152   1.349   3.974 -0.0659  1.9333  1.7530
  161OSM   H12G18136   2.022   1.221   3.969  0.6637 -0.2039 -0.5029
  161OSM   C13F18137   1.984   1.396   4.094  0.4543 -0.1263  0.1450
  161OSM   H13F18138   1.975   1.507   4.089  0.1367 -0.0837  1.4161
  161OSM   H13G18139   2.051   1.367   4.177 -2.5428 -3.2965  1.7203
  161OSM   C14F18140   1.842   1.345   4.120 -0.0638 -0.0316  0.2535
  161OSM   H14F18141   1.835   1.234   4.132  0.5338 -0.0891  0.0989
  161OSM   H14G18142   1.783   1.373   4.030  0.2573 -1.6936 -0.5172
  161OSM   C15F18143   1.782   1.411   4.241 -0.7240  0.6936 -0.0623
  161OSM   H15F18144   1.798   1.521   4.248 -1.4479  0.8755 -1.0163
  161OSM   H15G18145   1.834   1.372   4.331 -0.3427 -0.5503 -0.7955
  161OSM   C16F18146   1.632   1.399   4.252 -1.0579 -0.3222 -0.6949
  161OSM   H16F18147   1.611   1.290   4.263  2.6646 -1.2132 -1.0662
  161OSM   H16G18148   1.578   1.434   4.161  0.1995  2.1107 -0.5778
  161OSM   C17F18149   1.586   1.467   4.377 -0.1164  0.2382 -0.9277
  161OSM   H17F18150   1.628   1.568   4.392 -1.4894  0.8602 -1.1262
  161OSM   H17G18151   1.630   1.404   4.457 -2.5188 -1.8812 -1.1365
  161OSM   C18F18152   1.430   1.464   4.391 -0.3497 -0.0264 -0.2617
  161OSM   H18F18153   1.393   1.512   4.485  0.7932  1.6565 -0.6342
  161OSM   H18G18154   1.403   1.358   4.370  0.1381 -0.4267  1.0141
  161OSM   H18H18155   1.401   1.520   4.299  2.3648  0.2159 -1.0405
  162OSM      N18156   3.299   6.549   1.956 -0.7222 -0.6714 -0.0080
  162OSM    C1518157   3.398   6.586   1.850  0.6107  0.3709 -0.6188
  162OSM   H15A18158   3.346   6.651   1.780  0.7373  0.5842 -0.5147
  162OSM   H15B18159   3.433   6.502   1.792 -0.5316  0.0607 -0.8968
  162OSM   H15C18160   3.479   6.642   1.894  0.5575 -0.9250  1.2118
  162OSM    C1418161   3.168   6.489   1.890 -0.8989 -0.0876  0.4213
  162OSM   H14A18162   3.110   6.426   1.956 -0.6809  0.0809  0.7778
  162OSM   H14B18163   3.197   6.434   1.801 -0.5761  0.8980 -0.0954
  162OSM   H14C18164   3.095   6.563   1.862 -1.9857 -0.7624  1.4068
  162OSM    C1318165   3.364   6.440   2.037 -0.5131  0.0417  0.1582
  162OSM   H13A18166   3.462   6.476   2.067 -1.1248  0.8730  1.2158
  162OSM   H13B18167   3.371   6.344   1.989 -0.1259  0.3924 -0.5115
  162OSM   H13C18168   3.317   6.429   2.133  1.7258 -0.4271  1.2794
  162OSM    C1218169   3.257   6.671   2.035  0.5072 -0.6758  0.2597
  162OSM   H12A18170   3.337   6.698   2.103 -0.7400 -1.2241  2.0281
  162OSM   H12B18171   3.181   6.655   2.110  0.0847  3.1385  0.8718
  162OSM    C1118172   3.186   6.793   1.956  0.7680  0.1126  0.2286
  162OSM   H11A18173   3.175   6.865   2.041 -3.7375 -1.9671  1.7200
  162OSM   H11B18174   3.086   6.757   1.924  0.6217  1.5363 -0.9875
  162OSM      P18175   3.356   6.964   1.865  0.3144  0.2960  0.4121
  162OSM    O1318176   3.458   6.959   1.751  0.3140  0.2406  0.0739
  162OSM    O1418177   3.282   7.088   1.887  0.0815  0.1367 -0.3252
  162OSM    O1118178   3.431   6.894   1.988  0.4303  0.1623 -0.7985
  162OSM    O1218179   3.254   6.845   1.851  0.2199 -0.4967  0.3813
  162OSM    C1S18180   3.475   6.983   2.092  0.2318 -0.2410  0.1382
  162OSM    H1S18181   3.404   7.066   2.113  1.5819  1.0431 -0.1709
  162OSM    H1T18182   3.566   7.028   2.046  1.1769 -1.6643  0.5571
  162OSM     NF18183   3.581   7.020   2.314 -0.5881 -0.4244 -0.3482
  162OSM    HNF18184   3.678   7.010   2.334 -0.3286  0.3246 -1.1707
  162OSM    C2S18185   3.520   6.923   2.227  0.0743  0.2119 -0.0826
  162OSM    H2S18186   3.424   6.890   2.271 -0.2354  0.2251 -0.7251
  162OSM    C3S18187   3.601   6.790   2.227 -0.0667 -0.6665  0.3785
  162OSM    H3S18188   3.705   6.811   2.193 -0.1886  1.1431  0.9799
  162OSM     O318189   3.558   6.696   2.131 -0.1309  0.4015 -0.0856
  162OSM    HO318190   3.519   6.758   2.069  3.0645  1.1421 -1.5763
  162OSM    C4S18191   3.601   6.729   2.368 -0.5344  0.0859 -0.3635
  162OSM    H4S18192   3.496   6.733   2.399 -0.2241  1.3279  0.6247
  162OSM    C5S18193   3.688   6.681   2.456 -0.1624 -0.3595  0.0045
  162OSM    H5S18194   3.794   6.676   2.427 -0.6133  1.6811 -2.3405
  162OSM    C6S18195   3.650   6.634   2.599 -0.3056  0.7934  0.6515
  162OSM    H6S18196   3.671   6.525   2.611 -0.9434  0.4073 -1.3611
  162OSM    H6T18197   3.545   6.641   2.634 -0.9443 -1.2059 -0.6661
  162OSM    C7S18198   3.739   6.708   2.694 -0.4245  0.6882 -0.3612
  162OSM    H7S18199   3.714   6.816   2.694 -1.2437  0.5644  2.0638
  162OSM    H7T18200   3.845   6.687   2.667 -0.8812 -1.5306 -0.5848
  162OSM    C8S18201   3.714   6.664   2.839  0.7012 -0.0129 -0.7068
  162OSM    H8S18202   3.738   6.561   2.874 -1.2033 -0.6122 -1.0851
  162OSM    H8T18203   3.607   6.684   2.858  0.5407 -1.0853 -0.4038
  162OSM    C9S18204   3.787   6.770   2.927 -0.1973  0.5592  0.3081
  162OSM    H9S18205   3.741   6.869   2.912 -1.5061 -0.1918 -0.7886
  162OSM    H9T18206   3.892   6.777   2.891  0.0228 -0.4973  0.7089
  162OSM   C10S18207   3.786   6.751   3.083 -0.4062  0.3613  0.2632
  162OSM   H10S18208   3.820   6.647   3.099  1.3369  0.9754  0.7224
  162OSM   H10T18209   3.684   6.767   3.124 -0.6922 -0.6786 -0.0193
  162OSM   C11S18210   3.875   6.847   3.161 -0.5827 -0.5828  0.4841
  162OSM   H11S18211   3.895   6.943   3.108  1.6963 -0.4488  1.4543
  162OSM   H11T18212   3.973   6.797   3.175  0.1601  0.6833  0.0399
  162OSM   C12S18213   3.836   6.878   3.304 -0.0532  0.3063 -0.1161
  162OSM   H12S18214   3.749   6.948   3.300  0.0087  0.2955 -2.7757
  162OSM   H12T18215   3.909   6.941   3.359 -0.7580 -0.4775  1.8134
  162OSM   C13S18216   3.788   6.756   3.379 -0.6914  0.5358 -0.8525
  162OSM   H13S18217   3.864   6.676   3.367 -0.2553  0.8064  0.0355
  162OSM   H13T18218   3.690   6.718   3.344 -0.0637 -1.5115 -0.5176
  162OSM   C14S18219   3.788   6.788   3.527 -0.1875 -0.3782  0.5369
  162OSM   H14S18220   3.882   6.833   3.565 -0.6122 -0.1239  1.3107
  162OSM   H14T18221   3.771   6.690   3.577 -1.6713  0.6368  2.1221
  162OSM   C15S18222   3.683   6.884   3.562 -0.2475  0.2674  0.0356
  162OSM   H15S18223   3.586   6.830   3.557 -0.1948  0.1663  0.1062
  162OSM   H15T18224   3.684   6.969   3.490 -0.5596  0.4304  0.2236
  162OSM   C16S18225   3.712   6.946   3.702  0.2311 -0.4480  0.1992
  162OSM   H16S18226   3.795   7.020   3.693 -0.9556  0.7718 -1.4456
  162OSM   H16T18227   3.740   6.866   3.773  0.6887 -1.0386 -0.6295
  162OSM   C17S18228   3.593   7.022   3.762  0.4311  0.4904  0.3730
  162OSM   H17S18229   3.509   6.956   3.794 -0.2937  1.0488 -0.3318
  162OSM   H17T18230   3.563   7.091   3.680  0.6187 -0.4331 -0.4852
  162OSM   C18S18231   3.626   7.106   3.886  0.3592  0.7721  0.1463
  162OSM   H18S18232   3.719   7.167   3.884  2.3253 -2.0257 -0.5151
  162OSM   H18T18233   3.631   7.046   3.980 -0.2837 -1.7212 -1.3050
  162OSM   H18U18234   3.542   7.178   3.886  0.6102  1.1252 -2.1501
  162OSM    C1F18235   3.514   7.125   2.358 -0.3655 -0.4841 -0.3493
  162OSM     OF18236   3.389   7.125   2.356  0.4454 -0.1933  0.4483
  162OSM    C2F18237   3.582   7.237   2.438  0.2829 -0.4432  0.2984
  162OSM    H2F18238   3.518   7.325   2.415 -1.8023 -1.1815  2.7478
  162OSM    H2G18239   3.683   7.260   2.398  0.1924  1.4371  1.0667
  162OSM    C3F18240   3.587   7.211   2.590  0.3561  0.2795 -0.3357
  162OSM    H3F18241   3.658   7.125   2.594 -1.0795 -0.9084  0.3519
  162OSM    H3G18242   3.490   7.179   2.633  0.0640  0.4338 -0.8741
  162OSM    C4F18243   3.635   7.327   2.678  0.3472 -0.6962  0.5128
  162OSM    H4F18244   3.555   7.403   2.693 -0.5493 -1.6489  0.7616
  162OSM    H4G18245   3.722   7.375   2.630 -0.0755  1.2573  1.5932
  162OSM    C5F18246   3.671   7.268   2.814 -0.3473  0.2313 -0.4562
  162OSM    H5F18247   3.756   7.200   2.794 -0.6838  0.3491 -2.4912
  162OSM    H5G18248   3.590   7.205   2.857  0.6227  0.2148  1.4437
  162OSM    C6F18249   3.718   7.356   2.927  0.2080 -0.0180  0.2478
  162OSM    H6F18250   3.624   7.406   2.956  0.0624  1.0601 -1.9504
  162OSM    H6G18251   3.798   7.429   2.905  0.2439 -0.0934  0.1271
  162OSM    C7F18252   3.776   7.277   3.041  0.7307  0.6924 -0.4029
  162OSM    H7F18253   3.859   7.210   3.009  0.6980 -0.5338  1.9060
  162OSM    H7G18254   3.698   7.213   3.087  0.8662  0.3492 -0.6432
  162OSM    C8F18255   3.834   7.370   3.145 -0.3914 -0.9670  0.0876
  162OSM    H8F18256   3.754   7.442   3.173  0.5968  0.7135 -1.2279
  162OSM    H8G18257   3.913   7.427   3.091 -1.4284 -1.7299 -2.3825
  162OSM    C9F18258   3.883   7.289   3.265 -0.1899  0.1200  0.9043
  162OSM    H9F18259   3.951   7.206   3.241  1.9297  2.2908 -1.2567
  162OSM   C10F18260   3.851   7.325   3.389 -0.0670 -0.0298  0.9959
  162OSM   H10F18261   3.891   7.267   3.474 -1.0562 -1.4589  0.5158
  162OSM   C11F18262   3.799   7.454   3.435  0.8093  0.6839 -0.8341
  162OSM   H11F18263   3.773   7.528   3.356 -2.9427 -0.0776 -0.4666
  162OSM   H11G18264   3.869   7.503   3.506  0.7081 -0.3157 -0.0258
  162OSM   C12F18265   3.660   7.438   3.506  0.1498 -0.0492  0.6559
  162OSM   H12F18266   3.594   7.373   3.443  2.3018  1.2282 -3.2894
  162OSM   H12G18267   3.600   7.532   3.508  0.0787 -0.0486 -0.5317
  162OSM   C13F18268   3.675   7.389   3.645  0.6141  0.0321 -0.7943
  162OSM   H13F18269   3.723   7.289   3.649  1.1908  0.3302  2.0168
  162OSM   H13G18270   3.573   7.374   3.688  1.5246 -2.2571  0.6995
  162OSM   C14F18271   3.741   7.485   3.747 -0.3031 -0.3238  0.4095
  162OSM   H14F18272   3.740   7.585   3.699  1.0868 -0.0737  0.8651
  162OSM   H14G18273   3.846   7.450   3.756 -0.8312 -1.4094  3.8510
  162OSM   C15F18274   3.680   7.496   3.889 -0.0321  0.7845 -0.4231
  162OSM   H15F18275   3.674   7.389   3.919  1.0259  0.4236 -1.4101
  162OSM   H15G18276   3.575   7.532   3.884 -0.3173 -0.0216 -0.5002
  162OSM   C16F18277   3.773   7.585   3.981  0.1747  0.9630  0.3561
  162OSM   H16F18278   3.790   7.680   3.926 -3.5052  0.8027 -1.3844
  162OSM   H16G18279   3.865   7.523   3.986 -0.0690  0.4694 -0.9517
  162OSM   C17F18280   3.720   7.607   4.123  0.1668  0.0792  0.1087
  162OSM   H17F18281   3.609   7.618   4.123  0.0356 -1.0719 -0.2753
  162OSM   H17G18282   3.764   7.703   4.156 -0.5898  0.1995  0.8168
  162OSM   C18F18283   3.748   7.494   4.223 -0.0535 -0.0770  0.1772
  162OSM   H18F18284   3.722   7.401   4.169 -1.4048  1.2372 -1.5888
  162OSM   H18G18285   3.696   7.504   4.321 -1.5201 -1.8237 -0.3761
  162OSM   H18H18286   3.859   7.494   4.231 -0.0980  0.4354  0.9042
  163OSM      N18287   2.839   0.569   1.919  0.0878  1.0274  0.0703
  163OSM    C1518288   2.832   0.459   2.028 -0.2590  0.2315  0.3741
  163OSM   H15A18289   2.741   0.401   2.017 -0.9343  0.7838  2.4768
  163OSM   H15B18290   2.820   0.507   2.124 -0.9674  1.3529 -0.2515
  163OSM   H15C18291   2.922   0.400   2.033 -0.4312 -0.3020 -1.7627
  163OSM    C1418292   2.859   0.501   1.786  0.5948  0.1482  0.4084
  163OSM   H14A18293   2.949   0.442   1.792  0.2022 -0.2947  2.8266
  163OSM   H14B18294   2.872   0.574   1.707  1.5758  1.7363  1.9529
  163OSM   H14C18295   2.774   0.446   1.748 -2.2852  2.6085  2.7893
  163OSM    C1318296   2.700   0.635   1.905  0.2252  0.0649 -0.7098
  163OSM   H13A18297   2.622   0.562   1.886  0.1111  0.0717 -0.2709
  163OSM   H13B18298   2.696   0.708   1.825 -3.8422 -0.1509 -0.9275
  163OSM   H13C18299   2.687   0.692   1.995  0.9545 -0.2958 -0.3622
  163OSM    C1218300   2.960   0.658   1.955 -0.3632  0.0677 -0.3114
  163OSM   H12A18301   2.972   0.731   1.877  1.0715  1.3739  1.0485
  163OSM   H12B18302   3.050   0.598   1.958 -0.4726 -0.1570  3.2693
  163OSM    C1118303   2.957   0.731   2.096  0.6532 -0.5483 -0.0775
  163OSM   H11A18304   3.047   0.791   2.123 -0.5628  0.3074  2.2753
  163OSM   H11B18305   2.944   0.665   2.184  2.2094 -1.0069 -0.1502
  163OSM      P18306   2.831   0.968   2.063  0.4108 -0.2719 -0.2930
  163OSM    O1318307   2.927   0.996   1.956  0.1078 -0.5007  0.0025
  163OSM    O1418308   2.688   1.000   2.047  0.2484 -0.0050  0.4872
  163OSM    O1118309   2.882   1.040   2.197  0.1360  0.1457 -0.0160
  163OSM    O1218310   2.837   0.813   2.098 -0.3285  0.5982  0.4902
  163OSM    C1S18311   2.844   1.008   2.330  0.6872  0.5184 -0.0978
  163OSM    H1S18312   2.863   0.900   2.344 -1.1729  0.4162  2.1263
  163OSM    H1T18313   2.735   1.022   2.347  0.6596  0.7600 -0.4513
  163OSM     NF18314   2.887   1.035   2.577  0.0117 -0.0879 -0.1813
  163OSM    HNF18315   2.832   1.092   2.637 -1.4705  0.2250 -1.7514
  163OSM    C2S18316   2.914   1.090   2.443 -0.0889  0.9158 -0.1009
  163OSM    H2S18317   3.021   1.070   2.421 -0.7734 -1.2786 -1.7781
  163OSM    C3S18318   2.875   1.237   2.427 -0.7409  0.3891  0.1415
  163OSM    H3S18319   2.767   1.245   2.450 -0.2656  0.5026  2.7142
  163OSM     O318320   2.896   1.282   2.298  0.0087 -0.0888 -0.3254
  163OSM    HO318321   2.909   1.211   2.234  1.2738 -0.3904  0.2387
  163OSM    C4S18322   2.954   1.332   2.518  0.4152 -0.3539 -0.1186
  163OSM    H4S18323   3.059   1.345   2.491  0.2651 -1.3382 -1.2955
  163OSM    C5S18324   2.908   1.406   2.616  0.2091 -0.4680  0.7490
  163OSM    H5S18325   2.805   1.396   2.652  0.3768 -0.5020  1.2303
  163OSM    C6S18326   2.979   1.510   2.698 -0.3412 -0.1238  0.4113
  163OSM    H6S18327   2.961   1.494   2.806 -0.8529 -3.6031 -0.0828
  163OSM    H6T18328   2.932   1.607   2.669 -0.2736 -0.3240 -0.4004
  163OSM    C7S18329   3.129   1.539   2.686  0.0898  0.5173  0.3996
  163OSM    H7S18330   3.166   1.559   2.583 -0.0430 -0.8730  0.0620
  163OSM    H7T18331   3.189   1.447   2.704  0.5843  0.4830 -1.2910
  163OSM    C8S18332   3.182   1.651   2.780 -0.0441 -0.6494 -0.3099
  163OSM    H8S18333   3.172   1.625   2.887  1.8099  1.8931  0.6057
  163OSM    H8T18334   3.131   1.745   2.749  1.4731 -0.6096 -2.9997
  163OSM    C9S18335   3.335   1.681   2.763  0.1932  0.0581  0.1218
  163OSM    H9S18336   3.353   1.731   2.665  1.3004 -2.0976 -0.8328
  163OSM    H9T18337   3.380   1.580   2.767 -2.8785 -1.3622  2.5969
  163OSM   C10S18338   3.394   1.754   2.885  0.5068  0.9083 -0.2920
  163OSM   H10S18339   3.504   1.746   2.874  0.4181  0.9592 -1.3430
  163OSM   H10T18340   3.360   1.706   2.979 -2.4327  2.8342 -0.2294
  163OSM   C11S18341   3.344   1.900   2.903 -0.4270 -0.1284 -0.0398
  163OSM   H11S18342   3.234   1.911   2.911 -0.3225  1.4010 -0.3579
  163OSM   H11T18343   3.379   1.946   2.808  1.4461 -1.8849 -0.2615
  163OSM   C12S18344   3.399   1.962   3.030  0.0727 -0.2191 -0.5682
  163OSM   H12S18345   3.385   2.072   3.020  0.6155 -0.2796 -2.2050
  163OSM   H12T18346   3.506   1.935   3.041  0.4298  1.5971  0.9666
  163OSM   C13S18347   3.325   1.927   3.156 -0.2468  0.0401 -0.1399
  163OSM   H13S18348   3.288   1.824   3.175 -2.6606  1.1196  1.4735
  163OSM   H13T18349   3.230   1.984   3.155 -1.2711 -1.5953  0.5839
  163OSM   C14S18350   3.408   1.961   3.280 -0.5592 -0.1812  0.3909
  163OSM   H14S18351   3.420   2.071   3.276 -0.3431 -0.2162  0.0429
  163OSM   H14T18352   3.512   1.924   3.279  0.0414  1.4416  0.5673
  163OSM   C15S18353   3.336   1.921   3.407  0.0643 -0.5924 -0.3497
  163OSM   H15S18354   3.311   1.815   3.386 -2.5104 -0.2371  0.5802
  163OSM   H15T18355   3.235   1.965   3.422  0.1268 -0.6302  0.2225
  163OSM   C16S18356   3.424   1.938   3.537  1.4070 -0.5588  0.0514
  163OSM   H16S18357   3.531   1.933   3.507  1.7883 -0.6485  1.3626
  163OSM   H16T18358   3.389   1.859   3.608 -1.7305  1.4680  0.9589
  163OSM   C17S18359   3.401   2.071   3.606  0.1484  0.0399 -0.0511
  163OSM   H17S18360   3.297   2.087   3.642  1.1437  0.3185  3.0525
  163OSM   H17T18361   3.423   2.155   3.537 -1.5938  0.4355 -0.1725
  163OSM   C18S18362   3.477   2.093   3.735  0.8081  0.3763 -0.7929
  163OSM   H18S18363   3.584   2.073   3.711  0.7289 -0.1601 -0.7089
  163OSM   H18T18364   3.446   2.020   3.813  1.9402 -1.0175 -1.5754
  163OSM   H18U18365   3.473   2.198   3.769 -0.6294 -0.1158  0.6868
  163OSM    C1F18366   2.931   0.909   2.613 -0.3649 -0.3654  0.1974
  163OSM     OF18367   3.001   0.838   2.542 -0.4635  0.1468 -0.1062
  163OSM    C2F18368   2.889   0.871   2.744  0.2493  0.1953  0.1276
  163OSM    H2F18369   2.778   0.863   2.747  0.1289  1.6748  0.8990
  163OSM    H2G18370   2.933   0.936   2.823  4.1396 -1.3659 -0.5360
  163OSM    C3F18371   2.943   0.735   2.787 -0.1731 -0.5351  0.4331
  163OSM    H3F18372   3.054   0.743   2.780 -0.2500  1.1560  0.7342
  163OSM    H3G18373   2.916   0.668   2.703  1.9900 -0.9601  0.0253
  163OSM    C4F18374   2.905   0.686   2.926  0.3220  0.2775 -0.2115
  163OSM    H4F18375   2.959   0.751   2.998  0.7363  0.9356 -1.1063
  163OSM    H4G18376   2.935   0.581   2.949  0.8569  0.1009 -1.6128
  163OSM    C5F18377   2.753   0.690   2.947  0.1590 -0.3527 -0.1704
  163OSM    H5F18378   2.702   0.631   2.868  0.0958  0.4951 -0.7700
  163OSM    H5G18379   2.708   0.791   2.956  0.1434 -0.5195  2.3150
  163OSM    C6F18380   2.711   0.628   3.084  0.2047  0.2713 -0.1937
  163OSM    H6F18381   2.726   0.522   3.055 -2.6122  0.2017 -1.7832
  163OSM    H6G18382   2.603   0.640   3.107  0.4140  0.8334  0.5319
  163OSM    C7F18383   2.782   0.670   3.209 -0.4205  0.6897 -0.3064
  163OSM    H7F18384   2.892   0.653   3.200 -0.2954  1.6037 -0.6884
  163OSM    H7G18385   2.739   0.608   3.290  1.3080  0.4970  0.5293
  163OSM    C8F18386   2.770   0.817   3.246  0.4789  0.3784 -0.2226
  163OSM    H8F18387   2.795   0.884   3.162  3.2281 -0.1211  0.0983
  163OSM    H8G18388   2.849   0.847   3.318  1.3767  0.7789 -1.3461
  163OSM    C9F18389   2.645   0.879   3.298 -0.6542  1.1293  0.0118
  163OSM    H9F18390   2.562   0.891   3.227 -1.3563 -0.6406  0.4774
  163OSM   C10F18391   2.613   0.905   3.427 -0.3154  0.8446 -0.6438
  163OSM   H10F18392   2.521   0.963   3.446 -0.1724  1.5199 -1.9004
  163OSM   C11F18393   2.696   0.892   3.555 -0.1401  0.0409  0.6638
  163OSM   H11F18394   2.693   0.989   3.609  2.8783  0.9807 -0.6175
  163OSM   H11G18395   2.802   0.875   3.527 -0.5486  0.1364 -1.0627
  163OSM   C12F18396   2.657   0.773   3.641  0.1260  0.3408  0.3102
  163OSM   H12F18397   2.661   0.680   3.580  0.2472  0.4197  0.1979
  163OSM   H12G18398   2.550   0.777   3.671 -0.2694 -1.1499 -0.7533
  163OSM   C13F18399   2.743   0.759   3.763  0.0406 -0.2825  0.2000
  163OSM   H13F18400   2.740   0.848   3.829  0.0628 -0.6605  0.7260
  163OSM   H13G18401   2.850   0.735   3.743  0.3796  1.6927 -0.5328
  163OSM   C14F18402   2.677   0.653   3.848  0.3765  0.0164  0.4252
  163OSM   H14F18403   2.662   0.561   3.789 -2.0298  1.5484 -1.5777
  163OSM   H14G18404   2.574   0.687   3.874  0.4838 -0.7171  1.9481
  163OSM   C15F18405   2.751   0.623   3.980  0.0143  0.7433 -1.0763
  163OSM   H15F18406   2.761   0.716   4.039 -0.6773  0.0365  0.2039
  163OSM   H15G18407   2.850   0.578   3.957  1.1868  1.5605  1.9433
  163OSM   C16F18408   2.673   0.528   4.080  0.1274  0.4129  1.2306
  163OSM   H16F18409   2.673   0.431   4.026  3.4374  0.3656  1.1352
  163OSM   H16G18410   2.567   0.558   4.091 -0.5643 -2.3222  3.0234
  163OSM   C17F18411   2.748   0.505   4.212 -0.0968  0.4188  0.5234
  163OSM   H17F18412   2.675   0.466   4.286  0.2965 -1.9316 -0.2419
  163OSM   H17G18413   2.771   0.609   4.245 -1.1734  0.5842  0.7895
  163OSM   C18F18414   2.882   0.420   4.205  0.2506  0.2806  0.9567
  163OSM   H18F18415   2.967   0.478   4.163  1.0575 -0.5709  1.3645
  163OSM   H18G18416   2.882   0.317   4.164  3.2403  0.4488  0.2867
  163OSM   H18H18417   2.914   0.408   4.310  3.0877 -0.4618  0.1065
  164OSM      N18418   3.705   0.663   1.797  0.1554 -0.4661 -0.5243
  164OSM    C1518419   3.611   0.746   1.716  0.1922  0.6700 -0.2038
  164OSM   H15A18420   3.652   0.843   1.691 -1.4264  1.6021  0.5716
  164OSM   H15B18421   3.530   0.767   1.784  0.2896  1.8833 -0.4420
  164OSM   H15C18422   3.572   0.692   1.631 -2.7542  0.6846  1.0152
  164OSM    C1418423   3.666   0.519   1.808 -0.4675  0.1020  0.6956
  164OSM   H14A18424   3.741   0.456   1.853 -0.0082 -1.8278 -2.4072
  164OSM   H14B18425   3.662   0.468   1.712  0.5596  0.3405  0.5155
  164OSM   H14C18426   3.571   0.496   1.855 -2.1466  1.7530 -1.6348
  164OSM    C1318427   3.834   0.664   1.721 -0.2504 -0.4426 -0.2836
  164OSM   H13A18428   3.910   0.599   1.761 -0.7005 -2.0582 -1.9251
  164OSM   H13B18429   3.871   0.765   1.715 -1.0857 -0.0123  1.2416
  164OSM   H13C18430   3.816   0.632   1.619  3.2277 -0.4404 -1.0343
  164OSM    C1218431   3.718   0.726   1.937 -0.5056  0.4830  0.6907
  164OSM   H12A18432   3.747   0.829   1.923 -1.7500  0.8577  0.7725
  164OSM   H12B18433   3.792   0.672   1.995 -1.0129  0.1511  1.0355
  164OSM    C1118434   3.589   0.732   2.020  0.2615 -0.3194  0.2025
  164OSM   H11A18435   3.605   0.740   2.129  1.3941 -1.3659  0.1421
  164OSM   H11B18436   3.543   0.633   2.002 -1.5398  0.5239 -0.0152
  164OSM      P18437   3.474   0.964   2.033 -0.1444  0.0484 -0.2058
  164OSM    O1318438   3.597   1.034   1.996  0.3045  0.1472  0.0249
  164OSM    O1418439   3.349   1.028   1.993  0.4288 -0.0874 -1.0062
  164OSM    O1118440   3.464   0.938   2.188 -0.1642  0.0230 -0.3425
  164OSM    O1218441   3.483   0.824   1.970  0.3198  0.5085 -0.5491
  164OSM    C1S18442   3.357   0.857   2.239 -0.2075 -0.9254  0.0312
  164OSM    H1S18443   3.360   0.758   2.190  1.7193 -0.3424 -1.1231
  164OSM    H1T18444   3.259   0.903   2.213  0.6824  1.3656  0.4436
  164OSM     NF18445   3.248   0.748   2.437  0.6901 -0.0060  0.8584
  164OSM    HNF18446   3.155   0.780   2.454 -0.8301 -3.3423 -0.3776
  164OSM    C2S18447   3.354   0.837   2.392  0.1262  0.0649  0.0317
  164OSM    H2S18448   3.456   0.800   2.418 -0.1891  0.0557  1.3436
  164OSM    C3S18449   3.341   0.977   2.461 -0.0654 -0.7186 -0.2945
  164OSM    H3S18450   3.240   1.010   2.428  0.2251  2.5522  1.7611
  164OSM     O318451   3.423   1.086   2.405  0.4691  0.2680  0.2838
  164OSM    HO318452   3.455   1.047   2.324  1.4153  2.9506 -0.7737
  164OSM    C4S18453   3.351   0.974   2.615 -0.2320  0.4790  0.1252
  164OSM    H4S18454   3.443   0.929   2.655  1.0089  0.8880 -2.1082
  164OSM    C5S18455   3.255   1.010   2.703  0.4273  0.3350  0.6143
  164OSM    H5S18456   3.162   1.049   2.659  1.3527  1.0697 -0.7822
  164OSM    C6S18457   3.257   1.010   2.847 -0.3089  0.1404  1.3037
  164OSM    H6S18458   3.338   0.949   2.892 -0.1781  0.2547  1.2260
  164OSM    H6T18459   3.158   0.979   2.886 -0.8753  0.0379 -0.1380
  164OSM    C7S18460   3.274   1.152   2.909 -0.1798  0.5956 -0.1026
  164OSM    H7S18461   3.207   1.227   2.862  1.0396  1.3360 -0.7149
  164OSM    H7T18462   3.376   1.195   2.896  0.4119  1.1272  4.4655
  164OSM    C8S18463   3.239   1.158   3.063 -0.2349  0.1188 -0.4665
  164OSM    H8S18464   3.312   1.093   3.115 -1.2113  0.8446  1.9686
  164OSM    H8T18465   3.134   1.135   3.092 -0.9345  3.3943  0.0276
  164OSM    C9S18466   3.256   1.300   3.127  0.0282  0.5528  0.2418
  164OSM    H9S18467   3.168   1.362   3.101 -0.0547  0.2377 -0.2473
  164OSM    H9T18468   3.349   1.343   3.086  0.4591  0.4500  1.0887
  164OSM   C10S18469   3.274   1.302   3.279  0.2675  0.6336  0.4694
  164OSM   H10S18470   3.384   1.297   3.293  0.5411  0.2207 -1.5087
  164OSM   H10T18471   3.227   1.212   3.323  0.8523 -1.1063 -2.2156
  164OSM   C11S18472   3.212   1.425   3.344 -0.6360 -0.2358  0.5134
  164OSM   H11S18473   3.102   1.426   3.332 -0.4807 -0.3944 -1.1776
  164OSM   H11T18474   3.256   1.513   3.293  0.0702 -1.0204 -0.2698
  164OSM   C12S18475   3.252   1.448   3.490  0.0560  0.0301  0.1482
  164OSM   H12S18476   3.356   1.478   3.517  0.2947 -0.1950 -0.5059
  164OSM   H12T18477   3.225   1.352   3.538  0.0433 -0.5573 -1.0082
  164OSM   C13S18478   3.170   1.564   3.550  0.2603  0.2392 -0.3839
  164OSM   H13S18479   3.075   1.514   3.579  2.3410 -2.6935  1.9545
  164OSM   H13T18480   3.156   1.653   3.485 -0.1234 -0.1714 -0.8721
  164OSM   C14S18481   3.236   1.621   3.677 -0.4848  0.3210 -0.1734
  164OSM   H14S18482   3.191   1.716   3.711 -0.1641  0.0131  1.1625
  164OSM   H14T18483   3.346   1.634   3.669 -0.3422 -0.6015  0.1456
  164OSM   C15S18484   3.229   1.525   3.797  0.6764  0.3385  0.4954
  164OSM   H15S18485   3.273   1.424   3.778 -0.0709 -0.1124  1.0862
  164OSM   H15T18486   3.123   1.498   3.815  0.8715 -1.1766 -0.3804
  164OSM   C16S18487   3.273   1.593   3.927 -0.4263  0.4004  0.8360
  164OSM   H16S18488   3.244   1.700   3.920  1.6314  0.8920 -3.7550
  164OSM   H16T18489   3.381   1.594   3.953 -0.4137 -2.0533  1.1265
  164OSM   C17S18490   3.214   1.532   4.051 -0.0766 -0.5796 -0.1337
  164OSM   H17S18491   3.104   1.548   4.064  0.0220  0.8440 -0.8584
  164OSM   H17T18492   3.257   1.588   4.136 -1.7237 -1.8887  1.6729
  164OSM   C18S18493   3.241   1.387   4.076  0.0149 -0.1708 -0.1195
  164OSM   H18S18494   3.204   1.329   3.988 -1.0229 -1.6838  1.2591
  164OSM   H18T18495   3.206   1.352   4.175 -0.1555  1.7025  0.5170
  164OSM   H18U18496   3.348   1.359   4.077 -0.5767 -2.7731 -1.4597
  164OSM    C1F18497   3.271   0.619   2.428 -0.2096  0.4804 -0.0045
  164OSM     OF18498   3.377   0.574   2.381  0.5053 -0.5293 -0.2714
  164OSM    C2F18499   3.156   0.524   2.471 -0.2387 -0.1585 -0.6935
  164OSM    H2F18500   3.117   0.468   2.384  0.1246 -0.6750 -0.5260
  164OSM    H2G18501   3.076   0.586   2.519 -0.0885 -1.4942  1.4047
  164OSM    C3F18502   3.197   0.423   2.573 -0.4653 -0.4297  0.7287
  164OSM    H3F18503   3.277   0.367   2.519  2.4741  2.1022  2.1334
  164OSM    H3G18504   3.112   0.354   2.588 -1.9796  1.5421  1.7130
  164OSM    C4F18505   3.254   0.473   2.714 -0.5959 -0.5294 -0.1855
  164OSM    H4F18506   3.168   0.534   2.748 -0.6084 -0.9126  0.5050
  164OSM    H4G18507   3.328   0.552   2.689  0.4010 -0.8307  1.5761
  164OSM    C5F18508   3.283   0.371   2.817 -0.2691  0.7088 -0.1201
  164OSM    H5F18509   3.344   0.287   2.779  0.0249  1.5981 -1.6794
  164OSM    H5G18510   3.188   0.321   2.847  0.1789  0.3503  0.7615
  164OSM    C6F18511   3.331   0.438   2.944  0.1095 -0.1938 -0.2501
  164OSM    H6F18512   3.419   0.499   2.914 -0.2412  0.0110 -0.8814
  164OSM    H6G18513   3.371   0.361   3.013 -0.7811 -1.6902 -1.3397
  164OSM    C7F18514   3.229   0.523   3.028 -0.2719 -0.1044 -0.3752
  164OSM    H7F18515   3.144   0.454   3.049  1.0141 -0.8365  3.1446
  164OSM    H7G18516   3.185   0.604   2.966 -1.9695 -0.2332  0.5799
  164OSM    C8F18517   3.298   0.591   3.142 -0.1561 -0.1326 -0.0760
  164OSM    H8F18518   3.249   0.690   3.148  0.3750  0.0633  1.2186
  164OSM    H8G18519   3.394   0.632   3.104 -1.3276  1.8632 -1.0491
  164OSM    C9F18520   3.300   0.514   3.274 -0.6485  0.4007 -0.6533
  164OSM    H9F18521   3.342   0.413   3.264  1.6290  1.2475 -0.2824
  164OSM   C10F18522   3.257   0.557   3.398 -0.1428 -0.0732  0.6936
  164OSM   H10F18523   3.257   0.481   3.478 -1.1534 -0.3340  0.4576
  164OSM   C11F18524   3.196   0.695   3.424  0.0306  0.4571  0.0438
  164OSM   H11F18525   3.115   0.681   3.498 -0.2409 -1.6060 -0.5856
  164OSM   H11G18526   3.144   0.732   3.333 -0.6063  0.6857  0.4978
  164OSM   C12F18527   3.303   0.794   3.460  0.2054  0.3369 -0.1946
  164OSM   H12F18528   3.266   0.898   3.446 -0.4149  0.0190 -1.0216
  164OSM   H12G18529   3.393   0.791   3.395 -0.0884  0.7459 -0.6292
  164OSM   C13F18530   3.327   0.774   3.606  0.0215 -0.7955 -0.6252
  164OSM   H13F18531   3.404   0.848   3.637 -0.6059 -0.1244 -0.6305
  164OSM   H13G18532   3.368   0.673   3.624 -0.6374 -0.7729  1.2690
  164OSM   C14F18533   3.211   0.811   3.710 -0.0634  0.8582  0.4118
  164OSM   H14F18534   3.125   0.744   3.690  0.6799  1.0052 -4.4596
  164OSM   H14G18535   3.171   0.912   3.689  0.3287  1.6627  3.1142
  164OSM   C15F18536   3.250   0.789   3.851 -1.3157  0.1852 -0.3522
  164OSM   H15F18537   3.299   0.690   3.866  1.1107  1.5556  1.5183
  164OSM   H15G18538   3.157   0.798   3.911 -0.7610  0.0488  0.5433
  164OSM   C16F18539   3.345   0.891   3.917  0.3593 -0.0687  0.0370
  164OSM   H16F18540   3.317   0.995   3.889  0.7691  0.2684  0.8599
  164OSM   H16G18541   3.447   0.878   3.875  0.8409 -0.7972  1.3861
  164OSM   C17F18542   3.355   0.879   4.069 -0.2695  0.4273 -0.3691
  164OSM   H17F18543   3.418   0.788   4.079 -0.9849  0.1363  1.8781
  164OSM   H17G18544   3.258   0.869   4.123 -0.3607  0.8992 -0.4387
  164OSM   C18F18545   3.417   1.008   4.123  0.2841  0.0477  0.2860
  164OSM   H18F18546   3.369   1.096   4.073  0.3119 -0.6412 -1.0059
  164OSM   H18G18547   3.523   1.008   4.088 -0.8500 -1.7799 -3.8013
  164OSM   H18H18548   3.414   1.010   4.234 -1.6646  1.2475  0.2698
  165SAPS     N18549   2.824   3.125   6.623 -0.5669 -0.0455  0.3982
  165SAPS   HN118550   2.784   3.179   6.702 -2.8633 -2.0406  0.7367
  165SAPS   HN218551   2.759   3.119   6.542  0.1709 -3.8490 -0.0979
  165SAPS   HN318552   2.833   3.027   6.657 -2.2517 -1.8732 -3.7556
  165SAPS   C1218553   2.963   3.178   6.590  0.0416 -0.1712 -0.6848
  165SAPS  H12A18554   2.958   3.278   6.549  2.8183 -0.3062 -1.5999
  165SAPS   C1318555   3.065   3.185   6.702 -0.0186  0.4770 -0.1680
  165SAPS  O13A18556   3.041   3.133   6.811  0.0808  0.2374  0.3022
  165SAPS  O13B18557   3.186   3.206   6.671 -0.5004  0.2841  0.1815
  165SAPS   C1118558   3.011   3.103   6.465  0.3238 -0.5796 -0.0065
  165SAPS  H11A18559   3.060   3.006   6.486  0.4133 -0.9234 -1.6664
  165SAPS  H11B18560   3.103   3.155   6.430  0.2388  1.2287  2.2179
  165SAPS     P18561   2.880   3.203   6.260  0.1698  0.1487  0.3207
  165SAPS   O1318562   2.785   3.143   6.161 -0.0628  0.2996  0.3524
  165SAPS   O1418563   2.853   3.334   6.325 -0.1663 -0.4614  0.2642
  165SAPS   O1218564   2.915   3.091   6.363 -0.4890 -0.5881 -0.1229
  165SAPS   O1118565   3.019   3.228   6.185  0.6356 -0.0393  0.0684
  165SAPS    C118566   3.109   3.129   6.132 -0.2734  0.0325  0.1914
  165SAPS    HA18567   3.150   3.054   6.203  1.3497  0.8385  0.1467
  165SAPS    HB18568   3.061   3.082   6.044 -1.3908 -0.5048  1.0730
  165SAPS    C218569   3.237   3.196   6.076 -0.8970  0.5748  0.4294
  165SAPS    HS18570   3.272   3.266   6.156 -1.0285  1.9784 -0.6876
  165SAPS   O2118571   3.198   3.275   5.963  0.1328  0.5412  0.0106
  165SAPS   C2118572   3.274   3.383   5.944 -1.1051  0.8397  0.0885
  165SAPS   O2218573   3.373   3.420   6.006 -0.1983 -0.0126  0.5857
  165SAPS   C2218574   3.228   3.453   5.814  0.0627  0.6493  0.4689
  165SAPS   H2R18575   3.123   3.484   5.828 -0.4938  0.5811 -2.7479
  165SAPS   H2S18576   3.290   3.546   5.810  0.1564  0.6612  1.7612
  165SAPS    C318577   3.348   3.085   6.042 -0.0498  0.9193  0.7361
  165SAPS    HX18578   3.318   3.031   5.949  0.5992  0.0003  1.0481
  165SAPS    HY18579   3.361   3.006   6.118  0.3663 -1.7598 -1.9276
  165SAPS   O3118580   3.476   3.143   5.990 -0.0169  0.7780 -0.5054
  165SAPS   C3118581   3.546   3.201   6.094  0.2838 -0.2521  0.7087
  165SAPS   O3218582   3.518   3.195   6.209  0.2449  0.2074 -0.0007
  165SAPS   C3218583   3.684   3.234   6.037 -0.7969  0.0562  0.1462
  165SAPS   H2X18584   3.723   3.334   6.066  2.2164 -1.1974  0.8139
  165SAPS   H2Y18585   3.669   3.239   5.927  0.8426  1.7936 -0.0516
  165SAPS   C2318586   3.241   3.363   5.691 -0.3518 -0.6916  0.0984
  165SAPS   H3R18587   3.229   3.437   5.609  2.1186  0.7357  0.9352
  165SAPS   H3S18588   3.160   3.288   5.674 -1.7689  1.0124 -1.0957
  165SAPS   C2418589   3.374   3.278   5.679  0.3168  0.1492  0.3238
  165SAPS   H4R18590   3.363   3.210   5.591 -0.4904  2.0329 -1.1023
  165SAPS   H4S18591   3.377   3.190   5.747  0.6201 -1.8909 -2.1712
  165SAPS   C2518592   3.500   3.356   5.671  0.3156  0.3546  0.4455
  165SAPS   H5R18593   3.528   3.395   5.770 -0.7626  0.7389  0.6175
  165SAPS   C2618594   3.573   3.390   5.565 -0.0712  0.2873  0.6755
  165SAPS   H6R18595   3.658   3.459   5.581  1.2053 -1.0682  0.0188
  165SAPS   C2718596   3.568   3.337   5.423  0.3065  0.2618  0.3931
  165SAPS   H7R18597   3.504   3.246   5.419  2.6380 -1.5106  1.0991
  165SAPS   H7S18598   3.668   3.304   5.388 -0.2107 -1.0821  0.1220
  165SAPS   C2818599   3.509   3.434   5.319 -0.7689  0.1485 -0.4561
  165SAPS   H8R18600   3.425   3.493   5.359 -0.4719 -0.3340  0.9304
  165SAPS   C2918601   3.544   3.454   5.190  0.1168 -0.0273 -0.0196
  165SAPS   H9R18602   3.493   3.528   5.127  1.4269  1.7474  0.8844
  165SAPS  C21018603   3.649   3.372   5.118 -0.0523  0.4476 -0.3962
  165SAPS  H10R18604   3.744   3.380   5.175 -0.6772 -0.8560  0.8777
  165SAPS  H10S18605   3.680   3.417   5.021  0.7784  0.0457 -0.3306
  165SAPS  C21118606   3.631   3.224   5.107  0.8759  0.3141  0.1427
  165SAPS  H11R18607   3.531   3.193   5.139  0.8720  1.3219  1.1565
  165SAPS  C21218608   3.710   3.132   5.055  0.0669  0.2254  0.5736
  165SAPS  H12R18609   3.663   3.032   5.059  0.1949  0.1926  1.3490
  165SAPS  C21318610   3.850   3.140   4.996 -0.3118  0.5162 -0.1486
  165SAPS  H13R18611   3.918   3.089   5.068  1.3651  1.8947 -0.6606
  165SAPS  H13S18612   3.889   3.244   5.006  1.9447  0.0322 -2.7046
  165SAPS  C21418613   3.867   3.091   4.857 -0.6904  0.2986  0.1118
  165SAPS  H14R18614   3.789   3.130   4.789 -0.6192  2.6897  1.3101
  165SAPS  C21518615   3.964   3.006   4.815 -0.0019  0.8430 -0.1535
  165SAPS  H15R18616   3.968   2.976   4.709  4.3396 -1.8256  0.5246
  165SAPS  C21618617   4.085   2.963   4.893  0.5419  0.1274  0.0638
  165SAPS  H16R18618   4.061   2.965   5.002  0.6698  0.8589  0.0771
  165SAPS  H16S18619   4.168   3.036   4.882  0.5723  0.4455  1.9894
  165SAPS  C21718620   4.139   2.825   4.860 -0.5652 -0.3007 -0.5147
  165SAPS  H17R18621   4.168   2.825   4.752 -0.8024 -1.1690 -0.5884
  165SAPS  H17S18622   4.057   2.755   4.887 -0.2817 -0.2529  0.4930
  165SAPS  C21818623   4.272   2.785   4.936 -0.7129  0.4502 -0.1359
  165SAPS  H18R18624   4.240   2.770   5.042 -1.9313  1.3981 -0.3453
  165SAPS  H18S18625   4.347   2.867   4.934  0.5471 -0.5278  2.5417
  165SAPS  C21918626   4.356   2.664   4.878  0.1798 -0.3568 -0.0636
  165SAPS  H19R18627   4.315   2.561   4.886 -2.1918  0.5712  0.6019
  165SAPS  H19S18628   4.451   2.655   4.935  0.6279  1.0949 -0.5289
  165SAPS  C22018629   4.404   2.695   4.735 -0.3946  0.5476 -0.0040
  165SAPS  H20R18630   4.463   2.609   4.696 -1.9149 -1.0741  1.1297
  165SAPS  H20S18631   4.459   2.791   4.742  0.8879 -0.1965  0.4856
  165SAPS  H20T18632   4.312   2.711   4.674 -1.1746  0.7878  1.2190
  165SAPS   C3318633   3.802   3.139   6.061 -0.0872  0.2126  0.0455
  165SAPS   H3X18634   3.772   3.032   6.055 -2.9299  1.0050 -1.4939
  165SAPS   H3Y18635   3.837   3.155   6.165 -0.2582 -0.7433  0.2576
  165SAPS   C3418636   3.923   3.168   5.973  0.0741 -0.0800 -0.1539
  165SAPS   H4X18637   3.991   3.089   6.013 -0.1479  0.6864  1.8503
  165SAPS   H4Y18638   3.979   3.263   5.976  1.4166 -0.8259 -0.8948
  165SAPS   C3518639   3.906   3.146   5.815 -0.3343 -0.2086 -0.8663
  165SAPS   H5X18640   3.817   3.081   5.799 -0.4718 -1.0390  2.5856
  165SAPS   H5Y18641   3.997   3.088   5.787  1.4236  1.8206  0.2949
  165SAPS   C3618642   3.905   3.277   5.731 -0.4124  0.2737  0.3745
  165SAPS   H6X18643   3.815   3.336   5.759 -0.1469  0.8340  0.0443
  165SAPS   H6Y18644   3.897   3.249   5.624 -3.0121 -1.0282  0.8167
  165SAPS   C3718645   4.034   3.353   5.742 -0.1563 -0.2684 -0.8009
  165SAPS   H7X18646   4.115   3.306   5.682  0.9159 -0.1785  0.5064
  165SAPS   H7Y18647   4.076   3.354   5.845 -0.0140 -0.5181 -0.8561
  165SAPS   C3818648   4.024   3.500   5.707 -0.6727 -0.2550  0.5536
  165SAPS   H8X18649   4.125   3.548   5.716  0.1403 -1.1918 -2.4289
  165SAPS   H8Y18650   3.950   3.566   5.758 -0.8838 -0.0628  0.0030
  165SAPS   C3918651   3.998   3.510   5.551 -0.4437  0.8072 -0.6668
  165SAPS   H9X18652   3.913   3.444   5.522  1.3179 -2.9589  1.9095
  165SAPS   H9Y18653   4.087   3.456   5.511 -1.0492 -0.0636 -0.8754
  165SAPS  C31018654   3.965   3.647   5.495  0.7606  0.0104  0.3578
  165SAPS  H10X18655   4.043   3.724   5.512 -1.4720  2.8174 -1.2506
  165SAPS  H10Y18656   3.866   3.678   5.535 -0.0948 -1.1013 -0.7885
  165SAPS  C31118657   3.957   3.637   5.339  0.6248 -0.0289 -0.2908
  165SAPS  H11X18658   3.870   3.573   5.312 -0.9035  1.3644  1.0704
  165SAPS  H11Y18659   4.051   3.594   5.298  0.2929  0.8074 -2.0476
  165SAPS  C31218660   3.922   3.767   5.260 -0.1606 -0.2071  0.2879
  165SAPS  H12X18661   4.004   3.836   5.289  1.6214 -0.3673 -3.7762
  165SAPS  H12Y18662   3.826   3.807   5.298  0.2755  1.2351 -0.0866
  165SAPS  C31318663   3.915   3.740   5.109  0.3865 -0.1489 -0.2546
  165SAPS  H13X18664   3.859   3.650   5.078 -0.7639  0.9595 -1.5124
  165SAPS  H13Y18665   4.014   3.709   5.069 -0.6407 -2.8452 -0.8661
  165SAPS  C31418666   3.877   3.862   5.024 -0.1635  0.2638 -0.2773
  165SAPS  H14X18667   3.914   3.945   5.087  0.9318 -2.0892  2.3482
  165SAPS  H14Y18668   3.766   3.867   5.014 -0.4961 -0.0436  2.6424
  165SAPS  C31518669   3.949   3.859   4.889  0.3761  0.4337  0.3285
  165SAPS  H15X18670   4.045   3.806   4.907  0.9210  0.6940 -1.5614
  165SAPS  H15Y18671   3.972   3.962   4.854 -1.6372  1.4327  1.7815
  165SAPS  C31618672   3.877   3.783   4.778  0.2531  0.3567  0.2649
  165SAPS  H16X18673   3.783   3.837   4.750 -0.6221 -2.7755 -3.7435
  165SAPS  H16Y18674   3.839   3.689   4.823 -1.9509  0.4206 -1.2729
  165SAPS  C31718675   3.957   3.771   4.647 -0.0326 -0.4980 -0.3986
  165SAPS  H17X18676   4.039   3.701   4.675  1.1560  1.2332  0.6378
  165SAPS  H17Y18677   4.004   3.867   4.615  0.7009 -0.9797 -0.8129
  165SAPS  C31818678   3.877   3.721   4.535 -0.3828 -0.7729 -0.0188
  165SAPS  H18X18679   3.790   3.657   4.564  0.1469 -1.6756 -0.3735
  165SAPS  H18Y18680   3.944   3.663   4.468 -0.1705 -0.3650 -0.1577
  165SAPS  H18Z18681   3.849   3.811   4.476 -2.6187 -1.3927 -0.0116
  166SAPS     N18682   1.078   4.586   6.609 -0.3714  0.2483  0.2238
  166SAPS   HN118683   1.104   4.599   6.709  2.4653  1.7506 -0.6034
  166SAPS   HN218684   1.099   4.491   6.572 -0.4502  0.9755 -1.7676
  166SAPS   HN318685   1.127   4.648   6.541  0.1397 -1.6290 -1.2016
  166SAPS   C1218686   0.929   4.610   6.609 -0.3632  0.2862  0.7605
  166SAPS  H12A18687   0.873   4.518   6.623 -0.2629  0.4082  2.1238
  166SAPS   C1318688   0.891   4.704   6.728 -0.1596  0.0781  0.9955
  166SAPS  O13A18689   0.978   4.748   6.807 -0.3700 -0.3483 -0.1115
  166SAPS  O13B18690   0.767   4.723   6.752 -0.7531  0.4145  0.1929
  166SAPS   C1118691   0.900   4.669   6.474  0.2631 -0.5288  0.6738
  166SAPS  H11A18692   0.951   4.767   6.458  1.2617 -1.1556 -0.0476
  166SAPS  H11B18693   0.792   4.694   6.482  0.1600 -0.7839  0.0783
  166SAPS     P18694   0.796   4.504   6.301  0.1170  0.2634 -0.0986
  166SAPS   O1318695   0.838   4.391   6.217  0.7503  0.0989 -0.4247
  166SAPS   O1418696   0.701   4.466   6.409  0.2538 -1.0106  0.2740
  166SAPS   O1218697   0.923   4.583   6.363  0.0977  0.0260 -0.5837
  166SAPS   O1118698   0.724   4.607   6.207  0.1210 -0.6190  0.1067
  166SAPS    C118699   0.784   4.720   6.144  0.0202 -0.4339  0.9529
  166SAPS    HA18700   0.735   4.814   6.176 -2.4833 -1.2808 -0.1204
  166SAPS    HB18701   0.892   4.736   6.161  0.2551  0.6241 -1.2280
  166SAPS    C218702   0.760   4.703   5.989 -0.5160  0.1829 -0.1974
  166SAPS    HS18703   0.657   4.671   5.963  0.1340  0.4020 -3.3988
  166SAPS   O2118704   0.862   4.605   5.952  0.4406 -0.1916  0.3923
  166SAPS   C2118705   0.822   4.513   5.860  1.1712 -1.0849 -0.0602
  166SAPS   O2218706   0.715   4.515   5.794  0.4314  0.0541  0.6250
  166SAPS   C2218707   0.925   4.398   5.850  0.0547  0.2564  0.7302
  166SAPS   H2R18708   1.014   4.434   5.794 -0.8198  4.1869  1.5518
  166SAPS   H2S18709   0.950   4.357   5.950 -0.3275 -2.1631 -0.0913
  166SAPS    C318710   0.803   4.837   5.915 -0.4306 -0.3174 -0.4903
  166SAPS    HX18711   0.906   4.870   5.939 -1.0226  0.7632  0.7055
  166SAPS    HY18712   0.745   4.923   5.956  0.0512 -0.0366 -0.3984
  166SAPS   O3118713   0.778   4.830   5.774  0.3208  0.2283 -0.1014
  166SAPS   C3118714   0.655   4.818   5.733 -0.3369  0.0630  0.1592
  166SAPS   O3218715   0.554   4.818   5.801 -0.1440  0.0417  0.0916
  166SAPS   C3218716   0.660   4.789   5.583  0.2987  0.4043 -0.8650
  166SAPS   H2X18717   0.694   4.683   5.573  0.8968  0.6022 -0.9741
  166SAPS   H2Y18718   0.740   4.851   5.537  1.9821 -1.6771 -0.8786
  166SAPS   C2318719   0.862   4.279   5.773 -0.0988  0.8044  1.0622
  166SAPS   H3R18720   0.809   4.308   5.679 -0.0620 -1.5498  0.2582
  166SAPS   H3S18721   0.776   4.239   5.831  0.2951 -1.4947  0.1801
  166SAPS   C2418722   0.971   4.169   5.740  0.4938 -0.2015  0.4204
  166SAPS   H4R18723   1.009   4.139   5.840 -1.4042 -1.4443  0.8156
  166SAPS   H4S18724   1.061   4.204   5.685 -0.6065 -0.5698 -1.7071
  166SAPS   C2518725   0.915   4.041   5.679  0.8275  0.0344 -0.2600
  166SAPS   H5R18726   0.886   3.965   5.754 -2.6066  1.1971 -0.2343
  166SAPS   C2618727   0.914   4.008   5.545  0.0038 -0.7210 -0.7538
  166SAPS   H6R18728   0.858   3.917   5.518 -0.5581 -1.6439  2.9672
  166SAPS   C2718729   0.962   4.107   5.439  0.0483 -0.0568  0.8610
  166SAPS   H7R18730   1.072   4.119   5.446  0.9019 -0.7746 -5.5646
  166SAPS   H7S18731   0.914   4.205   5.460 -0.4347 -0.4487  1.6441
  166SAPS   C2818732   0.943   4.056   5.300  0.2440 -0.1459 -0.2465
  166SAPS   H8R18733   0.899   3.956   5.287 -0.5749  0.0605  0.8533
  166SAPS   C2918734   0.977   4.114   5.184  0.3907  0.4828 -0.4606
  166SAPS   H9R18735   0.953   4.066   5.088 -0.5103  1.8030 -0.9351
  166SAPS  C21018736   1.031   4.251   5.164 -0.2894  0.0951 -0.5846
  166SAPS  H10R18737   1.013   4.313   5.254 -1.5708  0.5995 -1.1591
  166SAPS  H10S18738   0.967   4.291   5.083 -0.6065  0.7787 -0.0087
  166SAPS  C21118739   1.181   4.281   5.131  0.7843  0.6049 -0.4899
  166SAPS  H11R18740   1.242   4.329   5.209  0.8987  0.6149 -0.5860
  166SAPS  C21218741   1.239   4.240   5.020 -0.7617 -0.0418  0.7177
  166SAPS  H12R18742   1.348   4.251   5.016 -0.9349  1.8928  0.4429
  166SAPS  C21318743   1.174   4.173   4.901 -0.4329  0.3911 -0.4117
  166SAPS  H13R18744   1.074   4.219   4.885 -0.8204 -0.6204 -0.9813
  166SAPS  H13S18745   1.153   4.067   4.926  0.6607  0.2905  0.1333
  166SAPS  C21418746   1.265   4.159   4.781  0.0245 -0.2707  0.4949
  166SAPS  H14R18747   1.370   4.133   4.797  0.3653  0.7142 -0.0261
  166SAPS  C21518748   1.229   4.179   4.653 -0.2001 -0.5838 -0.3877
  166SAPS  H15R18749   1.301   4.154   4.573 -1.5892 -1.1605 -1.4857
  166SAPS  C21618750   1.099   4.217   4.600  0.0283  0.7490 -0.1635
  166SAPS  H16R18751   1.104   4.323   4.568  0.7408  1.6208  2.6050
  166SAPS  H16S18752   1.016   4.201   4.672 -2.2795 -0.5016 -2.8954
  166SAPS  C21718753   1.056   4.124   4.482  0.1452  0.5868  0.4684
  166SAPS  H17R18754   0.954   4.163   4.462 -1.1247 -1.9187  1.6249
  166SAPS  H17S18755   1.036   4.020   4.516 -2.3432  0.2776 -1.6416
  166SAPS  C21818756   1.144   4.129   4.351 -0.3419 -0.4126 -0.7651
  166SAPS  H18R18757   1.241   4.078   4.370 -1.1295 -1.2371  1.3133
  166SAPS  H18S18758   1.163   4.235   4.322 -0.3342 -0.0424  0.5268
  166SAPS  C21918759   1.074   4.053   4.241  0.2827 -0.1964 -0.5668
  166SAPS  H19R18760   0.965   4.075   4.251 -0.2613 -1.7992 -2.3200
  166SAPS  H19S18761   1.065   3.945   4.265  0.0719  0.1830  1.2251
  166SAPS  C22018762   1.124   4.074   4.106  0.5280 -0.3870 -0.7071
  166SAPS  H20R18763   1.206   3.999   4.102 -0.1908 -1.4277  2.0438
  166SAPS  H20S18764   1.170   4.172   4.082  0.3595 -0.6065 -2.0057
  166SAPS  H20T18765   1.067   4.047   4.014  2.9698  0.2148 -2.5130
  166SAPS   C3318766   0.522   4.812   5.527 -0.1039 -0.4186  0.3708
  166SAPS   H3X18767   0.499   4.919   5.548 -1.2964 -0.0198 -2.5379
  166SAPS   H3Y18768   0.441   4.756   5.578  0.1272  0.7532  2.1009
  166SAPS   C3418769   0.527   4.777   5.375  0.2294  0.7560  0.2862
  166SAPS   H4X18770   0.435   4.817   5.327  1.5610  2.4638 -0.9480
  166SAPS   H4Y18771   0.521   4.666   5.368 -2.3237  0.8200  0.5652
  166SAPS   C3518772   0.633   4.826   5.279 -0.5623 -0.3122  0.4712
  166SAPS   H5X18773   0.729   4.789   5.321 -1.5809 -1.3594  2.0010
  166SAPS   H5Y18774   0.639   4.936   5.289 -2.0816 -0.0943 -0.6991
  166SAPS   C3618775   0.618   4.788   5.132  0.1852 -0.1821 -0.0662
  166SAPS   H6X18776   0.616   4.678   5.116 -0.2609 -0.2016  0.1098
  166SAPS   H6Y18777   0.712   4.819   5.081  0.3871 -0.1407  0.3275
  166SAPS   C3718778   0.498   4.859   5.066  0.1659 -0.1630  0.0559
  166SAPS   H7X18779   0.508   4.969   5.073 -2.5227  0.3797 -2.4780
  166SAPS   H7Y18780   0.407   4.827   5.121 -0.5013  0.1521 -0.8384
  166SAPS   C3818781   0.484   4.835   4.921 -0.4600 -0.0464  0.0376
  166SAPS   H8X18782   0.454   4.728   4.916 -0.6868  0.0255 -0.1369
  166SAPS   H8Y18783   0.578   4.845   4.862 -1.2119  0.3390 -1.1444
  166SAPS   C3918784   0.383   4.933   4.857  0.4613 -0.0440  0.3585
  166SAPS   H9X18785   0.428   5.032   4.880 -0.5131  0.7561 -1.0244
  166SAPS   H9Y18786   0.290   4.927   4.918  0.6617  1.1959  0.8210
  166SAPS  C31018787   0.358   4.923   4.706 -0.0397 -0.1373  0.9995
  166SAPS  H10X18788   0.445   4.956   4.645  0.9372  0.5534  2.6859
  166SAPS  H10Y18789   0.282   5.001   4.682  0.2314 -0.0840  0.2986
  166SAPS  C31118790   0.326   4.783   4.650 -0.5510 -0.0167  0.1645
  166SAPS  H11X18791   0.237   4.745   4.705  0.4640  0.1112  1.9882
  166SAPS  H11Y18792   0.411   4.713   4.668  0.0987  1.2080  2.2748
  166SAPS  C31218793   0.284   4.781   4.496 -0.0998 -0.0617 -0.1612
  166SAPS  H12X18794   0.374   4.818   4.442 -1.6431  2.4684 -1.1703
  166SAPS  H12Y18795   0.207   4.857   4.473 -0.7370 -0.0348  1.8540
  166SAPS  C31318796   0.260   4.637   4.451  0.0943 -0.0572  0.0480
  166SAPS  H13X18797   0.162   4.602   4.489  0.9443 -2.3887  0.2854
  166SAPS  H13Y18798   0.336   4.569   4.496  1.0264 -0.6113 -2.1884
  166SAPS  C31418799   0.240   4.619   4.297  0.3889 -0.7575 -0.4823
  166SAPS  H14X18800   0.331   4.649   4.240  0.0369 -0.1580 -0.7385
  166SAPS  H14Y18801   0.162   4.682   4.250  0.0356 -1.5672 -1.0079
  166SAPS  C31518802   0.182   4.480   4.256 -0.4765  0.3721  0.1092
  166SAPS  H15X18803   0.103   4.452   4.330  1.0004 -1.2792  1.1513
  166SAPS  H15Y18804   0.262   4.404   4.269 -1.3472 -0.9478 -1.7991
  166SAPS  C31618805   0.128   4.467   4.116  0.3368  0.5392 -0.5331
  166SAPS  H16X18806   0.052   4.548   4.111 -0.6133 -0.2325  0.7037
  166SAPS  H16Y18807   0.081   4.367   4.099  1.3417 -0.9030  3.8125
  166SAPS  C31718808   0.231   4.487   4.007  0.5861  0.3184 -0.3792
  166SAPS  H17X18809   0.302   4.402   4.016 -0.1433 -0.3459 -0.6978
  166SAPS  H17Y18810   0.279   4.587   4.011 -1.3685  1.2588  2.2725
  166SAPS  C31818811   0.175   4.477   3.864  0.2341 -0.4172 -0.0318
  166SAPS  H18X18812   0.077   4.528   3.860  0.5292  0.0644 -1.8097
  166SAPS  H18Y18813   0.169   4.374   3.823 -1.3365  0.5813 -2.5151
  166SAPS  H18Z18814   0.244   4.529   3.794  0.6046  1.2999  1.5293
  167SAPS     N18815   4.903   5.302   6.862 -0.5800  0.1583 -0.3318
  167SAPS   HN118816   4.886   5.338   6.766 -1.6508 -0.2598 -0.3046
  167SAPS   HN218817   4.819   5.248   6.890 -0.0306 -0.9189 -0.6958
  167SAPS   HN318818   4.913   5.382   6.928  2.3276 -0.2261 -0.1453
  167SAPS   C1218819   5.022   5.213   6.861  0.1360  0.1542  0.8178
  167SAPS  H12A18820   5.103   5.266   6.813 -0.4932 -1.3343 -2.1005
  167SAPS   C1318821   5.073   5.166   7.002  0.4878  0.3499  0.2824
  167SAPS  O13A18822   4.999   5.185   7.104  0.1673  0.3021  0.0945
  167SAPS  O13B18823   5.186   5.125   7.022  0.3148  0.6179  0.6912
  167SAPS   C1118824   4.982   5.082   6.783  0.4302  0.1966 -0.1333
  167SAPS  H11A18825   4.907   5.031   6.847  1.2489 -1.9758 -0.8271
  167SAPS  H11B18826   5.075   5.023   6.776  1.9418  2.5420 -1.1892
  167SAPS     P18827   4.876   4.983   6.567  0.0710  0.1025 -0.0039
  167SAPS   O1318828   4.900   4.852   6.634  0.3076 -0.3829 -0.2671
  167SAPS   O1418829   4.739   5.018   6.525  0.2374 -0.3306 -0.1324
  167SAPS   O1218830   4.916   5.105   6.661  0.5162 -0.7013 -0.5405
  167SAPS   O1118831   4.979   5.003   6.445  0.4405  0.4878  0.0918
  167SAPS    C118832   5.007   5.141   6.401 -0.5143  0.1590  0.1353
  167SAPS    HA18833   5.041   5.201   6.489  1.0065 -0.5742  0.0927
  167SAPS    HB18834   5.090   5.151   6.328 -0.1702  1.5608  0.6832
  167SAPS    C218835   4.892   5.197   6.318 -0.0028  0.3369  0.3344
  167SAPS    HS18836   4.807   5.198   6.390 -0.7689  1.7598 -0.5401
  167SAPS   O2118837   4.879   5.129   6.195 -0.0788  0.1523 -0.1232
  167SAPS   C2118838   4.749   5.127   6.157 -0.0928  0.2860 -0.9184
  167SAPS   O2218839   4.650   5.154   6.225 -0.5728 -0.0586  0.0385
  167SAPS   C2218840   4.728   5.080   6.016 -0.3637  0.8195 -0.2197
  167SAPS   H2R18841   4.621   5.066   5.994 -0.5807  3.1254 -0.8320
  167SAPS   H2S18842   4.749   5.161   5.943  1.0766  0.4177 -0.3008
  167SAPS    C318843   4.935   5.342   6.282 -0.5267  0.2965  0.2531
  167SAPS    HX18844   5.030   5.336   6.226  0.0975 -0.4656  1.3649
  167SAPS    HY18845   4.970   5.383   6.379  2.1592 -1.1094 -0.0287
  167SAPS   O3118846   4.831   5.420   6.216 -0.1168 -0.0851 -0.0146
  167SAPS   C3118847   4.884   5.534   6.176 -0.1650 -0.1860  0.7905
  167SAPS   O3218848   4.994   5.578   6.200 -0.0528 -0.5118 -0.4855
  167SAPS   C3218849   4.788   5.600   6.077  0.2139  0.1672  0.7946
  167SAPS   H2X18850   4.836   5.697   6.053 -0.3745  0.6442  1.4749
  167SAPS   H2Y18851   4.687   5.622   6.119  0.1720 -0.2602  0.9249
  167SAPS   C2318852   4.810   4.954   5.976 -0.0802 -0.0718  0.3972
  167SAPS   H3R18853   4.918   4.960   6.004  0.4051 -0.5173 -1.2882
  167SAPS   H3S18854   4.819   4.962   5.866  0.5278 -1.2393  0.3477
  167SAPS   C2418855   4.749   4.819   6.030  0.4372 -0.2684  0.5005
  167SAPS   H4R18856   4.738   4.820   6.140 -0.4410 -1.6717  0.4411
  167SAPS   H4S18857   4.822   4.738   6.008  1.5845 -0.3701  4.0617
  167SAPS   C2518858   4.611   4.795   5.965  0.1403  0.4391  0.0503
  167SAPS   H5R18859   4.524   4.833   6.019  0.4304 -0.1841  0.9839
  167SAPS   C2618860   4.598   4.744   5.841  0.1480  1.1778  0.5876
  167SAPS   H6R18861   4.497   4.726   5.801 -0.5789  1.9926  1.9929
  167SAPS   C2718862   4.719   4.702   5.753 -0.1490  0.7242  0.1407
  167SAPS   H7R18863   4.689   4.598   5.732  0.2617  0.9903 -1.9434
  167SAPS   H7S18864   4.807   4.688   5.820 -0.4246  0.4887  0.4546
  167SAPS   C2818865   4.752   4.775   5.627 -0.6963  0.1751  0.2094
  167SAPS   H8R18866   4.798   4.873   5.641  1.1248 -0.4299 -1.1669
  167SAPS   C2918867   4.739   4.734   5.500 -0.2617 -0.1819  0.0249
  167SAPS   H9R18868   4.786   4.794   5.421 -0.9094  0.5457  0.1860
  167SAPS  C21018869   4.683   4.603   5.450  0.0372 -0.2585 -0.2504
  167SAPS  H10R18870   4.643   4.534   5.528  0.1336 -1.1162 -0.9302
  167SAPS  H10S18871   4.758   4.537   5.402 -1.2716  0.4681 -3.5712
  167SAPS  C21118872   4.580   4.631   5.346 -0.1990 -0.4948 -0.5930
  167SAPS  H11R18873   4.628   4.675   5.257  2.2105  1.0271  1.3481
  167SAPS  C21218874   4.448   4.622   5.356  0.3763  0.7739 -0.1953
  167SAPS  H12R18875   4.387   4.639   5.266 -0.1391 -0.0562 -0.0081
  167SAPS  C21318876   4.373   4.568   5.481 -0.0887  0.0373  1.0697
  167SAPS  H13R18877   4.399   4.637   5.565 -1.3179  1.6973  0.1482
  167SAPS  H13S18878   4.419   4.472   5.512 -0.6833 -0.7695 -0.4580
  167SAPS  C21418879   4.227   4.522   5.473 -0.9669 -0.0275  0.6440
  167SAPS  H14R18880   4.187   4.497   5.373  1.1522  1.7339 -0.7253
  167SAPS  C21518881   4.147   4.516   5.580  0.2583  0.0340 -0.4409
  167SAPS  H15R18882   4.053   4.460   5.569  0.0424  0.7011 -2.3122
  167SAPS  C21618883   4.186   4.562   5.721  0.2649 -0.6855 -0.1097
  167SAPS  H16R18884   4.106   4.613   5.778 -0.8440  0.1311 -2.2494
  167SAPS  H16S18885   4.266   4.638   5.719  0.3862 -0.8228 -1.1141
  167SAPS  C21718886   4.254   4.448   5.803  0.2037  0.0068  0.0416
  167SAPS  H17R18887   4.349   4.409   5.760  0.4669  1.6515 -0.9685
  167SAPS  H17S18888   4.177   4.368   5.815  0.6174 -0.1762  1.7211
  167SAPS  C21818889   4.297   4.507   5.937 -0.1277  0.4416 -0.4680
  167SAPS  H18R18890   4.215   4.566   5.985  0.9878  0.1001  2.0318
  167SAPS  H18S18891   4.384   4.571   5.911 -1.2536  1.8841 -0.8203
  167SAPS  C21918892   4.336   4.404   6.037 -0.0988 -1.2894 -0.1125
  167SAPS  H19R18893   4.436   4.363   6.010  0.1062 -0.3999 -0.7414
  167SAPS  H19S18894   4.263   4.321   6.033 -0.3011 -1.0951 -0.5135
  167SAPS  C22018895   4.333   4.466   6.173 -0.0840  0.0807 -0.5312
  167SAPS  H20R18896   4.355   4.382   6.243 -0.1582 -1.0226 -1.7959
  167SAPS  H20S18897   4.236   4.503   6.214 -0.1166 -0.3035 -0.2589
  167SAPS  H20T18898   4.406   4.550   6.174 -0.2595  0.2692 -1.8534
  167SAPS   C3318899   4.761   5.515   5.951  0.1808  0.3970 -0.8053
  167SAPS   H3X18900   4.720   5.421   5.995 -3.1277  2.2056  0.2807
  167SAPS   H3Y18901   4.862   5.501   5.907  0.6580 -0.1227  0.4154
  167SAPS   C3418902   4.661   5.576   5.854 -0.1349 -0.0428 -0.1815
  167SAPS   H4X18903   4.696   5.677   5.826 -2.3577  0.6896 -0.5137
  167SAPS   H4Y18904   4.565   5.580   5.911 -0.7613 -0.8175 -1.1498
  167SAPS   C3518905   4.638   5.496   5.728 -0.4167 -0.2690 -0.1098
  167SAPS   H5X18906   4.556   5.528   5.660  0.7465  1.0395 -0.9371
  167SAPS   H5Y18907   4.629   5.387   5.748  0.5727 -0.9219 -2.7397
  167SAPS   C3618908   4.768   5.498   5.645 -0.2533 -0.2880 -0.6056
  167SAPS   H6X18909   4.845   5.431   5.689 -0.5355 -1.7202 -2.1802
  167SAPS   H6Y18910   4.812   5.600   5.646  3.5012 -1.7327 -1.3092
  167SAPS   C3718911   4.753   5.456   5.502  0.1200 -0.4170 -0.1811
  167SAPS   H7X18912   4.660   5.498   5.458 -1.3499 -1.4664  1.7828
  167SAPS   H7Y18913   4.739   5.346   5.507 -1.0600 -0.3896 -2.0729
  167SAPS   C3818914   4.869   5.479   5.408 -0.5317 -0.1078  0.0532
  167SAPS   H8X18915   4.964   5.428   5.433  0.4150  0.6269 -1.8267
  167SAPS   H8Y18916   4.877   5.590   5.414  0.0899 -0.2394  2.6414
  167SAPS   C3918917   4.844   5.427   5.266  0.5546  0.5239 -0.4609
  167SAPS   H9X18918   4.739   5.447   5.237  0.1858  1.8211  1.5900
  167SAPS   H9Y18919   4.852   5.317   5.267  1.6729  0.5869 -0.1642
  167SAPS  C31018920   4.938   5.483   5.164  0.0013  0.4602  0.2036
  167SAPS  H10X18921   5.047   5.476   5.184  0.9746  1.5308 -3.7566
  167SAPS  H10Y18922   4.922   5.589   5.135 -2.6234  0.1971  0.3776
  167SAPS  C31118923   4.916   5.427   5.017 -0.1688  0.2040 -0.5541
  167SAPS  H11X18924   4.967   5.494   4.944  0.3827 -0.8279 -1.1392
  167SAPS  H11Y18925   4.805   5.425   5.012 -0.2850  0.0328  1.4487
  167SAPS  C31218926   4.970   5.288   5.002  0.0375  0.7559  0.5203
  167SAPS  H12X18927   4.915   5.217   5.068  0.1757  1.6510  1.6180
  167SAPS  H12Y18928   5.078   5.279   5.028  0.4354  1.1842 -0.8907
  167SAPS  C31318929   4.962   5.234   4.856 -0.7105 -0.1447  0.3799
  167SAPS  H13X18930   5.029   5.305   4.803 -1.3589  1.1660  1.2816
  167SAPS  H13Y18931   4.861   5.245   4.813 -0.5304 -0.5376 -0.1525
  167SAPS  C31418932   5.021   5.092   4.846 -0.6312  0.0940  0.0072
  167SAPS  H14X18933   5.121   5.088   4.894 -0.7838 -0.3419  0.2950
  167SAPS  H14Y18934   5.036   5.065   4.739  3.0613 -0.2884  0.4833
  167SAPS  C31518935   4.939   4.973   4.898  0.4880  0.5947 -0.0703
  167SAPS  H15X18936   4.848   4.952   4.838 -0.4836  2.0983  0.8180
  167SAPS  H15Y18937   4.903   5.014   4.995  0.1860  1.2146 -0.4328
  167SAPS  C31618938   5.026   4.840   4.913  0.1468  0.9746  0.3813
  167SAPS  H16X18939   5.113   4.865   4.977  0.4885 -1.0968  0.7919
  167SAPS  H16Y18940   5.074   4.827   4.814  0.4709 -2.1610  0.8479
  167SAPS  C31718941   4.941   4.718   4.954 -0.6168 -0.2258  0.4747
  167SAPS  H17X18942   5.018   4.639   4.970  0.3395  0.4824 -0.4762
  167SAPS  H17Y18943   4.869   4.690   4.874 -0.6960  1.4598 -0.0833
  167SAPS  C31818944   4.861   4.745   5.085  0.2056 -0.5220  0.8095
  167SAPS  H18X18945   4.934   4.784   5.160  3.2505 -1.3504 -1.5458
  167SAPS  H18Y18946   4.831   4.643   5.117  0.1494 -1.0543 -0.8670
  167SAPS  H18Z18947   4.781   4.818   5.059  3.1606  2.1940 -1.5377
  168SAPS     N18948   2.500   3.197   6.264 -0.0338  0.1751 -0.1267
  168SAPS   HN118949   2.450   3.118   6.219  1.1912  0.2570 -1.7178
  168SAPS   HN218950   2.472   3.284   6.214  0.5429  0.8285  0.6705
  168SAPS   HN318951   2.603   3.185   6.256  0.0833  1.6605 -1.2924
  168SAPS   C1218952   2.455   3.211   6.402 -0.4654  0.2498 -0.5941
  168SAPS  H12A18953   2.350   3.198   6.420 -0.3301  1.8778  1.9553
  168SAPS   C1318954   2.529   3.112   6.500  0.1019 -0.6731  0.1033
  168SAPS  O13A18955   2.634   3.049   6.461  0.1000  0.3850 -0.0429
  168SAPS  O13B18956   2.486   3.097   6.614  0.5174 -0.5190  0.1952
  168SAPS   C1118957   2.494   3.356   6.450  0.1404  0.5849 -0.3766
  168SAPS  H11A18958   2.604   3.346   6.458  0.3345  1.2998 -1.8895
  168SAPS  H11B18959   2.456   3.373   6.553 -0.5680  1.5128 -0.7779
  168SAPS     P18960   2.474   3.607   6.408 -0.1358 -0.5585 -0.7425
  168SAPS   O1318961   2.346   3.670   6.455 -0.0902  0.6260  0.3504
  168SAPS   O1418962   2.588   3.612   6.498 -0.8575 -0.3504 -0.9627
  168SAPS   O1218963   2.448   3.456   6.366  0.0976 -0.0150  0.3075
  168SAPS   O1118964   2.520   3.678   6.272 -0.6334 -0.0937  0.0866
  168SAPS    C118965   2.441   3.684   6.154  0.5378  0.4922 -0.0520
  168SAPS    HA18966   2.397   3.586   6.127  1.0070  0.6691 -1.5827
  168SAPS    HB18967   2.363   3.763   6.163  1.5169  1.7022 -1.4780
  168SAPS    C218968   2.536   3.732   6.045  0.4541 -0.3399 -0.0849
  168SAPS    HS18969   2.475   3.726   5.952 -0.1099  0.3007  0.2328
  168SAPS   O2118970   2.655   3.658   6.030 -0.0369  0.1551  0.2114
  168SAPS   C2118971   2.652   3.540   5.961 -0.0770 -0.2911  0.5997
  168SAPS   O2218972   2.553   3.488   5.909 -0.0448 -0.1347  0.0518
  168SAPS   C2218973   2.792   3.491   5.966  0.8391 -0.2132 -0.5146
  168SAPS   H2R18974   2.868   3.563   5.930  1.4932 -0.2778  0.6756
  168SAPS   H2S18975   2.820   3.477   6.072  1.4708  0.5781 -0.5675
  168SAPS    C318976   2.569   3.884   6.059 -0.2642 -0.3694 -0.4054
  168SAPS    HX18977   2.663   3.904   6.003 -1.3297  3.2473 -1.1898
  168SAPS    HY18978   2.594   3.904   6.165  1.6310  0.6281 -0.9916
  168SAPS   O3118979   2.457   3.971   6.030 -0.3985 -0.0314 -0.9590
  168SAPS   C3118980   2.495   4.102   6.011  0.0483  0.3983 -0.4191
  168SAPS   O3218981   2.608   4.139   6.039  0.0721  0.1384 -0.8203
  168SAPS   C3218982   2.384   4.191   5.965  0.2588  0.1187  0.5941
  168SAPS   H2X18983   2.420   4.296   5.968  0.0104  0.1902  1.4155
  168SAPS   H2Y18984   2.316   4.202   6.052  0.9607 -0.6223  1.2563
  168SAPS   C2318985   2.812   3.360   5.888  0.0111  0.2700 -0.0371
  168SAPS   H3R18986   2.750   3.281   5.936  0.5955  0.5115  1.1601
  168SAPS   H3S18987   2.920   3.333   5.893  0.7221  2.8960  0.3702
  168SAPS   C2418988   2.775   3.374   5.742 -0.3815 -0.1537 -0.1155
  168SAPS   H4R18989   2.775   3.483   5.721 -0.9269 -0.1307 -0.0164
  168SAPS   H4S18990   2.667   3.346   5.732 -0.7422  1.6435 -1.7636
  168SAPS   C2518991   2.865   3.304   5.639  0.4335  0.0044  0.1175
  168SAPS   H5R18992   2.886   3.205   5.682 -0.6999 -0.6271 -0.7183
  168SAPS   C2618993   2.910   3.341   5.518 -0.8922 -0.4623  0.0906
  168SAPS   H6R18994   2.959   3.268   5.451 -2.1602 -1.0841 -0.1986
  168SAPS   C2718995   2.887   3.483   5.454 -0.0814  0.7227 -1.0574
  168SAPS   H7R18996   2.808   3.543   5.505 -2.4918 -1.3223 -2.1891
  168SAPS   H7S18997   2.845   3.459   5.354  1.7882 -1.7005 -1.3493
  168SAPS   C2818998   3.019   3.558   5.459 -0.0554 -0.2274 -0.3048
  168SAPS   H8R18999   3.057   3.609   5.549  2.5998  2.1374 -2.5490
  168SAPS   C2919000   3.105   3.569   5.355 -0.3120  1.2819  0.5460
  168SAPS   H9R19001   3.201   3.618   5.378  0.5073  1.2286 -2.3398
  168SAPS  C21019002   3.089   3.523   5.210  0.5586  0.1543  0.4383
  168SAPS  H10R19003   3.120   3.609   5.147  1.5988  0.7177  1.6710
  168SAPS  H10S19004   2.980   3.509   5.191  0.6803 -0.1144 -0.0671
  168SAPS  C21119005   3.186   3.410   5.186 -0.8014 -0.0821  0.6788
  168SAPS  H11R19006   3.242   3.371   5.273  3.8361  0.2953 -1.8063
  168SAPS  C21219007   3.210   3.347   5.071  0.4545  0.0527 -0.0434
  168SAPS  H12R19008   3.290   3.271   5.063  0.9057  0.4478  0.5854
  168SAPS  C21319009   3.142   3.390   4.944 -0.0104 -0.5420 -0.8089
  168SAPS  H13R19010   3.180   3.493   4.924 -4.1696  1.7903  1.8643
  168SAPS  H13S19011   3.032   3.396   4.951  0.1332  2.9398  0.6658
  168SAPS  C21419012   3.167   3.302   4.827 -0.3953  0.5406  0.2278
  168SAPS  H14R19013   3.229   3.213   4.841 -0.3502  0.5981  0.3869
  168SAPS  C21519014   3.106   3.316   4.703  0.0054  0.1698  0.4165
  168SAPS  H15R19015   3.139   3.252   4.620 -0.1030  1.9432 -1.0490
  168SAPS  C21619016   3.003   3.425   4.672 -0.4313  0.7934 -0.8488
  168SAPS  H16R19017   3.044   3.494   4.595 -0.7080 -0.0778 -1.7961
  168SAPS  H16S19018   2.988   3.482   4.766 -0.3687 -2.4938  1.3081
  168SAPS  C21719019   2.863   3.376   4.627  0.5057  0.2389 -0.4242
  168SAPS  H17R19020   2.847   3.276   4.672 -0.1272 -0.0645 -1.3097
  168SAPS  H17S19021   2.868   3.346   4.520  1.4956 -1.1721 -0.0112
  168SAPS  C21819022   2.751   3.475   4.665 -0.3289  0.7859 -0.4942
  168SAPS  H18R19023   2.780   3.574   4.624 -0.1559  0.8034 -0.3291
  168SAPS  H18S19024   2.744   3.479   4.776  1.2454  0.1860 -0.3492
  168SAPS  C21919025   2.606   3.440   4.616 -0.0336 -0.4578  0.5158
  168SAPS  H19R19026   2.564   3.345   4.655  0.8312 -1.2293 -0.4101
  168SAPS  H19S19027   2.607   3.428   4.506  2.2155  0.6192  0.3518
  168SAPS  C22019028   2.512   3.548   4.664  0.6784  0.0293  0.0861
  168SAPS  H20R19029   2.532   3.576   4.770 -1.7241 -0.6276  0.7743
  168SAPS  H20S19030   2.405   3.521   4.659  0.8543 -0.8598  0.8209
  168SAPS  H20T19031   2.522   3.641   4.604  0.4656  1.1589  1.7154
  168SAPS   C3319032   2.311   4.142   5.837 -0.2733 -0.3386 -0.0096
  168SAPS   H3X19033   2.218   4.201   5.823 -1.2546 -1.3629  1.9121
  168SAPS   H3Y19034   2.277   4.036   5.840 -2.0098  0.1143 -1.5926
  168SAPS   C3419035   2.405   4.159   5.719 -0.4731 -0.4212  0.7920
  168SAPS   H4X19036   2.495   4.094   5.724 -0.6903 -0.7789  0.0795
  168SAPS   H4Y19037   2.443   4.263   5.713 -0.4601 -0.4357  0.6057
  168SAPS   C3519038   2.327   4.150   5.581  0.0133  0.0831  0.0898
  168SAPS   H5X19039   2.269   4.244   5.572 -2.1283 -1.1950 -0.3408
  168SAPS   H5Y19040   2.266   4.057   5.590  0.4367 -0.1379  0.7253
  168SAPS   C3619041   2.428   4.136   5.458 -0.0916 -0.1363 -1.2576
  168SAPS   H6X19042   2.501   4.053   5.471 -0.1740  0.1690  1.8298
  168SAPS   H6Y19043   2.484   4.229   5.484 -0.8581  0.1828 -0.7196
  168SAPS   C3719044   2.358   4.148   5.327  1.3795 -0.5659  0.0626
  168SAPS   H7X19045   2.309   4.247   5.316  0.5725 -0.9468  0.1401
  168SAPS   H7Y19046   2.282   4.066   5.332  1.2781 -0.4355  0.7235
  168SAPS   C3819047   2.439   4.100   5.205  0.5088  0.3458 -0.4788
  168SAPS   H8X19048   2.468   3.994   5.219 -1.2081 -0.6216 -3.4599
  168SAPS   H8Y19049   2.529   4.165   5.198  0.2596  0.5878 -1.5381
  168SAPS   C3919050   2.372   4.108   5.061 -0.1615 -0.6566  0.0134
  168SAPS   H9X19051   2.286   4.177   5.053 -0.3257 -0.9264 -0.6259
  168SAPS   H9Y19052   2.336   4.003   5.049  0.0982 -0.7350 -0.1106
  168SAPS  C31019053   2.475   4.136   4.945 -0.4860  0.1903  0.2687
  168SAPS  H10X19054   2.561   4.071   4.970 -0.2450  0.0442 -0.8707
  168SAPS  H10Y19055   2.502   4.244   4.947 -1.3986  0.4352  2.9263
  168SAPS  C31119056   2.417   4.115   4.806 -0.1225  0.1888 -0.5809
  168SAPS  H11X19057   2.385   4.008   4.797  1.2225 -0.1871 -1.0262
  168SAPS  H11Y19058   2.493   4.127   4.726  1.7812 -1.8297  0.8020
  168SAPS  C31219059   2.294   4.192   4.781  0.0009  0.3578 -0.7774
  168SAPS  H12X19060   2.314   4.296   4.813  1.9299 -0.3656  0.4860
  168SAPS  H12Y19061   2.219   4.149   4.851 -1.1615  3.9699  0.4301
  168SAPS  C31319062   2.239   4.188   4.636  0.1865  0.1018  0.2024
  168SAPS  H13X19063   2.128   4.191   4.638  0.1145 -0.9015 -1.1553
  168SAPS  H13Y19064   2.259   4.095   4.578 -1.9602  0.7350 -1.6935
  168SAPS  C31419065   2.301   4.293   4.542 -0.1347  0.2376  0.3302
  168SAPS  H14X19066   2.406   4.266   4.515 -0.7629 -1.8544 -0.2492
  168SAPS  H14Y19067   2.311   4.388   4.598 -0.0759 -0.4659  1.5551
  168SAPS  C31519068   2.214   4.303   4.417  0.0039 -0.6306 -0.1900
  168SAPS  H15X19069   2.117   4.351   4.443  1.2726  1.4382  0.8702
  168SAPS  H15Y19070   2.187   4.198   4.391 -1.3830  0.1656 -2.2632
  168SAPS  C31619071   2.272   4.347   4.283 -0.3725 -0.6390 -0.2102
  168SAPS  H16X19072   2.361   4.282   4.265 -0.0430 -0.6678  1.4050
  168SAPS  H16Y19073   2.310   4.450   4.300 -1.5674 -0.0802 -0.7460
  168SAPS  C31719074   2.166   4.328   4.172 -0.4302 -0.2910 -0.3247
  168SAPS  H17X19075   2.187   4.387   4.080 -2.3382  0.6989 -0.1756
  168SAPS  H17Y19076   2.086   4.389   4.219  0.3232  2.6877 -2.5916
  168SAPS  C31819077   2.138   4.179   4.147 -0.5950 -0.0568  0.0028
  168SAPS  H18X19078   2.075   4.174   4.056 -0.8976  2.3257  0.0075
  168SAPS  H18Y19079   2.086   4.130   4.232  1.3514 -4.2615 -0.9741
  168SAPS  H18Z19080   2.231   4.120   4.129 -0.0026  0.5241  1.0438
  169SAPS     N19081   6.336   4.695   6.784 -0.1377 -0.2804 -0.5079
  169SAPS   HN119082   6.300   4.726   6.877  0.6925  3.4830 -1.2548
  169SAPS   HN219083   6.346   4.771   6.714 -0.4884  1.3720  1.1346
  169SAPS   HN319084   6.259   4.629   6.762 -0.9390 -0.0966  1.4793
  169SAPS   C1219085   6.454   4.614   6.805 -0.6161  0.6780  0.2426
  169SAPS  H12A19086   6.448   4.578   6.907 -1.3636  0.5736  0.1631
  169SAPS   C1319087   6.461   4.490   6.702 -0.4480  1.0158 -0.4030
  169SAPS  O13A19088   6.371   4.457   6.618  0.6473 -0.3818  0.2493
  169SAPS  O13B19089   6.558   4.414   6.721 -0.1308  1.0433 -0.4481
  169SAPS   C1119090   6.587   4.688   6.806 -0.0493  0.0222  0.3293
  169SAPS  H11A19091   6.674   4.619   6.818  2.0314  2.3563 -0.6391
  169SAPS  H11B19092   6.595   4.744   6.902  1.4852 -1.3641  1.0710
  169SAPS     P19093   6.752   4.841   6.682  0.0597 -0.0507 -0.2231
  169SAPS   O1319094   6.816   4.829   6.813 -0.6332  0.4767  0.3883
  169SAPS   O1419095   6.828   4.794   6.566  0.3476 -0.2728  0.1680
  169SAPS   O1219096   6.604   4.775   6.696 -0.0183  0.2910 -0.3047
  169SAPS   O1119097   6.728   5.000   6.658  0.0708 -0.0314 -0.1332
  169SAPS    C119098   6.596   5.049   6.688 -0.2297  0.3744 -0.3736
  169SAPS    HA19099   6.534   4.983   6.752  0.4781  0.2309  0.1742
  169SAPS    HB19100   6.597   5.134   6.759  1.9886 -1.8327  2.4843
  169SAPS    C219101   6.539   5.083   6.548 -0.0974 -0.4037 -0.6740
  169SAPS    HS19102   6.438   5.130   6.554  1.3022  3.2038 -2.3946
  169SAPS   O2119103   6.525   4.971   6.461  0.1581  0.2946  0.6881
  169SAPS   C2119104   6.439   4.879   6.494 -0.0134 -0.5112  0.8695
  169SAPS   O2219105   6.348   4.892   6.571  0.1767  0.4402 -0.2979
  169SAPS   C2219106   6.456   4.749   6.404 -0.5184 -0.1803 -0.4850
  169SAPS   H2R19107   6.436   4.665   6.474  0.4341 -0.9167 -1.0700
  169SAPS   H2S19108   6.382   4.760   6.321  0.5134 -1.5882 -1.6320
  169SAPS    C319109   6.620   5.196   6.469  0.4066  0.8184 -0.2812
  169SAPS    HX19110   6.725   5.161   6.477  0.6344  1.1071 -1.7242
  169SAPS    HY19111   6.614   5.295   6.518 -0.9113  0.8786 -0.5102
  169SAPS   O3119112   6.572   5.203   6.336  0.0612  0.0593  0.5681
  169SAPS   C3119113   6.657   5.166   6.242  0.0749  0.3588 -0.0550
  169SAPS   O3219114   6.777   5.146   6.248 -0.0690  0.3064  0.8572
  169SAPS   C3219115   6.586   5.145   6.111 -0.4719  0.0941 -0.5444
  169SAPS   H2X19116   6.523   5.237   6.104 -1.3103 -0.2341  1.7201
  169SAPS   H2Y19117   6.522   5.055   6.126  0.0675 -0.2768 -0.4509
  169SAPS   C2319118   6.601   4.723   6.368  0.2591  0.3346  0.5516
  169SAPS   H3R19119   6.668   4.681   6.446  1.3778 -0.9122 -1.0377
  169SAPS   H3S19120   6.646   4.820   6.339 -3.1019  2.0146  0.4436
  169SAPS   C2419121   6.615   4.614   6.258  0.0052  0.1870  0.1623
  169SAPS   H4R19122   6.548   4.643   6.174  2.6777  1.1248 -1.7850
  169SAPS   H4S19123   6.593   4.525   6.321  1.1751  0.5280  1.1005
  169SAPS   C2519124   6.759   4.590   6.219  0.7413  0.0562  0.1951
  169SAPS   H5R19125   6.812   4.545   6.305 -0.6901 -0.3373  0.9040
  169SAPS   C2619126   6.825   4.617   6.103  0.3928  0.2919 -0.0234
  169SAPS   H6R19127   6.932   4.594   6.097  0.4258  0.3937  0.1625
  169SAPS   C2719128   6.764   4.689   5.983 -0.3302 -0.1616 -0.3684
  169SAPS   H7R19129   6.703   4.772   6.025 -1.4737 -1.3190  0.3407
  169SAPS   H7S19130   6.692   4.619   5.936  1.1073 -2.5060  0.7218
  169SAPS   C2819131   6.868   4.743   5.885 -0.3011  0.1694 -0.3285
  169SAPS   H8R19132   6.971   4.768   5.916  0.3220  0.2879 -2.3456
  169SAPS   C2919133   6.834   4.776   5.759  0.5331  0.3111 -0.0416
  169SAPS   H9R19134   6.905   4.817   5.685  2.0600 -0.8810  0.7119
  169SAPS  C21019135   6.710   4.733   5.689 -0.5398  0.5925 -0.3560
  169SAPS  H10R19136   6.650   4.822   5.662  0.0884  0.8261 -1.0119
  169SAPS  H10S19137   6.643   4.666   5.747  0.5631  0.1947  0.4897
  169SAPS  C21119138   6.741   4.648   5.563 -0.3958  0.4202  0.1723
  169SAPS  H11R19139   6.735   4.539   5.577 -1.3648  0.2745 -1.1460
  169SAPS  C21219140   6.754   4.708   5.439 -0.2246 -0.5503 -0.0814
  169SAPS  H12R19141   6.777   4.641   5.355 -3.3424  0.0967 -1.5846
  169SAPS  C21319142   6.731   4.854   5.409 -0.0044  0.0673  0.2628
  169SAPS  H13R19143   6.727   4.902   5.509 -3.3415 -1.7969  1.1587
  169SAPS  H13S19144   6.627   4.869   5.374  0.0077 -0.0867  0.1599
  169SAPS  C21419145   6.819   4.933   5.318 -0.1109 -0.2898 -0.6039
  169SAPS  H14R19146   6.900   4.990   5.365 -1.0827  0.5424  0.1172
  169SAPS  C21519147   6.810   4.957   5.184 -0.8735  0.2954 -0.0366
  169SAPS  H15R19148   6.889   5.013   5.131 -3.2677  0.4642 -3.8243
  169SAPS  C21619149   6.691   4.919   5.098  0.0469  0.3531  0.0984
  169SAPS  H16R19150   6.629   4.999   5.052  1.8123  1.3880 -0.6246
  169SAPS  H16S19151   6.630   4.859   5.168  1.0951 -0.0864  0.6680
  169SAPS  C21719152   6.739   4.820   4.984 -0.2255 -0.3451  0.0980
  169SAPS  H17R19153   6.659   4.784   4.915  0.3903  1.0337 -1.4095
  169SAPS  H17S19154   6.790   4.732   5.030 -0.3081 -0.4795 -0.0668
  169SAPS  C21819155   6.850   4.895   4.898  0.7193 -0.7037  0.0740
  169SAPS  H18R19156   6.933   4.925   4.965  1.7180  0.9222 -1.7737
  169SAPS  H18S19157   6.813   4.993   4.862 -2.3643 -1.2740  1.3286
  169SAPS  C21919158   6.910   4.802   4.797 -0.9780 -0.1641  0.4250
  169SAPS  H19R19159   6.963   4.719   4.848  1.3966  1.1891  0.3420
  169SAPS  H19S19160   6.987   4.859   4.739  0.1925 -1.9911  0.0879
  169SAPS  C22019161   6.810   4.746   4.695 -0.2224 -0.0264  0.1406
  169SAPS  H20R19162   6.860   4.689   4.614 -0.1238 -0.9034  0.8116
  169SAPS  H20S19163   6.754   4.834   4.658  1.5359  0.9300 -0.3827
  169SAPS  H20T19164   6.732   4.691   4.751 -0.3307  1.0199  1.0599
  169SAPS   C3319165   6.673   5.137   5.993  0.2399 -0.2839  0.5573
  169SAPS   H3X19166   6.734   5.045   5.980 -0.9015 -0.9060 -0.6062
  169SAPS   H3Y19167   6.742   5.224   5.988 -0.4285  0.5052  3.1569
  169SAPS   C3419168   6.585   5.122   5.869 -0.2084  0.0059 -0.6196
  169SAPS   H4X19169   6.504   5.198   5.872  0.6632  1.0074 -1.6626
  169SAPS   H4Y19170   6.530   5.028   5.895 -0.2213  0.4682  1.1204
  169SAPS   C3519171   6.654   5.109   5.736  0.3828  0.2079  0.5852
  169SAPS   H5X19172   6.587   5.054   5.666  0.2129 -0.7950  1.5193
  169SAPS   H5Y19173   6.748   5.051   5.747 -1.9076 -3.8822  0.5262
  169SAPS   C3619174   6.699   5.245   5.675 -0.1318  0.1362  0.3078
  169SAPS   H6X19175   6.761   5.215   5.587  0.2937 -2.4715  1.3820
  169SAPS   H6Y19176   6.778   5.268   5.750  0.9436 -1.6052 -0.2107
  169SAPS   C3719177   6.595   5.348   5.648  0.4638 -0.2195 -0.3706
  169SAPS   H7X19178   6.637   5.448   5.624  1.3816 -0.9911 -2.1408
  169SAPS   H7Y19179   6.533   5.351   5.741  0.1761 -2.1936 -0.4637
  169SAPS   C3819180   6.507   5.326   5.520  0.1518 -0.3271  0.1759
  169SAPS   H8X19181   6.437   5.411   5.513 -0.6437 -0.9162  0.8374
  169SAPS   H8Y19182   6.442   5.238   5.538  0.2556  0.2430  4.4024
  169SAPS   C3919183   6.588   5.314   5.393 -0.0898  0.3659 -0.4626
  169SAPS   H9X19184   6.650   5.221   5.387 -0.3653  0.2178 -1.1859
  169SAPS   H9Y19185   6.672   5.386   5.381 -0.8416  1.3206 -0.0709
  169SAPS  C31019186   6.503   5.309   5.270  0.2998  0.1494  0.3097
  169SAPS  H10X19187   6.440   5.399   5.283  1.2862  0.7592  0.9891
  169SAPS  H10Y19188   6.440   5.217   5.278  0.5370  0.0501  1.1825
  169SAPS  C31119189   6.582   5.294   5.137 -0.0443 -0.3185  0.4288
  169SAPS  H11X19190   6.644   5.201   5.143  0.9183  0.1480 -1.5230
  169SAPS  H11Y19191   6.658   5.375   5.144  0.6675 -0.9837  0.6699
  169SAPS  C31219192   6.509   5.304   5.004 -0.1139 -0.0364  0.2613
  169SAPS  H12X19193   6.452   5.399   5.016  0.0229 -0.1054  1.6549
  169SAPS  H12Y19194   6.434   5.225   4.983 -0.8335  0.0532  2.2665
  169SAPS  C31319195   6.600   5.317   4.885 -0.2290  0.7663 -0.1377
  169SAPS  H13X19196   6.699   5.267   4.895 -1.3525 -1.2605  1.9011
  169SAPS  H13Y19197   6.619   5.424   4.864  1.2453  0.1148 -2.4972
  169SAPS  C31419198   6.541   5.262   4.753 -1.1407  0.6062  0.3975
  169SAPS  H14X19199   6.512   5.155   4.762  1.2977  0.0115  2.9778
  169SAPS  H14Y19200   6.630   5.250   4.688 -1.3654 -1.7385  0.4372
  169SAPS  C31519201   6.436   5.353   4.698 -0.9949  0.2543 -0.3313
  169SAPS  H15X19202   6.467   5.459   4.683 -0.1522 -0.1975 -1.9953
  169SAPS  H15Y19203   6.350   5.360   4.768 -0.2490  2.0900  0.4792
  169SAPS  C31619204   6.376   5.305   4.560 -0.2286  0.0465 -0.1198
  169SAPS  H16X19205   6.321   5.209   4.561  0.0113 -0.1377 -1.6617
  169SAPS  H16Y19206   6.451   5.279   4.482 -2.8853 -2.6089 -2.0085
  169SAPS  C31719207   6.292   5.415   4.510 -0.4187  0.0614  0.3186
  169SAPS  H17X19208   6.348   5.503   4.470  0.7024 -0.9492 -0.4123
  169SAPS  H17Y19209   6.203   5.442   4.571  0.0889  0.2275  1.0039
  169SAPS  C31819210   6.233   5.371   4.372  0.1538  0.2834 -0.1427
  169SAPS  H18X19211   6.164   5.284   4.377  0.8009 -0.1946  0.5342
  169SAPS  H18Y19212   6.316   5.346   4.302 -0.5615 -0.2701 -0.8227
  169SAPS  H18Z19213   6.172   5.452   4.326  1.9305  2.5464  1.2568
  170SAPS     N19214   6.142   4.301   6.606 -0.6086  0.4973  0.1788
  170SAPS   HN119215   6.123   4.255   6.698 -0.7350  2.8760  1.4101
  170SAPS   HN219216   6.153   4.227   6.533  0.3167  1.1256 -0.3302
  170SAPS   HN319217   6.227   4.360   6.597 -1.6239  2.2702  1.6067
  170SAPS   C1219218   6.031   4.394   6.588 -0.8815  0.1109  0.9703
  170SAPS  H12A19219   5.940   4.342   6.615 -1.4098  1.3795  1.7278
  170SAPS   C1319220   6.027   4.515   6.681  0.0276 -0.3237 -0.8148
  170SAPS  O13A19221   6.118   4.527   6.766 -0.1372  0.2648 -0.1917
  170SAPS  O13B19222   5.932   4.600   6.675 -0.0098  0.3309  0.1898
  170SAPS   C1119223   6.046   4.453   6.446  0.0896  0.0090 -0.6249
  170SAPS  H11A19224   6.150   4.490   6.433  0.0934  0.9097  1.5988
  170SAPS  H11B19225   5.973   4.534   6.425  0.1377  0.4928  0.9518
  170SAPS     P19226   5.907   4.318   6.261  0.0706  0.4689 -0.0082
  170SAPS   O1319227   5.820   4.225   6.337  0.5737  0.9055  0.5913
  170SAPS   O1419228   5.845   4.442   6.220  0.0976 -0.3924 -0.2929
  170SAPS   O1219229   6.035   4.349   6.352  0.1228  0.0791  0.2539
  170SAPS   O1119230   5.952   4.236   6.134 -0.0290 -0.2258  0.2491
  170SAPS    C119231   6.068   4.153   6.127 -0.2293  0.2454 -0.6767
  170SAPS    HA19232   6.081   4.088   6.216  0.1201  0.1099 -0.8263
  170SAPS    HB19233   6.068   4.090   6.036  1.2262  0.5316 -0.8992
  170SAPS    C219234   6.192   4.241   6.119 -0.3003 -0.0569  0.0331
  170SAPS    HS19235   6.205   4.268   6.226 -2.2668  0.6943  0.1302
  170SAPS   O2119236   6.176   4.370   6.048  0.2012  0.0174 -0.0185
  170SAPS   C2119237   6.248   4.470   6.090  0.1511  0.3021 -0.3894
  170SAPS   O2219238   6.317   4.470   6.187 -0.2746  0.1518 -0.7301
  170SAPS   C2219239   6.223   4.589   5.999 -0.5454 -0.8845 -0.2879
  170SAPS   H2R19240   6.147   4.577   5.919 -0.7853  0.5367 -0.3099
  170SAPS   H2S19241   6.189   4.667   6.070  1.3290  0.7871 -1.0960
  170SAPS    C319242   6.309   4.166   6.061 -0.1696  0.4177  0.6461
  170SAPS    HX19243   6.298   4.130   5.957  1.3632 -0.6614  0.8146
  170SAPS    HY19244   6.321   4.073   6.119 -0.3439 -2.0451 -2.9650
  170SAPS   O3119245   6.433   4.243   6.053 -0.1611 -0.7385 -0.3393
  170SAPS   C3119246   6.549   4.185   6.084 -0.2664 -0.2165 -0.4169
  170SAPS   O3219247   6.563   4.069   6.117 -0.0293  0.4405 -0.0841
  170SAPS   C3219248   6.653   4.289   6.054 -0.1923  0.7562  0.1143
  170SAPS   H2X19249   6.697   4.317   6.152 -3.3450  1.0346  1.5921
  170SAPS   H2Y19250   6.621   4.384   6.006  1.4461  0.2959 -2.0594
  170SAPS   C2319251   6.360   4.644   5.940  0.9697 -0.3562 -0.2941
  170SAPS   H3R19252   6.377   4.608   5.836 -1.5189  0.5017 -1.0668
  170SAPS   H3S19253   6.442   4.609   6.007  0.0953 -0.0491  0.9824
  170SAPS   C2419254   6.364   4.799   5.946  0.5700 -0.0779  0.7898
  170SAPS   H4R19255   6.463   4.816   5.898 -0.7542 -0.5648 -2.3746
  170SAPS   H4S19256   6.357   4.847   6.046 -1.8083  2.6276 -0.5040
  170SAPS   C2519257   6.250   4.853   5.853  0.3155 -0.5769 -0.4294
  170SAPS   H5R19258   6.152   4.855   5.902  1.0248  0.2707  1.0456
  170SAPS   C2619259   6.248   4.862   5.720 -0.0850  0.7281 -0.0292
  170SAPS   H6R19260   6.155   4.895   5.670  0.1152 -1.1410 -1.7822
  170SAPS   C2719261   6.356   4.828   5.623 -0.9490 -0.2165 -0.0063
  170SAPS   H7R19262   6.337   4.730   5.575 -0.4054 -0.4412  0.2331
  170SAPS   H7S19263   6.453   4.818   5.677 -0.9196  1.3320  0.2731
  170SAPS   C2819264   6.361   4.941   5.524  0.8345  0.6625  0.3514
  170SAPS   H8R19265   6.392   5.038   5.566 -0.2185 -0.0631  3.0214
  170SAPS   C2919266   6.325   4.943   5.388 -0.2549  0.3339 -0.1714
  170SAPS   H9R19267   6.340   5.033   5.327  0.1133 -0.4817 -1.3111
  170SAPS  C21019268   6.274   4.824   5.308 -0.1797 -0.1387 -0.4230
  170SAPS  H10R19269   6.187   4.859   5.249  0.4059  1.0141 -0.6310
  170SAPS  H10S19270   6.235   4.750   5.381  0.5798 -0.8781 -0.7494
  170SAPS  C21119271   6.374   4.755   5.217 -0.1836  0.2576 -0.6121
  170SAPS  H11R19272   6.456   4.702   5.268 -1.0029 -1.1466 -0.7224
  170SAPS  C21219273   6.384   4.763   5.080 -0.4976  0.7349 -0.2326
  170SAPS  H12R19274   6.476   4.718   5.039  0.3966  0.6822  1.7180
  170SAPS  C21319275   6.292   4.821   4.982  0.3575 -0.2357  0.5127
  170SAPS  H13R19276   6.223   4.884   5.043 -1.0323 -0.0896 -1.1576
  170SAPS  H13S19277   6.236   4.741   4.931  2.1277 -1.1670 -0.0399
  170SAPS  C21419278   6.356   4.925   4.890  0.2697 -0.0139 -0.3680
  170SAPS  H14R19279   6.458   4.961   4.911 -0.2017  1.8249 -1.1499
  170SAPS  C21519280   6.283   4.977   4.790  0.3423  0.0943  0.4635
  170SAPS  H15R19281   6.333   5.049   4.724  0.3939  0.6590  1.1089
  170SAPS  C21619282   6.140   4.939   4.751  0.3707 -0.2364  0.2375
  170SAPS  H16R19283   6.073   5.020   4.786  2.8495  0.2663  4.5701
  170SAPS  H16S19284   6.103   4.842   4.791  1.4879 -0.2619  1.2591
  170SAPS  C21719285   6.131   4.932   4.593 -0.3890 -0.0179  0.1971
  170SAPS  H17R19286   6.158   5.036   4.567  0.9855 -0.5068 -0.4359
  170SAPS  H17S19287   6.028   4.912   4.558  0.5404 -0.6394 -2.4441
  170SAPS  C21819288   6.223   4.840   4.511  0.4419  0.2318 -0.1412
  170SAPS  H18R19289   6.323   4.844   4.559  1.2176 -1.4616 -1.5417
  170SAPS  H18S19290   6.231   4.872   4.405 -3.9789  3.8974  0.3227
  170SAPS  C21919291   6.179   4.700   4.513 -0.5121  0.0053  0.0077
  170SAPS  H19R19292   6.078   4.700   4.466 -0.4468 -1.7243 -0.2030
  170SAPS  H19S19293   6.188   4.679   4.621  1.1890 -0.3003 -0.1688
  170SAPS  C22019294   6.263   4.594   4.447 -0.2704  0.3181  0.7573
  170SAPS  H20R19295   6.268   4.622   4.339  0.0482 -2.3085  0.0092
  170SAPS  H20S19296   6.224   4.491   4.465  3.0699 -0.7842  2.6740
  170SAPS  H20T19297   6.364   4.580   4.491  1.5773 -0.4314 -3.2117
  170SAPS   C3319298   6.766   4.240   5.964  0.7194 -0.5714 -0.2226
  170SAPS   H3X19299   6.789   4.134   5.986 -0.0236 -0.0382  3.9819
  170SAPS   H3Y19300   6.858   4.292   6.000  0.5536 -1.0098  0.8633
  170SAPS   C3419301   6.726   4.268   5.820 -0.8421  0.3058  0.0810
  170SAPS   H4X19302   6.742   4.378   5.815 -0.3403  0.2866  1.0050
  170SAPS   H4Y19303   6.620   4.249   5.793 -0.4556  0.1398 -1.4330
  170SAPS   C3519304   6.818   4.194   5.713  0.7051  0.5045 -0.4153
  170SAPS   H5X19305   6.801   4.086   5.733 -0.6336  0.9690  1.1972
  170SAPS   H5Y19306   6.925   4.209   5.739  0.3397 -0.2340  1.7315
  170SAPS   C3619307   6.785   4.231   5.567 -0.4394 -0.1753  0.7543
  170SAPS   H6X19308   6.826   4.334   5.556 -0.1766 -0.2624  0.9003
  170SAPS   H6Y19309   6.678   4.229   5.537  0.6911 -0.7280 -3.8761
  170SAPS   C3719310   6.861   4.142   5.470 -0.4496  0.6069 -0.3372
  170SAPS   H7X19311   6.824   4.038   5.481 -0.1189  0.4403 -0.7967
  170SAPS   H7Y19312   6.971   4.143   5.489 -0.2937  2.0764 -1.1558
  170SAPS   C3819313   6.838   4.200   5.335  0.2976 -0.1382 -0.3649
  170SAPS   H8X19314   6.879   4.302   5.323 -1.5088  0.7688  0.7045
  170SAPS   H8Y19315   6.729   4.194   5.313  0.5076 -2.8729 -1.0660
  170SAPS   C3919316   6.896   4.109   5.222  0.3262  0.2130  0.1419
  170SAPS   H9X19317   6.865   4.005   5.246 -2.5049  0.7319 -0.7994
  170SAPS   H9Y19318   7.006   4.104   5.215  0.2123 -2.3544 -1.7227
  170SAPS  C31019319   6.835   4.153   5.086  0.1175 -0.7097  0.1806
  170SAPS  H10X19320   6.881   4.247   5.047  1.9228 -1.5341  0.1967
  170SAPS  H10Y19321   6.726   4.171   5.082  0.4172  1.0585 -1.3688
  170SAPS  C31119322   6.876   4.047   4.979  0.6603 -0.3648 -0.2817
  170SAPS  H11X19323   6.826   3.953   5.011 -0.3837  0.1642 -0.3102
  170SAPS  H11Y19324   6.984   4.037   4.956  0.2621 -0.2907 -2.3151
  170SAPS  C31219325   6.802   4.076   4.850 -0.1181  0.4052 -0.0868
  170SAPS  H12X19326   6.846   4.163   4.797 -1.5938  1.2114 -0.0270
  170SAPS  H12Y19327   6.694   4.099   4.864 -0.8718 -2.8912  0.2963
  170SAPS  C31319328   6.816   3.955   4.761  0.7493 -0.2498 -0.2608
  170SAPS  H13X19329   6.756   3.867   4.793 -0.2597  0.7448  0.6574
  170SAPS  H13Y19330   6.921   3.919   4.765  0.1824 -1.8543  1.2323
  170SAPS  C31419331   6.798   3.986   4.608 -0.0126 -0.2885 -0.0566
  170SAPS  H14X19332   6.870   4.064   4.577  0.8394 -1.0350  0.0029
  170SAPS  H14Y19333   6.692   4.021   4.605 -0.6651 -2.1972 -0.4624
  170SAPS  C31519334   6.803   3.870   4.511 -0.5523 -0.4355 -0.8188
  170SAPS  H15X19335   6.736   3.791   4.552 -1.2190  0.6041  0.1680
  170SAPS  H15Y19336   6.904   3.827   4.525 -1.5860 -3.0087 -0.6770
  170SAPS  C31619337   6.775   3.907   4.365  0.1588  0.8189 -0.5987
  170SAPS  H16X19338   6.827   3.834   4.300  2.3423  3.4034 -1.9342
  170SAPS  H16Y19339   6.833   4.000   4.345 -1.0275  1.7602  0.0918
  170SAPS  C31719340   6.621   3.919   4.325  0.1826 -0.2456  0.0246
  170SAPS  H17X19341   6.585   4.015   4.368 -1.7377  0.3584 -2.6296
  170SAPS  H17Y19342   6.572   3.833   4.375 -0.4351 -0.0449 -0.2229
  170SAPS  C31819343   6.589   3.915   4.184 -0.3879  0.5747  0.1174
  170SAPS  H18X19344   6.616   4.008   4.130 -0.0468 -0.1986 -1.0847
  170SAPS  H18Y19345   6.479   3.903   4.191 -0.3800  1.3893  4.2250
  170SAPS  H18Z19346   6.633   3.828   4.131  1.6526  2.2321 -1.0900
  171SAPS     N19347   6.392   3.563   6.229  0.7370  0.0079  0.4874
  171SAPS   HN119348   6.478   3.616   6.254 -0.4287  2.1729  0.0809
  171SAPS   HN219349   6.399   3.557   6.126 -0.3956  2.5144  0.2109
  171SAPS   HN319350   6.308   3.615   6.260 -0.6610 -2.1941  0.6262
  171SAPS   C1219351   6.398   3.426   6.293 -0.2469 -0.3707 -0.1209
  171SAPS  H12A19352   6.498   3.385   6.297 -0.1757 -0.1967 -0.0770
  171SAPS   C1319353   6.357   3.448   6.445 -0.5694 -0.5442 -0.6028
  171SAPS  O13A19354   6.401   3.554   6.499 -0.0640  0.0972 -0.6067
  171SAPS  O13B19355   6.317   3.352   6.519 -0.7870 -0.3508  0.3330
  171SAPS   C1119356   6.306   3.327   6.217  0.4029 -0.0974  0.4057
  171SAPS  H11A19357   6.214   3.379   6.182 -0.2341 -1.1186  0.5067
  171SAPS  H11B19358   6.271   3.252   6.291 -3.0609  1.6140  0.7057
  171SAPS     P19359   6.342   3.158   6.014  0.3883 -0.2510 -0.2769
  171SAPS   O1319360   6.440   3.161   5.904  0.0878 -0.1520 -0.3090
  171SAPS   O1419361   6.338   3.037   6.098  0.4493 -0.1193 -0.3781
  171SAPS   O1219362   6.371   3.280   6.107  0.7054  0.0109  0.2713
  171SAPS   O1119363   6.193   3.198   5.966 -0.2225 -0.5926 -0.2722
  171SAPS    C119364   6.174   3.305   5.875 -0.7264  0.3034  0.5822
  171SAPS    HA19365   6.070   3.343   5.887 -0.3315  1.5450  0.2361
  171SAPS    HB19366   6.237   3.396   5.885 -0.3505  0.6122 -3.0492
  171SAPS    C219367   6.202   3.258   5.728 -1.3734  0.0146 -0.2296
  171SAPS    HS19368   6.312   3.273   5.723 -0.4838 -2.8323  4.4178
  171SAPS   O2119369   6.133   3.345   5.641  0.1396 -0.7195 -0.0974
  171SAPS   C2119370   6.189   3.394   5.529 -0.4670  0.3896 -0.3355
  171SAPS   O2219371   6.303   3.368   5.498 -0.0465  0.8373 -0.4403
  171SAPS   C2219372   6.088   3.459   5.446  0.1248  0.3478  0.4225
  171SAPS   H2R19373   6.024   3.378   5.404  0.2903  0.5519 -0.2302
  171SAPS   H2S19374   6.026   3.532   5.501  1.1677  2.0767 -0.6220
  171SAPS    C319375   6.167   3.117   5.698  0.4334 -0.2421  0.2580
  171SAPS    HX19376   6.078   3.091   5.759  0.1804 -0.9498 -0.3863
  171SAPS    HY19377   6.237   3.043   5.741  0.0250 -0.8603 -0.1169
  171SAPS   O3119378   6.146   3.092   5.551 -0.3980  0.3541 -0.0933
  171SAPS   C3119379   6.260   3.054   5.486 -0.7602 -0.0028 -0.3317
  171SAPS   O3219380   6.363   3.026   5.543  0.4194 -0.3220 -0.4281
  171SAPS   C3219381   6.242   3.051   5.336  0.2776  0.1744 -0.5599
  171SAPS   H2X19382   6.262   3.154   5.299  0.7073  0.3135  0.0456
  171SAPS   H2Y19383   6.140   3.022   5.306 -0.7970  0.6853  2.3016
  171SAPS   C2319384   6.145   3.555   5.335  0.2681  0.2405 -0.2400
  171SAPS   H3R19385   6.220   3.620   5.384 -0.8590  1.6819 -0.3577
  171SAPS   H3S19386   6.065   3.612   5.282  0.0031  0.7233  0.6696
  171SAPS   C2419387   6.218   3.475   5.229  0.3621  0.5918 -0.0507
  171SAPS   H4R19388   6.289   3.401   5.272 -2.6215 -2.2213  0.4703
  171SAPS   H4S19389   6.276   3.541   5.161 -0.9111 -1.7622 -3.7062
  171SAPS   C2519390   6.112   3.401   5.157  0.5532  0.5342  0.2043
  171SAPS   H5R19391   6.042   3.334   5.209  1.5027 -1.1002 -0.5424
  171SAPS   C2619392   6.096   3.400   5.028 -0.6062  0.2395 -0.5888
  171SAPS   H6R19393   6.024   3.325   4.994  1.0131 -1.3281 -0.7077
  171SAPS   C2719394   6.172   3.478   4.923  0.5808  0.0635 -0.1936
  171SAPS   H7R19395   6.215   3.569   4.971  0.3964  1.2207 -2.1313
  171SAPS   H7S19396   6.097   3.520   4.853  3.1440  4.1841 -0.8005
  171SAPS   C2819397   6.281   3.396   4.856 -0.3817 -0.2563  0.3465
  171SAPS   H8R19398   6.336   3.325   4.921  0.0767 -1.0610 -0.8837
  171SAPS   C2919399   6.310   3.406   4.723 -0.6202  0.0501  0.1635
  171SAPS   H9R19400   6.399   3.353   4.685  0.2525  1.9526 -0.6180
  171SAPS  C21019401   6.235   3.485   4.618 -0.1164 -0.1920  0.0180
  171SAPS  H10R19402   6.216   3.593   4.636 -1.1402 -0.5155  1.0215
  171SAPS  H10S19403   6.130   3.447   4.617 -0.1369 -0.1463  0.2716
  171SAPS  C21119404   6.295   3.483   4.483 -0.4943  0.8191  0.8691
  171SAPS  H11R19405   6.398   3.520   4.477  0.1182 -0.7308  1.4870
  171SAPS  C21219406   6.238   3.442   4.367 -0.4722  1.0585  0.7700
  171SAPS  H12R19407   6.302   3.447   4.278  0.4126  4.8962  1.4266
  171SAPS  C21319408   6.095   3.388   4.345  0.4915  0.2907 -0.2207
  171SAPS  H13R19409   6.036   3.435   4.427 -0.4307 -1.6259  0.2778
  171SAPS  H13S19410   6.106   3.279   4.363 -0.8244  0.4823  2.1590
  171SAPS  C21419411   6.015   3.422   4.226  0.6789 -0.0330  0.0679
  171SAPS  H14R19412   5.928   3.488   4.235  1.6022  1.5399 -1.7780
  171SAPS  C21519413   6.039   3.390   4.100 -0.4993  0.3377  0.0294
  171SAPS  H15R19414   5.955   3.406   4.030 -1.5679  1.7332  1.5216
  171SAPS  C21619415   6.162   3.318   4.044  0.1558 -0.5612  0.3583
  171SAPS  H16R19416   6.254   3.356   4.093  0.9874 -0.2064 -1.3638
  171SAPS  H16S19417   6.177   3.336   3.935  1.9349 -0.9025  0.5129
  171SAPS  C21719418   6.166   3.165   4.067  0.4234  0.3835  0.3131
  171SAPS  H17R19419   6.060   3.132   4.057 -0.3079  2.8084 -0.7997
  171SAPS  H17S19420   6.199   3.135   4.169  2.8508  0.0211 -0.5090
  171SAPS  C21819421   6.266   3.095   3.973 -0.2535 -0.7555 -0.0403
  171SAPS  H18R19422   6.295   3.170   3.897  1.4507 -0.9570  0.3536
  171SAPS  H18S19423   6.212   3.005   3.935 -1.2042 -1.1018  1.9829
  171SAPS  C21919424   6.400   3.052   4.048  0.3410 -0.9837 -0.2714
  171SAPS  H19R19425   6.372   2.980   4.128  1.4524 -1.3512 -0.2019
  171SAPS  H19S19426   6.445   3.140   4.098  3.4708 -1.4576 -2.0491
  171SAPS  C22019427   6.501   2.976   3.968  0.2679 -0.7392  0.7245
  171SAPS  H20R19428   6.471   2.872   3.941 -2.3094  0.4739 -1.4369
  171SAPS  H20S19429   6.598   2.969   4.022  0.7373  0.0149 -0.0126
  171SAPS  H20T19430   6.516   3.031   3.873 -1.1943 -0.8147  0.4211
  171SAPS   C3319431   6.359   2.966   5.276  0.2962  0.4011 -0.7438
  171SAPS   H3X19432   6.351   2.864   5.318  1.2358  0.7614  0.3618
  171SAPS   H3Y19433   6.461   3.004   5.296 -0.3718  0.3681  3.5235
  171SAPS   C3419434   6.340   2.930   5.126 -0.1109  0.7740  0.2251
  171SAPS   H4X19435   6.248   2.868   5.117 -0.1833  1.0294 -1.0073
  171SAPS   H4Y19436   6.426   2.866   5.098 -1.0635 -0.9052  0.9441
  171SAPS   C3519437   6.342   3.055   5.034  0.4441  0.4608 -0.2160
  171SAPS   H5X19438   6.445   3.095   5.034  0.8535  0.1841  5.0573
  171SAPS   H5Y19439   6.278   3.137   5.074  0.3626  0.8696 -1.1743
  171SAPS   C3619440   6.303   3.031   4.884 -0.1681  0.6562  0.7818
  171SAPS   H6X19441   6.214   3.090   4.855  0.0622  0.3932 -0.5253
  171SAPS   H6Y19442   6.280   2.923   4.869  2.4998  0.0021  0.9025
  171SAPS   C3719443   6.421   3.065   4.783  0.0685 -0.0369 -0.4118
  171SAPS   H7X19444   6.447   3.171   4.803  0.1903  0.4580 -2.8460
  171SAPS   H7Y19445   6.381   3.049   4.680  1.8777  1.1955 -1.3747
  171SAPS   C3819446   6.542   2.974   4.790 -0.2349 -0.3049 -0.3632
  171SAPS   H8X19447   6.521   2.870   4.759  0.9628 -0.3386 -1.1376
  171SAPS   H8Y19448   6.573   2.973   4.897  1.2688  3.5827 -0.5799
  171SAPS   C3919449   6.672   3.012   4.719  0.1123 -0.7700  0.0188
  171SAPS   H9X19450   6.751   2.936   4.739 -0.8465 -2.4243 -2.0007
  171SAPS   H9Y19451   6.711   3.111   4.748 -0.0733 -0.4711 -0.7320
  171SAPS  C31019452   6.646   3.028   4.570  0.2999 -0.6442  0.4451
  171SAPS  H10X19453   6.579   3.115   4.551 -0.3039 -0.7299  2.0757
  171SAPS  H10Y19454   6.607   2.932   4.532  1.4168 -0.0732 -2.4673
  171SAPS  C31119455   6.780   3.055   4.492  0.1379  0.4032  0.4443
  171SAPS  H11X19456   6.874   3.037   4.549  0.7370  1.3947 -0.1885
  171SAPS  H11Y19457   6.774   3.164   4.472 -0.2387  0.1617 -0.8353
  171SAPS  C31219458   6.786   2.969   4.365  0.3675  0.3928 -0.2107
  171SAPS  H12X19459   6.869   3.001   4.299 -0.5112 -0.1663 -1.6217
  171SAPS  H12Y19460   6.690   2.977   4.310  0.5558 -0.0941 -0.6117
  171SAPS  C31319461   6.808   2.817   4.394  0.3356 -0.3586  0.1597
  171SAPS  H13X19462   6.711   2.772   4.424 -1.0106  1.6330 -0.9674
  171SAPS  H13Y19463   6.885   2.809   4.474  0.4655  0.5557  0.1324
  171SAPS  C31419464   6.862   2.744   4.268 -0.2681 -0.2373 -0.3469
  171SAPS  H14X19465   6.795   2.760   4.181 -0.4741  0.3741 -0.0795
  171SAPS  H14Y19466   6.852   2.633   4.268  2.0719 -0.4894 -0.2315
  171SAPS  C31519467   7.004   2.767   4.235  0.3548  0.5521 -0.3076
  171SAPS  H15X19468   7.072   2.747   4.321  2.8543  1.6853 -1.8825
  171SAPS  H15Y19469   7.007   2.876   4.216  1.2425  0.4210 -0.9996
  171SAPS  C31619470   7.063   2.684   4.119 -0.0550  0.6759  1.4612
  171SAPS  H16X19471   6.995   2.694   4.033 -3.7070 -2.1562  3.7212
  171SAPS  H16Y19472   7.050   2.578   4.150 -1.9858  0.4810  0.1423
  171SAPS  C31719473   7.206   2.717   4.091 -0.1574 -0.1638 -0.2744
  171SAPS  H17X19474   7.262   2.710   4.187 -0.9935  1.1561  0.3366
  171SAPS  H17Y19475   7.221   2.821   4.055 -0.0736 -0.3422 -0.7651
  171SAPS  C31819476   7.260   2.619   3.986  0.3749 -0.3862 -0.4253
  171SAPS  H18X19477   7.218   2.642   3.885  2.4835  2.2601 -0.8250
  171SAPS  H18Y19478   7.262   2.515   4.023 -0.6924  0.8736  3.6590
  171SAPS  H18Z19479   7.368   2.639   3.968  0.3633 -0.3184 -0.4220
  172SAPS     N19480   1.568   4.639   6.684  0.8045 -0.3639  0.2475
  172SAPS   HN119481   1.615   4.633   6.777  0.7619 -2.5866  0.1850
  172SAPS   HN219482   1.613   4.565   6.627  0.7278 -0.4380  0.2815
  172SAPS   HN319483   1.602   4.730   6.648 -0.7646  0.4161  0.6296
  172SAPS   C1219484   1.425   4.619   6.708  0.2401  0.5189  0.2421
  172SAPS  H12A19485   1.389   4.585   6.612  0.7463 -0.1500  0.2815
  172SAPS   C1319486   1.368   4.514   6.820 -0.2723  0.7948  0.7096
  172SAPS  O13A19487   1.454   4.439   6.872  0.6398  0.3306 -0.1965
  172SAPS  O13B19488   1.240   4.511   6.828 -0.1348 -0.0495  0.0360
  172SAPS   C1119489   1.369   4.762   6.747  0.7797  0.2462  1.0425
  172SAPS  H11A19490   1.414   4.786   6.846  1.3968  1.4124  0.4938
  172SAPS  H11B19491   1.259   4.753   6.755  0.5098  0.5440 -1.5230
  172SAPS     P19492   1.289   4.912   6.542 -0.3621 -0.3812 -0.1355
  172SAPS   O1319493   1.216   4.792   6.504 -0.1173 -0.0405 -0.2935
  172SAPS   O1419494   1.214   5.022   6.610  0.2234 -0.0016  0.0930
  172SAPS   O1219495   1.403   4.863   6.643  0.2077 -0.1877  0.0764
  172SAPS   O1119496   1.375   4.965   6.416 -0.0716  0.1684  0.4432
  172SAPS    C119497   1.488   4.887   6.356  0.5047 -0.3251 -0.2460
  172SAPS    HA19498   1.587   4.931   6.379  0.4406 -1.2378  2.1446
  172SAPS    HB19499   1.494   4.786   6.402  0.1407  1.0300  3.0333
  172SAPS    C219500   1.475   4.872   6.203  0.5399  0.2370  0.2770
  172SAPS    HS19501   1.461   4.976   6.165  2.4570  1.3740  2.3536
  172SAPS   O2119502   1.363   4.781   6.175  0.0090  0.4467  0.0221
  172SAPS   C2119503   1.250   4.838   6.151 -0.1855 -1.0198 -0.5171
  172SAPS   O2219504   1.228   4.957   6.146 -0.2981 -0.4375  0.3015
  172SAPS   C2219505   1.145   4.740   6.110 -0.1001 -0.0260  0.0106
  172SAPS   H2R19506   1.105   4.691   6.202 -0.4862  0.0047 -0.1394
  172SAPS   H2S19507   1.064   4.796   6.060  0.2276 -0.5105 -1.0743
  172SAPS    C319508   1.599   4.819   6.128  0.2330  0.6246 -0.8904
  172SAPS    HX19509   1.607   4.711   6.153  1.1330  1.4675  3.0928
  172SAPS    HY19510   1.682   4.881   6.167  0.2288  0.6246 -0.8814
  172SAPS   O3119511   1.602   4.844   5.986  0.6420 -0.1094  0.0652
  172SAPS   C3119512   1.578   4.737   5.910  0.1808 -0.0310 -0.1712
  172SAPS   O3219513   1.571   4.622   5.944 -0.1461 -0.2517  0.4898
  172SAPS   C3219514   1.556   4.785   5.764 -0.2963  0.3145  0.0068
  172SAPS   H2X19515   1.612   4.880   5.748  0.3552 -0.1372 -0.4106
  172SAPS   H2Y19516   1.446   4.796   5.747 -0.7482  1.2163  2.9380
  172SAPS   C2319517   1.187   4.638   6.001 -0.2333 -0.1473 -0.0854
  172SAPS   H3R19518   1.107   4.560   5.997  0.2188 -0.6349  0.2686
  172SAPS   H3S19519   1.291   4.600   6.013  0.7876  1.6830 -2.4051
  172SAPS   C2419520   1.185   4.699   5.860  0.2513 -0.3363  0.4377
  172SAPS   H4R19521   1.262   4.779   5.858 -0.4151  0.4165  2.4716
  172SAPS   H4S19522   1.083   4.740   5.841 -1.0969 -3.9186 -0.9532
  172SAPS   C2519523   1.220   4.594   5.758  0.2928  0.3462 -0.8560
  172SAPS   H5R19524   1.305   4.530   5.787  2.6018  2.5460 -2.3032
  172SAPS   C2619525   1.168   4.573   5.634 -0.5239 -0.4326 -0.2338
  172SAPS   H6R19526   1.206   4.486   5.578  1.7450  0.1043  0.3733
  172SAPS   C2719527   1.065   4.666   5.569  0.3981  0.4631 -0.2124
  172SAPS   H7R19528   1.110   4.744   5.504  1.4808 -0.1318 -0.1969
  172SAPS   H7S19529   1.004   4.715   5.647  0.6659 -1.4629  1.2786
  172SAPS   C2819530   0.967   4.580   5.484 -0.8774  0.8168 -0.2079
  172SAPS   H8R19531   0.912   4.508   5.545 -0.8960  2.0227  1.2562
  172SAPS   C2919532   0.938   4.600   5.354 -0.3327 -0.0180  0.0054
  172SAPS   H9R19533   0.878   4.529   5.296  0.3759  0.9311 -1.9843
  172SAPS  C21019534   1.005   4.696   5.260 -0.3381 -0.3821  1.2078
  172SAPS  H10R19535   1.038   4.791   5.306 -0.6910  1.0350 -1.2685
  172SAPS  H10S19536   0.936   4.728   5.179  2.0809  1.8799 -0.1213
  172SAPS  C21119537   1.125   4.644   5.179  0.2117 -0.3028  0.6423
  172SAPS  H11R19538   1.221   4.681   5.217  0.9115 -0.1548 -1.1729
  172SAPS  C21219539   1.133   4.587   5.056  0.4028 -0.5192 -0.2911
  172SAPS  H12R19540   1.227   4.552   5.011  0.1679 -0.3915 -0.8859
  172SAPS  C21319541   1.009   4.568   4.970  0.0853  0.1530 -0.1658
  172SAPS  H13R19542   0.924   4.524   5.026 -1.7449  1.5128 -1.7150
  172SAPS  H13S19543   1.025   4.486   4.896 -0.7155  0.8413 -1.1334
  172SAPS  C21419544   0.951   4.698   4.909 -0.3953 -0.0350 -0.2768
  172SAPS  H14R19545   0.962   4.789   4.970 -3.6035  0.6101 -0.4915
  172SAPS  C21519546   0.904   4.716   4.784 -0.2066 -0.8207  0.2452
  172SAPS  H15R19547   0.881   4.819   4.754 -0.4048 -1.6302 -2.7565
  172SAPS  C21619548   0.901   4.611   4.673 -0.1077 -0.0851 -0.2592
  172SAPS  H16R19549   0.913   4.511   4.721  3.2862  0.7147  0.8736
  172SAPS  H16S19550   0.995   4.620   4.614 -0.1407 -0.0543 -0.3071
  172SAPS  C21719551   0.781   4.621   4.578 -0.4155  0.8767 -0.5740
  172SAPS  H17R19552   0.688   4.590   4.630  0.9676 -0.4998  1.2423
  172SAPS  H17S19553   0.808   4.546   4.501  0.8990  0.4073  0.3032
  172SAPS  C21819554   0.756   4.762   4.523 -0.1891 -0.4035  0.1969
  172SAPS  H18R19555   0.846   4.826   4.516 -0.4129 -0.1771 -0.7429
  172SAPS  H18S19556   0.694   4.816   4.598 -0.6674  1.4189 -1.4436
  172SAPS  C21919557   0.663   4.761   4.396 -0.6163  0.2379 -0.5903
  172SAPS  H19R19558   0.584   4.690   4.429  1.7125 -1.9657  0.5940
  172SAPS  H19S19559   0.717   4.712   4.312  1.2690 -1.3292  1.4360
  172SAPS  C22019560   0.620   4.898   4.356  0.1168 -0.0614  1.4344
  172SAPS  H20R19561   0.594   4.966   4.440 -0.3557 -0.1363  1.3530
  172SAPS  H20S19562   0.532   4.911   4.289 -0.2003 -1.3761  1.5582
  172SAPS  H20T19563   0.701   4.951   4.302  0.1002 -0.3133  1.1557
  172SAPS   C3319564   1.591   4.674   5.658 -0.3134 -0.4369  0.2576
  172SAPS   H3X19565   1.533   4.583   5.685  0.8142 -1.2450  0.0079
  172SAPS   H3Y19566   1.700   4.660   5.668 -0.1628  1.0053  0.8550
  172SAPS   C3419567   1.564   4.702   5.510  0.6726 -0.2192  0.4598
  172SAPS   H4X19568   1.575   4.810   5.486  0.1523 -0.5664 -1.5279
  172SAPS   H4Y19569   1.457   4.683   5.489  1.0136 -2.9858  0.7750
  172SAPS   C3519570   1.676   4.629   5.426  0.6533  0.2464 -0.1547
  172SAPS   H5X19571   1.673   4.520   5.447 -0.0949  0.5693  1.5413
  172SAPS   H5Y19572   1.775   4.662   5.464  1.4989 -1.4036 -0.8465
  172SAPS   C3619573   1.653   4.632   5.271 -0.7049  0.1051 -1.1555
  172SAPS   H6X19574   1.626   4.736   5.244 -1.3404 -0.2184 -1.8127
  172SAPS   H6Y19575   1.558   4.575   5.259 -0.8473 -0.6319  2.3286
  172SAPS   C3719576   1.773   4.567   5.197  1.4005 -0.0859 -0.3057
  172SAPS   H7X19577   1.778   4.462   5.232 -1.7446  0.0206  0.8030
  172SAPS   H7Y19578   1.860   4.626   5.231 -1.0821  3.5865  0.3013
  172SAPS   C3819579   1.730   4.562   5.047 -0.0115  0.5129 -0.2458
  172SAPS   H8X19580   1.813   4.537   4.978  0.5740  1.3976  0.1178
  172SAPS   H8Y19581   1.694   4.662   5.015  0.3814 -0.0371 -2.5833
  172SAPS   C3919582   1.606   4.462   5.024 -0.0459 -0.1297 -0.3344
  172SAPS   H9X19583   1.526   4.474   5.100  1.4395  0.0678  1.2470
  172SAPS   H9Y19584   1.651   4.362   5.041  1.5100  0.4340 -0.9298
  172SAPS  C31019585   1.547   4.479   4.888  0.6261 -0.6064  0.6760
  172SAPS  H10X19586   1.535   4.583   4.849 -0.1485 -1.4198 -1.4013
  172SAPS  H10Y19587   1.446   4.435   4.878  0.5531 -0.0802 -1.5223
  172SAPS  C31119588   1.628   4.403   4.790 -0.3324  0.9769  0.3080
  172SAPS  H11X19589   1.614   4.295   4.813 -0.4163  1.0050  0.3901
  172SAPS  H11Y19590   1.735   4.432   4.787  0.1595 -0.8187 -1.7719
  172SAPS  C31219591   1.589   4.426   4.644 -0.7256 -0.1207 -0.1471
  172SAPS  H12X19592   1.615   4.530   4.615 -1.4707  0.0786 -0.1027
  172SAPS  H12Y19593   1.478   4.419   4.645 -0.9195  2.1084  1.3357
  172SAPS  C31319594   1.649   4.325   4.552 -0.7365 -0.2614  0.4286
  172SAPS  H13X19595   1.609   4.231   4.595  0.4093  0.5247  3.4522
  172SAPS  H13Y19596   1.760   4.323   4.547 -0.7380  0.9353 -0.4869
  172SAPS  C31419597   1.604   4.350   4.409  0.6400 -0.1624  0.1507
  172SAPS  H14X19598   1.657   4.434   4.359 -1.0192 -0.8194 -2.9517
  172SAPS  H14Y19599   1.497   4.379   4.402  0.1158 -2.1169 -0.5616
  172SAPS  C31519600   1.611   4.228   4.319  0.1217  0.1001 -0.6448
  172SAPS  H15X19601   1.531   4.232   4.242  0.8312  2.2046 -1.3325
  172SAPS  H15Y19602   1.598   4.125   4.359  3.6725  0.0102  0.6284
  172SAPS  C31619603   1.756   4.209   4.261  0.2599  0.2074 -0.5295
  172SAPS  H16X19604   1.779   4.284   4.183  3.0235  1.0016  0.9367
  172SAPS  H16Y19605   1.823   4.231   4.347  0.9760 -1.6620 -0.5604
  172SAPS  C31719606   1.788   4.072   4.203 -0.1272 -0.1142  0.0957
  172SAPS  H17X19607   1.745   3.998   4.274 -1.5652  0.6562  0.0710
  172SAPS  H17Y19608   1.894   4.047   4.183 -0.0080  0.3092  0.1877
  172SAPS  C31819609   1.719   4.056   4.064 -0.4730  0.0094 -0.4241
  172SAPS  H18X19610   1.745   3.960   4.015 -2.4128  0.3061 -2.2010
  172SAPS  H18Y19611   1.738   4.134   3.987 -0.7696 -0.5457 -1.0740
  172SAPS  H18Z19612   1.610   4.070   4.080 -0.3353  0.6106  0.0048
  173SAPS     N19613   1.144   0.486   1.525 -0.0553 -0.4796 -0.1750
  173SAPS   HN119614   1.108   0.419   1.453 -1.6869  0.5537 -0.3841
  173SAPS   HN219615   1.248   0.485   1.530  0.0938  1.2352 -1.7966
  173SAPS   HN319616   1.096   0.468   1.615  2.9840 -0.6699  1.5362
  173SAPS   C1219617   1.102   0.630   1.483 -0.2452 -0.2435 -0.2118
  173SAPS  H12A19618   1.193   0.682   1.454 -0.4142  1.2044  1.6335
  173SAPS   C1319619   1.002   0.629   1.369 -0.7484  1.0343  0.1707
  173SAPS  O13A19620   0.961   0.519   1.320 -0.5344 -0.3248  0.2196
  173SAPS  O13B19621   0.981   0.734   1.305  0.7794 -0.0820  0.0462
  173SAPS   C1119622   1.044   0.703   1.608 -0.1765 -0.1012  0.3622
  173SAPS  H11A19623   1.015   0.802   1.568  1.8130  0.5304  0.3841
  173SAPS  H11B19624   1.117   0.725   1.689 -0.9129 -1.6064  1.4995
  173SAPS     P19625   0.931   0.555   1.781  0.0373  0.3714 -0.1386
  173SAPS   O1319626   0.804   0.481   1.793  0.4832 -0.4412  0.5037
  173SAPS   O1419627   1.048   0.464   1.774 -0.2497 -0.6769 -0.6227
  173SAPS   O1219628   0.929   0.644   1.655  1.0512  0.4544  0.4490
  173SAPS   O1119629   0.956   0.655   1.901 -0.1056  0.1032 -0.2199
  173SAPS    C119630   0.867   0.761   1.912  0.2730 -0.6035 -0.8073
  173SAPS    HA19631   0.934   0.848   1.922 -0.5105 -0.1215  0.5151
  173SAPS    HB19632   0.796   0.779   1.828  0.3170  0.8263 -0.5641
  173SAPS    C219633   0.788   0.754   2.043  0.5610  0.7720 -0.0874
  173SAPS    HS19634   0.713   0.836   2.044 -0.5334 -0.1818  1.4453
  173SAPS   O2119635   0.879   0.768   2.152  0.3218  0.0851 -0.3109
  173SAPS   C2119636   0.919   0.890   2.181  0.1689 -0.1682  0.2249
  173SAPS   O2219637   0.873   0.992   2.130 -0.0458 -0.3533 -0.2038
  173SAPS   C2219638   1.030   0.887   2.291 -0.4048 -0.4278  0.2010
  173SAPS   H2R19639   1.124   0.938   2.262  0.6432 -1.8297  1.0532
  173SAPS   H2S19640   1.003   0.944   2.383  2.7849 -1.1167  1.6966
  173SAPS    C319641   0.704   0.624   2.066 -0.0508  0.9967  0.4558
  173SAPS    HX19642   0.757   0.528   2.046 -1.8042  0.5163 -2.5215
  173SAPS    HY19643   0.629   0.609   1.985  0.1668 -0.4260  0.4788
  173SAPS   O3119644   0.631   0.619   2.195  0.0411  0.1709 -0.1847
  173SAPS   C3119645   0.703   0.566   2.292  0.1976  0.3005  0.4040
  173SAPS   O3219646   0.812   0.515   2.289 -0.5893 -0.7307  0.5460
  173SAPS   C3219647   0.631   0.584   2.429  0.1608  0.4652  1.0647
  173SAPS   H2X19648   0.699   0.522   2.492  2.5603  1.9865  0.1011
  173SAPS   H2Y19649   0.525   0.552   2.434 -0.2351  0.3192 -3.5688
  173SAPS   C2319650   1.064   0.745   2.332  0.3381  0.1678 -0.1419
  173SAPS   H3R19651   1.111   0.680   2.256  1.4194 -2.0451  2.2585
  173SAPS   H3S19652   0.967   0.697   2.358 -0.3933  1.6728  0.0190
  173SAPS   C2419653   1.145   0.752   2.458 -1.5286  0.2534 -0.6324
  173SAPS   H4R19654   1.083   0.801   2.536  0.0452  1.1230  0.1389
  173SAPS   H4S19655   1.231   0.821   2.444 -1.9471  0.5310 -1.9519
  173SAPS   C2519656   1.204   0.624   2.509 -0.3666 -0.7615 -0.0329
  173SAPS   H5R19657   1.301   0.586   2.473  1.1121 -0.5376  3.3920
  173SAPS   C2619658   1.143   0.551   2.604 -0.1739 -0.4314 -0.6738
  173SAPS   H6R19659   1.185   0.451   2.620  1.0452 -0.3573 -2.9671
  173SAPS   C2719660   1.018   0.576   2.680 -0.3557 -0.1871 -0.0659
  173SAPS   H7R19661   0.960   0.654   2.626 -3.8898 -3.1141 -0.8598
  173SAPS   H7S19662   1.051   0.615   2.779  0.2838 -0.7037 -0.0702
  173SAPS   C2819663   0.929   0.458   2.688  0.0019 -0.1302  0.0607
  173SAPS   H8R19664   0.883   0.426   2.593  1.5075  0.2836 -0.8449
  173SAPS   C2919665   0.896   0.374   2.787  0.5861  0.1974 -0.2689
  173SAPS   H9R19666   0.842   0.281   2.767  0.6851 -0.3701  1.8974
  173SAPS  C21019667   0.950   0.373   2.928 -0.6333  0.8252  0.2987
  173SAPS  H10R19668   1.050   0.419   2.920  0.5298 -1.4166  0.9601
  173SAPS  H10S19669   0.976   0.271   2.964  0.0424  1.0092  0.3465
  173SAPS  C21119670   0.870   0.448   3.027  0.0331  0.4947  0.4438
  173SAPS  H11R19671   0.858   0.556   3.013  1.6134  1.0050  2.6569
  173SAPS  C21219672   0.794   0.394   3.125  0.2848 -0.1237  0.1868
  173SAPS  H12R19673   0.734   0.457   3.193  2.6501 -1.6071  3.9519
  173SAPS  C21319674   0.785   0.246   3.173 -0.1151 -0.2483 -0.0315
  173SAPS  H13R19675   0.892   0.233   3.196  0.3960  1.2340 -1.4171
  173SAPS  H13S19676   0.777   0.178   3.086 -0.7353 -2.1282  1.4095
  173SAPS  C21419677   0.696   0.208   3.290  0.1354 -0.1405 -0.7880
  173SAPS  H14R19678   0.596   0.168   3.269 -0.4612  0.4323  0.8344
  173SAPS  C21519679   0.726   0.218   3.417 -0.0758 -0.6916  0.5110
  173SAPS  H15R19680   0.652   0.176   3.486 -0.1337 -0.8238  0.3696
  173SAPS  C21619681   0.853   0.259   3.484 -0.2474 -0.3807  0.5784
  173SAPS  H16R19682   0.914   0.309   3.405 -2.6778  1.2643 -0.4113
  173SAPS  H16S19683   0.905   0.170   3.524  1.0924  0.3162  0.4330
  173SAPS  C21719684   0.830   0.346   3.615 -0.6529  0.3432 -0.5352
  173SAPS  H17R19685   0.780   0.441   3.588 -0.9248  0.6164  0.8325
  173SAPS  H17S19686   0.931   0.380   3.646 -1.3579  1.0818  1.1119
  173SAPS  C21819687   0.755   0.274   3.730 -0.0639  0.0420  0.0676
  173SAPS  H18R19688   0.660   0.240   3.686  0.6352 -2.3259  0.2296
  173SAPS  H18S19689   0.736   0.354   3.804 -0.3162  0.3378 -0.3171
  173SAPS  C21919690   0.820   0.148   3.800  0.2473  0.5494  0.1962
  173SAPS  H19R19691   0.919   0.177   3.843  0.2045 -0.0053  0.6783
  173SAPS  H19S19692   0.842   0.077   3.717  0.0437  0.0779  0.5411
  173SAPS  C22019693   0.718   0.079   3.893 -0.7194 -0.7262  0.1573
  173SAPS  H20R19694   0.779   0.022   3.966 -0.7032 -1.2770 -0.2861
  173SAPS  H20S19695   0.648   0.007   3.845 -3.5900  1.0696  1.3814
  173SAPS  H20T19696   0.656   0.157   3.942 -1.4581 -1.6882  0.7690
  173SAPS   C3319697   0.636   0.731   2.483 -0.4601  0.2343  0.3706
  173SAPS   H3X19698   0.566   0.795   2.425  1.5465  0.4495 -1.9977
  173SAPS   H3Y19699   0.735   0.779   2.466 -0.7086  1.4894  2.1956
  173SAPS   C3419700   0.606   0.743   2.633 -0.2357  0.5533 -0.1920
  173SAPS   H4X19701   0.662   0.673   2.697 -3.1481 -0.9996  0.8452
  173SAPS   H4Y19702   0.498   0.716   2.640 -0.2477  0.3093 -1.1521
  173SAPS   C3519703   0.647   0.879   2.688 -0.3295  0.4498  1.0224
  173SAPS   H5X19704   0.614   0.955   2.614 -0.8117 -0.0153  0.7504
  173SAPS   H5Y19705   0.758   0.873   2.689 -0.2167  1.0809 -1.5340
  173SAPS   C3619706   0.583   0.902   2.821  0.7676 -0.5992 -0.6162
  173SAPS   H6X19707   0.479   0.862   2.823 -0.2607  1.7913  2.6463
  173SAPS   H6Y19708   0.550   1.007   2.836  2.1423 -0.3887  1.3422
  173SAPS   C3719709   0.661   0.859   2.943  0.2459 -0.4777  0.1199
  173SAPS   H7X19710   0.747   0.927   2.961 -0.2713  0.0093  0.7719
  173SAPS   H7Y19711   0.711   0.760   2.930  0.9458 -0.0678 -0.3906
  173SAPS   C3819712   0.580   0.843   3.078  0.1590  0.1918  0.0435
  173SAPS   H8X19713   0.525   0.747   3.069  0.1858  0.0816  0.9939
  173SAPS   H8Y19714   0.517   0.933   3.094  0.6094  0.6547 -0.7212
  173SAPS   C3919715   0.676   0.833   3.203  0.3755  0.2391  0.7099
  173SAPS   H9X19716   0.762   0.904   3.199  0.3319  0.2390 -0.7977
  173SAPS   H9Y19717   0.720   0.733   3.221  0.9611  0.3389 -0.1049
  173SAPS  C31019718   0.603   0.867   3.329 -0.4120 -0.2071 -0.1390
  173SAPS  H10X19719   0.533   0.792   3.370 -0.6464 -0.6031 -1.2163
  173SAPS  H10Y19720   0.542   0.959   3.318  0.3215  0.3687  0.5070
  173SAPS  C31119721   0.699   0.895   3.445  0.5041 -1.3773 -0.1633
  173SAPS  H11X19722   0.748   0.986   3.404 -1.3723 -0.3387 -0.2157
  173SAPS  H11Y19723   0.781   0.820   3.456  0.5674 -1.2395  0.3363
  173SAPS  C31219724   0.648   0.952   3.577  0.4763  0.5912  0.0862
  173SAPS  H12X19725   0.550   1.001   3.556 -0.2151  0.5070  2.6718
  173SAPS  H12Y19726   0.720   1.031   3.607  0.9022  1.2562 -2.4738
  173SAPS  C31319727   0.618   0.847   3.692  0.2228 -0.3517  0.1075
  173SAPS  H13X19728   0.705   0.788   3.728 -0.2500 -1.0557  0.1330
  173SAPS  H13Y19729   0.548   0.775   3.644 -0.0776 -0.6870  1.0319
  173SAPS  C31419730   0.558   0.915   3.812  0.4616 -0.1278  0.1573
  173SAPS  H14X19731   0.471   0.971   3.771  1.0195  1.8302  1.5014
  173SAPS  H14Y19732   0.625   0.998   3.842  0.3238  1.3990 -3.3247
  173SAPS  C31519733   0.534   0.823   3.941 -0.5697 -0.0323 -1.3087
  173SAPS  H15X19734   0.631   0.790   3.982 -0.8858  0.3616 -0.2246
  173SAPS  H15Y19735   0.473   0.735   3.912 -0.2581 -1.0475  0.9410
  173SAPS  C31619736   0.469   0.911   4.052 -0.5108  0.5144 -0.5410
  173SAPS  H16X19737   0.526   1.002   4.079  0.5899  1.1188 -4.3241
  173SAPS  H16Y19738   0.453   0.845   4.141  0.8834 -0.3587 -0.9030
  173SAPS  C31719739   0.329   0.959   4.021  0.8541 -0.4732 -0.0106
  173SAPS  H17X19740   0.288   0.889   3.945 -1.2314 -0.7717  1.3099
  173SAPS  H17Y19741   0.349   1.062   3.984  2.3757  0.4923  3.1851
  173SAPS  C31819742   0.241   0.970   4.145 -0.2943 -0.6787 -0.5346
  173SAPS  H18X19743   0.152   1.030   4.118  0.6749  0.6753 -0.7925
  173SAPS  H18Y19744   0.302   1.010   4.229 -0.4101 -0.3573 -0.6026
  173SAPS  H18Z19745   0.215   0.865   4.171 -1.5901 -0.5241 -1.1294
  174SAPS     N19746   3.779   3.740   2.384  0.7603  0.0085  0.5488
  174SAPS   HN119747   3.877   3.763   2.409  0.9785 -0.9250  0.5837
  174SAPS   HN219748   3.745   3.809   2.314  0.4360 -3.0462 -2.5702
  174SAPS   HN319749   3.726   3.740   2.474 -1.2077 -1.5633 -0.5128
  174SAPS   C1219750   3.774   3.598   2.319 -0.0681  0.4263 -1.2073
  174SAPS  H12A19751   3.676   3.572   2.281 -0.3643 -0.9021  0.3615
  174SAPS   C1319752   3.870   3.593   2.203 -0.2927 -0.1530 -0.3750
  174SAPS  O13A19753   3.924   3.696   2.166  0.2352 -0.1666 -0.0062
  174SAPS  O13B19754   3.848   3.498   2.120 -0.3386  0.3530 -0.0462
  174SAPS   C1119755   3.815   3.493   2.422  0.4070  0.3861  0.7036
  174SAPS  H11A19756   3.909   3.518   2.477  0.6979  2.4580 -0.6185
  174SAPS  H11B19757   3.837   3.397   2.370  0.2893  1.3704 -1.2456
  174SAPS     P19758   3.608   3.352   2.515 -0.5158  0.2188  0.3291
  174SAPS   O1319759   3.471   3.392   2.548  0.1889  0.4342 -0.4508
  174SAPS   O1419760   3.624   3.277   2.389  0.8071 -0.0011 -0.4764
  174SAPS   O1219761   3.706   3.473   2.510  0.4634 -0.4195  0.0582
  174SAPS   O1119762   3.666   3.259   2.629  0.3959 -0.0902  0.2141
  174SAPS    C119763   3.783   3.286   2.701 -0.2511  0.4594  0.6402
  174SAPS    HA19764   3.853   3.199   2.700  1.9738  2.1479  1.5177
  174SAPS    HB19765   3.846   3.368   2.661  1.6870 -0.1363  2.2997
  174SAPS    C219766   3.765   3.318   2.852 -0.7159 -0.2643  0.1218
  174SAPS    HS19767   3.865   3.339   2.894 -0.3769  0.9433 -1.2132
  174SAPS   O2119768   3.695   3.216   2.920 -0.1832 -0.4993  0.8018
  174SAPS   C2119769   3.770   3.111   2.963 -0.9104 -0.2701 -1.2874
  174SAPS   O2219770   3.896   3.107   2.952  0.1617 -0.0479  0.8327
  174SAPS   C2219771   3.678   3.027   3.052  0.5932 -0.5113  0.5473
  174SAPS   H2R19772   3.686   3.075   3.152 -1.2134 -1.8046  1.3705
  174SAPS   H2S19773   3.571   3.044   3.025  0.7497 -0.3800  0.0035
  174SAPS    C319774   3.690   3.457   2.869  0.5440 -0.0753  0.2326
  174SAPS    HX19775   3.592   3.428   2.825  0.1047 -0.4459  1.4404
  174SAPS    HY19776   3.748   3.526   2.804 -0.4935  0.0292 -0.6298
  174SAPS   O3119777   3.682   3.491   3.009 -0.0153 -0.6598 -0.2456
  174SAPS   C3119778   3.781   3.568   3.055 -0.4390  0.0608  0.0320
  174SAPS   O3219779   3.870   3.627   2.993 -0.3321  0.2901  0.0139
  174SAPS   C3219780   3.769   3.561   3.210  0.6224 -0.4303 -0.2907
  174SAPS   H2X19781   3.737   3.459   3.241 -0.3245 -1.1726 -3.3578
  174SAPS   H2Y19782   3.689   3.633   3.238  1.3179  0.1357  0.2870
  174SAPS   C2319783   3.722   2.884   3.055  0.2946 -0.5832 -0.7968
  174SAPS   H3R19784   3.833   2.873   3.046  0.3761 -1.1761  0.6624
  174SAPS   H3S19785   3.668   2.834   2.972  0.5371  0.4772 -1.6126
  174SAPS   C2419786   3.695   2.824   3.195 -0.1778 -0.4919  0.0709
  174SAPS   H4R19787   3.766   2.884   3.256  0.4313 -1.5351  0.4070
  174SAPS   H4S19788   3.731   2.720   3.201  0.9962 -0.1353 -0.5576
  174SAPS   C2519789   3.549   2.827   3.240 -0.2911  0.5238  0.2050
  174SAPS   H5R19790   3.484   2.792   3.159  0.6888  0.9195 -0.7743
  174SAPS   C2619791   3.502   2.871   3.357  0.1472  0.6072  0.3192
  174SAPS   H6R19792   3.393   2.867   3.371  0.1860 -0.2111  0.4257
  174SAPS   C2719793   3.585   2.909   3.480 -0.2838  0.2995  0.1595
  174SAPS   H7R19794   3.560   3.015   3.503  1.5599  0.9258 -0.4829
  174SAPS   H7S19795   3.695   2.903   3.464 -0.1068  1.9901  0.5783
  174SAPS   C2819796   3.554   2.816   3.601  0.3234  0.6422 -0.3862
  174SAPS   H8R19797   3.636   2.747   3.625 -0.9047 -0.7196  0.0251
  174SAPS   C2919798   3.448   2.826   3.693  0.2439  0.1577  0.0437
  174SAPS   H9R19799   3.438   2.748   3.770 -0.6172 -1.1107 -1.2842
  174SAPS  C21019800   3.329   2.920   3.682  0.3698  0.5493  0.1508
  174SAPS  H10R19801   3.339   2.991   3.598 -0.7951  0.0898 -0.3956
  174SAPS  H10S19802   3.327   2.981   3.775 -1.3912 -1.1537  1.3276
  174SAPS  C21119803   3.203   2.842   3.653  0.0871  0.0848 -0.3701
  174SAPS  H11R19804   3.195   2.793   3.555 -2.0277 -0.7225  0.1533
  174SAPS  C21219805   3.101   2.822   3.739 -0.2497 -0.6336 -0.0268
  174SAPS  H12R19806   3.017   2.763   3.699  0.5687 -1.0675 -1.1611
  174SAPS  C21319807   3.095   2.872   3.881  0.3599  0.2023  0.1147
  174SAPS  H13R19808   3.119   2.980   3.877  0.4447  0.1557 -0.8248
  174SAPS  H13S19809   3.172   2.811   3.934 -1.7982 -1.2553  1.7648
  174SAPS  C21419810   2.957   2.857   3.939  0.2670  0.0230  0.3844
  174SAPS  H14R19811   2.900   2.784   3.880  0.8038 -0.2532  0.2052
  174SAPS  C21519812   2.910   2.875   4.065  0.4180 -0.3484 -0.6741
  174SAPS  H15R19813   2.811   2.847   4.103 -0.6805  3.4351 -0.2592
  174SAPS  C21619814   2.990   2.943   4.172 -0.9775 -0.4723  0.8975
  174SAPS  H16R19815   2.969   3.052   4.177  0.7888  0.0191 -0.9171
  174SAPS  H16S19816   3.097   2.929   4.145 -0.3193 -1.4913  3.6849
  174SAPS  C21719817   2.973   2.901   4.318  0.4071 -0.0396  0.4528
  174SAPS  H17R19818   3.048   2.948   4.385  0.6807  0.6262 -0.2924
  174SAPS  H17S19819   2.971   2.792   4.338 -3.7335 -0.1988  0.1750
  174SAPS  C21819820   2.838   2.959   4.370  0.4404  0.0103  0.9186
  174SAPS  H18R19821   2.761   2.918   4.301  1.3517  0.1455 -0.2085
  174SAPS  H18S19822   2.834   3.066   4.340 -0.4060 -0.4169 -0.6216
  174SAPS  C21919823   2.813   2.923   4.511 -0.3695  0.1827  0.2730
  174SAPS  H19R19824   2.903   2.949   4.570 -1.3495 -0.1110  1.9660
  174SAPS  H19S19825   2.797   2.816   4.538  0.7561  0.1026  0.6571
  174SAPS  C22019826   2.700   2.995   4.587 -0.4732  0.4797  0.9238
  174SAPS  H20R19827   2.603   2.964   4.543  0.1356  0.0869 -0.1867
  174SAPS  H20S19828   2.712   3.105   4.578 -2.4730  0.7107  0.6531
  174SAPS  H20T19829   2.706   2.971   4.695  0.2018 -4.2680  0.0351
  174SAPS   C3319830   3.898   3.591   3.289  0.2559  0.4372  0.0557
  174SAPS   H3X19831   3.987   3.568   3.227  1.3453 -2.3320  2.3609
  174SAPS   H3Y19832   3.896   3.517   3.372  0.4091 -0.3754 -0.6511
  174SAPS   C3419833   3.915   3.716   3.361  0.0967 -0.4187  0.1536
  174SAPS   H4X19834   3.812   3.752   3.381 -0.8621 -1.9645 -1.6763
  174SAPS   H4Y19835   3.977   3.793   3.312  0.2477 -0.2585  0.5859
  174SAPS   C3519836   3.980   3.711   3.501 -0.4676 -0.0071  0.2985
  174SAPS   H5X19837   4.085   3.675   3.491 -0.3639  0.3243  0.1826
  174SAPS   H5Y19838   3.928   3.634   3.562 -1.2032 -1.6713 -2.2295
  174SAPS   C3619839   4.001   3.842   3.571  0.5187  0.5188 -0.0809
  174SAPS   H6X19840   4.045   3.915   3.499  0.4355  0.9754  0.3300
  174SAPS   H6Y19841   4.071   3.822   3.655 -1.9330 -1.8058  1.5711
  174SAPS   C3719842   3.869   3.897   3.629  0.4458  0.1280 -0.3226
  174SAPS   H7X19843   3.795   3.914   3.548  0.4631  0.6045 -0.2393
  174SAPS   H7Y19844   3.886   4.001   3.664 -1.3330  0.2532  0.2648
  174SAPS   C3819845   3.804   3.822   3.742 -0.5619 -0.4965 -1.0739
  174SAPS   H8X19846   3.886   3.804   3.815  0.0478  1.6476 -1.1430
  174SAPS   H8Y19847   3.762   3.727   3.704 -0.2291 -0.0869 -2.5252
  174SAPS   C3919848   3.683   3.890   3.806 -0.1304  1.0156  0.1108
  174SAPS   H9X19849   3.596   3.890   3.737  0.5208  1.1854 -0.7139
  174SAPS   H9Y19850   3.712   3.997   3.805  0.4753  0.8554 -1.1463
  174SAPS  C31019851   3.653   3.847   3.946 -0.4273 -0.7278  0.1226
  174SAPS  H10X19852   3.747   3.853   4.005 -1.0528  1.0526  1.0203
  174SAPS  H10Y19853   3.624   3.739   3.947 -0.9276 -0.5942  1.1046
  174SAPS  C31119854   3.542   3.935   4.014 -0.2946 -0.1837 -0.1547
  174SAPS  H11X19855   3.484   3.978   3.930  1.3645 -0.6308 -1.5939
  174SAPS  H11Y19856   3.583   4.020   4.073  0.7046 -0.4743 -0.4101
  174SAPS  C31219857   3.449   3.845   4.094 -0.4026  0.7709  0.6282
  174SAPS  H12X19858   3.419   3.758   4.032  0.3603  1.8385 -1.3688
  174SAPS  H12Y19859   3.356   3.897   4.124 -0.2322  2.3476 -1.3098
  174SAPS  C31319860   3.507   3.800   4.228 -0.2324 -0.4262 -0.1755
  174SAPS  H13X19861   3.503   3.890   4.293 -0.6910  0.6907 -1.6953
  174SAPS  H13Y19862   3.616   3.776   4.232 -0.3581 -0.9884  2.7864
  174SAPS  C31419863   3.432   3.688   4.300 -0.0934 -0.5547 -0.0431
  174SAPS  H14X19864   3.455   3.594   4.244  0.1628 -0.2388 -0.4740
  174SAPS  H14Y19865   3.324   3.713   4.304  0.4295  2.3005 -1.4971
  174SAPS  C31519866   3.487   3.662   4.448 -1.1107 -0.3948  0.3208
  174SAPS  H15X19867   3.457   3.749   4.511  2.9241  1.3603  0.1836
  174SAPS  H15Y19868   3.598   3.673   4.446 -0.9558 -1.9064 -0.3780
  174SAPS  C31619869   3.465   3.526   4.505  0.6842  0.8870  0.1253
  174SAPS  H16X19870   3.521   3.452   4.444  1.9337  1.2849  0.7575
  174SAPS  H16Y19871   3.355   3.508   4.498  0.4113  2.5241 -0.3086
  174SAPS  C31719872   3.506   3.531   4.650 -0.2946 -0.1551  0.3197
  174SAPS  H17X19873   3.416   3.544   4.714  1.7419  1.8417  3.0250
  174SAPS  H17Y19874   3.574   3.617   4.667 -0.0928 -0.6825  2.5214
  174SAPS  C31819875   3.585   3.401   4.687 -0.0692  0.0893 -0.1592
  174SAPS  H18X19876   3.519   3.315   4.665  1.1192 -0.6131 -1.1769
  174SAPS  H18Y19877   3.622   3.401   4.792  1.0570 -1.0475 -0.5199
  174SAPS  H18Z19878   3.676   3.403   4.623 -1.2889  2.4641 -1.9789
  175SAPS     N19879   1.594   3.864   1.921  0.5049 -0.4718 -0.1030
  175SAPS   HN119880   1.510   3.922   1.900  1.5534  1.5955  1.0303
  175SAPS   HN219881   1.584   3.766   1.888 -0.8147 -0.9305  1.4973
  175SAPS   HN319882   1.617   3.861   2.023 -0.1138 -0.2660  0.0489
  175SAPS   C1219883   1.716   3.909   1.845  0.1799  0.1602  0.2865
  175SAPS  H12A19884   1.794   3.944   1.912  0.2463 -0.0960  0.3449
  175SAPS   C1319885   1.776   3.787   1.765 -0.2819 -0.1105  0.4016
  175SAPS  O13A19886   1.727   3.673   1.752  0.0376  0.0926 -0.1916
  175SAPS  O13B19887   1.884   3.812   1.706 -0.2803  0.1759  0.0932
  175SAPS   C1119888   1.682   4.021   1.750 -0.7884  0.1359  0.4918
  175SAPS  H11A19889   1.608   3.985   1.676 -0.5965  0.8803 -0.0738
  175SAPS  H11B19890   1.778   4.042   1.697 -0.4052 -1.0221  0.6909
  175SAPS     P19891   1.506   4.210   1.815 -0.8745  0.2862  0.3691
  175SAPS   O1319892   1.506   4.308   1.702  0.3453 -0.3670 -0.0742
  175SAPS   O1419893   1.412   4.096   1.815  0.0397 -0.0831 -0.2435
  175SAPS   O1219894   1.653   4.142   1.820  0.0875  0.1328  0.0981
  175SAPS   O1119895   1.496   4.290   1.950  0.1091 -0.3654 -0.1504
  175SAPS    C119896   1.603   4.382   1.985  0.1383  0.9309 -0.3401
  175SAPS    HA19897   1.639   4.443   1.901  0.2247 -0.9014 -1.6955
  175SAPS    HB19898   1.564   4.469   2.043  2.6035  1.9647 -0.1072
  175SAPS    C219899   1.715   4.321   2.073 -0.3272  0.0766  0.6358
  175SAPS    HS19900   1.771   4.248   2.011 -1.2857 -0.3780  0.2911
  175SAPS   O2119901   1.663   4.256   2.189 -0.1828 -0.2061  0.5860
  175SAPS   C2119902   1.678   4.131   2.210  0.2684  0.3737  0.4720
  175SAPS   O2219903   1.720   4.053   2.125  0.4762 -0.3398 -0.3615
  175SAPS   C2219904   1.645   4.099   2.355  0.0910 -0.0266 -0.8826
  175SAPS   H2R19905   1.589   4.188   2.393  1.2767  0.7539 -0.9003
  175SAPS   H2S19906   1.573   4.014   2.358  0.7572 -0.6070 -1.2893
  175SAPS    C319907   1.804   4.444   2.119 -0.0524 -0.3283  0.2322
  175SAPS    HX19908   1.726   4.513   2.160  0.0412  0.5643 -1.0206
  175SAPS    HY19909   1.851   4.479   2.025  0.3912  0.9561  0.9059
  175SAPS   O3119910   1.904   4.415   2.213  0.2628 -0.3200  0.1545
  175SAPS   C3119911   1.939   4.521   2.291 -0.1607  1.1080  0.4495
  175SAPS   O3219912   1.894   4.632   2.292  0.1287  0.2436  0.0258
  175SAPS   C3219913   2.039   4.478   2.389 -0.6551  0.1889  0.5971
  175SAPS   H2X19914   2.091   4.396   2.336 -0.9910  0.4492 -0.1515
  175SAPS   H2Y19915   1.994   4.451   2.487 -1.3726  0.4132  0.3356
  175SAPS   C2319916   1.773   4.050   2.429  0.0705  0.5472  0.0627
  175SAPS   H3R19917   1.819   3.975   2.361  2.1895  0.6323  1.3033
  175SAPS   H3S19918   1.748   3.986   2.516  2.1811  0.0649  0.3535
  175SAPS   C2419919   1.856   4.168   2.463  0.4757 -0.4772  0.4467
  175SAPS   H4R19920   1.828   4.197   2.566  1.7956  0.0977  0.6713
  175SAPS   H4S19921   1.845   4.262   2.406  1.5120  0.0368  1.0651
  175SAPS   C2519922   2.005   4.145   2.454 -0.0398 -0.4126 -0.2522
  175SAPS   H5R19923   2.026   4.138   2.346 -1.2298  1.8773 -0.6991
  175SAPS   C2619924   2.107   4.125   2.543 -0.0418 -0.2628  0.6048
  175SAPS   H6R19925   2.204   4.107   2.495 -0.7222  0.7707 -1.2831
  175SAPS   C2719926   2.087   4.116   2.696 -0.4357  0.1509 -0.3780
  175SAPS   H7R19927   2.187   4.115   2.744 -1.0298  1.2521  0.9425
  175SAPS   H7S19928   2.062   4.010   2.717 -1.0221  0.1402 -1.0718
  175SAPS   C2819929   2.011   4.220   2.786 -0.3072  0.1928  0.1859
  175SAPS   H8R19930   2.012   4.324   2.748 -0.6015  0.2131  0.2289
  175SAPS   C2919931   1.942   4.179   2.900  0.1986  0.1191 -0.4404
  175SAPS   H9R19932   1.897   4.261   2.959  0.8827  0.5884 -0.5544
  175SAPS  C21019933   1.926   4.032   2.952  0.3840 -0.4973  0.1145
  175SAPS  H10R19934   1.901   4.030   3.060  0.3799  1.5613  0.1914
  175SAPS  H10S19935   2.013   3.966   2.936 -0.5069 -1.3055 -1.8225
  175SAPS  C21119936   1.809   3.953   2.889 -0.2500  0.4180 -0.1011
  175SAPS  H11R19937   1.774   3.982   2.789  1.0753  0.0566 -0.6909
  175SAPS  C21219938   1.751   3.849   2.957 -0.3495 -0.1401  0.7916
  175SAPS  H12R19939   1.683   3.788   2.896  1.0543  0.1055 -1.1237
  175SAPS  C21319940   1.801   3.800   3.091  0.1107 -0.6957 -0.5383
  175SAPS  H13R19941   1.754   3.867   3.165 -0.4175 -0.9887 -0.5986
  175SAPS  H13S19942   1.906   3.818   3.122 -0.4633 -1.0751  1.8094
  175SAPS  C21419943   1.762   3.657   3.128 -0.4286  0.2574  0.2977
  175SAPS  H14R19944   1.834   3.581   3.093 -2.0919 -0.7174 -1.1129
  175SAPS  C21519945   1.659   3.614   3.200  1.3561 -0.2585 -0.5609
  175SAPS  H15R19946   1.643   3.506   3.217 -2.5750  0.1396 -0.9598
  175SAPS  C21619947   1.557   3.700   3.270 -0.4820 -0.2435  0.1637
  175SAPS  H16R19948   1.583   3.808   3.261  1.1921 -0.7074 -0.9221
  175SAPS  H16S19949   1.548   3.684   3.380  1.4932 -0.8148  0.2691
  175SAPS  C21719950   1.424   3.677   3.199 -0.1644 -0.6442 -0.0586
  175SAPS  H17R19951   1.390   3.573   3.222  2.8586 -1.8305 -0.5481
  175SAPS  H17S19952   1.432   3.679   3.088 -0.6780  0.8727 -0.0940
  175SAPS  C21819953   1.311   3.776   3.228 -0.1248  0.0796 -0.1457
  175SAPS  H18R19954   1.347   3.876   3.194  1.1509 -0.7032 -1.2044
  175SAPS  H18S19955   1.298   3.795   3.337  0.1050  0.2704 -0.1497
  175SAPS  C21919956   1.177   3.739   3.157 -0.4944 -0.3734  0.3903
  175SAPS  H19R19957   1.144   3.637   3.184  1.6186 -1.3503 -0.4636
  175SAPS  H19S19958   1.208   3.741   3.050  0.4207 -0.6574  0.6389
  175SAPS  C22019959   1.066   3.842   3.191 -0.3353 -0.2034  0.2971
  175SAPS  H20R19960   1.101   3.944   3.166  2.4366 -1.0541  0.4512
  175SAPS  H20S19961   1.030   3.834   3.296  0.8696 -1.7338  0.6255
  175SAPS  H20T19962   0.983   3.835   3.117  0.9366 -0.2570 -1.1817
  175SAPS   C3319963   2.153   4.583   2.407  0.2581  0.1960 -0.1465
  175SAPS   H3X19964   2.115   4.674   2.456  4.2832  1.1610  1.5440
  175SAPS   H3Y19965   2.199   4.605   2.308  1.3373 -0.5806  0.1605
  175SAPS   C3419966   2.273   4.540   2.492 -0.3905 -0.1770  0.6581
  175SAPS   H4X19967   2.314   4.452   2.439 -0.8360 -0.7505  1.2477
  175SAPS   H4Y19968   2.233   4.509   2.591 -1.8306  1.6722  0.7147
  175SAPS   C3519969   2.378   4.650   2.517  0.0338  0.4462 -0.1074
  175SAPS   H5X19970   2.455   4.611   2.587 -0.7051 -0.4781  0.1954
  175SAPS   H5Y19971   2.335   4.744   2.558  1.7499  1.4582 -0.5319
  175SAPS   C3619972   2.454   4.692   2.392  0.7724  0.4293  0.1234
  175SAPS   H6X19973   2.377   4.713   2.315 -1.1615  1.5664  2.2261
  175SAPS   H6Y19974   2.515   4.606   2.360  0.8506  0.7124 -0.5056
  175SAPS   C3719975   2.540   4.821   2.417  0.3702  0.1427  0.9206
  175SAPS   H7X19976   2.477   4.911   2.433  0.4619  1.1234 -3.1882
  175SAPS   H7Y19977   2.590   4.843   2.321 -0.0040 -0.2584  0.6282
  175SAPS   C3819978   2.653   4.803   2.523  0.3797  0.0770  0.6225
  175SAPS   H8X19979   2.705   4.710   2.490  0.6204  0.4352 -0.0289
  175SAPS   H8Y19980   2.607   4.785   2.622  1.1886  0.2946  1.0414
  175SAPS   C3919981   2.747   4.927   2.542  0.5115  0.2002  0.2045
  175SAPS   H9X19982   2.684   5.016   2.561  1.3816  0.6420  1.1314
  175SAPS   H9Y19983   2.797   4.943   2.443  3.2858  0.2320  1.5152
  175SAPS  C31019984   2.859   4.920   2.646 -0.3170 -0.2659  0.4281
  175SAPS  H10X19985   2.826   4.951   2.747 -0.8102  2.4359 -0.4759
  175SAPS  H10Y19986   2.937   4.996   2.622  0.8247 -1.3077  0.7085
  175SAPS  C31119987   2.923   4.782   2.655 -0.0080  0.2972  0.3882
  175SAPS  H11X19988   2.954   4.766   2.550  3.3688 -0.9848  1.4708
  175SAPS  H11Y19989   2.866   4.694   2.691  0.8217  0.4699  2.1831
  175SAPS  C31219990   3.048   4.791   2.747 -0.7407  0.4013 -0.7209
  175SAPS  H12X19991   3.099   4.887   2.726  0.7824 -0.1454  0.3190
  175SAPS  H12Y19992   3.120   4.715   2.710 -1.1861  0.2905 -1.3931
  175SAPS  C31319993   3.008   4.775   2.896 -0.7457  0.0919  0.1822
  175SAPS  H13X19994   2.985   4.667   2.915  0.5753 -0.7837 -2.6649
  175SAPS  H13Y19995   2.913   4.829   2.913 -1.1706  0.2135 -2.2781
  175SAPS  C31419996   3.112   4.838   2.991  0.3260  0.4324 -0.6304
  175SAPS  H14X19997   3.065   4.829   3.091  1.5975 -0.7736 -0.1232
  175SAPS  H14Y19998   3.128   4.945   2.965  2.1954  0.8397  1.8438
  175SAPS  C31519999   3.243   4.758   2.996 -0.7101  0.0271 -0.2875
  175SAPS  H15X20000   3.287   4.758   2.894  1.7989 -1.0463  0.6879
  175SAPS  H15Y20001   3.224   4.650   3.018  2.3072 -0.4917  0.2505
  175SAPS  C31620002   3.343   4.802   3.110  0.2644 -0.3561  0.0817
  175SAPS  H16X20003   3.431   4.733   3.117  2.3887  2.2962  1.3028
  175SAPS  H16Y20004   3.285   4.790   3.205 -2.1213  0.4896 -1.1895
  175SAPS  C31720005   3.408   4.942   3.085 -0.0088  0.5892  0.1937
  175SAPS  H17X20006   3.408   4.994   3.183 -1.2313 -0.9019  1.0362
  175SAPS  H17Y20007   3.335   5.002   3.026 -1.6327 -1.6031 -0.1985
  175SAPS  C31820008   3.543   4.940   3.009  0.2461 -0.2250 -0.4447
  175SAPS  H18X20009   3.522   4.896   2.909 -0.5388 -1.6461  0.3110
  175SAPS  H18Y20010   3.618   4.880   3.065 -0.3855  0.0277  0.7042
  175SAPS  H18Z20011   3.573   5.047   3.007 -1.9452  0.4528  0.2444
  176SAPS     N20012   5.722   4.122   1.794 -0.0925 -0.1049  0.6463
  176SAPS   HN120013   5.697   4.221   1.773  0.5728 -0.3961 -1.7697
  176SAPS   HN220014   5.696   4.089   1.890 -0.5270  3.2676  1.8355
  176SAPS   HN320015   5.825   4.112   1.792  0.1190  1.7245  0.3031
  176SAPS   C1220016   5.664   4.028   1.695 -0.5676 -0.1909 -0.0045
  176SAPS  H12A20017   5.557   4.034   1.708 -0.4312  1.8562  0.4120
  176SAPS   C1320018   5.692   4.068   1.545 -0.8704  0.3684  0.0368
  176SAPS  O13A20019   5.731   4.184   1.507 -0.1709  0.2088 -0.3194
  176SAPS  O13B20020   5.631   3.990   1.461 -0.4617 -0.2761  0.4503
  176SAPS   C1120021   5.723   3.887   1.728  0.7023  0.0194 -0.4627
  176SAPS  H11A20022   5.811   3.867   1.663  1.6563 -2.2991  1.3911
  176SAPS  H11B20023   5.647   3.817   1.686 -0.5152  0.3258  1.1571
  176SAPS     P20024   5.806   3.728   1.905 -0.2910 -0.1526 -0.1641
  176SAPS   O1320025   5.708   3.618   1.878 -0.3840 -0.0951 -0.1083
  176SAPS   O1420026   5.944   3.727   1.857 -0.3848 -0.1299 -0.1882
  176SAPS   O1220027   5.734   3.863   1.873 -0.4057 -0.2208 -0.0093
  176SAPS   O1120028   5.810   3.731   2.058 -0.3683  0.1014  0.3336
  176SAPS    C120029   5.928   3.763   2.130 -0.6483 -0.3700 -0.3771
  176SAPS    HA20030   5.992   3.672   2.131 -1.7533 -1.2180 -1.9453
  176SAPS    HB20031   5.986   3.845   2.082 -0.0617 -1.2769 -1.2748
  176SAPS    C220032   5.893   3.811   2.276  0.6949 -0.2460 -0.3124
  176SAPS    HS20033   5.986   3.861   2.311  0.0719  0.0662  0.9668
  176SAPS   O2120034   5.863   3.699   2.359 -0.6314  0.1349  0.4813
  176SAPS   C2120035   5.964   3.625   2.396 -0.5486 -0.1234  0.0317
  176SAPS   O2220036   6.084   3.649   2.382 -0.6650 -0.4275  0.2871
  176SAPS   C2220037   5.908   3.515   2.490  0.2854 -0.1509 -0.2505
  176SAPS   H2R20038   5.836   3.560   2.562 -1.3870 -2.2134 -0.5365
  176SAPS   H2S20039   5.853   3.443   2.427 -0.2715 -0.2013  0.2768
  176SAPS    C320040   5.767   3.901   2.272 -0.7407  0.2866  0.0145
  176SAPS    HX20041   5.674   3.841   2.277 -0.9231  0.5557 -0.1294
  176SAPS    HY20042   5.759   3.962   2.179 -2.4987  0.4180  0.2124
  176SAPS   O3120043   5.768   3.989   2.389 -0.0046 -0.8411 -0.4185
  176SAPS   C3120044   5.653   4.047   2.416  0.4730  0.5516 -0.4533
  176SAPS   O3220045   5.545   4.006   2.371  0.3220 -0.2754  0.0282
  176SAPS   C3220046   5.683   4.159   2.516 -0.3613 -0.1777 -0.0927
  176SAPS   H2X20047   5.681   4.257   2.465 -1.5285 -0.6240 -0.9523
  176SAPS   H2Y20048   5.781   4.145   2.567 -0.8796 -0.1663  0.9404
  176SAPS   C2320049   6.014   3.447   2.583 -0.1000 -0.3242 -0.1940
  176SAPS   H3R20050   6.111   3.438   2.531 -0.8461 -0.1188 -1.6857
  176SAPS   H3S20051   5.973   3.347   2.609 -1.9651  0.3697 -0.2518
  176SAPS   C2420052   6.035   3.512   2.716  0.1806 -0.5687  0.4280
  176SAPS   H4R20053   6.112   3.453   2.770 -0.1557  0.7269  2.4136
  176SAPS   H4S20054   5.939   3.507   2.772 -2.2421  0.6416 -3.2094
  176SAPS   C2520055   6.088   3.655   2.715  0.0824  1.0988 -0.5164
  176SAPS   H5R20056   6.192   3.661   2.680  0.1940 -3.7783 -1.8444
  176SAPS   C2620057   6.015   3.761   2.758  0.5191  0.7679 -0.8026
  176SAPS   H6R20058   6.052   3.862   2.740  0.5845  0.7487 -0.7766
  176SAPS   C2720059   5.872   3.757   2.808  0.7476  0.1366 -0.4263
  176SAPS   H7R20060   5.863   3.826   2.895 -1.5653 -0.3695 -0.1907
  176SAPS   H7S20061   5.859   3.663   2.866  1.1754  0.0954 -0.3927
  176SAPS   C2820062   5.768   3.775   2.700  0.0315  0.0289 -0.0788
  176SAPS   H8R20063   5.798   3.839   2.616 -0.8752 -1.8035 -1.8769
  176SAPS   C2920064   5.647   3.721   2.709 -0.0246  0.6199 -0.0701
  176SAPS   H9R20065   5.574   3.729   2.627 -2.2060 -0.1713  1.6947
  176SAPS  C21020066   5.597   3.638   2.824 -0.0422  0.3726 -0.0104
  176SAPS  H10R20067   5.615   3.704   2.912  4.0219  0.0297 -0.3821
  176SAPS  H10S20068   5.646   3.539   2.830 -0.5038  0.0265 -1.6479
  176SAPS  C21120069   5.448   3.616   2.804  0.1292  0.0911 -0.1156
  176SAPS  H11R20070   5.430   3.564   2.709  0.5622  0.1990 -0.2631
  176SAPS  C21220071   5.340   3.653   2.881  0.1571 -0.0063 -0.4759
  176SAPS  H12R20072   5.241   3.627   2.839  0.8564 -1.1528 -1.4846
  176SAPS  C21320073   5.347   3.722   3.020  0.2799  0.1651 -0.0310
  176SAPS  H13R20074   5.429   3.662   3.066  2.3314  0.4725 -2.9787
  176SAPS  H13S20075   5.256   3.712   3.082 -0.4246  0.8801 -0.9248
  176SAPS  C21420076   5.388   3.867   3.021  0.6101 -0.6738 -0.4663
  176SAPS  H14R20077   5.490   3.883   3.058  1.3986  0.6951 -3.0301
  176SAPS  C21520078   5.316   3.963   2.975  0.2739 -0.9225 -0.5004
  176SAPS  H15R20079   5.361   4.063   2.986 -1.5001 -0.0232 -0.9117
  176SAPS  C21620080   5.178   3.971   2.914  0.1938 -0.2793 -0.6203
  176SAPS  H16R20081   5.118   4.047   2.969  0.1321 -1.1503  0.5367
  176SAPS  H16S20082   5.116   3.880   2.923 -2.1619  1.3015  0.1878
  176SAPS  C21720083   5.190   4.038   2.768 -0.3217 -0.6799 -0.6902
  176SAPS  H17R20084   5.245   4.135   2.773  3.3103 -2.6063  0.4298
  176SAPS  H17S20085   5.085   4.068   2.749 -0.8998 -0.8640  1.8891
  176SAPS  C21820086   5.251   3.948   2.666 -0.2999 -0.4348 -0.2707
  176SAPS  H18R20087   5.340   3.895   2.705 -0.4616  1.1396  2.4336
  176SAPS  H18S20088   5.284   4.005   2.576  0.1634 -0.0348  0.1490
  176SAPS  C21920089   5.147   3.836   2.635 -0.4547 -0.4243 -0.6902
  176SAPS  H19R20090   5.060   3.900   2.609 -0.1299  0.4918  0.4006
  176SAPS  H19S20091   5.123   3.781   2.729  0.1821 -0.6720 -0.6673
  176SAPS  C22020092   5.181   3.750   2.519  0.3145 -0.0062 -0.2408
  176SAPS  H20R20093   5.245   3.660   2.525  0.6486  0.1783 -0.8753
  176SAPS  H20S20094   5.217   3.809   2.431  1.7691 -3.5990 -2.2658
  176SAPS  H20T20095   5.085   3.703   2.489  1.1502 -1.9443 -0.0288
  176SAPS   C3320096   5.566   4.153   2.622  0.3597  0.0635 -0.2494
  176SAPS   H3X20097   5.541   4.046   2.641 -1.1840  0.6102  0.9698
  176SAPS   H3Y20098   5.478   4.201   2.574  0.2402  0.3061  0.2108
  176SAPS   C3420099   5.609   4.229   2.753 -0.5026  0.1729 -0.1256
  176SAPS   H4X20100   5.514   4.245   2.808 -0.9260  2.0871 -1.3386
  176SAPS   H4Y20101   5.649   4.330   2.732  0.4172 -0.4999 -1.8645
  176SAPS   C3520102   5.704   4.153   2.843 -0.3053 -0.1152  0.4100
  176SAPS   H5X20103   5.810   4.171   2.815 -0.1898 -2.0261 -0.5043
  176SAPS   H5Y20104   5.686   4.044   2.839  0.5939 -0.3391  1.8301
  176SAPS   C3620105   5.684   4.192   2.991  0.3229  0.1728  0.0803
  176SAPS   H6X20106   5.584   4.161   3.029  0.9230  0.2134  1.7717
  176SAPS   H6Y20107   5.667   4.301   2.996 -2.6241 -0.1818 -0.4950
  176SAPS   C3720108   5.803   4.139   3.088 -0.3497  0.2915  0.9484
  176SAPS   H7X20109   5.889   4.207   3.070 -1.2091  0.6325 -2.4437
  176SAPS   H7Y20110   5.820   4.036   3.050 -0.0972  0.0629  1.6538
  176SAPS   C3820111   5.758   4.135   3.233 -0.1262 -0.0415  0.0277
  176SAPS   H8X20112   5.669   4.068   3.235 -2.1525  2.4655  0.5067
  176SAPS   H8Y20113   5.699   4.223   3.267 -1.0634 -1.1116  1.2536
  176SAPS   C3920114   5.877   4.092   3.314  0.0363 -0.6418  0.3511
  176SAPS   H9X20115   5.978   4.123   3.279 -0.2372 -1.5179 -1.3107
  176SAPS   H9Y20116   5.879   3.981   3.307  1.2326 -0.5387 -1.5480
  176SAPS  C31020117   5.856   4.144   3.458  0.3113 -0.1929 -0.6703
  176SAPS  H10X20118   5.767   4.097   3.505  0.8829 -0.9476 -0.3256
  176SAPS  H10Y20119   5.818   4.248   3.448 -0.4357 -0.6646 -3.5863
  176SAPS  C31120120   5.976   4.131   3.552  0.1489  0.3256 -0.0279
  176SAPS  H11X20121   6.058   4.169   3.487  0.3184 -0.4759 -0.2920
  176SAPS  H11Y20122   5.993   4.023   3.570  2.0636  0.4042 -1.1275
  176SAPS  C31220123   5.958   4.189   3.690  1.1068 -0.1262 -0.1492
  176SAPS  H12X20124   5.891   4.129   3.755  3.8102 -1.0933  1.9173
  176SAPS  H12Y20125   5.919   4.293   3.692  0.4185 -0.3817 -0.0749
  176SAPS  C31320126   6.090   4.199   3.765  0.2588  0.1612  0.8695
  176SAPS  H13X20127   6.159   4.254   3.698 -3.3538  4.0696 -0.1248
  176SAPS  H13Y20128   6.130   4.096   3.769 -0.7276 -0.2879 -0.1802
  176SAPS  C31420129   6.081   4.259   3.910  0.2599  0.6644 -0.1955
  176SAPS  H14X20130   5.974   4.254   3.939  0.6098 -0.1703  1.0178
  176SAPS  H14Y20131   6.111   4.365   3.893  1.6941  0.0483 -1.7885
  176SAPS  C31520132   6.174   4.190   4.004  0.3660  0.1416 -0.4130
  176SAPS  H15X20133   6.272   4.179   3.952  0.9352 -0.0228  0.6538
  176SAPS  H15Y20134   6.143   4.084   4.021  2.3836 -0.2267  1.4468
  176SAPS  C31620135   6.218   4.244   4.145  0.2729  0.3215 -0.4017
  176SAPS  H16X20136   6.133   4.263   4.213  1.4645  2.8182  0.5139
  176SAPS  H16Y20137   6.251   4.346   4.115 -1.5711 -0.0750 -4.4830
  176SAPS  C31720138   6.337   4.166   4.209  0.3065 -0.4317 -0.0910
  176SAPS  H17X20139   6.418   4.150   4.134 -0.3947  0.2010 -1.0115
  176SAPS  H17Y20140   6.297   4.072   4.254  0.3231 -0.4804 -0.1758
  176SAPS  C31820141   6.386   4.261   4.317 -0.7563  0.6618 -0.0873
  176SAPS  H18X20142   6.441   4.208   4.398 -0.8466  0.5191 -0.1181
  176SAPS  H18Y20143   6.305   4.320   4.364 -1.7148 -0.9600  0.3772
  176SAPS  H18Z20144   6.453   4.340   4.277 -1.5476  0.4037 -1.9967
  177SAPS     N20145   4.889   5.063   1.916 -0.5041  0.2158  0.2785
  177SAPS   HN120146   4.887   4.959   1.927 -1.1796  0.4231  3.1195
  177SAPS   HN220147   4.880   5.092   2.016 -0.4518 -1.8855  0.9602
  177SAPS   HN320148   4.804   5.091   1.863 -0.7318  0.8761  0.9766
  177SAPS   C1220149   5.026   5.113   1.871 -0.3213  0.0665  0.5109
  177SAPS  H12A20150   5.062   5.020   1.829 -0.1892 -0.8639  2.5719
  177SAPS   C1320151   5.026   5.214   1.756  0.0236  0.8639 -0.1623
  177SAPS  O13A20152   4.916   5.267   1.732  0.2778  0.3624  0.2794
  177SAPS  O13B20153   5.127   5.249   1.689  0.2059 -0.7567 -0.1316
  177SAPS   C1120154   5.112   5.157   1.998  0.7539 -0.2231  0.3767
  177SAPS  H11A20155   5.203   5.204   1.955  0.0333  1.6023  0.7624
  177SAPS  H11B20156   5.130   5.063   2.054  0.0077 -1.2850 -1.1073
  177SAPS     P20157   5.060   5.289   2.212  0.3005 -0.4752 -0.4803
  177SAPS   O1320158   5.205   5.309   2.220  0.0176  0.5081  0.8108
  177SAPS   O1420159   4.976   5.406   2.252 -0.5287 -0.1467 -0.8291
  177SAPS   O1220160   5.027   5.253   2.069  0.1811  0.0210 -0.8442
  177SAPS   O1120161   5.015   5.157   2.290 -0.3863 -0.2380  1.1113
  177SAPS    C120162   5.117   5.062   2.343  0.4424  0.9127  0.4080
  177SAPS    HA20163   5.079   4.962   2.313  0.2055  1.1726 -0.1815
  177SAPS    HB20164   5.216   5.065   2.293 -1.1676  0.7533 -3.1198
  177SAPS    C220165   5.106   5.064   2.499  0.2710  0.1783 -0.1337
  177SAPS    HS20166   5.002   5.044   2.533 -0.2641  2.4404 -0.2271
  177SAPS   O2120167   5.168   5.178   2.549 -0.1191 -0.5992  0.0999
  177SAPS   C2120168   5.088   5.256   2.626  0.6535  0.3970 -0.5195
  177SAPS   O2220169   4.969   5.244   2.639  0.6640 -0.3362  0.2374
  177SAPS   C2220170   5.167   5.367   2.697  0.2363  0.2291  0.6414
  177SAPS   H2R20171   5.246   5.311   2.751 -0.7199 -0.5355  1.2993
  177SAPS   H2S20172   5.213   5.422   2.611  2.4131  1.6031  2.5644
  177SAPS    C320173   5.180   4.944   2.556  0.2661 -0.3131 -0.0022
  177SAPS    HX20174   5.288   4.952   2.530  1.1121 -1.1650  2.9014
  177SAPS    HY20175   5.139   4.853   2.508  2.2540 -1.5137  0.4551
  177SAPS   O3120176   5.184   4.944   2.703  0.2948  0.0217 -0.3577
  177SAPS   C3120177   5.081   4.884   2.760 -0.5398 -0.3448 -0.3519
  177SAPS   O3220178   4.983   4.848   2.702 -0.9850 -0.2767  0.2021
  177SAPS   C3220179   5.093   4.876   2.913 -0.1418 -0.8321  0.5783
  177SAPS   H2X20180   5.174   4.941   2.952 -1.3496  0.4422  1.0284
  177SAPS   H2Y20181   5.093   4.770   2.946 -0.6039 -0.4634  1.7961
  177SAPS   C2320182   5.083   5.435   2.802 -0.2274 -0.1581  0.3457
  177SAPS   H3R20183   5.012   5.376   2.864  0.8843 -1.3414  0.5160
  177SAPS   H3S20184   5.032   5.526   2.763 -1.9493 -1.7001 -1.1918
  177SAPS   C2420185   5.178   5.488   2.918 -0.1656 -0.4055 -0.2116
  177SAPS   H4R20186   5.239   5.400   2.948  0.2306 -0.8571 -2.1733
  177SAPS   H4S20187   5.125   5.531   3.006 -0.7890  1.3882 -1.4131
  177SAPS   C2520188   5.258   5.602   2.854  0.4635 -0.8702 -0.8585
  177SAPS   H5R20189   5.209   5.669   2.782 -0.5232 -0.7309 -0.0865
  177SAPS   C2620190   5.376   5.625   2.905 -0.5143 -0.6466  0.1246
  177SAPS   H6R20191   5.435   5.705   2.856 -0.1387 -1.0565 -0.0998
  177SAPS   C2720192   5.453   5.535   3.005  0.4363 -0.1859  0.1422
  177SAPS   H7R20193   5.492   5.451   2.944  0.0893  0.4870 -1.0391
  177SAPS   H7S20194   5.389   5.501   3.089 -0.0055 -0.3715 -0.2672
  177SAPS   C2820195   5.563   5.625   3.064  0.5262 -0.0884  0.0817
  177SAPS   H8R20196   5.641   5.660   2.995  2.4532 -2.0507  1.1236
  177SAPS   C2920197   5.577   5.656   3.196 -0.2369 -0.4968 -0.0521
  177SAPS   H9R20198   5.661   5.716   3.235  0.7512 -2.1243  0.4100
  177SAPS  C21020199   5.469   5.630   3.294 -0.0950  0.1285  0.2092
  177SAPS  H10R20200   5.462   5.522   3.322  0.4701 -0.2170 -0.9252
  177SAPS  H10S20201   5.372   5.647   3.243  0.4756  0.2435 -0.8511
  177SAPS  C21120202   5.464   5.725   3.408 -0.8809  0.0460 -0.2450
  177SAPS  H11R20203   5.480   5.832   3.385  1.6704 -0.1660  0.2140
  177SAPS  C21220204   5.411   5.696   3.527  0.1018  0.4363 -0.1124
  177SAPS  H12R20205   5.419   5.763   3.614  2.6109 -1.3023  1.1054
  177SAPS  C21320206   5.361   5.559   3.565  0.5673  0.5072  0.2501
  177SAPS  H13R20207   5.337   5.490   3.482 -3.0190 -0.1715  1.6626
  177SAPS  H13S20208   5.266   5.566   3.623  0.3231  2.4825 -0.2959
  177SAPS  C21420209   5.465   5.498   3.658 -0.5276  0.0690 -0.0012
  177SAPS  H14R20210   5.531   5.433   3.598 -0.6436  0.4939 -0.6058
  177SAPS  C21520211   5.486   5.495   3.792  0.0887 -0.5190 -0.4888
  177SAPS  H15R20212   5.579   5.459   3.836  0.0306 -0.0558  0.0229
  177SAPS  C21620213   5.412   5.572   3.893  0.4201  0.0157  0.5802
  177SAPS  H16R20214   5.358   5.499   3.958 -0.4708  0.2510  0.1282
  177SAPS  H16S20215   5.333   5.625   3.835  1.3217  0.4641 -0.2690
  177SAPS  C21720216   5.473   5.674   3.997 -0.2869 -0.0657 -0.4400
  177SAPS  H17R20217   5.563   5.627   4.044 -0.0325  0.5974 -0.2563
  177SAPS  H17S20218   5.406   5.699   4.081 -0.8284 -1.4932 -0.4232
  177SAPS  C21820219   5.519   5.808   3.934 -0.0432 -0.1235  0.1265
  177SAPS  H18R20220   5.428   5.859   3.896  0.6408  0.0254 -1.3633
  177SAPS  H18S20221   5.571   5.771   3.844 -1.5576 -0.7244 -0.5334
  177SAPS  C21920222   5.604   5.887   4.031 -0.1858 -0.5266 -0.5782
  177SAPS  H19R20223   5.641   5.982   3.987  1.4028 -1.2164 -0.8113
  177SAPS  H19S20224   5.701   5.835   4.051  0.9167  0.0602 -3.8736
  177SAPS  C22020225   5.548   5.918   4.174  0.0127  0.7805 -0.2161
  177SAPS  H20R20226   5.541   5.826   4.235 -1.5660  2.0468  1.6384
  177SAPS  H20S20227   5.450   5.970   4.178  1.2767  3.2705  0.3792
  177SAPS  H20T20228   5.624   5.981   4.225  1.9147 -2.7517  1.6313
  177SAPS   C3320229   4.968   4.932   2.982 -0.4409 -0.0972 -0.1847
  177SAPS   H3X20230   4.889   4.867   2.938 -0.2374 -1.5092  1.4212
  177SAPS   H3Y20231   4.942   5.039   2.968 -0.1464  0.3493  2.1626
  177SAPS   C3420232   4.983   4.908   3.134  0.2563  0.2443 -0.1867
  177SAPS   H4X20233   5.066   4.967   3.178 -0.5372  0.1131  1.5862
  177SAPS   H4Y20234   5.019   4.803   3.149 -1.0618 -0.2494 -0.3259
  177SAPS   C3520235   4.862   4.946   3.215  0.2022  0.5737  0.6967
  177SAPS   H5X20236   4.785   4.876   3.174  1.8204 -0.9597  0.1138
  177SAPS   H5Y20237   4.839   5.054   3.205 -2.5174  0.0863  0.9061
  177SAPS   C3620238   4.894   4.922   3.358 -0.5146  0.5970  0.4847
  177SAPS   H6X20239   4.972   4.996   3.387 -0.8082  1.7435 -1.4789
  177SAPS   H6Y20240   4.942   4.824   3.378 -0.0548  0.9207  0.9913
  177SAPS   C3720241   4.775   4.940   3.447  0.9520  0.0518 -0.0513
  177SAPS   H7X20242   4.691   4.871   3.425  1.5914 -0.4284 -1.0876
  177SAPS   H7Y20243   4.749   5.046   3.426  0.7575 -0.1714 -1.0182
  177SAPS   C3820244   4.815   4.929   3.599  0.1843 -0.1591 -0.1626
  177SAPS   H8X20245   4.735   4.970   3.664  1.5051  1.9072  0.2393
  177SAPS   H8Y20246   4.892   5.006   3.620  0.0204  0.1233 -0.5693
  177SAPS   C3920247   4.844   4.785   3.647 -0.5337  0.0077 -0.1533
  177SAPS   H9X20248   4.952   4.758   3.644 -0.5323  0.0846 -0.9025
  177SAPS   H9Y20249   4.800   4.713   3.575  0.8465 -0.5675 -0.4608
  177SAPS  C31020250   4.782   4.751   3.785  0.6631  0.2614  0.5502
  177SAPS  H10X20251   4.807   4.644   3.803 -1.9505 -0.5129  0.0429
  177SAPS  H10Y20252   4.673   4.754   3.806  0.7765 -2.6719  2.2601
  177SAPS  C31120253   4.839   4.840   3.898  0.5234 -0.0274 -0.2438
  177SAPS  H11X20254   4.785   4.804   3.989  3.1200 -1.5434  0.8105
  177SAPS  H11Y20255   4.826   4.949   3.883  0.7334  0.0385  0.0354
  177SAPS  C31220256   4.989   4.823   3.930 -0.1489 -0.1915 -0.1933
  177SAPS  H12X20257   5.044   4.883   3.855 -2.4843  1.5108 -0.6789
  177SAPS  H12Y20258   5.023   4.718   3.936 -1.2352 -0.4699  3.1343
  177SAPS  C31320259   5.029   4.873   4.071  0.3150 -0.4598 -0.3439
  177SAPS  H13X20260   4.960   4.813   4.135 -0.2773  0.6114  0.0469
  177SAPS  H13Y20261   4.988   4.975   4.088  1.8371  0.1349 -0.0204
  177SAPS  C31420262   5.176   4.857   4.112 -0.4436  0.1881  0.9695
  177SAPS  H14X20263   5.247   4.926   4.064  0.0455 -0.7604  0.3015
  177SAPS  H14Y20264   5.189   4.753   4.076 -4.5637  0.4001 -1.9818
  177SAPS  C31520265   5.210   4.868   4.266  0.7393  0.4919  0.8297
  177SAPS  H15X20266   5.175   4.969   4.297  0.7857  0.2221  1.7844
  177SAPS  H15Y20267   5.321   4.874   4.279  0.7269  0.4447  0.9612
  177SAPS  C31620268   5.151   4.757   4.347 -0.5875  0.5011 -0.0148
  177SAPS  H16X20269   5.221   4.672   4.332 -1.9169 -0.5136 -0.6681
  177SAPS  H16Y20270   5.049   4.719   4.325 -0.3514 -0.3582  0.3297
  177SAPS  C31720271   5.155   4.801   4.496  0.1167 -0.1621 -0.7195
  177SAPS  H17X20272   5.103   4.720   4.553  2.1691 -1.3598 -0.4615
  177SAPS  H17Y20273   5.104   4.899   4.508  1.8729  0.6744  0.3690
  177SAPS  C31820274   5.298   4.822   4.563  0.1943 -0.0128  0.3861
  177SAPS  H18X20275   5.286   4.846   4.671  0.3339  1.4599  0.1021
  177SAPS  H18Y20276   5.358   4.898   4.508 -1.3989  0.1509 -1.2558
  177SAPS  H18Z20277   5.355   4.727   4.556  1.2341  0.5147  1.4944
  178SAPS     N20278   6.916   6.857   2.237  0.7866  0.4419  0.3851
  178SAPS   HN120279   6.909   6.935   2.169 -1.6338 -1.1818 -1.4239
  178SAPS   HN220280   6.831   6.797   2.237 -0.2964  1.6998 -3.5688
  178SAPS   HN320281   6.939   6.886   2.334  2.0631 -0.4786  0.3931
  178SAPS   C1220282   7.029   6.767   2.198 -0.6695  0.3903  0.1912
  178SAPS  H12A20283   7.061   6.721   2.290 -1.2249  0.8740  0.6330
  178SAPS   C1320284   7.002   6.656   2.096  0.3153  0.6474 -0.0245
  178SAPS  O13A20285   6.887   6.643   2.040  0.3801 -0.5623 -0.7068
  178SAPS  O13B20286   7.103   6.584   2.063  0.1105 -0.2646  0.3260
  178SAPS   C1120287   7.141   6.848   2.142  0.0076  0.6456  0.7400
  178SAPS  H11A20288   7.121   6.889   2.041 -1.9725 -0.8307  0.4764
  178SAPS  H11B20289   7.236   6.791   2.131  0.2434  1.3562 -1.3695
  178SAPS     P20290   7.284   6.984   2.314 -0.4161  0.0698 -0.1380
  178SAPS   O1320291   7.413   6.995   2.236  0.5786  0.6327  0.1766
  178SAPS   O1420292   7.242   7.094   2.396  0.0755  0.0390  0.3198
  178SAPS   O1220293   7.165   6.967   2.219 -0.2380  0.2555  0.0902
  178SAPS   O1120294   7.274   6.850   2.390 -0.5500  0.2981 -0.3153
  178SAPS    C120295   7.348   6.830   2.510  0.2980 -0.8721 -0.8155
  178SAPS    HA20296   7.454   6.863   2.498  0.8344 -2.9946 -2.6376
  178SAPS    HB20297   7.305   6.897   2.588  0.3611 -0.7840 -0.8564
  178SAPS    C220298   7.342   6.686   2.566  0.3980  0.1295 -0.2663
  178SAPS    HS20299   7.381   6.623   2.483  1.1394  1.9102 -1.3028
  178SAPS   O2120300   7.199   6.656   2.590  0.2608  0.1393 -0.0492
  178SAPS   C2120301   7.177   6.528   2.603 -0.2524  0.5904  0.4683
  178SAPS   O2220302   7.255   6.437   2.586 -0.5655 -0.2595  0.6645
  178SAPS   C2220303   7.043   6.501   2.653  0.2706 -0.0636 -0.2559
  178SAPS   H2R20304   6.970   6.517   2.570  2.9713 -1.8156 -3.2183
  178SAPS   H2S20305   7.054   6.392   2.669  1.5882  0.1320  0.2678
  178SAPS    C320306   7.428   6.668   2.698 -0.0660 -0.1663  0.6611
  178SAPS    HX20307   7.529   6.703   2.668 -0.6480  1.8111  0.8986
  178SAPS    HY20308   7.433   6.564   2.738 -2.2856  0.0786  1.7259
  178SAPS   O3120309   7.374   6.758   2.801  0.9261  1.3685 -0.3286
  178SAPS   C3120310   7.446   6.738   2.914 -0.4760  0.1184 -0.0097
  178SAPS   O3220311   7.520   6.641   2.934 -0.2659 -0.2554  0.0748
  178SAPS   C3220312   7.407   6.835   3.026 -0.2361 -0.1898 -0.4363
  178SAPS   H2X20313   7.338   6.916   2.992 -0.5086 -0.8997 -1.6383
  178SAPS   H2Y20314   7.501   6.886   3.055  0.1770 -1.3986  0.4000
  178SAPS   C2320315   7.003   6.589   2.774  0.0600  0.2936 -0.1628
  178SAPS   H3R20316   6.895   6.573   2.794 -0.2615  0.8990 -1.3088
  178SAPS   H3S20317   7.018   6.698   2.756  1.1600  0.0490 -0.7950
  178SAPS   C2420318   7.079   6.547   2.905 -0.5670 -0.7481  0.1316
  178SAPS   H4R20319   7.039   6.611   2.986 -0.2270  1.4155 -1.3311
  178SAPS   H4S20320   7.185   6.576   2.891 -1.0454  2.0004  1.5143
  178SAPS   C2520321   7.077   6.399   2.939 -0.7468 -0.1311  0.1305
  178SAPS   H5R20322   7.157   6.332   2.904 -2.7332 -1.7196 -1.6705
  178SAPS   C2620323   6.983   6.338   3.013 -0.4048  0.0575 -0.0654
  178SAPS   H6R20324   6.991   6.230   3.030  0.1916 -0.4113 -2.8600
  178SAPS   C2720325   6.862   6.393   3.081  0.3261 -0.6221 -0.9256
  178SAPS   H7R20326   6.788   6.318   3.115 -0.0437  0.2895  0.3399
  178SAPS   H7S20327   6.796   6.458   3.020  1.7255  1.7633 -0.0325
  178SAPS   C2820328   6.892   6.480   3.203  0.1251  0.4264  0.2368
  178SAPS   H8R20329   6.980   6.546   3.200  0.3769  0.1719  1.4510
  178SAPS   C2920330   6.842   6.466   3.325  0.0894 -0.6158 -0.9513
  178SAPS   H9R20331   6.870   6.523   3.415  0.4879  0.6787 -1.8581
  178SAPS  C21020332   6.726   6.374   3.364 -0.1842 -0.1670  0.4249
  178SAPS  H10R20333   6.737   6.278   3.308  1.1471  0.4225 -0.3833
  178SAPS  H10S20334   6.635   6.427   3.329  1.1023  1.2158 -0.9928
  178SAPS  C21120335   6.720   6.333   3.511  0.0916  0.3405  0.2479
  178SAPS  H11R20336   6.802   6.264   3.536 -0.1768 -0.6632 -1.4963
  178SAPS  C21220337   6.628   6.366   3.606 -0.0254 -0.2718  0.1143
  178SAPS  H12R20338   6.628   6.301   3.695  2.8128 -3.1482 -1.7545
  178SAPS  C21320339   6.519   6.463   3.594  0.2317 -0.5217 -0.9676
  178SAPS  H13R20340   6.456   6.461   3.685 -0.8904 -0.7012 -1.7230
  178SAPS  H13S20341   6.457   6.435   3.506  1.2339  1.8149 -2.5377
  178SAPS  C21420342   6.576   6.606   3.580  0.0382  0.3678 -0.9022
  178SAPS  H14R20343   6.684   6.614   3.563  0.1825  2.2505  0.6194
  178SAPS  C21520344   6.506   6.722   3.597  0.1425  0.2835 -0.1023
  178SAPS  H15R20345   6.561   6.816   3.579 -1.4870  1.1430 -0.7994
  178SAPS  C21620346   6.360   6.721   3.623 -0.3669 -0.4080  0.8115
  178SAPS  H16R20347   6.313   6.623   3.601  0.5028 -0.0144 -3.8197
  178SAPS  H16S20348   6.313   6.790   3.549 -1.0569 -0.8779  0.8061
  178SAPS  C21720349   6.309   6.766   3.764  0.0259 -0.4570 -0.5190
  178SAPS  H17R20350   6.365   6.856   3.796  2.2187 -2.1321  0.6542
  178SAPS  H17S20351   6.342   6.686   3.834 -0.8623  1.5044  2.3061
  178SAPS  C21820352   6.163   6.790   3.771  0.2091 -0.5400  0.6680
  178SAPS  H18R20353   6.112   6.698   3.736 -0.5308 -0.3857  1.2958
  178SAPS  H18S20354   6.126   6.872   3.706 -0.6709 -1.0187  0.5539
  178SAPS  C21920355   6.128   6.829   3.915  0.6360  0.6025 -0.1127
  178SAPS  H19R20356   6.210   6.895   3.950  1.4944  0.2279 -1.3482
  178SAPS  H19S20357   6.143   6.739   3.978  0.7372  2.1177  2.1371
  178SAPS  C22020358   5.981   6.874   3.936 -0.9502  0.0111  0.1732
  178SAPS  H20R20359   5.975   6.971   3.881  2.8067  0.3640  0.1146
  178SAPS  H20S20360   5.951   6.884   4.043  1.7204 -0.4287  1.0407
  178SAPS  H20T20361   5.913   6.802   3.885 -1.3945  0.2971  0.3537
  178SAPS   C3320362   7.340   6.758   3.146 -0.3744 -0.4390 -0.1541
  178SAPS   H3X20363   7.400   6.677   3.195 -1.1575 -0.0757  1.4742
  178SAPS   H3Y20364   7.258   6.702   3.097  0.2513  0.1941 -2.0110
  178SAPS   C3420365   7.268   6.855   3.248 -0.2596 -0.1736 -0.2501
  178SAPS   H4X20366   7.219   6.808   3.336 -0.3169 -0.0981 -0.2409
  178SAPS   H4Y20367   7.210   6.927   3.185  2.1345  1.5220 -0.6377
  178SAPS   C3520368   7.374   6.953   3.299 -0.2486 -0.5272  0.4241
  178SAPS   H5X20369   7.392   7.028   3.219  0.6917  1.5819  2.4553
  178SAPS   H5Y20370   7.473   6.912   3.328  1.0013  0.7247 -1.8619
  178SAPS   C3620371   7.323   7.026   3.432  0.5323 -0.4278  0.0846
  178SAPS   H6X20372   7.213   7.043   3.429  0.8008  1.5716 -2.4709
  178SAPS   H6Y20373   7.372   7.126   3.439 -1.3991  0.6344 -0.7804
  178SAPS   C3720374   7.350   6.940   3.559 -0.0720  0.0811  0.2544
  178SAPS   H7X20375   7.456   6.908   3.563  0.3420  1.5036  1.8602
  178SAPS   H7Y20376   7.286   6.849   3.554 -2.0472  1.4743 -1.1291
  178SAPS   C3820377   7.321   7.020   3.689 -0.1451 -0.6247 -0.2728
  178SAPS   H8X20378   7.256   7.108   3.666 -0.4924 -1.0366 -0.9092
  178SAPS   H8Y20379   7.413   7.069   3.728 -2.1914  1.0874  2.7898
  178SAPS   C3920380   7.263   6.944   3.809 -0.2239 -0.2103 -0.0216
  178SAPS   H9X20381   7.357   6.900   3.849  0.9329  1.4656 -0.7513
  178SAPS   H9Y20382   7.191   6.864   3.784 -0.6009 -0.4635  1.7206
  178SAPS  C31020383   7.190   7.033   3.913 -0.4457  0.1586  0.0957
  178SAPS  H10X20384   7.093   7.052   3.861 -0.4880  0.7262  0.3708
  178SAPS  H10Y20385   7.244   7.129   3.930 -0.5828  0.5781 -1.6474
  178SAPS  C31120386   7.150   6.962   4.047 -1.0835  0.1205  0.3904
  178SAPS  H11X20387   7.243   6.929   4.098  0.8448 -1.1829 -3.5909
  178SAPS  H11Y20388   7.084   6.875   4.029 -2.1910  0.7138  1.3655
  178SAPS  C31220389   7.078   7.059   4.147 -0.6499 -0.1071  0.0726
  178SAPS  H12X20390   6.987   7.097   4.096 -0.3125  0.9942  0.2567
  178SAPS  H12Y20391   7.140   7.150   4.169  0.5842 -0.6083 -1.1918
  178SAPS  C31320392   7.040   6.995   4.280  0.1057 -0.3971 -0.1263
  178SAPS  H13X20393   7.134   6.977   4.337 -0.0378 -1.8891 -0.3151
  178SAPS  H13Y20394   6.990   6.901   4.249 -0.6607 -0.2306  0.5733
  178SAPS  C31420395   6.940   7.079   4.360 -0.5785 -0.0631  0.0841
  178SAPS  H14X20396   6.885   7.011   4.428  1.9071  0.1805  2.5204
  178SAPS  H14Y20397   6.874   7.125   4.283 -0.0572  0.2490 -0.1847
  178SAPS  C31520398   7.008   7.188   4.446  0.3115  0.2755  0.4372
  178SAPS  H15X20399   7.087   7.238   4.387 -0.1847 -1.0566 -1.4461
  178SAPS  H15Y20400   7.063   7.137   4.528  0.1149 -0.0286  0.3810
  178SAPS  C31620401   6.899   7.290   4.493  0.2936 -0.6694  0.1682
  178SAPS  H16X20402   6.828   7.239   4.561  1.5055 -2.5170  0.1261
  178SAPS  H16Y20403   6.838   7.321   4.405  0.4188  2.4780  1.0810
  178SAPS  C31720404   6.965   7.411   4.553  0.2494 -0.2980 -0.2782
  178SAPS  H17X20405   7.028   7.465   4.479  0.0105 -1.7548 -1.6026
  178SAPS  H17Y20406   7.027   7.372   4.637 -0.0506  0.5987  0.3702
  178SAPS  C31820407   6.872   7.518   4.615 -0.4706  0.6431  0.0171
  178SAPS  H18X20408   6.819   7.578   4.538 -1.9890  2.0081  2.0178
  178SAPS  H18Y20409   6.932   7.596   4.667 -1.0145  0.9222  0.2469
  178SAPS  H18Z20410   6.808   7.478   4.697  0.4030  0.8424  0.8075
  179SAPS     N20411   3.267   3.340   2.209  0.5326  0.3145 -0.1047
  179SAPS   HN120412   3.185   3.369   2.152 -2.3897  1.0524  4.0216
  179SAPS   HN220413   3.272   3.236   2.209  0.6921  0.3145  1.0894
  179SAPS   HN320414   3.248   3.359   2.309  0.3012  0.3964 -0.1655
  179SAPS   C1220415   3.385   3.397   2.153 -0.3888 -0.0262 -0.5318
  179SAPS  H12A20416   3.467   3.361   2.213  1.4548  4.5226  0.0744
  179SAPS   C1320417   3.412   3.363   2.010 -1.2879  0.2787 -0.2801
  179SAPS  O13A20418   3.343   3.296   1.927 -0.5557 -0.2847  0.0438
  179SAPS  O13B20419   3.535   3.394   1.975 -0.0162  0.5431  0.6110
  179SAPS   C1120420   3.379   3.552   2.180  0.3301  0.8913  0.2463
  179SAPS  H11A20421   3.285   3.585   2.131  1.0293  1.8424 -0.4963
  179SAPS  H11B20422   3.470   3.585   2.125  0.0671  1.1410 -0.0357
  179SAPS     P20423   3.396   3.734   2.353  0.2874  0.6750 -0.2628
  179SAPS   O1320424   3.425   3.746   2.501  0.3267 -0.4172 -0.1736
  179SAPS   O1420425   3.494   3.790   2.261  0.3790 -0.1609 -0.3904
  179SAPS   O1220426   3.389   3.581   2.318 -0.1532 -0.9252 -0.2702
  179SAPS   O1120427   3.259   3.802   2.317 -0.1536  0.2683  0.1080
  179SAPS    C120428   3.134   3.739   2.320  0.8360  0.5935  0.4346
  179SAPS    HA20429   3.096   3.705   2.222 -0.6612 -0.6364  1.3921
  179SAPS    HB20430   3.129   3.648   2.383  2.7068 -0.0568 -0.2765
  179SAPS    C220431   3.014   3.828   2.374 -0.1021  0.3823  0.6016
  179SAPS    HS20432   3.026   3.921   2.315 -0.5605 -0.6252 -1.1368
  179SAPS   O2120433   3.044   3.848   2.516  0.9959 -0.7256  0.2288
  179SAPS   C2120434   3.028   3.970   2.552 -0.2902 -0.2489  0.0452
  179SAPS   O2220435   2.989   4.063   2.484 -0.5720 -0.2037  0.0743
  179SAPS   C2220436   3.088   3.977   2.692  0.3974  0.1731  0.7323
  179SAPS   H2R20437   3.046   4.062   2.751 -0.5110 -0.6225  1.2673
  179SAPS   H2S20438   3.061   3.886   2.749  1.9621 -0.6220  0.2590
  179SAPS    C320439   2.874   3.769   2.358  0.0686  0.6237  0.2010
  179SAPS    HX20440   2.892   3.667   2.397  3.0022  0.2669 -1.7713
  179SAPS    HY20441   2.848   3.758   2.251  1.9845 -1.8211 -0.1012
  179SAPS   O3120442   2.768   3.840   2.423 -0.0267  0.3510 -0.3201
  179SAPS   C3120443   2.713   3.938   2.360  0.0375  0.4225  0.6084
  179SAPS   O3220444   2.745   3.982   2.251 -0.0150 -0.1337 -0.0393
  179SAPS   C3220445   2.597   3.987   2.435 -0.2534  0.0667 -0.0309
  179SAPS   H2X20446   2.607   3.954   2.541 -1.5148 -0.5062 -0.0710
  179SAPS   H2Y20447   2.518   3.922   2.391  2.0598 -2.7690 -0.3539
  179SAPS   C2320448   3.245   3.964   2.687  0.7089 -0.2113  1.0452
  179SAPS   H3R20449   3.286   4.042   2.619 -0.4984 -1.4616 -1.1901
  179SAPS   H3S20450   3.270   3.862   2.654 -1.0990 -0.5246  0.5331
  179SAPS   C2420451   3.306   3.978   2.829 -0.1271 -0.9204 -0.0731
  179SAPS   H4R20452   3.259   4.070   2.870  0.5992 -1.0702  1.1462
  179SAPS   H4S20453   3.410   4.006   2.800 -1.1199 -0.5758 -3.7468
  179SAPS   C2520454   3.302   3.869   2.935  0.4135 -0.8677 -0.2901
  179SAPS   H5R20455   3.364   3.784   2.903  2.3124  0.1669  0.5264
  179SAPS   C2620456   3.212   3.866   3.042 -0.3992 -0.5285  0.4989
  179SAPS   H6R20457   3.227   3.782   3.111  0.5114 -1.1927 -0.4716
  179SAPS   C2720458   3.102   3.969   3.079 -0.6527 -0.4889  0.5005
  179SAPS   H7R20459   3.001   3.923   3.071 -0.3168 -1.2841  0.8107
  179SAPS   H7S20460   3.112   4.052   3.006  1.3327 -1.1915 -0.0811
  179SAPS   C2820461   3.133   4.031   3.205  0.4950 -0.0706  0.0872
  179SAPS   H8R20462   3.241   4.047   3.220  0.3722  1.4913 -0.4657
  179SAPS   C2920463   3.049   4.075   3.299 -0.1057 -0.2384  0.0891
  179SAPS   H9R20464   3.079   4.132   3.389 -1.7708  0.0707  0.4940
  179SAPS  C21020465   2.896   4.067   3.285  0.4099  0.0641 -0.3531
  179SAPS  H10R20466   2.863   4.026   3.186 -0.3641 -0.3572  0.0709
  179SAPS  H10S20467   2.851   4.168   3.288  1.3714  0.4779  0.3621
  179SAPS  C21120468   2.838   3.979   3.394  0.0668  0.0415 -0.1756
  179SAPS  H11R20469   2.902   3.927   3.467  2.4533  2.7479 -0.1649
  179SAPS  C21220470   2.709   3.945   3.399 -0.3194  0.0817  0.5864
  179SAPS  H12R20471   2.681   3.882   3.485 -0.2647 -1.6232 -0.5813
  179SAPS  C21320472   2.603   3.979   3.288 -0.5729 -0.6647  0.0340
  179SAPS  H13R20473   2.546   3.886   3.269 -1.8936  0.5707 -2.4138
  179SAPS  H13S20474   2.648   4.017   3.195  1.9897 -1.9203  0.6658
  179SAPS  C21420475   2.497   4.070   3.349  0.6894 -0.0118  0.1237
  179SAPS  H14R20476   2.510   4.102   3.453 -2.5469 -1.9217  1.2469
  179SAPS  C21520477   2.402   4.127   3.267 -0.1800 -0.6306 -0.5856
  179SAPS  H15R20478   2.313   4.182   3.300 -1.7986 -1.2448 -3.6047
  179SAPS  C21620479   2.391   4.115   3.117 -0.4175  0.8089 -0.3352
  179SAPS  H16R20480   2.335   4.020   3.104  1.2057 -0.0953 -1.0605
  179SAPS  H16S20481   2.491   4.100   3.071 -0.9201  1.5084 -1.6948
  179SAPS  C21720482   2.329   4.224   3.037 -0.3181 -0.5000 -0.0533
  179SAPS  H17R20483   2.238   4.257   3.091  1.4979 -0.3761  3.2111
  179SAPS  H17S20484   2.298   4.189   2.936  3.6710  0.2653 -1.7246
  179SAPS  C21820485   2.427   4.346   3.021  0.1904  0.1752  0.2924
  179SAPS  H18R20486   2.509   4.310   2.955 -0.3539 -1.4414  0.4612
  179SAPS  H18S20487   2.475   4.366   3.119 -1.7576  1.2766  1.0853
  179SAPS  C21920488   2.373   4.485   2.971  0.2619  0.7904 -0.0661
  179SAPS  H19R20489   2.302   4.531   3.043 -0.0880  0.1199  0.0257
  179SAPS  H19S20490   2.321   4.480   2.873 -1.4453  3.0420  0.6570
  179SAPS  C22020491   2.475   4.598   2.960  0.1073 -0.1632 -0.5056
  179SAPS  H20R20492   2.541   4.605   3.048  0.5989  1.8477 -0.9832
  179SAPS  H20S20493   2.418   4.694   2.959  0.4315  0.0585  0.6760
  179SAPS  H20T20494   2.536   4.585   2.868  0.1488 -0.1743 -0.4759
  179SAPS   C3320495   2.554   4.137   2.427  0.3157 -1.0702 -0.1073
  179SAPS   H3X20496   2.463   4.172   2.480  1.1113  2.4814 -0.8029
  179SAPS   H3Y20497   2.542   4.179   2.325  0.2572  4.4677  1.8432
  179SAPS   C3420498   2.658   4.229   2.502  0.6783 -0.0972 -0.4191
  179SAPS   H4X20499   2.637   4.338   2.497  1.3141  0.1048  0.7868
  179SAPS   H4Y20500   2.751   4.207   2.444  0.3493 -1.5307 -0.4345
  179SAPS   C3520501   2.678   4.198   2.653  0.1212 -0.9294 -0.6505
  179SAPS   H5X20502   2.715   4.093   2.658 -0.6040 -1.2670 -1.9074
  179SAPS   H5Y20503   2.582   4.188   2.708  0.8202  1.9670  1.3241
  179SAPS   C3620504   2.772   4.290   2.743  0.0094  0.1581  0.1325
  179SAPS   H6X20505   2.714   4.381   2.768  1.1108  0.3477  2.1954
  179SAPS   H6Y20506   2.866   4.318   2.691  0.9316  0.1676  1.7675
  179SAPS   C3720507   2.809   4.221   2.878 -0.0619  0.2277  0.2455
  179SAPS   H7X20508   2.840   4.120   2.845  1.0621  0.3227  0.9584
  179SAPS   H7Y20509   2.714   4.214   2.935 -1.1290  0.3703 -1.4514
  179SAPS   C3820510   2.921   4.284   2.959 -0.3090  0.0498 -0.2109
  179SAPS   H8X20511   3.007   4.309   2.893  0.7634 -1.9465  0.3658
  179SAPS   H8Y20512   2.950   4.217   3.043  3.5439 -0.0773 -1.4185
  179SAPS   C3920513   2.862   4.409   3.033 -0.2379  0.4753  0.4545
  179SAPS   H9X20514   2.770   4.377   3.087 -0.4117  0.1431 -0.0352
  179SAPS   H9Y20515   2.838   4.479   2.950 -0.8221  1.3115  1.2903
  179SAPS  C31020516   2.958   4.467   3.142 -0.1445  0.5643 -0.2298
  179SAPS  H10X20517   3.029   4.537   3.092  0.9835 -1.1816 -1.1558
  179SAPS  H10Y20518   3.015   4.380   3.182 -1.4306 -1.1303 -1.9036
  179SAPS  C31120519   2.888   4.540   3.255 -0.2471 -0.0959 -0.0033
  179SAPS  H11X20520   2.811   4.484   3.312  0.1193  0.9105  1.5486
  179SAPS  H11Y20521   2.834   4.622   3.202 -1.4184 -0.1463  1.0698
  179SAPS  C31220522   2.989   4.594   3.352 -0.3976 -0.6215 -0.1668
  179SAPS  H12X20523   3.042   4.665   3.286 -0.6034  1.5263  1.8472
  179SAPS  H12Y20524   3.060   4.514   3.383  0.3478 -0.8567 -2.2852
  179SAPS  C31320525   2.928   4.665   3.480 -0.3248  0.0221 -0.2525
  179SAPS  H13X20526   2.880   4.761   3.451 -0.1911  0.0340 -0.4323
  179SAPS  H13Y20527   3.021   4.694   3.532  0.0264  0.6831 -1.2332
  179SAPS  C31420528   2.836   4.589   3.571  0.2347 -0.4373  0.1485
  179SAPS  H14X20529   2.755   4.548   3.507 -0.0526 -1.6849  1.2602
  179SAPS  H14Y20530   2.784   4.661   3.638  0.4658  0.5661 -0.7272
  179SAPS  C31520531   2.896   4.468   3.644 -0.1751  0.0013  0.2784
  179SAPS  H15X20532   2.969   4.498   3.722  1.6745 -0.5426 -1.1681
  179SAPS  H15Y20533   2.952   4.411   3.567  0.2266 -1.2780  1.4750
  179SAPS  C31620534   2.793   4.368   3.711 -0.0209 -0.1298  0.0470
  179SAPS  H16X20535   2.855   4.292   3.762 -0.8148 -1.3845 -0.8066
  179SAPS  H16Y20536   2.738   4.313   3.631  0.5682  0.2810 -0.6611
  179SAPS  C31720537   2.685   4.427   3.805  0.1884  0.4653  0.1069
  179SAPS  H17X20538   2.620   4.509   3.767 -3.1678 -1.0965  1.9988
  179SAPS  H17Y20539   2.741   4.488   3.878  1.5630  2.4535 -2.4314
  179SAPS  C31820540   2.594   4.325   3.878  0.1937  0.0297 -0.3200
  179SAPS  H18X20541   2.537   4.264   3.805  0.4170 -0.8855  0.2623
  179SAPS  H18Y20542   2.532   4.375   3.954  0.7698  0.0317  0.1593
  179SAPS  H18Z20543   2.647   4.255   3.946  0.7118  3.1865  2.8618
  180SAPS     N20544   1.610   0.976   2.144 -0.5984  0.3343 -0.3223
  180SAPS   HN120545   1.698   0.927   2.120 -1.3476 -1.5726  0.6072
  180SAPS   HN220546   1.580   0.941   2.237 -0.1744 -1.1316 -0.7247
  180SAPS   HN320547   1.533   0.943   2.082  1.2737 -3.4362 -0.8741
  180SAPS   C1220548   1.629   1.124   2.146  0.9864 -0.1797 -0.5269
  180SAPS  H12A20549   1.687   1.152   2.232  0.8167  1.5376 -0.9354
  180SAPS   C1320550   1.696   1.193   2.024 -0.3303 -0.4802 -0.3350
  180SAPS  O13A20551   1.768   1.124   1.940  0.8867 -0.2594 -0.0050
  180SAPS  O13B20552   1.715   1.315   2.045  0.0045 -0.1258 -0.8736
  180SAPS   C1120553   1.484   1.185   2.170 -0.4078  0.2946  0.5243
  180SAPS  H11A20554   1.430   1.170   2.074  1.3334  1.9752 -0.8159
  180SAPS  H11B20555   1.491   1.296   2.166  0.5280  0.2515  0.8358
  180SAPS     P20556   1.287   1.197   2.335 -0.0800 -0.9444  0.2455
  180SAPS   O1320557   1.182   1.206   2.228 -1.0300  0.2731  0.0091
  180SAPS   O1420558   1.261   1.132   2.462  0.0828 -0.4863  0.6148
  180SAPS   O1220559   1.415   1.131   2.280  0.1857 -0.4572 -0.0998
  180SAPS   O1120560   1.339   1.347   2.360  0.5735  0.1217  0.8280
  180SAPS    C120561   1.352   1.398   2.493 -0.2075 -0.2053  0.5657
  180SAPS    HA20562   1.256   1.397   2.550 -0.7252  0.5412 -0.2586
  180SAPS    HB20563   1.429   1.336   2.542  0.5934 -0.4924 -0.9957
  180SAPS    C220564   1.400   1.546   2.469  0.4425  0.0784 -0.2602
  180SAPS    HS20565   1.484   1.549   2.396  0.8227 -0.8213  0.1294
  180SAPS   O2120566   1.449   1.599   2.594 -0.6896 -0.3286  0.4637
  180SAPS   C2120567   1.564   1.543   2.638  0.3014 -0.0774 -0.1166
  180SAPS   O2220568   1.643   1.475   2.576  0.1931  0.0645  0.0350
  180SAPS   C2220569   1.588   1.606   2.781 -0.2438 -0.7784  0.9773
  180SAPS   H2R20570   1.634   1.705   2.761 -0.5858 -0.6755  0.6877
  180SAPS   H2S20571   1.489   1.631   2.824  0.1524  1.4680  0.6914
  180SAPS    C320572   1.284   1.645   2.426 -0.0263 -0.5097 -0.2738
  180SAPS    HX20573   1.254   1.604   2.327  0.5612  1.4129 -1.3006
  180SAPS    HY20574   1.332   1.740   2.395 -1.5081  0.3495 -0.0482
  180SAPS   O3120575   1.172   1.656   2.522 -0.5321 -0.2422 -0.3556
  180SAPS   C3120576   1.179   1.753   2.613  0.5436  0.5292  0.5043
  180SAPS   O3220577   1.250   1.850   2.612 -0.8784  0.4222  0.3505
  180SAPS   C3220578   1.093   1.721   2.735 -0.0769 -0.0328  0.4874
  180SAPS   H2X20579   0.998   1.667   2.713 -1.7590  1.9508  2.3213
  180SAPS   H2Y20580   1.067   1.816   2.787  1.1160  1.4997 -1.5846
  180SAPS   C2320581   1.676   1.519   2.878  0.5437  0.7051  1.4327
  180SAPS   H3R20582   1.778   1.501   2.839  0.0404 -1.9311  1.1446
  180SAPS   H3S20583   1.628   1.419   2.876 -2.8585  2.0448 -3.9371
  180SAPS   C2420584   1.670   1.588   3.017  0.1665  0.2875 -0.3508
  180SAPS   H4R20585   1.711   1.517   3.093  1.4087  0.8332 -0.4860
  180SAPS   H4S20586   1.560   1.596   3.031 -0.2424 -1.4546 -2.1609
  180SAPS   C2520587   1.742   1.718   3.025 -0.4505 -0.6655 -0.6945
  180SAPS   H5R20588   1.851   1.702   3.035 -0.4066  0.4216  0.8217
  180SAPS   C2620589   1.701   1.843   3.035 -0.2541 -0.3089 -0.6456
  180SAPS   H6R20590   1.776   1.921   3.055  0.3954 -0.7953 -1.1655
  180SAPS   C2720591   1.561   1.889   3.057 -0.1473 -0.9965 -0.7341
  180SAPS   H7R20592   1.558   1.977   3.125 -0.4708 -0.4135 -1.4767
  180SAPS   H7S20593   1.497   1.814   3.107  1.1884 -0.9306  1.1950
  180SAPS   C2820594   1.494   1.920   2.928  0.3420  0.8334  0.6064
  180SAPS   H8R20595   1.507   1.843   2.851 -1.6690  2.5209 -1.5561
  180SAPS   C2920596   1.431   2.029   2.893 -0.1219 -0.3841 -0.4525
  180SAPS   H9R20597   1.391   2.034   2.791 -1.4051  0.5634  0.0713
  180SAPS  C21020598   1.412   2.147   2.978  0.5689 -0.0224  0.2423
  180SAPS  H10R20599   1.470   2.230   2.932  0.2826 -0.5213 -1.0597
  180SAPS  H10S20600   1.444   2.122   3.081  0.8677 -2.3626 -0.3724
  180SAPS  C21120601   1.257   2.178   2.972 -0.1357 -0.0806  0.3092
  180SAPS  H11R20602   1.239   2.251   2.891 -2.7823 -0.7913  0.1706
  180SAPS  C21220603   1.155   2.103   3.026 -0.0086 -0.3223 -0.0580
  180SAPS  H12R20604   1.052   2.138   3.013 -0.1958 -0.2223  1.4898
  180SAPS  C21320605   1.171   1.995   3.129 -0.2261  0.0292  0.2631
  180SAPS  H13R20606   1.273   1.952   3.137 -1.1107 -2.0644  0.9646
  180SAPS  H13S20607   1.104   1.915   3.093  1.4690 -1.7093  0.7758
  180SAPS  C21420608   1.145   2.051   3.269  0.5930  0.4534 -0.4291
  180SAPS  H14R20609   1.152   2.160   3.279  3.8286  0.2750  0.4026
  180SAPS  C21520610   1.120   1.961   3.368 -0.4128 -0.2327  0.3119
  180SAPS  H15R20611   1.111   1.999   3.471 -1.2022  0.5641 -0.0290
  180SAPS  C21620612   1.131   1.811   3.358  0.3612 -1.0564 -0.1320
  180SAPS  H16R20613   1.151   1.771   3.257  0.8648 -1.3844  0.0928
  180SAPS  H16S20614   1.030   1.766   3.367  0.9708 -2.4377  0.0836
  180SAPS  C21720615   1.225   1.737   3.459  0.3270  0.4815  0.2053
  180SAPS  H17R20616   1.214   1.627   3.450  1.2867  0.2821  1.2164
  180SAPS  H17S20617   1.206   1.767   3.565 -0.9070  0.5272 -0.0105
  180SAPS  C21820618   1.371   1.769   3.436  0.2642  0.8092  0.3217
  180SAPS  H18R20619   1.392   1.870   3.476  0.1801  0.7222  0.5900
  180SAPS  H18S20620   1.389   1.750   3.328 -1.6601 -3.5221  0.5379
  180SAPS  C21920621   1.473   1.659   3.487 -0.1736  0.6431  0.7957
  180SAPS  H19R20622   1.439   1.565   3.439  0.4784  1.4992 -1.4730
  180SAPS  H19S20623   1.460   1.647   3.597  0.5083  1.0478  0.9310
  180SAPS  C22020624   1.616   1.693   3.449 -0.2377 -0.3729 -0.1007
  180SAPS  H20R20625   1.687   1.611   3.473  0.0953  0.4551  2.0096
  180SAPS  H20S20626   1.623   1.725   3.343 -0.6425  0.7627  0.1952
  180SAPS  H20T20627   1.653   1.780   3.508 -0.4316  0.7590 -1.5845
  180SAPS   C3320628   1.176   1.634   2.844 -0.0509  0.0249  0.2268
  180SAPS   H3X20629   1.273   1.688   2.849  1.9026 -3.1974  0.0140
  180SAPS   H3Y20630   1.188   1.532   2.804  0.1014  0.1374 -0.0185
  180SAPS   C3420631   1.105   1.614   2.978 -0.0058  0.7360  0.4249
  180SAPS   H4X20632   1.015   1.550   2.967 -0.8096  2.2041 -2.3602
  180SAPS   H4Y20633   1.079   1.714   3.021  3.3672  1.2512  1.6025
  180SAPS   C3520634   1.196   1.563   3.098  0.0748  0.1916  0.4795
  180SAPS   H5X20635   1.136   1.565   3.192 -0.7101 -0.5514  0.0004
  180SAPS   H5Y20636   1.282   1.631   3.115  1.1913 -0.7347 -1.2221
  180SAPS   C3620637   1.246   1.418   3.080  0.6882 -0.2948  0.1939
  180SAPS   H6X20638   1.289   1.411   2.978  1.3370  2.0153  0.2632
  180SAPS   H6Y20639   1.154   1.357   3.086 -1.3620  2.0746 -3.5964
  180SAPS   C3720640   1.339   1.375   3.192 -0.1874  0.4657  0.4984
  180SAPS   H7X20641   1.384   1.464   3.241  0.5960 -0.1536  0.9313
  180SAPS   H7Y20642   1.420   1.317   3.142  1.5896  0.5454  3.0843
  180SAPS   C3820643   1.265   1.286   3.289  0.0172 -0.2900  0.0708
  180SAPS   H8X20644   1.330   1.197   3.308 -1.0169 -1.6593 -2.4381
  180SAPS   H8Y20645   1.177   1.240   3.240 -0.7006  1.4487 -0.3103
  180SAPS   C3920646   1.224   1.356   3.416 -0.4629  0.8273 -1.0443
  180SAPS   H9X20647   1.151   1.431   3.381 -2.1300  0.3789  1.2041
  180SAPS   H9Y20648   1.309   1.406   3.466 -0.8131  1.6260 -1.2441
  180SAPS  C31020649   1.156   1.256   3.516  0.7164 -0.4903  0.2355
  180SAPS  H10X20650   1.224   1.234   3.601 -0.2650  1.0215  1.4629
  180SAPS  H10Y20651   1.139   1.168   3.451  1.2929  0.8099 -1.7400
  180SAPS  C31120652   1.018   1.299   3.569  0.0438  0.2134  0.2524
  180SAPS  H11X20653   0.956   1.319   3.479 -0.4625  0.5023  0.6655
  180SAPS  H11Y20654   1.034   1.399   3.614 -2.2538  0.3748  0.8193
  180SAPS  C31220655   0.945   1.203   3.656  0.3130 -0.7961 -0.4872
  180SAPS  H12X20656   0.946   1.092   3.645 -2.3264 -1.0484  1.0578
  180SAPS  H12Y20657   0.839   1.235   3.642  0.4873  0.5081  0.9932
  180SAPS  C31320658   0.968   1.218   3.812  0.1660 -0.3465 -0.0356
  180SAPS  H13X20659   0.941   1.324   3.832  1.5257 -0.0367  0.2522
  180SAPS  H13Y20660   1.076   1.199   3.827  0.5791  0.6049 -1.5303
  180SAPS  C31420661   0.885   1.122   3.899 -0.1114 -0.4437  1.4837
  180SAPS  H14X20662   0.893   1.018   3.862  3.4834  0.1442  0.1869
  180SAPS  H14Y20663   0.779   1.153   3.890  0.2416  0.1697 -1.8020
  180SAPS  C31520664   0.933   1.121   4.042  0.6124  0.5929  0.0938
  180SAPS  H15X20665   0.909   1.220   4.088  0.0233  1.3230 -1.6889
  180SAPS  H15Y20666   1.044   1.112   4.046  0.4550 -0.9760  2.8644
  180SAPS  C31620667   0.882   0.992   4.118 -0.3511  0.0170 -0.0415
  180SAPS  H16X20668   0.929   0.904   4.067 -1.5946 -0.7831  0.1435
  180SAPS  H16Y20669   0.772   0.990   4.100 -0.2710  0.4407 -0.5862
  180SAPS  C31720670   0.916   0.998   4.258  0.0376  0.2806 -0.2774
  180SAPS  H17X20671   0.852   1.074   4.309 -0.2904  0.0290 -0.3069
  180SAPS  H17Y20672   1.022   1.026   4.272  1.0188 -3.0084 -0.2895
  180SAPS  C31820673   0.895   0.863   4.325  0.4252 -0.3064  0.3441
  180SAPS  H18X20674   0.954   0.777   4.288  2.1615  0.8268  0.3948
  180SAPS  H18Y20675   0.786   0.848   4.309  0.0521  3.4851 -1.7256
  180SAPS  H18Z20676   0.926   0.871   4.431  1.1142  0.4270  0.0942
  181POPC     N20677   4.517   0.850   6.358  0.5025  0.2169  0.6371
  181POPC   C1220678   4.622   0.791   6.267 -0.2264 -0.5830 -0.3902
  181POPC  H12A20679   4.718   0.789   6.317 -1.6912 -3.3824  2.6248
  181POPC  H12B20680   4.618   0.845   6.173  0.6843  1.5313  0.7051
  181POPC   C1320681   4.489   0.760   6.473 -0.0831  0.0056 -0.0532
  181POPC  H13A20682   4.492   0.658   6.436  1.4757  0.0368 -0.1000
  181POPC  H13B20683   4.565   0.763   6.550  1.0034 -0.8942 -1.0435
  181POPC  H13C20684   4.392   0.768   6.519  0.1966 -0.4947  0.6325
  181POPC   C1420685   4.555   0.984   6.414  0.3497  0.3833  0.2590
  181POPC  H14A20686   4.501   1.026   6.498 -0.5144  1.3069 -0.7293
  181POPC  H14B20687   4.660   0.977   6.440  0.1039 -1.7273  0.8272
  181POPC  H14C20688   4.550   1.055   6.333  1.5713  0.8138  0.5366
  181POPC   C1520689   4.387   0.868   6.288  0.1945  0.4362 -0.1864
  181POPC  H15A20690   4.318   0.913   6.358  0.2193 -0.6670  0.5878
  181POPC  H15B20691   4.351   0.766   6.279 -2.1167  1.0685  1.0805
  181POPC  H15C20692   4.382   0.923   6.195 -1.8610  1.8257  0.6705
  181POPC   C1120693   4.597   0.639   6.234  0.0582  0.0477  0.2742
  181POPC  H11A20694   4.500   0.618   6.184  0.0976  0.3551  0.0648
  181POPC  H11B20695   4.600   0.573   6.323 -2.9927 -2.5665 -1.3319
  181POPC     P20696   4.845   0.598   6.189 -0.3378 -0.3749 -0.6366
  181POPC   O1320697   4.862   0.620   6.333 -0.3123 -0.0443  0.6177
  181POPC   O1420698   4.922   0.690   6.098  0.0727 -0.3860 -0.0160
  181POPC   O1220699   4.694   0.597   6.139 -0.0441 -0.0339 -0.3559
  181POPC   O1120700   4.898   0.458   6.148 -0.3922  0.4992 -0.5037
  181POPC    C120701   4.831   0.355   6.081 -0.4172  0.8365 -0.4345
  181POPC    HA20702   4.721   0.365   6.091 -0.7086  0.1184 -2.4225
  181POPC    HB20703   4.869   0.258   6.117 -0.0418  1.2486  0.3034
  181POPC    C220704   4.838   0.352   5.923 -0.1156 -0.6944  0.3348
  181POPC    HS20705   4.830   0.247   5.887 -0.6342  0.0442 -1.8212
  181POPC   O2120706   4.959   0.398   5.863 -0.4581  0.5778 -0.4152
  181POPC   C2120707   5.072   0.342   5.916  0.1725  0.2762 -0.2858
  181POPC   O2220708   5.075   0.238   5.981  0.5784 -0.1920  0.8872
  181POPC   C2220709   5.199   0.424   5.892  0.1910  0.6245 -0.7917
  181POPC   H2R20710   5.288   0.366   5.925 -0.9996  0.2015  1.9282
  181POPC   H2S20711   5.191   0.519   5.949  0.4262 -0.8509  1.8362
  181POPC    C320712   4.712   0.421   5.866  0.1859 -0.3508 -0.1116
  181POPC    HX20713   4.713   0.531   5.883 -1.0322 -0.4772  0.9716
  181POPC    HY20714   4.628   0.381   5.926  0.0792  0.2006  0.1152
  181POPC   O3120715   4.682   0.383   5.726 -0.2604 -0.4149 -0.2633
  181POPC   C3120716   4.736   0.458   5.635 -0.2551  0.2882 -0.7913
  181POPC   O3220717   4.814   0.551   5.646 -0.2477  0.5340 -0.2034
  181POPC   C3220718   4.700   0.398   5.506  0.6025  0.5290  0.0243
  181POPC   H2X20719   4.590   0.404   5.496  0.6762  2.8572  0.0278
  181POPC   H2Y20720   4.739   0.294   5.511  0.2026  0.1705 -2.6846
  181POPC   C2320721   5.220   0.450   5.735  0.0478 -0.5800 -0.3506
  181POPC   H3R20722   5.304   0.522   5.729 -0.3073  0.2338  2.8205
  181POPC   H3S20723   5.122   0.491   5.701 -1.2018 -2.9438  0.2128
  181POPC   C2420724   5.252   0.333   5.654  0.7408 -0.3448 -0.0678
  181POPC   H4R20725   5.201   0.242   5.692  1.1138 -0.5771 -0.1197
  181POPC   H4S20726   5.362   0.321   5.652  1.1139  2.4188 -0.2029
  181POPC   C2520727   5.192   0.368   5.520 -0.1369 -0.0977  0.9381
  181POPC   H5R20728   5.218   0.474   5.498 -2.1854  0.1971 -0.3262
  181POPC   H5S20729   5.081   0.360   5.521 -0.1057 -0.8027 -0.0763
  181POPC   C2620730   5.248   0.288   5.410  0.0226 -0.0134  0.1957
  181POPC   H6R20731   5.243   0.179   5.433 -2.9829  0.0118  0.1215
  181POPC   H6S20732   5.355   0.312   5.393  0.6232 -2.4533  0.1010
  181POPC   C2720733   5.174   0.320   5.279  0.7523 -0.1267  0.4357
  181POPC   H7R20734   5.156   0.429   5.270  1.3614  0.0331  1.1164
  181POPC   H7S20735   5.072   0.276   5.285  0.9617 -0.4095  2.9565
  181POPC   C2820736   5.233   0.260   5.154  0.0287 -0.0361  0.5718
  181POPC   H8R20737   5.170   0.248   5.064 -0.4858 -0.9061  1.0376
  181POPC   H8S20738   5.253   0.152   5.168 -1.1051 -0.1835  1.1589
  181POPC   C2920739   5.361   0.319   5.107 -0.2809 -0.5887  0.2457
  181POPC   H9120740   5.450   0.282   5.160 -0.5993 -0.5597  0.8121
  181POPC  C21020741   5.363   0.419   5.014 -0.7289 -0.3691  0.4122
  181POPC  H10120742   5.460   0.466   4.990 -1.1348  0.6807  0.7900
  181POPC  C21120743   5.245   0.492   4.945  0.3506 -0.1694  0.9067
  181POPC  H11R20744   5.266   0.601   4.942  2.2009 -0.3885  3.0685
  181POPC  H11S20745   5.152   0.487   5.005  0.2090 -1.3014  0.6212
  181POPC  C21220746   5.218   0.441   4.800 -0.4080  0.1709  0.1573
  181POPC  H12R20747   5.170   0.342   4.811 -1.1235  0.2124 -2.0127
  181POPC  H12S20748   5.314   0.435   4.743 -0.4217  1.3922 -0.0246
  181POPC  C21320749   5.125   0.532   4.711 -0.5320  0.0501 -0.1301
  181POPC  H13R20750   5.179   0.613   4.658  0.7049 -0.6953 -0.0744
  181POPC  H13S20751   5.045   0.577   4.772  0.1559  0.1638  0.7049
  181POPC  C21420752   5.049   0.448   4.598  0.0082 -0.0449  0.0076
  181POPC  H14R20753   4.996   0.366   4.651  1.3059 -0.4878  0.6675
  181POPC  H14S20754   5.123   0.392   4.538  0.3046 -1.2346  1.4083
  181POPC  C21520755   4.967   0.550   4.518 -0.0903 -0.6134  0.9869
  181POPC  H15R20756   5.017   0.634   4.466  1.3741 -2.9302 -1.6130
  181POPC  H15S20757   4.904   0.604   4.592  1.4082  0.8390  1.2430
  181POPC  C21620758   4.876   0.484   4.422  0.7672  0.0148  0.3364
  181POPC  H16R20759   4.824   0.404   4.480  0.3972 -0.8287 -1.1192
  181POPC  H16S20760   4.930   0.433   4.340 -0.7686  0.2619 -0.8740
  181POPC  C21720761   4.769   0.573   4.372 -0.0084  0.0783 -0.1248
  181POPC  H17R20762   4.786   0.648   4.292  0.9954 -1.1954 -1.1547
  181POPC  H17S20763   4.745   0.639   4.458  1.4212 -0.0028  0.3568
  181POPC  C21820764   4.637   0.508   4.341 -0.0676 -0.5522  0.2123
  181POPC  H18R20765   4.549   0.573   4.322  1.3820  1.3756 -0.0802
  181POPC  H18S20766   4.616   0.444   4.430  0.6593  1.7461  2.1154
  181POPC  H18T20767   4.641   0.445   4.249 -0.9315 -0.0356 -0.1862
  181POPC   C3320768   4.772   0.462   5.385 -0.1157  0.1530  0.8620
  181POPC   H3X20769   4.882   0.450   5.386 -0.1321 -0.7933 -1.8225
  181POPC   H3Y20770   4.757   0.572   5.379 -0.7977  0.0513  0.6472
  181POPC   C3420771   4.725   0.398   5.255  0.2039 -0.0648  0.1342
  181POPC   H4X20772   4.622   0.406   5.215 -0.0004 -0.6314  0.5301
  181POPC   H4Y20773   4.753   0.291   5.269 -1.3768 -0.4909  0.2485
  181POPC   C3520774   4.815   0.437   5.134 -0.3984 -0.2724 -0.3863
  181POPC   H5X20775   4.914   0.452   5.183  0.1614  1.1202 -1.8410
  181POPC   H5Y20776   4.786   0.534   5.089  0.5703 -0.1993 -0.9036
  181POPC   C3620777   4.820   0.332   5.027 -0.5885 -0.0200  0.1581
  181POPC   H6X20778   4.826   0.230   5.071 -1.0621 -0.0638  0.1271
  181POPC   H6Y20779   4.914   0.331   4.968 -0.0564 -1.3732  0.9767
  181POPC   C3720780   4.696   0.325   4.943 -0.0008  1.1698  0.2819
  181POPC   H7X20781   4.656   0.427   4.927  2.2103  1.8243 -1.5924
  181POPC   H7Y20782   4.623   0.259   4.994  3.2983 -1.5314  1.8994
  181POPC   C3820783   4.729   0.278   4.801 -0.2255 -0.4380 -0.0112
  181POPC   H8X20784   4.800   0.193   4.796  0.3270  0.0481 -0.6538
  181POPC   H8Y20785   4.786   0.367   4.766  2.2152 -1.8269  0.2051
  181POPC   C3920786   4.599   0.238   4.720 -0.1386 -0.6126 -0.3780
  181POPC   H9X20787   4.524   0.320   4.714 -1.9908 -2.1000  1.2683
  181POPC   H9Y20788   4.541   0.157   4.769 -2.9070  0.9888 -0.7612
  181POPC  C31020789   4.633   0.173   4.586 -0.2249  0.4811  0.1942
  181POPC  H10X20790   4.694   0.083   4.612 -0.3440  0.1662 -0.5910
  181POPC  H10Y20791   4.692   0.238   4.519  1.2567 -0.6471  0.3458
  181POPC  C31120792   4.517   0.100   4.510  0.2737  0.6957  0.0364
  181POPC  H11X20793   4.418   0.125   4.554 -0.8408 -0.9815 -1.4012
  181POPC  H11Y20794   4.524  -0.010   4.507 -1.0538  0.5932 -2.8127
  181POPC  C31220795   4.494   0.141   4.357  0.7075  0.6818  0.6625
  181POPC  H12X20796   4.595   0.138   4.310  1.3690 -1.1879  2.0758
  181POPC  H12Y20797   4.455   0.245   4.352 -1.0990 -0.0254 -0.9927
  181POPC  C31320798   4.396   0.040   4.288  0.6503 -0.7405  0.1054
  181POPC  H13X20799   4.291   0.064   4.313  0.1134 -0.3420 -2.3053
  181POPC  H13Y20800   4.426  -0.060   4.326 -0.0745 -1.2447 -0.6158
  181POPC  C31420801   4.412   0.026   4.131 -0.2035  0.3325 -0.4802
  181POPC  H14X20802   4.510  -0.021   4.106  0.3769  0.6594  1.0299
  181POPC  H14Y20803   4.398   0.123   4.080 -2.1385  0.9179  1.0580
  181POPC  C31520804   4.304  -0.070   4.078  0.1257  0.0968  0.1371
  181POPC  H15X20805   4.213  -0.012   4.052  0.3892  0.1220 -0.7348
  181POPC  H15Y20806   4.275  -0.141   4.159  0.4368 -0.2669 -0.0678
  181POPC  C31620807   4.353  -0.159   3.961  0.0311  0.0026 -0.4282
  181POPC  H16X20808   4.365  -0.083   3.880 -1.6888 -0.1407 -0.8603
  181POPC  H16Y20809   4.279  -0.235   3.928  0.4291  0.0806 -1.5617
  181POPC  H16Z20810   4.458  -0.196   3.969  0.1106  0.6350  2.1466
  182POPC     N20811   2.366   6.604   6.653  0.8702  0.7068 -0.0590
  182POPC   C1220812   2.443   6.724   6.613 -0.5973  0.3089 -0.3961
  182POPC  H12A20813   2.546   6.719   6.647  0.1377  0.3453 -2.4998
  182POPC  H12B20814   2.414   6.818   6.657  2.2462  0.6406  1.0471
  182POPC   C1320815   2.241   6.590   6.574  0.0493  0.2121 -0.0115
  182POPC  H13A20816   2.150   6.589   6.632 -0.0664 -0.6983 -0.1977
  182POPC  H13B20817   2.244   6.666   6.497  0.3812 -0.3810 -0.5930
  182POPC  H13C20818   2.236   6.499   6.517  2.6391 -0.2237  0.3296
  182POPC   C1420819   2.451   6.486   6.633  0.5430  0.6111  0.9320
  182POPC  H14A20820   2.487   6.471   6.532  4.4537 -1.7164  2.4312
  182POPC  H14B20821   2.545   6.489   6.687  1.0439 -0.2275  0.1393
  182POPC  H14C20822   2.396   6.398   6.660  2.1186 -0.6352  0.2330
  182POPC   C1520823   2.327   6.605   6.794  0.8087  0.7909 -0.2440
  182POPC  H15A20824   2.276   6.693   6.830 -1.0391 -0.7182  1.0204
  182POPC  H15B20825   2.420   6.599   6.848 -0.3085 -0.2863  1.6611
  182POPC  H15C20826   2.265   6.523   6.827 -0.7115  0.3539 -3.7414
  182POPC   C1120827   2.461   6.754   6.463 -0.2944 -0.3601 -0.1439
  182POPC  H11A20828   2.475   6.652   6.420  0.3197 -1.4004  2.3031
  182POPC  H11B20829   2.546   6.824   6.449 -3.2655  4.0266  1.7860
  182POPC     P20830   2.310   6.961   6.413 -0.2084  0.3563  0.5106
  182POPC   O1320831   2.386   7.032   6.304  0.3294 -0.0603 -0.9658
  182POPC   O1420832   2.343   6.996   6.549  0.6248  0.5585 -0.3846
  182POPC   O1220833   2.350   6.808   6.399  0.0312 -0.3990 -0.4411
  182POPC   O1120834   2.154   6.968   6.403 -0.1856 -0.1044  0.3614
  182POPC    C120835   2.075   6.854   6.371 -0.1691  0.1149 -0.5854
  182POPC    HA20836   1.967   6.866   6.395 -0.4032 -0.8545 -1.1121
  182POPC    HB20837   2.105   6.753   6.405  0.7934 -0.2261 -2.3255
  182POPC    C220838   2.058   6.841   6.208  0.1260  0.5583 -0.6877
  182POPC    HS20839   1.976   6.771   6.180  2.0806 -1.7901 -0.9233
  182POPC   O2120840   2.172   6.798   6.136  0.3811 -0.1587  0.0359
  182POPC   C2120841   2.215   6.679   6.170 -0.3557 -0.6198  0.6952
  182POPC   O2220842   2.158   6.601   6.245 -0.6533 -0.3428  0.3296
  182POPC   C2220843   2.346   6.643   6.093 -0.8520 -0.1545 -0.1919
  182POPC   H2R20844   2.431   6.700   6.137 -0.3315 -0.9568 -0.1493
  182POPC   H2S20845   2.328   6.678   5.989 -0.8098  1.5984  0.3557
  182POPC    C320846   2.017   6.982   6.154  0.3066  0.0111 -0.5739
  182POPC    HX20847   2.103   7.051   6.171  1.0506 -1.3722  1.7458
  182POPC    HY20848   1.948   7.019   6.233 -1.0914 -2.7294 -0.3755
  182POPC   O3120849   1.962   6.973   6.017 -0.8628 -0.0475 -0.1290
  182POPC   C3120850   2.021   7.042   5.920 -0.3144  0.2203 -0.3189
  182POPC   O3220851   2.116   7.116   5.936  0.1307  0.1572 -0.5593
  182POPC   C3220852   1.950   7.023   5.790 -0.1893 -0.5731  0.3436
  182POPC   H2X20853   1.846   6.985   5.802 -0.2482 -0.7952 -0.7223
  182POPC   H2Y20854   2.018   6.947   5.748  1.6863 -0.3956  2.8711
  182POPC   C2320855   2.368   6.490   6.093  0.1303  0.5768  0.2096
  182POPC   H3R20856   2.272   6.437   6.071  1.5309 -1.4725 -1.3110
  182POPC   H3S20857   2.414   6.462   6.190  0.5879  0.3997 -0.0559
  182POPC   C2420858   2.479   6.455   5.995  0.5000 -0.1161  0.8666
  182POPC   H4R20859   2.575   6.469   6.049 -0.4601  1.2184  2.3040
  182POPC   H4S20860   2.467   6.522   5.908  1.3350 -1.2687 -0.1713
  182POPC   C2520861   2.475   6.315   5.928  0.3634 -0.2970  0.2096
  182POPC   H5R20862   2.388   6.314   5.858 -0.9617  0.4450  1.7784
  182POPC   H5S20863   2.451   6.240   6.007  0.9906  0.1359  0.8283
  182POPC   C2620864   2.598   6.276   5.845 -0.2029 -0.2782 -0.1284
  182POPC   H6R20865   2.583   6.169   5.819 -0.6412 -0.6432  1.5252
  182POPC   H6S20866   2.692   6.272   5.904 -0.2136  0.2040 -0.0791
  182POPC   C2720867   2.624   6.369   5.719 -0.1453 -0.2219 -0.4858
  182POPC   H7R20868   2.635   6.477   5.744 -1.2279  1.0771 -4.7840
  182POPC   H7S20869   2.535   6.354   5.654  0.7172  0.2468 -1.7990
  182POPC   C2820870   2.759   6.342   5.644  0.0956 -0.4517 -0.4431
  182POPC   H8R20871   2.839   6.362   5.718  0.9067 -1.1819 -1.1028
  182POPC   H8S20872   2.771   6.421   5.567 -2.1334 -0.3943 -0.8083
  182POPC   C2920873   2.773   6.209   5.584 -0.1153  0.2892  0.2969
  182POPC   H9120874   2.788   6.124   5.652  1.2625  0.0961 -0.2126
  182POPC  C21020875   2.789   6.194   5.451  0.4372  0.3562  0.1320
  182POPC  H10120876   2.820   6.092   5.424 -1.2648 -0.7209  2.0099
  182POPC  C21120877   2.799   6.296   5.333  0.3421 -0.0010 -0.3282
  182POPC  H11R20878   2.901   6.332   5.309 -0.4268  1.6223 -1.3414
  182POPC  H11S20879   2.729   6.382   5.342  0.1379  0.0562 -2.0534
  182POPC  C21220880   2.743   6.228   5.203 -0.6500  0.3056 -0.2920
  182POPC  H12R20881   2.639   6.191   5.207 -0.8017  0.5142 -1.5931
  182POPC  H12S20882   2.807   6.136   5.198 -2.2910 -0.9228  0.4927
  182POPC  C21320883   2.752   6.321   5.085  0.1256 -0.6361  0.0036
  182POPC  H13R20884   2.856   6.362   5.084 -0.1172  0.0168 -2.0608
  182POPC  H13S20885   2.690   6.413   5.081  0.6008 -0.2964  0.2849
  182POPC  C21420886   2.737   6.242   4.948  0.3628  0.2759 -0.5308
  182POPC  H14R20887   2.629   6.218   4.953  0.4426  0.0986  0.9196
  182POPC  H14S20888   2.793   6.147   4.934 -1.6670 -1.1079  0.2585
  182POPC  C21520889   2.769   6.331   4.825 -0.5558 -0.0849  0.2845
  182POPC  H15R20890   2.735   6.435   4.846  0.4666  0.4312 -0.5498
  182POPC  H15S20891   2.721   6.287   4.734 -0.0135 -1.4454  0.6404
  182POPC  C21620892   2.917   6.352   4.799  0.5327 -0.1020 -0.5131
  182POPC  H16R20893   2.962   6.255   4.769 -0.5743 -0.2556 -1.7130
  182POPC  H16S20894   2.964   6.387   4.894 -2.1891  1.2696  0.4329
  182POPC  C21720895   2.949   6.458   4.699  0.2994 -0.1007 -0.1218
  182POPC  H17R20896   3.042   6.510   4.728 -0.3388  0.4823  0.9168
  182POPC  H17S20897   2.876   6.542   4.705 -0.1393 -0.3901 -1.1571
  182POPC  C21820898   2.949   6.417   4.552 -0.2028  0.7995  0.4731
  182POPC  H18R20899   2.852   6.369   4.529  0.3593  0.2191 -0.8084
  182POPC  H18S20900   3.022   6.338   4.523 -1.4391 -0.0411 -0.4039
  182POPC  H18T20901   2.961   6.498   4.477  2.4804 -1.2314 -1.5410
  182POPC   C3320902   1.968   7.145   5.690 -0.0328 -0.1356  0.0922
  182POPC   H3X20903   2.066   7.197   5.678 -0.5094  0.7481 -0.0572
  182POPC   H3Y20904   1.898   7.226   5.718  0.5056  0.5346 -0.4569
  182POPC   C3420905   1.940   7.111   5.540 -0.4562  0.6064 -0.5808
  182POPC   H4X20906   1.954   7.203   5.480 -1.8291  1.8377  0.9005
  182POPC   H4Y20907   1.844   7.058   5.525 -1.2897  1.8509  0.2409
  182POPC   C3520908   2.044   7.009   5.478  0.4361 -0.5804  0.5447
  182POPC   H5X20909   2.018   6.910   5.520  0.3882  0.0898  2.1790
  182POPC   H5Y20910   2.147   7.035   5.508 -0.2822  1.0358  1.7938
  182POPC   C3620911   2.038   7.000   5.323 -0.5152  0.5208  0.1051
  182POPC   H6X20912   2.104   7.084   5.292  1.8633 -1.4871 -0.6669
  182POPC   H6Y20913   1.937   7.022   5.282 -0.9374 -0.6781  0.4733
  182POPC   C3720914   2.081   6.870   5.258  0.6794  0.5605 -0.9273
  182POPC   H7X20915   2.045   6.884   5.154 -1.6210  0.5502 -0.1881
  182POPC   H7Y20916   2.009   6.794   5.295  1.8014 -0.8013 -1.4735
  182POPC   C3820917   2.227   6.833   5.283 -0.6737  0.5351  0.0548
  182POPC   H8X20918   2.230   6.839   5.393 -1.8100  2.5076  0.0343
  182POPC   H8Y20919   2.297   6.912   5.247 -0.1203 -0.2610 -0.6566
  182POPC   C3920920   2.279   6.701   5.227 -0.4123  0.1018 -0.5889
  182POPC   H9X20921   2.335   6.713   5.132 -0.8469 -1.8066 -1.1298
  182POPC   H9Y20922   2.199   6.627   5.211  1.3765 -1.7785 -1.1890
  182POPC  C31020923   2.370   6.624   5.332 -0.1058 -0.3775  0.4613
  182POPC  H10X20924   2.429   6.696   5.394  1.4188 -0.4218 -0.8599
  182POPC  H10Y20925   2.441   6.564   5.271 -1.4676 -0.8672 -0.6687
  182POPC  C31120926   2.296   6.534   5.425  1.1880  0.2633 -0.3020
  182POPC  H11X20927   2.369   6.476   5.485  0.3880 -0.1000  0.3474
  182POPC  H11Y20928   2.228   6.471   5.364 -2.1750  2.4231  0.9107
  182POPC  C31220929   2.203   6.607   5.521  0.6462 -0.4574 -0.2012
  182POPC  H12X20930   2.124   6.660   5.464  3.0555  2.5041 -0.9973
  182POPC  H12Y20931   2.260   6.689   5.570  0.1175  0.2381 -0.7355
  182POPC  C31320932   2.130   6.522   5.626 -0.5141 -0.4905 -0.0400
  182POPC  H13X20933   2.196   6.489   5.709  0.4478 -1.1756 -1.0482
  182POPC  H13Y20934   2.096   6.433   5.568 -2.2589  0.3206 -0.3144
  182POPC  C31420935   2.011   6.581   5.706  0.6051 -0.7426  0.2197
  182POPC  H14X20936   1.924   6.523   5.667  0.4058  0.3750 -1.0819
  182POPC  H14Y20937   2.002   6.686   5.670  0.3433 -0.4597  1.0926
  182POPC  C31520938   2.016   6.568   5.857  0.6032 -0.6011 -0.4904
  182POPC  H15X20939   2.102   6.629   5.892 -0.2929  0.3683  0.1114
  182POPC  H15Y20940   2.034   6.462   5.884 -0.4838 -0.4596  0.9373
  182POPC  C31620941   1.888   6.619   5.930 -0.7425 -0.2542 -0.6800
  182POPC  H16X20942   1.870   6.728   5.912 -1.1337 -0.4902 -1.7878
  182POPC  H16Y20943   1.889   6.591   6.038  2.0385 -0.2254 -0.6296
  182POPC  H16Z20944   1.808   6.558   5.884  1.4722 -2.6088 -1.6258
  183POPC     N20945   5.717   5.123   6.724  0.1260  0.0658  0.2225
  183POPC   C1220946   5.724   5.238   6.617 -0.1122 -0.1367 -0.6307
  183POPC  H12A20947   5.775   5.197   6.531  1.9050 -1.3179  1.0184
  183POPC  H12B20948   5.791   5.312   6.660  1.4832 -1.6816 -0.3245
  183POPC   C1320949   5.605   5.024   6.689  0.5730 -0.7906 -0.0687
  183POPC  H13A20950   5.628   4.974   6.596  1.3535  0.9116 -0.8394
  183POPC  H13B20951   5.587   4.955   6.770 -0.8580  0.5709  0.8434
  183POPC  H13C20952   5.513   5.081   6.688  0.6970 -0.5920 -1.0940
  183POPC   C1420953   5.846   5.056   6.741 -0.4699  0.9417  0.3033
  183POPC  H14A20954   5.924   5.121   6.776  0.0422 -0.6134  2.2593
  183POPC  H14B20955   5.831   4.983   6.819  0.3210 -0.6312 -0.9711
  183POPC  H14C20956   5.879   5.001   6.654 -0.0064  3.1732 -1.0110
  183POPC   C1520957   5.669   5.186   6.850  0.0718 -0.8750 -0.2665
  183POPC  H15A20958   5.562   5.202   6.851  0.4455  2.4094  1.5139
  183POPC  H15B20959   5.733   5.273   6.862  1.5797 -1.5292 -2.7665
  183POPC  H15C20960   5.691   5.131   6.941  0.4998  3.4818  2.5929
  183POPC   C1120961   5.604   5.311   6.563  0.0150  0.1812 -0.6193
  183POPC  H11A20962   5.645   5.402   6.515 -1.1557  1.7986  1.3133
  183POPC  H11B20963   5.541   5.363   6.638  1.6711  0.9956  0.2558
  183POPC     P20964   5.575   5.193   6.334 -0.0251 -0.0569  0.1841
  183POPC   O1320965   5.458   5.134   6.272  0.2875 -0.2833  0.4504
  183POPC   O1420966   5.702   5.117   6.325  0.3656 -0.4218 -0.1514
  183POPC   O1220967   5.531   5.222   6.478 -0.1411  0.4258  0.9181
  183POPC   O1120968   5.595   5.340   6.281 -0.3075  0.8558 -0.8893
  183POPC    C120969   5.498   5.436   6.260  1.1001  0.2426 -0.1188
  183POPC    HA20970   5.538   5.539   6.269  2.9920 -0.3113 -1.5624
  183POPC    HB20971   5.427   5.425   6.344 -0.0618  0.8086 -1.0031
  183POPC    C220972   5.421   5.426   6.121 -0.2401 -0.2763  0.1861
  183POPC    HS20973   5.361   5.334   6.102  0.7173 -0.7924 -0.4190
  183POPC   O2120974   5.515   5.419   6.017 -0.3197  0.0876 -0.1438
  183POPC   C2120975   5.490   5.380   5.896 -0.9057  0.3505 -0.9087
  183POPC   O2220976   5.391   5.318   5.859 -0.3168  0.0330  0.0476
  183POPC   C2220977   5.607   5.425   5.810 -0.1488  0.4088 -0.1924
  183POPC   H2R20978   5.703   5.421   5.865 -0.9962 -1.0097  1.2828
  183POPC   H2S20979   5.584   5.533   5.799 -0.2908  0.5185  1.0678
  183POPC    C320980   5.332   5.554   6.110  0.0654 -0.8207  0.4420
  183POPC    HX20981   5.391   5.641   6.147 -1.4724 -0.0286  1.1116
  183POPC    HY20982   5.247   5.539   6.180  0.1443  0.3535  0.8125
  183POPC   O3120983   5.290   5.584   5.980  0.4320 -0.1159  0.2766
  183POPC   C3120984   5.194   5.512   5.914 -0.0091  0.1348 -0.1513
  183POPC   O3220985   5.126   5.433   5.972  0.1061 -0.5358 -0.3938
  183POPC   C3220986   5.196   5.537   5.764 -0.6867  0.1247  1.1089
  183POPC   H2X20987   5.127   5.462   5.719 -0.0420 -1.6223  2.8654
  183POPC   H2Y20988   5.294   5.504   5.724 -1.6186 -0.3907 -0.8597
  183POPC   C2320989   5.615   5.345   5.679  0.0821 -0.4260 -0.2446
  183POPC   H3R20990   5.657   5.407   5.597 -0.0750  1.2472  0.8849
  183POPC   H3S20991   5.522   5.295   5.647 -1.2428  1.6467  0.1726
  183POPC   C2420992   5.712   5.220   5.691  0.1281  0.4817 -0.1572
  183POPC   H4R20993   5.689   5.154   5.777  1.0061 -1.3196 -1.2451
  183POPC   H4S20994   5.815   5.252   5.719  0.8604 -1.1861 -0.8353
  183POPC   C2520995   5.724   5.139   5.563 -0.0532 -0.0854  0.5099
  183POPC   H5R20996   5.799   5.059   5.573 -0.7486 -0.5647  2.3467
  183POPC   H5S20997   5.758   5.193   5.472  1.2710 -0.9878  0.4533
  183POPC   C2620998   5.592   5.055   5.524 -0.2993 -0.6395 -0.6750
  183POPC   H6R20999   5.512   5.123   5.487 -1.4794 -0.4495  1.9982
  183POPC   H6S21000   5.550   5.010   5.616  0.5125  2.3128  1.2755
  183POPC   C2721001   5.603   4.952   5.410  0.0096  0.1484  0.4279
  183POPC   H7R21002   5.697   4.900   5.437  1.0933  1.9399  0.3167
  183POPC   H7S21003   5.632   4.998   5.313  0.8696  1.3151  1.2051
  183POPC   C2821004   5.485   4.851   5.396  0.3776 -0.5389  0.3124
  183POPC   H8R21005   5.483   4.801   5.297 -1.0079 -0.5700  0.3344
  183POPC   H8S21006   5.391   4.909   5.387  1.1311  0.3933 -3.3409
  183POPC   C2921007   5.484   4.742   5.493  0.2954 -0.3231  0.4983
  183POPC   H9121008   5.424   4.761   5.583  1.7671  1.7519  1.1285
  183POPC  C21021009   5.565   4.632   5.480  0.3084 -0.1483 -0.1936
  183POPC  H10121010   5.562   4.557   5.560  2.1750  1.3648  1.3898
  183POPC  C21121011   5.671   4.601   5.377  0.4598 -0.3171 -1.0193
  183POPC  H11R21012   5.687   4.696   5.320  1.7329  0.4438  0.5197
  183POPC  H11S21013   5.649   4.515   5.311  4.0461 -1.9497 -0.3032
  183POPC  C21221014   5.799   4.551   5.430  0.3660  0.3832 -1.0068
  183POPC  H12R21015   5.870   4.529   5.347  1.6410 -1.0026  0.3770
  183POPC  H12S21016   5.784   4.463   5.496  1.2874  1.0296  0.0959
  183POPC  C21321017   5.883   4.663   5.494  0.5049 -0.0002  0.7498
  183POPC  H13R21018   5.864   4.688   5.600 -0.0890  2.7910  0.0456
  183POPC  H13S21019   5.880   4.762   5.444 -2.0243  0.8277  2.3376
  183POPC  C21421020   6.028   4.617   5.493  0.0155  0.2227 -0.0248
  183POPC  H14R21021   6.098   4.696   5.528  2.7276 -1.6877 -0.8844
  183POPC  H14S21022   6.052   4.620   5.385 -2.2142  2.0482 -0.5543
  183POPC  C21521023   6.061   4.482   5.574  0.3648 -0.2333  0.0522
  183POPC  H15R21024   6.013   4.401   5.514 -0.4530  0.2737  0.0104
  183POPC  H15S21025   6.013   4.477   5.674 -0.2498  0.7969 -0.1844
  183POPC  C21621026   6.203   4.443   5.594  0.0082 -0.1712  0.3593
  183POPC  H16R21027   6.257   4.524   5.649  2.5753 -0.7521 -1.1402
  183POPC  H16S21028   6.247   4.428   5.493 -1.6675 -0.9187 -0.3033
  183POPC  C21721029   6.218   4.312   5.670 -0.1891 -0.3233  0.2493
  183POPC  H17R21030   6.157   4.226   5.636  1.2205 -0.9378 -0.8706
  183POPC  H17S21031   6.199   4.331   5.778  0.3969  1.3199  0.0851
  183POPC  C21821032   6.369   4.262   5.682  0.0102  0.3036 -0.9886
  183POPC  H18R21033   6.375   4.161   5.729  0.2417  1.2387  1.1053
  183POPC  H18S21034   6.432   4.332   5.740 -1.1734 -0.0197  0.7947
  183POPC  H18T21035   6.413   4.249   5.581 -0.7645 -2.1451 -1.0822
  183POPC   C3321036   5.171   5.675   5.710 -0.2696  0.1725 -0.0797
  183POPC   H3X21037   5.259   5.734   5.744  1.0838 -1.8325  0.0590
  183POPC   H3Y21038   5.076   5.714   5.752 -0.8745 -3.7457  2.6798
  183POPC   C3421039   5.167   5.666   5.556  0.2042  0.2637  0.7308
  183POPC   H4X21040   5.094   5.587   5.529  1.0478 -0.3114  0.1279
  183POPC   H4Y21041   5.264   5.621   5.527  0.0284 -2.3425  3.6906
  183POPC   C3521042   5.132   5.799   5.481 -0.6720  0.5502  0.0288
  183POPC   H5X21043   5.184   5.881   5.536  0.0544 -0.6607  1.2131
  183POPC   H5Y21044   5.023   5.816   5.484 -0.8038 -0.2312 -0.0142
  183POPC   C3621045   5.164   5.792   5.335  0.0138 -0.7738  0.0776
  183POPC   H6X21046   5.089   5.722   5.291 -0.5007 -0.9046  1.1474
  183POPC   H6Y21047   5.267   5.751   5.330  0.0020 -0.7394 -0.6232
  183POPC   C3721048   5.159   5.930   5.260 -0.5248  0.7068  0.2692
  183POPC   H7X21049   5.222   6.000   5.319 -1.2436  0.6052  1.1838
  183POPC   H7Y21050   5.056   5.971   5.274 -0.5434  0.4673  0.8569
  183POPC   C3821051   5.203   5.900   5.118  0.0675 -0.3597 -0.1505
  183POPC   H8X21052   5.313   5.882   5.110 -0.1053 -1.7965  0.4299
  183POPC   H8Y21053   5.185   5.994   5.062 -1.0226  1.4443  2.9792
  183POPC   C3921054   5.135   5.789   5.043 -0.0582 -0.1593 -0.1946
  183POPC   H9X21055   5.024   5.794   5.049 -0.0900 -1.5138  0.9555
  183POPC   H9Y21056   5.164   5.686   5.074  1.9487  0.2778 -0.4828
  183POPC  C31021057   5.171   5.798   4.891 -0.3967  0.3513  0.3058
  183POPC  H10X21058   5.169   5.907   4.870  1.6376  0.5767  1.0157
  183POPC  H10Y21059   5.084   5.756   4.837 -1.5692  0.8835  1.7180
  183POPC  C31121060   5.307   5.733   4.860 -0.1177 -0.4935 -0.1679
  183POPC  H11X21061   5.301   5.637   4.916 -1.3277 -0.5378 -0.3633
  183POPC  H11Y21062   5.389   5.799   4.896 -0.8683  2.0287 -2.7379
  183POPC  C31221063   5.338   5.697   4.716 -0.1272  0.2669 -0.6916
  183POPC  H12X21064   5.246   5.643   4.685  0.2733 -1.9635  1.6322
  183POPC  H12Y21065   5.424   5.627   4.716  1.1746  1.7782 -2.0012
  183POPC  C31321066   5.376   5.819   4.624  0.1575 -0.3670 -0.4418
  183POPC  H13X21067   5.481   5.854   4.638 -0.2401  0.4038  0.7808
  183POPC  H13Y21068   5.310   5.902   4.658  0.1764 -0.7525  0.5608
  183POPC  C31421069   5.336   5.792   4.476 -0.0873  0.1903 -0.5121
  183POPC  H14X21070   5.395   5.707   4.434 -0.9887 -0.0911 -1.2414
  183POPC  H14Y21071   5.357   5.878   4.410 -1.3050  0.4643 -0.5665
  183POPC  C31521072   5.181   5.765   4.453 -1.2570 -0.6461  0.4602
  183POPC  H15X21073   5.114   5.849   4.482 -2.4697 -1.3429 -0.2528
  183POPC  H15Y21074   5.142   5.691   4.526  0.2094 -1.3694  0.5613
  183POPC  C31621075   5.150   5.725   4.311  1.0340  0.3946  0.4085
  183POPC  H16X21076   5.209   5.780   4.235  0.2637  0.2378 -0.3183
  183POPC  H16Y21077   5.040   5.729   4.299  0.6801 -3.5013  0.9533
  183POPC  H16Z21078   5.190   5.622   4.299 -0.9737 -0.4376  0.4820
  184POPC     N21079   4.448   6.585   6.725 -0.1150 -0.6774 -0.2991
  184POPC   C1221080   4.506   6.571   6.588  0.7526  0.3461 -0.1563
  184POPC  H12A21081   4.572   6.654   6.567  1.6622  0.0304  1.3175
  184POPC  H12B21082   4.426   6.567   6.516  0.9913 -0.2549 -0.3977
  184POPC   C1321083   4.554   6.603   6.833 -0.7899 -0.0169 -0.3358
  184POPC  H13A21084   4.623   6.684   6.814  0.7391 -1.1979 -0.0011
  184POPC  H13B21085   4.520   6.618   6.934 -1.4302  1.2831 -0.7257
  184POPC  H13C21086   4.598   6.505   6.844 -0.1428  0.2990 -0.0321
  184POPC   C1421087   4.379   6.711   6.733 -0.1856  0.0479  0.7760
  184POPC  H14A21088   4.300   6.717   6.660  1.2692  2.5839 -0.7448
  184POPC  H14B21089   4.345   6.751   6.828 -1.5961 -0.4735  0.5228
  184POPC  H14C21090   4.441   6.787   6.689  0.3229 -0.8458 -0.0775
  184POPC   C1521091   4.358   6.481   6.770  0.9298  0.5820  0.0670
  184POPC  H15A21092   4.267   6.471   6.712  0.0659 -0.5304  1.5559
  184POPC  H15B21093   4.331   6.502   6.873  1.9307  3.0583 -0.1030
  184POPC  H15C21094   4.411   6.388   6.777  1.7349  1.1118  1.2650
  184POPC   C1121095   4.593   6.449   6.554  0.4582 -0.1133  0.8565
  184POPC  H11A21096   4.682   6.457   6.620  2.3088 -1.2553 -1.3519
  184POPC  H11B21097   4.637   6.444   6.451 -0.9642 -3.5174  0.2758
  184POPC     P21098   4.538   6.194   6.512  0.2323 -0.3982  0.2014
  184POPC   O1321099   4.426   6.108   6.563  0.0492  0.2434 -0.5205
  184POPC   O1421100   4.675   6.144   6.535  0.1679  0.1252  0.0995
  184POPC   O1221101   4.520   6.331   6.579  0.1401 -0.7887 -0.1600
  184POPC   O1121102   4.518   6.224   6.359  0.0190 -0.5894  0.1734
  184POPC    C121103   4.479   6.121   6.266 -0.2741  0.1470 -0.2254
  184POPC    HA21104   4.448   6.174   6.174 -0.3177  0.9552  0.2343
  184POPC    HB21105   4.385   6.076   6.303  0.6026 -0.6200  1.1748
  184POPC    C221106   4.583   6.024   6.228 -0.5194 -0.4254 -0.5630
  184POPC    HS21107   4.620   5.990   6.328 -1.0079  0.7811  0.0468
  184POPC   O2121108   4.692   6.084   6.158  0.7036  0.4825 -0.6759
  184POPC   C2121109   4.802   6.013   6.167  0.1962 -0.0987  0.0559
  184POPC   O2221110   4.820   5.914   6.236  0.6164 -0.2993 -1.0344
  184POPC   C2221111   4.912   6.093   6.097  0.1897  1.1608 -0.1073
  184POPC   H2R21112   4.942   6.174   6.167 -2.1686  2.2007 -0.1825
  184POPC   H2S21113   4.868   6.136   6.005 -0.9882  0.5688  0.1591
  184POPC    C321114   4.525   5.900   6.150  0.4268 -0.2503  0.0870
  184POPC    HX21115   4.435   5.859   6.198  0.0117 -0.7677 -1.0967
  184POPC    HY21116   4.598   5.817   6.144 -0.4083 -1.3137  3.1173
  184POPC   O3121117   4.479   5.946   6.018 -0.1370  0.4756  0.0644
  184POPC   C3121118   4.562   5.934   5.916 -0.7087  0.0717  0.4947
  184POPC   O3221119   4.673   5.885   5.923  0.0039 -0.0344 -0.1853
  184POPC   C3221120   4.499   5.988   5.791 -0.5636  0.0107 -0.4731
  184POPC   H2X21121   4.443   6.080   5.819 -0.7164 -0.0641 -0.5297
  184POPC   H2Y21122   4.431   5.913   5.746  1.8862 -1.3619 -2.1183
  184POPC   C2321123   5.027   5.996   6.059 -0.1133 -0.1219 -0.3369
  184POPC   H3R21124   4.981   5.932   5.981 -1.4706 -0.7325  0.9097
  184POPC   H3S21125   5.050   5.926   6.143 -0.4858 -2.6746 -2.2462
  184POPC   C2421126   5.158   6.049   5.998 -0.0994 -0.2625  0.0914
  184POPC   H4R21127   5.192   6.141   6.049 -3.8870  1.2799  0.1636
  184POPC   H4S21128   5.133   6.072   5.892 -0.5911  2.0823  0.6730
  184POPC   C2521129   5.277   5.946   6.009  0.2134 -0.7929 -0.0132
  184POPC   H5R21130   5.265   5.861   5.939  1.1470  0.2610 -1.5479
  184POPC   H5S21131   5.273   5.914   6.115 -1.2339  2.5948  1.1121
  184POPC   C2621132   5.411   6.009   5.974  0.2976  0.2360  0.5896
  184POPC   H6R21133   5.405   6.114   6.011 -1.6715  0.3640 -0.0028
  184POPC   H6S21134   5.430   6.013   5.865  2.3569  0.2660  0.9001
  184POPC   C2721135   5.523   5.943   6.037 -0.2616 -0.2104 -0.4160
  184POPC   H7R21136   5.501   5.924   6.144 -1.2188 -0.7087 -0.6952
  184POPC   H7S21137   5.605   6.018   6.044 -0.8972  0.4760 -0.1642
  184POPC   C2821138   5.579   5.824   5.965 -0.7157  0.5748 -0.8298
  184POPC   H8R21139   5.621   5.871   5.873 -0.6704  2.4546  0.0948
  184POPC   H8S21140   5.489   5.773   5.924  0.5100 -2.4886  0.0550
  184POPC   C2921141   5.688   5.738   6.043 -0.0439  0.5518 -0.9987
  184POPC   H9121142   5.655   5.695   6.138  1.2652  1.0502 -0.2943
  184POPC  C21021143   5.809   5.699   6.000 -0.4523 -0.0047  0.3501
  184POPC  H10121144   5.847   5.626   6.073 -1.9162 -0.4644  0.6657
  184POPC  C21121145   5.900   5.726   5.880  0.2846  0.1406  0.6860
  184POPC  H11R21146   6.004   5.748   5.912  0.2824  1.0774  0.0715
  184POPC  H11S21147   5.864   5.825   5.846  1.8936  0.0306 -1.5644
  184POPC  C21221148   5.897   5.633   5.760  0.2983 -0.1738  0.3786
  184POPC  H12R21149   5.799   5.649   5.711  0.1467  0.8360  0.9832
  184POPC  H12S21150   5.917   5.531   5.799  0.1175 -0.1763  0.4628
  184POPC  C21321151   5.988   5.676   5.638 -1.9696 -0.8836  0.3009
  184POPC  H13R21152   5.972   5.607   5.553 -2.5813  1.2661 -1.4426
  184POPC  H13S21153   6.089   5.665   5.683 -0.7407 -1.0671 -2.3252
  184POPC  C21421154   5.965   5.822   5.600 -0.1614  0.5705 -0.1527
  184POPC  H14R21155   6.025   5.889   5.666 -0.9720 -1.3759  2.6934
  184POPC  H14S21156   5.862   5.862   5.611 -0.5098 -0.7255  1.6311
  184POPC  C21521157   6.005   5.846   5.451 -0.6952 -0.3800  0.7926
  184POPC  H15R21158   5.944   5.785   5.380  0.0560  0.8657 -0.9702
  184POPC  H15S21159   6.110   5.810   5.445 -0.1143  1.2660  0.6280
  184POPC  C21621160   6.007   5.994   5.412 -0.7165 -1.3699 -0.4403
  184POPC  H16R21161   6.096   6.050   5.448 -3.1277  0.2524  3.7521
  184POPC  H16S21162   5.927   6.039   5.475 -0.7442  0.4221 -1.7053
  184POPC  C21721163   5.964   6.047   5.273 -0.0392 -0.0281 -0.3304
  184POPC  H17R21164   5.942   6.156   5.279 -0.3821 -0.1651  1.4865
  184POPC  H17S21165   5.866   5.997   5.259 -0.2503  0.0715  0.6972
  184POPC  C21821166   6.055   6.015   5.160  0.2940 -0.1905 -0.1425
  184POPC  H18R21167   6.060   5.907   5.135  1.6639 -0.0147 -0.7007
  184POPC  H18S21168   6.155   6.055   5.186 -0.2160  0.3280  1.1467
  184POPC  H18T21169   6.007   6.071   5.076  0.4056  1.0616  0.6020
  184POPC   C3321170   4.603   6.010   5.677 -0.4485 -0.3417  0.2239
  184POPC   H3X21171   4.699   6.039   5.725 -0.3342  1.9084 -1.2042
  184POPC   H3Y21172   4.577   6.092   5.606  0.5077  0.1076  0.3699
  184POPC   C3421173   4.649   5.898   5.585 -0.2423 -0.2881 -0.3450
  184POPC   H4X21174   4.596   5.804   5.609 -2.5623  0.6054 -1.5274
  184POPC   H4Y21175   4.759   5.892   5.592 -0.2461  0.6662  1.0414
  184POPC   C3521176   4.612   5.942   5.441 -0.1372 -0.1957  0.9380
  184POPC   H5X21177   4.668   6.033   5.412 -0.5168  0.3348  1.8332
  184POPC   H5Y21178   4.502   5.945   5.433 -0.1585 -0.3821  1.1614
  184POPC   C3621179   4.653   5.838   5.336 -0.4117  0.0714 -0.8918
  184POPC   H6X21180   4.619   5.738   5.370 -0.8628  0.9426  1.4510
  184POPC   H6Y21181   4.763   5.826   5.338 -0.6521 -3.6663 -2.1419
  184POPC   C3721182   4.596   5.864   5.195  0.6439 -0.0268  0.0910
  184POPC   H7X21183   4.640   5.958   5.155 -1.2960  0.4100 -1.1747
  184POPC   H7Y21184   4.488   5.886   5.209  0.7890 -0.6270  2.7165
  184POPC   C3821185   4.637   5.749   5.096 -0.4273 -0.4062 -0.1678
  184POPC   H8X21186   4.625   5.650   5.145  2.3462  0.4587  2.6011
  184POPC   H8Y21187   4.746   5.768   5.091 -0.1410 -1.4546  1.4409
  184POPC   C3921188   4.549   5.749   4.970  0.3795  0.5976  0.8784
  184POPC   H9X21189   4.564   5.840   4.907 -0.2749  1.2554  1.6494
  184POPC   H9Y21190   4.443   5.724   4.990  0.7455 -1.3125  0.6441
  184POPC  C31021191   4.594   5.641   4.866  0.5154  0.4742 -0.5716
  184POPC  H10X21192   4.507   5.625   4.799 -0.0748  0.8131  0.0886
  184POPC  H10Y21193   4.616   5.547   4.921  1.1583 -1.0943 -3.3315
  184POPC  C31121194   4.717   5.667   4.778 -0.0858 -0.0185  0.7486
  184POPC  H11X21195   4.800   5.686   4.850  0.7279  2.6510 -0.7493
  184POPC  H11Y21196   4.704   5.766   4.731 -0.5061  1.1443  3.1780
  184POPC  C31221197   4.748   5.557   4.682 -0.3158 -0.2346 -0.5041
  184POPC  H12X21198   4.652   5.507   4.655 -0.9715  0.3594  0.6027
  184POPC  H12Y21199   4.816   5.480   4.725 -2.1969 -1.3174  0.7257
  184POPC  C31321200   4.827   5.605   4.564 -0.3561 -0.4149  0.1765
  184POPC  H13X21201   4.930   5.640   4.588 -0.1892 -0.4004 -0.5129
  184POPC  H13Y21202   4.774   5.692   4.521 -1.3409 -1.9838 -1.9818
  184POPC  C31421203   4.832   5.500   4.448 -0.3501  0.3282  0.4327
  184POPC  H14X21204   4.878   5.552   4.361 -0.0984  0.3584  0.5834
  184POPC  H14Y21205   4.730   5.460   4.430  0.3705 -1.9478  1.0943
  184POPC  C31521206   4.915   5.381   4.485 -0.5296  0.2076  0.1953
  184POPC  H15X21207   4.855   5.309   4.546 -1.9299  2.1177  1.1703
  184POPC  H15Y21208   4.998   5.411   4.552 -1.4886  2.8924  0.3062
  184POPC  C31621209   4.972   5.295   4.372 -0.2457 -0.6694  0.3247
  184POPC  H16X21210   5.024   5.202   4.400 -0.2744 -1.6661 -2.5696
  184POPC  H16Y21211   5.045   5.348   4.307 -0.6738  0.6264  0.8534
  184POPC  H16Z21212   4.894   5.256   4.303  1.6517  0.8098 -2.8902
  185POPC     N21213   3.124   5.084   1.753 -0.1717 -0.7522  0.3835
  185POPC   C1221214   3.200   5.025   1.630  0.2110  0.2333 -0.2483
  185POPC  H12A21215   3.304   5.011   1.655  0.4270 -1.2328 -1.8063
  185POPC  H12B21216   3.201   5.102   1.554  0.5648 -0.1880 -0.6751
  185POPC   C1321217   3.155   5.011   1.884  0.2280 -0.3056  0.8022
  185POPC  H13A21218   3.089   5.044   1.963  0.4502 -1.4451  1.4829
  185POPC  H13B21219   3.144   4.904   1.875 -0.8020 -0.1296 -0.5482
  185POPC  H13C21220   3.256   5.018   1.921 -0.0980 -2.2751  2.2153
  185POPC   C1421221   3.163   5.226   1.776 -0.5361 -0.2919 -0.2395
  185POPC  H14A21222   3.269   5.237   1.795 -0.6322 -0.1223  0.2182
  185POPC  H14B21223   3.145   5.281   1.685  0.1054 -1.3526 -1.0346
  185POPC  H14C21224   3.110   5.265   1.861  0.8447 -0.4344  0.7284
  185POPC   C1521225   2.979   5.079   1.719 -0.4909 -0.0418 -0.3092
  185POPC  H15A21226   2.959   5.139   1.631 -3.5898  0.8660  0.8388
  185POPC  H15B21227   2.914   5.124   1.793 -0.7682  2.1391 -1.7765
  185POPC  H15C21228   2.946   4.977   1.712  1.2361 -0.5658 -1.1984
  185POPC   C1121229   3.142   4.889   1.582 -0.4286 -0.1221 -0.6044
  185POPC  H11A21230   3.228   4.856   1.519  0.0950  0.0025  0.0331
  185POPC  H11B21231   3.057   4.905   1.513 -0.6408 -2.8242 -1.1033
  185POPC     P21232   3.019   4.667   1.660 -0.0739 -0.2926  0.1751
  185POPC   O1321233   3.022   4.598   1.790 -0.1235  0.5077  0.0302
  185POPC   O1421234   3.052   4.580   1.542  0.5435 -0.2273  0.0603
  185POPC   O1221235   3.119   4.791   1.680 -0.0302 -0.2413  0.4865
  185POPC   O1121236   2.881   4.739   1.637  0.7526  0.3346  0.1114
  185POPC    C121237   2.765   4.705   1.719 -0.6366 -0.9881 -0.9639
  185POPC    HA21238   2.759   4.595   1.738  0.1423 -0.8639  0.1199
  185POPC    HB21239   2.672   4.745   1.674 -0.8623 -1.4526 -0.9172
  185POPC    C221240   2.759   4.780   1.862 -0.4921  0.5937 -0.7307
  185POPC    HS21241   2.825   4.869   1.864  1.2936 -0.6421 -1.5890
  185POPC   O2121242   2.792   4.687   1.965 -0.3589 -0.6353  0.1286
  185POPC   C2121243   2.900   4.709   2.037 -0.3574  0.5618 -0.1738
  185POPC   O2221244   2.969   4.808   2.032  0.0033  0.0763  0.3923
  185POPC   C2221245   2.910   4.609   2.148  0.1017 -0.2283 -0.6238
  185POPC   H2R21246   2.940   4.515   2.098 -1.6791 -0.0748 -2.0701
  185POPC   H2S21247   2.811   4.602   2.197 -0.5720  2.0626 -1.5250
  185POPC    C321248   2.613   4.824   1.883 -0.1150 -0.5622  0.0473
  185POPC    HX21249   2.542   4.739   1.889  0.9005 -1.3859  0.7927
  185POPC    HY21250   2.579   4.887   1.799  1.5644  0.0011 -0.2417
  185POPC   O3121251   2.601   4.892   2.015  0.5956  0.5870  0.4995
  185POPC   C3121252   2.625   5.021   2.013  0.6022 -0.0789  0.3754
  185POPC   O3221253   2.646   5.091   1.915 -0.3706  0.5532 -0.0097
  185POPC   C3221254   2.602   5.080   2.152 -0.3377 -0.2201  0.9024
  185POPC   H2X21255   2.687   5.046   2.215 -0.7825 -0.6582  1.2678
  185POPC   H2Y21256   2.515   5.024   2.191 -1.0239 -0.2278 -0.5565
  185POPC   C2321257   3.021   4.639   2.249 -0.6925  0.2514 -0.7392
  185POPC   H3R21258   3.006   4.731   2.309  0.3438 -0.5396  0.8216
  185POPC   H3S21259   3.117   4.637   2.193 -1.1125 -0.5494 -1.4574
  185POPC   C2421260   3.041   4.519   2.338  0.4021 -0.4449  0.4402
  185POPC   H4R21261   3.049   4.420   2.289  0.3485 -1.7955  2.9495
  185POPC   H4S21262   2.946   4.518   2.396 -0.8953  3.8536 -1.1932
  185POPC   C2521263   3.153   4.541   2.444 -0.3521  0.9233  0.4995
  185POPC   H5R21264   3.139   4.630   2.508  4.1963  1.7330  0.6953
  185POPC   H5S21265   3.251   4.548   2.393 -0.6834 -0.7688 -0.4637
  185POPC   C2621266   3.161   4.419   2.540 -0.0502  0.0194  0.4549
  185POPC   H6R21267   3.182   4.336   2.468 -1.6306  0.3747 -0.4470
  185POPC   H6S21268   3.067   4.399   2.597 -0.9768 -1.9932 -1.6147
  185POPC   C2721269   3.283   4.427   2.639  0.1612 -0.3345 -0.1452
  185POPC   H7R21270   3.261   4.510   2.710  0.6860 -0.9149  0.7143
  185POPC   H7S21271   3.375   4.446   2.581  0.5139  1.6659  0.9996
  185POPC   C2821272   3.301   4.311   2.733  0.1179 -0.3047  0.3581
  185POPC   H8R21273   3.325   4.217   2.678  0.0228 -0.5657  0.7563
  185POPC   H8S21274   3.212   4.295   2.797 -0.1806 -0.6115 -0.1288
  185POPC   C2921275   3.428   4.336   2.809  0.3274 -0.5586  0.2066
  185POPC   H9121276   3.521   4.362   2.756  0.1505 -0.3412 -0.0019
  185POPC  C21021277   3.436   4.344   2.942 -0.2217 -0.4012 -0.4202
  185POPC  H10121278   3.536   4.353   2.989 -1.0437 -1.7752  1.7374
  185POPC  C21121279   3.334   4.324   3.047 -0.4721 -0.0929 -0.4462
  185POPC  H11R21280   3.288   4.224   3.032  0.5690 -0.6420 -0.1166
  185POPC  H11S21281   3.259   4.406   3.038 -1.6990 -1.3159 -1.8987
  185POPC  C21221282   3.390   4.326   3.189 -0.2054  1.0791  0.0753
  185POPC  H12R21283   3.489   4.278   3.201 -1.5356 -1.9002  0.0118
  185POPC  H12S21284   3.324   4.261   3.251 -1.9107  0.7703 -1.9462
  185POPC  C21321285   3.396   4.469   3.250 -0.1276 -0.1695  0.7510
  185POPC  H13R21286   3.305   4.528   3.228  1.4968  1.3563 -2.5269
  185POPC  H13S21287   3.473   4.526   3.193 -1.3904  1.4020  0.5348
  185POPC  C21421288   3.412   4.468   3.399 -0.5032  0.0807 -0.0495
  185POPC  H14R21289   3.516   4.443   3.427 -0.1715  1.7840  0.2901
  185POPC  H14S21290   3.335   4.404   3.448 -1.7322  1.4542 -0.1210
  185POPC  C21521291   3.377   4.596   3.464  0.1869  0.5133 -0.0268
  185POPC  H15R21292   3.273   4.625   3.437 -0.4597 -0.3750  1.4143
  185POPC  H15S21293   3.440   4.670   3.411 -0.4450  1.4978  0.5646
  185POPC  C21621294   3.392   4.594   3.620 -0.0142 -0.4521  0.6539
  185POPC  H16R21295   3.499   4.576   3.643 -0.2085 -2.3646  0.2880
  185POPC  H16S21296   3.329   4.508   3.655 -1.1752 -2.0360 -4.4204
  185POPC  C21721297   3.356   4.722   3.681  0.7585 -0.2334  0.7580
  185POPC  H17R21298   3.375   4.719   3.791 -0.2843 -2.0881  0.9272
  185POPC  H17S21299   3.248   4.742   3.663  0.5430 -3.4249 -2.6272
  185POPC  C21821300   3.433   4.837   3.620  0.2304 -0.1682  0.3347
  185POPC  H18R21301   3.540   4.806   3.623  0.4002  0.4456  2.3675
  185POPC  H18S21302   3.411   4.932   3.674 -0.0320  0.4512 -0.8190
  185POPC  H18T21303   3.413   4.849   3.511 -0.3239 -1.3073  0.2912
  185POPC   C3321304   2.590   5.238   2.138  0.0454  0.2410  0.4401
  185POPC   H3X21305   2.516   5.266   2.060  1.3958  0.2982 -0.8669
  185POPC   H3Y21306   2.695   5.268   2.115 -0.1387 -0.0516 -0.8547
  185POPC   C3421307   2.556   5.303   2.274 -0.1411 -0.1039  1.2239
  185POPC   H4X21308   2.459   5.261   2.308  0.0066 -1.3307  0.1978
  185POPC   H4Y21309   2.542   5.411   2.252  2.9797 -0.1818 -2.0662
  185POPC   C3521310   2.650   5.279   2.386  0.5841 -0.8531  0.3064
  185POPC   H5X21311   2.747   5.333   2.387 -0.2408  0.9786  4.7476
  185POPC   H5Y21312   2.669   5.169   2.394 -1.1880 -1.4311 -2.2178
  185POPC   C3621313   2.575   5.335   2.511  0.1571 -0.7366 -0.1884
  185POPC   H6X21314   2.492   5.265   2.534 -1.2249  1.6094  2.7495
  185POPC   H6Y21315   2.537   5.438   2.495 -0.5223 -1.1267 -1.1543
  185POPC   C3721316   2.653   5.339   2.641 -0.1059  0.5906  0.0585
  185POPC   H7X21317   2.751   5.389   2.633 -1.4813  3.5931  0.5818
  185POPC   H7Y21318   2.672   5.232   2.666  0.2736  0.1704 -1.8733
  185POPC   C3821319   2.592   5.412   2.758  0.5409 -0.1043 -0.1709
  185POPC   H8X21320   2.482   5.406   2.748  0.3557  1.9207  0.1762
  185POPC   H8Y21321   2.616   5.516   2.728 -0.1398 -0.0013 -0.3720
  185POPC   C3921322   2.648   5.375   2.896 -0.0894  0.3453 -0.4880
  185POPC   H9X21323   2.751   5.410   2.918 -0.1310  0.2690 -0.1746
  185POPC   H9Y21324   2.649   5.264   2.903  1.6693  0.4348  1.9533
  185POPC  C31021325   2.554   5.425   3.009  0.3247  0.3285  0.3586
  185POPC  H10X21326   2.452   5.391   2.982  0.6392 -1.2612  1.0096
  185POPC  H10Y21327   2.560   5.535   2.999  0.5662  0.2581 -0.3621
  185POPC  C31121328   2.583   5.381   3.145 -0.1952  0.6970  0.2248
  185POPC  H11X21329   2.686   5.391   3.187  1.2259 -2.4759 -2.0438
  185POPC  H11Y21330   2.560   5.272   3.148 -0.7738  0.8290  2.9210
  185POPC  C31221331   2.475   5.435   3.241 -0.9039  0.4381  0.7755
  185POPC  H12X21332   2.369   5.410   3.218 -0.6036 -0.2819  0.1243
  185POPC  H12Y21333   2.479   5.546   3.234 -0.0790  0.4409  1.2377
  185POPC  C31321334   2.510   5.391   3.389 -0.1616 -0.2900 -0.3060
  185POPC  H13X21335   2.615   5.423   3.407 -0.0066 -1.1579  0.4411
  185POPC  H13Y21336   2.509   5.282   3.407 -1.2147 -0.2666 -0.1534
  185POPC  C31421337   2.410   5.446   3.493 -0.2523  0.4149  0.1668
  185POPC  H14X21338   2.420   5.384   3.585  1.0365  1.2308  0.5991
  185POPC  H14Y21339   2.304   5.429   3.464  0.0003 -0.7535 -0.1243
  185POPC  C31521340   2.429   5.593   3.510 -0.2117 -0.0072 -0.5459
  185POPC  H15X21341   2.386   5.649   3.425 -0.4464  2.8120  1.2965
  185POPC  H15Y21342   2.540   5.604   3.518 -0.4388  1.0739  3.0471
  185POPC  C31621343   2.362   5.636   3.643 -0.8208  0.0591  1.1029
  185POPC  H16X21344   2.254   5.613   3.646 -1.1799  1.3707 -0.4451
  185POPC  H16Y21345   2.369   5.746   3.645 -1.8810  0.1532  0.2259
  185POPC  H16Z21346   2.422   5.594   3.727  1.3617  1.1063  0.1393
  186POPC     N21347   0.942   2.534   2.017 -0.0524 -0.0289  0.0008
  186POPC   C1221348   0.961   2.507   2.164  0.0644  0.3626 -0.0630
  186POPC  H12A21349   1.028   2.574   2.215  1.0962 -0.5788 -0.1448
  186POPC  H12B21350   1.013   2.413   2.178  0.1443  0.4998  0.5780
  186POPC   C1321351   1.061   2.490   1.943 -0.6856  0.5196  0.2050
  186POPC  H13A21352   1.072   2.527   1.842  1.7628 -3.3642 -1.2032
  186POPC  H13B21353   1.153   2.506   1.998 -0.4801 -1.2265  0.4547
  186POPC  H13C21354   1.068   2.382   1.935  1.4984  0.7367 -1.7929
  186POPC   C1421355   0.813   2.472   1.956 -1.1395  0.4974 -0.0912
  186POPC  H14A21356   0.803   2.480   1.849  0.1176  0.1877 -0.2498
  186POPC  H14B21357   0.820   2.366   1.974  0.1859  0.5375 -0.2625
  186POPC  H14C21358   0.728   2.517   2.005 -1.0195 -0.3269  0.9028
  186POPC   C1521359   0.934   2.680   2.004 -0.0844 -0.4369  0.5725
  186POPC  H15A21360   0.846   2.714   2.057  0.9834  1.9164  0.9559
  186POPC  H15B21361   0.921   2.714   1.902  2.5441 -0.4751  0.1763
  186POPC  H15C21362   1.017   2.735   2.045 -0.3820  1.2268 -0.8954
  186POPC   C1121363   0.834   2.486   2.251  0.2552 -0.2178  0.4358
  186POPC  H11A21364   0.862   2.457   2.355  1.9633 -0.3334 -0.0158
  186POPC  H11B21365   0.779   2.395   2.218 -0.4466 -0.6114  2.4801
  186POPC     P21366   0.733   2.720   2.324 -0.2934  0.1815  0.1960
  186POPC   O1321367   0.615   2.800   2.294 -0.4847  0.3636  0.7716
  186POPC   O1421368   0.862   2.798   2.321 -0.3617  0.2681  0.3522
  186POPC   O1221369   0.739   2.588   2.240  0.5717 -0.0802  0.1084
  186POPC   O1121370   0.722   2.651   2.470  0.2178  0.0091 -0.0400
  186POPC    C121371   0.608   2.568   2.496 -0.2699 -0.7740 -0.1068
  186POPC    HA21372   0.647   2.491   2.566  1.3178  0.4325  0.3811
  186POPC    HB21373   0.570   2.519   2.404 -1.4382 -0.4547  0.1916
  186POPC    C221374   0.494   2.642   2.566  1.1081 -0.2875 -0.2968
  186POPC    HS21375   0.457   2.722   2.498  1.8944 -0.6455 -1.1850
  186POPC   O2121376   0.541   2.699   2.687  0.0255  0.1310 -0.0160
  186POPC   C2121377   0.445   2.770   2.742 -0.7695 -0.2617  0.1873
  186POPC   O2221378   0.343   2.812   2.693  0.5436 -0.2605 -0.2538
  186POPC   C2221379   0.482   2.799   2.887 -0.0059  0.4630  1.1519
  186POPC   H2R21380   0.579   2.853   2.883 -0.0867  0.5370 -0.3475
  186POPC   H2S21381   0.497   2.699   2.932 -0.3487  0.2312  0.7551
  186POPC    C321382   0.382   2.544   2.584  0.6910  0.9333 -0.2094
  186POPC    HX21383   0.360   2.484   2.493 -1.7075 -0.1703  1.0093
  186POPC    HY21384   0.283   2.589   2.607  0.1391  0.7665 -2.0739
  186POPC   O3121385   0.419   2.460   2.690  0.5852  0.3267  0.4964
  186POPC   C3121386   0.344   2.356   2.705  0.1699 -0.5109  0.1949
  186POPC   O3221387   0.257   2.326   2.622  0.2258  0.8893  0.0450
  186POPC   C3221388   0.392   2.267   2.819  0.6855  0.1595 -0.1436
  186POPC   H2X21389   0.362   2.317   2.914 -2.2396 -0.7856 -0.4658
  186POPC   H2Y21390   0.502   2.253   2.814  0.7606  0.4575  0.4904
  186POPC   C2321391   0.380   2.885   2.960  0.5291  0.1142 -0.3435
  186POPC   H3R21392   0.297   2.814   2.980  1.4084 -1.0557 -0.7630
  186POPC   H3S21393   0.352   2.975   2.901 -0.5767 -0.3142 -0.5043
  186POPC   C2421394   0.437   2.936   3.099 -0.0038  0.7727  1.1511
  186POPC   H4R21395   0.502   3.023   3.078 -1.0082  1.1055 -0.8829
  186POPC   H4S21396   0.509   2.859   3.132  0.8863  0.3321 -1.5613
  186POPC   C2521397   0.339   2.949   3.214 -0.2159  0.5493 -0.2373
  186POPC   H5R21398   0.233   2.968   3.185  0.1128  2.4890 -0.2959
  186POPC   H5S21399   0.379   3.037   3.268 -0.3706  0.1352  0.5659
  186POPC   C2621400   0.338   2.832   3.315 -0.1977 -0.3840  0.5255
  186POPC   H6R21401   0.431   2.845   3.374  0.1181 -0.6848  0.1058
  186POPC   H6S21402   0.335   2.738   3.256  0.6192  0.4598 -0.9209
  186POPC   C2721403   0.217   2.841   3.408 -0.6271 -0.4532  0.1637
  186POPC   H7R21404   0.238   2.762   3.484 -0.2377 -1.9439 -1.4407
  186POPC   H7S21405   0.119   2.819   3.361 -0.3597 -0.0316 -0.5980
  186POPC   C2821406   0.199   2.974   3.485  0.3092  0.8386  0.3971
  186POPC   H8R21407   0.202   3.057   3.411  0.0164 -0.5855 -1.2858
  186POPC   H8S21408   0.292   2.990   3.543  0.8143 -0.6284  0.0323
  186POPC   C2921409   0.061   2.966   3.560 -0.3329  0.8196 -0.0974
  186POPC   H9121410  -0.030   2.978   3.499 -0.4061 -0.1924 -0.2037
  186POPC  C21021411   0.039   2.943   3.697 -0.3437 -0.3714  0.1537
  186POPC  H10121412  -0.065   2.948   3.733 -0.0196 -0.7799  1.1661
  186POPC  C21121413   0.133   2.924   3.809 -0.1921 -0.8444 -0.3110
  186POPC  H11R21414   0.236   2.896   3.778  0.3135  0.7563 -0.1849
  186POPC  H11S21415   0.091   2.835   3.860 -1.4105  0.1571  0.5048
  186POPC  C21221416   0.140   3.045   3.911 -0.0486 -0.8844 -0.0215
  186POPC  H12R21417   0.193   3.134   3.870 -1.5314  0.7468  1.3754
  186POPC  H12S21418   0.200   3.017   3.999 -3.1768 -2.1209  1.8986
  186POPC  C21321419   0.002   3.090   3.960  0.2800  0.2966 -0.0337
  186POPC  H13R21420  -0.041   2.995   3.998  1.7645 -0.5720 -0.4421
  186POPC  H13S21421  -0.057   3.125   3.873 -1.5085 -0.1287  0.9534
  186POPC  C21421422   0.009   3.205   4.062 -0.8683  0.0084  0.6150
  186POPC  H14R21423   0.077   3.286   4.027  0.6311 -1.6199 -0.3995
  186POPC  H14S21424   0.055   3.160   4.152  1.4800  0.0094 -0.5066
  186POPC  C21521425  -0.125   3.257   4.112 -0.1994 -0.4162  0.5817
  186POPC  H15R21426  -0.195   3.176   4.142  0.3275 -2.0951 -2.3081
  186POPC  H15S21427  -0.172   3.292   4.017 -0.9204  0.0814  1.1126
  186POPC  C21621428  -0.110   3.371   4.208  0.2464 -0.0894 -0.1786
  186POPC  H16R21429  -0.035   3.446   4.175 -1.1502  1.9963  1.1520
  186POPC  H16S21430  -0.088   3.337   4.311  0.8568  1.7407  0.3177
  186POPC  C21721431  -0.248   3.451   4.221  0.2175 -0.2178  0.3769
  186POPC  H17R21432  -0.278   3.462   4.115  3.0916 -0.1803 -0.5080
  186POPC  H17S21433  -0.231   3.546   4.275 -0.3775  0.2202 -0.1964
  186POPC  C21821434  -0.348   3.361   4.301  0.2424 -0.1289 -0.2264
  186POPC  H18R21435  -0.370   3.267   4.245  0.4920 -0.0530 -0.4483
  186POPC  H18S21436  -0.311   3.335   4.402 -3.2099 -0.0339  1.2260
  186POPC  H18T21437  -0.437   3.426   4.319  1.3245  0.7258  2.5367
  186POPC   C3321438   0.316   2.130   2.814 -0.2140 -0.0607 -0.0349
  186POPC   H3X21439   0.349   2.092   2.715  2.0428  1.1404  0.1921
  186POPC   H3Y21440   0.205   2.131   2.808 -0.2718 -1.3141  0.5144
  186POPC   C3421441   0.355   2.023   2.929 -0.1668 -0.3245  0.5770
  186POPC   H4X21442   0.466   2.015   2.928  0.1928  2.2696  3.6008
  186POPC   H4Y21443   0.317   1.920   2.913 -0.2577 -0.4412  1.4965
  186POPC   C3521444   0.316   2.064   3.065  0.2175  0.5639 -1.1923
  186POPC   H5X21445   0.211   2.099   3.059  0.4024  1.9198  1.6894
  186POPC   H5Y21446   0.381   2.151   3.090 -0.4357  0.9571 -0.8458
  186POPC   C3621447   0.326   1.952   3.168 -0.2540 -0.1518 -0.3759
  186POPC   H6X21448   0.426   1.904   3.175 -0.3935 -0.3027  0.7195
  186POPC   H6Y21449   0.261   1.868   3.136  0.3120 -0.8406  0.2475
  186POPC   C3721450   0.274   2.003   3.306 -0.5638 -0.5871 -0.2167
  186POPC   H7X21451   0.177   2.051   3.281  1.8218  4.1567 -1.4219
  186POPC   H7Y21452   0.341   2.083   3.342 -1.3820 -0.3851  0.9068
  186POPC   C3821453   0.273   1.896   3.415  1.0079  0.4764  0.5727
  186POPC   H8X21454   0.355   1.822   3.397  0.7624  0.6831 -1.6579
  186POPC   H8Y21455   0.175   1.845   3.409  0.4518  1.4783  0.9239
  186POPC   C3921456   0.293   1.971   3.549  0.2940 -0.1876 -0.6125
  186POPC   H9X21457   0.204   2.036   3.562  0.3794 -0.3088  0.6892
  186POPC   H9Y21458   0.389   2.026   3.540  1.6873 -2.6006 -1.2155
  186POPC  C31021459   0.309   1.893   3.682 -0.2642  0.1422 -0.0472
  186POPC  H10X21460   0.334   1.958   3.768 -0.2216 -2.6592  2.2318
  186POPC  H10Y21461   0.392   1.821   3.662 -0.7882 -1.3591  2.7164
  186POPC  C31121462   0.182   1.825   3.738 -0.6757  0.3742  0.2056
  186POPC  H11X21463   0.175   1.722   3.696 -0.4742  1.0076 -1.4258
  186POPC  H11Y21464   0.089   1.883   3.720  0.8296  3.3334  1.3604
  186POPC  C31221465   0.184   1.793   3.890  0.3358  0.1527 -0.2957
  186POPC  H12X21466   0.165   1.883   3.951  1.8023  0.1865  0.1299
  186POPC  H12Y21467   0.287   1.753   3.902 -0.0650 -1.1008 -0.8190
  186POPC  C31321468   0.089   1.687   3.944  0.9514 -0.6040  0.1197
  186POPC  H13X21469   0.108   1.662   4.050 -0.4597  0.6620  0.6972
  186POPC  H13Y21470   0.117   1.596   3.885 -1.0254 -1.6496  0.7172
  186POPC  C31421471  -0.058   1.719   3.923  0.1788  0.4021 -0.0379
  186POPC  H14X21472  -0.079   1.700   3.815  0.5265 -0.4471  0.0409
  186POPC  H14Y21473  -0.089   1.824   3.944 -0.7578  0.0240  0.5418
  186POPC  C31521474  -0.149   1.617   3.998 -0.7974 -0.3558  0.6872
  186POPC  H15X21475  -0.254   1.642   3.970  0.0192  1.3396 -1.0930
  186POPC  H15Y21476  -0.138   1.615   4.108 -0.3253 -3.7513  0.6843
  186POPC  C31621477  -0.114   1.473   3.958 -0.1428 -0.6889 -0.3251
  186POPC  H16X21478  -0.200   1.405   3.978 -1.0752  0.1944 -1.2535
  186POPC  H16Y21479  -0.024   1.437   4.013 -1.0324 -1.5584  0.6064
  186POPC  H16Z21480  -0.091   1.465   3.850  1.5041 -1.2022  0.0304
  187POPC     N21481   0.710   4.628   1.736  0.5360 -0.0979 -0.2749
  187POPC   C1221482   0.628   4.652   1.870  0.0386 -0.5527  0.1388
  187POPC  H12A21483   0.559   4.733   1.850 -1.0748 -1.3738  0.5352
  187POPC  H12B21484   0.689   4.693   1.949 -0.0016 -1.6688  0.7619
  187POPC   C1321485   0.629   4.568   1.631 -0.0752 -0.3414  0.0578
  187POPC  H13A21486   0.531   4.610   1.616 -1.4156 -2.2849  2.5789
  187POPC  H13B21487   0.680   4.572   1.536  0.1266 -1.6421  0.0918
  187POPC  H13C21488   0.610   4.462   1.645  0.5719 -0.8866 -2.6425
  187POPC   C1421489   0.757   4.754   1.676  0.7109  0.4624 -0.8387
  187POPC  H14A21490   0.803   4.812   1.755 -1.8464  0.6545  0.6368
  187POPC  H14B21491   0.823   4.726   1.595  0.1402  0.4339 -1.3042
  187POPC  H14C21492   0.673   4.816   1.648 -0.0301 -0.5419 -0.8977
  187POPC   C1521493   0.830   4.542   1.771  0.6004  0.2081  0.0171
  187POPC  H15A21494   0.895   4.582   1.847  1.5157  0.7359 -1.0129
  187POPC  H15B21495   0.894   4.511   1.690  2.7618 -2.5928  2.5717
  187POPC  H15C21496   0.789   4.458   1.825 -2.1244  1.8720  0.7557
  187POPC   C1121497   0.545   4.533   1.923  0.6062  0.6705 -0.1675
  187POPC  H11A21498   0.496   4.569   2.016  0.6151 -0.9865  0.5111
  187POPC  H11B21499   0.615   4.451   1.952  0.1849 -0.4769 -2.1948
  187POPC     P21500   0.392   4.343   1.852 -0.0527  0.0432 -0.2166
  187POPC   O1321501   0.505   4.254   1.890  0.1433 -0.1918 -0.0604
  187POPC   O1421502   0.309   4.308   1.736 -0.2259  0.3995  0.3033
  187POPC   O1221503   0.447   4.493   1.829 -0.3250  0.0043 -0.0526
  187POPC   O1121504   0.286   4.355   1.971 -0.1007  0.0014 -0.8141
  187POPC    C121505   0.164   4.416   1.966  0.6005  0.6538  0.2311
  187POPC    HA21506   0.091   4.339   1.932  1.2798  0.8651 -1.8605
  187POPC    HB21507   0.164   4.499   1.893 -1.0774  1.6848  1.3599
  187POPC    C221508   0.116   4.469   2.102 -0.4215  0.2051  0.2532
  187POPC    HS21509   0.192   4.535   2.149  0.1035  0.0793 -0.3930
  187POPC   O2121510   0.069   4.359   2.189  0.0515 -0.7280  1.1582
  187POPC   C2121511   0.160   4.302   2.264  0.0821 -0.1317 -0.2239
  187POPC   O2221512   0.276   4.328   2.271  0.3035 -0.3664 -0.1284
  187POPC   C2221513   0.086   4.189   2.345 -0.0524  0.7385  0.4658
  187POPC   H2R21514   0.085   4.103   2.274  0.2653  1.6580 -0.6738
  187POPC   H2S21515  -0.017   4.225   2.364 -0.0083  0.2441  1.7108
  187POPC    C321516  -0.009   4.559   2.085  0.1431  0.6191 -0.4059
  187POPC    HX21517  -0.092   4.507   2.031 -0.7424  0.8131  0.7291
  187POPC    HY21518   0.016   4.644   2.019  1.1885  1.3220  0.8552
  187POPC   O3121519  -0.060   4.621   2.206  0.2885  0.2726  0.0319
  187POPC   C3121520  -0.172   4.572   2.264 -0.3743  0.3343  0.0670
  187POPC   O3221521  -0.254   4.497   2.212  0.3347  0.1532 -0.6027
  187POPC   C3221522  -0.176   4.630   2.404  0.3263  0.2698  0.6415
  187POPC   H2X21523  -0.267   4.590   2.453 -0.2823  0.9309  0.0824
  187POPC   H2Y21524  -0.184   4.741   2.392  1.5448  0.6296  2.5995
  187POPC   C2321525   0.143   4.153   2.486  0.2049 -1.0659 -0.5080
  187POPC   H3R21526   0.248   4.117   2.484  0.0877 -1.4311 -0.0151
  187POPC   H3S21527   0.081   4.067   2.519  0.5500 -0.6242  1.3899
  187POPC   C2421528   0.109   4.259   2.599  0.6059  0.9529  0.5773
  187POPC   H4R21529   0.002   4.276   2.575  1.4350  1.0088 -4.1338
  187POPC   H4S21530   0.157   4.357   2.575 -0.0431  1.0427 -0.4105
  187POPC   C2521531   0.123   4.205   2.742  0.3799 -0.1356 -0.2669
  187POPC   H5R21532   0.233   4.205   2.756  0.3143  0.2649  0.2618
  187POPC   H5S21533   0.091   4.099   2.745 -0.0516 -0.0383 -1.2337
  187POPC   C2621534   0.070   4.284   2.862  0.4535 -0.2808 -0.0579
  187POPC   H6R21535  -0.038   4.309   2.859  0.5311  0.1599  0.5754
  187POPC   H6S21536   0.131   4.376   2.860  0.1673 -0.0679  0.6549
  187POPC   C2721537   0.091   4.212   3.003 -0.2765  0.0291  0.4874
  187POPC   H7R21538   0.195   4.173   3.004  0.9903  3.0430  3.1970
  187POPC   H7S21539   0.015   4.133   3.016  0.0795 -0.0477  2.3514
  187POPC   C2821540   0.089   4.320   3.112 -0.2630  0.5958  0.1476
  187POPC   H8R21541  -0.007   4.376   3.118  0.6883  2.1509  2.3485
  187POPC   H8S21542   0.160   4.402   3.087  0.4949 -0.6524 -2.0296
  187POPC   C2921543   0.130   4.250   3.244  0.0937 -0.5966  0.3066
  187POPC   H9121544   0.051   4.186   3.286 -0.1309 -0.7226 -0.3011
  187POPC  C21021545   0.254   4.252   3.302 -0.1978  0.5098  0.8019
  187POPC  H10121546   0.261   4.188   3.391  0.0398  0.7637  0.9653
  187POPC  C21121547   0.368   4.346   3.258  0.1055  0.4693 -0.4170
  187POPC  H11R21548   0.337   4.427   3.189 -0.8095  0.2660 -0.2656
  187POPC  H11S21549   0.448   4.294   3.202  0.6235  2.9220 -2.1095
  187POPC  C21221550   0.429   4.423   3.371 -0.0270  0.2635  0.1391
  187POPC  H12R21551   0.475   4.352   3.442 -1.4277 -1.4459 -0.5747
  187POPC  H12S21552   0.352   4.483   3.425 -0.0367  0.3629  0.0156
  187POPC  C21321553   0.526   4.529   3.314 -0.5150  0.0237  0.0054
  187POPC  H13R21554   0.470   4.589   3.239 -3.1126 -1.9632  0.2078
  187POPC  H13S21555   0.603   4.464   3.269  0.1400 -1.1916  2.6618
  187POPC  C21421556   0.574   4.624   3.420 -0.2733 -0.4097 -0.7026
  187POPC  H14R21557   0.532   4.586   3.516 -0.3885  2.1604  0.3521
  187POPC  H14S21558   0.547   4.728   3.394  1.8611 -0.2368 -2.4527
  187POPC  C21521559   0.726   4.625   3.435  0.4061  0.0088  0.2878
  187POPC  H15R21560   0.786   4.674   3.355  1.6237 -0.7733  0.6926
  187POPC  H15S21561   0.754   4.518   3.428 -2.9087 -0.8452 -2.1918
  187POPC  C21621562   0.762   4.689   3.569  0.2099 -0.3601 -0.1085
  187POPC  H16R21563   0.865   4.654   3.589  0.5739  0.9980  0.4895
  187POPC  H16S21564   0.700   4.651   3.653  0.8934 -2.6518 -0.5638
  187POPC  C21721565   0.763   4.836   3.561  0.5269  0.3795  0.5066
  187POPC  H17R21566   0.668   4.886   3.532  2.1918  3.0596 -0.6640
  187POPC  H17S21567   0.835   4.867   3.482 -2.1270 -0.4941 -2.4557
  187POPC  C21821568   0.801   4.894   3.698 -0.0458  0.2427  0.0420
  187POPC  H18R21569   0.712   4.873   3.760 -0.3906 -0.2024 -0.5863
  187POPC  H18S21570   0.821   5.003   3.691  1.2245  0.2479  2.5992
  187POPC  H18T21571   0.891   4.841   3.737  0.9256  0.7962 -1.3453
  187POPC   C3321572  -0.048   4.594   2.474  0.2809  0.1583 -0.0973
  187POPC   H3X21573   0.040   4.646   2.431 -0.0533  0.4546 -0.4351
  187POPC   H3Y21574  -0.022   4.487   2.457 -0.0142  0.0613  0.0554
  187POPC   C3421575  -0.063   4.620   2.624 -0.0678  0.0918  0.1137
  187POPC   H4X21576  -0.119   4.538   2.673  1.3072 -0.2756  1.1610
  187POPC   H4Y21577  -0.101   4.724   2.628 -0.7955 -0.1072 -1.2824
  187POPC   C3521578   0.070   4.622   2.700 -0.0356 -0.0178 -0.1153
  187POPC   H5X21579   0.125   4.709   2.658 -1.1219  0.5318 -0.4477
  187POPC   H5Y21580   0.134   4.531   2.702  0.3760  0.2460 -0.8949
  187POPC   C3621581   0.032   4.667   2.852  0.2188  0.4880  0.6109
  187POPC   H6X21582  -0.018   4.578   2.895  1.0189  0.1439  0.8541
  187POPC   H6Y21583  -0.035   4.755   2.856 -2.6545 -1.5573  0.5460
  187POPC   C3721584   0.157   4.709   2.930 -0.0158  0.6329  0.7598
  187POPC   H7X21585   0.195   4.796   2.873  1.7207  0.1636  1.1530
  187POPC   H7Y21586   0.233   4.629   2.919 -2.2363 -1.4947  0.0629
  187POPC   C3821587   0.129   4.746   3.074  0.0206 -0.0358 -0.0151
  187POPC   H8X21588   0.130   4.651   3.131 -0.2551  1.2086  2.1842
  187POPC   H8Y21589   0.034   4.805   3.075  0.1660  0.1965  0.9813
  187POPC   C3921590   0.246   4.820   3.126  0.1900 -0.4105 -0.6881
  187POPC   H9X21591   0.252   4.907   3.057 -1.6504  1.1372  1.0017
  187POPC   H9Y21592   0.337   4.756   3.123 -1.6011 -3.1187 -2.3948
  187POPC  C31021593   0.234   4.871   3.270  0.1861  0.0521 -0.0615
  187POPC  H10X21594   0.154   4.948   3.266 -0.7909 -0.8915  0.3545
  187POPC  H10Y21595   0.329   4.917   3.305  0.5652 -1.0039  0.3589
  187POPC  C31121596   0.194   4.763   3.377 -0.0664  0.4307  0.7012
  187POPC  H11X21597   0.273   4.685   3.389 -0.5898 -0.0503  1.0622
  187POPC  H11Y21598   0.105   4.706   3.344  0.5565  0.0530 -0.3720
  187POPC  C31221599   0.176   4.821   3.513  0.5646 -0.4423  0.0317
  187POPC  H12X21600   0.123   4.746   3.577  0.6341  0.2360  0.9113
  187POPC  H12Y21601   0.117   4.915   3.507  3.2193  1.3063 -0.2268
  187POPC  C31321602   0.307   4.848   3.582  0.4477 -0.7607 -0.0986
  187POPC  H13X21603   0.355   4.935   3.533 -0.3598  0.1416  0.6697
  187POPC  H13Y21604   0.368   4.756   3.586 -0.2828 -1.2717 -0.3955
  187POPC  C31421605   0.287   4.876   3.734 -0.4216 -0.3071 -0.3777
  187POPC  H14X21606   0.213   4.803   3.775 -1.4591  0.5355 -0.7133
  187POPC  H14Y21607   0.243   4.977   3.744  0.5502  0.1978 -1.1556
  187POPC  C31521608   0.402   4.858   3.828 -0.2925  0.0106 -0.1572
  187POPC  H15X21609   0.481   4.932   3.802  0.8688 -1.0323  0.3162
  187POPC  H15Y21610   0.443   4.756   3.817  0.5509  0.0165  2.4512
  187POPC  C31621611   0.363   4.868   3.977 -0.6709  0.0379  1.0589
  187POPC  H16X21612   0.452   4.864   4.043 -0.5299 -1.4473  0.8082
  187POPC  H16Y21613   0.296   4.783   4.003  1.1366 -1.7623  0.0762
  187POPC  H16Z21614   0.315   4.965   4.005 -2.4320 -0.6533  0.5612
  188POPC     N21615   1.858   2.592   1.862  0.7453 -0.0866  0.2776
  188POPC   C1221616   1.994   2.575   1.917 -0.4185 -0.3227 -0.2963
  188POPC  H12A21617   2.060   2.634   1.855  0.7320 -0.6239  0.6182
  188POPC  H12B21618   2.028   2.473   1.908  1.6135  0.2745  0.1186
  188POPC   C1321619   1.827   2.736   1.823  0.5053 -0.4792  0.6865
  188POPC  H13A21620   1.803   2.795   1.911  0.3241 -0.4190  0.5976
  188POPC  H13B21621   1.914   2.777   1.773 -0.6575  0.7086 -0.4418
  188POPC  H13C21622   1.743   2.741   1.756  1.5491  1.8027 -0.5979
  188POPC   C1421623   1.841   2.506   1.738  0.3041 -0.8811  0.9041
  188POPC  H14A21624   1.886   2.408   1.753 -2.3077 -1.9446  2.5656
  188POPC  H14B21625   1.735   2.502   1.717  0.7721 -0.5525 -1.8810
  188POPC  H14C21626   1.888   2.536   1.646 -1.5541 -1.1933 -0.2014
  188POPC   C1521627   1.755   2.548   1.959 -0.7992 -0.2742 -0.3473
  188POPC  H15A21628   1.762   2.441   1.969 -1.9646 -0.2027  1.7356
  188POPC  H15B21629   1.663   2.584   1.917  0.5350  1.8683 -1.6295
  188POPC  H15C21630   1.780   2.588   2.056  0.6686  0.3628 -0.9559
  188POPC   C1121631   2.028   2.635   2.053 -0.2923 -0.2631  0.4393
  188POPC  H11A21632   2.135   2.613   2.073 -0.5283 -0.8665  1.0708
  188POPC  H11B21633   1.973   2.575   2.128 -0.3056  0.3563  0.9310
  188POPC     P21634   1.910   2.848   2.147  0.0041 -0.4216  0.2453
  188POPC   O1321635   1.787   2.769   2.152 -0.1269 -0.7232  0.1006
  188POPC   O1421636   1.886   2.984   2.101  0.2027 -0.6568  0.0084
  188POPC   O1221637   2.013   2.777   2.057  0.3729 -0.2105 -0.1088
  188POPC   O1121638   1.969   2.861   2.289 -0.3372 -0.3480  0.7595
  188POPC    C121639   2.095   2.821   2.338 -0.0359  0.7989  0.5206
  188POPC    HA21640   2.169   2.807   2.257 -1.9014  1.4885 -1.3851
  188POPC    HB21641   2.080   2.718   2.375  0.1783  0.3388 -0.6468
  188POPC    C221642   2.143   2.912   2.447  0.3277 -0.2272 -0.2974
  188POPC    HS21643   2.252   2.894   2.458  0.6864  0.6236 -2.1633
  188POPC   O2121644   2.059   2.890   2.568 -0.0747 -0.0452 -0.2540
  188POPC   C2121645   2.112   2.788   2.648 -0.1211  0.2175 -0.1600
  188POPC   O2221646   2.208   2.724   2.615 -0.1325 -0.6435 -0.1545
  188POPC   C2221647   2.044   2.782   2.785  0.3983  0.2098 -0.8466
  188POPC   H2R21648   2.086   2.693   2.836 -1.3586 -0.4181 -0.4339
  188POPC   H2S21649   1.937   2.753   2.782  0.1295  0.2034  3.2448
  188POPC    C321650   2.124   3.059   2.406 -0.0768  0.9544  0.3504
  188POPC    HX21651   2.018   3.077   2.375  1.0648  1.5835 -3.7851
  188POPC    HY21652   2.191   3.067   2.318  1.7116  0.2003  1.6047
  188POPC   O3121653   2.180   3.152   2.503 -0.1762  0.5231 -0.5376
  188POPC   C3121654   2.097   3.227   2.569 -0.4697  0.0979  0.8866
  188POPC   O3221655   1.974   3.235   2.553 -0.4005 -0.0281  0.0580
  188POPC   C3221656   2.174   3.289   2.680  0.7775  0.6490 -0.3268
  188POPC   H2X21657   2.243   3.359   2.628 -0.5252  0.4436 -2.4406
  188POPC   H2Y21658   2.235   3.209   2.728 -0.4137  0.2990  0.6390
  188POPC   C2321659   2.065   2.917   2.867 -0.0397  0.0183 -0.0947
  188POPC   H3R21660   1.976   2.983   2.856 -0.5202 -0.0033  2.8418
  188POPC   H3S21661   2.158   2.965   2.831  0.2348  0.5777  1.2930
  188POPC   C2421662   2.094   2.874   3.011 -1.2177 -0.1037  0.2810
  188POPC   H4R21663   2.145   2.961   3.058  1.8080 -2.2252  1.2177
  188POPC   H4S21664   2.168   2.791   3.020  0.0103  0.6640 -1.9639
  188POPC   C2521665   1.976   2.817   3.086 -0.0872  0.2211  0.0916
  188POPC   H5R21666   1.934   2.729   3.034  0.8351 -0.5491  0.6025
  188POPC   H5S21667   1.899   2.898   3.089  1.6224  1.9807  3.8063
  188POPC   C2621668   2.002   2.773   3.229 -0.1897 -0.1167  0.6463
  188POPC   H6R21669   2.067   2.850   3.275 -0.9693 -0.6369  2.7642
  188POPC   H6S21670   2.053   2.674   3.221  0.7178  0.3487  0.5714
  188POPC   C2721671   1.874   2.744   3.311 -0.3066  0.0274 -0.5896
  188POPC   H7R21672   1.809   2.688   3.240  0.3143 -0.8155 -0.5078
  188POPC   H7S21673   1.830   2.840   3.346  2.7657  0.8978  1.2626
  188POPC   C2821674   1.894   2.658   3.443  0.0653  0.1135  0.7457
  188POPC   H8R21675   1.946   2.732   3.508 -0.5934  0.0428  1.3668
  188POPC   H8S21676   1.949   2.564   3.424  0.1060  0.2565  0.1064
  188POPC   C2921677   1.757   2.619   3.495  0.1190 -1.0432  0.1632
  188POPC   H9121678   1.679   2.655   3.426  0.4053 -2.6988 -1.0890
  188POPC  C21021679   1.730   2.566   3.618 -0.1518  0.6706  0.4243
  188POPC  H10121680   1.625   2.536   3.631 -0.2819  0.2137 -1.3227
  188POPC  C21121681   1.843   2.514   3.706  0.6109 -0.4421  0.1410
  188POPC  H11R21682   1.827   2.540   3.813  3.2535 -2.5194  1.1898
  188POPC  H11S21683   1.939   2.564   3.678 -0.2687  0.4726 -1.3386
  188POPC  C21221684   1.851   2.356   3.695  0.2832  0.8738 -0.6717
  188POPC  H12R21685   1.936   2.316   3.756  0.5901  0.5014 -1.3324
  188POPC  H12S21686   1.865   2.332   3.588 -0.7921  1.1288 -0.8806
  188POPC  C21321687   1.737   2.274   3.750 -0.7041 -0.5600 -0.6134
  188POPC  H13R21688   1.646   2.287   3.687  0.5835  1.5700 -2.1636
  188POPC  H13S21689   1.699   2.323   3.842 -1.2963 -3.1667  0.6261
  188POPC  C21421690   1.779   2.129   3.768  1.0047 -0.6561 -0.7366
  188POPC  H14R21691   1.870   2.130   3.832  0.9026 -1.6048 -0.5669
  188POPC  H14S21692   1.801   2.070   3.677 -4.0192 -0.1083 -2.6409
  188POPC  C21521693   1.653   2.060   3.832  0.1510 -0.8719  0.2366
  188POPC  H15R21694   1.564   2.067   3.766  0.1585 -0.4436  0.2706
  188POPC  H15S21695   1.627   2.118   3.923 -0.6998  2.5212 -2.0185
  188POPC  C21621696   1.689   1.908   3.866 -0.3109  0.3371  0.1932
  188POPC  H16R21697   1.784   1.900   3.923 -0.2243 -0.5056 -0.0551
  188POPC  H16S21698   1.713   1.855   3.771 -1.6841 -0.8641  0.4881
  188POPC  C21721699   1.580   1.835   3.934 -0.1267  0.9539  0.5856
  188POPC  H17R21700   1.478   1.849   3.892 -0.8305  0.6673  2.1533
  188POPC  H17S21701   1.574   1.875   4.037 -1.8179 -1.5298  1.5318
  188POPC  C21821702   1.600   1.682   3.943  0.2461 -0.5117 -0.0618
  188POPC  H18R21703   1.561   1.629   3.853  0.4347 -0.3644 -0.2306
  188POPC  H18S21704   1.543   1.643   4.030 -1.5561  2.0867  0.0476
  188POPC  H18T21705   1.707   1.658   3.960  0.6933  1.0290 -0.5194
  188POPC   C3321706   2.089   3.363   2.785 -0.8364  0.6757 -0.5684
  188POPC   H3X21707   2.009   3.425   2.739 -1.5517  0.8039  0.8070
  188POPC   H3Y21708   2.159   3.428   2.841 -0.3487  0.3501 -0.7902
  188POPC   C3421709   2.024   3.253   2.879 -0.0834 -0.1835  0.5342
  188POPC   H4X21710   2.092   3.168   2.902 -0.0719 -0.6074 -0.9389
  188POPC   H4Y21711   1.941   3.217   2.815  0.1520  0.3788 -0.1042
  188POPC   C3521712   1.964   3.299   3.011  0.2593  0.4055 -0.0447
  188POPC   H5X21713   1.910   3.394   2.989  1.1641  2.0134  3.8241
  188POPC   H5Y21714   2.053   3.333   3.069  1.4365  0.8232 -1.9925
  188POPC   C3621715   1.868   3.195   3.079 -0.8012  0.0843 -0.0214
  188POPC   H6X21716   1.932   3.111   3.116 -0.8595 -0.5349 -1.2975
  188POPC   H6Y21717   1.811   3.155   2.993  0.6131  0.6830 -1.2830
  188POPC   C3721718   1.789   3.262   3.190  0.1155 -0.1503  0.0124
  188POPC   H7X21719   1.706   3.323   3.149 -2.6351 -2.0136  2.3434
  188POPC   H7Y21720   1.861   3.324   3.248  0.4353  1.3318 -1.8741
  188POPC   C3821721   1.726   3.156   3.279 -0.0540  0.1762 -0.6456
  188POPC   H8X21722   1.802   3.105   3.341 -3.7014 -3.7280  1.1310
  188POPC   H8Y21723   1.698   3.069   3.216  1.7529 -1.5887  0.8749
  188POPC   C3921724   1.600   3.210   3.361 -0.2940 -0.6033  0.2149
  188POPC   H9X21725   1.520   3.250   3.295 -1.5077  0.4708  2.2616
  188POPC   H9Y21726   1.628   3.308   3.403  1.7194  0.0813 -2.4413
  188POPC  C31021727   1.536   3.114   3.464  0.3368 -0.3867 -0.0146
  188POPC  H10X21728   1.449   3.170   3.504 -0.1207  0.6561 -2.3336
  188POPC  H10Y21729   1.604   3.094   3.550  1.6454  0.1002 -0.9000
  188POPC  C31121730   1.484   2.989   3.407 -0.1982  0.0522 -0.0284
  188POPC  H11X21731   1.573   2.930   3.375 -0.5002  1.3835 -3.8416
  188POPC  H11Y21732   1.419   3.007   3.319  0.5707  1.3568 -0.3559
  188POPC  C31221733   1.398   2.913   3.507 -0.0553 -0.0448 -0.0929
  188POPC  H12X21734   1.355   2.822   3.460  0.0107 -0.1035 -0.0392
  188POPC  H12Y21735   1.304   2.968   3.530 -0.0966 -0.3207  0.3999
  188POPC  C31321736   1.480   2.868   3.635 -1.1240 -0.2690  0.2422
  188POPC  H13X21737   1.491   2.964   3.690  1.6350 -0.7583  0.6556
  188POPC  H13Y21738   1.574   2.827   3.594  0.6158  2.5628  1.1305
  188POPC  C31421739   1.406   2.767   3.727 -0.0634  0.3694  0.0764
  188POPC  H14X21740   1.410   2.671   3.672  1.4110  0.3757  0.1341
  188POPC  H14Y21741   1.298   2.793   3.733  0.1518  1.5307 -0.7738
  188POPC  C31521742   1.464   2.765   3.867 -0.1930 -0.1234  0.0214
  188POPC  H15X21743   1.566   2.721   3.871 -0.4351 -0.5769  2.5767
  188POPC  H15Y21744   1.401   2.698   3.929  0.4920 -0.8874 -0.0845
  188POPC  C31621745   1.474   2.902   3.936  0.2214 -0.5625 -0.2677
  188POPC  H16X21746   1.579   2.935   3.925  0.4214 -1.2365 -0.4565
  188POPC  H16Y21747   1.446   2.900   4.044  0.9106 -0.8171 -0.0862
  188POPC  H16Z21748   1.411   2.976   3.883  1.2864 -0.4163 -1.3649
  189SAPI   C1221749   6.512   0.314   6.526  0.6452  0.7261 -0.1418
  189SAPI    H221750   6.424   0.317   6.594  1.2284 -0.9993  0.7506
  189SAPI    O221751   6.627   0.319   6.607  0.6647  0.2478 -0.1976
  189SAPI   HO221752   6.641   0.405   6.647  2.3998  0.2347 -0.7191
  189SAPI   C1321753   6.506   0.192   6.439  0.0122 -0.0500 -0.0446
  189SAPI    H321754   6.417   0.200   6.373  0.6842 -1.4798 -1.1784
  189SAPI    O321755   6.484   0.068   6.515  0.1191 -0.2838 -0.2856
  189SAPI   HO321756   6.538   0.062   6.593 -0.2764  1.3672  0.1539
  189SAPI   C1421757   6.631   0.186   6.349  0.2540 -1.0431  0.4009
  189SAPI    H421758   6.714   0.166   6.420 -1.2855  0.3630  2.7345
  189SAPI    O421759   6.628   0.079   6.261 -0.3494  0.3060  0.2521
  189SAPI   HO421760   6.626   0.001   6.317  1.9241  0.7970  1.1279
  189SAPI   C1521761   6.673   0.325   6.286 -0.2764  0.0914  0.8511
  189SAPI    H521762   6.621   0.315   6.189 -0.0572  0.2970  0.7105
  189SAPI    O521763   6.809   0.329   6.248  0.2295 -1.0923 -0.1656
  189SAPI   HO521764   6.859   0.350   6.327  1.5877 -1.7694 -0.8121
  189SAPI   C1621765   6.612   0.451   6.334 -0.1252 -0.5453 -0.3455
  189SAPI    H621766   6.693   0.497   6.394  0.6525 -3.1001  0.7235
  189SAPI    O621767   6.585   0.542   6.232  0.0109 -1.2884 -0.1964
  189SAPI   HO621768   6.517   0.512   6.171 -1.3390  1.4406 -0.2101
  189SAPI   C1121769   6.501   0.441   6.435 -0.6430  0.3174 -0.0112
  189SAPI    H121770   6.407   0.428   6.377  0.8099  0.1262 -2.4201
  189SAPI     P21771   6.361   0.624   6.571 -0.3323  0.1281 -0.0231
  189SAPI   O1321772   6.388   0.755   6.635 -0.0551 -0.2905 -0.2365
  189SAPI   O1421773   6.291   0.525   6.652 -0.1150  0.4487  0.1252
  189SAPI   O1221774   6.495   0.560   6.515  0.3611  0.4703  0.0859
  189SAPI   O1121775   6.279   0.643   6.432 -0.5774  0.2109  0.4930
  189SAPI    C121776   6.324   0.755   6.350 -0.1240  0.1109 -0.2214
  189SAPI    HA21777   6.425   0.799   6.365 -0.8318  2.8973 -2.6226
  189SAPI    HB21778   6.325   0.708   6.249  0.1355 -2.0102  0.7098
  189SAPI    C221779   6.231   0.878   6.351  0.3207  0.1215  0.0835
  189SAPI    HS21780   6.206   0.887   6.459 -0.7636 -0.7923 -0.0673
  189SAPI   O2121781   6.108   0.848   6.278 -0.2489 -0.4547 -0.0890
  189SAPI   C2121782   6.017   0.939   6.270 -0.0882  0.1051 -0.8610
  189SAPI   O2221783   6.012   1.037   6.342  0.4001 -0.5397  0.5025
  189SAPI   C2221784   5.900   0.894   6.175 -0.2031 -0.3242 -0.0968
  189SAPI   H2R21785   5.908   0.784   6.165  1.4895 -0.2479  0.0518
  189SAPI   H2S21786   5.806   0.927   6.224 -1.0122 -2.1230 -0.3783
  189SAPI    C321787   6.296   1.014   6.304 -0.2149 -0.1606  0.1341
  189SAPI    HX21788   6.395   1.017   6.353  0.6212  0.5697 -1.5095
  189SAPI    HY21789   6.238   1.102   6.339  0.5886  0.5449 -0.3014
  189SAPI   O3121790   6.327   1.016   6.167  0.0559 -0.2436  0.0084
  189SAPI   C3121791   6.437   0.957   6.115  0.4208 -0.4255  0.2874
  189SAPI   O3221792   6.527   0.921   6.180 -0.8735 -0.8949 -0.3558
  189SAPI   C3221793   6.435   0.972   5.957 -0.2023 -0.1742  0.6230
  189SAPI   H2X21794   6.388   1.069   5.930 -2.3086 -0.5777  2.4908
  189SAPI   H2Y21795   6.362   0.896   5.922  2.5135 -1.3010 -3.2115
  189SAPI   C2321796   5.900   0.952   6.026 -0.5947 -0.2158  0.8263
  189SAPI   H3R21797   5.886   1.062   6.026  2.0509  0.3254 -2.9564
  189SAPI   H3S21798   5.811   0.920   5.967 -1.2894  0.2177  1.6100
  189SAPI   C2421799   6.039   0.943   5.945  0.6162  0.3043 -0.0833
  189SAPI   H4R21800   6.132   0.978   5.995  0.9318 -2.1069  1.1655
  189SAPI   H4S21801   6.022   1.012   5.860 -2.1024  1.2164  1.0848
  189SAPI   C2521802   6.060   0.805   5.881 -0.4232  0.6292  0.9784
  189SAPI   H5R21803   6.049   0.713   5.940 -3.2581 -0.5402 -1.1304
  189SAPI   C2621804   6.102   0.782   5.752  0.9493 -0.5987 -0.2194
  189SAPI   H6R21805   6.118   0.679   5.717  1.4009  0.0780 -2.1533
  189SAPI   C2721806   6.142   0.893   5.656  0.2619  0.1632 -0.1545
  189SAPI   H7R21807   6.206   0.964   5.713 -0.0955 -1.6035  2.6477
  189SAPI   H7S21808   6.058   0.955   5.621  0.6609  0.4089 -0.6855
  189SAPI   C2821809   6.219   0.844   5.541 -0.4109  0.8812  1.1070
  189SAPI   H8R21810   6.320   0.806   5.566  0.0478 -1.6106 -3.4749
  189SAPI   C2921811   6.172   0.824   5.412  0.6878 -0.1022 -0.0483
  189SAPI   H9R21812   6.247   0.792   5.339 -0.0048 -0.0328 -0.8048
  189SAPI  C21021813   6.041   0.866   5.350  0.3972 -0.1954 -0.4176
  189SAPI  H10R21814   6.045   0.962   5.294 -0.2041 -0.7505 -1.4510
  189SAPI  H10S21815   5.963   0.897   5.423  1.0518  0.1334  0.1525
  189SAPI  C21121816   5.973   0.757   5.276  0.5798 -0.7170 -0.4752
  189SAPI  H11R21817   5.912   0.680   5.326 -1.0078  1.3354  0.9444
  189SAPI  C21221818   5.970   0.754   5.136  0.2348 -0.0922  0.4164
  189SAPI  H12R21819   5.908   0.677   5.089  0.1090 -0.1164  0.6194
  189SAPI  C21321820   6.035   0.852   5.048 -0.5833 -0.4476  0.4722
  189SAPI  H13R21821   6.080   0.941   5.097  2.0901 -2.5310  2.1031
  189SAPI  H13S21822   5.961   0.897   4.979  0.0400  0.9965  0.7094
  189SAPI  C21421823   6.141   0.785   4.964 -0.4429  1.0740 -0.2029
  189SAPI  H14R21824   6.234   0.752   5.010 -0.9363  0.3653  0.3004
  189SAPI  C21521825   6.137   0.784   4.826 -0.1931 -0.8063  0.4105
  189SAPI  H15R21826   6.212   0.729   4.766 -1.0754 -1.4982 -0.0747
  189SAPI  C21621827   6.022   0.821   4.737  0.3326 -0.5682 -0.0102
  189SAPI  H16R21828   6.017   0.932   4.725  3.1026 -0.3507  0.1805
  189SAPI  H16S21829   5.927   0.779   4.774 -0.2938  2.3551  2.0449
  189SAPI  C21721830   6.040   0.765   4.595  0.3802  0.0313  0.0108
  189SAPI  H17R21831   6.127   0.806   4.539 -0.7951  0.7474 -1.3716
  189SAPI  H17S21832   5.949   0.793   4.537  1.6218 -1.3150 -2.7484
  189SAPI  C21821833   6.037   0.611   4.589 -0.3732 -0.3529 -0.1261
  189SAPI  H18R21834   5.949   0.582   4.650  0.5598  1.4084  2.2021
  189SAPI  H18S21835   6.121   0.557   4.637 -1.3697 -1.1458  0.7676
  189SAPI  C21921836   6.040   0.558   4.439  0.3518 -0.1663  0.6165
  189SAPI  H19R21837   5.931   0.568   4.418  0.5565 -1.5842 -1.3346
  189SAPI  H19S21838   6.069   0.453   4.418  3.2491  0.7332 -0.2912
  189SAPI  C22021839   6.098   0.644   4.340 -0.2287 -0.0027 -0.0777
  189SAPI  H20R21840   6.206   0.659   4.361 -0.6932  1.7886  1.2445
  189SAPI  H20S21841   6.054   0.746   4.343 -0.4429 -0.0841 -0.3889
  189SAPI  H20T21842   6.088   0.603   4.237 -1.2242  1.8711 -0.7751
  189SAPI   C3321843   6.570   0.949   5.896  0.1645  0.1712  0.2963
  189SAPI   H3X21844   6.614   0.862   5.949 -2.6032 -1.4519  0.1357
  189SAPI   H3Y21845   6.641   1.034   5.894  0.4207  0.2679  4.5886
  189SAPI   C3421846   6.551   0.917   5.749  0.3495  0.8199  0.3466
  189SAPI   H4X21847   6.493   1.001   5.706 -1.1359  0.7040  1.9866
  189SAPI   H4Y21848   6.492   0.825   5.735  1.1693  0.6452 -2.6536
  189SAPI   C3521849   6.687   0.916   5.664  0.1862  1.1441  0.1583
  189SAPI   H5X21850   6.748   0.826   5.686 -2.7796 -1.1221 -0.2431
  189SAPI   H5Y21851   6.744   1.008   5.690  0.0305  2.5481 -3.7466
  189SAPI   C3621852   6.651   0.922   5.519 -0.4245 -0.0542  0.0929
  189SAPI   H6X21853   6.737   0.966   5.465 -1.5083  0.9076 -0.8888
  189SAPI   H6Y21854   6.570   0.988   5.482  0.0372 -0.6995 -2.1810
  189SAPI   C3721855   6.627   0.779   5.469 -0.5025 -0.2476 -0.2680
  189SAPI   H7X21856   6.555   0.726   5.535 -1.6046 -0.1412 -1.3671
  189SAPI   H7Y21857   6.720   0.719   5.482 -0.8379 -0.4659  1.3277
  189SAPI   C3821858   6.578   0.776   5.322 -0.9229 -0.2639  0.3705
  189SAPI   H8X21859   6.651   0.839   5.268 -2.4755  2.7485  1.5521
  189SAPI   H8Y21860   6.484   0.835   5.317 -0.0266  1.1202 -1.1928
  189SAPI   C3921861   6.575   0.635   5.265 -0.5990 -0.7436  0.3665
  189SAPI   H9X21862   6.523   0.563   5.331 -0.2391 -1.7474 -0.4213
  189SAPI   H9Y21863   6.674   0.585   5.266 -0.2768 -0.1517 -0.4058
  189SAPI  C31021864   6.498   0.652   5.135  0.1514  0.4171  0.2925
  189SAPI  H10X21865   6.396   0.689   5.161  0.8009  2.1507  0.4808
  189SAPI  H10Y21866   6.474   0.555   5.086  2.7640 -0.5166  0.7267
  189SAPI  C31121867   6.559   0.742   5.027 -0.0396  0.4417  0.5776
  189SAPI  H11X21868   6.651   0.693   4.990  0.0503  1.4447 -0.6009
  189SAPI  H11Y21869   6.600   0.837   5.068 -2.0985  0.9603  1.5534
  189SAPI  C31221870   6.480   0.773   4.897 -0.0564 -0.1907 -0.3617
  189SAPI  H12X21871   6.410   0.857   4.916 -0.7509 -0.7574 -0.3794
  189SAPI  H12Y21872   6.424   0.685   4.859 -0.6144  0.0091 -0.0084
  189SAPI  C31321873   6.573   0.826   4.786 -0.2187  0.0009  0.6477
  189SAPI  H13X21874   6.640   0.740   4.766  0.1363  0.3852  0.1673
  189SAPI  H13Y21875   6.632   0.916   4.813 -0.8432  0.6481 -0.1369
  189SAPI  C31421876   6.511   0.866   4.655 -0.4356 -0.1070 -0.3239
  189SAPI  H14X21877   6.423   0.933   4.670 -1.2874 -1.0854 -0.7990
  189SAPI  H14Y21878   6.467   0.772   4.614 -0.5829 -0.3425  0.3726
  189SAPI  C31521879   6.614   0.920   4.549  0.0700  0.6808 -0.2124
  189SAPI  H15X21880   6.689   0.838   4.547 -1.4197 -0.9202  2.6333
  189SAPI  H15Y21881   6.657   1.009   4.600 -0.0147 -1.5010  4.1092
  189SAPI  C31621882   6.555   0.937   4.410 -0.5199  0.0308 -0.2171
  189SAPI  H16X21883   6.493   1.029   4.406 -1.0226 -0.1955  1.6217
  189SAPI  H16Y21884   6.488   0.849   4.398 -0.0535 -0.5857  1.3686
  189SAPI  C31721885   6.663   0.942   4.298  0.7033 -0.0712 -0.2334
  189SAPI  H17X21886   6.714   0.843   4.306  0.0978 -0.3397  0.3816
  189SAPI  H17Y21887   6.737   1.021   4.322  1.6800 -1.4792  1.6444
  189SAPI  C31821888   6.611   0.950   4.155  0.2035 -0.8701  0.6799
  189SAPI  H18X21889   6.554   0.859   4.128 -0.8426  0.4283 -1.7737
  189SAPI  H18Y21890   6.691   0.974   4.082 -0.3426  4.7877  1.4647
  189SAPI  H18Z21891   6.545   1.039   4.149  1.3245 -0.1259 -1.1078
  190SAPI   C1221892   4.798   6.826   6.360  0.7703 -0.0207 -0.6855
  190SAPI    H221893   4.804   6.786   6.256  3.2135 -0.6753 -0.3564
  190SAPI    O221894   4.844   6.727   6.454 -0.4498  0.1635  0.0331
  190SAPI   HO221895   4.823   6.741   6.547 -0.5495  2.4511 -0.2609
  190SAPI   C1321896   4.887   6.951   6.371 -0.4398 -0.1006 -0.5318
  190SAPI    H321897   4.839   7.021   6.300 -1.7409  1.1642  1.4987
  190SAPI    O321898   5.021   6.922   6.328 -0.4979 -0.3183 -0.2781
  190SAPI   HO321899   5.031   6.940   6.234 -1.4686 -0.1737 -0.3654
  190SAPI   C1421900   4.879   7.021   6.510 -0.0613 -0.4224  0.2641
  190SAPI    H421901   4.943   6.962   6.580  0.5616  0.7479  0.7110
  190SAPI    O421902   4.929   7.158   6.508 -0.4069  0.4439  0.2412
  190SAPI   HO421903   4.984   7.170   6.430 -0.1332 -1.1199  0.1505
  190SAPI   C1521904   4.739   7.021   6.569 -0.4564 -0.2061  0.6929
  190SAPI    H521905   4.686   7.115   6.543 -0.3526  0.2543  2.0405
  190SAPI    O521906   4.752   7.043   6.708  0.0587  0.5698 -0.1759
  190SAPI   HO521907   4.802   6.979   6.759 -0.4623 -1.0880 -1.6401
  190SAPI   C1621908   4.643   6.903   6.536 -0.4135  0.1088 -0.2387
  190SAPI    H621909   4.666   6.821   6.607 -0.2166  1.8033  1.7468
  190SAPI    O621910   4.510   6.947   6.564  0.0711 -0.1792 -0.6049
  190SAPI   HO621911   4.480   6.977   6.478  0.3820 -1.3280 -1.1357
  190SAPI   C1121912   4.659   6.858   6.395  0.1527 -0.6672 -0.1519
  190SAPI    H121913   4.633   6.952   6.342  2.3613  0.0566 -0.0829
  190SAPI     P21914   4.496   6.729   6.226 -0.4166  0.5637 -0.0305
  190SAPI   O1321915   4.479   6.865   6.169 -0.4453  0.0585  0.4332
  190SAPI   O1421916   4.374   6.642   6.256  0.1254  0.1331  0.7092
  190SAPI   O1221917   4.573   6.739   6.372  0.0918 -0.2266  0.1992
  190SAPI   O1121918   4.602   6.646   6.150 -0.6965 -0.9586 -0.0112
  190SAPI    C121919   4.636   6.514   6.195  0.1649 -0.0543 -0.0138
  190SAPI    HA21920   4.696   6.525   6.289 -2.6254  2.4577  1.6219
  190SAPI    HB21921   4.542   6.458   6.216  0.6274 -0.0419  2.4651
  190SAPI    C221922   4.718   6.430   6.087 -0.3760 -0.3993 -1.0980
  190SAPI    HS21923   4.751   6.336   6.135  1.1424  0.5836 -0.1229
  190SAPI   O2121924   4.827   6.514   6.052 -0.1664  0.2686 -0.1763
  190SAPI   C2121925   4.930   6.505   6.143  0.2742 -0.3597  0.4262
  190SAPI   O2221926   4.937   6.423   6.234 -0.5254  0.2405  0.4347
  190SAPI   C2221927   5.032   6.610   6.103  0.1852 -0.1886 -0.0957
  190SAPI   H2R21928   4.991   6.667   6.016  0.6220  1.9627  1.0465
  190SAPI   H2S21929   5.035   6.679   6.189  3.2309  0.1631 -0.3693
  190SAPI    C321930   4.622   6.386   5.969 -0.2281  0.3461  0.2860
  190SAPI    HX21931   4.549   6.461   5.933 -1.0741 -0.9252 -0.7663
  190SAPI    HY21932   4.556   6.305   6.008  1.0708 -0.9832 -0.1696
  190SAPI   O3121933   4.697   6.326   5.855 -0.3958  0.3855  0.1498
  190SAPI   C3121934   4.768   6.414   5.786  0.3937 -0.0329 -0.1012
  190SAPI   O3221935   4.762   6.536   5.790  0.1061  0.5163 -0.4426
  190SAPI   C3221936   4.869   6.346   5.702  0.0749  0.1400 -0.0653
  190SAPI   H2X21937   4.862   6.235   5.696  1.2391  0.1034 -1.3675
  190SAPI   H2Y21938   4.964   6.368   5.754 -0.3556  2.1206 -0.0160
  190SAPI   C2321939   5.174   6.558   6.088 -0.3764 -0.4224  0.0757
  190SAPI   H3R21940   5.187   6.469   6.154  0.8233  0.1544  0.6360
  190SAPI   H3S21941   5.257   6.629   6.104 -1.3274  0.7846 -0.1815
  190SAPI   C2421942   5.201   6.507   5.941  0.3899 -0.3050  0.1014
  190SAPI   H4R21943   5.146   6.411   5.929 -0.0109  0.1100 -1.7842
  190SAPI   H4S21944   5.309   6.482   5.944  0.4975  0.2254  1.6704
  190SAPI   C2521945   5.174   6.605   5.830 -0.6755 -0.4152 -0.0843
  190SAPI   H5R21946   5.133   6.698   5.875 -0.1919 -0.6770  0.9298
  190SAPI   C2621947   5.212   6.596   5.698 -0.7030 -0.2547 -0.1236
  190SAPI   H6R21948   5.210   6.677   5.624 -0.2673 -0.2678 -0.1472
  190SAPI   C2721949   5.290   6.472   5.653  0.1550 -0.1276  0.1297
  190SAPI   H7R21950   5.225   6.408   5.589 -0.5492  1.8266 -1.2206
  190SAPI   H7S21951   5.314   6.397   5.731 -2.7352 -0.2631  1.0180
  190SAPI   C2821952   5.413   6.508   5.572  0.6615  0.0602 -0.2998
  190SAPI   H8R21953   5.500   6.544   5.629  0.2618 -0.3933  0.6081
  190SAPI   C2921954   5.433   6.512   5.439 -0.2935  0.1067  0.1141
  190SAPI   H9R21955   5.529   6.554   5.406 -0.2212  2.1373  2.5979
  190SAPI  C21021956   5.337   6.466   5.330  0.8085 -0.3213  0.5649
  190SAPI  H10R21957   5.246   6.528   5.345  1.3461  1.1446 -1.7361
  190SAPI  H10S21958   5.297   6.364   5.344 -1.1503  0.4217  0.6203
  190SAPI  C21121959   5.395   6.490   5.197  0.3003  0.9020  1.0506
  190SAPI  H11R21960   5.369   6.577   5.134  1.6098  0.3054 -0.3730
  190SAPI  C21221961   5.468   6.397   5.134 -0.2560 -0.4106 -0.1524
  190SAPI  H12R21962   5.503   6.411   5.030 -0.5107 -1.0918 -0.3314
  190SAPI  C21321963   5.518   6.260   5.187 -0.4523  0.3899  0.2458
  190SAPI  H13R21964   5.441   6.188   5.152 -0.7117  0.8251 -0.0955
  190SAPI  H13S21965   5.518   6.259   5.298  0.0319 -1.0955  0.2508
  190SAPI  C21421966   5.659   6.231   5.143 -0.0104  0.4033  0.2833
  190SAPI  H14R21967   5.744   6.294   5.174  0.6964 -0.0290 -0.7257
  190SAPI  C21521968   5.692   6.142   5.051  0.2336 -0.1119  0.0070
  190SAPI  H15R21969   5.797   6.149   5.019  0.4414 -0.5017  0.5963
  190SAPI  C21621970   5.625   6.039   4.967 -0.1553 -0.3488 -0.0843
  190SAPI  H16R21971   5.517   6.054   4.991  0.4269  1.7694  1.5178
  190SAPI  H16S21972   5.647   5.937   5.004  0.3366  0.5454  2.2703
  190SAPI  C21721973   5.670   6.052   4.820 -0.4975 -0.5827  0.7756
  190SAPI  H17R21974   5.667   6.158   4.785 -1.7655 -0.4076  1.3550
  190SAPI  H17S21975   5.591   6.006   4.756 -1.7473  3.1103 -0.6081
  190SAPI  C21821976   5.811   5.997   4.803 -0.3741 -0.4819 -0.8449
  190SAPI  H18R21977   5.813   5.906   4.866 -0.4668  0.7484  0.9946
  190SAPI  H18S21978   5.888   6.068   4.839 -0.6629 -0.7250  0.2935
  190SAPI  C21921979   5.837   5.963   4.660  0.3727  0.1869 -0.4561
  190SAPI  H19R21980   5.783   5.871   4.629 -2.5127  2.2049 -1.9165
  190SAPI  H19S21981   5.941   5.929   4.641  0.6623  0.9063 -0.1976
  190SAPI  C22021982   5.813   6.072   4.556  0.2933  0.2873  0.2238
  190SAPI  H20R21983   5.846   6.050   4.452 -0.6974  1.7694 -0.4531
  190SAPI  H20S21984   5.858   6.170   4.584 -0.3323  0.9177 -0.9156
  190SAPI  H20T21985   5.703   6.088   4.551 -0.0302 -1.7123  0.2185
  190SAPI   C3321986   4.878   6.401   5.558  0.6266 -0.6495  0.4430
  190SAPI   H3X21987   4.923   6.501   5.570 -3.4398  1.3237  0.8601
  190SAPI   H3Y21988   4.782   6.427   5.510  1.7124  1.4120 -0.7212
  190SAPI   C3421989   4.951   6.309   5.457 -0.1062 -0.2842 -0.0466
  190SAPI   H4X21990   4.905   6.209   5.456  2.3308 -1.5309  1.3391
  190SAPI   H4Y21991   5.052   6.285   5.497  0.0846 -1.1348 -1.0122
  190SAPI   C3521992   4.947   6.370   5.315  0.1353  0.2910 -0.2991
  190SAPI   H5X21993   4.993   6.471   5.322 -2.5143  1.5788 -0.1164
  190SAPI   H5Y21994   4.845   6.387   5.274 -0.0167  3.5539  1.1113
  190SAPI   C3621995   5.025   6.285   5.210  0.0785  0.2361  0.3951
  190SAPI   H6X21996   4.982   6.183   5.197  0.5392  0.0761  0.1128
  190SAPI   H6Y21997   5.123   6.252   5.252 -0.3682 -1.1797  0.3900
  190SAPI   C3721998   5.048   6.351   5.071 -0.1547  0.8191  0.0498
  190SAPI   H7X21999   5.114   6.440   5.081  1.2962  0.0368 -1.7260
  190SAPI   H7Y22000   4.945   6.380   5.042 -0.9924 -1.2152  0.8051
  190SAPI   C3822001   5.111   6.257   4.967  0.5329 -0.5196  0.4247
  190SAPI   H8X22002   5.041   6.171   4.951 -1.8811  1.6400 -1.5751
  190SAPI   H8Y22003   5.200   6.214   5.018  1.3763  1.1861  0.4361
  190SAPI   C3922004   5.143   6.309   4.828 -0.3041  0.0167  0.3750
  190SAPI   H9X22005   5.223   6.386   4.828  0.3245 -0.6234  0.0788
  190SAPI   H9Y22006   5.060   6.357   4.773 -0.4241 -1.1893 -0.5437
  190SAPI  C31022007   5.202   6.198   4.745  0.0130  0.1610 -0.8765
  190SAPI  H10X22008   5.133   6.110   4.744 -1.3031  1.1554 -0.9271
  190SAPI  H10Y22009   5.295   6.163   4.795 -0.2646  2.0240  1.0952
  190SAPI  C31122010   5.224   6.246   4.604 -0.5738  0.3557  0.5424
  190SAPI  H11X22011   5.284   6.339   4.607  1.0098 -0.6434  2.9346
  190SAPI  H11Y22012   5.126   6.283   4.566 -0.6195 -1.5296 -1.3780
  190SAPI  C31222013   5.281   6.137   4.508  0.0036  0.7220  0.2885
  190SAPI  H12X22014   5.207   6.053   4.504  2.0640 -1.1497 -1.0686
  190SAPI  H12Y22015   5.374   6.093   4.549 -1.5941 -1.4277  1.9006
  190SAPI  C31322016   5.299   6.183   4.361 -0.5545  1.0032 -0.1625
  190SAPI  H13X22017   5.218   6.251   4.327 -0.3891  0.5799 -1.4581
  190SAPI  H13Y22018   5.280   6.091   4.302 -1.4242 -0.4121  2.1851
  190SAPI  C31422019   5.423   6.252   4.335 -0.1646  0.0259  0.9062
  190SAPI  H14X22020   5.508   6.183   4.354  0.3913  0.7140  0.9355
  190SAPI  H14Y22021   5.441   6.335   4.407  0.9213  1.4038 -0.8661
  190SAPI  C31522022   5.427   6.306   4.187  0.5413 -0.0351 -0.8473
  190SAPI  H15X22023   5.394   6.223   4.120  0.8125  0.7035 -1.9257
  190SAPI  H15Y22024   5.535   6.320   4.167  1.1816 -0.2776  2.0502
  190SAPI  C31622025   5.344   6.432   4.168  0.0538 -0.3518  0.3526
  190SAPI  H16X22026   5.369   6.514   4.239  2.4911  0.9125 -1.7548
  190SAPI  H16Y22027   5.237   6.403   4.176 -0.0434 -0.4945 -1.1394
  190SAPI  C31722028   5.353   6.488   4.027  0.2296  0.2332  0.2697
  190SAPI  H17X22029   5.337   6.407   3.953  1.0625  0.1939  0.1227
  190SAPI  H17Y22030   5.455   6.530   4.010  0.8910 -0.9191  1.2317
  190SAPI  C31822031   5.261   6.602   4.002 -0.0161 -0.9126 -0.2875
  190SAPI  H18X22032   5.154   6.596   4.030  0.1039 -1.3154  0.0905
  190SAPI  H18Y22033   5.276   6.656   3.906  1.1838  0.0919  0.4367
  190SAPI  H18Z22034   5.295   6.686   4.065  0.3930 -0.4795 -1.0662
  191SAPI   C1222035   4.055   6.633   1.892 -0.2507  0.2290 -0.4100
  191SAPI    H222036   4.145   6.692   1.920  0.2455 -0.2092 -1.0704
  191SAPI    O222037   4.100   6.563   1.779 -0.4449 -0.0248  0.3416
  191SAPI   HO222038   4.114   6.623   1.706 -1.0205  1.0449  1.0768
  191SAPI   C1322039   4.019   6.548   2.019  0.1272 -0.0365  0.7860
  191SAPI    H322040   3.975   6.622   2.090 -0.7274 -0.3648  0.6128
  191SAPI    O322041   4.135   6.491   2.076 -0.8617 -0.2121  0.0001
  191SAPI   HO322042   4.111   6.441   2.155 -1.4721  0.6431  0.3817
  191SAPI   C1422043   3.905   6.461   1.978  0.0099  0.0183 -0.0282
  191SAPI    H422044   3.958   6.378   1.925 -3.3032 -1.6513 -0.9744
  191SAPI    O422045   3.836   6.392   2.084  0.0552 -0.2151 -0.6439
  191SAPI   HO422046   3.872   6.305   2.102  1.4258  0.5748  0.6753
  191SAPI   C1522047   3.801   6.517   1.880  0.1547 -0.1304  0.9076
  191SAPI    H522048   3.718   6.554   1.944 -1.0532 -2.0671  0.5292
  191SAPI    O522049   3.750   6.418   1.794 -0.5212  0.1924  0.0607
  191SAPI   HO522050   3.662   6.390   1.819 -1.7140  2.9309 -0.7061
  191SAPI   C1622051   3.824   6.645   1.794 -0.0641  0.3566  0.8426
  191SAPI    H622052   3.853   6.616   1.691  0.1815  1.2646  0.6474
  191SAPI    O622053   3.714   6.734   1.786 -0.3395 -0.1428 -0.3185
  191SAPI   HO622054   3.741   6.822   1.814  1.6805 -1.3972  2.0340
  191SAPI   C1122055   3.941   6.725   1.859 -0.3997  0.0263 -0.7917
  191SAPI    H122056   3.904   6.772   1.952 -0.0668  0.7350 -1.0068
  191SAPI     P22057   3.978   6.982   1.790 -0.0521 -0.3836 -0.3968
  191SAPI   O1322058   3.840   7.023   1.816 -0.0611  0.0644  0.9297
  191SAPI   O1422059   4.042   7.053   1.675  0.0468 -0.1186 -0.6830
  191SAPI   O1222060   3.994   6.822   1.772 -0.0896 -0.6322 -0.3540
  191SAPI   O1122061   4.057   6.996   1.925 -0.0390 -0.0057  0.1639
  191SAPI    C122062   4.197   7.006   1.937  0.1488  0.0161 -0.8110
  191SAPI    HA22063   4.245   6.906   1.932 -0.3071 -0.2166 -0.6423
  191SAPI    HB22064   4.233   7.075   1.858  2.1583 -0.2519 -0.1739
  191SAPI    C222065   4.251   7.060   2.074  0.2334  0.1553  0.4493
  191SAPI    HS22066   4.360   7.081   2.078  0.4960 -1.0701  0.0626
  191SAPI   O2122067   4.212   6.972   2.183  0.1931 -0.4215 -0.0829
  191SAPI   C2122068   4.292   6.867   2.212  0.1515 -0.1533 -0.1113
  191SAPI   O2222069   4.402   6.845   2.171  0.4482  0.2435 -0.3157
  191SAPI   C2222070   4.209   6.779   2.312  0.4721 -0.5847  0.1773
  191SAPI   H2R22071   4.102   6.808   2.322 -0.5096 -4.1124  1.7221
  191SAPI   H2S22072   4.193   6.676   2.274 -0.1014 -0.7224  0.7673
  191SAPI    C322073   4.186   7.200   2.096  0.0722 -0.6699 -0.4204
  191SAPI    HX22074   4.079   7.203   2.068  0.1832 -0.8624 -0.8677
  191SAPI    HY22075   4.235   7.263   2.019  1.1341  1.5010  1.8441
  191SAPI   O3122076   4.206   7.263   2.228  0.1752 -0.0066 -0.4164
  191SAPI   C3122077   4.098   7.279   2.304 -0.1819 -0.0504 -0.0592
  191SAPI   O3222078   3.986   7.226   2.288  0.2217  0.4513 -0.0696
  191SAPI   C3222079   4.125   7.376   2.417 -0.4834  0.5496 -0.0657
  191SAPI   H2X22080   4.067   7.466   2.388 -0.9340  0.7782  1.4320
  191SAPI   H2Y22081   4.232   7.404   2.417 -0.0915 -0.6399  2.5315
  191SAPI   C2322082   4.289   6.759   2.450  0.3842 -0.5591  0.1267
  191SAPI   H3R22083   4.395   6.731   2.436  0.4701  0.6155 -1.9449
  191SAPI   H3S22084   4.248   6.669   2.501  0.6921 -0.5450  0.4018
  191SAPI   C2422085   4.275   6.881   2.544 -0.4423 -0.3884  0.6770
  191SAPI   H4R22086   4.275   6.980   2.493 -3.0833  0.3374  1.9191
  191SAPI   H4S22087   4.349   6.879   2.626  1.3742  0.7570 -0.8613
  191SAPI   C2522088   4.142   6.880   2.609  0.0318 -0.3698  0.0171
  191SAPI   H5R22089   4.062   6.866   2.535  1.1867 -3.0122 -0.8303
  191SAPI   C2622090   4.107   6.918   2.735  0.3639 -0.7334 -0.1025
  191SAPI   H6R22091   4.002   6.898   2.762  1.5315 -2.9475  3.6828
  191SAPI   C2722092   4.198   6.952   2.852  0.2260  0.1041  0.7633
  191SAPI   H7R22093   4.261   6.868   2.888 -0.3393 -0.5162  0.3237
  191SAPI   H7S22094   4.130   6.974   2.938 -0.2297 -0.7961  0.6425
  191SAPI   C2822095   4.294   7.065   2.830 -0.0326  0.4060  0.3235
  191SAPI   H8R22096   4.303   7.096   2.725  1.5120 -0.3829  0.1979
  191SAPI   C2922097   4.377   7.120   2.926  0.2482 -0.5288  0.0956
  191SAPI   H9R22098   4.444   7.199   2.889 -1.0758  0.4293 -0.2915
  191SAPI  C21022099   4.372   7.094   3.073  0.3165  0.2374 -0.4914
  191SAPI  H10R22100   4.473   7.086   3.117 -0.0059 -1.4180 -0.0036
  191SAPI  H10S22101   4.332   6.995   3.103  0.8283 -0.1438 -1.0565
  191SAPI  C21122102   4.292   7.193   3.157 -0.2237 -0.0654  0.7812
  191SAPI  H11R22103   4.275   7.285   3.099  0.0748 -1.0965 -1.0160
  191SAPI  C21222104   4.252   7.194   3.281 -0.9301  0.3277  0.1392
  191SAPI  H12R22105   4.192   7.281   3.313 -3.1371  0.0586 -2.7722
  191SAPI  C21322106   4.270   7.076   3.377  0.0427  0.5100 -1.1246
  191SAPI  H13R22107   4.319   6.988   3.330  2.3629  0.8215  0.5550
  191SAPI  H13S22108   4.173   7.035   3.414  0.7565 -0.9788 -0.8086
  191SAPI  C21422109   4.354   7.108   3.500 -0.4275 -0.3720 -0.4568
  191SAPI  H14R22110   4.461   7.125   3.487 -0.4412  1.8948  1.6591
  191SAPI  C21522111   4.307   7.123   3.629  0.6132  0.3464  0.7432
  191SAPI  H15R22112   4.376   7.145   3.712 -0.5248 -0.3047  1.8953
  191SAPI  C21622113   4.163   7.106   3.665 -0.4237  0.2453  0.4011
  191SAPI  H16R22114   4.141   7.006   3.706 -2.7974  0.1355 -0.9551
  191SAPI  H16S22115   4.102   7.123   3.573 -1.4402  0.4796  1.1128
  191SAPI  C21722116   4.101   7.216   3.758 -0.1630  0.0521 -0.8636
  191SAPI  H17R22117   3.992   7.196   3.758 -0.1045 -0.4535  1.1089
  191SAPI  H17S22118   4.111   7.316   3.709 -1.5820  1.2805  1.2317
  191SAPI  C21822119   4.165   7.239   3.902  0.5935  0.5610  0.3661
  191SAPI  H18R22120   4.274   7.253   3.890  0.8525 -1.2520  0.2952
  191SAPI  H18S22121   4.162   7.148   3.965  3.2231  1.0216  1.2534
  191SAPI  C21922122   4.100   7.362   3.965 -0.7684 -0.1141  0.3259
  191SAPI  H19R22123   3.990   7.358   3.956 -0.6806  0.9444 -1.9758
  191SAPI  H19S22124   4.133   7.438   3.890  0.5758 -2.3846 -1.5704
  191SAPI  C22022125   4.145   7.380   4.106 -0.3416 -0.0482 -0.9081
  191SAPI  H20R22126   4.094   7.469   4.146 -1.5369 -1.2365  0.2899
  191SAPI  H20S22127   4.254   7.404   4.112 -0.5096  0.3674  1.0435
  191SAPI  H20T22128   4.124   7.292   4.170 -0.6386  1.0895  0.6244
  191SAPI   C3322129   4.066   7.311   2.552 -0.5947  0.4916 -0.2026
  191SAPI   H3X22130   4.112   7.216   2.587 -3.2213 -1.1217 -0.8873
  191SAPI   H3Y22131   3.957   7.292   2.547 -0.5688  0.4254 -0.5948
  191SAPI   C3422132   4.074   7.419   2.664 -0.4001 -0.4924 -0.1187
  191SAPI   H4X22133   4.021   7.392   2.758  0.2888 -1.8238 -0.0849
  191SAPI   H4Y22134   4.032   7.510   2.616 -1.5630 -2.7916 -3.8537
  191SAPI   C3522135   4.222   7.450   2.704 -0.0914  0.6483 -0.7065
  191SAPI   H5X22136   4.270   7.494   2.614  0.1970  0.0646 -0.8437
  191SAPI   H5Y22137   4.276   7.363   2.748  2.0694  3.1476  1.9378
  191SAPI   C3622138   4.225   7.562   2.810 -0.3102 -1.1749  0.6561
  191SAPI   H6X22139   4.149   7.639   2.787 -0.5692 -1.5010  0.4015
  191SAPI   H6Y22140   4.317   7.625   2.805 -1.9520  1.2077 -1.5774
  191SAPI   C3722141   4.209   7.509   2.957  0.2735 -0.3419 -0.7214
  191SAPI   H7X22142   4.298   7.448   2.986  2.2922  1.7894 -2.0211
  191SAPI   H7Y22143   4.121   7.443   2.945 -0.9345  1.3284 -1.4949
  191SAPI   C3822144   4.194   7.619   3.072  0.2691  0.6611 -0.4452
  191SAPI   H8X22145   4.097   7.671   3.056  0.2955  0.7704 -0.2470
  191SAPI   H8Y22146   4.278   7.690   3.059  2.2440 -1.4981 -0.0777
  191SAPI   C3922147   4.197   7.562   3.215 -0.5585  0.0120 -0.2089
  191SAPI   H9X22148   4.274   7.482   3.218  0.7799  1.2938  1.0140
  191SAPI   H9Y22149   4.093   7.525   3.231 -0.3632 -0.3579  0.2310
  191SAPI  C31022150   4.220   7.673   3.326 -0.0473  0.3568 -0.3092
  191SAPI  H10X22151   4.165   7.766   3.298 -0.4014 -0.0808 -1.1006
  191SAPI  H10Y22152   4.328   7.700   3.333 -0.2318  1.4678 -1.3982
  191SAPI  C31122153   4.150   7.644   3.461  0.4774 -0.8392  0.3139
  191SAPI  H11X22154   4.194   7.555   3.510 -0.7914 -0.8375  1.5054
  191SAPI  H11Y22155   4.040   7.634   3.456  0.1130  0.6429  3.2415
  191SAPI  C31222156   4.182   7.752   3.563 -0.5918  0.6233 -0.2187
  191SAPI  H12X22157   4.126   7.845   3.539 -0.1808  0.5873 -1.3681
  191SAPI  H12Y22158   4.289   7.782   3.562 -0.8966  1.7438 -1.1386
  191SAPI  C31322159   4.124   7.726   3.704  1.1047 -0.5216 -0.0594
  191SAPI  H13X22160   4.198   7.659   3.752  1.2643 -1.8380 -2.0258
  191SAPI  H13Y22161   4.022   7.683   3.691 -0.3882  2.3771  0.9984
  191SAPI  C31422162   4.118   7.859   3.782 -0.6768  0.3370 -0.5412
  191SAPI  H14X22163   4.051   7.924   3.722 -1.3281  0.6620  0.5209
  191SAPI  H14Y22164   4.223   7.898   3.784 -0.9003  0.9916 -1.0029
  191SAPI  C31522165   4.057   7.871   3.915 -0.0883  0.4142 -1.1587
  191SAPI  H15X22166   4.112   7.797   3.977 -2.2410 -0.5668 -0.3080
  191SAPI  H15Y22167   3.950   7.845   3.899  0.3287 -2.3652 -0.0269
  191SAPI  C31622168   4.078   8.010   3.983 -0.4307 -0.5631  0.0803
  191SAPI  H16X22169   4.056   8.091   3.910  0.8999  0.3774  0.6828
  191SAPI  H16Y22170   4.187   8.015   4.000 -0.2543 -0.3500 -1.0466
  191SAPI  C31722171   4.002   8.026   4.115 -0.4187  0.3821 -0.2680
  191SAPI  H17X22172   3.897   8.049   4.090  0.2836  2.4936 -1.5288
  191SAPI  H17Y22173   4.051   8.108   4.171  0.9578  0.4036 -1.4357
  191SAPI  C31822174   4.012   7.910   4.215 -0.1085  0.4009 -0.7203
  191SAPI  H18X22175   3.942   7.928   4.300  1.8214  1.2577  0.7479
  191SAPI  H18Y22176   4.110   7.884   4.259 -0.6381  0.6123  0.6438
  191SAPI  H18Z22177   3.989   7.811   4.170  3.4204 -1.6823  1.5590
  192SAPI   C1222178   6.017   1.526   1.770 -0.1735 -0.6909  0.0477
  192SAPI    H222179   6.051   1.444   1.703  0.4941 -0.4807  0.1240
  192SAPI    O222180   5.966   1.620   1.673 -0.0421  0.2995  0.0001
  192SAPI   HO222181   6.008   1.605   1.588 -1.5721 -1.4401 -0.5195
  192SAPI   C1322182   5.917   1.470   1.867 -0.5319 -0.1373  0.5246
  192SAPI    H322183   5.975   1.392   1.920 -0.4633 -0.4361  0.0163
  192SAPI    O322184   5.807   1.417   1.795 -0.3640 -0.3456  0.2785
  192SAPI   HO322185   5.748   1.486   1.764 -0.1944  0.1194  0.9782
  192SAPI   C1422186   5.873   1.576   1.969  0.5365 -0.6739 -0.0650
  192SAPI    H422187   5.783   1.630   1.935 -0.3751 -2.1850 -0.1638
  192SAPI    O422188   5.820   1.514   2.088 -0.4743 -0.5932 -0.1543
  192SAPI   HO422189   5.729   1.488   2.069 -2.4797  2.3542  3.8475
  192SAPI   C1522190   5.974   1.692   2.000  0.5746 -0.3644  0.2704
  192SAPI    H522191   6.012   1.672   2.103 -0.1774  1.2917  0.9084
  192SAPI    O522192   5.911   1.819   2.002  0.2845 -0.0567  0.6603
  192SAPI   HO522193   5.834   1.815   2.059  0.4005  0.2546  0.8347
  192SAPI   C1622194   6.099   1.702   1.916  0.0965 -0.1139  0.1742
  192SAPI    H622195   6.084   1.779   1.838 -0.7961 -0.2826  0.1738
  192SAPI    O622196   6.204   1.748   1.996 -0.0845 -0.4035 -0.4331
  192SAPI   HO622197   6.255   1.813   1.947 -0.5646  0.4465  0.1629
  192SAPI   C1122198   6.138   1.580   1.847 -0.0213  0.1001  0.1600
  192SAPI    H122199   6.157   1.513   1.934  0.7308  0.6126  0.4060
  192SAPI     P22200   6.356   1.471   1.766 -0.3944 -0.0185  0.5536
  192SAPI   O1322201   6.481   1.511   1.685  0.7104 -0.2430 -0.0128
  192SAPI   O1422202   6.298   1.348   1.718  0.8059  0.1295 -0.4017
  192SAPI   O1222203   6.256   1.601   1.768  0.3908  0.0224  0.5289
  192SAPI   O1122204   6.400   1.470   1.917 -0.3378  0.6066 -0.4806
  192SAPI    C122205   6.384   1.341   1.988 -0.4488 -0.0080 -0.0934
  192SAPI    HA22206   6.277   1.310   1.996 -0.9698  0.8267 -2.7575
  192SAPI    HB22207   6.442   1.256   1.948 -0.1677 -0.1167  0.5312
  192SAPI    C222208   6.426   1.377   2.131 -0.4059 -0.0147 -0.2900
  192SAPI    HS22209   6.527   1.423   2.121 -1.1497  1.2404 -2.6911
  192SAPI   O2122210   6.417   1.250   2.207  0.0606 -0.2402 -0.0741
  192SAPI   C2122211   6.529   1.191   2.220 -0.0877  0.3370  0.4206
  192SAPI   O2222212   6.633   1.231   2.173  0.0425 -0.3393 -0.0330
  192SAPI   C2222213   6.513   1.061   2.301 -0.2617  0.0558 -0.1999
  192SAPI   H2R22214   6.418   1.064   2.358 -0.8955 -0.8357 -1.1899
  192SAPI   H2S22215   6.511   0.972   2.235 -0.8370 -0.0238 -0.0779
  192SAPI    C322216   6.342   1.495   2.192  0.6548 -0.3717 -1.1451
  192SAPI    HX22217   6.237   1.458   2.192  0.2607  0.6456  0.3737
  192SAPI    HY22218   6.338   1.592   2.137 -0.1416  1.3854  1.7756
  192SAPI   O3122219   6.384   1.523   2.328 -0.7241 -0.0519 -0.1349
  192SAPI   C3122220   6.292   1.533   2.418  0.4581 -0.0099 -0.4169
  192SAPI   O3222221   6.173   1.528   2.405  0.1563 -0.2330 -0.0546
  192SAPI   C3222222   6.363   1.561   2.555 -0.8976  0.0373  0.2940
  192SAPI   H2X22223   6.414   1.659   2.555  0.1299 -0.4666  1.5529
  192SAPI   H2Y22224   6.436   1.478   2.568  0.5387  0.9940 -1.3063
  192SAPI   C2322225   6.617   1.040   2.413  0.2320 -0.2782 -0.0934
  192SAPI   H3R22226   6.721   1.030   2.376  0.4953  0.2321  0.4863
  192SAPI   H3S22227   6.589   0.946   2.465 -0.2422  0.2153  0.5493
  192SAPI   C2422228   6.612   1.159   2.507 -0.5392 -0.7783  0.5957
  192SAPI   H4R22229   6.622   1.247   2.441 -1.1515 -0.1960  1.2596
  192SAPI   H4S22230   6.702   1.178   2.569 -0.1431  1.2985 -0.5246
  192SAPI   C2522231   6.487   1.187   2.590 -0.0159  0.6242 -0.4813
  192SAPI   H5R22232   6.392   1.185   2.536 -0.7544 -2.5443  0.7470
  192SAPI   C2622233   6.483   1.181   2.728  1.0653  0.0411 -0.2069
  192SAPI   H6R22234   6.380   1.179   2.766  0.1899 -1.2376 -2.4479
  192SAPI   C2722235   6.599   1.155   2.823  0.2334 -0.0437  0.0511
  192SAPI   H7R22236   6.685   1.113   2.766 -1.4912  0.2348 -2.9805
  192SAPI   H7S22237   6.559   1.080   2.895  1.1804 -0.8371 -0.2155
  192SAPI   C2822238   6.624   1.289   2.887 -0.7702 -0.3808 -0.0896
  192SAPI   H8R22239   6.640   1.372   2.817 -0.3559  1.7064  2.3070
  192SAPI   C2922240   6.625   1.327   3.017  0.8427  0.0812  0.2189
  192SAPI   H9R22241   6.648   1.433   3.035  0.4560  0.2566 -0.3065
  192SAPI  C21022242   6.592   1.235   3.136 -0.7556  0.2400  0.8016
  192SAPI  H10R22243   6.688   1.217   3.190 -0.2105  1.2371  0.2001
  192SAPI  H10S22244   6.549   1.140   3.100  0.5617 -0.2629  0.5206
  192SAPI  C21122245   6.502   1.296   3.241  0.6887  0.2049 -0.1639
  192SAPI  H11R22246   6.491   1.406   3.245 -1.7242 -0.0260  1.3395
  192SAPI  C21222247   6.419   1.225   3.323 -0.2226 -0.7035  0.0614
  192SAPI  H12R22248   6.346   1.270   3.391  1.7559 -0.9124  2.4297
  192SAPI  C21322249   6.405   1.080   3.314 -0.0090  0.2705  0.2349
  192SAPI  H13R22250   6.448   1.042   3.409  1.3268 -1.0303 -0.8517
  192SAPI  H13S22251   6.455   1.029   3.229 -0.4531 -0.8783  0.6386
  192SAPI  C21422252   6.260   1.045   3.306 -0.1187  0.7989  0.3734
  192SAPI  H14R22253   6.199   1.048   3.398 -1.1107 -0.9464 -0.1888
  192SAPI  C21522254   6.188   0.987   3.204  0.2826 -0.5451  0.0311
  192SAPI  H15R22255   6.082   0.962   3.220  0.0047  0.3553 -0.2988
  192SAPI  C21622256   6.237   0.971   3.064 -0.1643  0.3429 -0.5009
  192SAPI  H16R22257   6.347   0.951   3.064  0.2688  2.4588  0.2265
  192SAPI  H16S22258   6.214   1.061   3.003 -2.8855 -0.7199 -1.1679
  192SAPI  C21722259   6.161   0.855   3.004 -0.7918 -0.3908 -0.5926
  192SAPI  H17R22260   6.054   0.875   3.024 -0.8338 -1.6266  0.5691
  192SAPI  H17S22261   6.185   0.764   3.063  0.6726 -0.5193 -1.3289
  192SAPI  C21822262   6.173   0.839   2.852 -1.0539 -0.2015 -0.3942
  192SAPI  H18R22263   6.142   0.939   2.816 -1.5741  0.0092  0.6340
  192SAPI  H18S22264   6.112   0.755   2.811 -0.8249 -0.8016  0.4777
  192SAPI  C21922265   6.314   0.806   2.808 -0.7109 -0.4859  0.1276
  192SAPI  H19R22266   6.349   0.712   2.855  0.2557  1.0470  2.6849
  192SAPI  H19S22267   6.381   0.879   2.857  0.0545 -0.4542 -0.9311
  192SAPI  C22022268   6.343   0.813   2.659  0.2832  0.3552  0.3231
  192SAPI  H20R22269   6.439   0.761   2.636  0.2479 -0.5057  1.9576
  192SAPI  H20S22270   6.339   0.918   2.625 -2.5224  0.3699  0.5134
  192SAPI  H20T22271   6.271   0.743   2.611  0.7739 -0.8604  1.2757
  192SAPI   C3322272   6.263   1.568   2.674  0.1389 -0.3126 -0.1061
  192SAPI   H3X22273   6.218   1.467   2.687 -0.0435 -0.3874 -1.1889
  192SAPI   H3Y22274   6.181   1.639   2.647 -1.1598 -1.0925  1.6085
  192SAPI   C3422275   6.330   1.616   2.801 -0.0815  1.2022 -0.4697
  192SAPI   H4X22276   6.379   1.713   2.778  1.3083  0.2706 -1.5427
  192SAPI   H4Y22277   6.416   1.551   2.823 -0.4641  0.9804  0.4242
  192SAPI   C3522278   6.231   1.619   2.920  0.0377 -0.4078 -0.3984
  192SAPI   H5X22279   6.182   1.520   2.927  1.8644 -1.3980 -0.8243
  192SAPI   H5Y22280   6.158   1.699   2.897  2.6830  1.9184 -1.3178
  192SAPI   C3622281   6.300   1.644   3.053 -1.0147 -0.3297  0.2360
  192SAPI   H6X22282   6.365   1.734   3.056 -0.6299 -0.6310  1.0305
  192SAPI   H6Y22283   6.370   1.559   3.063 -0.0150  0.4551  0.1283
  192SAPI   C3722284   6.213   1.673   3.177  0.5861 -0.0579  0.3815
  192SAPI   H7X22285   6.165   1.575   3.198 -0.2614 -0.2080 -1.9958
  192SAPI   H7Y22286   6.143   1.759   3.169  1.2928  0.4149 -0.7971
  192SAPI   C3822287   6.304   1.692   3.303 -0.5013  0.2882  0.1686
  192SAPI   H8X22288   6.362   1.787   3.299  1.7619 -1.0519 -1.1847
  192SAPI   H8Y22289   6.366   1.600   3.298 -0.5651  0.2582 -0.1026
  192SAPI   C3922290   6.235   1.673   3.436  0.1601 -0.0315  0.1276
  192SAPI   H9X22291   6.200   1.568   3.434 -0.4291  0.1520  0.3373
  192SAPI   H9Y22292   6.153   1.747   3.451  1.8960  2.4624 -1.8112
  192SAPI  C31022293   6.321   1.688   3.564  0.5192 -0.7760 -0.1689
  192SAPI  H10X22294   6.367   1.789   3.562  1.1105 -1.0458 -0.4013
  192SAPI  H10Y22295   6.409   1.620   3.558  1.7705  0.6643  1.0012
  192SAPI  C31122296   6.240   1.675   3.688  0.2263  0.2296 -0.4310
  192SAPI  H11X22297   6.215   1.567   3.694 -2.1468  0.7764  3.6153
  192SAPI  H11Y22298   6.142   1.726   3.673 -0.2337 -0.1965  0.9118
  192SAPI  C31222299   6.300   1.734   3.817  0.2873 -0.1725 -0.0660
  192SAPI  H12X22300   6.361   1.825   3.798 -0.5840  0.7817  1.4521
  192SAPI  H12Y22301   6.367   1.658   3.861  1.3285  1.0359  0.4727
  192SAPI  C31322302   6.195   1.746   3.923 -0.4679  0.2302 -0.1403
  192SAPI  H13X22303   6.142   1.649   3.928  0.8697 -0.5218  0.0050
  192SAPI  H13Y22304   6.107   1.805   3.888 -2.3792 -2.5247 -0.2326
  192SAPI  C31422305   6.240   1.789   4.065  0.2251 -0.0824  0.4427
  192SAPI  H14X22306   6.152   1.822   4.125  0.0804  1.6284 -0.6384
  192SAPI  H14Y22307   6.293   1.884   4.041 -0.9110  0.4110 -0.1853
  192SAPI  C31522308   6.336   1.691   4.139  0.7584  0.1684  0.3560
  192SAPI  H15X22309   6.417   1.753   4.182  0.1428  1.2185  0.0190
  192SAPI  H15Y22310   6.383   1.618   4.070 -0.2056 -1.5177  1.3808
  192SAPI  C31622311   6.268   1.618   4.253  0.8210  0.4969 -0.1958
  192SAPI  H16X22312   6.233   1.688   4.332 -0.4473 -1.0671  0.6917
  192SAPI  H16Y22313   6.339   1.555   4.312 -0.8413 -1.3426 -0.0564
  192SAPI  C31722314   6.145   1.536   4.213  0.2096 -0.1060 -0.0771
  192SAPI  H17X22315   6.087   1.606   4.149  1.4227  1.7568  0.7664
  192SAPI  H17Y22316   6.089   1.514   4.306 -0.2779 -1.3680 -0.6427
  192SAPI  C31822317   6.169   1.402   4.140 -0.1848 -0.2472  0.5776
  192SAPI  H18X22318   6.076   1.352   4.106 -1.0469  0.8643  1.2351
  192SAPI  H18Y22319   6.222   1.318   4.191 -0.9917  0.3542  2.4580
  192SAPI  H18Z22320   6.205   1.411   4.035 -3.0847 -1.0992 -0.5852
  193SOD    SOD22321   0.062   4.270   7.747 -0.0305 -0.2922 -0.1360
  194SOD    SOD22322   2.809   3.848   1.295 -0.0464  0.5231 -0.1864
  195SOD    SOD22323   5.558   4.513   6.576 -0.0670 -0.0828  0.4523
  196SOD    SOD22324   4.774   1.219   7.391 -0.2507 -0.1315 -0.4395
  197SOD    SOD22325   4.780   0.942   0.863  0.4768  0.6628  0.3067
  198SOD    SOD22326   6.801   2.458   1.923 -0.4285  0.3054 -0.0886
  199SOD    SOD22327   0.790   3.376   7.018  0.4121 -0.2300  0.1650
  200SOD    SOD22328   1.067   3.895   7.245  0.4684 -0.2768  0.8260
  201SOD    SOD22329   4.070   6.409   6.428  0.1315 -0.5765 -0.4573
  202SOD    SOD22330   2.248   6.762   7.846  0.1415 -0.1168 -0.0163
  203SOD    SOD22331   6.846   1.240   1.463 -0.3228  0.3152  0.2848
  204SOD    SOD22332   0.527   1.680   8.368  0.1947  0.1264  0.3622
  205SOD    SOD22333   2.140   4.452   0.115  0.0864  0.0169  0.4365
  206SOD    SOD22334   6.525   5.812   7.010  0.6419  0.2358 -0.2072
  207SOD    SOD22335   1.984   1.643   2.358  0.0915 -0.1683 -0.2150
  208SOD    SOD22336   3.829   5.773   7.196 -0.0238 -0.0513  0.1510
  209SOD    SOD22337   5.954   6.778   8.530 -0.0934  0.4502 -0.0917
  210SOD    SOD22338   4.350   2.915   7.822 -0.5408  0.4153  0.1262
  211SOD    SOD22339   3.987   3.325   2.050  0.3598  0.3179 -0.2169
  212SOD    SOD22340   2.254   1.044   0.456 -0.4012 -0.0534  0.2353
  213SOD    SOD22341   4.324   6.124   1.509 -0.4892 -0.4174 -0.2270
  214SOD    SOD22342   0.479   5.804   6.966 -0.4655  0.1611 -0.3638
  215SOD    SOD22343   2.042   4.296   7.296 -0.0550 -0.1953 -0.1074
  216SOD    SOD22344   3.931   4.771   0.417  0.3991  0.4117  0.0369
  217SOD    SOD22345   5.344   3.546   1.208  0.2439 -0.0963 -0.6621
  218SOD    SOD22346   6.913   4.091   1.854  0.1773  0.4725 -0.0172
  219SOD    SOD22347   5.873   2.328   0.870  0.0215  0.3183  0.2116
  220SOD    SOD22348   2.757   3.394   7.279  0.1130 -0.2545 -0.2112
  221SOD    SOD22349   6.471   4.519   2.147 -0.4034  0.8514 -0.0489
  222SOD    SOD22350   1.679   6.411   7.018  0.3265 -0.1250  0.0580
  223SOD    SOD22351   4.321   2.909   7.147  0.1188  0.5178 -0.1229
  224SOD    SOD22352   3.561   2.859   1.059  0.3388  0.0296  0.2840
  225SOD    SOD22353   2.631   0.619   7.494 -0.0914  0.2228 -0.2002
  226SOD    SOD22354   5.728   0.753   7.599 -0.1984  0.1337  0.0785
  227SOD    SOD22355   1.113   0.269   2.144  0.1834 -0.0150  0.1067
  228SOD    SOD22356   0.260   3.553   8.067 -0.7595 -0.1963 -0.1948
  229SOD    SOD22357   0.650   3.786   6.569  0.1491 -0.5412 -0.2853
  230CLA    CLA22358   0.291   3.105   8.339 -0.2709  0.2669  0.4045
  231CLA    CLA22359   2.950   4.903   7.555 -0.2447  0.5370 -0.1004
  232CLA    CLA22360   3.807   3.222   0.274  0.1567  0.0831 -0.3368
  233CLA    CLA22361   0.342   4.519   1.306  0.3168 -0.2780  0.0976
  234CLA    CLA22362   6.799   6.492   0.086 -0.3939 -0.0321  0.2691
  235CLA    CLA22363   1.138   2.804   7.617 -0.0959 -0.1174  0.0945
  236CLA    CLA22364   6.902   1.919   0.785 -0.2136 -0.1940 -0.0435
  237CLA    CLA22365   0.583   6.682   7.815  0.2447 -0.2414  0.0341
  238CLA    CLA22366   5.359   3.062   0.338 -0.2860  0.3266 -0.0132
  239CLA    CLA22367   3.517   6.271   1.492 -0.0164 -0.5077 -0.0009
  240CLA    CLA22368   3.875   4.412   0.979 -0.0793 -0.1160 -0.2044
  241CLA    CLA22369   2.529   3.659   8.072  0.0848  0.2707  0.1455
  242CLA    CLA22370   1.721   4.286   7.518  0.0374 -0.1581  0.0682
  243CLA    CLA22371   3.824   6.385   6.837 -0.2918  0.0316  0.2698
  244CLA    CLA22372   3.126   2.556   1.211  0.1569  0.0292 -0.4002
  245CLA    CLA22373   5.100   0.160   0.034 -0.0764 -0.1630  0.0710
  246CLA    CLA22374   0.955   5.126   7.933  0.0390 -0.2532  0.2843
  247TIP3   OH222375   2.091   1.836   6.366 -0.3428  0.0828  0.0501
  247TIP3    H122376   2.160   1.895   6.336  2.1090 -1.9033  1.4284
  247TIP3    H222377   2.061   1.874   6.448 -0.3225  0.5069 -0.1321
  248TIP3   OH222378   0.709   1.961   7.745  0.2278 -0.3334  0.3847
  248TIP3    H122379   0.786   2.018   7.740 -0.4490  0.5259 -0.9089
  248TIP3    H222380   0.722   1.896   7.676 -0.1804 -0.2006  0.1769
  249TIP3   OH222381   1.600   4.613   8.398  0.3566  0.0563 -0.0700
  249TIP3    H122382   1.668   4.636   8.462 -0.7758 -0.2508  1.3177
  249TIP3    H222383   1.647   4.602   8.316  1.7306  1.6319  0.4326
  250TIP3   OH222384   4.349   3.587   1.445 -0.1463 -0.9042  0.1648
  250TIP3    H122385   4.355   3.491   1.447  0.9577 -0.8677 -0.4279
  250TIP3    H222386   4.387   3.612   1.361 -0.4298  0.0603  0.3078
  251TIP3   OH222387   1.324   0.304   0.931  0.0178  0.4682 -0.1949
  251TIP3    H122388   1.273   0.347   0.999  2.0251  0.2956  1.5344
  251TIP3    H222389   1.292   0.214   0.930 -1.2811  0.9216 -0.8091
  252TIP3   OH222390   6.210   4.507   8.288 -0.1238 -0.0142  0.4435
  252TIP3    H122391   6.200   4.563   8.211 -1.3138  1.4665  1.6003
  252TIP3    H222392   6.121   4.482   8.311  0.1290  0.2219  1.7775
  253TIP3   OH222393   0.528   5.563   7.041  0.5203  0.0961 -0.2822
  253TIP3    H122394   0.554   5.505   6.970  0.3839 -0.0345 -0.2274
  253TIP3    H222395   0.609   5.580   7.090  0.4094 -0.7514  0.2101
  254TIP3   OH222396   1.675   4.857   1.288 -0.3559 -0.0954  0.4021
  254TIP3    H122397   1.686   4.814   1.373 -1.5959  1.2228  1.2844
  254TIP3    H222398   1.593   4.822   1.254 -1.2741  1.3513  1.0386
  255TIP3   OH222399   0.221   0.642   0.193  0.1900  0.1963 -0.1205
  255TIP3    H122400   0.253   0.560   0.230  0.0278  1.5327  3.2620
  255TIP3    H222401   0.300   0.694   0.179  0.0666  0.6586  0.8758
  256TIP3   OH222402   3.726   3.982   8.447 -0.2157 -0.5728  0.1841
  256TIP3    H122403   3.713   3.936   8.530 -1.7119 -1.2176 -0.3645
  256TIP3    H222404   3.807   3.945   8.411 -0.9044 -2.1665  0.1850
  257TIP3   OH222405   4.359   2.921   7.585 -0.3469  0.3502 -0.2206
  257TIP3    H122406   4.399   3.007   7.573 -0.8215  0.9981  2.1714
  257TIP3    H222407   4.267   2.933   7.560 -0.2259  0.2951 -0.6976
  258TIP3   OH222408   0.896   6.440   1.686  0.0158 -0.1396 -0.8346
  258TIP3    H122409   0.824   6.411   1.630 -0.1106  1.1730 -1.3913
  258TIP3    H222410   0.974   6.426   1.633  0.1648 -1.3512 -0.3169
  259TIP3   OH222411   5.949   4.462   0.357  0.0785  0.2755  0.1277
  259TIP3    H122412   5.972   4.369   0.349 -2.9590 -0.6777  1.2961
  259TIP3    H222413   5.868   4.472   0.308 -0.2167  2.0821  0.9004
  260TIP3   OH222414   5.146   2.752   1.886 -0.3792  0.1815  0.3242
  260TIP3    H122415   5.063   2.800   1.888 -0.8783 -0.6529  1.8929
  260TIP3    H222416   5.120   2.660   1.894  0.6998 -0.0901  0.8531
  261TIP3   OH222417   0.157   3.130   7.269  0.1152  0.0239  0.3058
  261TIP3    H122418   0.216   3.186   7.218 -0.4519  1.8030  1.4834
  261TIP3    H222419   0.117   3.190   7.333  0.3854 -1.9571  2.4746
  262TIP3   OH222420   5.707   4.029   8.397  0.1489  0.3012 -0.2705
  262TIP3    H122421   5.724   3.950   8.449 -0.7903 -0.3946 -0.9784
  262TIP3    H222422   5.625   4.063   8.432 -0.0656  0.2840 -0.7405
  263TIP3   OH222423   4.881   6.739   6.780 -0.4548 -0.0337  0.5804
  263TIP3    H122424   4.923   6.673   6.835  1.5221  0.4882 -0.2087
  263TIP3    H222425   4.918   6.822   6.808 -1.2792  0.5140  0.1122
  264TIP3   OH222426   1.837   0.586   8.301  0.5457 -0.0753  0.1149
  264TIP3    H122427   1.882   0.513   8.257  1.5728  0.6771 -0.1112
  264TIP3    H222428   1.825   0.651   8.232  2.0551  1.0643  0.8842
  265TIP3   OH222429   2.901   6.751   6.949  0.0785 -0.5363  0.4161
  265TIP3    H122430   2.880   6.758   6.856  1.0450  1.2665  0.2788
  265TIP3    H222431   2.962   6.677   6.955  0.0214 -0.6528 -0.3861
  266TIP3   OH222432   2.843   1.835   7.822 -0.4537 -0.1988 -0.0260
  266TIP3    H122433   2.748   1.826   7.831 -0.6901  1.1899 -0.9170
  266TIP3    H222434   2.871   1.874   7.905 -0.6626 -0.5555  0.2169
  267TIP3   OH222435   0.209   5.394   2.181 -0.3584 -0.3897 -0.0038
  267TIP3    H122436   0.282   5.333   2.185 -0.5470 -0.5573  3.0490
  267TIP3    H222437   0.160   5.368   2.102  1.0434 -2.4061 -0.2771
  268TIP3   OH222438   2.844   3.097   8.495  0.3753  0.4739 -0.3598
  268TIP3    H122439   2.903   3.027   8.521  0.4124  0.6492  0.0318
  268TIP3    H222440   2.901   3.170   8.470  0.3499  0.1529 -1.3854
  269TIP3   OH222441   6.652   2.296   1.288 -0.0069  0.3965 -0.4817
  269TIP3    H122442   6.584   2.307   1.354  0.6492 -0.8992  0.4483
  269TIP3    H222443   6.717   2.363   1.309 -0.8753  1.5366 -1.2799
  270TIP3   OH222444   1.671   2.936   7.195  0.3271  0.5619 -0.1680
  270TIP3    H122445   1.586   2.904   7.224 -0.7017  1.4887 -1.9862
  270TIP3    H222446   1.730   2.861   7.204 -1.2637 -0.8589 -1.2157
  271TIP3   OH222447   0.986   2.762   8.115 -0.5927  0.1498 -0.0062
  271TIP3    H122448   0.934   2.762   8.195 -2.0617  0.5364 -0.9271
  271TIP3    H222449   0.972   2.675   8.077  2.0544 -0.9707  1.3137
  272TIP3   OH222450   3.456   2.615   1.188  0.4148  0.0975 -0.7492
  272TIP3    H122451   3.364   2.591   1.184  0.5510 -0.6191  0.0431
  272TIP3    H222452   3.500   2.553   1.129  0.6220 -0.9134  0.4178
  273TIP3   OH222453   2.764   4.273   2.170 -0.3361 -0.2720  0.4743
  273TIP3    H122454   2.846   4.245   2.130 -0.1011  1.4854 -0.3344
  273TIP3    H222455   2.752   4.213   2.244  1.7615 -0.4558  0.7208
  274TIP3   OH222456   4.652   1.930   0.396  0.0577 -0.2367  0.0861
  274TIP3    H122457   4.643   1.875   0.474 -0.3025 -2.4814 -1.4239
  274TIP3    H222458   4.565   1.964   0.380 -0.2114 -0.9908 -0.1220
  275TIP3   OH222459   0.521   1.672   8.130 -0.0059 -0.1971 -0.1210
  275TIP3    H122460   0.456   1.633   8.072  1.0799 -3.3240  0.5484
  275TIP3    H222461   0.597   1.688   8.074 -0.0743 -0.0685 -0.1787
  276TIP3   OH222462   1.158   4.433   1.922  0.1608  0.1874  0.6417
  276TIP3    H122463   1.084   4.490   1.942 -0.4923 -0.9921  1.7326
  276TIP3    H222464   1.235   4.485   1.944 -0.3235  1.3189 -0.2043
  277TIP3   OH222465   6.092   1.216   6.926 -0.3128  0.0462 -0.5472
  277TIP3    H122466   6.133   1.239   6.843  1.1690 -0.2475  0.0577
  277TIP3    H222467   6.159   1.163   6.971 -1.3075 -0.2853  0.5786
  278TIP3   OH222468   5.488   6.130   0.569  0.0075 -0.3873 -0.3406
  278TIP3    H122469   5.412   6.079   0.598 -1.4237  1.7845 -0.0887
  278TIP3    H222470   5.462   6.167   0.485  1.3244 -0.6321 -0.8932
  279TIP3   OH222471   0.516   3.470   8.202 -0.3153  0.1180  0.1689
  279TIP3    H122472   0.585   3.477   8.136  0.7975  0.1147  1.2863
  279TIP3    H222473   0.535   3.388   8.248 -2.7537 -1.4070 -1.2944
  280TIP3   OH222474   0.491   1.724   0.371  0.0646 -0.8294  0.3098
  280TIP3    H122475   0.520   1.750   0.459  3.7292 -0.3175 -0.8521
  280TIP3    H222476   0.468   1.806   0.328  0.8569 -0.7471  0.0234
  281TIP3   OH222477   1.296   6.700   1.805 -0.2258  0.3079  0.3960
  281TIP3    H122478   1.285   6.728   1.896 -1.0733 -1.3337  0.8454
  281TIP3    H222479   1.390   6.689   1.794 -0.0521  1.3193  0.8086
  282TIP3   OH222480   3.701   3.867   2.133  0.4683 -0.5269  0.0218
  282TIP3    H122481   3.737   3.808   2.067 -0.6521 -2.3662  0.9560
  282TIP3    H222482   3.610   3.839   2.144  0.3790  0.2518  1.7381
  283TIP3   OH222483   3.896   3.115   7.907 -0.0222  0.2834  0.2334
  283TIP3    H122484   3.878   3.064   7.987  0.0142 -1.2138 -0.6768
  283TIP3    H222485   3.819   3.100   7.852  0.3490  0.5736 -0.3673
  284TIP3   OH222486   4.922   0.654   1.218 -0.2607  0.0383 -0.0188
  284TIP3    H122487   4.926   0.747   1.243 -0.3290 -0.0958  0.5033
  284TIP3    H222488   4.916   0.608   1.302  1.9005 -0.5566 -0.1188
  285TIP3   OH222489   3.639   6.678   7.123  0.0055 -0.4477  0.0119
  285TIP3    H122490   3.547   6.704   7.120  0.0558 -0.2940 -0.2810
  285TIP3    H222491   3.637   6.585   7.101 -0.0418 -0.3391 -0.4629
  286TIP3   OH222492   0.142   4.484   7.789  0.3980  0.2013 -0.1229
  286TIP3    H122493   0.102   4.490   7.876 -2.2867 -0.3246 -1.1992
  286TIP3    H222494   0.171   4.572   7.769 -0.2686  0.6391  0.7665
  287TIP3   OH222495   6.428   3.077   8.097 -0.0598  0.2414  0.2806
  287TIP3    H122496   6.379   3.011   8.146 -0.6508  0.9584  0.6893
  287TIP3    H222497   6.384   3.081   8.012  0.9528 -0.9884 -0.3187
  288TIP3   OH222498   0.719   1.060   0.669  0.2046  0.1240 -0.5297
  288TIP3    H122499   0.678   1.141   0.699 -1.2365  0.8704 -4.0794
  288TIP3    H222500   0.649   0.995   0.670  0.6475 -0.3592 -0.3599
  289TIP3   OH222501   4.186   6.591   1.427 -0.3073  0.2957  0.6455
  289TIP3    H122502   4.177   6.681   1.458 -2.0974 -0.3132  2.0612
  289TIP3    H222503   4.096   6.561   1.412  0.1841 -1.5441  1.0903
  290TIP3   OH222504   2.358   0.792   8.411 -0.0214 -0.0545 -0.6146
  290TIP3    H122505   2.399   0.809   8.496 -0.1414 -1.0208 -0.3577
  290TIP3    H222506   2.429   0.803   8.348  0.0218  0.8721 -0.4189
  291TIP3   OH222507   2.789   2.433   6.500  0.1222  0.3333 -0.6032
  291TIP3    H122508   2.857   2.501   6.493  0.2714  0.4655  1.4507
  291TIP3    H222509   2.757   2.421   6.411  4.1745 -1.1107 -2.0970
  292TIP3   OH222510   4.342   0.203   0.334  0.0399  0.0628 -0.1375
  292TIP3    H122511   4.339   0.234   0.425 -0.2879 -2.0699  0.6370
  292TIP3    H222512   4.399   0.126   0.337  1.1925  0.7940 -2.0454
  293TIP3   OH222513   3.403   6.337   0.139 -0.0610  0.1234 -0.1680
  293TIP3    H122514   3.365   6.385   0.213 -0.8785  0.2172 -0.6362
  293TIP3    H222515   3.328   6.308   0.088  0.3346 -2.7676  0.7408
  294TIP3   OH222516   5.514   0.387   1.510  0.4750 -0.5123 -0.3366
  294TIP3    H122517   5.594   0.433   1.485  0.4630 -0.0497  0.4271
  294TIP3    H222518   5.500   0.412   1.602  0.6272 -2.2597  0.2151
  295TIP3   OH222519   2.626   2.024   1.093  0.1814  0.3790 -0.4005
  295TIP3    H122520   2.560   2.022   1.161  0.2597  0.2668 -0.3264
  295TIP3    H222521   2.587   2.076   1.022 -0.4998 -0.7385 -0.8745
  296TIP3   OH222522   4.230   2.473   6.646 -0.4184 -0.1522 -0.1800
  296TIP3    H122523   4.268   2.386   6.648 -3.6346 -1.8052 -2.0733
  296TIP3    H222524   4.290   2.525   6.593  0.2514 -2.0287 -1.3622
  297TIP3   OH222525   4.400   0.521   1.022  0.2083  0.1382  0.0322
  297TIP3    H122526   4.461   0.447   1.031  0.1243  0.0275 -0.2884
  297TIP3    H222527   4.360   0.530   1.108  1.3901  0.8338  0.5363
  298TIP3   OH222528   2.773   4.867   7.117  0.1783  0.1692 -0.1376
  298TIP3    H122529   2.738   4.783   7.088 -1.5194  1.2810 -1.5104
  298TIP3    H222530   2.708   4.931   7.088  2.1426  2.1067 -0.4982
  299TIP3   OH222531   1.670   5.545   7.316  0.3776 -0.1259  0.1955
  299TIP3    H122532   1.756   5.532   7.357  0.8059 -6.0466 -1.7728
  299TIP3    H222533   1.608   5.530   7.387  1.0279 -0.8064  0.6352
  300TIP3   OH222534   4.396   5.730   7.826  0.6309  0.4441 -0.6971
  300TIP3    H122535   4.398   5.784   7.746  0.9433  0.3625 -0.7460
  300TIP3    H222536   4.409   5.640   7.794  1.6326  0.4981 -0.4851
  301TIP3   OH222537   6.775   1.086   6.390  0.1029 -1.1135  0.1438
  301TIP3    H122538   6.686   1.049   6.396 -0.8414  0.8639 -0.8925
  301TIP3    H222539   6.830   1.010   6.370 -1.5609 -2.1620 -0.7326
  302TIP3   OH222540   2.257   4.889   0.703  0.3262 -0.0728  0.1137
  302TIP3    H122541   2.223   4.823   0.764  1.6102 -0.0361  0.9169
  302TIP3    H222542   2.203   4.966   0.717 -1.9557 -1.2232 -1.6435
  303TIP3   OH222543   5.244   3.350   7.264 -0.9263  0.0773 -0.0628
  303TIP3    H122544   5.277   3.410   7.198  1.3303 -0.3528  0.5894
  303TIP3    H222545   5.322   3.306   7.298 -1.8779  0.8462  3.4571
  304TIP3   OH222546   1.528   2.180   0.135  0.1169 -0.3366  0.3275
  304TIP3    H122547   1.460   2.226   0.184  0.0020  1.1106 -1.1247
  304TIP3    H222548   1.596   2.162   0.200 -0.5820  0.3938  1.2898
  305TIP3   OH222549   2.677   4.560   7.289  0.6866  0.4587 -0.2197
  305TIP3    H122550   2.675   4.626   7.359 -0.9214 -0.7718  0.9639
  305TIP3    H222551   2.736   4.492   7.321 -0.5593 -0.4208  0.2817
  306TIP3   OH222552   4.943   1.603   8.078  0.4339 -0.1311 -0.0256
  306TIP3    H122553   4.887   1.574   8.150 -1.3568 -1.0173 -1.6823
  306TIP3    H222554   4.910   1.690   8.055  2.2071  0.9886  1.3296
  307TIP3   OH222555   2.057   6.133   7.637  0.3021  0.0324 -0.2796
  307TIP3    H122556   2.075   6.220   7.602  2.0878 -0.6154 -1.0807
  307TIP3    H222557   1.970   6.141   7.678  0.5312  2.2362 -0.1065
  308TIP3   OH222558   4.373   2.683   8.269  0.3143 -0.1988 -0.1723
  308TIP3    H122559   4.294   2.631   8.283  0.2203 -0.6921 -2.2294
  308TIP3    H222560   4.438   2.644   8.328 -0.4887 -0.9478  0.2399
  309TIP3   OH222561   2.434   3.101   2.389  0.3642  0.1125  0.1048
  309TIP3    H122562   2.409   3.184   2.431  2.3642  0.3798  0.8991
  309TIP3    H222563   2.442   3.123   2.296 -0.1020  0.5626  0.1689
  310TIP3   OH222564   5.214   3.083   8.206 -0.0102  0.0423  0.0584
  310TIP3    H122565   5.226   3.080   8.111  0.4515 -1.1184  0.1368
  310TIP3    H222566   5.208   3.177   8.226  0.2295  0.3202 -1.0691
  311TIP3   OH222567   6.129   0.688   0.971  0.0425  0.1996  0.6535
  311TIP3    H122568   6.039   0.655   0.970 -0.2822  1.0593 -0.7927
  311TIP3    H222569   6.150   0.694   1.064 -1.0911 -0.7915  1.0121
  312TIP3   OH222570   4.024   6.148   6.758  0.0496  0.3803  0.0414
  312TIP3    H122571   3.974   6.225   6.783 -0.6823  0.1570 -0.7013
  312TIP3    H222572   4.015   6.144   6.662  1.3075  0.2169 -0.0898
  313TIP3   OH222573   2.087   3.986   1.327  0.2792 -0.4866  0.6375
  313TIP3    H122574   2.067   4.076   1.354  0.3556 -0.3655  0.2948
  313TIP3    H222575   2.004   3.939   1.339 -0.6034  0.2731 -1.8590
  314TIP3   OH222576   1.047   5.865   6.852 -0.2570 -0.2413  0.3694
  314TIP3    H122577   1.045   5.787   6.796  0.2523  0.0814 -0.1109
  314TIP3    H222578   0.959   5.902   6.846  0.2500  0.8020 -1.6986
  315TIP3   OH222579   5.642   0.685   1.740  0.3220  0.0787  0.1715
  315TIP3    H122580   5.557   0.705   1.702  0.9830  0.8149 -0.9909
  315TIP3    H222581   5.625   0.674   1.834 -1.4086 -2.1502 -0.3359
  316TIP3   OH222582   2.195   3.112   0.221 -0.1049 -0.4699  0.5547
  316TIP3    H122583   2.220   3.051   0.291 -1.8871 -1.3148  0.5059
  316TIP3    H222584   2.109   3.082   0.192 -0.5847  1.4560 -0.2014
  317TIP3   OH222585   6.823   5.003   0.145 -0.0306  0.4308 -0.3399
  317TIP3    H122586   6.754   5.068   0.149 -0.5287 -0.0239 -1.2689
  317TIP3    H222587   6.780   4.920   0.168  0.4886  0.3323  0.3339
  318TIP3   OH222588   1.106   0.209   7.160  0.3754  0.0420  0.4256
  318TIP3    H122589   1.106   0.136   7.221  0.9354 -1.6930 -1.5529
  318TIP3    H222590   1.106   0.287   7.216 -1.8271 -1.3923  2.6324
  319TIP3   OH222591   1.651   1.585   1.814 -0.1548  0.3980 -0.2923
  319TIP3    H122592   1.677   1.509   1.761 -1.2817 -0.1124 -0.1300
  319TIP3    H222593   1.573   1.556   1.861  0.1432  1.2404  0.7614
  320TIP3   OH222594   1.976   3.884   0.593 -0.4014 -0.2274 -0.5914
  320TIP3    H122595   2.054   3.912   0.641 -0.7168 -2.9875  1.8896
  320TIP3    H222596   2.009   3.823   0.527 -0.3171 -0.4866 -0.3179
  321TIP3   OH222597   4.904   3.116   2.098  0.4517 -0.1780  0.2501
  321TIP3    H122598   4.955   3.182   2.051 -1.0920  1.3367  0.5850
  321TIP3    H222599   4.924   3.131   2.190  0.2441 -0.2827  0.3133
  322TIP3   OH222600   5.018   6.876   8.440 -0.0367 -0.0749  0.2832
  322TIP3    H122601   4.941   6.835   8.480  0.0005 -0.2295  0.1992
  322TIP3    H222602   5.039   6.949   8.499 -1.0295  0.7833 -0.3934
  323TIP3   OH222603   5.701   5.249   7.275  0.4372 -0.4042 -0.7015
  323TIP3    H122604   5.628   5.240   7.214  0.2459  0.0177 -0.5429
  323TIP3    H222605   5.673   5.319   7.335  0.6811 -0.7146 -0.2229
  324TIP3   OH222606   5.971   0.701   7.382 -0.0397 -0.5658 -0.7408
  324TIP3    H122607   5.957   0.635   7.450  0.2445 -0.3256 -0.4494
  324TIP3    H222608   5.908   0.770   7.403  1.3241  0.3868  0.4053
  325TIP3   OH222609   0.600   2.009   7.080  0.0170 -0.6339 -0.2083
  325TIP3    H122610   0.621   2.062   7.003 -0.5904  1.7810  1.1741
  325TIP3    H222611   0.536   1.946   7.049 -0.2506  0.3128 -1.6927
  326TIP3   OH222612   3.317   1.820   7.475  0.0326  1.0750 -0.4717
  326TIP3    H122613   3.303   1.753   7.543  0.3998  0.6135 -0.8377
  326TIP3    H222614   3.395   1.867   7.505  0.8705  0.1493 -1.1043
  327TIP3   OH222615   3.143   0.992   6.031  0.6764 -0.5137 -0.0119
  327TIP3    H122616   3.111   0.904   6.053 -0.6997 -0.5512 -1.9663
  327TIP3    H222617   3.066   1.048   6.037  1.3472  0.3988  0.2579
  328TIP3   OH222618   6.805   0.849   1.316  0.3440  0.6701  0.3402
  328TIP3    H122619   6.883   0.838   1.261 -0.3851 -0.6413 -0.4765
  328TIP3    H222620   6.749   0.775   1.294 -2.2698  2.8813 -0.9338
  329TIP3   OH222621   6.314   3.662   1.358  0.2767 -0.0046 -0.1451
  329TIP3    H122622   6.242   3.626   1.409  1.5285 -0.9017  1.0481
  329TIP3    H222623   6.343   3.738   1.408  0.9768 -0.4018  0.0619
  330TIP3   OH222624   4.740   6.354   6.906 -0.0766 -0.7304  0.2807
  330TIP3    H122625   4.686   6.278   6.926  1.1055 -1.8128 -0.4824
  330TIP3    H222626   4.790   6.329   6.829 -0.6250  1.3484 -0.8220
  331TIP3   OH222627   5.008   2.846   6.281 -0.8354 -0.1273 -0.3871
  331TIP3    H122628   4.943   2.795   6.233  0.3154  0.4826 -2.7467
  331TIP3    H222629   5.091   2.823   6.240  0.0738  1.3004  0.5866
  332TIP3   OH222630   0.062   0.914   0.073 -0.2965  0.7866 -0.5297
  332TIP3    H122631   0.065   0.818   0.063  2.5201  0.4016  2.3551
  332TIP3    H222632   0.129   0.946   0.013  0.0538  0.7510 -0.1615
  333TIP3   OH222633   1.760   5.854   1.513  0.4448  0.9346 -0.0255
  333TIP3    H122634   1.768   5.940   1.473 -0.4682  1.2606  0.4769
  333TIP3    H222635   1.814   5.797   1.458 -1.6612  1.1121 -2.4359
  334TIP3   OH222636   6.493   5.718   6.801  0.4225 -0.0283  0.1142
  334TIP3    H122637   6.433   5.733   6.728  0.0449 -0.2702  0.3761
  334TIP3    H222638   6.544   5.642   6.774 -1.2548 -1.5449  1.0644
  335TIP3   OH222639   2.580   6.728   7.513 -0.5376 -0.1787 -0.2787
  335TIP3    H122640   2.609   6.724   7.604 -2.4069 -0.8317  0.3372
  335TIP3    H222641   2.653   6.693   7.463  1.1354  1.6070  0.7751
  336TIP3   OH222642   5.409   2.765   2.573  0.2495 -0.1771  0.2271
  336TIP3    H122643   5.429   2.674   2.553  0.1368  0.0874 -1.1823
  336TIP3    H222644   5.472   2.815   2.522 -0.7769  0.5552 -0.3491
  337TIP3   OH222645   4.843   4.832   7.450  0.6564  0.7532 -0.4778
  337TIP3    H122646   4.840   4.845   7.355 -0.8248 -2.0992 -0.9206
  337TIP3    H222647   4.886   4.748   7.462 -0.2716  0.4758  1.2888
  338TIP3   OH222648   1.916   5.609   1.822 -0.4329 -0.4736  0.7357
  338TIP3    H122649   1.847   5.584   1.883 -1.1716 -0.1845  0.0471
  338TIP3    H222650   1.869   5.646   1.747  0.4825 -0.1202  0.3193
  339TIP3   OH222651   4.060   4.052   8.245 -0.2965  0.6002 -0.5016
  339TIP3    H122652   4.018   4.138   8.255 -2.0226 -0.3016  0.7035
  339TIP3    H222653   4.032   4.021   8.159  1.2622  1.6669 -1.4401
  340TIP3   OH222654   6.610   1.058   0.325 -0.0109  0.2392 -0.2774
  340TIP3    H122655   6.621   0.964   0.312  0.6856 -0.0938  2.1617
  340TIP3    H222656   6.696   1.096   0.307 -0.2575  0.4009 -1.1344
  341TIP3   OH222657   3.757   6.884   5.851 -0.1321  0.3462 -0.3720
  341TIP3    H122658   3.698   6.927   5.914  0.8233  0.2554  0.6257
  341TIP3    H222659   3.784   6.955   5.792 -0.2198  0.6682 -0.0331
  342TIP3   OH222660   1.227   4.856   0.111  0.1046 -0.1116 -0.0768
  342TIP3    H122661   1.221   4.811   0.026 -0.0571  0.1478 -0.2046
  342TIP3    H222662   1.227   4.785   0.175  0.0780 -0.3057 -0.2877
  343TIP3   OH222663   2.337   1.764   8.434 -0.5067  0.3080 -0.6703
  343TIP3    H122664   2.409   1.714   8.471 -0.7956  1.1318  1.0806
  343TIP3    H222665   2.325   1.727   8.346  0.7866 -1.1005 -0.2929
  344TIP3   OH222666   6.654   5.533   7.650 -0.5738  0.2312 -0.3024
  344TIP3    H122667   6.633   5.447   7.687  0.9966 -0.8857 -1.8054
  344TIP3    H222668   6.717   5.570   7.712 -0.8503  0.0651  0.0836
  345TIP3   OH222669   1.494   6.725   6.431 -0.4082  0.2253 -0.1419
  345TIP3    H122670   1.408   6.685   6.420 -0.2517  0.0754 -0.8424
  345TIP3    H222671   1.506   6.778   6.352  0.5379 -0.4981 -0.4961
  346TIP3   OH222672   5.505   2.793   7.730 -0.5826 -0.5652  0.1574
  346TIP3    H122673   5.434   2.777   7.794 -0.6549  1.7607  0.7250
  346TIP3    H222674   5.511   2.711   7.681 -2.9762 -1.1945  0.7775
  347TIP3   OH222675   1.915   1.967   7.048 -0.3794 -0.4064  0.3191
  347TIP3    H122676   1.973   2.016   7.106 -1.3349 -0.7993  1.6451
  347TIP3    H222677   1.828   1.982   7.084 -0.8463 -1.8357 -0.1729
  348TIP3   OH222678   3.798   4.928   8.343 -0.0196  0.1610 -0.0725
  348TIP3    H122679   3.866   4.995   8.352 -0.0230  0.3420 -1.1610
  348TIP3    H222680   3.846   4.849   8.315 -0.0341 -0.2649  1.0476
  349TIP3   OH222681   5.244   6.505   0.837 -0.0490 -0.1199  0.0699
  349TIP3    H122682   5.158   6.497   0.795 -0.0543 -1.0328  0.2256
  349TIP3    H222683   5.251   6.426   0.890  0.3181  0.6110  1.1267
  350TIP3   OH222684   3.467   5.362   8.010 -0.3954  0.7702 -0.6725
  350TIP3    H122685   3.472   5.279   7.963  0.1278  0.8890 -0.8347
  350TIP3    H222686   3.531   5.418   7.967 -0.1619  0.9942 -0.0481
  351TIP3   OH222687   6.710   4.155   1.215  0.2009 -0.0459 -0.0083
  351TIP3    H122688   6.649   4.130   1.146  0.8735 -1.1084 -0.2503
  351TIP3    H222689   6.746   4.239   1.187  0.6740 -0.5909 -1.1111
  352TIP3   OH222690   5.483   5.307   1.994 -0.0821 -0.4186  1.1108
  352TIP3    H122691   5.419   5.358   2.044  1.3172  3.7196 -0.8557
  352TIP3    H222692   5.562   5.308   2.049 -0.1939 -0.9150  1.2811
  353TIP3   OH222693   1.083   4.554   0.870  0.7208 -0.1556 -0.1648
  353TIP3    H122694   1.069   4.467   0.906  1.3522 -0.4304 -0.5753
  353TIP3    H222695   1.045   4.613   0.934 -0.9721 -0.7953 -0.5325
  354TIP3   OH222696   6.683   3.958   8.327  0.3327  0.3076  0.3798
  354TIP3    H122697   6.589   3.971   8.332  0.3757  1.7057 -1.3178
  354TIP3    H222698   6.702   3.888   8.390 -2.0685 -1.2667 -0.5224
  355TIP3   OH222699   4.943   2.948   8.322  1.0454  0.3558  0.4202
  355TIP3    H122700   4.948   2.921   8.414  1.3019 -3.7521 -0.6095
  355TIP3    H222701   5.028   2.988   8.304  1.3584  0.3324  1.7255
  356TIP3   OH222702   0.437   5.533   8.521 -0.1041 -0.4606 -0.0091
  356TIP3    H122703   0.374   5.485   8.468  0.0054 -0.1372 -0.4400
  356TIP3    H222704   0.507   5.556   8.460 -0.1712  0.2731  0.1714
  357TIP3   OH222705   1.613   3.692   6.789  0.3418 -0.1953 -0.2444
  357TIP3    H122706   1.649   3.736   6.866  0.8718  1.1532 -1.2239
  357TIP3    H222707   1.577   3.763   6.736  0.9020 -0.9678 -1.7134
  358TIP3   OH222708   6.007   6.852   8.049 -0.4070  0.7700  0.3028
  358TIP3    H122709   6.047   6.769   8.022 -1.7448 -0.5960  2.2438
  358TIP3    H222710   6.070   6.919   8.020  0.6709 -0.8668 -1.4165
  359TIP3   OH222711   1.024   5.506   8.135 -0.0386  0.0915 -0.1329
  359TIP3    H122712   1.105   5.497   8.186  0.5507  2.4440 -0.5474
  359TIP3    H222713   0.961   5.450   8.181  1.2798 -0.2428  1.3766
  360TIP3   OH222714   4.996   4.443   8.558  0.0046 -0.5491 -0.4297
  360TIP3    H122715   4.911   4.399   8.554  0.2201 -1.2970  2.0027
  360TIP3    H222716   4.996   4.502   8.483 -2.8809 -0.1227 -0.1787
  361TIP3   OH222717   5.202   0.032   0.608 -0.4965  0.0028  0.4314
  361TIP3    H122718   5.290   0.054   0.637  0.9599 -0.7082 -2.8994
  361TIP3    H222719   5.183  -0.052   0.650  1.3799 -0.8813 -0.3325
  362TIP3   OH222720   3.382   0.620   6.992 -0.4078  0.2225 -0.4432
  362TIP3    H122721   3.372   0.697   6.935  0.2963 -1.3826 -2.9162
  362TIP3    H222722   3.458   0.640   7.047  0.6468  0.7906 -2.0270
  363TIP3   OH222723   0.568   1.762   7.187 -0.1629  0.1321  0.1547
  363TIP3    H122724   0.623   1.832   7.153  0.5358 -0.3514  0.2826
  363TIP3    H222725   0.500   1.807   7.238 -0.0094  0.7358 -0.1682
  364TIP3   OH222726   3.141   5.070   1.281  0.0129  0.5296  0.3050
  364TIP3    H122727   3.202   5.124   1.231  1.0535  0.7732  1.7598
  364TIP3    H222728   3.095   5.132   1.338  0.3509  0.0413  1.1237
  365TIP3   OH222729   2.279   6.337   0.644  0.4049  0.7847  0.5550
  365TIP3    H122730   2.258   6.391   0.721  3.6508  1.7621  0.9102
  365TIP3    H222731   2.265   6.395   0.570  1.4953  1.3270  0.7590
  366TIP3   OH222732   4.079   4.081   7.429  0.3949  0.2422 -0.3382
  366TIP3    H122733   4.078   4.058   7.522 -0.9210 -1.1320 -0.6671
  366TIP3    H222734   4.170   4.067   7.402  0.2847 -1.8167  0.1847
  367TIP3   OH222735   4.997   6.352   1.433  0.1274 -0.0253  0.1477
  367TIP3    H122736   4.996   6.422   1.498 -0.1887  0.7550 -0.6748
  367TIP3    H222737   5.017   6.272   1.483  0.8911  0.7070  1.0345
  368TIP3   OH222738   6.343   5.671   7.054  0.3891  0.0065  0.1357
  368TIP3    H122739   6.295   5.658   6.972  0.7319  0.0201 -0.0688
  368TIP3    H222740   6.284   5.638   7.122  1.2069 -2.6330 -0.3304
  369TIP3   OH222741   2.324   0.723   8.055  0.4604 -0.6478 -0.0757
  369TIP3    H122742   2.283   0.692   7.975 -2.2859  1.6047  0.3064
  369TIP3    H222743   2.371   0.802   8.029  0.2127 -0.3499  0.3657
  370TIP3   OH222744   1.467   0.947   0.246 -0.4125 -0.3127 -0.3839
  370TIP3    H122745   1.466   0.987   0.333  2.5062  1.3638 -0.9691
  370TIP3    H222746   1.505   1.015   0.190 -1.1897 -1.7409 -2.7679
  371TIP3   OH222747   1.772   2.770   6.671  0.2673 -0.4143 -0.4516
  371TIP3    H122748   1.754   2.738   6.759  0.0660  2.7571  0.7887
  371TIP3    H222749   1.702   2.732   6.617 -0.4151 -1.3438  1.0164
  372TIP3   OH222750   5.085   0.984   7.259 -0.0074  0.0709 -0.1836
  372TIP3    H122751   5.173   1.001   7.227  0.4271  0.7651  1.2931
  372TIP3    H222752   5.065   0.895   7.228  0.1109  0.8739 -2.7948
  373TIP3   OH222753   4.119   3.315   7.932  0.1278 -0.1984 -0.2399
  373TIP3    H122754   4.050   3.249   7.940  0.4573 -0.4691  0.3791
  373TIP3    H222755   4.124   3.356   8.018  0.5445  0.0220 -0.3665
  374TIP3   OH222756   1.671   3.757   7.819 -0.1527 -0.8993  0.4649
  374TIP3    H122757   1.691   3.713   7.901 -0.8868 -1.7042  0.2220
  374TIP3    H222758   1.605   3.822   7.842  0.1367 -0.6533  0.6206
  375TIP3   OH222759   1.218   3.711   7.296  0.1991  0.0617  0.7060
  375TIP3    H122760   1.255   3.726   7.383  1.8771 -0.7170  0.1703
  375TIP3    H222761   1.291   3.725   7.236 -0.4613 -1.1771 -0.4475
  376TIP3   OH222762   2.275   4.712   6.421  0.0899 -0.0486 -0.1212
  376TIP3    H122763   2.262   4.676   6.333  0.4577 -2.0944  0.6217
  376TIP3    H222764   2.359   4.676   6.450 -0.7172 -0.6412  1.6284
  377TIP3   OH222765   2.648   2.325   1.683  0.1338 -0.4375  0.0059
  377TIP3    H122766   2.639   2.293   1.773  0.6148  0.6233  0.4432
  377TIP3    H222767   2.739   2.308   1.661  1.2960  3.1344  1.3066
  378TIP3   OH222768   5.246   3.880   7.313  0.1485  0.5034  0.6355
  378TIP3    H122769   5.195   3.898   7.234 -0.1748  0.1914  0.7709
  378TIP3    H222770   5.334   3.862   7.281  0.4674  2.1636  0.4765
  379TIP3   OH222771   2.063   2.782   1.196  0.3137  0.2224 -0.5763
  379TIP3    H122772   1.976   2.746   1.184  0.5915 -0.3177 -1.0252
  379TIP3    H222773   2.051   2.858   1.253 -0.4015 -0.0438 -0.3723
  380TIP3   OH222774   2.546   2.791   0.411 -0.1880 -0.4493 -0.4381
  380TIP3    H122775   2.516   2.701   0.401  0.5294 -0.7677  0.1977
  380TIP3    H222776   2.640   2.787   0.394 -0.2847  0.3372 -1.2701
  381TIP3   OH222777   1.348   5.617   0.885 -0.4945 -0.0651  0.2907
  381TIP3    H122778   1.320   5.689   0.942 -0.7876  0.5877 -0.6437
  381TIP3    H222779   1.271   5.563   0.873 -0.3938 -0.2840  0.6308
  382TIP3   OH222780   6.178   1.308   7.280 -0.2398  0.3661  0.6679
  382TIP3    H122781   6.269   1.279   7.270 -0.3669  0.3841 -0.6746
  382TIP3    H222782   6.176   1.395   7.240 -0.4825  1.1138  2.2307
  383TIP3   OH222783   1.851   4.036   7.629 -0.0995  0.2484 -0.0833
  383TIP3    H122784   1.819   3.957   7.586 -0.0917  1.1508 -1.8239
  383TIP3    H222785   1.791   4.105   7.600  0.0916  0.9506  1.1330
  384TIP3   OH222786   1.775   1.273   8.198  0.3490  0.6439  0.4821
  384TIP3    H122787   1.711   1.203   8.206  0.6119  0.2040 -0.9636
  384TIP3    H222788   1.792   1.280   8.104  2.9313  0.2677  0.8348
  385TIP3   OH222789   6.045   0.781   8.446 -0.4371 -0.1439 -0.3044
  385TIP3    H122790   6.004   0.839   8.509 -1.6132  0.1275 -1.2758
  385TIP3    H222791   6.009   0.694   8.466  0.1076 -0.2662  0.1491
  386TIP3   OH222792   5.167   5.736   1.326 -0.5954  0.3573 -0.1672
  386TIP3    H122793   5.234   5.735   1.395 -0.3710 -2.0852 -0.3166
  386TIP3    H222794   5.191   5.663   1.269 -3.2526 -0.4413 -0.3874
  387TIP3   OH222795   6.922   0.829   8.322  0.0978  0.2327 -0.1880
  387TIP3    H122796   7.001   0.793   8.281 -0.6963 -0.5066 -1.1011
  387TIP3    H222797   6.930   0.803   8.414 -0.4318 -2.3993 -0.7847
  388TIP3   OH222798   1.023   3.929   7.805 -0.1982 -0.3835  0.0731
  388TIP3    H122799   1.053   4.013   7.769  1.9912 -1.5084 -0.9250
  388TIP3    H222800   0.942   3.951   7.851  0.1713  2.2333 -0.3299
  389TIP3   OH222801   1.311   4.871   7.789 -0.0602  0.1033 -0.7399
  389TIP3    H122802   1.313   4.942   7.853  0.4446 -0.2113 -0.4056
  389TIP3    H222803   1.367   4.902   7.718  1.0588 -0.4172 -0.1025
  390TIP3   OH222804   6.268   4.550   7.734  0.1249  0.5033  0.5480
  390TIP3    H122805   6.217   4.545   7.653  0.1890 -1.2907  0.5778
  390TIP3    H222806   6.326   4.625   7.721 -0.2256  0.5552 -0.8539
  391TIP3   OH222807   2.936   5.408   1.840  0.2055 -0.3568 -0.2046
  391TIP3    H122808   2.894   5.340   1.894  1.0718 -0.6122  0.1749
  391TIP3    H222809   2.927   5.488   1.892 -0.4642 -0.2570 -0.4679
  392TIP3   OH222810   6.887   6.024   1.186  0.3290  0.3208  0.0428
  392TIP3    H122811   6.900   6.060   1.098 -0.6555  0.4532 -0.0594
  392TIP3    H222812   6.937   6.083   1.243 -0.9120  1.6543 -0.1736
  393TIP3   OH222813   1.267   2.564   0.625  0.0284 -0.3354 -0.2330
  393TIP3    H122814   1.263   2.469   0.610  1.2301 -0.1920 -1.7410
  393TIP3    H222815   1.176   2.593   0.621 -0.4013 -1.4761  0.7335
  394TIP3   OH222816   5.494   5.432   0.502  0.4115 -0.3994  0.1016
  394TIP3    H122817   5.469   5.396   0.587  1.7017 -0.8614  0.3015
  394TIP3    H222818   5.485   5.527   0.512  1.8888 -0.3452  1.2242
  395TIP3   OH222819   4.557   1.431   1.929  0.3300 -0.1514  0.9063
  395TIP3    H122820   4.631   1.461   1.877 -0.3262 -0.2064 -0.0831
  395TIP3    H222821   4.533   1.506   1.983 -0.5801  0.7948 -0.7157
  396TIP3   OH222822   6.570   5.868   6.215  0.6783 -0.6665 -0.1960
  396TIP3    H122823   6.562   5.806   6.143 -0.6272 -0.6833 -0.0660
  396TIP3    H222824   6.576   5.812   6.293 -0.9397 -0.6758 -0.0363
  397TIP3   OH222825   2.821   1.091   1.089 -0.5740 -0.3031 -0.6812
  397TIP3    H122826   2.736   1.049   1.073 -1.7024  1.6062 -0.0175
  397TIP3    H222827   2.813   1.178   1.051  1.0693 -0.0392 -0.5047
  398TIP3   OH222828   2.397   3.901   8.247 -0.6921 -0.0279 -0.0545
  398TIP3    H122829   2.311   3.861   8.257 -1.1027  0.6896 -0.5785
  398TIP3    H222830   2.454   3.830   8.217 -0.3123 -1.3094  3.2282
  399TIP3   OH222831   4.900   4.387   6.231 -0.7735  0.1444 -0.5324
  399TIP3    H122832   4.952   4.346   6.162 -2.3322 -0.5465 -1.3642
  399TIP3    H222833   4.834   4.321   6.254  0.3947 -0.1238  2.5139
  400TIP3   OH222834   4.254   5.781   2.189  0.0768 -0.3615  0.1225
  400TIP3    H122835   4.278   5.754   2.277  0.4854  0.1324  0.1728
  400TIP3    H222836   4.212   5.867   2.200 -1.1103 -0.8959 -0.0376
  401TIP3   OH222837   0.900   6.101   0.925  0.3415  0.1208 -0.5341
  401TIP3    H122838   0.855   6.020   0.902 -0.2203  0.5549 -1.0030
  401TIP3    H222839   0.914   6.095   1.019  0.3929 -0.5580 -0.5782
  402TIP3   OH222840   5.676   3.289   1.441 -0.2861 -0.4823 -0.6553
  402TIP3    H122841   5.752   3.232   1.455  0.1721 -0.0845 -1.4260
  402TIP3    H222842   5.694   3.367   1.493 -0.3176 -0.5199 -0.5879
  403TIP3   OH222843   5.239   3.198   7.951  0.2248 -0.2018 -0.4591
  403TIP3    H122844   5.252   3.225   7.860 -0.3271  2.0623  0.0700
  403TIP3    H222845   5.155   3.152   7.951  1.1629 -2.0531 -1.3809
  404TIP3   OH222846   1.060   3.307   8.397  0.2524  0.0739 -0.3026
  404TIP3    H122847   0.971   3.309   8.431  0.5815  0.4499  0.5880
  404TIP3    H222848   1.097   3.225   8.429  0.5079  0.3440  0.1034
  405TIP3   OH222849   0.885   0.457   6.346 -0.5649  0.2692  0.2908
  405TIP3    H122850   0.881   0.381   6.288 -1.0801  0.9332 -0.5581
  405TIP3    H222851   0.935   0.426   6.422 -3.3118 -1.8840  1.4110
  406TIP3   OH222852   1.163   4.190   1.810 -0.1054  0.2117 -0.0191
  406TIP3    H122853   1.235   4.135   1.841  0.3630  1.2740  0.8548
  406TIP3    H222854   1.156   4.259   1.876 -1.7095  0.3215 -0.2770
  407TIP3   OH222855   0.032   0.205   7.821  0.1672 -0.5314  0.3653
  407TIP3    H122856   0.081   0.262   7.881 -1.7763  0.0534  1.4850
  407TIP3    H222857   0.080   0.209   7.739  1.6251  0.5001  1.2232
  408TIP3   OH222858   0.025   1.348   8.060 -0.6828  0.2354  0.2846
  408TIP3    H122859   0.022   1.379   7.970 -0.5092  1.4171  0.6714
  408TIP3    H222860  -0.062   1.364   8.095 -0.3974  0.9738  0.6931
  409TIP3   OH222861   5.158   5.322   1.074  0.3277  0.0089 -0.2855
  409TIP3    H122862   5.181   5.255   1.010  0.5230 -0.6334  0.4441
  409TIP3    H222863   5.062   5.320   1.079  0.3492 -0.3900 -0.0743
  410TIP3   OH222864   1.681   2.676   6.905  0.1554  0.0796 -0.2864
  410TIP3    H122865   1.728   2.690   6.987 -1.1967 -1.6775  0.8355
  410TIP3    H222866   1.593   2.651   6.931 -0.6808  0.7016 -2.3204
  411TIP3   OH222867   5.044   6.120   8.197  0.0705  0.4403 -0.3133
  411TIP3    H122868   5.121   6.124   8.141  0.5152  0.1325  0.2663
  411TIP3    H222869   5.000   6.204   8.184  1.3791  1.2987  0.5866
  412TIP3   OH222870   2.400   4.578   1.767 -0.1655  0.0594  0.3626
  412TIP3    H122871   2.447   4.495   1.773 -0.1911  0.1244  4.0610
  412TIP3    H222872   2.319   4.563   1.815  0.3096  2.4506  2.0991
  413TIP3   OH222873   6.444   0.411   6.938 -0.0479 -0.1224  0.4059
  413TIP3    H122874   6.523   0.442   6.892  0.6661 -1.5963  0.5767
  413TIP3    H222875   6.399   0.491   6.964  0.6843  0.7578 -0.8939
  414TIP3   OH222876   4.497   6.095   2.078  0.5042 -0.1257 -0.2337
  414TIP3    H122877   4.562   6.047   2.129  0.6911  0.0972 -0.2572
  414TIP3    H222878   4.459   6.158   2.139 -0.9634 -1.4356  0.2515
  415TIP3   OH222879   1.647   0.870   8.464  0.0952 -0.1504 -0.3546
  415TIP3    H122880   1.668   0.818   8.541 -0.3847  1.8461  1.2227
  415TIP3    H222881   1.733   0.898   8.430  0.2971  0.9808  0.9869
  416TIP3   OH222882   4.082   3.155   1.936 -0.1793  0.1671 -0.2267
  416TIP3    H122883   4.173   3.134   1.958  0.0177  1.6831  0.5061
  416TIP3    H222884   4.074   3.132   1.844  0.7358 -0.6517 -0.1217
  417TIP3   OH222885   1.244   1.446   0.715  0.3476  0.0428  0.0665
  417TIP3    H122886   1.259   1.376   0.652  0.2629  0.6857 -0.6831
  417TIP3    H222887   1.227   1.523   0.662  0.2238  0.5928  0.8802
  418TIP3   OH222888   6.610   5.693   0.289 -0.4974  0.3886 -0.1946
  418TIP3    H122889   6.544   5.687   0.358 -1.1323  0.9428 -0.7364
  418TIP3    H222890   6.595   5.778   0.248 -1.3873 -0.6895 -2.2649
  419TIP3   OH222891   6.467   6.582   1.760 -0.3238 -0.1981 -0.0460
  419TIP3    H122892   6.505   6.624   1.837 -1.7353  2.1470 -0.5349
  419TIP3    H222893   6.542   6.560   1.705  0.5545  0.4010  0.8799
  420TIP3   OH222894   1.977   3.380   8.339 -0.3857 -0.2675 -0.1894
  420TIP3    H122895   2.052   3.385   8.280 -1.2859 -0.5445 -1.3948
  420TIP3    H222896   1.969   3.468   8.376  0.0353 -0.0204 -0.6809
  421TIP3   OH222897   0.209   1.769   8.290  0.3993 -0.5508  0.0429
  421TIP3    H122898   0.171   1.734   8.371  1.8156 -0.8010  0.6230
  421TIP3    H222899   0.157   1.729   8.220 -1.7447  0.7479  0.8141
  422TIP3   OH222900   6.664   5.959   6.885 -0.1917  0.5757 -0.2374
  422TIP3    H122901   6.661   5.906   6.806  0.0121  0.8260 -0.4159
  422TIP3    H222902   6.650   6.049   6.854 -3.0690  0.4197  0.3073
  423TIP3   OH222903   4.527   0.212   1.047 -0.1758 -0.1392  0.0705
  423TIP3    H122904   4.608   0.233   1.094  0.5173 -2.5874  0.1336
  423TIP3    H222905   4.550   0.222   0.954 -0.3012  0.6720  0.1170
  424TIP3   OH222906   6.448   1.271   6.372  0.4295  0.3084  0.7560
  424TIP3    H122907   6.361   1.290   6.337  0.7556 -2.0144 -1.6770
  424TIP3    H222908   6.506   1.331   6.327  0.5196 -0.9355 -0.8854
  425TIP3   OH222909   0.238   6.517   8.387  0.5599 -0.1924 -0.3842
  425TIP3    H122910   0.191   6.552   8.462  0.4250 -1.8891  0.3633
  425TIP3    H222911   0.324   6.494   8.422  0.2094 -1.7927 -0.4991
  426TIP3   OH222912   4.557   4.552   7.334  0.2980 -0.0293  0.1532
  426TIP3    H122913   4.514   4.602   7.403  0.7470 -1.4684  1.5321
  426TIP3    H222914   4.644   4.534   7.368  1.5334  1.5330 -1.9540
  427TIP3   OH222915   4.231   2.210   6.762 -0.3204  0.0098  0.0940
  427TIP3    H122916   4.318   2.210   6.724 -0.2396  1.4199  0.2359
  427TIP3    H222917   4.175   2.169   6.696  0.4730 -1.1883  0.1290
  428TIP3   OH222918   6.050   1.578   6.458  0.4941 -0.0786 -0.0545
  428TIP3    H122919   6.051   1.484   6.443  1.0293  0.0607 -0.9333
  428TIP3    H222920   6.001   1.588   6.540 -0.7608 -1.0185 -0.6441
  429TIP3   OH222921   6.266   3.953   6.724 -0.8543  0.2935 -0.2405
  429TIP3    H122922   6.344   4.008   6.710  0.4144 -1.1663  0.7464
  429TIP3    H222923   6.256   3.906   6.641  0.2069 -0.5435  0.0787
  430TIP3   OH222924   3.135   3.536   6.371  0.2000  0.2931 -0.4225
  430TIP3    H122925   3.200   3.470   6.392 -0.0304  0.1286 -0.2161
  430TIP3    H222926   3.136   3.595   6.447 -0.4912 -0.1883 -0.0259
  431TIP3   OH222927   0.463   6.596   6.429  0.3717 -0.2436  0.6535
  431TIP3    H122928   0.541   6.596   6.374 -0.7483 -1.5148 -1.0380
  431TIP3    H222929   0.471   6.516   6.482 -0.6650 -1.5366 -1.0007
  432TIP3   OH222930   6.701   4.099   1.728 -0.4837  0.3959 -0.2535
  432TIP3    H122931   6.617   4.054   1.721 -0.3947 -0.2877  2.0784
  432TIP3    H222932   6.741   4.090   1.642 -2.4969  0.1662 -1.2180
  433TIP3   OH222933   6.129   2.283   8.316 -0.1735 -0.1442 -0.3334
  433TIP3    H122934   6.219   2.260   8.337 -0.8469 -1.7838  0.9713
  433TIP3    H222935   6.096   2.208   8.267 -1.2817 -0.3050  0.6078
  434TIP3   OH222936   1.048   4.806   8.041  0.1751  0.4578  0.2110
  434TIP3    H122937   1.081   4.808   7.951  2.5820  1.0621  1.0060
  434TIP3    H222938   0.988   4.880   8.046  1.9114  2.0067 -0.3284
  435TIP3   OH222939   1.118   6.172   8.454 -0.3175 -0.1699  0.3693
  435TIP3    H122940   1.180   6.230   8.410  0.1188  0.0547  1.2685
  435TIP3    H222941   1.066   6.134   8.383  1.7241 -1.3948 -0.5644
  436TIP3   OH222942   3.337   3.757   1.875  0.5467  0.1006  0.7412
  436TIP3    H122943   3.352   3.663   1.882  0.2571 -0.0690 -0.5494
  436TIP3    H222944   3.412   3.789   1.824 -1.4748 -0.2041 -2.7594
  437TIP3   OH222945   1.933   1.896   7.684  0.2301 -0.3059 -0.2518
  437TIP3    H122946   1.878   1.934   7.752  1.4825  0.7605  0.2133
  437TIP3    H222947   2.000   1.848   7.731  1.2366  0.6200 -0.6836
  438TIP3   OH222948   0.362   1.062   8.187 -0.4458 -0.3642 -0.3519
  438TIP3    H122949   0.286   1.026   8.140  0.0455 -0.3982 -1.1347
  438TIP3    H222950   0.352   1.157   8.178 -1.2685 -0.2930  0.9645
  439TIP3   OH222951   1.734   3.502   7.639  0.0441  0.3617 -0.4403
  439TIP3    H122952   1.755   3.565   7.708  1.9568 -0.7774  0.0939
  439TIP3    H222953   1.650   3.466   7.665  0.8418 -0.2504  1.5184
  440TIP3   OH222954   2.296   0.268   6.127  0.4154  0.2073  0.3360
  440TIP3    H122955   2.296   0.209   6.051  2.2556  0.4225  0.1182
  440TIP3    H222956   2.310   0.211   6.202 -0.8091  0.0635  0.4789
  441TIP3   OH222957   0.379   2.767   1.378 -0.1107 -0.5090  0.3954
  441TIP3    H122958   0.415   2.805   1.458 -1.1308  1.9904 -0.2338
  441TIP3    H222959   0.456   2.755   1.321  0.2591  0.8698  0.5571
  442TIP3   OH222960   5.965   2.086   7.675  0.4167 -0.6543 -0.0878
  442TIP3    H122961   6.040   2.056   7.726  0.5055 -0.0401  0.1532
  442TIP3    H222962   5.903   2.119   7.740  0.4428 -0.0573 -0.3513
  443TIP3   OH222963   4.073   2.779   8.354 -0.1898  0.5343  0.4957
  443TIP3    H122964   4.148   2.786   8.413  1.8114 -1.3533 -1.6675
  443TIP3    H222965   4.103   2.817   8.272 -0.5100 -2.8028 -1.3000
  444TIP3   OH222966   0.855   3.699   7.326  0.5471 -0.0926  0.2351
  444TIP3    H122967   0.806   3.617   7.337  0.8923 -0.3302  0.0301
  444TIP3    H222968   0.795   3.757   7.279 -0.1448  0.1926  1.4274
  445TIP3   OH222969   4.529   0.813   0.101 -0.2502 -0.1462  0.0718
  445TIP3    H122970   4.580   0.736   0.128 -0.6703 -0.7267 -0.7360
  445TIP3    H222971   4.575   0.887   0.141  0.6331 -0.7444  0.2066
  446TIP3   OH222972   0.719   5.454   0.123 -0.2577  0.1752 -0.2561
  446TIP3    H122973   0.771   5.425   0.047  1.2026  0.5107  0.5734
  446TIP3    H222974   0.687   5.372   0.162 -1.5988  0.0262 -1.5892
  447TIP3   OH222975   6.025   4.787   6.256 -0.2621 -0.1585  0.0123
  447TIP3    H122976   5.958   4.767   6.189 -1.5069  0.5944  0.9891
  447TIP3    H222977   6.059   4.872   6.230 -0.2470 -0.1859 -0.0582
  448TIP3   OH222978   6.909   6.828   1.841  0.2265  0.4270  0.5053
  448TIP3    H122979   6.915   6.760   1.908 -0.0414  0.6496  0.7631
  448TIP3    H222980   6.842   6.797   1.781 -0.2164  0.6624  0.8682
  449TIP3   OH222981   0.749   6.631   0.874 -0.4446  0.6269 -0.1616
  449TIP3    H122982   0.838   6.647   0.843 -0.6736  1.9948 -0.1641
  449TIP3    H222983   0.754   6.547   0.921  0.7986  0.6081 -0.3093
  450TIP3   OH222984   1.120   6.634   1.366 -0.2307  0.2483 -0.3038
  450TIP3    H122985   1.053   6.660   1.428  0.4274  1.4352 -0.0554
  450TIP3    H222986   1.075   6.632   1.281 -0.8414 -0.1440  0.0230
  451TIP3   OH222987   5.244   5.703   7.257  0.6162 -0.1003  0.1328
  451TIP3    H122988   5.269   5.779   7.205  1.7253 -0.7751 -0.3693
  451TIP3    H222989   5.313   5.638   7.239 -0.0381 -1.0456  0.9194
  452TIP3   OH222990   0.217   2.530   8.315 -0.2096  0.0798 -0.5698
  452TIP3    H122991   0.146   2.557   8.257 -0.8437 -0.6704 -0.1696
  452TIP3    H222992   0.174   2.475   8.380  0.7584 -0.4581 -0.3708
  453TIP3   OH222993   1.676   6.703   7.411  0.9258 -0.3227 -0.1062
  453TIP3    H122994   1.709   6.688   7.323  1.0953 -3.1115  0.3179
  453TIP3    H222995   1.593   6.654   7.414  0.1609  0.9702  0.8509
  454TIP3   OH222996   0.364   6.339   7.683 -0.2392 -0.8126  0.1294
  454TIP3    H122997   0.323   6.338   7.597  0.0538 -0.6493 -0.0160
  454TIP3    H222998   0.295   6.314   7.744 -1.2094  1.6581  0.1660
  455TIP3   OH222999   4.339   6.395   8.533 -0.0625  0.0373  0.3096
  455TIP3    H123000   4.308   6.430   8.449 -0.3827 -0.8223  0.0575
  455TIP3    H223001   4.270   6.418   8.595 -0.6640 -0.8228 -0.0151
  456TIP3   OH223002   6.067   3.305   7.778  0.0374 -0.8522 -0.3923
  456TIP3    H123003   6.064   3.249   7.700  0.8032 -1.1250 -0.2442
  456TIP3    H223004   6.088   3.392   7.744  0.6815 -1.0318 -0.4749
  457TIP3   OH223005   2.510   2.850   2.491  0.5957  0.0520 -0.4435
  457TIP3    H123006   2.472   2.936   2.473  0.3461  0.0782  0.1935
  457TIP3    H223007   2.600   2.856   2.457  0.9332  0.9259  0.5429
  458TIP3   OH223008   5.927   4.956   7.675  0.2801  0.2941  0.0768
  458TIP3    H123009   6.018   4.985   7.678  0.2215  0.5364 -0.4156
  458TIP3    H223010   5.895   4.987   7.591  0.1078 -0.8691 -0.3109
  459TIP3   OH223011   3.412   5.713   6.644  0.1478 -0.2260  0.2140
  459TIP3    H123012   3.502   5.695   6.673 -0.1986  1.0823  2.3677
  459TIP3    H223013   3.399   5.655   6.569  1.9516 -2.2958  1.3560
  460TIP3   OH223014   4.873   6.268   1.048  0.3399 -0.2326 -0.8148
  460TIP3    H123015   4.881   6.360   1.023  1.2080  0.0280  0.3756
  460TIP3    H223016   4.781   6.257   1.070  0.1328  0.2213 -1.4256
  461TIP3   OH223017   0.926   4.398   0.140 -0.7366  0.3226 -0.3094
  461TIP3    H123018   0.907   4.364   0.053  2.0131  1.0737 -1.3129
  461TIP3    H223019   1.010   4.359   0.163 -0.9218  0.9387  1.5972
  462TIP3   OH223020   4.093   3.082   1.047  0.0955  0.4886 -0.0859
  462TIP3    H123021   4.027   3.074   1.116 -1.9317  0.5882 -1.9195
  462TIP3    H223022   4.150   3.006   1.060 -0.5077  0.2469  1.3663
  463TIP3   OH223023   6.576   6.835   1.297  0.4274  0.5142  0.1697
  463TIP3    H123024   6.540   6.820   1.210  0.4813  0.5100  0.1477
  463TIP3    H223025   6.671   6.841   1.283  0.8317 -2.9405  0.6486
  464TIP3   OH223026   0.439   6.606   7.321 -0.1556 -0.1163  0.1774
  464TIP3    H123027   0.421   6.651   7.403 -0.0792 -0.9718  0.6678
  464TIP3    H223028   0.402   6.664   7.254  3.6750  2.9379  0.3457
  465TIP3   OH223029   2.228   0.521   0.094 -0.0972  0.8172 -0.8798
  465TIP3    H123030   2.194   0.610   0.090 -0.6536  0.5868 -1.5555
  465TIP3    H223031   2.296   0.519   0.026  0.5108  0.9641 -0.2829
  466TIP3   OH223032   5.787   5.559   0.144 -0.1994 -0.2682 -0.7045
  466TIP3    H123033   5.730   5.491   0.182 -3.2091  0.9000 -2.7635
  466TIP3    H223034   5.792   5.626   0.212 -0.4585 -0.8212 -0.1281
  467TIP3   OH223035   4.728   0.978   0.626 -0.3815 -0.0381  0.3757
  467TIP3    H123036   4.751   0.912   0.560  0.6251  0.5696  0.0960
  467TIP3    H223037   4.750   1.061   0.585 -1.1081  0.4447  0.9411
  468TIP3   OH223038   3.882   0.227   7.810  0.1127 -0.1296 -0.5012
  468TIP3    H123039   3.905   0.205   7.900  2.7136  1.6941 -0.6180
  468TIP3    H223040   3.917   0.155   7.757  2.0666  0.6184 -0.3043
  469TIP3   OH223041   4.754   1.549   6.130  0.4958  0.3309 -0.3075
  469TIP3    H123042   4.723   1.554   6.039  0.1069 -2.7226 -0.4199
  469TIP3    H223043   4.675   1.532   6.181  0.8478  1.1381  0.5399
  470TIP3   OH223044   4.317   5.239   7.158  0.5830 -0.3816  0.1720
  470TIP3    H123045   4.247   5.280   7.209 -1.6622 -0.8006 -2.3217
  470TIP3    H223046   4.364   5.313   7.120 -1.5968  0.0807 -1.9167
  471TIP3   OH223047   6.449   0.174   1.242  0.1798  0.1359  0.4815
  471TIP3    H123048   6.430   0.211   1.155  0.7774 -0.7186 -0.0278
  471TIP3    H223049   6.522   0.115   1.227  0.0109 -0.3478  1.4991
  472TIP3   OH223050   5.801   5.866   1.617  0.0328  0.2787 -0.3768
  472TIP3    H123051   5.764   5.878   1.529  1.1793  2.5489 -0.6160
  472TIP3    H223052   5.867   5.798   1.606 -1.9218 -1.7169 -0.5462
  473TIP3   OH223053   0.382   3.926   1.931  0.5796 -0.3944  0.1486
  473TIP3    H123054   0.445   3.963   1.993 -0.0154  0.0506  0.5051
  473TIP3    H223055   0.387   3.831   1.945 -0.2985 -0.2563  1.6618
  474TIP3   OH223056   1.405   4.749   7.503 -0.5342 -0.4040  0.0643
  474TIP3    H123057   1.466   4.821   7.487 -1.0725 -0.2696 -1.5901
  474TIP3    H223058   1.462   4.675   7.525  0.2190 -0.1382 -0.8744
  475TIP3   OH223059   6.332   0.407   8.418  0.0362  0.4383  0.2522
  475TIP3    H123060   6.381   0.362   8.349  1.7028  1.2409  0.8398
  475TIP3    H223061   6.241   0.385   8.401  0.5532 -0.8962 -1.0900
  476TIP3   OH223062   4.865   1.486   7.136 -0.1348 -0.0500 -0.4064
  476TIP3    H123063   4.892   1.551   7.072  1.7179  0.8912  1.2380
  476TIP3    H223064   4.789   1.443   7.095 -0.7615  2.3572 -2.0088
  477TIP3   OH223065   2.226   6.864   0.016  0.4154  0.2203  0.4268
  477TIP3    H123066   2.132   6.850   0.007  0.6109 -0.5299 -0.6990
  477TIP3    H223067   2.257   6.875  -0.074  1.3214  1.0733  0.8189
  478TIP3   OH223068   4.095   0.085   0.458 -0.6192  0.2392 -0.0016
  478TIP3    H123069   4.153   0.049   0.392  0.6348  0.6379  0.8461
  478TIP3    H223070   4.153   0.112   0.529 -1.6910  2.1808  0.1880
  479TIP3   OH223071   2.469   6.472   1.354 -0.3938 -0.3162  0.4593
  479TIP3    H123072   2.433   6.403   1.410  0.9297 -1.7040 -0.3557
  479TIP3    H223073   2.563   6.455   1.352 -0.0194  1.5775  0.2961
  480TIP3   OH223074   0.413   0.130   0.195  0.0434 -0.2979  0.4765
  480TIP3    H123075   0.327   0.172   0.205 -0.4672 -0.9837 -0.8851
  480TIP3    H223076   0.393   0.039   0.173  1.1419 -1.0816  2.4508
  481TIP3   OH223077   6.502   1.881   7.522  0.0645 -0.1818  0.3715
  481TIP3    H123078   6.500   1.899   7.427 -0.4535  1.9284  0.7249
  481TIP3    H223079   6.414   1.906   7.552 -0.7724 -3.4319  1.0571
  482TIP3   OH223080   5.688   3.290   0.675 -0.5551 -0.6607  0.4676
  482TIP3    H123081   5.672   3.206   0.630  0.6837 -0.5588 -0.1999
  482TIP3    H223082   5.707   3.351   0.604  0.6882 -0.3128  1.0880
  483TIP3   OH223083   2.914   4.818   7.861  0.5651 -0.2003  0.5241
  483TIP3    H123084   2.942   4.829   7.770 -0.1072 -1.1259  0.1931
  483TIP3    H223085   2.970   4.747   7.894  2.5078  1.7047  1.6064
  484TIP3   OH223086   5.805   1.768   7.801  0.4034  0.4145  0.0820
  484TIP3    H123087   5.765   1.816   7.728 -0.3870 -1.9152 -1.1312
  484TIP3    H223088   5.736   1.764   7.867  0.3590  0.7027  0.0531
  485TIP3   OH223089   6.369   1.353   0.638 -0.7959 -0.1998  0.2853
  485TIP3    H123090   6.411   1.377   0.556  0.1145  0.0851  0.8207
  485TIP3    H223091   6.285   1.398   0.637 -0.9832 -0.5529 -0.6758
  486TIP3   OH223092   5.762   6.819   1.783 -0.2226 -0.5488 -0.6745
  486TIP3    H123093   5.831   6.857   1.730  1.7030 -1.1604  1.2618
  486TIP3    H223094   5.771   6.725   1.772 -0.7294 -0.6400 -0.3563
  487TIP3   OH223095   2.388   6.796   1.529  0.2266 -0.4076 -0.1275
  487TIP3    H123096   2.348   6.841   1.603  1.3974 -0.1881  0.3915
  487TIP3    H223097   2.314   6.766   1.476 -0.6513  2.8099 -0.9379
  488TIP3   OH223098   6.499   1.839   6.944  0.0668  0.4933 -0.2084
  488TIP3    H123099   6.485   1.832   7.038  0.6014 -0.2873 -0.1752
  488TIP3    H223100   6.548   1.920   6.932  1.3579 -0.1647  0.3605
  489TIP3   OH223101   6.703   1.612   6.503 -0.2955  0.0029  0.2216
  489TIP3    H123102   6.742   1.693   6.470 -1.1878  0.0753 -0.6793
  489TIP3    H223103   6.673   1.566   6.425 -1.2946 -0.4255  0.8416
  490TIP3   OH223104   6.474   0.103   2.353 -0.0662  0.7886  0.3278
  490TIP3    H123105   6.518   0.128   2.434  0.4164  0.0697  0.3022
  490TIP3    H223106   6.390   0.067   2.381  0.0576  0.6329  0.4996
  491TIP3   OH223107   3.585   3.254   1.264  0.1888 -0.0435 -0.2435
  491TIP3    H123108   3.587   3.195   1.188 -0.9105 -0.3574 -0.0468
  491TIP3    H223109   3.501   3.236   1.306  0.9253 -0.1386  1.2590
  492TIP3   OH223110   4.869   5.744   1.331  0.6781  0.3018  0.5337
  492TIP3    H123111   4.884   5.657   1.368 -0.6464 -2.0988 -3.9385
  492TIP3    H223112   4.957   5.780   1.317  1.3017 -0.9877  0.9858
  493TIP3   OH223113   4.245   0.960   2.185  0.2164 -0.0568  0.4309
  493TIP3    H123114   4.206   1.046   2.173  0.0735 -0.0383  1.0161
  493TIP3    H223115   4.208   0.907   2.115 -0.2731  0.1593  0.5248
  494TIP3   OH223116   6.683   3.247   1.044  0.5857 -0.1389  0.4222
  494TIP3    H123117   6.683   3.226   1.138 -1.1049 -3.1860 -0.1312
  494TIP3    H223118   6.606   3.302   1.032  1.9080  1.9583  1.0426
  495TIP3   OH223119   5.703   1.979   1.819 -0.4222  0.0268 -0.1806
  495TIP3    H123120   5.608   1.969   1.832 -0.3260 -1.5154 -0.4542
  495TIP3    H223121   5.727   1.904   1.764  1.1597 -0.2754  0.8835
  496TIP3   OH223122   0.639   3.495   7.126 -0.3932 -0.4625 -0.0425
  496TIP3    H123123   0.614   3.433   7.195  0.5379  0.0238  0.7563
  496TIP3    H223124   0.608   3.580   7.158  1.0757 -0.0555  0.3552
  497TIP3   OH223125   0.059   1.360   8.528  0.1099 -0.3645 -0.1241
  497TIP3    H123126   0.145   1.321   8.538  0.5265  0.4002 -0.6576
  497TIP3    H223127   0.022   1.319   8.450 -0.8510 -2.1602  1.1809
  498TIP3   OH223128   3.177   3.873   0.408 -0.3978 -0.1798  0.2191
  498TIP3    H123129   3.196   3.960   0.372 -0.0299  0.1171  1.0930
  498TIP3    H223130   3.228   3.869   0.489  1.4551 -2.1161 -0.9312
  499TIP3   OH223131   2.411   5.519   7.353  0.1521  0.6542 -0.1017
  499TIP3    H123132   2.385   5.497   7.263 -0.4160  1.1346 -0.0643
  499TIP3    H223133   2.504   5.497   7.357 -0.0697 -0.4197 -0.4693
  500TIP3   OH223134   2.148   2.840   0.124 -0.6170  0.3565 -0.6924
  500TIP3    H123135   2.220   2.795   0.080 -1.2169 -0.3339 -0.9918
  500TIP3    H223136   2.179   2.855   0.213 -0.4496 -0.7919 -0.5402
  501TIP3   OH223137   2.773   3.642   0.365  0.6607  0.2658 -0.1530
  501TIP3    H123138   2.694   3.637   0.310  0.6263  0.9144 -0.1741
  501TIP3    H223139   2.824   3.713   0.326  2.3770 -1.6324 -1.5662
  502TIP3   OH223140   2.395   0.511   8.402 -0.2633 -0.4741 -0.1481
  502TIP3    H123141   2.400   0.491   8.309 -0.0318  1.7411 -0.6762
  502TIP3    H223142   2.369   0.603   8.405  0.7647 -0.1904  1.9654
  503TIP3   OH223143   0.049   6.843   2.512  0.1725  0.1256  0.3334
  503TIP3    H123144   0.048   6.937   2.527  2.6558  0.3291 -0.4420
  503TIP3    H223145   0.141   6.819   2.510 -0.3150 -1.9868 -1.4934
  504TIP3   OH223146   0.518   0.921   0.279  0.0273 -0.4222  0.5571
  504TIP3    H123147   0.516   0.835   0.236  1.1569 -0.7208  1.0458
  504TIP3    H223148   0.564   0.977   0.217 -3.2201  0.6586 -1.0744
  505TIP3   OH223149   0.469   0.727   0.098 -0.5115 -0.1174  0.1465
  505TIP3    H123150   0.458   0.744   0.005 -1.6909  0.2646  0.3450
  505TIP3    H223151   0.556   0.687   0.105 -0.2861  0.1283 -1.0714
  506TIP3   OH223152   5.288   0.989   7.488 -0.1166 -0.2169 -0.2241
  506TIP3    H123153   5.214   0.932   7.469  0.2371  0.1211 -3.0392
  506TIP3    H223154   5.252   1.078   7.482  0.2900 -0.0751 -0.6855
  507TIP3   OH223155   3.547   4.678   7.648 -0.5951 -0.1932 -0.4845
  507TIP3    H123156   3.593   4.595   7.639  2.4150  1.4395 -1.6095
  507TIP3    H223157   3.593   4.723   7.719 -0.7900  1.2642 -1.2385
  508TIP3   OH223158   6.602   4.080   6.403  0.5306  0.3123 -0.1674
  508TIP3    H123159   6.575   4.167   6.374  1.3738  0.8554  0.6031
  508TIP3    H223160   6.676   4.058   6.348  0.3650  0.1064 -0.3107
  509TIP3   OH223161   4.711   3.782   7.677 -0.6194  0.3380  0.0391
  509TIP3    H123162   4.684   3.690   7.680  0.7424 -0.0679  1.1450
  509TIP3    H223163   4.799   3.782   7.713 -0.5316  2.0773 -0.0849
  510TIP3   OH223164   5.929   0.819   8.195 -0.0925 -0.4805  0.0081
  510TIP3    H123165   5.907   0.912   8.194 -1.4774 -0.7867 -0.3171
  510TIP3    H223166   5.984   0.807   8.272  1.2773  0.8520 -0.7241
  511TIP3   OH223167   6.091   3.992   7.050 -0.1350 -0.1689 -0.2165
  511TIP3    H123168   6.125   3.914   7.008 -1.4840 -0.5591 -0.6128
  511TIP3    H223169   6.169   4.035   7.087  0.8634 -0.6649 -1.6725
  512TIP3   OH223170   5.758   2.720   0.512 -0.2763  0.5153 -0.4721
  512TIP3    H123171   5.722   2.637   0.484 -0.9946  0.1149  1.5026
  512TIP3    H223172   5.839   2.698   0.558  0.1722  1.0330 -0.9815
  513TIP3   OH223173   2.141   3.912   8.309  0.6085  0.0669 -0.0390
  513TIP3    H123174   2.060   3.873   8.277  1.1823 -0.5719 -0.7415
  513TIP3    H223175   2.116   3.957   8.390 -0.3332 -0.5901  0.0451
  514TIP3   OH223176   1.147   0.384   1.135  0.1768  0.0446 -0.0628
  514TIP3    H123177   1.141   0.300   1.180 -2.2563 -0.5835 -1.3863
  514TIP3    H223178   1.079   0.438   1.177 -0.8897  0.0431 -1.6879
  515TIP3   OH223179   6.376   3.466   1.741 -0.2974  0.2874  0.1021
  515TIP3    H123180   6.298   3.510   1.775 -0.5133 -1.4485  2.0733
  515TIP3    H223181   6.342   3.398   1.683 -0.6613 -2.4853  3.2351
  516TIP3   OH223182   2.128   1.742   7.212 -0.6982  0.3180  0.1517
  516TIP3    H123183   2.179   1.797   7.271 -2.1145  0.2038  1.5265
  516TIP3    H223184   2.079   1.682   7.269  0.1414 -1.8524 -1.2410
  517TIP3   OH223185   6.304   6.334   7.851  0.0680 -0.0171 -0.3796
  517TIP3    H123186   6.380   6.372   7.894  0.7577 -1.8246  0.0703
  517TIP3    H223187   6.299   6.244   7.884 -3.1734  0.4340  0.8106
  518TIP3   OH223188   3.508   6.043   0.744  0.3165 -0.1746  0.1511
  518TIP3    H123189   3.488   6.064   0.653  1.6522 -1.0740 -0.3843
  518TIP3    H223190   3.573   6.107   0.770 -0.3566  0.3282  0.6110
  519TIP3   OH223191   2.211   0.645   2.522  0.0672  0.0290 -0.5728
  519TIP3    H123192   2.129   0.687   2.545  0.0098 -0.5315  0.2642
  519TIP3    H223193   2.237   0.686   2.439 -0.8357  0.4992 -0.6245
  520TIP3   OH223194   5.896   5.033   0.267  0.2958 -0.6314 -0.6468
  520TIP3    H123195   5.883   5.110   0.212  1.2961 -0.8003 -1.1467
  520TIP3    H223196   5.899   5.067   0.356 -0.5586 -0.2593 -0.7461
  521TIP3   OH223197   2.154   1.857   7.498  0.0079  0.0524 -0.3406
  521TIP3    H123198   2.168   1.764   7.515  0.0513  0.1404  0.1293
  521TIP3    H223199   2.077   1.880   7.549  1.0034  0.6564  0.9597
  522TIP3   OH223200   4.845   0.400   7.505 -0.3930 -0.3181 -0.0366
  522TIP3    H123201   4.755   0.410   7.475  0.0598  4.1087 -0.6174
  522TIP3    H223202   4.898   0.401   7.425  0.3018  0.7255  0.4123
  523TIP3   OH223203   2.560   2.352   1.379  0.1709  0.1167  0.0484
  523TIP3    H123204   2.611   2.423   1.339  0.3057 -0.5746 -1.0408
  523TIP3    H223205   2.552   2.378   1.471  1.9618  0.5445  0.1273
  524TIP3   OH223206   3.283   6.246   2.265 -0.2664  0.0658 -0.0514
  524TIP3    H123207   3.217   6.245   2.335 -2.0995  1.0327 -1.6775
  524TIP3    H223208   3.366   6.260   2.311 -1.5630  2.1486  1.8674
  525TIP3   OH223209   1.218   0.392   7.363 -0.0601  0.2359 -0.4209
  525TIP3    H123210   1.170   0.473   7.342  0.0445 -0.1390 -2.3054
  525TIP3    H223211   1.280   0.382   7.290  1.0903 -0.6771  0.6397
  526TIP3   OH223212   6.090   2.221   6.660 -0.3819 -0.6766  0.6499
  526TIP3    H123213   6.027   2.222   6.588  0.2503  0.3589  0.0768
  526TIP3    H223214   6.171   2.255   6.621 -0.3195  1.0078  2.1110
  527TIP3   OH223215   2.475   0.857   6.836 -0.1709  0.1445 -0.8779
  527TIP3    H123216   2.531   0.932   6.814  0.0703  0.1494 -0.2800
  527TIP3    H223217   2.533   0.781   6.828  0.6698  0.3428  2.1008
  528TIP3   OH223218   5.547   6.114   7.049  0.4199  0.2717 -0.2795
  528TIP3    H123219   5.492   6.068   7.111 -0.7832 -1.0009 -2.1935
  528TIP3    H223220   5.636   6.101   7.082 -0.1311 -0.7482  0.9040
  529TIP3   OH223221   4.335   4.366   1.316 -0.0023 -0.0718 -0.3823
  529TIP3    H123222   4.331   4.335   1.226  2.0581 -0.9939 -0.2236
  529TIP3    H223223   4.286   4.448   1.316 -1.6020 -0.9585 -1.8957
  530TIP3   OH223224   5.089   2.041   0.242 -0.4218  0.3310 -0.2416
  530TIP3    H123225   5.021   2.005   0.299 -0.8157  2.2700  0.5702
  530TIP3    H223226   5.080   1.990   0.161 -1.8320 -0.4662  0.3707
  531TIP3   OH223227   4.872   3.620   8.186 -0.4559  0.3548  0.1700
  531TIP3    H123228   4.959   3.609   8.147 -0.2810 -1.0759  0.9158
  531TIP3    H223229   4.889   3.664   8.270 -0.6331  1.5208 -0.3783
  532TIP3   OH223230   2.559   1.855   0.645  0.1770  0.4938 -0.4166
  532TIP3    H123231   2.477   1.877   0.690  1.2562  2.3166  0.7656
  532TIP3    H223232   2.531   1.820   0.561 -1.8328  0.3596  0.2594
  533TIP3   OH223233   0.691   6.936   8.249  0.5392 -0.2343  0.4673
  533TIP3    H123234   0.613   6.988   8.273  0.7942  0.1659  0.4425
  533TIP3    H223235   0.657   6.869   8.190  0.4736  1.0690 -1.0419
  534TIP3   OH223236   4.038   6.682   8.354  0.6338 -0.8108 -0.2686
  534TIP3    H123237   3.958   6.639   8.385  0.4757  0.1927  0.8188
  534TIP3    H223238   4.011   6.731   8.276 -0.5080  1.5613  1.4666
  535TIP3   OH223239   5.000   3.731   8.401 -0.3598  0.1916  0.3757
  535TIP3    H123240   5.030   3.807   8.451  3.0189 -1.5744  1.3339
  535TIP3    H223241   5.010   3.657   8.460 -0.5475 -1.4107 -1.4895
  536TIP3   OH223242   3.282   6.335   7.858  0.0486 -0.0146  0.1090
  536TIP3    H123243   3.331   6.390   7.919 -1.2528  1.9069 -0.4734
  536TIP3    H223244   3.287   6.382   7.775 -0.5991 -1.1156 -0.5738
  537TIP3   OH223245   5.705   5.269   0.407  0.1513 -0.1963  0.0950
  537TIP3    H123246   5.623   5.311   0.433  0.8398 -0.3751  2.8055
  537TIP3    H223247   5.683   5.176   0.400  0.0321 -0.1879  0.3648
  538TIP3   OH223248   4.524   1.445   0.088 -0.0451  0.1079 -0.0887
  538TIP3    H123249   4.618   1.463   0.095  0.2352 -1.3694  0.3688
  538TIP3    H223250   4.520   1.354   0.061 -1.3598  0.3334 -0.6841
  539TIP3   OH223251   0.293   0.005   7.670  0.4147 -0.1821  0.1454
  539TIP3    H123252   0.281  -0.017   7.762 -0.1253  1.5100  0.5225
  539TIP3    H223253   0.375   0.054   7.668  0.1137  0.3180 -0.1623
  540TIP3   OH223254   4.881   3.230   6.822 -0.0705 -0.4429  0.1777
  540TIP3    H123255   4.919   3.292   6.759 -0.5006  1.0606  1.3182
  540TIP3    H223256   4.954   3.173   6.846 -0.2221 -2.0763 -2.7423
  541TIP3   OH223257   2.008   1.410   1.419  0.6579  0.2180  0.7769
  541TIP3    H123258   2.075   1.462   1.375 -0.0794  0.6434  0.1402
  541TIP3    H223259   2.025   1.320   1.389  0.7394  0.3699  0.3593
  542TIP3   OH223260   4.326   2.712   7.037 -0.6761  0.2768 -0.3066
  542TIP3    H123261   4.389   2.641   7.048 -0.9388  0.0612 -0.1574
  542TIP3    H223262   4.329   2.734   6.944  1.3327  1.8824  0.0660
  543TIP3   OH223263   6.185   5.558   0.420  0.2256  0.2467  1.1283
  543TIP3    H123264   6.154   5.623   0.357  0.8726  0.4391  1.0049
  543TIP3    H223265   6.110   5.500   0.433  0.7814 -1.3291 -1.7675
  544TIP3   OH223266   5.886   1.776   8.402 -0.3025 -0.1675  0.3900
  544TIP3    H123267   5.959   1.820   8.445 -0.6151  0.7738  0.0079
  544TIP3    H223268   5.833   1.741   8.473  0.1824 -0.2956  0.6902
  545TIP3   OH223269   0.512   5.305   1.783  0.0770  0.5688  0.3827
  545TIP3    H123270   0.467   5.262   1.856  0.0146  0.4686  0.2862
  545TIP3    H223271   0.470   5.269   1.705  0.4275  0.3551  0.2873
  546TIP3   OH223272   1.038   3.339   0.643 -0.2860 -0.6357 -0.0564
  546TIP3    H123273   1.018   3.246   0.630 -0.4512 -0.6088 -0.0032
  546TIP3    H223274   0.968   3.370   0.701 -1.1280 -0.1190 -1.3037
  547TIP3   OH223275   4.130   2.921   7.027  0.1466 -0.0560 -0.0643
  547TIP3    H123276   4.045   2.962   7.047  0.9931  1.6029  0.3398
  547TIP3    H223277   4.148   2.945   6.936  0.1705 -0.4214 -0.1565
  548TIP3   OH223278   2.195   0.013   1.113  0.0943  0.4020  0.2174
  548TIP3    H123279   2.200   0.107   1.128  0.7558  0.0267  2.8852
  548TIP3    H223280   2.282  -0.019   1.135 -0.1824 -0.8683 -0.4628
  549TIP3   OH223281   2.439   2.534   7.422  0.0343  0.2576  0.5253
  549TIP3    H123282   2.456   2.618   7.378  0.1452 -0.9235 -1.8336
  549TIP3    H223283   2.524   2.490   7.424 -0.4526 -0.7798 -0.5078
  550TIP3   OH223284   3.223   6.102   1.795  0.1784  0.3879 -0.6217
  550TIP3    H123285   3.174   6.045   1.737 -0.9029  1.1052 -0.4512
  550TIP3    H223286   3.170   6.106   1.875  2.7821 -2.5326  1.4885
  551TIP3   OH223287   0.873   5.281   8.198 -0.4969  0.5561  0.1813
  551TIP3    H123288   0.804   5.339   8.167 -0.8511  0.6503  1.1240
  551TIP3    H223289   0.917   5.250   8.118 -1.1836  1.0352 -0.3838
  552TIP3   OH223290   2.254   0.717   2.253 -0.1485 -0.6394 -0.0543
  552TIP3    H123291   2.317   0.777   2.212 -1.3435  0.2151 -0.7106
  552TIP3    H223292   2.288   0.630   2.234  0.8869 -0.2003 -0.3037
  553TIP3   OH223293   2.057   6.169   1.470 -0.8518 -0.6481  0.0064
  553TIP3    H123294   2.082   6.081   1.443 -2.0603 -1.5535  1.6975
  553TIP3    H223295   2.106   6.185   1.550 -0.8784  0.1073 -0.1214
  554TIP3   OH223296   2.636   1.830   8.366  0.1902  0.6508 -0.4771
  554TIP3    H123297   2.707   1.894   8.373 -0.7309  1.9660 -2.2289
  554TIP3    H223298   2.563   1.880   8.331 -1.1116 -1.0225 -0.2569
  555TIP3   OH223299   0.768   2.429   0.047  0.2830  0.4384 -0.5783
  555TIP3    H123300   0.827   2.467  -0.018  1.1555  2.3711  1.2285
  555TIP3    H223301   0.826   2.396   0.116 -0.6574 -0.5483 -0.2317
  556TIP3   OH223302   5.793   1.726   6.807 -0.1652  0.0637  0.0291
  556TIP3    H123303   5.701   1.699   6.812 -0.4699  1.1855  1.5673
  556TIP3    H223304   5.820   1.731   6.899  1.2324  0.3982 -0.3872
  557TIP3   OH223305   1.731   1.983   8.546  0.2961 -0.6410 -0.4181
  557TIP3    H123306   1.660   2.047   8.553 -1.4040 -2.3018 -1.2654
  557TIP3    H223307   1.750   1.958   8.636  0.9078  0.9330 -0.0876
  558TIP3   OH223308   3.990   5.929   8.239  0.0883 -0.1162  0.4853
  558TIP3    H123309   4.011   5.864   8.305 -0.0843  0.8495  1.5310
  558TIP3    H223310   4.066   5.988   8.239  0.0004  0.0021 -0.0481
  559TIP3   OH223311   0.603   0.508   1.127  0.1542  0.4876  0.0984
  559TIP3    H123312   0.650   0.426   1.141  1.4620  1.2457  0.2540
  559TIP3    H223313   0.671   0.575   1.122 -0.8573  1.5159 -0.4758
  560TIP3   OH223314   2.625   2.843   7.691 -0.1992  0.0311 -0.0263
  560TIP3    H123315   2.580   2.897   7.626 -0.7890 -1.3835 -0.8489
  560TIP3    H223316   2.581   2.758   7.686  0.6916 -0.5344  1.2232
  561TIP3   OH223317   0.715   3.933   7.797  0.3811 -0.1131 -0.2151
  561TIP3    H123318   0.644   3.873   7.820  0.4603 -0.6022 -1.1995
  561TIP3    H223319   0.742   3.905   7.710  1.2725  0.5604 -0.1611
  562TIP3   OH223320   0.561   3.042   2.387  0.1140 -0.5417 -0.7763
  562TIP3    H123321   0.573   2.955   2.349 -2.1179 -0.7427 -1.0939
  562TIP3    H223322   0.586   3.031   2.479 -2.5103 -2.2290 -0.1667
  563TIP3   OH223323   0.172   2.547   2.355  0.4298  0.1510  0.2967
  563TIP3    H123324   0.174   2.516   2.265 -0.2349  1.0670 -0.0459
  563TIP3    H223325   0.195   2.640   2.349  1.7921 -0.0960  1.2321
  564TIP3   OH223326   1.320   2.782   1.461 -0.7140 -0.0387 -0.2664
  564TIP3    H123327   1.271   2.803   1.541  2.1638 -1.0116  1.9330
  564TIP3    H223328   1.309   2.858   1.405 -2.5820  0.8265  1.1777
  565TIP3   OH223329   4.513   2.422   7.699 -0.2984  0.1526 -0.1305
  565TIP3    H123330   4.433   2.369   7.711 -0.6730  0.9038  0.7990
  565TIP3    H223331   4.537   2.449   7.788  0.8894  0.1007 -0.4252
  566TIP3   OH223332   4.329   1.571   6.745 -0.4980 -0.1557  0.1574
  566TIP3    H123333   4.423   1.557   6.755 -0.2450  0.5924 -0.9570
  566TIP3    H223334   4.313   1.658   6.783 -0.6688 -0.1160 -0.0000
  567TIP3   OH223335   1.588   0.207   8.134 -0.6863  0.1994 -0.4032
  567TIP3    H123336   1.579   0.168   8.047 -1.3738  0.3884 -0.4169
  567TIP3    H223337   1.656   0.274   8.124 -0.2827 -0.2342 -0.6328
  568TIP3   OH223338   3.629   5.257   8.315  0.1403  0.0035  0.2510
  568TIP3    H123339   3.697   5.276   8.250  0.1573  0.0923  0.2955
  568TIP3    H223340   3.558   5.318   8.295  0.2296  0.1727  0.4462
  569TIP3   OH223341   1.470   5.598   7.498 -0.2502  0.1468  0.1166
  569TIP3    H123342   1.390   5.641   7.469 -1.1450  0.1247  2.3201
  569TIP3    H223343   1.523   5.668   7.536  0.5818  0.0813 -0.8961
  570TIP3   OH223344   2.556   5.725   1.722 -0.3421  0.0192 -0.1243
  570TIP3    H123345   2.630   5.782   1.743  0.8588 -1.2722 -0.6954
  570TIP3    H223346   2.564   5.652   1.784 -3.0977  1.3752  2.0874
  571TIP3   OH223347   1.463   4.520   0.240  0.2040 -0.6486  0.0900
  571TIP3    H123348   1.537   4.546   0.185 -1.1385  3.1371 -0.2035
  571TIP3    H223349   1.496   4.529   0.329 -0.1030  2.3991  0.0103
  572TIP3   OH223350   4.520   0.656   7.014 -0.6558 -0.3000  0.0122
  572TIP3    H123351   4.481   0.569   7.025  0.7684 -0.8935  0.6234
  572TIP3    H223352   4.560   0.654   6.927 -0.8876 -0.1412 -0.0991
  573TIP3   OH223353   2.181   0.315   1.222 -0.6494  0.1213  0.0824
  573TIP3    H123354   2.199   0.309   1.316  1.4207  0.2300 -0.2710
  573TIP3    H223355   2.098   0.363   1.217 -1.3622 -0.8107  1.8649
  574TIP3   OH223356   5.390   6.130   8.541  0.7229 -0.3500  0.3619
  574TIP3    H123357   5.311   6.160   8.585  0.7728  0.5538 -0.1468
  574TIP3    H223358   5.425   6.062   8.599  0.2673  0.1424  1.2326
  575TIP3   OH223359   6.546   0.169   0.692  0.5655  0.4352 -0.1329
  575TIP3    H123360   6.552   0.109   0.766 -0.0763  0.5284 -0.0009
  575TIP3    H223361   6.452   0.183   0.680  0.5211 -1.0131 -2.1005
  576TIP3   OH223362   3.455   4.469   7.077  0.6202 -0.0714  0.1915
  576TIP3    H123363   3.418   4.538   7.021 -0.7050  0.5167  1.7078
  576TIP3    H223364   3.548   4.468   7.056  0.2063  0.1879 -1.9187
  577TIP3   OH223365   1.956   6.470   0.401 -0.4639  0.0354 -0.3391
  577TIP3    H123366   1.867   6.471   0.437 -0.5889  0.0325 -0.6508
  577TIP3    H223367   1.959   6.544   0.341  0.0552  0.6520  0.4175
  578TIP3   OH223368   2.722   0.995   7.662 -0.2741  0.8420 -0.4854
  578TIP3    H123369   2.794   0.961   7.609 -1.0847 -0.2885 -0.9103
  578TIP3    H223370   2.683   1.064   7.608  0.2185  1.1797 -0.4235
  579TIP3   OH223371   6.670   0.730   1.697 -0.5204 -0.2943 -0.2153
  579TIP3    H123372   6.667   0.786   1.774 -0.9844  0.1432 -0.5506
  579TIP3    H223373   6.729   0.658   1.722 -1.3701 -0.6465  0.8611
  580TIP3   OH223374   6.922   4.621   7.557  0.0911  0.2985 -0.1309
  580TIP3    H123375   6.996   4.660   7.603 -0.7790  1.1362  0.5950
  580TIP3    H223376   6.960   4.586   7.476  1.3787  0.1316  0.5204
  581TIP3   OH223377   3.341   1.807   0.176  0.0497  0.3457 -0.3013
  581TIP3    H123378   3.393   1.844   0.247  1.6949  0.2408 -1.4226
  581TIP3    H223379   3.260   1.779   0.219  1.0109  0.2549  1.5498
  582TIP3   OH223380   3.048   0.788   7.275 -0.0278 -0.1980 -0.3603
  582TIP3    H123381   3.094   0.707   7.297 -0.2067 -0.0217  0.7107
  582TIP3    H223382   2.982   0.761   7.210  0.3837 -0.7742 -0.5455
  583TIP3   OH223383   5.316   2.364   1.534 -0.2533 -0.0856 -0.0999
  583TIP3    H123384   5.238   2.397   1.580 -0.1603 -1.5569  1.1957
  583TIP3    H223385   5.297   2.381   1.441 -1.7530  0.3304  0.2412
  584TIP3   OH223386   5.350   3.305   1.154  0.3004  0.3211 -1.4008
  584TIP3    H123387   5.291   3.232   1.172 -0.6284  1.1801 -0.8237
  584TIP3    H223388   5.354   3.311   1.059 -1.2449  0.7673 -1.4628
  585TIP3   OH223389   5.869   0.602   1.626 -0.4072 -0.3745 -0.3629
  585TIP3    H123390   5.901   0.535   1.686  0.0427 -0.5156 -0.7551
  585TIP3    H223391   5.788   0.634   1.667 -0.0520 -0.3861  0.3733
  586TIP3   OH223392   4.885   4.638   0.382  0.1177  0.1676  0.3257
  586TIP3    H123393   4.884   4.543   0.366 -0.2101  0.1644  0.3611
  586TIP3    H223394   4.889   4.646   0.477  0.4691  0.1910  0.3115
  587TIP3   OH223395   3.291   3.804   8.254  0.6703 -0.2355  0.4903
  587TIP3    H123396   3.386   3.799   8.243  0.5987 -1.5678  0.3216
  587TIP3    H223397   3.270   3.895   8.233  1.9194  0.1340  0.6997
  588TIP3   OH223398   3.068   5.582   0.208  0.2077 -0.2830  0.3924
  588TIP3    H123399   3.066   5.631   0.290 -0.5567 -0.2638  0.3702
  588TIP3    H223400   3.076   5.649   0.140  1.0439 -0.3108  0.4532
  589TIP3   OH223401   1.719   3.299   8.200  0.5210 -0.0538  0.5775
  589TIP3    H123402   1.788   3.297   8.266 -0.2009  0.1644  1.3513
  589TIP3    H223403   1.730   3.217   8.152  0.5429 -0.6131  1.5119
  590TIP3   OH223404   2.488   5.452   8.156 -0.9061  0.0058  0.6433
  590TIP3    H123405   2.578   5.432   8.180 -0.5311 -0.5413 -1.1058
  590TIP3    H223406   2.463   5.382   8.095 -2.0929  0.8455  0.1265
  591TIP3   OH223407   0.549   1.661   7.562 -0.4129 -0.0844  0.1077
  591TIP3    H123408   0.520   1.736   7.510  0.5378  0.0799 -0.2074
  591TIP3    H223409   0.469   1.628   7.604 -0.5896  2.3411  1.8878
  592TIP3   OH223410   5.311   5.014   0.763 -0.1973  0.2271 -0.0486
  592TIP3    H123411   5.382   4.971   0.811 -0.0748  0.4984  0.0124
  592TIP3    H223412   5.266   4.942   0.718 -0.3579 -0.0368  0.5208
  593TIP3   OH223413   2.586   5.740   0.791 -0.2751  0.0326  0.0743
  593TIP3    H123414   2.662   5.726   0.847 -0.1271 -0.0184 -0.1387
  593TIP3    H223415   2.544   5.654   0.787 -1.3880  0.4553  1.6950
  594TIP3   OH223416   6.309   6.602   7.421 -0.3523 -0.0185 -0.2021
  594TIP3    H123417   6.313   6.696   7.433  0.9032 -0.0961  0.1929
  594TIP3    H223418   6.385   6.582   7.366  0.9908 -1.0751  1.9104
  595TIP3   OH223419   6.553   3.491   1.425  0.0729 -0.4437  0.1535
  595TIP3    H123420   6.561   3.533   1.511  0.8154 -0.3051  0.0218
  595TIP3    H223421   6.475   3.529   1.387 -0.0894 -0.2771  0.6438
  596TIP3   OH223422   5.283   5.541   7.526 -0.4833  0.5162 -0.3306
  596TIP3    H123423   5.329   5.553   7.443  3.1861 -1.8871  1.1444
  596TIP3    H223424   5.281   5.628   7.565 -1.2869  1.4819 -2.3517
  597TIP3   OH223425   6.613   5.303   8.299  0.2469  0.0355 -0.3459
  597TIP3    H123426   6.530   5.302   8.346 -1.2158 -3.3002 -2.5958
  597TIP3    H223427   6.676   5.262   8.359  0.5107  2.7611  1.4466
  598TIP3   OH223428   1.037   6.573   7.474 -0.1994 -0.0143  0.8335
  598TIP3    H123429   0.962   6.581   7.533 -0.2989 -1.3029  0.9218
  598TIP3    H223430   1.100   6.519   7.523 -0.5173 -1.6055 -0.4161
  599TIP3   OH223431   0.263   2.455   1.782  0.7934  0.1612  0.7891
  599TIP3    H123432   0.346   2.442   1.829  1.5504  1.2579 -0.1938
  599TIP3    H223433   0.236   2.544   1.806 -0.1959 -0.2351  1.2102
  600TIP3   OH223434   2.827   1.371   1.016  0.5018 -0.3760  0.4312
  600TIP3    H123435   2.755   1.426   1.046  2.5080  1.3646  2.4877
  600TIP3    H223436   2.893   1.377   1.085  2.7495 -1.6573 -1.4095
  601TIP3   OH223437   3.214   4.360   6.824 -0.3150  0.5007 -0.3239
  601TIP3    H123438   3.301   4.358   6.783  0.4649  0.2394  1.2780
  601TIP3    H223439   3.212   4.283   6.880 -1.1543  1.1033  0.5058
  602TIP3   OH223440   1.307   4.892   8.085  0.9051 -0.5119 -0.0540
  602TIP3    H123441   1.303   4.987   8.098  0.0082  0.2697 -4.4934
  602TIP3    H223442   1.216   4.864   8.090  0.9921 -0.8561 -0.4184
  603TIP3   OH223443   1.565   1.698   0.006 -0.3387 -0.1518 -0.5370
  603TIP3    H123444   1.646   1.735   0.040 -0.1991 -1.3441  0.4692
  603TIP3    H223445   1.499   1.721   0.070 -0.6214 -0.0240 -0.8686
  604TIP3   OH223446   0.426   3.688   0.318  0.3078 -0.3767  0.0933
  604TIP3    H123447   0.461   3.619   0.262 -0.2421 -1.1120  0.6464
  604TIP3    H223448   0.343   3.712   0.277  1.5156  1.5739 -1.3865
  605TIP3   OH223449   1.687   6.339   7.254  0.3902  0.0266  0.3757
  605TIP3    H123450   1.759   6.291   7.295  1.3167  1.5683  0.6792
  605TIP3    H223451   1.629   6.363   7.326 -0.0206 -0.5339  0.2382
  606TIP3   OH223452   0.676   5.568   0.383  0.0247  0.0481  0.0908
  606TIP3    H123453   0.665   5.552   0.289  1.6234  1.1123 -0.3120
  606TIP3    H223454   0.588   5.558   0.419 -0.6330 -0.3305 -1.5175
  607TIP3   OH223455   1.557   6.409   1.848 -0.2257  0.1397  0.3932
  607TIP3    H123456   1.504   6.427   1.926 -0.9031 -0.8265  0.1731
  607TIP3    H223457   1.539   6.483   1.790 -2.8587 -1.0263 -0.4507
  608TIP3   OH223458   6.904   6.048   7.174 -0.0691  0.8453  0.0665
  608TIP3    H123459   6.890   5.986   7.245 -1.2766  0.0701 -0.7896
  608TIP3    H223460   6.875   6.132   7.209  2.0654  1.0871  1.4072
  609TIP3   OH223461   2.696   2.263   0.948  0.4588  0.3054  0.1018
  609TIP3    H123462   2.622   2.215   0.909 -0.5741  0.8151  1.3755
  609TIP3    H223463   2.662   2.351   0.964  1.1970  0.4201  1.1210
  610TIP3   OH223464   3.167   5.641   1.364  1.0145  0.2760  0.7504
  610TIP3    H123465   3.151   5.657   1.271  1.9120  0.7762  0.6694
  610TIP3    H223466   3.256   5.607   1.367 -0.1959 -3.3933  1.0786
  611TIP3   OH223467   3.000   0.238   6.448  0.1020 -0.6042  0.0628
  611TIP3    H123468   3.005   0.164   6.387 -0.1177  0.5308 -1.3995
  611TIP3    H223469   2.941   0.300   6.405  0.4708  0.5321  1.1364
  612TIP3   OH223470   0.868   4.195   8.441  0.3004 -0.2057 -0.1583
  612TIP3    H123471   0.862   4.100   8.434 -2.9495 -0.0831 -0.5575
  612TIP3    H223472   0.779   4.224   8.462  0.7692  2.8679 -1.7231
  613TIP3   OH223473   2.811   5.185   0.284  0.4610  0.4793 -0.4423
  613TIP3    H123474   2.853   5.143   0.359  0.5187  0.5528 -0.4334
  613TIP3    H223475   2.883   5.226   0.236  0.7461 -1.4670 -1.7965
  614TIP3   OH223476   5.836   5.379   7.951  0.0178  0.0139 -0.4821
  614TIP3    H123477   5.791   5.313   7.899 -0.2168  0.2227 -0.5448
  614TIP3    H223478   5.766   5.428   7.994  0.0865  1.5040 -1.9798
  615TIP3   OH223479   0.770   3.799   7.563  0.0783 -0.5788  0.5690
  615TIP3    H123480   0.775   3.893   7.545 -2.1973 -0.4816  0.2509
  615TIP3    H223481   0.807   3.758   7.484  0.2271  0.0338  0.3165
  616TIP3   OH223482   6.956   0.261   1.330 -0.3366 -0.0337  0.0845
  616TIP3    H123483   7.010   0.184   1.311 -0.3651 -0.8013  2.7267
  616TIP3    H223484   6.977   0.323   1.260  0.9582 -1.7927 -1.1759
  617TIP3   OH223485   1.305   4.593   7.800  0.1109  0.3071 -0.3648
  617TIP3    H123486   1.317   4.684   7.829  0.9027 -0.2044  0.9861
  617TIP3    H223487   1.371   4.581   7.732  1.5272  0.1134  0.9924
  618TIP3   OH223488   4.663   2.116   7.259 -0.5906  0.0843  0.2675
  618TIP3    H123489   4.651   2.111   7.164 -2.9173 -0.5729  0.5169
  618TIP3    H223490   4.658   2.210   7.279 -0.8225  0.1735 -0.1932
  619TIP3   OH223491   5.237   0.084   7.664 -0.4601  0.4613  0.4306
  619TIP3    H123492   5.305   0.092   7.731  1.3521 -0.8605 -1.1328
  619TIP3    H223493   5.285   0.069   7.582 -2.6074 -2.8041 -0.4311
  620TIP3   OH223494   0.302   6.651   0.271  0.4264 -0.1502 -0.5064
  620TIP3    H123495   0.262   6.666   0.357  1.6593  0.8890 -0.0716
  620TIP3    H223496   0.371   6.587   0.288 -0.7054 -1.5954 -1.1626
  621TIP3   OH223497   6.245   4.525   2.046 -0.2163  0.3568  0.1931
  621TIP3    H123498   6.163   4.561   2.079  0.7389  1.0629  1.9074
  621TIP3    H223499   6.219   4.447   1.997 -1.8438  0.1073  1.3719
  622TIP3   OH223500   4.064   5.105   7.463 -0.1786  0.3853  0.2141
  622TIP3    H123501   4.110   5.138   7.539  0.8911 -0.3822 -0.0735
  622TIP3    H223502   4.037   5.017   7.487  0.2752  0.0886 -0.3102
  623TIP3   OH223503   3.410   1.066   0.190  0.3090 -0.2357  0.1437
  623TIP3    H123504   3.422   1.156   0.159  0.9760 -0.4637 -0.2940
  623TIP3    H223505   3.497   1.040   0.221  0.2078 -0.8466 -0.0704
  624TIP3   OH223506   3.919   5.400   1.251 -0.0155  0.3466 -0.2387
  624TIP3    H123507   3.944   5.311   1.276 -1.4832  0.0731  0.3387
  624TIP3    H223508   3.998   5.436   1.210  0.5728 -1.2576 -0.6025
  625TIP3   OH223509   5.975   5.428   8.523  0.7336  0.2192 -0.2300
  625TIP3    H123510   5.918   5.501   8.546 -0.1182 -0.4332 -0.2321
  625TIP3    H223511   6.058   5.448   8.566  0.4450  1.0670 -0.0418
  626TIP3   OH223512   1.509   0.720   2.033  0.5558 -0.1114  0.0328
  626TIP3    H123513   1.429   0.669   2.045  0.5158 -0.1322 -0.3294
  626TIP3    H223514   1.578   0.664   2.069  0.6113 -0.7421 -1.0245
  627TIP3   OH223515   0.296   2.226   2.371 -0.0050  0.6438  0.5433
  627TIP3    H123516   0.223   2.263   2.321 -0.1667  1.4828  1.3631
  627TIP3    H223517   0.281   2.256   2.461  0.1660 -0.9880  1.1544
  628TIP3   OH223518   6.909   2.340   0.611  0.5416  0.3215 -0.3248
  628TIP3    H123519   6.945   2.386   0.535 -1.1064 -0.1769 -1.4717
  628TIP3    H223520   6.852   2.404   0.653  1.4613  0.6002  0.5412
  629TIP3   OH223521   6.181   5.496   7.742  0.1591 -0.0349  0.1447
  629TIP3    H123522   6.219   5.413   7.773 -0.9795 -1.0676 -1.1090
  629TIP3    H223523   6.256   5.545   7.709  1.2643  0.6267  3.2659
  630TIP3   OH223524   4.508   6.010   7.171  0.2635  0.5131 -0.4281
  630TIP3    H123525   4.514   6.073   7.243 -0.7347  0.5651 -0.3819
  630TIP3    H223526   4.470   5.932   7.211 -0.1946  0.5047 -0.8779
  631TIP3   OH223527   6.374   6.400   1.048 -0.4955  0.1277  0.4428
  631TIP3    H123528   6.443   6.337   1.026 -1.1309 -0.2095 -0.6737
  631TIP3    H223529   6.306   6.347   1.090 -0.8751  0.1144 -0.1716
  632TIP3   OH223530   5.935   5.438   0.384  0.0906  0.5023  0.1844
  632TIP3    H123531   5.897   5.525   0.386  1.4510  1.0995  0.9552
  632TIP3    H223532   5.859   5.379   0.380 -0.8253  1.7081 -1.2292
  633TIP3   OH223533   0.968   5.790   7.570  0.3154  0.1911  0.0008
  633TIP3    H123534   1.000   5.860   7.628  1.2673  0.0636 -0.3616
  633TIP3    H223535   0.905   5.742   7.624 -0.1622  1.1566  0.3413
  634TIP3   OH223536   1.477   2.083   0.551  0.0260  0.1443 -0.0759
  634TIP3    H123537   1.517   2.038   0.477  0.3385  1.7378 -0.9320
  634TIP3    H223538   1.550   2.128   0.594  0.0221 -1.5504  1.8453
  635TIP3   OH223539   2.348   2.982   7.433  0.1506  0.4456  0.1788
  635TIP3    H123540   2.275   2.988   7.494  0.5729  2.0659  0.5581
  635TIP3    H223541   2.307   2.982   7.346 -0.3281  0.9989  0.3986
  636TIP3   OH223542   2.466   1.393   2.320 -0.1411 -0.2473 -0.6061
  636TIP3    H123543   2.497   1.320   2.266  0.3214  0.4629 -1.3363
  636TIP3    H223544   2.526   1.465   2.299 -1.0500  0.5681 -0.4910
  637TIP3   OH223545   1.177   6.445   1.801  0.1859  0.1708 -0.0573
  637TIP3    H123546   1.228   6.525   1.790  0.1402  0.2840  0.5059
  637TIP3    H223547   1.222   6.380   1.748  0.5890  0.4139 -0.0144
  638TIP3   OH223548   0.923   2.320   1.693 -0.0070  0.5872  1.0302
  638TIP3    H123549   1.005   2.288   1.730  0.0505 -2.0114 -1.0891
  638TIP3    H223550   0.949   2.385   1.628  0.3020  0.3416  0.9115
  639TIP3   OH223551   6.545   2.636   1.544 -0.3041 -0.1140  0.1611
  639TIP3    H123552   6.493   2.572   1.593 -0.4637  0.3908  0.6560
  639TIP3    H223553   6.537   2.717   1.594 -0.2039  0.3284 -0.5295
  640TIP3   OH223554   5.375   2.775   2.024 -0.7746  0.3826 -0.0045
  640TIP3    H123555   5.305   2.756   1.961  0.1896  1.4785 -1.4643
  640TIP3    H223556   5.417   2.690   2.039  0.1971  0.3846 -2.3931
  641TIP3   OH223557   2.433   6.087   7.707  0.2207  0.2942  0.0768
  641TIP3    H123558   2.410   5.996   7.722  1.8473 -0.2131 -0.3331
  641TIP3    H223559   2.380   6.114   7.631 -0.6746 -0.1144  0.5426
  642TIP3   OH223560   2.351   2.273   7.328  0.3829  0.1487  0.8383
  642TIP3    H123561   2.401   2.307   7.401 -0.3219  2.9128  0.1295
  642TIP3    H223562   2.279   2.335   7.317 -1.3015 -1.8786 -0.2685
  643TIP3   OH223563   6.198   3.613   0.306 -0.0598 -0.2652 -0.1644
  643TIP3    H123564   6.149   3.605   0.388  1.5789 -0.0074  0.8898
  643TIP3    H223565   6.221   3.522   0.284 -0.7487 -0.3618 -0.5184
  644TIP3   OH223566   3.777   6.312   7.918  0.2376  0.3936  0.1469
  644TIP3    H123567   3.750   6.361   7.996  1.1777  2.5369 -0.8075
  644TIP3    H223568   3.796   6.379   7.853  1.1334 -1.2898 -1.4078
  645TIP3   OH223569   1.631   6.518   6.139  0.1525 -0.2374  0.0541
  645TIP3    H123570   1.545   6.477   6.152 -0.8965  2.5120  3.3569
  645TIP3    H223571   1.616   6.611   6.159  3.8005  0.4517  0.1651
  646TIP3   OH223572   5.518   4.716   1.561 -0.1312 -0.1373  0.0834
  646TIP3    H123573   5.452   4.663   1.518 -0.5939  0.1665  0.4084
  646TIP3    H223574   5.492   4.806   1.543 -0.2183 -0.0103  0.8302
  647TIP3   OH223575   0.241   1.935   1.994  0.3839 -0.3983  0.2329
  647TIP3    H123576   0.317   1.969   2.042  0.2612 -0.9503  0.8257
  647TIP3    H223577   0.166   1.953   2.051  0.0439  0.2211 -0.3861
  648TIP3   OH223578   2.327   4.371   1.064  0.0204 -0.1041  0.3706
  648TIP3    H123579   2.418   4.363   1.093 -0.2374 -0.1164  1.2207
  648TIP3    H223580   2.276   4.354   1.143 -0.7426 -1.0182 -0.3108
  649TIP3   OH223581   1.077   1.363   1.705 -0.2964  0.3905  0.4133
  649TIP3    H123582   1.107   1.273   1.703 -1.3705  0.0308 -0.5235
  649TIP3    H223583   1.096   1.393   1.794  1.7134 -0.1521  0.2209
  650TIP3   OH223584   5.041   5.283   0.082  0.3704  0.6654 -0.2253
  650TIP3    H123585   4.968   5.224   0.062  1.1070 -0.6204  0.6789
  650TIP3    H223586   5.091   5.236   0.148  3.1824  0.5192 -2.2726
  651TIP3   OH223587   3.353   4.605   8.099  0.1462  0.6460  0.8548
  651TIP3    H123588   3.360   4.578   8.191  0.9785  2.0488  1.2435
  651TIP3    H223589   3.419   4.674   8.090 -0.1870  0.7868 -0.7057
  652TIP3   OH223590   4.352   6.392   1.495 -0.0109  0.1952  0.2800
  652TIP3    H123591   4.434   6.423   1.534  0.5596  0.6451 -1.2197
  652TIP3    H223592   4.308   6.472   1.466  1.0331 -0.1954 -2.7748
  653TIP3   OH223593   3.336   0.663   7.925 -0.4847 -0.3784  0.4857
  653TIP3    H123594   3.392   0.677   8.001 -2.9801  1.4052  2.1703
  653TIP3    H223595   3.329   0.749   7.883 -0.6276 -0.9342 -0.6823
  654TIP3   OH223596   0.034   0.449   0.283 -0.9331 -0.2229  0.2397
  654TIP3    H123597   0.095   0.516   0.252  3.2849 -2.7599  2.1610
  654TIP3    H223598  -0.004   0.487   0.363  0.2624  0.4365  0.5191
  655TIP3   OH223599   4.630   1.474   1.037  0.6040  0.0312 -0.6775
  655TIP3    H123600   4.720   1.454   1.063  0.3118 -0.5275 -0.0718
  655TIP3    H223601   4.618   1.427   0.954  1.2012  0.9682 -1.3099
  656TIP3   OH223602   4.548   4.944   1.272 -0.2590  0.3493 -0.5224
  656TIP3    H123603   4.520   4.911   1.358 -1.7215  1.4727 -0.5184
  656TIP3    H223604   4.533   4.871   1.212  0.1772 -0.2390  0.0808
  657TIP3   OH223605   5.349   1.520   1.528  0.1232  0.7270  0.6791
  657TIP3    H123606   5.304   1.490   1.449 -0.1595  1.2306  0.6433
  657TIP3    H223607   5.415   1.453   1.545  0.3527  0.7395 -0.1261
  658TIP3   OH223608   2.129   2.471   0.685 -0.0771 -0.2331  0.4087
  658TIP3    H123609   2.101   2.395   0.736 -1.5729  0.1077  0.1323
  658TIP3    H223610   2.224   2.462   0.680 -0.2675 -2.7316 -0.6060
  659TIP3   OH223611   6.849   0.504   0.519  0.1595 -0.2897  0.3197
  659TIP3    H123612   6.820   0.466   0.602  2.5499  0.0895  1.4134
  659TIP3    H223613   6.892   0.586   0.545 -0.2582  0.5318 -1.4665
  660TIP3   OH223614   2.411   2.886   7.105 -0.3366 -0.1177  0.1855
  660TIP3    H123615   2.390   2.800   7.068 -1.7130  0.8879 -1.5822
  660TIP3    H223616   2.336   2.941   7.080  0.9748  1.8293  0.3739
  661TIP3   OH223617   1.446   5.337   7.321  0.4639  0.1467  0.2678
  661TIP3    H123618   1.376   5.324   7.257  0.6469 -1.7651  0.3996
  661TIP3    H223619   1.431   5.426   7.355 -1.6127 -0.0312 -0.0257
  662TIP3   OH223620   0.678   6.302   7.395  0.5623 -0.0726 -0.3591
  662TIP3    H123621   0.623   6.374   7.425  1.4960  0.6123 -0.2441
  662TIP3    H223622   0.722   6.271   7.475 -1.5249 -2.3030  0.0170
  663TIP3   OH223623   6.273   0.085   8.014 -0.2033  0.2296 -0.0062
  663TIP3    H123624   6.325   0.035   7.951 -0.8589 -0.7437  0.2059
  663TIP3    H223625   6.277   0.034   8.094 -2.4528 -0.5205 -0.2962
  664TIP3   OH223626   5.876   1.094   7.033 -0.0994 -0.1462  0.0627
  664TIP3    H123627   5.922   1.163   6.985 -1.7723  2.2552  1.6263
  664TIP3    H223628   5.821   1.051   6.968  1.0468 -0.0796 -0.9731
  665TIP3   OH223629   1.747   1.865   0.750  0.3305  0.3821 -0.1198
  665TIP3    H123630   1.694   1.786   0.756  1.8051 -0.6359  0.0536
  665TIP3    H223631   1.819   1.850   0.811  0.5634  1.9394  0.0306
  666TIP3   OH223632   5.887   2.642   6.782 -0.0819  0.3652  0.2530
  666TIP3    H123633   5.923   2.701   6.849  1.3120 -1.8092  1.5664
  666TIP3    H223634   5.895   2.690   6.700 -1.2521  2.8934  1.5040
  667TIP3   OH223635   5.245   4.826   1.128 -0.6729 -0.1851 -0.1800
  667TIP3    H123636   5.164   4.852   1.172  0.7679  1.2974  1.8299
  667TIP3    H223637   5.275   4.906   1.084  0.0731 -0.5010 -0.2578
  668TIP3   OH223638   4.845   0.707   0.769 -0.0334 -0.3129 -0.3750
  668TIP3    H123639   4.931   0.703   0.728 -0.2261 -0.5690 -0.7721
  668TIP3    H223640   4.784   0.687   0.697 -0.2892 -2.4797  0.3818
  669TIP3   OH223641   5.462   3.816   0.789  0.3982 -0.5840 -0.6077
  669TIP3    H123642   5.479   3.826   0.883 -1.7524  1.4010 -0.3420
  669TIP3    H223643   5.453   3.906   0.757  0.6380 -1.2369 -2.6594
  670TIP3   OH223644   2.953   5.639   0.777 -0.0780 -0.1338 -0.2143
  670TIP3    H123645   3.031   5.615   0.827  0.1387  1.1334  0.0935
  670TIP3    H223646   2.898   5.561   0.780  1.3865 -1.2389 -0.8934
  671TIP3   OH223647   5.753   4.760   7.717  0.0672  0.3733  0.3213
  671TIP3    H123648   5.800   4.842   7.702  0.4701  0.1945  0.5904
  671TIP3    H223649   5.815   4.691   7.695 -1.3891  0.0665 -3.4387
  672TIP3   OH223650   1.584   5.959   0.670 -0.8478 -0.1591 -0.1422
  672TIP3    H123651   1.566   5.986   0.580 -1.2057  1.0029  0.2641
  672TIP3    H223652   1.600   6.040   0.717 -2.6864 -0.5628  1.2935
  673TIP3   OH223653   1.913   0.961   8.372  0.0289  0.5003 -0.5879
  673TIP3    H123654   1.875   0.994   8.290  1.1002  1.0250 -0.8966
  673TIP3    H223655   1.997   0.925   8.345  0.3279  0.5593  0.2677
  674TIP3   OH223656   4.381   5.645   0.695 -0.0645 -0.3905  0.5075
  674TIP3    H123657   4.420   5.601   0.620  0.1952  1.1642 -0.3221
  674TIP3    H223658   4.338   5.722   0.658 -1.1719 -0.3439  1.7964
  675TIP3   OH223659   1.610   4.484   7.118  0.2621  0.8079 -0.4205
  675TIP3    H123660   1.552   4.525   7.183 -1.2939 -2.2878  0.3761
  675TIP3    H223661   1.554   4.472   7.041  0.6134  0.1305 -0.5781
  676TIP3   OH223662   2.272   1.792   6.826 -0.4357  0.1085 -0.0122
  676TIP3    H123663   2.177   1.783   6.829 -0.4933  0.6949 -0.0982
  676TIP3    H223664   2.293   1.854   6.895  0.1018 -1.6236  1.4552
  677TIP3   OH223665   3.246   1.286   2.313 -0.0793 -0.1150 -0.3575
  677TIP3    H123666   3.213   1.229   2.244  0.7995  1.1850 -1.9142
  677TIP3    H223667   3.307   1.231   2.362 -2.4621 -1.7657  0.9588
  678TIP3   OH223668   6.848   0.267   0.165 -0.4167  0.3819  0.1009
  678TIP3    H123669   6.882   0.336   0.222  0.8348  0.9389 -1.2515
  678TIP3    H223670   6.849   0.188   0.220  1.0207  0.8351  0.7818
  679TIP3   OH223671   1.170   4.264   0.185 -0.4348  0.3021 -0.5557
  679TIP3    H123672   1.228   4.293   0.256 -0.0155  1.4965 -1.3493
  679TIP3    H223673   1.213   4.186   0.150 -0.3805  0.0011  0.1681
  680TIP3   OH223674   6.362   3.315   7.674  0.3115  0.0929  0.6430
  680TIP3    H123675   6.289   3.273   7.720 -1.1913  0.2626 -1.4303
  680TIP3    H223676   6.358   3.407   7.702 -1.6495  0.5744 -0.8959
  681TIP3   OH223677   4.860   4.408   1.102 -0.1215 -0.0099  0.1383
  681TIP3    H123678   4.770   4.388   1.126  0.6680 -1.8435  1.8185
  681TIP3    H223679   4.901   4.437   1.183  0.5439  2.0758 -0.8647
  682TIP3   OH223680   1.057   4.298   6.534  0.1964 -0.0991 -0.5927
  682TIP3    H123681   0.968   4.269   6.556  0.1681  0.2818 -0.1894
  682TIP3    H223682   1.103   4.218   6.509 -0.1952 -0.3317 -0.5894
  683TIP3   OH223683   5.883   4.840   0.090  0.3499 -0.0597  0.2410
  683TIP3    H123684   5.895   4.900   0.164  0.3933  0.8990 -0.5218
  683TIP3    H223685   5.965   4.847   0.040 -0.1388  0.2303 -0.5405
  684TIP3   OH223686   0.929   1.167   0.314  0.0632  0.2185  0.0849
  684TIP3    H123687   0.833   1.168   0.314  0.0529 -0.1029 -0.4166
  684TIP3    H223688   0.953   1.170   0.406 -0.4411 -0.2216  0.2354
  685TIP3   OH223689   0.837   0.980   6.320  0.7832 -0.0212  0.2749
  685TIP3    H123690   0.852   0.888   6.301  1.0391  0.1115 -0.1685
  685TIP3    H223691   0.745   0.995   6.296  0.4350 -0.4030  1.3187
  686TIP3   OH223692   5.705   6.690   7.003  0.5426 -0.0649 -0.2542
  686TIP3    H123693   5.671   6.728   6.922  0.5380  2.0427  0.6907
  686TIP3    H223694   5.749   6.762   7.048 -0.0219 -1.0063  1.9451
  687TIP3   OH223695   2.369   1.448   7.729  0.5232 -0.2669 -0.1590
  687TIP3    H123696   2.330   1.362   7.713 -2.0979  0.5965  0.9051
  687TIP3    H223697   2.302   1.495   7.779  1.3727  2.7770 -1.6521
  688TIP3   OH223698   0.696   4.954   8.051 -0.0113  0.2746 -0.3487
  688TIP3    H123699   0.751   5.030   8.033 -0.6143  0.5553 -1.0442
  688TIP3    H223700   0.699   4.944   8.146  0.1113  1.1413 -0.2522
  689TIP3   OH223701   3.438   0.452   2.150 -0.1994 -0.0750  0.3994
  689TIP3    H123702   3.404   0.488   2.232  0.0845  1.9148 -0.3077
  689TIP3    H223703   3.532   0.466   2.155 -0.1914  0.1806 -0.3104
  690TIP3   OH223704   1.376   1.330   0.087  0.4998  0.3308 -0.3131
  690TIP3    H123705   1.453   1.308   0.140  0.4914 -0.7155 -0.7152
  690TIP3    H223706   1.308   1.270   0.117  0.0647  0.7207 -0.5060
  691TIP3   OH223707   4.361   2.564   7.457 -0.4338 -0.3530  0.6811
  691TIP3    H123708   4.443   2.542   7.500 -0.3198 -0.8893  0.2064
  691TIP3    H223709   4.321   2.479   7.438  0.4516 -0.2609 -2.0463
  692TIP3   OH223710   1.018   4.751   1.483  0.1519  0.3835 -0.8865
  692TIP3    H123711   0.998   4.694   1.409  1.6308  0.8937 -1.7275
  692TIP3    H223712   1.111   4.736   1.499  0.0174  0.8303  0.4162
  693TIP3   OH223713   3.786   0.941   8.137  0.1839 -0.4703 -0.5584
  693TIP3    H123714   3.700   0.957   8.177  1.2765 -0.5876  2.0093
  693TIP3    H223715   3.765   0.906   8.050 -2.4158 -1.7767  0.4661
  694TIP3   OH223716   3.275   2.243   7.725 -0.2855  0.5199  0.7137
  694TIP3    H123717   3.187   2.280   7.734 -0.0499  1.1991  0.2777
  694TIP3    H223718   3.293   2.247   7.632  0.2968  0.5936  0.8265
  695TIP3   OH223719   2.615   2.127   8.318 -0.2931 -0.9923 -0.2064
  695TIP3    H123720   2.696   2.176   8.334 -0.0177 -1.6431  0.4442
  695TIP3    H223721   2.579   2.112   8.405 -0.4028 -1.9034 -0.4021
  696TIP3   OH223722   5.544   1.064   0.131  0.1324 -0.3437  0.3565
  696TIP3    H123723   5.622   1.020   0.167  0.5763  0.8498  0.8867
  696TIP3    H223724   5.535   1.143   0.183 -1.0609 -0.1320 -0.1460
  697TIP3   OH223725   3.684   4.549   8.352 -0.0960 -0.2095  0.1324
  697TIP3    H123726   3.642   4.617   8.405  0.1221  0.4146 -0.4703
  697TIP3    H223727   3.740   4.502   8.414  1.2189  1.3754  0.2503
  698TIP3   OH223728   3.837   4.164   7.336  0.2313 -0.2186  0.5735
  698TIP3    H123729   3.770   4.102   7.363  0.6448 -1.1244 -0.4261
  698TIP3    H223730   3.913   4.142   7.389  0.5011 -0.8410 -0.0623
  699TIP3   OH223731   4.028   5.105   2.310 -0.2923  0.0842  0.4075
  699TIP3    H123732   4.023   5.200   2.296  1.3936  0.1237 -0.2034
  699TIP3    H223733   4.099   5.077   2.252  0.2735 -1.3132  1.7265
  700TIP3   OH223734   4.599   2.525   1.726 -0.2847  0.3685 -0.5265
  700TIP3    H123735   4.583   2.564   1.812 -0.0609  1.3338 -0.9131
  700TIP3    H223736   4.513   2.492   1.700 -0.7932  1.8067 -0.7653
  701TIP3   OH223737   1.867   5.489   7.508 -0.2007  0.5348  0.0593
  701TIP3    H123738   1.808   5.447   7.570 -0.9665 -1.8999 -2.0986
  701TIP3    H223739   1.938   5.524   7.561 -1.2200 -0.6537  2.3328
  702TIP3   OH223740   5.858   2.719   8.066 -0.2704  0.2810 -0.4151
  702TIP3    H123741   5.912   2.651   8.026 -0.1435  0.1647 -0.0492
  702TIP3    H223742   5.803   2.751   7.994 -1.3099 -1.1539 -0.2843
  703TIP3   OH223743   0.852   1.298   7.512 -0.7860  0.4484 -0.4542
  703TIP3    H123744   0.834   1.272   7.422 -1.3972  1.1279 -0.5444
  703TIP3    H223745   0.912   1.232   7.546 -0.3120  0.3605 -1.4564
  704TIP3   OH223746   6.649   5.777   7.564  0.3048 -0.3368  0.4677
  704TIP3    H123747   6.666   5.683   7.558  0.0231 -0.3227 -0.8899
  704TIP3    H223748   6.556   5.784   7.584  0.6058 -0.3343  2.0417
  705TIP3   OH223749   2.781   0.524   7.114  0.1341 -0.0582  0.4127
  705TIP3    H123750   2.831   0.462   7.062  0.4881  1.0360 -0.5740
  705TIP3    H223751   2.794   0.608   7.071 -2.4941  0.2968  0.1489
  706TIP3   OH223752   3.512   1.971   7.533  0.0296  1.0505  0.6205
  706TIP3    H123753   3.578   1.962   7.602  0.2368  1.1772  0.4378
  706TIP3    H223754   3.544   2.041   7.477 -0.8788  1.9931  1.2320
  707TIP3   OH223755   0.828   0.382   0.872 -0.5652  0.2220 -0.3732
  707TIP3    H123756   0.858   0.429   0.950 -0.3154 -1.2674  0.4619
  707TIP3    H223757   0.844   0.290   0.892 -0.3444 -0.1867 -2.2591
  708TIP3   OH223758   0.956   6.648   8.083 -0.1953  0.0167 -0.0364
  708TIP3    H123759   0.868   6.623   8.112  0.0518  1.1403  1.8645
  708TIP3    H223760   1.013   6.621   8.155  0.7145  1.2987 -0.2556
  709TIP3   OH223761   3.368   4.433   7.891  0.3730  0.4622  0.2717
  709TIP3    H123762   3.382   4.506   7.952  0.3573 -0.6291  1.6227
  709TIP3    H223763   3.274   4.415   7.896 -0.1270  1.8975 -1.9564
  710TIP3   OH223764   4.889   0.535   0.974  0.8658  0.2810  0.1981
  710TIP3    H123765   4.856   0.600   0.911 -1.3639 -0.2241  0.7715
  710TIP3    H223766   4.884   0.580   1.059  1.9638  0.2725  0.2821
  711TIP3   OH223767   6.050   0.370   1.565 -0.4448 -0.2208 -0.0736
  711TIP3    H123768   6.123   0.322   1.526 -0.9267 -1.3022  0.3179
  711TIP3    H223769   6.031   0.324   1.647  0.0380  1.5394  1.0839
  712TIP3   OH223770   6.291   3.991   0.601  0.9015 -0.4401  0.3753
  712TIP3    H123771   6.331   3.942   0.673 -0.7090  0.0155  1.6498
  712TIP3    H223772   6.281   4.080   0.634 -0.6633 -0.4207 -0.0504
  713TIP3   OH223773   6.374   6.700   1.156  0.6326  0.2414  0.0481
  713TIP3    H123774   6.348   6.608   1.155 -1.7167  0.8263 -1.7052
  713TIP3    H223775   6.293   6.749   1.171  1.3225  2.1040 -1.7430
  714TIP3   OH223776   2.315   3.869   0.075  1.0256 -0.4064  0.5175
  714TIP3    H123777   2.408   3.891   0.072  1.2084 -0.9967  1.3672
  714TIP3    H223778   2.274   3.924   0.008  2.1118 -0.7648 -0.4697
  715TIP3   OH223779   1.645   6.801   8.484 -0.2486 -0.2048 -0.4178
  715TIP3    H123780   1.556   6.817   8.515 -0.3370 -0.9179 -0.2656
  715TIP3    H223781   1.637   6.798   8.388 -0.3403 -0.0074 -0.4164
  716TIP3   OH223782   1.874   4.060   0.282  0.4728 -0.1480 -0.6938
  716TIP3    H123783   1.834   3.978   0.252 -1.0292  1.1780 -2.5710
  716TIP3    H223784   1.848   4.067   0.374 -0.9980 -0.8769 -1.0272
  717TIP3   OH223785   0.861   0.574   8.246  0.0661  0.0031 -0.2529
  717TIP3    H123786   0.869   0.594   8.339 -0.4508  1.8452 -0.5642
  717TIP3    H223787   0.902   0.488   8.236 -0.5203 -0.5581  1.7839
  718TIP3   OH223788   4.472   0.527   8.130 -0.3510 -0.0621 -0.1219
  718TIP3    H123789   4.541   0.493   8.074  0.0227  1.7782 -0.8398
  718TIP3    H223790   4.404   0.557   8.069 -0.4453  0.9207  0.4494
  719TIP3   OH223791   6.677   2.036   7.307 -0.4967 -0.4787  0.3103
  719TIP3    H123792   6.676   2.085   7.225  0.0321 -0.1113  0.5223
  719TIP3    H223793   6.642   2.097   7.372 -1.1952 -0.8650  0.3150
  720TIP3   OH223794   0.469   1.078   1.440  0.3414  0.7453 -0.0919
  720TIP3    H123795   0.516   1.050   1.360  0.6285  3.0268 -0.7914
  720TIP3    H223796   0.391   1.023   1.442  1.4953 -1.0289 -0.5875
  721TIP3   OH223797   5.076   4.207   1.063  1.1691  0.3848  0.3206
  721TIP3    H123798   4.989   4.247   1.071  1.5526  1.2506  0.3093
  721TIP3    H223799   5.105   4.232   0.975  0.2141 -2.4206 -0.8836
  722TIP3   OH223800   2.160   3.349   0.492  0.3948 -0.4305 -0.2427
  722TIP3    H123801   2.087   3.412   0.493  1.5135  0.9175  0.7050
  722TIP3    H223802   2.126   3.272   0.539  0.1741  0.9481  2.0266
  723TIP3   OH223803   1.952   3.046   1.664  0.1046  0.1665 -0.3516
  723TIP3    H123804   1.888   3.047   1.735 -0.7664  0.2145 -1.1225
  723TIP3    H223805   1.987   3.135   1.661 -1.5244  0.8126 -1.4452
  724TIP3   OH223806   4.644   1.806   0.620  0.1296  0.7168  0.0520
  724TIP3    H123807   4.660   1.860   0.697 -0.3208  1.5514 -0.4340
  724TIP3    H223808   4.677   1.719   0.644  0.4987  1.1100  0.9754
  725TIP3   OH223809   5.373   4.570   6.786  0.4817 -0.2447  0.8327
  725TIP3    H123810   5.348   4.593   6.875 -0.4328  2.0149  0.0519
  725TIP3    H223811   5.316   4.622   6.730  1.4995 -1.0785 -1.0897
  726TIP3   OH223812   4.924   4.737   2.291  0.7905 -0.5230  0.4384
  726TIP3    H123813   4.879   4.716   2.373  2.4890 -0.5140  1.4131
  726TIP3    H223814   4.968   4.656   2.266  0.8556 -0.3288 -0.0949
  727TIP3   OH223815   4.157   3.299   6.808 -0.3170  0.0285 -0.0046
  727TIP3    H123816   4.153   3.289   6.713  0.6615  1.3340 -0.2050
  727TIP3    H223817   4.076   3.343   6.832 -0.8369 -0.8245 -0.1372
  728TIP3   OH223818   1.282   1.006   7.257  0.3846  0.0792  0.0720
  728TIP3    H123819   1.232   1.080   7.294  0.3818  0.1145 -0.0012
  728TIP3    H223820   1.290   0.944   7.329  1.9131  0.9102  0.6630
  729TIP3   OH223821   1.926   6.677   1.512  0.0690  0.1521 -0.1820
  729TIP3    H123822   1.891   6.664   1.600 -0.1727  0.7442 -0.1897
  729TIP3    H223823   1.857   6.723   1.465  1.2854  2.5185  0.1761
  730TIP3   OH223824   6.094   0.139   0.829  0.7266  0.4028 -0.0611
  730TIP3    H123825   6.057   0.065   0.877  1.0418 -0.2093 -0.7368
  730TIP3    H223826   6.019   0.175   0.780  0.6958  0.1250 -0.2260
  731TIP3   OH223827   6.540   5.294   7.735  0.0107  0.3327 -0.7053
  731TIP3    H123828   6.452   5.267   7.759 -0.4090  0.3701 -2.1383
  731TIP3    H223829   6.596   5.253   7.801 -1.1766  1.6455  1.2333
  732TIP3   OH223830   4.853   1.583   6.776  0.0171 -0.1393 -0.3133
  732TIP3    H123831   4.880   1.496   6.747  1.4136  0.3113 -0.4620
  732TIP3    H223832   4.926   1.614   6.830 -1.5447 -0.0471  1.8700
  733TIP3   OH223833   6.885   5.600   7.810 -0.2688 -0.0412  0.1649
  733TIP3    H123834   6.941   5.586   7.733 -0.5908  1.4382 -0.3631
  733TIP3    H223835   6.897   5.521   7.863 -0.2290 -1.2099 -1.5113
  734TIP3   OH223836   6.025   2.492   8.047 -0.3324 -0.0726 -0.4378
  734TIP3    H123837   6.022   2.491   8.142  0.9594  3.4392 -0.2229
  734TIP3    H223838   6.108   2.535   8.025  0.0684 -1.9812 -3.2141
  735TIP3   OH223839   2.433   2.161   7.940  0.1869 -0.3215  0.1271
  735TIP3    H123840   2.340   2.156   7.919  0.1506 -1.7165  0.5065
  735TIP3    H223841   2.474   2.198   7.861 -0.6229 -0.1587 -0.2231
  736TIP3   OH223842   4.539   1.243   6.157 -0.7880  0.1932 -0.3382
  736TIP3    H123843   4.595   1.170   6.129 -0.6071 -0.1406  0.8747
  736TIP3    H223844   4.563   1.315   6.099 -0.5374 -0.5276 -1.1493
  737TIP3   OH223845   1.982   0.619   8.030  0.1849  0.9091  0.3275
  737TIP3    H123846   1.960   0.566   7.953 -1.2822  0.0705  1.2553
  737TIP3    H223847   2.029   0.559   8.087 -0.5655  0.8886  0.9433
  738TIP3   OH223848   5.939   1.921   6.695 -0.1901  0.5317 -0.6509
  738TIP3    H123849   6.026   1.925   6.733  0.0425 -3.0438 -0.5207
  738TIP3    H223850   5.901   1.840   6.728 -2.7178  0.8304 -2.4794
  739TIP3   OH223851   6.508   0.941   1.347 -0.3456 -0.1878 -0.3986
  739TIP3    H123852   6.459   0.944   1.429 -0.6421  0.5634 -0.5969
  739TIP3    H223853   6.596   0.970   1.371 -0.3969 -0.0947 -0.3179
  740TIP3   OH223854   0.100   0.083   1.679 -0.2148 -0.2938 -0.7722
  740TIP3    H123855   0.050   0.036   1.745 -1.6637 -1.3403 -2.5063
  740TIP3    H223856   0.110   0.172   1.714 -2.4473 -0.3344  0.0945
  741TIP3   OH223857   0.985   0.957   0.977  0.1423  0.1410 -0.6441
  741TIP3    H123858   1.030   1.035   1.009 -0.0015 -0.0271 -0.0257
  741TIP3    H223859   0.893   0.982   0.974  0.1890  0.2520 -1.2171
  742TIP3   OH223860   4.202   1.022   0.242  1.0990  0.0709  0.1418
  742TIP3    H123861   4.272   1.087   0.252  1.2737 -0.3614  1.8960
  742TIP3    H223862   4.229   0.970   0.166  1.9280  0.8138 -0.0929
  743TIP3   OH223863   0.314   2.965   6.839 -0.1824  0.5191 -0.0822
  743TIP3    H123864   0.300   2.964   6.934  0.0075  2.5297 -0.0024
  743TIP3    H223865   0.403   2.931   6.828 -0.2546  0.1446  0.4266
  744TIP3   OH223866   2.432   0.816   0.934 -0.2910  0.2182 -0.1093
  744TIP3    H123867   2.345   0.778   0.924  1.0093 -3.1434 -0.1127
  744TIP3    H223868   2.453   0.853   0.849 -1.4198  0.3740 -0.3311
  745TIP3   OH223869   2.796   0.487   7.377  0.0898  0.2969 -0.0178
  745TIP3    H123870   2.735   0.414   7.390  1.9087 -1.4466 -0.8034
  745TIP3    H223871   2.794   0.503   7.282  1.1715 -0.0889 -0.1168
  746TIP3   OH223872   1.207   2.404   1.037  0.3766  0.4788 -0.0886
  746TIP3    H123873   1.250   2.459   1.102  0.2152  1.0003 -0.4233
  746TIP3    H223874   1.117   2.396   1.067 -0.0332  1.7611 -0.8922
  747TIP3   OH223875   4.271   1.916   0.004 -0.2863  0.0176 -0.1719
  747TIP3    H123876   4.268   1.877  -0.083 -1.1753  0.9596 -0.5760
  747TIP3    H223877   4.259   2.009  -0.010  0.5139  0.3094  0.8889
  748TIP3   OH223878   3.850   6.793   7.852 -0.1026 -0.2869  0.1237
  748TIP3    H123879   3.809   6.865   7.899 -1.0543 -0.0678 -1.0111
  748TIP3    H223880   3.906   6.750   7.917 -0.0604  1.0462  0.9844
  749TIP3   OH223881   3.034   1.236   7.053  0.3498 -0.6435  0.0138
  749TIP3    H123882   2.950   1.281   7.042  0.0127 -1.8161 -3.4371
  749TIP3    H223883   3.099   1.306   7.051 -0.3939  0.0476 -0.8102
  750TIP3   OH223884   0.142   0.216   0.386  0.7632 -0.0859 -0.3607
  750TIP3    H123885   0.129   0.305   0.353 -0.6766  1.0205  2.7978
  750TIP3    H223886   0.212   0.225   0.451  0.3347 -1.1451  0.2737
  751TIP3   OH223887   1.837   4.415   6.355  0.1721 -0.5154 -0.4144
  751TIP3    H123888   1.878   4.333   6.384  0.8382 -0.2972 -0.7228
  751TIP3    H223889   1.891   4.444   6.282  1.4851  1.4999  1.2253
  752TIP3   OH223890   6.068   5.913   6.802  0.5051 -0.3913 -0.1208
  752TIP3    H123891   6.070   5.866   6.718  1.9616 -0.5337 -0.0223
  752TIP3    H223892   6.152   5.959   6.806 -0.3738  1.2850  0.3392
  753TIP3   OH223893   3.057   0.634   7.757  0.0782 -0.8248  0.1494
  753TIP3    H123894   3.076   0.719   7.797 -0.7740  0.1412 -1.3852
  753TIP3    H223895   3.031   0.578   7.830 -0.3795  0.5450  1.0706
  754TIP3   OH223896   5.322   0.580   0.767 -0.3377  0.1465  0.0980
  754TIP3    H123897   5.352   0.498   0.726  0.1407  0.1325  0.4544
  754TIP3    H223898   5.396   0.639   0.757 -1.0063  0.8290 -0.9373
  755TIP3   OH223899   4.695   5.714   0.125  0.5009 -0.6629 -0.0951
  755TIP3    H123900   4.747   5.690   0.202  1.7233  1.3859 -0.2094
  755TIP3    H223901   4.759   5.739   0.059 -0.5616  1.8919 -0.2775
  756TIP3   OH223902   0.135   5.746   2.360 -0.2991  0.1641  0.1676
  756TIP3    H123903   0.080   5.729   2.283  0.4079 -0.2240 -0.2571
  756TIP3    H223904   0.085   5.810   2.410 -0.9011  0.2163 -0.4746
  757TIP3   OH223905   1.332   5.211   1.409 -0.5491  0.1173 -0.0133
  757TIP3    H123906   1.259   5.213   1.471 -0.4217  0.7361  0.1201
  757TIP3    H223907   1.380   5.130   1.431 -0.9354 -0.0567  0.1927
  758TIP3   OH223908   3.727   1.117   7.384 -0.2377  0.0716  0.3278
  758TIP3    H123909   3.684   1.071   7.313 -0.9726 -2.0887  2.0580
  758TIP3    H223910   3.813   1.141   7.350 -1.5913  1.7751 -2.1979
  759TIP3   OH223911   1.600   3.063   7.704  0.1355  0.6858 -0.0325
  759TIP3    H123912   1.507   3.056   7.686  0.8100 -0.9289 -3.7711
  759TIP3    H223913   1.622   3.154   7.683 -0.4435  0.8427  0.0221
  760TIP3   OH223914   2.704   5.353   8.293 -0.3739 -0.0239  0.1679
  760TIP3    H123915   2.692   5.316   8.380  0.5180 -2.4098 -0.6197
  760TIP3    H223916   2.798   5.341   8.275 -0.8372 -1.3104 -1.7516
  761TIP3   OH223917   5.012   6.178   8.466  0.3585 -0.0436  0.3356
  761TIP3    H123918   5.071   6.134   8.528 -0.6237 -1.0885  0.5640
  761TIP3    H223919   5.025   6.130   8.384 -0.5518 -0.6331  0.5271
  762TIP3   OH223920   6.453   1.473   0.411  0.1465 -1.1701  0.3762
  762TIP3    H123921   6.374   1.478   0.358 -0.5926  3.5092  1.4492
  762TIP3    H223922   6.524   1.499   0.352 -0.0913  0.1952  0.6426
  763TIP3   OH223923   5.170   6.752   0.757  0.2297 -0.1205 -0.5447
  763TIP3    H123924   5.170   6.822   0.823 -1.0021 -0.6300  0.0242
  763TIP3    H223925   5.200   6.674   0.804 -2.7003 -1.0032  0.0733
  764TIP3   OH223926   5.204   4.027   7.952 -0.6217  0.4370 -0.0897
  764TIP3    H123927   5.160   3.980   8.022 -0.1428  0.3928  0.1789
  764TIP3    H223928   5.256   4.094   7.996 -2.9567  2.6947 -0.5143
  765TIP3   OH223929   6.154   0.231   1.128  0.2160  0.2735 -0.2737
  765TIP3    H123930   6.187   0.263   1.044 -3.2541  2.5462 -0.9950
  765TIP3    H223931   6.121   0.309   1.172 -2.7795 -1.4755  0.8640
  766TIP3   OH223932   0.823   0.711   0.648 -0.0429 -0.1674 -0.0043
  766TIP3    H123933   0.759   0.781   0.637 -1.9420 -1.8945 -0.5529
  766TIP3    H223934   0.831   0.672   0.561  1.5699 -0.1688  0.1222
  767TIP3   OH223935   2.085   1.230   0.052  0.2425 -0.1382  0.1982
  767TIP3    H123936   2.093   1.155   0.111 -0.1935 -1.6110 -1.5296
  767TIP3    H223937   2.009   1.209  -0.003 -0.6037  2.1275  0.3924
  768TIP3   OH223938   5.112   3.510   8.565  0.2935  0.1773  0.2530
  768TIP3    H123939   5.160   3.453   8.505 -2.5213 -0.5345 -1.5203
  768TIP3    H223940   5.058   3.451   8.617 -1.7132  1.0146 -0.7294
  769TIP3   OH223941   0.755   0.726   7.739 -0.1785  0.1201  0.5053
  769TIP3    H123942   0.819   0.797   7.744 -1.0141  0.8129  2.4892
  769TIP3    H223943   0.771   0.673   7.817 -0.1267 -1.4221 -0.5043
  770TIP3   OH223944   5.371   4.999   1.519 -0.5765  0.2769  0.0127
  770TIP3    H123945   5.425   5.007   1.440 -0.4484  1.7909  0.2282
  770TIP3    H223946   5.404   5.066   1.578 -2.1140  0.6555  0.4969
  771TIP3   OH223947   6.467   4.990   7.027 -0.0012 -0.0437  0.3980
  771TIP3    H123948   6.425   4.971   7.111 -1.3860  2.1176  0.2410
  771TIP3    H223949   6.398   5.024   6.971  1.3266  0.6323 -0.9218
  772TIP3   OH223950   6.393   0.426   7.636 -0.0816  0.0114  0.4782
  772TIP3    H123951   6.449   0.411   7.560  0.4336 -1.6478  1.1219
  772TIP3    H223952   6.420   0.511   7.670  2.6366 -1.0434  1.1933
  773TIP3   OH223953   5.999   4.799   6.853  0.0163  0.2017  0.0319
  773TIP3    H123954   5.981   4.715   6.811  0.7681  1.1539 -2.4076
  773TIP3    H223955   6.040   4.776   6.936  2.0980 -1.9024 -1.4298
  774TIP3   OH223956   0.909   6.598   7.232  0.1421 -0.4417 -0.0030
  774TIP3    H123957   0.977   6.622   7.169  0.1987 -0.2403  0.1344
  774TIP3    H223958   0.955   6.583   7.314  0.0726 -0.7500 -0.0181
  775TIP3   OH223959   2.132   3.606   8.074 -0.5899 -0.0801 -0.3599
  775TIP3    H123960   2.156   3.695   8.047  1.8639 -0.6136 -0.1851
  775TIP3    H223961   2.158   3.602   8.166  2.6540 -1.9240 -1.1991
  776TIP3   OH223962   1.269   0.790   7.735  0.2471  0.0810  0.5524
  776TIP3    H123963   1.339   0.855   7.740  1.3422 -1.1097  2.0952
  776TIP3    H223964   1.191   0.839   7.710  1.6741  1.4063 -1.6573
  777TIP3   OH223965   2.778   1.200   1.493 -0.0073  0.1888  0.1148
  777TIP3    H123966   2.715   1.138   1.455  0.8721 -0.6664  0.0090
  777TIP3    H223967   2.862   1.175   1.454  0.5356  0.7840  0.8832
  778TIP3   OH223968   4.808   6.546   0.988 -0.2276 -0.1901 -0.5805
  778TIP3    H123969   4.828   6.611   0.921 -1.9013  0.6693 -0.2991
  778TIP3    H223970   4.809   6.595   1.071 -1.1462 -0.5790 -0.3238
  779TIP3   OH223971   4.836   6.249   7.338  0.2125 -0.2408 -0.0967
  779TIP3    H123972   4.764   6.280   7.393  0.6697  0.1750  0.2755
  779TIP3    H223973   4.913   6.252   7.395  0.7885  0.6752 -0.8933
  780TIP3   OH223974   1.707   4.584   7.395 -0.3049  0.3586 -0.2817
  780TIP3    H123975   1.730   4.499   7.432  1.4410  0.7167 -0.4149
  780TIP3    H223976   1.715   4.645   7.468  0.0836  0.6199 -0.5322
  781TIP3   OH223977   2.767   6.551   6.416 -0.0767 -0.2333 -0.3278
  781TIP3    H123978   2.700   6.485   6.398  0.5452 -0.5429 -1.6872
  781TIP3    H223979   2.850   6.507   6.394  0.3369  1.0454 -1.4723
  782TIP3   OH223980   3.311   3.527   6.816  0.4988 -0.0931  0.7490
  782TIP3    H123981   3.350   3.547   6.901  2.2303 -1.6212  0.3626
  782TIP3    H223982   3.366   3.573   6.753  0.6752 -0.8814  0.3125
  783TIP3   OH223983   4.208   6.894   8.017  0.5479  0.3432 -0.3887
  783TIP3    H123984   4.166   6.949   7.951  1.8130  0.6711 -0.9504
  783TIP3    H223985   4.226   6.954   8.090  0.2498  0.2550 -0.2420
  784TIP3   OH223986   1.212   0.689   1.970  0.1281  0.7279 -0.7228
  784TIP3    H123987   1.118   0.707   1.962 -0.1122  1.6723  2.6642
  784TIP3    H223988   1.216   0.600   2.006  0.5140  0.7347 -0.7453
  785TIP3   OH223989   0.011   3.315   7.412 -0.7618 -0.6792 -0.0774
  785TIP3    H123990  -0.076   3.290   7.442 -0.4985 -0.5388  0.8188
  785TIP3    H223991  -0.005   3.383   7.346 -1.3017  0.0824  0.8170
  786TIP3   OH223992   3.380   0.370   1.900  0.2067  0.0516  0.2124
  786TIP3    H123993   3.348   0.279   1.899  4.4080 -1.6349 -0.8371
  786TIP3    H223994   3.403   0.386   1.992 -2.1617  0.8456  0.7435
  787TIP3   OH223995   4.297   6.230   7.272  0.5016  0.5533  0.1641
  787TIP3    H123996   4.260   6.302   7.323  1.0386  0.5111  0.6175
  787TIP3    H223997   4.333   6.272   7.194 -1.4407  0.4808 -0.8417
  788TIP3   OH223998   6.691   5.182   0.445 -0.2692 -0.0549  0.1322
  788TIP3    H123999   6.717   5.202   0.355 -0.0695 -2.1626 -0.3130
  788TIP3    H224000   6.605   5.140   0.436  0.2258 -1.2357  0.8292
  789TIP3   OH224001   4.588   6.660   0.341  0.2911 -0.1012 -0.3710
  789TIP3    H124002   4.527   6.664   0.415  0.9476 -0.4083  0.1984
  789TIP3    H224003   4.611   6.567   0.335  0.6635  0.0071 -0.6075
  790TIP3   OH224004   5.487   3.234   7.285 -0.4930  0.5238  0.0501
  790TIP3    H124005   5.494   3.154   7.233  0.7297  1.4944 -1.3390
  790TIP3    H224006   5.548   3.219   7.358  1.3789  0.9822 -1.3459
  791TIP3   OH224007   1.855   2.755   0.367  0.3011  0.1409  0.1706
  791TIP3    H124008   1.886   2.831   0.317  3.5088 -1.3519 -0.3500
  791TIP3    H224009   1.760   2.759   0.360  0.4624  2.6548 -2.0246
  792TIP3   OH224010   0.408   4.862   2.074  0.0409  0.4908  0.6872
  792TIP3    H124011   0.462   4.801   2.123 -0.0984  0.8574  1.3025
  792TIP3    H224012   0.319   4.826   2.078  0.0378  0.4955  0.6652
  793TIP3   OH224013   6.367   2.175   1.424 -0.3711 -0.0146 -0.3879
  793TIP3    H124014   6.276   2.166   1.452 -0.4487  1.0069 -0.2806
  793TIP3    H224015   6.418   2.167   1.504 -0.3569 -0.5510 -0.4434
  794TIP3   OH224016   6.165   5.990   1.799 -0.3456  0.1194  0.0508
  794TIP3    H124017   6.082   6.036   1.791 -0.7784 -0.6019  0.2792
  794TIP3    H224018   6.141   5.903   1.830  0.4481 -0.2961 -0.4663
  795TIP3   OH224019   3.755   6.628   8.437 -0.2609 -0.3112  0.0892
  795TIP3    H124020   3.742   6.586   8.522 -1.9991 -1.0569 -0.4937
  795TIP3    H224021   3.670   6.667   8.416  0.8911  2.3651 -0.0582
  796TIP3   OH224022   6.648   0.303   8.526 -0.3086  0.0571 -0.4372
  796TIP3    H124023   6.597   0.222   8.529 -0.7793  0.3845  1.7101
  796TIP3    H224024   6.714   0.294   8.594  2.0563  0.0299 -2.5689
  797TIP3   OH224025   4.587   0.215   7.437  0.1973  0.5525 -0.3218
  797TIP3    H124026   4.553   0.267   7.510 -0.7360 -0.6656  0.1518
  797TIP3    H224027   4.609   0.280   7.370 -0.1843  1.6086  0.5330
  798TIP3   OH224028   0.335   5.565   7.991 -0.3172 -0.4916  0.0592
  798TIP3    H124029   0.322   5.653   8.026 -2.3634 -1.1162  1.0252
  798TIP3    H224030   0.417   5.535   8.031 -0.8019  0.1309  1.6120
  799TIP3   OH224031   1.302   6.008   6.721 -0.1005  0.3039  0.4161
  799TIP3    H124032   1.261   5.921   6.722  0.7330 -0.1340 -1.0413
  799TIP3    H224033   1.230   6.069   6.739 -1.1133 -0.5471 -0.6003
  800TIP3   OH224034   6.289   3.573   7.789 -0.4667  0.2176 -0.4229
  800TIP3    H124035   6.243   3.636   7.734 -0.7390  0.2156 -0.2031
  800TIP3    H224036   6.360   3.623   7.829 -0.7850  0.4342 -0.1163
  801TIP3   OH224037   1.465   1.020   0.521  0.4686 -0.2275 -0.2881
  801TIP3    H124038   1.530   1.081   0.555  0.8342 -0.8499  0.1382
  801TIP3    H224039   1.394   1.023   0.585 -0.1407  0.7707 -0.9652
  802TIP3   OH224040   3.047   0.821   6.247 -0.1993 -0.3661  0.0573
  802TIP3    H124041   3.117   0.848   6.306 -1.0829 -0.5235  1.2213
  802TIP3    H224042   3.080   0.742   6.205  0.6671  0.0634 -0.0963
  803TIP3   OH224043   0.876   0.978   1.302  0.0427  0.3962  0.4044
  803TIP3    H124044   0.915   0.893   1.287  1.8173  1.1204  0.7206
  803TIP3    H224045   0.891   0.997   1.394 -1.9384  0.3129  0.7957
  804TIP3   OH224046   2.632   2.539   0.952 -0.0266  0.0420 -0.5522
  804TIP3    H124047   2.543   2.567   0.974 -0.8332 -0.9858 -2.2734
  804TIP3    H224048   2.651   2.582   0.868  0.7962 -0.3480 -0.5805
  805TIP3   OH224049   2.197   5.440   0.056  0.1254 -0.0749  0.1655
  805TIP3    H124050   2.254   5.403  -0.011  1.6197 -0.9809  1.8699
  805TIP3    H224051   2.256   5.480   0.119 -0.6666 -3.7920  3.7057
  806TIP3   OH224052   0.444   5.006   1.162 -0.2012 -0.2169 -0.3956
  806TIP3    H124053   0.473   4.961   1.084 -0.2104 -1.0364  0.0643
  806TIP3    H224054   0.377   4.949   1.200 -0.0090  0.0354  0.3488
  807TIP3   OH224055   2.366   4.042   6.607 -0.0455  0.2725  0.1161
  807TIP3    H124056   2.395   3.995   6.528 -1.2633 -0.1289 -0.1204
  807TIP3    H224057   2.365   4.134   6.582  2.2584  0.4806  0.5454
  808TIP3   OH224058   0.132   0.252   0.908 -0.2195  0.0813 -0.0344
  808TIP3    H124059   0.065   0.184   0.919 -1.5423  1.5851  1.7381
  808TIP3    H224060   0.214   0.203   0.903 -1.0648 -1.6663  1.7658
  809TIP3   OH224061   5.261   6.330   0.520 -0.0721  0.6232 -0.5677
  809TIP3    H124062   5.304   6.415   0.523  0.2451  0.4376  0.3978
  809TIP3    H224063   5.253   6.303   0.612 -1.1481  0.1025 -0.7919
  810TIP3   OH224064   6.258   6.331   6.536 -0.3675 -0.7916 -0.0878
  810TIP3    H124065   6.171   6.352   6.501 -0.6853 -0.2530  0.9969
  810TIP3    H224066   6.263   6.235   6.532 -1.0445 -0.8317 -0.0831
  811TIP3   OH224067   2.338   2.426   2.469  0.1808 -0.0942  0.5223
  811TIP3    H124068   2.394   2.414   2.546  1.6316  0.5510 -0.3954
  811TIP3    H224069   2.249   2.424   2.504  0.7611 -0.8571  2.0703
  812TIP3   OH224070   0.333   0.643   8.080  0.2137  0.0161 -0.5554
  812TIP3    H124071   0.347   0.606   8.167 -3.2536 -1.2805 -0.3628
  812TIP3    H224072   0.308   0.734   8.096  0.2216 -0.0340 -0.2510
  813TIP3   OH224073   0.799   3.190   7.871  0.0534 -0.3653  0.2915
  813TIP3    H124074   0.809   3.099   7.900 -1.8198  0.0875  2.5768
  813TIP3    H224075   0.876   3.235   7.906  0.6262 -0.9096 -0.2447
  814TIP3   OH224076   0.333   5.739   0.914  0.0378  0.5552 -0.0768
  814TIP3    H124077   0.348   5.834   0.913  1.6076  0.3583 -1.9329
  814TIP3    H224078   0.383   5.708   0.990  1.0898  1.0390 -0.5500
  815TIP3   OH224079   1.418   1.487   7.586 -0.2075 -0.3241  0.5499
  815TIP3    H124080   1.504   1.468   7.549  0.0924  0.6210  0.7390
  815TIP3    H224081   1.356   1.470   7.515  0.2971  0.7499 -0.1801
  816TIP3   OH224082   6.488   5.702   2.408 -0.1418 -0.1474 -0.1778
  816TIP3    H124083   6.465   5.785   2.450  0.2010  0.9401 -2.0475
  816TIP3    H224084   6.543   5.727   2.334  0.3754 -2.0954 -0.5028
  817TIP3   OH224085   6.622   4.438   0.829 -0.2777  0.6369  0.1469
  817TIP3    H124086   6.678   4.361   0.823 -1.5722 -0.3808  0.8612
  817TIP3    H224087   6.626   4.477   0.741  0.7975  0.0665 -0.0725
  818TIP3   OH224088   4.810   0.860   8.078 -0.3789 -1.0892 -0.3103
  818TIP3    H124089   4.767   0.786   8.121  1.0861 -2.0043 -0.3619
  818TIP3    H224090   4.904   0.845   8.091 -0.0243  0.5923 -0.6028
  819TIP3   OH224091   0.697   0.996   8.357 -0.1411  0.0006 -0.0072
  819TIP3    H124092   0.716   1.043   8.438  2.6465 -0.2625 -0.4332
  819TIP3    H224093   0.781   0.961   8.328 -1.4174 -1.7954 -1.8800
  820TIP3   OH224094   4.660   2.647   7.038 -0.2868  0.4491  0.5321
  820TIP3    H124095   4.709   2.718   6.997 -0.7146  1.0247  0.9939
  820TIP3    H224096   4.629   2.594   6.965  1.0741  0.0204  0.2291
  821TIP3   OH224097   0.933   1.921   0.109 -0.0320  0.1420  0.1012
  821TIP3    H124098   1.013   1.868   0.114 -0.0419  0.1401  0.2334
  821TIP3    H224099   0.964   2.011   0.105  0.0957  0.0755 -2.4286
  822TIP3   OH224100   0.397   2.659   2.225 -0.0513 -0.5713  0.2442
  822TIP3    H124101   0.336   2.733   2.219  0.2616 -0.2403  1.0083
  822TIP3    H224102   0.481   2.699   2.247  0.2135 -1.1181  0.2519
  823TIP3   OH224103   1.376   6.472   6.765 -0.3327 -0.1721 -0.2860
  823TIP3    H124104   1.392   6.432   6.679  1.6752 -1.2583  0.5263
  823TIP3    H224105   1.395   6.564   6.753  0.1046 -0.3478 -0.9702
  824TIP3   OH224106   6.431   3.847   6.277  0.2705 -0.3549 -0.4442
  824TIP3    H124107   6.471   3.931   6.255  0.3887  0.4907  2.6383
  824TIP3    H224108   6.505   3.787   6.287  0.4305 -0.0066  0.4994
  825TIP3   OH224109   4.542   2.119   8.202  0.0653 -0.0839 -0.5965
  825TIP3    H124110   4.498   2.181   8.260  0.2670  0.6678 -1.2401
  825TIP3    H224111   4.475   2.051   8.186 -0.5177  0.5102 -0.7317
  826TIP3   OH224112   1.973   4.465   1.611  0.2561  0.1525 -0.1952
  826TIP3    H124113   1.879   4.482   1.623  0.3297  0.3352  0.1219
  826TIP3    H224114   1.976   4.376   1.575  0.0209 -0.4272  1.1498
  827TIP3   OH224115   2.807   1.219   1.749 -0.0005 -0.1458  1.2555
  827TIP3    H124116   2.812   1.215   1.654 -0.3188 -1.5913  1.2759
  827TIP3    H224117   2.853   1.140   1.779 -1.2557 -0.5361  2.2370
  828TIP3   OH224118   0.056   5.923   6.951 -0.1182 -0.6790 -0.1716
  828TIP3    H124119   0.066   5.971   6.869  1.8692  0.9422  0.9232
  828TIP3    H224120   0.013   5.985   7.010  0.4423 -1.0464  0.6332
  829TIP3   OH224121   0.009   0.751   7.275  0.0788 -0.2320 -0.0544
  829TIP3    H124122  -0.062   0.694   7.305  0.6093 -0.9816 -0.2043
  829TIP3    H224123   0.076   0.691   7.243  0.7118  0.4792 -0.0754
  830TIP3   OH224124   2.059   2.993   7.899  0.0926  0.5670  0.2614
  830TIP3    H124125   1.965   3.006   7.907  0.4818  2.8328  2.6742
  830TIP3    H224126   2.074   2.906   7.935 -0.9282  0.9604  1.7236
  831TIP3   OH224127   0.659   4.852   0.007  0.2490  0.2044  0.0257
  831TIP3    H124128   0.584   4.792   0.005 -0.8444  1.4867  1.1216
  831TIP3    H224129   0.717   4.817   0.075 -0.1099  0.0742  0.2650
  832TIP3   OH224130   0.231   4.028   1.218  0.1309 -0.2034 -0.1059
  832TIP3    H124131   0.185   4.100   1.262  0.1173 -0.2301 -0.0759
  832TIP3    H224132   0.171   3.998   1.151 -0.7480 -1.5737  1.2390
  833TIP3   OH224133   5.982   6.189   7.303  0.3445 -0.4891 -0.2769
  833TIP3    H124134   5.967   6.150   7.389  0.9207 -1.1366 -0.4609
  833TIP3    H224135   6.075   6.214   7.304  0.3733 -0.5734 -0.7408
  834TIP3   OH224136   1.100   5.635   7.145  0.2097  0.3531 -0.4024
  834TIP3    H124137   1.031   5.700   7.156 -0.1007  0.3462 -2.1011
  834TIP3    H224138   1.174   5.684   7.110  0.4760  0.0426 -0.2829
  835TIP3   OH224139   1.494   2.309   6.209 -0.2192  0.0280  0.6647
  835TIP3    H124140   1.548   2.313   6.130  0.7990 -0.1924  1.3324
  835TIP3    H224141   1.487   2.400   6.238  0.8599 -0.0749  1.2733
  836TIP3   OH224142   1.395   1.895   8.383 -0.2590 -0.0065 -0.3792
  836TIP3    H124143   1.475   1.855   8.418 -0.2787 -2.1877 -2.5859
  836TIP3    H224144   1.357   1.828   8.326 -1.3764  2.4682 -2.7681
  837TIP3   OH224145   0.586   4.674   8.140 -0.0402 -1.2784  0.2850
  837TIP3    H124146   0.673   4.636   8.126  0.2355 -0.3294 -0.7768
  837TIP3    H224147   0.604   4.767   8.156 -0.9236 -0.7927 -1.3283
  838TIP3   OH224148   6.826   1.717   0.540  0.5247 -0.0770 -0.2696
  838TIP3    H124149   6.834   1.796   0.595  0.9940  0.8855 -1.6753
  838TIP3    H224150   6.917   1.687   0.530  0.3300 -0.9245  0.4135
  839TIP3   OH224151   3.285   3.611   0.618  0.0093  0.1627 -0.9381
  839TIP3    H124152   3.311   3.567   0.699  1.2907  1.4719 -0.6036
  839TIP3    H224153   3.214   3.556   0.583  0.8756 -1.6045 -0.0640
  840TIP3   OH224154   3.127   2.548   0.908  0.1576  0.1270 -0.4338
  840TIP3    H124155   3.137   2.522   1.000  1.1937  0.9024 -0.3113
  840TIP3    H224156   3.120   2.643   0.911 -1.1090  0.0766 -1.0698
  841TIP3   OH224157   3.243   5.045   0.742  0.3816  0.6837 -0.1106
  841TIP3    H124158   3.222   4.954   0.761 -1.2224  0.9353 -0.5601
  841TIP3    H224159   3.237   5.089   0.826 -3.5769  1.2093 -0.5151
  842TIP3   OH224160   1.901   5.026   7.386 -0.2765  0.4459 -0.0034
  842TIP3    H124161   1.815   5.059   7.414 -0.1254  1.2947 -0.5134
  842TIP3    H224162   1.890   5.008   7.293 -0.9098 -2.8021  0.5776
  843TIP3   OH224163   1.985   3.392   7.656 -0.0373 -0.2960  0.5562
  843TIP3    H124164   1.906   3.444   7.639  1.7136  1.9601 -1.4621
  843TIP3    H224165   1.963   3.338   7.731 -2.9142  1.5127  1.1535
  844TIP3   OH224166   1.040   5.005   6.795  0.0923  0.1171  0.3019
  844TIP3    H124167   0.996   4.921   6.788  0.2781  0.1521 -1.6344
  844TIP3    H224168   1.097   5.010   6.718 -0.5698  2.3732 -0.1303
  845TIP3   OH224169   2.639   6.174   0.379  0.2071 -0.7152  0.1835
  845TIP3    H124170   2.691   6.114   0.433  1.5286  0.5236  0.3600
  845TIP3    H224171   2.570   6.205   0.437 -1.0657 -2.7145 -0.1760
  846TIP3   OH224172   4.838   3.035   7.097  0.4891  0.3161  0.5965
  846TIP3    H124173   4.893   3.110   7.119 -1.2171  1.4376  1.2649
  846TIP3    H224174   4.765   3.041   7.158 -0.1129 -1.4295  0.0939
  847TIP3   OH224175   1.049   0.878   0.713  0.2258 -0.0151 -0.0637
  847TIP3    H124176   1.014   0.792   0.691 -2.2273  0.2724  2.2648
  847TIP3    H224177   1.052   0.880   0.808  2.8716  1.5608 -0.0655
  848TIP3   OH224178   2.354   5.682   8.106 -0.6051 -0.2106 -0.5372
  848TIP3    H124179   2.403   5.601   8.118  2.8978  1.8275  0.4177
  848TIP3    H224180   2.330   5.709   8.195 -0.9922  0.2510 -0.7734
  849TIP3   OH224181   4.488   3.191   7.557 -0.3238  0.4523 -0.6173
  849TIP3    H124182   4.413   3.249   7.559  1.2456  2.6042  0.7507
  849TIP3    H224183   4.556   3.239   7.510  0.3923 -1.2148 -1.3990
  850TIP3   OH224184   2.353   5.984   7.246  0.2563 -0.7161  0.3952
  850TIP3    H124185   2.325   5.997   7.155  0.3657 -2.0261  0.1546
  850TIP3    H224186   2.272   5.996   7.297  0.4468  1.3983  0.3034
  851TIP3   OH224187   4.005   2.509   1.035 -0.0290  0.1765 -0.6699
  851TIP3    H124188   4.042   2.435   0.987  0.9310 -0.3126  0.7565
  851TIP3    H224189   4.060   2.584   1.011 -0.4603  0.2489 -1.4448
  852TIP3   OH224190   1.770   3.176   1.387  0.5681 -0.3659  0.0653
  852TIP3    H124191   1.760   3.177   1.482 -1.2226  1.2029 -0.0870
  852TIP3    H224192   1.690   3.135   1.355  0.0234  1.3116 -0.8246
  853TIP3   OH224193   6.269   5.952   7.417  0.6894  0.3580 -0.2980
  853TIP3    H124194   6.251   6.030   7.365  0.4867  0.4576 -0.0775
  853TIP3    H224195   6.215   5.884   7.377 -0.2412  0.6725  0.4046
  854TIP3   OH224196   6.931   0.258   6.919  0.8702 -0.4304 -0.3944
  854TIP3    H124197   6.915   0.194   6.988  1.7324 -1.9485 -1.5637
  854TIP3    H224198   6.852   0.256   6.865  0.4024  0.4005  0.2230
  855TIP3   OH224199   4.424   1.528   0.694  0.2083 -0.1407 -0.2750
  855TIP3    H124200   4.436   1.623   0.700  1.1282 -0.3184  1.5230
  855TIP3    H224201   4.385   1.514   0.608  1.0546  1.7656 -1.0334
  856TIP3   OH224202   3.250   3.683   8.004  0.9281  0.4374  0.0877
  856TIP3    H124203   3.261   3.643   8.090 -0.3241  1.2150  0.6473
  856TIP3    H224204   3.276   3.774   8.017 -1.0542  1.0357  0.1657
  857TIP3   OH224205   6.740   3.569   0.396  0.4252  0.4200 -0.2130
  857TIP3    H124206   6.739   3.602   0.306 -1.6303  0.7466 -0.1169
  857TIP3    H224207   6.652   3.588   0.430  0.8158 -0.6314  1.5228
  858TIP3   OH224208   0.398   3.322   0.340  0.1120  0.9524  0.3728
  858TIP3    H124209   0.346   3.241   0.336  0.4789  0.7292 -0.0469
  858TIP3    H224210   0.339   3.387   0.378 -0.5311  0.7455 -0.2416
  859TIP3   OH224211   4.466   1.134   0.657  0.1167 -0.1308 -0.2175
  859TIP3    H124212   4.418   1.071   0.602 -0.5028  0.8019 -0.7665
  859TIP3    H224213   4.557   1.123   0.631  0.1981 -1.6963  0.6054
  860TIP3   OH224214   3.346   3.508   8.250 -0.0269  0.4357 -0.2973
  860TIP3    H124215   3.385   3.523   8.336  2.5280 -1.0191 -1.1028
  860TIP3    H224216   3.350   3.413   8.238 -0.6083  0.5736 -1.9015
  861TIP3   OH224217   3.870   4.924   6.651  0.2384  0.0191  0.0909
  861TIP3    H124218   3.947   4.956   6.603  0.4612 -0.8229 -0.1294
  861TIP3    H224219   3.796   4.943   6.593  0.3221  0.5020  0.1428
  862TIP3   OH224220   0.367   0.865   6.886 -0.1769  0.0907 -0.3339
  862TIP3    H124221   0.290   0.901   6.932  0.8089 -0.6564  2.0810
  862TIP3    H224222   0.344   0.869   6.794 -3.7414 -1.4413  0.3216
  863TIP3   OH224223   0.348   5.146   8.137 -0.1739  0.4282 -0.0818
  863TIP3    H124224   0.443   5.152   8.127  0.0064  0.0912  1.2076
  863TIP3    H224225   0.330   5.053   8.146 -0.2390  0.6185  2.5850
  864TIP3   OH224226   5.254   3.267   8.449  0.2651  0.4030  0.1032
  864TIP3    H124227   5.344   3.246   8.426 -0.6649 -1.6665 -2.0803
  864TIP3    H224228   5.227   3.198   8.509 -0.1750  0.3683 -0.1233
  865TIP3   OH224229   3.256   0.799   0.605  0.0109 -0.7477 -0.1224
  865TIP3    H124230   3.232   0.784   0.514  0.0950 -1.2803 -0.0595
  865TIP3    H224231   3.334   0.854   0.600 -1.3864  1.2963 -0.3154
  866TIP3   OH224232   4.051   5.144   1.422  0.2657 -0.9616 -0.3460
  866TIP3    H124233   4.138   5.153   1.459  0.3892  0.6133 -0.9328
  866TIP3    H224234   3.994   5.195   1.480  0.2196  0.2802 -1.4317
  867TIP3   OH224235   5.818   1.827   1.389  0.2160  0.4933  0.4310
  867TIP3    H124236   5.905   1.866   1.402 -0.0221  0.9692  0.6329
  867TIP3    H224237   5.784   1.814   1.477  0.9091 -1.6557  0.4526
  868TIP3   OH224238   5.702   2.283   8.043  0.4652  0.4288  0.6319
  868TIP3    H124239   5.728   2.284   8.135  0.5265 -1.2659  0.6642
  868TIP3    H224240   5.672   2.193   8.028 -3.1482  1.5955 -0.0249
  869TIP3   OH224241   3.076   1.302   0.594  0.4952  0.4555 -0.2163
  869TIP3    H124242   3.072   1.320   0.501  0.5757 -0.8616 -0.4978
  869TIP3    H224243   3.025   1.372   0.635  0.2527  0.9014 -1.2569
  870TIP3   OH224244   6.836   4.265   1.986 -0.2679 -0.1568 -0.4521
  870TIP3    H124245   6.868   4.289   2.073 -1.7854 -2.0916  0.7177
  870TIP3    H224246   6.742   4.284   1.990 -0.5458 -1.2952 -1.2932
  871TIP3   OH224247   4.213   2.740   7.311 -0.4010 -0.2564  0.1419
  871TIP3    H124248   4.273   2.696   7.372  0.1932  0.6621  0.2375
  871TIP3    H224249   4.223   2.692   7.229  1.0055  0.2920 -0.0448
  872TIP3   OH224250   3.899   1.468   0.104 -0.6553 -0.1384 -0.6731
  872TIP3    H124251   3.960   1.442   0.173  1.0860 -0.1971 -2.1479
  872TIP3    H224252   3.848   1.389   0.086 -0.6285 -0.3236  0.0588
  873TIP3   OH224253   0.259   5.667   0.260 -0.1286  0.0213  0.1509
  873TIP3    H124254   0.298   5.754   0.255 -0.8055  0.3504  0.3682
  873TIP3    H224255   0.333   5.607   0.263  0.3493  0.5541 -0.5627
  874TIP3   OH224256   0.376   6.123   0.002 -0.0084 -0.0373 -0.8178
  874TIP3    H124257   0.320   6.112  -0.075  0.9716 -0.3982 -1.5080
  874TIP3    H224258   0.442   6.053  -0.007  0.6820  0.5145 -0.1608
  875TIP3   OH224259   6.576   2.692   6.371  0.4004 -0.5152 -0.1369
  875TIP3    H124260   6.535   2.761   6.319  1.2805  0.3251  0.2640
  875TIP3    H224261   6.631   2.645   6.308 -1.6051 -2.0817 -0.8363
  876TIP3   OH224262   4.312   3.305   1.700 -0.5352  0.1965  0.1886
  876TIP3    H124263   4.385   3.299   1.762 -0.4263 -1.2711 -0.0509
  876TIP3    H224264   4.251   3.237   1.727 -0.1823 -0.9257 -1.6622
  877TIP3   OH224265   5.570   5.637   7.759 -0.4644 -0.2061 -0.6780
  877TIP3    H124266   5.560   5.545   7.734  2.2500 -0.5088 -0.9627
  877TIP3    H224267   5.550   5.686   7.679 -3.1661 -0.3726 -0.2073
  878TIP3   OH224268   2.230   5.775   6.461 -0.0364 -0.9200 -0.7659
  878TIP3    H124269   2.177   5.718   6.406 -0.1181  0.8721 -2.6568
  878TIP3    H224270   2.292   5.815   6.401  1.8754 -1.0924  0.9838
  879TIP3   OH224271   6.436   0.838   1.930  0.3572 -0.4913  0.0010
  879TIP3    H124272   6.342   0.847   1.948  0.8668  0.2915  2.7332
  879TIP3    H224273   6.457   0.914   1.876 -0.5701 -0.7115 -0.7024
  880TIP3   OH224274   3.610   6.391   7.588  0.0303 -0.4527  0.1739
  880TIP3    H124275   3.594   6.475   7.630  0.3200 -0.0778 -0.4586
  880TIP3    H224276   3.607   6.410   7.494  2.4402 -0.6709 -0.0101
  881TIP3   OH224277   0.138   2.683   0.156  0.4439  0.7298  0.3316
  881TIP3    H124278   0.203   2.616   0.138 -0.7314 -0.0477 -1.2202
  881TIP3    H224279   0.133   2.734   0.076 -0.6953  0.9073  0.4952
  882TIP3   OH224280   2.371   6.703   0.804 -0.6698 -0.3413  0.1658
  882TIP3    H124281   2.288   6.736   0.771  0.0190  1.9361  0.5834
  882TIP3    H224282   2.349   6.618   0.843 -2.5809 -0.2775 -0.6950
  883TIP3   OH224283   1.802   1.639   6.317  0.2632  0.4010 -0.1308
  883TIP3    H124284   1.746   1.565   6.339  0.5549 -0.6611 -2.5744
  883TIP3    H224285   1.889   1.614   6.347 -0.1119  1.0588  1.6130
  884TIP3   OH224286   0.310   2.589   0.390  0.2792 -0.3606 -0.3905
  884TIP3    H124287   0.378   2.596   0.323 -0.0196 -1.1540 -0.7865
  884TIP3    H224288   0.295   2.679   0.418  2.3446 -0.2474  0.5860
  885TIP3   OH224289   5.161   6.087   0.101 -0.0447 -0.0961  0.4360
  885TIP3    H124290   5.144   5.992   0.103 -0.1254 -0.0860  0.2596
  885TIP3    H224291   5.116   6.120   0.179 -0.7689 -0.0851  0.0223
  886TIP3   OH224292   1.613   3.375   1.955  0.1650  0.0218  0.1834
  886TIP3    H124293   1.569   3.291   1.965 -0.5077  0.2292 -0.8624
  886TIP3    H224294   1.610   3.414   2.042  0.1292 -0.8591  0.5911
  887TIP3   OH224295   0.379   0.203   7.021  0.4773 -0.2266  0.2462
  887TIP3    H124296   0.307   0.171   6.967 -0.4537 -0.3839  1.5261
  887TIP3    H224297   0.443   0.237   6.959 -0.7574  0.0311 -0.9216
  888TIP3   OH224298   5.027   2.493   1.927  0.2160 -0.2846 -0.3280
  888TIP3    H124299   5.046   2.420   1.986  1.7360  1.3416  1.3281
  888TIP3    H224300   4.973   2.553   1.980  1.4793  1.1361 -0.5617
  889TIP3   OH224301   2.694   4.781   0.590 -0.0100 -0.3011 -0.4409
  889TIP3    H124302   2.683   4.692   0.623  1.0332 -0.2052  0.2085
  889TIP3    H224303   2.741   4.771   0.508  0.0519 -0.3600 -0.3986
  890TIP3   OH224304   5.196   4.843   6.947 -0.5827  0.6390  0.6865
  890TIP3    H124305   5.194   4.803   7.034  2.3115 -0.2383  0.4492
  890TIP3    H224306   5.210   4.936   6.964  2.3683  0.1879  1.2647
  891TIP3   OH224307   5.835   1.686   0.761  0.1431 -0.0050 -0.3134
  891TIP3    H124308   5.773   1.614   0.748  0.1817  0.0404 -0.7794
  891TIP3    H224309   5.786   1.765   0.737  0.1239  0.1139  0.1229
  892TIP3   OH224310   0.725   6.044   0.625 -0.1587 -0.6388  0.1962
  892TIP3    H124311   0.768   5.992   0.693 -1.3146 -0.9871  0.6812
  892TIP3    H224312   0.634   6.016   0.627 -0.4609  0.2172 -0.6853
  893TIP3   OH224313   0.978   1.810   1.238 -0.0523  0.2570 -0.2259
  893TIP3    H124314   0.956   1.749   1.308 -0.4346 -2.5986 -2.6529
  893TIP3    H224315   0.894   1.843   1.208 -0.0265  0.1054 -0.4692
  894TIP3   OH224316   5.477   4.737   8.347  0.2591  0.0666  0.5267
  894TIP3    H124317   5.507   4.826   8.369  0.3052  0.2932 -0.3906
  894TIP3    H224318   5.533   4.711   8.274  0.5950 -0.9371  1.1326
  895TIP3   OH224319   1.608   1.548   2.142  0.2429  0.0723 -0.4371
  895TIP3    H124320   1.616   1.465   2.096 -0.2613 -1.6742  2.4496
  895TIP3    H224321   1.517   1.574   2.130 -0.0448 -0.6888  0.1310
  896TIP3   OH224322   3.192   1.343   8.338  0.4125  0.3777  0.6271
  896TIP3    H124323   3.208   1.376   8.426  0.6083  0.0923  0.7021
  896TIP3    H224324   3.273   1.297   8.314  0.5943  0.9750  0.0522
  897TIP3   OH224325   4.241   4.890   1.673  0.0984 -0.2685 -0.7598
  897TIP3    H124326   4.255   4.947   1.749  1.4168  0.3237 -1.4225
  897TIP3    H224327   4.237   4.802   1.710  0.2710  0.0554  0.0458
  898TIP3   OH224328   4.194   6.362   0.397 -0.2320 -0.3865 -0.3853
  898TIP3    H124329   4.168   6.442   0.352  0.7604  0.8336  1.1080
  898TIP3    H224330   4.158   6.371   0.485  0.2612 -1.3820 -0.0677
  899TIP3   OH224331   3.887   1.543   1.145 -0.1795 -0.7706  0.0751
  899TIP3    H124332   3.829   1.530   1.220 -1.2438 -2.0062 -0.9086
  899TIP3    H224333   3.951   1.472   1.151  0.6369 -0.0220  0.5783
  900TIP3   OH224334   1.909   4.813   1.109  0.5275  0.1869  0.1466
  900TIP3    H124335   1.819   4.828   1.140  0.9632  2.8992  0.4045
  900TIP3    H224336   1.946   4.751   1.172 -1.1164 -0.9473  0.0572
  901TIP3   OH224337   3.665   2.673   0.525  0.0468  0.4012 -0.1911
  901TIP3    H124338   3.733   2.722   0.571 -1.3340  1.4507  0.7987
  901TIP3    H224339   3.687   2.685   0.432  0.7886  1.3428  0.0818
  902TIP3   OH224340   5.058   2.770   1.514 -0.0080  0.6938  0.4897
  902TIP3    H124341   5.113   2.696   1.540 -0.7082 -0.4957 -1.2068
  902TIP3    H224342   5.120   2.839   1.488  0.6678  1.1548  3.0753
  903TIP3   OH224343   0.513   2.130   2.232  0.8605 -0.1741 -0.3034
  903TIP3    H124344   0.545   2.217   2.207  0.2758 -0.0299 -0.5469
  903TIP3    H224345   0.436   2.147   2.287  1.8286 -0.4859  1.2407
  904TIP3   OH224346   3.283   3.209   8.266  0.7283  0.4174  0.5867
  904TIP3    H124347   3.264   3.123   8.302  0.1394 -0.1536 -1.0180
  904TIP3    H224348   3.325   3.192   8.182  0.9621  1.6970  0.4152
  905TIP3   OH224349   4.664   6.859   1.124 -0.2035 -0.5278  0.2601
  905TIP3    H124350   4.641   6.873   1.216 -0.7849  0.1890  0.0083
  905TIP3    H224351   4.753   6.824   1.127  0.2306  0.5842  1.0541
  906TIP3   OH224352   3.750   6.844   6.392 -0.0638 -0.7081  0.1766
  906TIP3    H124353   3.733   6.863   6.484 -1.3887 -1.6400  0.1509
  906TIP3    H224354   3.677   6.883   6.345  0.3117 -0.7131 -0.4274
  907TIP3   OH224355   2.760   2.351   7.154  0.2542  0.2580  0.2070
  907TIP3    H124356   2.779   2.442   7.177  2.7830 -0.2056  0.2785
  907TIP3    H224357   2.846   2.309   7.150 -0.8356 -2.1302  0.0944
  908TIP3   OH224358   5.346   0.371   7.893 -0.4159  0.2679 -0.1874
  908TIP3    H124359   5.259   0.402   7.869 -0.5905  0.1449  0.2699
  908TIP3    H224360   5.380   0.437   7.954  0.1765  0.7721 -1.0461
  909TIP3   OH224361   4.335   1.982   1.887 -0.0241 -0.3971  0.0553
  909TIP3    H124362   4.321   1.903   1.939 -0.2446  0.5504  1.4981
  909TIP3    H224363   4.265   1.980   1.821  0.1942 -1.5665 -0.1604
  910TIP3   OH224364   0.485   2.961   6.141  0.1257 -0.3784  0.5180
  910TIP3    H124365   0.549   2.917   6.198 -0.4228 -0.9624  0.7031
  910TIP3    H224366   0.401   2.920   6.164 -0.6676  1.7872  1.7625
  911TIP3   OH224367   2.055   6.593   1.084  0.3346 -0.0515  0.0744
  911TIP3    H124368   2.132   6.647   1.103 -1.4940  2.3728  1.2067
  911TIP3    H224369   2.050   6.530   1.156  0.4254  0.8285  0.8700
  912TIP3   OH224370   5.595   3.038   1.655  0.6804 -0.5601 -0.5201
  912TIP3    H124371   5.582   3.002   1.743  1.3628 -0.9010 -0.5536
  912TIP3    H224372   5.648   2.973   1.610  0.2488 -0.4332 -1.2246
  913TIP3   OH224373   3.175   1.261   6.656 -0.4805 -0.3584 -0.4486
  913TIP3    H124374   3.119   1.278   6.580 -1.5696  0.5956  0.5365
  913TIP3    H224375   3.179   1.345   6.702  1.4113 -0.5177 -0.2437
  914TIP3   OH224376   3.041   2.787   6.255  0.1002 -0.3948 -0.4531
  914TIP3    H124377   3.000   2.874   6.256 -0.7049 -0.7684  0.3244
  914TIP3    H224378   3.021   2.750   6.341  0.8359 -1.1756 -0.6044
  915TIP3   OH224379   1.542   2.541   1.563 -0.2859  0.8979 -0.7771
  915TIP3    H124380   1.515   2.485   1.635  3.3794 -0.0626  0.0562
  915TIP3    H224381   1.471   2.534   1.499 -3.0982  0.8221  2.1113
  916TIP3   OH224382   6.373   2.333   8.115 -0.2142 -0.0629  0.3786
  916TIP3    H124383   6.431   2.261   8.090 -0.9601 -0.7014  0.4650
  916TIP3    H224384   6.374   2.333   8.210  0.1778  0.3809  0.3840
  917TIP3   OH224385   6.265   2.797   1.173  0.2007 -0.0902  0.2662
  917TIP3    H124386   6.329   2.798   1.102 -1.1315  0.3683 -0.9670
  917TIP3    H224387   6.283   2.715   1.220  2.5806  0.6867  0.8479
  918TIP3   OH224388   4.585   4.589   8.443  0.0121  0.1669 -0.1164
  918TIP3    H124389   4.601   4.601   8.537 -0.8631  0.5727 -0.0084
  918TIP3    H224390   4.661   4.629   8.401  0.7762 -0.6720  0.4257
  919TIP3   OH224391   3.359   1.859   8.000  0.3001  0.5079 -0.4726
  919TIP3    H124392   3.314   1.779   7.970  2.0159 -1.1518  1.0815
  919TIP3    H224393   3.311   1.885   8.079  0.1337  0.6153 -0.6100
  920TIP3   OH224394   0.892   6.576   7.690  0.6070  0.5616 -0.2903
  920TIP3    H124395   0.920   6.531   7.770  0.6958 -1.3697 -1.3366
  920TIP3    H224396   0.816   6.628   7.716  0.2593 -0.5142  0.9283
  921TIP3   OH224397   1.364   2.999   7.166  0.0011  0.4220  0.2347
  921TIP3    H124398   1.428   3.070   7.172 -1.0945  1.4286  0.5040
  921TIP3    H224399   1.332   2.988   7.256 -0.1591 -0.1182  0.1168
  922TIP3   OH224400   4.247   2.232   0.531 -0.2490  0.3831 -0.0005
  922TIP3    H124401   4.184   2.165   0.503 -0.9193  0.7075  0.7048
  922TIP3    H224402   4.318   2.182   0.571 -0.7429  0.0893  0.5225
  923TIP3   OH224403   4.652   1.748   7.648 -0.6104  0.8259 -0.4253
  923TIP3    H124404   4.698   1.827   7.619 -0.9383  0.8686 -0.8368
  923TIP3    H224405   4.630   1.765   7.739 -2.1553  1.9259 -0.9488
  924TIP3   OH224406   4.254   1.492   6.484 -0.0390 -0.2013  0.0817
  924TIP3    H124407   4.244   1.542   6.403  0.0353 -0.1078  0.1302
  924TIP3    H224408   4.273   1.558   6.551  0.1450 -0.3038  0.1298
  925TIP3   OH224409   1.493   3.718   1.245 -0.2654 -0.4206 -0.2857
  925TIP3    H124410   1.570   3.671   1.213  0.9865 -0.3064  2.3291
  925TIP3    H224411   1.435   3.650   1.279 -0.0104 -0.3279  0.3479
  926TIP3   OH224412   3.406   5.817   1.655  0.3540  0.1534 -0.0977
  926TIP3    H124413   3.348   5.881   1.614  0.6098  0.8640  0.6274
  926TIP3    H224414   3.436   5.762   1.583 -2.6292 -1.4196 -0.2863
  927TIP3   OH224415   3.593   2.841   7.538 -0.0395  0.3766 -0.1244
  927TIP3    H124416   3.676   2.804   7.510 -0.8939 -0.6236 -1.4904
  927TIP3    H224417   3.590   2.825   7.632  1.7050  1.2975  0.1282
  928TIP3   OH224418   0.227   4.747   6.669  0.5598  0.4619 -0.2496
  928TIP3    H124419   0.317   4.759   6.639  0.1980  0.3136 -1.4063
  928TIP3    H224420   0.212   4.821   6.729  1.1688  0.9549 -0.6976
  929TIP3   OH224421   6.917   4.153   0.433  0.5027  0.1021 -0.3214
  929TIP3    H124422   6.880   4.065   0.439  1.6249 -0.4880 -1.6210
  929TIP3    H224423   6.956   4.168   0.519 -0.0230 -0.5155  0.0363
  930TIP3   OH224424   3.540   4.102   1.814  0.5107 -0.1001  0.3267
  930TIP3    H124425   3.630   4.130   1.796  1.3121 -1.7868  1.4305
  930TIP3    H224426   3.547   4.008   1.831 -1.9926 -1.1396 -3.1850
  931TIP3   OH224427   4.165   6.774   7.503 -0.1907  0.0198 -0.0913
  931TIP3    H124428   4.236   6.836   7.521  0.4997 -0.8788  0.3472
  931TIP3    H224429   4.179   6.747   7.412  0.6984 -0.9842  0.3301
  932TIP3   OH224430   3.984   4.345   1.254 -0.1821  0.5443  0.1167
  932TIP3    H124431   3.955   4.419   1.308 -1.7241 -0.9174  1.4184
  932TIP3    H224432   3.974   4.376   1.164 -0.0559  2.1765  0.6296
  933TIP3   OH224433   5.845   3.871   7.001 -0.3835 -0.0504 -0.3170
  933TIP3    H124434   5.919   3.932   7.009 -0.6941  0.1452  1.2881
  933TIP3    H224435   5.869   3.796   7.056 -1.6208  0.2888  0.7227
  934TIP3   OH224436   2.877   2.255   0.274  0.3653 -0.0929  0.8504
  934TIP3    H124437   2.850   2.290   0.359  0.3938 -0.7540  1.1434
  934TIP3    H224438   2.919   2.329   0.230  2.5772 -0.3036  2.3946
  935TIP3   OH224439   1.386   2.698   6.684  0.3796  0.3930  0.1952
  935TIP3    H124440   1.451   2.684   6.615 -0.9482 -1.8311 -0.7025
  935TIP3    H224441   1.403   2.787   6.715  2.7889  0.4734 -1.0961
  936TIP3   OH224442   4.850   5.467   0.023 -0.1288 -0.0510  0.3133
  936TIP3    H124443   4.927   5.411   0.022 -0.8251 -1.0358  0.2241
  936TIP3    H224444   4.840   5.496  -0.068 -0.5997 -0.9771  0.0595
  937TIP3   OH224445   1.034   5.995   8.205 -0.0942  0.3210 -0.1413
  937TIP3    H124446   0.988   5.955   8.132 -1.0512 -0.3463  0.7932
  937TIP3    H224447   1.039   5.926   8.271  1.5662  0.6230  0.0964
  938TIP3   OH224448   5.223   5.969   7.884  0.0537 -0.6107  0.1916
  938TIP3    H124449   5.245   5.970   7.791  0.3477  0.2469  0.2601
  938TIP3    H224450   5.300   5.931   7.927  0.1689 -0.4294  0.1446
  939TIP3   OH224451   5.770   6.083   0.113 -0.5583 -0.7956 -0.4390
  939TIP3    H124452   5.734   6.040   0.190  0.1724 -0.2401  0.2297
  939TIP3    H224453   5.854   6.039   0.098 -0.1977 -0.1785 -0.2592
  940TIP3   OH224454   2.458   5.271   1.383 -0.0568  0.1332  0.0764
  940TIP3    H124455   2.437   5.364   1.373 -0.4558 -0.0353 -0.7731
  940TIP3    H224456   2.391   5.226   1.333  0.5235 -0.5861 -0.0737
  941TIP3   OH224457   1.967   1.179   7.142  0.4618  0.6148  0.2339
  941TIP3    H124458   1.994   1.175   7.051  1.8308 -0.4118  0.6522
  941TIP3    H224459   1.932   1.268   7.153  1.0173  1.0184 -1.0664
  942TIP3   OH224460   5.137   3.589   1.081 -0.5678 -0.4766 -0.4910
  942TIP3    H124461   5.107   3.574   0.991 -0.3336  0.7582 -0.7863
  942TIP3    H224462   5.148   3.684   1.088 -0.3697 -0.5713  0.7786
  943TIP3   OH224463   5.886   5.878   7.705 -1.0113 -0.4916  0.4410
  943TIP3    H124464   5.971   5.868   7.747  0.1216  0.7821 -1.4229
  943TIP3    H224465   5.823   5.870   7.777  0.6914 -0.8361  1.9597
  944TIP3   OH224466   2.282   5.441   7.589  0.1529  0.1548 -0.0485
  944TIP3    H124467   2.218   5.378   7.559 -1.4611  1.9669 -0.6334
  944TIP3    H224468   2.344   5.449   7.516 -0.2620  0.0588 -0.4141
  945TIP3   OH224469   6.503   3.725   0.440 -0.1599  0.5395 -0.4382
  945TIP3    H124470   6.436   3.659   0.459 -0.5920  0.9727 -0.4622
  945TIP3    H224471   6.513   3.774   0.521  1.2324 -0.4910  0.0500
  946TIP3   OH224472   1.718   3.858   6.586  0.2053 -0.1566 -0.5828
  946TIP3    H124473   1.704   3.785   6.524 -1.7489  0.6069 -1.1000
  946TIP3    H224474   1.804   3.893   6.561  0.8169 -1.7516 -0.8628
  947TIP3   OH224475   3.630   5.296   0.031 -0.5899  0.1366 -0.1314
  947TIP3    H124476   3.720   5.329   0.039 -0.8220  0.6068  0.5838
  947TIP3    H224477   3.618   5.285  -0.064  0.3736 -0.3679 -0.2036
  948TIP3   OH224478   5.072   0.430   7.847 -0.2369  0.1365 -0.0567
  948TIP3    H124479   5.022   0.420   7.929  2.3376 -0.1549  1.5928
  948TIP3    H224480   5.040   0.359   7.792  0.1533 -1.7410  1.9690
  949TIP3   OH224481   1.462   4.645   1.231 -0.0175 -0.0109  0.4776
  949TIP3    H124482   1.422   4.580   1.174 -0.0046  1.2883 -1.0714
  949TIP3    H224483   1.556   4.636   1.216  0.0239 -0.0703  0.7628
  950TIP3   OH224484   3.402   2.394   0.199 -0.1263 -0.3869  0.2781
  950TIP3    H124485   3.431   2.303   0.200  1.3212  0.0537  0.6460
  950TIP3    H224486   3.475   2.443   0.236 -1.6547  0.7231  1.9521
  951TIP3   OH224487   6.566   5.566   0.822  0.7859 -0.5628 -0.2418
  951TIP3    H124488   6.499   5.501   0.844  1.2544 -0.7428  0.6761
  951TIP3    H224489   6.541   5.643   0.873 -0.9614  0.7749 -2.8232
  952TIP3   OH224490   1.138   6.214   0.801  0.5470  0.1345 -0.2588
  952TIP3    H124491   1.140   6.179   0.712 -0.3941  0.6787 -0.5123
  952TIP3    H224492   1.052   6.188   0.835  1.2464 -0.8365  0.8264
  953TIP3   OH224493   4.950   1.299   6.729 -0.1304  0.4568  0.1186
  953TIP3    H124494   4.914   1.274   6.644  1.2989 -2.7425  0.3109
  953TIP3    H224495   5.026   1.354   6.707  0.1913 -0.2883 -0.7058
  954TIP3   OH224496   2.768   3.349   6.810  0.5956 -0.2124  0.8331
  954TIP3    H124497   2.855   3.387   6.817  0.9355 -0.9236  0.5838
  954TIP3    H224498   2.708   3.424   6.812  1.3119  0.5160 -1.6681
  955TIP3   OH224499   6.039   2.916   1.308  0.5344  0.3562 -0.1441
  955TIP3    H124500   6.065   2.887   1.395  0.5502  0.6520 -0.0489
  955TIP3    H224501   6.116   2.900   1.253  0.7059  0.6622  0.0081
  956TIP3   OH224502   2.098   4.171   1.956 -0.1569 -0.3586  0.0847
  956TIP3    H124503   2.174   4.206   2.003 -0.4895  0.1515  0.2536
  956TIP3    H224504   2.136   4.119   1.885  0.3512 -0.2758  0.2894
  957TIP3   OH224505   1.537   3.053   1.283  0.3820 -0.2674 -0.5195
  957TIP3    H124506   1.511   3.019   1.198 -2.3257  0.4695 -0.0732
  957TIP3    H224507   1.455   3.059   1.333  1.9274 -1.1691  2.3380
  958TIP3   OH224508   3.389   5.152   1.204 -0.1425 -0.2037  0.6948
  958TIP3    H124509   3.402   5.088   1.135  0.4288  0.9129 -0.2758
  958TIP3    H224510   3.472   5.200   1.209 -0.0225 -0.5287  2.4598
  959TIP3   OH224511   4.313   6.374   1.884  0.2359  0.0301 -0.1297
  959TIP3    H124512   4.238   6.433   1.891 -0.1133 -0.1983 -1.6994
  959TIP3    H224513   4.278   6.289   1.912 -0.0892 -0.0736 -0.8454
  960TIP3   OH224514   4.533   3.667   0.097 -0.3414  0.0236  0.1921
  960TIP3    H124515   4.587   3.663   0.018 -0.2891 -0.3153  0.2426
  960TIP3    H224516   4.443   3.671   0.064 -0.2970  0.3354  0.1102
  961TIP3   OH224517   1.033   5.876   1.803  0.4636 -0.2881  0.1963
  961TIP3    H124518   1.039   5.956   1.751  1.6303  0.1225  0.9121
  961TIP3    H224519   1.063   5.807   1.744 -1.2701 -0.3341 -0.6667
  962TIP3   OH224520   4.676   6.014   0.965 -0.1003  0.0842  0.3112
  962TIP3    H124521   4.645   6.081   1.026 -0.6828  0.0707  0.0333
  962TIP3    H224522   4.603   5.952   0.958 -0.4618  0.6413 -1.2071
  963TIP3   OH224523   1.061   3.189   2.082  0.4721 -0.5553  0.0358
  963TIP3    H124524   1.088   3.281   2.079 -2.6565  0.4694 -0.7206
  963TIP3    H224525   1.095   3.156   2.165  2.5848  0.9169 -0.1696
  964TIP3   OH224526   3.556   0.183   8.167 -0.3451 -0.3185 -0.3802
  964TIP3    H124527   3.606   0.115   8.211  0.2317 -0.8462 -1.7999
  964TIP3    H224528   3.469   0.145   8.155  0.1267 -1.0541 -1.6540
  965TIP3   OH224529   1.986   4.748   1.362  0.4033 -0.2112 -0.3741
  965TIP3    H124530   1.955   4.731   1.451 -0.3916 -1.3387 -0.8418
  965TIP3    H224531   2.072   4.790   1.374 -0.2114  0.7587  0.9188
  966TIP3   OH224532   6.223   3.920   0.130 -0.0733 -0.0380  0.8230
  966TIP3    H124533   6.299   3.864   0.144 -0.1566 -0.7001 -1.1188
  966TIP3    H224534   6.230   3.947   0.039 -0.9554  1.7643  1.2540
  967TIP3   OH224535   1.349   3.388   6.291  0.2294 -0.0418 -0.2620
  967TIP3    H124536   1.355   3.474   6.333 -1.5829 -0.7152  1.5620
  967TIP3    H224537   1.438   3.353   6.295  0.2257  0.0033  3.0564
  968TIP3   OH224538   0.626   4.212   6.340  0.5606  0.1403  0.0107
  968TIP3    H124539   0.660   4.208   6.250  1.2977  1.2179  0.2198
  968TIP3    H224540   0.651   4.299   6.371 -1.6200  0.6436  0.5174
  969TIP3   OH224541   5.084   1.036   1.230 -0.2648  0.3356 -0.0282
  969TIP3    H124542   5.135   0.955   1.235 -0.8515 -0.0987 -0.9110
  969TIP3    H224543   5.066   1.058   1.322 -1.6718 -1.5715  0.2339
  970TIP3   OH224544   1.408   5.094   1.145 -0.6546  0.2216 -0.0551
  970TIP3    H124545   1.457   5.083   1.064 -0.2652 -0.6598  0.2919
  970TIP3    H224546   1.457   5.160   1.195 -0.4010  0.1046 -0.1522
  971TIP3   OH224547   6.197   5.376   1.377  0.3154 -0.2556 -0.3244
  971TIP3    H124548   6.271   5.434   1.392 -0.1176  0.2546 -0.1672
  971TIP3    H224549   6.123   5.434   1.361 -0.0157 -0.7638 -0.6673
  972TIP3   OH224550   3.804   2.440   0.708 -0.3600  0.6807 -0.4488
  972TIP3    H124551   3.827   2.482   0.625  0.3636 -1.0518 -1.1665
  972TIP3    H224552   3.709   2.448   0.714 -0.6021 -0.4082 -2.1858
  973TIP3   OH224553   5.365   6.398   7.533 -0.0338  0.0528  0.2179
  973TIP3    H124554   5.429   6.366   7.470 -0.0251  0.6029 -0.0662
  973TIP3    H224555   5.320   6.470   7.486  0.3014  0.7884  1.0023
  974TIP3   OH224556   3.549   5.685   1.461 -0.6805 -0.1170 -0.2826
  974TIP3    H124557   3.556   5.777   1.435 -2.7425  0.2908  0.4351
  974TIP3    H224558   3.528   5.639   1.379 -0.5166  0.1694 -0.4881
  975TIP3   OH224559   5.636   6.801   0.835  0.0554  0.5570 -0.5496
  975TIP3    H124560   5.598   6.751   0.762 -0.4602  0.2322 -0.0675
  975TIP3    H224561   5.589   6.770   0.912  0.9336  0.5424 -0.0015
  976TIP3   OH224562   4.091   6.922   1.135 -0.0748  0.3800  0.0379
  976TIP3    H124563   4.016   6.972   1.166 -0.6971 -0.3740 -0.2161
  976TIP3    H224564   4.139   6.982   1.078  0.3485  1.3538  1.3488
  977TIP3   OH224565   1.355   1.815   1.169 -0.1717 -0.1784  0.3063
  977TIP3    H124566   1.402   1.830   1.087  0.2272  0.6706  0.6656
  977TIP3    H224567   1.359   1.900   1.214 -0.6089 -0.5579  1.0820
  978TIP3   OH224568   4.601   0.593   1.248 -0.7408  0.1571  0.0228
  978TIP3    H124569   4.681   0.611   1.197 -1.7726 -1.6410 -2.4453
  978TIP3    H224570   4.569   0.680   1.273 -0.0470  1.1599 -2.2781
  979TIP3   OH224571   5.280   5.224   6.582  0.7589 -0.3550  0.2545
  979TIP3    H124572   5.267   5.132   6.603  1.6629 -0.7848 -0.9325
  979TIP3    H224573   5.360   5.225   6.528  0.0833  0.9740 -0.7801
  980TIP3   OH224574   3.985   1.680   6.448  0.2446 -0.2149 -0.3775
  980TIP3    H124575   3.948   1.736   6.516 -1.5426 -2.1340  0.3776
  980TIP3    H224576   3.912   1.623   6.423  1.2222 -0.4238 -3.0117
  981TIP3   OH224577   5.687   2.624   1.401  0.0459  0.6786 -0.3452
  981TIP3    H124578   5.661   2.579   1.482  2.0654 -0.0489 -0.0427
  981TIP3    H224579   5.645   2.574   1.331 -1.0255  0.7989  0.1876
  982TIP3   OH224580   4.229   2.524   0.216  0.0871 -0.2852  0.5462
  982TIP3    H124581   4.175   2.445   0.212  0.5094 -0.5342 -0.3167
  982TIP3    H224582   4.314   2.494   0.249  0.5814 -0.3825 -0.7835
  983TIP3   OH224583   1.155   4.671   7.417  0.4665 -0.2812  0.1412
  983TIP3    H124584   1.246   4.685   7.442  0.1489 -0.2520  1.2965
  983TIP3    H224585   1.116   4.627   7.492 -0.5173 -0.1567 -0.2875
  984TIP3   OH224586   6.802   3.027   8.392 -0.1383 -0.0480 -0.1303
  984TIP3    H124587   6.751   2.998   8.316  0.0473 -1.2210  0.1602
  984TIP3    H224588   6.749   3.096   8.432 -0.4637  0.2434 -1.0456
  985TIP3   OH224589   4.544   0.304   6.388  0.1184  0.7526 -0.4212
  985TIP3    H124590   4.451   0.283   6.396  0.1133  0.5531 -1.0037
  985TIP3    H224591   4.570   0.270   6.303  1.0608 -0.4365  0.3068
  986TIP3   OH224592   5.985   5.810   1.237 -0.2807  0.2301  0.3160
  986TIP3    H124593   5.989   5.857   1.320 -2.7549 -0.7004  1.0676
  986TIP3    H224594   5.899   5.767   1.238  0.6220 -1.8450 -1.6420
  987TIP3   OH224595   2.416   4.910   7.293  0.7848  0.5391  0.3091
  987TIP3    H124596   2.507   4.910   7.323  1.1430 -2.1109 -0.5399
  987TIP3    H224597   2.368   4.865   7.362  0.3090  0.8689  0.1982
  988TIP3   OH224598   4.464   5.859   0.945  0.2831  0.0546  0.0095
  988TIP3    H124599   4.377   5.891   0.919  0.5956  0.5557 -0.4389
  988TIP3    H224600   4.473   5.776   0.899 -0.6211 -0.8094  1.3448
  989TIP3   OH224601   6.459   5.040   0.409 -0.1008 -0.1503  0.9707
  989TIP3    H124602   6.475   5.059   0.317  0.1853 -1.1421  0.8034
  989TIP3    H224603   6.514   4.963   0.428 -0.4046 -0.1573  1.8731
  990TIP3   OH224604   1.660   6.940   0.292  0.4917  0.5573  0.2528
  990TIP3    H124605   1.596   7.010   0.301 -0.0732  0.3976 -1.9345
  990TIP3    H224606   1.745   6.983   0.301  0.1265  1.2287  0.5503
  991TIP3   OH224607   6.109   4.456   7.425  0.0305 -0.2442  0.2290
  991TIP3    H124608   6.136   4.546   7.408 -1.8256  0.4209  0.5780
  991TIP3    H224609   6.135   4.407   7.347 -0.3270  0.9102 -0.6331
  992TIP3   OH224610   1.288   2.163   1.139  0.0809  0.3578  0.4721
  992TIP3    H124611   1.266   2.249   1.103  0.2571 -0.5444 -1.9209
  992TIP3    H224612   1.384   2.160   1.136  0.0593 -0.0756  0.1898
  993TIP3   OH224613   2.471   3.603   1.291 -0.2048 -0.3466  1.1749
  993TIP3    H124614   2.421   3.526   1.263  2.0558 -1.9079  1.0924
  993TIP3    H224615   2.456   3.668   1.222 -1.3712 -1.0788  0.7129
  994TIP3   OH224616   5.184   1.194   0.249  0.1507  0.0138  0.1471
  994TIP3    H124617   5.099   1.218   0.211  0.0591  1.3753  1.1275
  994TIP3    H224618   5.217   1.276   0.285  1.7552 -0.5681  0.0577
  995TIP3   OH224619   3.481   6.111   0.485  0.2670 -0.8164 -0.7886
  995TIP3    H124620   3.395   6.080   0.457 -0.7610  1.2809 -0.1307
  995TIP3    H224621   3.486   6.201   0.454  1.1947 -0.0976  1.2558
  996TIP3   OH224622   2.552   6.611   0.324 -0.5335  0.2832 -0.4835
  996TIP3    H124623   2.620   6.544   0.328 -1.2900 -0.5038 -0.5370
  996TIP3    H224624   2.511   6.599   0.239 -2.8242 -1.3793  0.7700
  997TIP3   OH224625   6.476   3.803   7.902 -0.2454  0.0955 -0.8970
  997TIP3    H124626   6.474   3.782   7.995 -1.9595 -2.5142 -1.4098
  997TIP3    H224627   6.569   3.809   7.881  0.2562 -1.3978  0.5921
  998TIP3   OH224628   0.906   3.611   7.685  0.0976 -0.5642  0.5740
  998TIP3    H124629   0.891   3.704   7.666  0.9273 -0.5428 -0.0397
  998TIP3    H224630   0.881   3.566   7.604  0.8358 -0.7584  0.4481
  999TIP3   OH224631   2.112   1.330   1.056  0.2267 -0.1781  0.4469
  999TIP3    H124632   2.195   1.297   1.092  0.1844  1.2027  1.9499
  999TIP3    H224633   2.048   1.309   1.124 -0.3067  0.3598  0.1129
 1000TIP3   OH224634   3.455   6.675   7.373  0.2695  0.6378 -0.1232
 1000TIP3    H124635   3.549   6.656   7.377 -0.1542 -1.5474  0.6164
 1000TIP3    H224636   3.434   6.672   7.279  1.0842  2.2272 -0.4028
 1001TIP3   OH224637   1.393   4.784   2.146  0.0433 -0.3543  0.2450
 1001TIP3    H124638   1.361   4.756   2.232 -0.3653 -2.6349 -0.5975
 1001TIP3    H224639   1.486   4.761   2.146  0.3439  0.7983  0.5047
 1002TIP3   OH224640   6.101   0.660   1.474 -0.4074  0.6016  0.1479
 1002TIP3    H124641   6.175   0.649   1.534 -0.1085  0.3469 -0.2580
 1002TIP3    H224642   6.032   0.605   1.510  0.1122 -0.3590 -0.2872
 1003TIP3   OH224643   0.194   5.486   1.390  0.0231 -0.5742 -0.3485
 1003TIP3    H124644   0.252   5.560   1.372 -0.9131  0.4568  0.6939
 1003TIP3    H224645   0.252   5.411   1.400  0.9026 -0.3431 -3.0083
 1004TIP3   OH224646   2.462   6.734   7.906 -0.1291 -0.2423 -0.0046
 1004TIP3    H124647   2.551   6.755   7.878  0.7044 -2.6081  0.5757
 1004TIP3    H224648   2.463   6.639   7.918 -2.6218 -0.2817  0.4853
 1005TIP3   OH224649   6.079   0.050   7.661 -0.3881 -0.4647 -0.0589
 1005TIP3    H124650   6.086  -0.045   7.675 -1.5000 -0.6588 -0.6921
 1005TIP3    H224651   6.163   0.074   7.623 -1.0265 -1.7340 -2.5315
 1006TIP3   OH224652   1.988   3.517   7.031  0.8342  1.2655 -0.1407
 1006TIP3    H124653   1.903   3.477   7.050  0.3308  0.9591 -2.6525
 1006TIP3    H224654   2.000   3.582   7.100 -0.1175 -0.5653  1.8519
 1007TIP3   OH224655   1.452   3.643   1.760  0.1385 -0.0309  0.1030
 1007TIP3    H124656   1.548   3.637   1.754  0.8562  1.1923  5.1417
 1007TIP3    H224657   1.428   3.711   1.698  2.1821 -1.4968 -2.5187
 1008TIP3   OH224658   0.278   2.947   7.118  0.0213 -0.3370  0.3081
 1008TIP3    H124659   0.239   3.007   7.183 -3.1422 -2.6080  0.7023
 1008TIP3    H224660   0.373   2.957   7.132 -0.3373  3.3665  1.3610
 1009TIP3   OH224661   6.237   6.091   6.118 -0.5022 -0.4742 -0.3168
 1009TIP3    H124662   6.182   6.098   6.040 -2.3693  0.1254  0.9769
 1009TIP3    H224663   6.203   6.013   6.164 -1.7502  1.0610  1.5156
 1010TIP3   OH224664   5.058   5.334   7.452  0.0836 -0.0073 -0.1318
 1010TIP3    H124665   5.130   5.381   7.494 -0.0068 -0.2807  0.3409
 1010TIP3    H224666   4.987   5.337   7.516  0.3305 -1.4588  0.2414
 1011TIP3   OH224667   0.858   2.709   0.825  0.0305 -0.4973  0.5543
 1011TIP3    H124668   0.902   2.794   0.821 -0.4817 -0.2674 -0.5334
 1011TIP3    H224669   0.929   2.645   0.810  0.5140 -0.3209  1.9266
 1012TIP3   OH224670   3.956   6.836   1.389 -0.1025 -0.0406  0.2044
 1012TIP3    H124671   3.995   6.893   1.456  0.0171  1.0270 -0.7376
 1012TIP3    H224672   4.009   6.852   1.311 -0.8618 -0.4985 -0.4121
 1013TIP3   OH224673   0.600   5.900   1.754  0.1410  0.1717  0.1004
 1013TIP3    H124674   0.643   5.819   1.780  0.2299 -0.1081 -0.8834
 1013TIP3    H224675   0.564   5.935   1.835 -1.8004 -1.9685  0.2767
 1014TIP3   OH224676   3.996   2.528   6.752 -0.0557  0.3295 -0.6145
 1014TIP3    H124677   4.087   2.505   6.730 -0.2668 -0.1819 -0.9698
 1014TIP3    H224678   3.995   2.624   6.750 -0.0962  0.3482 -3.0666
 1015TIP3   OH224679   6.710   3.279   8.047  0.5728  0.1071 -0.4753
 1015TIP3    H124680   6.649   3.264   8.119  0.6589  0.1446 -0.3945
 1015TIP3    H224681   6.731   3.192   8.014 -0.5197  0.1495 -1.3393
 1016TIP3   OH224682   4.941   5.504   1.621  0.4291 -0.0601  0.1282
 1016TIP3    H124683   4.987   5.433   1.666 -0.6558 -0.8268  0.0449
 1016TIP3    H224684   4.893   5.462   1.551 -1.4838  0.5222  1.0313
 1017TIP3   OH224685   1.960   6.301   7.385 -0.4824  0.4004 -0.3402
 1017TIP3    H124686   1.990   6.284   7.296  0.0160  2.2862 -0.5731
 1017TIP3    H224687   2.014   6.374   7.415 -0.0125 -0.7837  1.8635
 1018TIP3   OH224688   5.944   2.096   1.661 -0.5990 -0.2801  1.0760
 1018TIP3    H124689   5.851   2.116   1.674 -0.0087  1.6326  2.8091
 1018TIP3    H224690   5.977   2.074   1.748  1.0314  1.2873  0.9023
 1019TIP3   OH224691   1.481   4.294   8.094  0.2392 -0.2856  0.1770
 1019TIP3    H124692   1.566   4.304   8.051  0.9061 -1.4568  1.1945
 1019TIP3    H224693   1.498   4.308   8.187 -0.5460 -1.2195  0.4834
 1020TIP3   OH224694   3.984   0.561   5.965 -0.2191  0.2553  0.3537
 1020TIP3    H124695   3.921   0.504   6.009  0.3228 -0.0559  0.7277
 1020TIP3    H224696   3.954   0.650   5.984 -0.9341  0.1054 -0.0385
 1021TIP3   OH224697   4.369   2.783   6.762 -0.1558  0.0130 -0.5938
 1021TIP3    H124698   4.407   2.870   6.748  0.0113 -0.1481 -1.1815
 1021TIP3    H224699   4.400   2.731   6.687 -0.1134 -0.5982 -0.1604
 1022TIP3   OH224700   3.289   4.746   7.874 -0.2327  0.2176 -0.2616
 1022TIP3    H124701   3.345   4.822   7.888 -1.4575  1.4490 -1.6980
 1022TIP3    H224702   3.271   4.712   7.962  1.6230  0.5774  0.3079
 1023TIP3   OH224703   2.176   2.546   7.701 -0.5448  0.3302 -0.1572
 1023TIP3    H124704   2.120   2.562   7.777  1.4644  2.2015  1.0482
 1023TIP3    H224705   2.130   2.589   7.629 -1.5041  0.2679  0.3896
 1024TIP3   OH224706   3.967   0.953   1.909  0.3606 -0.3741  0.7347
 1024TIP3    H124707   3.986   0.982   1.998 -1.4781 -1.3495  1.4925
 1024TIP3    H224708   4.033   0.885   1.892  1.6343  0.8184  0.7628
 1025TIP3   OH224709   0.294   2.385   1.499 -0.9051  0.0943 -0.0882
 1025TIP3    H124710   0.266   2.446   1.568 -0.6770 -1.2491  1.2400
 1025TIP3    H224711   0.289   2.299   1.540 -2.8636 -1.0073 -2.4213
 1026TIP3   OH224712   6.016   3.262   2.146  0.4737 -0.1735 -0.0943
 1026TIP3    H124713   5.926   3.251   2.113  0.0976  0.0260  0.8406
 1026TIP3    H224714   6.065   3.192   2.103  0.0659  0.2306 -1.2764
 1027TIP3   OH224715   1.738   0.946   1.757  0.6626 -0.4142 -0.0993
 1027TIP3    H124716   1.749   1.022   1.813 -0.2062 -0.3975  0.0656
 1027TIP3    H224717   1.668   0.971   1.696 -1.1394 -1.7780  1.2738
 1028TIP3   OH224718   4.016   0.061   7.629 -0.6556 -0.0181  0.2897
 1028TIP3    H124719   4.036  -0.027   7.661 -1.9852 -0.2319  0.5812
 1028TIP3    H224720   3.973   0.048   7.545  0.1065  0.4115 -0.1759
 1029TIP3   OH224721   0.403   2.948   6.476  0.0301 -0.0040 -0.1751
 1029TIP3    H124722   0.467   2.939   6.405 -0.2525  0.4156 -0.4891
 1029TIP3    H224723   0.364   2.862   6.484  1.1859 -0.4856  0.5551
 1030TIP3   OH224724   5.991   3.068   6.708 -0.2770 -0.6857 -0.3713
 1030TIP3    H124725   6.076   3.096   6.674 -1.3895  1.6133 -1.5182
 1030TIP3    H224726   5.953   3.015   6.638 -0.3568 -0.4797 -0.4877
 1031TIP3   OH224727   4.348   0.281   7.224  0.1952  0.6558  0.6825
 1031TIP3    H124728   4.297   0.204   7.252 -0.6614  0.3430 -1.5447
 1031TIP3    H224729   4.335   0.345   7.294 -0.6530 -0.5428  1.6681
 1032TIP3   OH224730   1.161   0.419   8.388  0.3088  0.1208 -0.0626
 1032TIP3    H124731   1.148   0.325   8.398 -0.8093  0.3952  1.3710
 1032TIP3    H224732   1.104   0.458   8.453 -2.4112  1.9636 -3.2311
 1033TIP3   OH224733   0.815   3.339   8.507 -0.4045 -0.3959  0.1653
 1033TIP3    H124734   0.865   3.321   8.587  0.2690 -2.2273 -0.6115
 1033TIP3    H224735   0.727   3.361   8.538  0.2626  0.5702  1.4626
 1034TIP3   OH224736   5.815   2.374   0.644 -0.4793  0.2325  0.3880
 1034TIP3    H124737   5.855   2.446   0.596  0.2334 -0.0098  0.6135
 1034TIP3    H224738   5.843   2.295   0.598  0.4109 -0.0221  1.3184
 1035TIP3   OH224739   2.644   2.605   2.004 -0.0390  0.2548 -0.2254
 1035TIP3    H124740   2.675   2.681   2.054  0.0316  1.2934 -1.8040
 1035TIP3    H224741   2.722   2.572   1.959 -0.3510  0.1320 -0.6845
 1036TIP3   OH224742   6.305   2.996   6.380  0.3161 -0.9265  0.1055
 1036TIP3    H124743   6.266   2.908   6.386  0.3863 -0.9000  1.4421
 1036TIP3    H224744   6.304   3.017   6.287 -1.7798 -1.4103 -0.0310
 1037TIP3   OH224745   5.788   3.546   0.239  0.1472 -0.3081  0.3277
 1037TIP3    H124746   5.726   3.543   0.312 -0.3269  1.3023  0.0396
 1037TIP3    H224747   5.735   3.527   0.161  0.6073 -1.7885  0.3422
 1038TIP3   OH224748   2.979   1.327   6.467 -0.3082  0.1423 -0.4641
 1038TIP3    H124749   2.936   1.279   6.395 -2.6819 -2.4383  2.3870
 1038TIP3    H224750   2.911   1.387   6.499  0.2283  0.2341  0.5102
 1039TIP3   OH224751   4.401   3.940   1.059  0.6021  0.1197 -0.1436
 1039TIP3    H124752   4.320   3.968   1.101 -0.5857 -0.4987 -1.9179
 1039TIP3    H224753   4.436   3.872   1.117  0.1538  0.7651  0.9108
 1040TIP3   OH224754   3.544   4.995   8.432 -0.2798 -0.0675 -0.7364
 1040TIP3    H124755   3.638   4.977   8.437 -0.3232  0.0239  1.8657
 1040TIP3    H224756   3.538   5.090   8.421 -0.0440  0.0713  0.2550
 1041TIP3   OH224757   3.498   3.827   6.946 -0.1690 -0.2705 -0.1124
 1041TIP3    H124758   3.512   3.893   7.015 -0.8162 -1.7752  1.5496
 1041TIP3    H224759   3.584   3.817   6.905 -0.3737  2.6863 -1.5147
 1042TIP3   OH224760   4.687   5.411   0.850  0.6802  0.6999 -0.0496
 1042TIP3    H124761   4.594   5.403   0.827  0.9091  0.2801 -0.8452
 1042TIP3    H224762   4.698   5.354   0.926  0.0861  1.4883  0.6477
 1043TIP3   OH224763   4.831   2.424   1.605 -0.2603 -0.1955 -0.4956
 1043TIP3    H124764   4.819   2.462   1.518 -0.6322  0.7786 -0.0340
 1043TIP3    H224765   4.762   2.464   1.658  0.5478 -0.0358  0.4762
 1044TIP3   OH224766   2.752   0.114   6.856  0.1115  0.0701 -0.0276
 1044TIP3    H124767   2.697   0.042   6.887 -0.7809  0.1117 -1.4243
 1044TIP3    H224768   2.811   0.072   6.793 -0.0349  0.4619 -0.4274
 1045TIP3   OH224769   0.814   4.884   0.818 -0.8083  0.3821 -0.0852
 1045TIP3    H124770   0.906   4.859   0.811 -0.8292  0.8065 -3.3589
 1045TIP3    H224771   0.767   4.813   0.775 -1.7577  1.3970 -0.7665
 1046TIP3   OH224772   5.798   2.611   0.166 -0.1889 -0.1006 -0.3957
 1046TIP3    H124773   5.889   2.622   0.192 -0.1612  2.4087 -1.3063
 1046TIP3    H224774   5.747   2.628   0.245  0.0964  0.1534 -0.2682
 1047TIP3   OH224775   6.447   4.331   6.383  0.5184 -0.0670  0.6107
 1047TIP3    H124776   6.433   4.376   6.467 -0.2997 -2.1608  1.6896
 1047TIP3    H224777   6.393   4.379   6.321 -0.3508  0.4368  1.7104
 1048TIP3   OH224778   0.672   0.842   7.339 -0.2802 -0.1136 -0.1973
 1048TIP3    H124779   0.711   0.755   7.334 -0.7919 -0.3706  0.2333
 1048TIP3    H224780   0.626   0.852   7.256  0.6374  0.1696 -0.6872
 1049TIP3   OH224781   4.272   5.913   8.564  0.3685 -0.3785  0.4014
 1049TIP3    H124782   4.221   5.892   8.486 -1.3446  3.1700  0.3433
 1049TIP3    H224783   4.322   5.991   8.539  1.1374 -0.1995  2.3377
 1050TIP3   OH224784   4.668   5.403   0.232 -0.6844  0.2787  0.1478
 1050TIP3    H124785   4.713   5.438   0.155  0.1278 -0.5678  0.2133
 1050TIP3    H224786   4.736   5.355   0.280 -0.8262  1.9349  2.1545
 1051TIP3   OH224787   5.820   4.501   0.626 -0.0006 -0.1469  0.0073
 1051TIP3    H124788   5.846   4.472   0.538 -0.3952  1.3183 -0.6209
 1051TIP3    H224789   5.903   4.511   0.673  0.1996 -1.1982 -0.0906
 1052TIP3   OH224790   5.598   2.426   1.221 -0.0115 -0.1019 -0.0849
 1052TIP3    H124791   5.622   2.344   1.265  0.5197  0.0794 -0.0346
 1052TIP3    H224792   5.541   2.398   1.149  0.4475 -0.5515 -0.2802
 1053TIP3   OH224793   1.934   1.632   8.521  0.5902 -0.1911 -0.2743
 1053TIP3    H124794   1.856   1.595   8.480  0.7435  0.7067 -1.3974
 1053TIP3    H224795   2.007   1.587   8.479  0.7160 -1.5459  1.2705
 1054TIP3   OH224796   5.042   0.975   6.772  0.1157  0.1665  0.4812
 1054TIP3    H124797   5.043   0.993   6.678  1.8775 -2.8805 -0.2252
 1054TIP3    H224798   4.949   0.978   6.796 -0.2452  2.8740 -0.8434
 1055TIP3   OH224799   4.688   2.216   6.348 -0.3501 -0.4968 -0.3766
 1055TIP3    H124800   4.641   2.285   6.395  0.6321  0.0939 -0.2265
 1055TIP3    H224801   4.621   2.171   6.297 -0.9915  0.6189 -0.5319
 1056TIP3   OH224802   0.487   0.038   8.393  0.0662  0.3406 -0.2624
 1056TIP3    H124803   0.489   0.133   8.403 -1.1166  0.4094 -0.5941
 1056TIP3    H224804   0.396   0.014   8.406  0.1285 -0.6091 -1.4307
 1057TIP3   OH224805   6.747   4.086   8.091 -0.0972 -0.4255  0.3767
 1057TIP3    H124806   6.721   4.040   8.171 -1.7715  0.6168  0.4869
 1057TIP3    H224807   6.827   4.041   8.062 -0.4387 -1.9564  1.6559
 1058TIP3   OH224808   4.857   2.956   0.591 -0.1030 -0.2073  0.5200
 1058TIP3    H124809   4.917   3.031   0.597 -0.0249 -0.3555  2.0777
 1058TIP3    H224810   4.773   2.995   0.567  0.3147  0.1505 -0.4411
 1059TIP3   OH224811   3.514   5.482   6.284  0.2785 -0.3556  0.0466
 1059TIP3    H124812   3.498   5.414   6.350  1.3390 -1.2524 -0.5821
 1059TIP3    H224813   3.538   5.433   6.205  0.7235  0.7511 -0.5269
 1060TIP3   OH224814   1.558   0.864   1.007 -0.1386 -0.1537 -0.3416
 1060TIP3    H124815   1.589   0.909   1.085  0.6215 -1.3328  0.0546
 1060TIP3    H224816   1.600   0.911   0.934  0.9132 -0.4312  0.0786
 1061TIP3   OH224817   3.065   0.660   6.577 -0.3979  0.0433  0.2016
 1061TIP3    H124818   3.123   0.734   6.564 -0.9041  0.4115 -0.0180
 1061TIP3    H224819   3.112   0.601   6.635  0.3631  0.1393 -0.3088
 1062TIP3   OH224820   1.964   4.220   1.478 -0.3553 -0.0218 -0.3933
 1062TIP3    H124821   1.899   4.159   1.443 -0.3608 -0.1468 -0.1692
 1062TIP3    H224822   2.024   4.164   1.528 -0.6055  0.2086  0.1757
 1063TIP3   OH224823   6.644   1.665   6.790 -0.2432  0.1165  0.8743
 1063TIP3    H124824   6.589   1.727   6.838  0.7111  1.1654  0.6495
 1063TIP3    H224825   6.583   1.616   6.736 -0.9278  1.6066  0.2534
 1064TIP3   OH224826   3.842   4.296   0.631  0.3647 -0.1887 -0.1485
 1064TIP3    H124827   3.759   4.310   0.585 -0.1748 -2.8234 -0.1353
 1064TIP3    H224828   3.851   4.373   0.687 -2.5477 -0.2023  0.5340
 1065TIP3   OH224829   1.333   0.028   2.505  0.0294  0.3139 -0.4125
 1065TIP3    H124830   1.423   0.056   2.524  0.2977 -1.4669  1.4196
 1065TIP3    H224831   1.328   0.023   2.410  1.4630  1.6548 -0.5860
 1066TIP3   OH224832   0.679   4.018   6.110 -0.3317  0.5324  0.8704
 1066TIP3    H124833   0.621   4.021   6.035  3.2832  1.2551 -2.2083
 1066TIP3    H224834   0.671   3.929   6.144 -1.4906 -0.0833 -0.9142
 1067TIP3   OH224835   6.660   6.194   1.845  0.3985 -0.5783  0.4386
 1067TIP3    H124836   6.696   6.234   1.924  1.7609 -1.0348  0.0892
 1067TIP3    H224837   6.587   6.141   1.876  0.8821 -0.7114  1.4023
 1068TIP3   OH224838   5.822   0.121   6.866 -0.0648  0.7149 -0.3363
 1068TIP3    H124839   5.741   0.163   6.837 -1.1452 -0.9802  0.0757
 1068TIP3    H224840   5.862   0.087   6.785 -0.7265 -0.0401 -0.3561
 1069TIP3   OH224841   6.785   6.920   6.538  0.3828  0.2202 -0.1319
 1069TIP3    H124842   6.796   6.836   6.492 -1.3549 -0.4459  0.5469
 1069TIP3    H224843   6.868   6.965   6.527  1.2994 -1.5199 -0.6907
 1070TIP3   OH224844   0.317   4.203   0.135  0.2760 -0.4391  0.0406
 1070TIP3    H124845   0.278   4.269   0.078  1.1842  1.3004  1.3288
 1070TIP3    H224846   0.407   4.235   0.149 -0.4191  0.3457  3.9372
 1071TIP3   OH224847   4.007   3.483   0.866  0.0630 -0.4545  0.5966
 1071TIP3    H124848   4.072   3.493   0.936  0.6389  0.2417 -0.0165
 1071TIP3    H224849   4.016   3.393   0.837  1.3874 -0.1313 -0.0686
 1072TIP3   OH224850   1.987   0.879   7.948 -0.2753 -0.5254  0.0521
 1072TIP3    H124851   1.893   0.892   7.965 -0.7383 -0.8598 -2.0574
 1072TIP3    H224852   2.006   0.793   7.984 -0.8633 -0.6111  0.1667
 1073TIP3   OH224853   0.931   6.267   8.174  0.2045  0.1278  0.1650
 1073TIP3    H124854   0.932   6.179   8.210  0.4710  0.1930  0.3219
 1073TIP3    H224855   0.900   6.257   8.084  1.1015 -0.2332 -0.1092
 1074TIP3   OH224856   5.744   0.990   8.422  0.3282 -0.0562 -0.0396
 1074TIP3    H124857   5.822   0.992   8.478  0.9011 -1.9234 -0.6642
 1074TIP3    H224858   5.676   0.952   8.477  0.6905 -1.1927 -0.3461
 1075TIP3   OH224859   2.065   0.427   8.202  0.2090 -0.0192  0.0320
 1075TIP3    H124860   2.088   0.342   8.165 -0.4179 -0.2090  0.0655
 1075TIP3    H224861   2.098   0.424   8.292  2.8160  0.8955 -0.8010
 1076TIP3   OH224862   0.904   0.571   1.052  0.3013  0.1404  0.7794
 1076TIP3    H124863   0.933   0.644   0.996  2.6849 -0.5715  0.9940
 1076TIP3    H224864   0.911   0.605   1.141  1.9171 -0.4952  0.9061
 1077TIP3   OH224865   1.724   4.791   1.555 -0.4961  0.5698 -0.2153
 1077TIP3    H124866   1.812   4.808   1.588 -0.8726  1.1735  0.5038
 1077TIP3    H224867   1.670   4.780   1.634 -0.8181 -1.2078 -0.6301
 1078TIP3   OH224868   4.830   2.448   0.590  0.1437 -0.1738 -0.3948
 1078TIP3    H124869   4.835   2.529   0.540  0.7123  0.1638  0.1871
 1078TIP3    H224870   4.917   2.439   0.630 -0.0626 -0.8197 -0.0736
 1079TIP3   OH224871   2.954   0.253   2.285  0.0087 -0.8708 -0.0990
 1079TIP3    H124872   2.962   0.308   2.363 -1.1905 -1.2829  0.3497
 1079TIP3    H224873   3.016   0.289   2.223  0.2988  0.0702  0.7116
 1080TIP3   OH224874   4.279   2.249   8.058 -0.3009  0.6470 -0.1351
 1080TIP3    H124875   4.195   2.202   8.062  0.4830 -0.8802 -0.6528
 1080TIP3    H224876   4.299   2.269   8.149 -0.1246 -1.1002  0.2499
 1081TIP3   OH224877   1.925   2.063   1.559  0.7653  0.1331  0.6738
 1081TIP3    H124878   1.880   1.980   1.539  0.8429  0.0163  0.9793
 1081TIP3    H224879   1.858   2.130   1.547  0.7480  0.0441  0.2540
 1082TIP3   OH224880   1.749   2.042   2.750  0.0392  0.5361  0.4747
 1082TIP3    H124881   1.698   2.067   2.827 -1.8373 -0.0642 -0.4868
 1082TIP3    H224882   1.697   2.074   2.676  0.6256 -0.8459 -0.5882
 1083TIP3   OH224883   2.032   6.644   2.231 -1.0849 -0.2998 -0.4300
 1083TIP3    H124884   1.978   6.664   2.307  0.8239 -1.9279  1.4920
 1083TIP3    H224885   2.089   6.573   2.260  2.3627  1.5089 -2.1402
 1084TIP3   OH224886   3.610   0.998   0.863 -0.4396 -0.3965  0.2043
 1084TIP3    H124887   3.658   1.071   0.824  0.8164 -0.4224  1.5715
 1084TIP3    H224888   3.569   0.954   0.789 -1.1375  1.6013 -0.6663
 1085TIP3   OH224889   1.331   5.972   8.559 -0.0001  0.5563 -0.1782
 1085TIP3    H124890   1.258   6.032   8.543  1.8070  2.4373 -1.8506
 1085TIP3    H224891   1.386   6.018   8.623  0.6437 -0.0066 -0.3204
 1086TIP3   OH224892   0.670   6.384   1.532  0.7123 -0.4049  0.6692
 1086TIP3    H124893   0.671   6.336   1.450 -1.4632 -3.5956  2.2764
 1086TIP3    H224894   0.611   6.458   1.516 -0.9506 -1.8750 -0.2587
 1087TIP3   OH224895   6.555   1.052   8.102  0.4500  0.3318 -0.2803
 1087TIP3    H124896   6.497   1.012   8.167  0.2441  2.3593  0.8625
 1087TIP3    H224897   6.641   1.014   8.120 -0.0445 -0.9487 -0.4625
 1088TIP3   OH224898   5.377   1.418   6.421  0.6244  0.2503 -0.0320
 1088TIP3    H124899   5.428   1.492   6.390 -1.4733  0.5414 -3.2061
 1088TIP3    H224900   5.294   1.456   6.451  0.7872 -0.5617  1.6193
 1089TIP3   OH224901   0.480   4.139   7.508 -0.4302 -0.9232  0.0526
 1089TIP3    H124902   0.454   4.193   7.433 -0.9580 -2.2309 -0.7369
 1089TIP3    H224903   0.462   4.195   7.585 -1.9881 -0.3644 -0.6734
 1090TIP3   OH224904   2.080   5.983   7.387  0.0779 -0.7141 -0.6108
 1090TIP3    H124905   2.083   5.890   7.361 -1.4054 -1.8417  2.6863
 1090TIP3    H224906   1.989   6.009   7.371 -0.1946 -0.6834  0.8204
 1091TIP3   OH224907   4.830   6.891   0.430 -0.4385  0.4292  0.0443
 1091TIP3    H124908   4.818   6.963   0.368  0.9227  1.8710  1.3555
 1091TIP3    H224909   4.924   6.876   0.432 -0.7487 -1.9845 -0.7796
 1092TIP3   OH224910   4.573   3.646   0.786  0.6814 -0.2805 -0.2436
 1092TIP3    H124911   4.655   3.619   0.828  1.7695  0.2344 -1.9780
 1092TIP3    H224912   4.569   3.740   0.799 -0.3233 -0.4621  0.9579
 1093TIP3   OH224913   0.667   3.972   0.626 -0.6323  0.7551 -0.1364
 1093TIP3    H124914   0.680   4.062   0.596  1.6683  0.7763  0.7529
 1093TIP3    H224915   0.728   3.961   0.699 -0.7615 -1.5608 -0.2888
 1094TIP3   OH224916   2.286   1.035   1.956  0.0480 -0.0967  0.5806
 1094TIP3    H124917   2.315   1.095   1.887  2.8236 -0.6149  1.1564
 1094TIP3    H224918   2.203   1.071   1.986  0.2739  1.8932 -0.9481
 1095TIP3   OH224919   2.085   0.446   6.167  0.0535 -0.1940  0.8095
 1095TIP3    H124920   2.162   0.391   6.178  1.1027  1.4061  1.9600
 1095TIP3    H224921   2.117   0.522   6.118 -1.4704 -0.7576 -1.1914
 1096TIP3   OH224922   3.253   6.796   7.473  0.3377 -0.5328 -0.5835
 1096TIP3    H124923   3.284   6.881   7.442  0.5954 -0.4080  0.0076
 1096TIP3    H224924   3.317   6.733   7.439 -0.6578 -0.6931 -2.3116
 1097TIP3   OH224925   5.806   6.940   7.114  0.1726  0.5848 -0.0620
 1097TIP3    H124926   5.712   6.951   7.126 -0.0731 -0.6720 -0.7354
 1097TIP3    H224927   5.826   6.990   7.035 -0.4897 -1.4845 -1.6295
 1098TIP3   OH224928   4.855   0.321   0.689  1.0933 -0.2820  0.1931
 1098TIP3    H124929   4.921   0.390   0.682  1.5955 -0.8131 -0.4911
 1098TIP3    H224930   4.842   0.309   0.783 -0.1316  1.7835  0.3338
 1099TIP3   OH224931   6.715   1.882   6.423 -0.0290  0.1330 -0.1555
 1099TIP3    H124932   6.754   1.966   6.449  0.9953  0.5228 -2.5660
 1099TIP3    H224933   6.695   1.894   6.330  1.9910 -2.8823 -1.1284
 1100TIP3   OH224934   0.317   1.328   8.436  0.1555  0.1089  0.2816
 1100TIP3    H124935   0.384   1.286   8.491  1.6884  1.0103 -0.8274
 1100TIP3    H224936   0.343   1.307   8.346 -1.1437  0.3860 -0.1807
 1101TIP3   OH224937   4.504   6.185   1.624  0.6972  0.0203 -0.4126
 1101TIP3    H124938   4.451   6.224   1.694  0.2537 -2.1597  0.5559
 1101TIP3    H224939   4.594   6.207   1.647  0.6342 -1.4719  1.4429
 1102TIP3   OH224940   2.297   6.669   8.245  0.0286  0.1693  0.2995
 1102TIP3    H124941   2.213   6.634   8.217  0.3389 -1.7283  1.5838
 1102TIP3    H224942   2.359   6.598   8.231  0.7274  0.1878  2.7874
 1103TIP3   OH224943   6.004   6.941   1.658  0.1875  0.8751 -0.1818
 1103TIP3    H124944   6.078   6.881   1.667 -1.9240 -1.8484  0.4403
 1103TIP3    H224945   6.025   7.014   1.716  1.1497 -1.2102  2.2871
 1104TIP3   OH224946   4.253   5.881   0.628 -0.3023 -0.8395 -0.1576
 1104TIP3    H124947   4.169   5.899   0.587 -0.9898  1.2728  1.9296
 1104TIP3    H224948   4.317   5.928   0.574 -0.9996  0.7354  0.3229
 1105TIP3   OH224949   1.345   6.227   8.300  0.1706  0.0957 -0.3412
 1105TIP3    H124950   1.365   6.139   8.267 -0.6836 -0.1002 -0.3644
 1105TIP3    H224951   1.410   6.243   8.368  0.1320 -0.6958 -0.1088
 1106TIP3   OH224952   3.645   0.514   0.478 -0.1007  0.2905  0.0241
 1106TIP3    H124953   3.598   0.555   0.405 -3.0643  0.8060  2.0300
 1106TIP3    H224954   3.628   0.571   0.552 -0.3137 -2.0642  1.8956
 1107TIP3   OH224955   1.498   4.377   0.547  0.4616  0.1358 -0.1769
 1107TIP3    H124956   1.513   4.461   0.590  1.1428  0.3677 -0.8438
 1107TIP3    H224957   1.559   4.376   0.473 -0.3071 -0.4723 -0.8301
 1108TIP3   OH224958   5.021   2.793   7.173  0.4425 -0.1996 -0.4946
 1108TIP3    H124959   4.986   2.737   7.242  1.2641 -0.4315 -0.2497
 1108TIP3    H224960   4.944   2.828   7.128 -0.0856 -0.7588 -0.0334
 1109TIP3   OH224961   1.178   4.577   0.249  0.3460 -0.1990 -0.1498
 1109TIP3    H124962   1.163   4.502   0.307  1.2353  1.2645  2.1604
 1109TIP3    H224963   1.271   4.571   0.227 -0.3005 -1.6027 -2.8560
 1110TIP3   OH224964   6.876   4.170   6.687  0.1845 -0.2691  0.7995
 1110TIP3    H124965   6.939   4.107   6.651  0.8482  1.1536 -0.7009
 1110TIP3    H224966   6.876   4.241   6.623 -0.4812  1.2844  2.4595
 1111TIP3   OH224967   5.400   2.174   8.427  0.4979  0.1965  0.1828
 1111TIP3    H124968   5.438   2.224   8.498  0.8695 -1.4408  1.1730
 1111TIP3    H224969   5.358   2.099   8.469 -1.5151  0.5083 -1.0964
 1112TIP3   OH224970   0.985   6.239   0.158  0.0110 -0.8145  0.0852
 1112TIP3    H124971   0.985   6.153   0.201 -1.3981 -1.3271 -0.8787
 1112TIP3    H224972   1.010   6.220   0.067 -1.4022 -0.3754 -0.4130
 1113TIP3   OH224973   5.688   6.545   5.929  0.2113  0.1660 -0.1221
 1113TIP3    H124974   5.620   6.576   5.988  0.5402 -1.0327  0.9322
 1113TIP3    H224975   5.745   6.621   5.915  1.0388  0.1061  2.4265
 1114TIP3   OH224976   4.480   2.707   0.872 -0.4137 -0.7050 -0.1059
 1114TIP3    H124977   4.457   2.800   0.880 -1.3923 -1.0434  1.4621
 1114TIP3    H224978   4.522   2.700   0.787 -1.1132  1.0200 -0.6347
 1115TIP3   OH224979   2.571   0.885   7.877  0.4709 -0.2109  0.4262
 1115TIP3    H124980   2.653   0.869   7.924  0.9995  1.5138  0.1889
 1115TIP3    H224981   2.595   0.947   7.808 -0.9323 -0.1079 -0.0036
 1116TIP3   OH224982   2.214   1.268   0.368  0.0058 -0.0572  0.1510
 1116TIP3    H124983   2.200   1.354   0.409 -0.7921  0.1050 -0.4508
 1116TIP3    H224984   2.274   1.285   0.296  0.5612 -0.1656  0.5776
 1117TIP3   OH224985   3.067   3.670   1.606 -0.6638  0.2329 -0.0237
 1117TIP3    H124986   3.143   3.636   1.654 -1.2424  1.3470  1.7698
 1117TIP3    H224987   3.073   3.629   1.520  0.8748 -1.2219  0.7247
 1118TIP3   OH224988   4.932   3.772   1.292 -0.3453  0.0646 -0.3604
 1118TIP3    H124989   4.992   3.715   1.340 -2.1772 -1.8856 -0.2612
 1118TIP3    H224990   4.980   3.795   1.212  1.0167 -0.3221  0.3139
 1119TIP3   OH224991   5.892   6.496   0.341 -0.2979  0.1118 -0.4792
 1119TIP3    H124992   5.867   6.453   0.423  0.0250 -1.4992 -1.1896
 1119TIP3    H224993   5.987   6.502   0.345 -0.0304 -2.1292 -1.6829
 1120TIP3   OH224994   1.433   1.471   8.316 -0.1694  0.2511  0.7457
 1120TIP3    H124995   1.452   1.435   8.402 -1.2367 -1.3381  0.3607
 1120TIP3    H224996   1.365   1.414   8.281  1.0484  0.1424 -1.6337
 1121TIP3   OH224997   6.917   0.024   7.058 -0.1504 -0.2292  0.0281
 1121TIP3    H124998   6.954  -0.036   6.994 -0.1919  1.2551 -1.4576
 1121TIP3    H224999   6.975   0.017   7.134  2.2753  0.7460 -1.5904
 1122TIP3   OH225000   4.083   5.459   0.872  0.4230 -0.6456 -0.3315
 1122TIP3    H125001   4.033   5.418   0.942  0.0484 -0.7655 -0.6643
 1122TIP3    H225002   4.129   5.532   0.914 -2.7728  1.7516 -0.6009
 1123TIP3   OH225003   4.722   4.352   8.535  0.0644 -0.3356 -0.0013
 1123TIP3    H125004   4.691   4.427   8.484  0.6534 -1.1040 -1.5710
 1123TIP3    H225005   4.650   4.331   8.594 -1.4438 -0.5188 -1.7934
 1124TIP3   OH225006   6.149   6.459   1.702  0.4146  0.8113 -0.0238
 1124TIP3    H125007   6.226   6.412   1.670 -0.7887 -1.2150 -0.1067
 1124TIP3    H225008   6.098   6.478   1.624  0.9911  2.5754 -0.0209
 1125TIP3   OH225009   0.348   5.709   1.447 -0.5638  0.0095  0.0637
 1125TIP3    H125010   0.381   5.679   1.532  0.9793 -2.3714 -1.2478
 1125TIP3    H225011   0.401   5.786   1.428 -0.2976  0.0436  0.8698
 1126TIP3   OH225012   2.785   0.759   6.289  0.7182  0.0087 -0.0069
 1126TIP3    H125013   2.872   0.795   6.277  0.5598  0.1241 -0.9073
 1126TIP3    H225014   2.731   0.805   6.224  0.1278 -0.5268  0.0961
 1127TIP3   OH225015   4.600   2.367   1.177  0.4490  0.1206 -0.0854
 1127TIP3    H125016   4.590   2.449   1.128  0.9905  0.2360 -0.0085
 1127TIP3    H225017   4.597   2.298   1.111 -0.9277  0.1318 -0.0624
 1128TIP3   OH225018   0.502   4.942   1.785  0.5948 -0.3866 -0.0484
 1128TIP3    H125019   0.524   5.006   1.718 -0.2057 -0.4303 -0.3657
 1128TIP3    H225020   0.414   4.912   1.762 -0.5189  0.9828  2.0704
 1129TIP3   OH225021   5.325   4.610   0.466 -0.4391  0.5317 -0.1620
 1129TIP3    H125022   5.311   4.524   0.427  0.7225  0.6802 -0.9401
 1129TIP3    H225023   5.420   4.622   0.467 -0.5504  1.5335  0.5421
 1130TIP3   OH225024   2.381   1.899   7.690 -0.3948 -0.2953  0.6919
 1130TIP3    H125025   2.409   1.822   7.641  0.1127  0.8647 -0.9461
 1130TIP3    H225026   2.310   1.937   7.637 -1.4588 -0.2709  2.0805
 1131TIP3   OH225027   5.897   6.822   0.960 -0.1885  0.2179 -0.4875
 1131TIP3    H125028   5.885   6.911   0.994 -0.4822  0.1097 -0.3060
 1131TIP3    H225029   5.811   6.796   0.928  0.1910  0.5079 -1.8058
 1132TIP3   OH225030   6.651   4.169   7.317 -0.4800  0.6770  0.2938
 1132TIP3    H125031   6.665   4.077   7.338  3.0124  0.9973 -0.0692
 1132TIP3    H225032   6.636   4.170   7.222 -0.5075  0.4838  0.2961
 1133TIP3   OH225033   5.713   1.385   7.625  0.3530  0.0275  0.2289
 1133TIP3    H125034   5.693   1.310   7.681 -0.5752 -0.0242 -0.1528
 1133TIP3    H225035   5.808   1.397   7.634  0.3216 -0.3742  1.3023
 1134TIP3   OH225036   2.379   3.792   1.117 -0.9574 -0.1157 -0.0772
 1134TIP3    H125037   2.346   3.765   1.032 -0.6312 -0.6831 -0.0243
 1134TIP3    H225038   2.374   3.888   1.115 -0.4482 -0.0965 -0.9328
 1135TIP3   OH225039   1.885   5.976   0.382 -0.2999  0.0838  0.4452
 1135TIP3    H125040   1.956   6.041   0.379 -0.7269  0.5205 -0.9523
 1135TIP3    H225041   1.917   5.909   0.442  1.5055  0.0608 -0.4726
 1136TIP3   OH225042   3.370   0.404   1.619  0.1232 -0.0261 -0.2687
 1136TIP3    H125043   3.368   0.308   1.616  0.1453 -0.0603  0.6206
 1136TIP3    H225044   3.363   0.426   1.712 -0.1528  0.8452 -0.4820
 1137TIP3   OH225045   6.535   6.220   7.302 -0.4980  0.2076  0.5643
 1137TIP3    H125046   6.553   6.272   7.224 -1.7938  0.0459  0.1317
 1137TIP3    H225047   6.573   6.270   7.374 -1.3691  1.5779  0.1114
 1138TIP3   OH225048   2.448   0.651   7.315  0.7054  0.0100 -0.0195
 1138TIP3    H125049   2.395   0.715   7.267  0.1896  0.7459  1.4816
 1138TIP3    H225050   2.455   0.577   7.255  0.3226  0.9927 -1.3390
 1139TIP3   OH225051   2.635   3.506   7.092 -0.1611  0.3326 -0.5504
 1139TIP3    H125052   2.666   3.441   7.029 -1.1679 -0.8305  0.1010
 1139TIP3    H225053   2.558   3.545   7.051 -0.3801  0.1052 -0.3584
 1140TIP3   OH225054   0.576   5.891   7.181  0.0671  0.1918  0.0724
 1140TIP3    H125055   0.592   5.984   7.198 -2.2176  0.6435  0.0696
 1140TIP3    H225056   0.576   5.851   7.268 -1.8423  0.7607  0.3794
 1141TIP3   OH225057   5.692   1.004   6.850  0.2543  0.2039  0.2038
 1141TIP3    H125058   5.706   0.987   6.757  0.1960  0.6401  0.1143
 1141TIP3    H225059   5.598   1.017   6.858  0.2181 -0.1613  0.3804
 1142TIP3   OH225060   2.837   2.599   8.404  0.6493  0.7618 -0.2449
 1142TIP3    H125061   2.918   2.645   8.424  0.3169  1.9327 -1.4139
 1142TIP3    H225062   2.780   2.667   8.368 -0.4457 -0.2742 -0.5235
 1143TIP3   OH225063   6.828   3.104   0.264  0.4359  0.3854  0.0483
 1143TIP3    H125064   6.833   3.133   0.173 -0.0599 -1.8801 -0.7722
 1143TIP3    H225065   6.850   3.010   0.261 -0.0205  0.1414  2.2041
 1144TIP3   OH225066   6.361   5.602   1.383  0.1681 -0.5456  0.4361
 1144TIP3    H125067   6.301   5.676   1.371 -1.0202 -1.0818  2.5466
 1144TIP3    H225068   6.433   5.619   1.322 -1.2273  1.0919 -0.8276
 1145TIP3   OH225069   3.253   2.088   8.127 -0.3303  0.0528 -0.2510
 1145TIP3    H125070   3.176   2.145   8.130 -0.9026 -0.7634  1.4239
 1145TIP3    H225071   3.242   2.028   8.200  1.4448 -0.6988 -0.5479
 1146TIP3   OH225072   5.756   1.939   0.583  0.1066 -0.1219 -0.3518
 1146TIP3    H125073   5.793   1.864   0.537 -0.7457 -0.1394 -1.0373
 1146TIP3    H225074   5.721   1.995   0.514 -1.1077 -0.0975  0.2544
 1147TIP3   OH225075   1.002   6.907   2.223  0.3858 -0.0865 -0.4352
 1147TIP3    H125076   0.944   6.861   2.284 -2.6003  0.3991 -2.6719
 1147TIP3    H225077   0.965   6.995   2.217  2.1648  0.6659 -1.0483
 1148TIP3   OH225078   2.521   3.490   6.791  0.2371 -0.4483  0.4246
 1148TIP3    H125079   2.504   3.544   6.869 -2.6535 -0.7832  0.1439
 1148TIP3    H225080   2.547   3.553   6.724 -1.3037  0.4439  0.5951
 1149TIP3   OH225081   3.825   5.572   0.746 -0.2407 -0.6610 -0.1459
 1149TIP3    H125082   3.883   5.569   0.671 -0.8635 -1.6850 -0.6048
 1149TIP3    H225083   3.856   5.646   0.798  0.4434 -0.1921 -1.2035
 1150TIP3   OH225084   0.958   3.202   6.959 -0.1164 -0.0351 -0.0736
 1150TIP3    H125085   0.968   3.149   7.038  0.0800 -3.8800 -2.4398
 1150TIP3    H225086   1.048   3.211   6.926 -0.4899 -2.0269 -1.8465
 1151TIP3   OH225087   4.505   5.759   2.051  0.3766  0.3472 -0.2264
 1151TIP3    H125088   4.543   5.845   2.068 -0.0444  0.5577 -0.3152
 1151TIP3    H225089   4.417   5.765   2.089  0.3897 -0.0842 -0.1296
 1152TIP3   OH225090   1.346   4.064   0.264  0.5098  0.0808  0.0406
 1152TIP3    H125091   1.382   4.040   0.350  0.0771 -1.7722 -0.2561
 1152TIP3    H225092   1.285   3.994   0.243  0.0976  0.8571 -1.4915
 1153TIP3   OH225093   0.415   5.440   0.224  0.0653  0.3708  0.1935
 1153TIP3    H125094   0.432   5.431   0.130 -0.9123 -1.9723  0.1499
 1153TIP3    H225095   0.461   5.366   0.264 -0.7311  0.4781  1.3668
 1154TIP3   OH225096   4.454   3.694   1.189 -0.7177  0.5829  0.7600
 1154TIP3    H125097   4.546   3.670   1.201 -0.2282  1.3026 -1.1592
 1154TIP3    H225098   4.415   3.618   1.145 -1.1231  0.1845  1.7763
 1155TIP3   OH225099   5.249   5.699   8.494  0.1977  0.5687  0.0015
 1155TIP3    H125100   5.218   5.614   8.464  0.4977  0.6623 -0.5984
 1155TIP3    H225101   5.174   5.738   8.538  0.0565 -0.0043  0.2743
 1156TIP3   OH225102   0.645   2.356   1.722 -0.0836  0.0449 -0.2117
 1156TIP3    H125103   0.616   2.427   1.666 -0.2101  0.5058  0.4258
 1156TIP3    H225104   0.739   2.347   1.704  0.3125  1.5125  0.9056
 1157TIP3   OH225105   3.465   2.807   7.299 -0.5721 -0.4038  0.2217
 1157TIP3    H125106   3.492   2.802   7.391  0.8616  1.4144 -0.0437
 1157TIP3    H225107   3.374   2.778   7.299 -0.1419 -1.9348  1.9599
 1158TIP3   OH225108   0.380   5.116   1.969 -0.3893 -0.0321 -0.0276
 1158TIP3    H125109   0.420   5.039   1.929 -0.6478 -0.3729  0.3485
 1158TIP3    H225110   0.347   5.084   2.054  0.0159  0.6339  0.3884
 1159TIP3   OH225111   1.577   5.314   1.231  0.4201 -0.0273 -0.5112
 1159TIP3    H125112   1.536   5.281   1.311  1.3372  1.2785  0.5556
 1159TIP3    H225113   1.634   5.243   1.202 -0.1125 -0.6074 -0.1583
 1160TIP3   OH225114   5.909   5.485   1.360 -0.2541 -0.2908 -0.1102
 1160TIP3    H125115   5.852   5.490   1.282  0.2855 -1.6595 -0.6218
 1160TIP3    H225116   5.870   5.416   1.414  0.1168 -0.2508  0.2135
 1161TIP3   OH225117   4.033   2.890   2.291  0.4261  0.3752 -0.1967
 1161TIP3    H125118   4.028   2.799   2.320  0.0767  0.0125 -1.3176
 1161TIP3    H225119   4.070   2.938   2.365 -0.7991 -0.4229  0.9561
 1162TIP3   OH225120   4.540   0.953   6.838  0.1939 -0.6198  0.1641
 1162TIP3    H125121   4.550   0.996   6.923 -0.1205 -0.6067  0.1979
 1162TIP3    H225122   4.579   1.014   6.775  0.4985 -0.6664  0.3065
 1163TIP3   OH225123   2.831   6.858   0.621 -0.1314 -0.1603  0.0253
 1163TIP3    H125124   2.744   6.833   0.589  0.3641 -0.4036 -1.2218
 1163TIP3    H225125   2.865   6.780   0.664  0.1172 -0.6259 -0.9802
 1164TIP3   OH225126   1.326   2.512   1.396  0.4458 -0.0226  0.0469
 1164TIP3    H125127   1.267   2.446   1.434  1.7970 -0.3919  1.6428
 1164TIP3    H225128   1.308   2.591   1.446 -0.2810  0.5007 -1.0156
 1165TIP3   OH225129   3.103   0.851   7.934 -0.1901  0.2658  0.2650
 1165TIP3    H125130   3.113   0.921   7.870  0.8979 -1.5310 -1.6772
 1165TIP3    H225131   3.185   0.853   7.985 -0.6784  1.1258  1.0528
 1166TIP3   OH225132   4.242   6.083   8.225  0.7236 -0.1669 -0.4557
 1166TIP3    H125133   4.288   6.083   8.309  1.8552  1.7309 -1.0049
 1166TIP3    H225134   4.302   6.038   8.165  0.4982 -0.3834 -0.5182
 1167TIP3   OH225135   5.841   2.402   7.857  0.3515  0.6238  0.6415
 1167TIP3    H125136   5.899   2.458   7.909  0.9063 -1.5542  2.5130
 1167TIP3    H225137   5.783   2.361   7.921  0.1295 -1.1063 -0.5926
 1168TIP3   OH225138   5.024   2.593   1.244 -0.0950 -0.5664  0.5708
 1168TIP3    H125139   5.115   2.574   1.268  0.9230  1.3078 -1.3703
 1168TIP3    H225140   5.001   2.669   1.298  0.2237  0.1668 -0.2944
 1169TIP3   OH225141   1.813   2.180   1.153 -0.0165 -0.2253 -0.1883
 1169TIP3    H125142   1.896   2.181   1.106 -0.9196  1.9049 -1.9389
 1169TIP3    H225143   1.823   2.247   1.221 -1.1839  2.3833 -2.3770
 1170TIP3   OH225144   3.564   0.062   6.112  0.2705 -0.1313 -0.2525
 1170TIP3    H125145   3.563   0.151   6.147 -0.3172 -0.0740 -0.4098
 1170TIP3    H225146   3.530   0.008   6.184  1.5589 -0.3718  0.2019
 1171TIP3   OH225147   3.591   0.963   6.602  0.0023 -0.0364  0.3056
 1171TIP3    H125148   3.547   0.879   6.589  0.8196 -0.5270  0.6228
 1171TIP3    H225149   3.652   0.970   6.528  1.4093 -0.7125  1.3389
 1172TIP3   OH225150   0.509   4.595   7.384 -0.0461  0.4332 -0.2752
 1172TIP3    H125151   0.450   4.637   7.446 -0.2916  0.3697 -0.4619
 1172TIP3    H225152   0.466   4.605   7.299 -0.4608 -0.8001 -0.2396
 1173TIP3   OH225153   2.157   2.091   1.396 -0.2396  0.2922  0.3264
 1173TIP3    H125154   2.159   2.182   1.365 -0.1536  0.2801  0.2970
 1173TIP3    H225155   2.066   2.077   1.423 -0.4819  0.0847 -0.5676
 1174TIP3   OH225156   3.952   0.660   8.302  0.7238 -0.1086  0.1491
 1174TIP3    H125157   3.893   0.674   8.227  0.8278 -1.5497 -0.2291
 1174TIP3    H225158   3.894   0.657   8.378  0.3915 -0.6277 -0.1179
 1175TIP3   OH225159   0.919   6.439   0.405  0.1694  0.4277  0.0532
 1175TIP3    H125160   0.853   6.508   0.414 -1.0490 -0.8142  1.1365
 1175TIP3    H225161   0.948   6.445   0.314  1.5933  3.6160  0.5668
 1176TIP3   OH225162   4.913   0.456   7.000  0.2924  0.0380 -0.1620
 1176TIP3    H125163   4.971   0.508   6.944 -1.4836  1.2593 -0.9720
 1176TIP3    H225164   4.864   0.401   6.939 -0.3600  0.0173  0.3708
 1177TIP3   OH225165   0.887   6.027   1.196  0.2823  0.4991 -0.4937
 1177TIP3    H125166   0.970   6.064   1.224  0.5055  0.5331 -1.1713
 1177TIP3    H225167   0.907   5.934   1.180 -0.1564  0.1783  0.7262
 1178TIP3   OH225168   1.496   2.026   8.046 -0.0292 -0.8958  0.1230
 1178TIP3    H125169   1.457   1.940   8.028  1.0006 -1.3385 -0.0384
 1178TIP3    H225170   1.472   2.080   7.971  0.9473 -1.6128 -0.7281
 1179TIP3   OH225171   6.771   1.672   0.930 -0.1094  0.5753  0.1004
 1179TIP3    H125172   6.703   1.628   0.879  0.2757 -0.5594  0.5435
 1179TIP3    H225173   6.800   1.744   0.874  0.8654 -1.0942 -1.6559
 1180TIP3   OH225174   5.144   6.284   1.113 -0.0927 -0.2896 -0.1087
 1180TIP3    H125175   5.054   6.274   1.082  0.1301 -1.6165 -0.3937
 1180TIP3    H225176   5.151   6.376   1.139 -1.0877  0.1841 -1.4464
 1181TIP3   OH225177   5.727   5.179   7.753 -0.2656  0.2947  0.3425
 1181TIP3    H125178   5.771   5.126   7.686 -0.7474  0.3897 -0.0546
 1181TIP3    H225179   5.711   5.118   7.825 -1.2158 -0.2210 -0.2893
 1182TIP3   OH225180   1.131   6.296   0.405  0.0227  0.2356 -0.4829
 1182TIP3    H125181   1.047   6.339   0.422 -0.5116 -1.1717  0.7217
 1182TIP3    H225182   1.131   6.221   0.464  2.0482  0.0720 -0.6410
 1183TIP3   OH225183   6.078   4.756   1.592 -0.1501 -0.3167  0.1967
 1183TIP3    H125184   5.995   4.744   1.547 -0.0297 -0.3469 -0.0187
 1183TIP3    H225185   6.061   4.726   1.682 -0.0434 -1.5195 -0.1584
 1184TIP3   OH225186   4.737   4.108   7.073 -0.0666 -0.1587 -0.2010
 1184TIP3    H125187   4.781   4.178   7.121  1.7242 -0.8504 -0.7439
 1184TIP3    H225188   4.742   4.032   7.131 -0.6231 -0.2296 -0.2422
 1185TIP3   OH225189   3.444   6.075   2.100  0.5485 -0.0810 -0.4303
 1185TIP3    H125190   3.479   6.152   2.145  1.2065 -1.2523  1.1662
 1185TIP3    H225191   3.359   6.103   2.065  0.3183  1.0915  0.9860
 1186TIP3   OH225192   6.787   5.412   2.342  0.1084 -0.1621 -0.1163
 1186TIP3    H125193   6.880   5.419   2.364 -0.4072 -1.1272  2.8436
 1186TIP3    H225194   6.769   5.489   2.289  2.5297  0.1623 -0.5949
 1187TIP3   OH225195   3.669   3.506   7.055 -0.3681  0.8074 -0.0295
 1187TIP3    H125196   3.666   3.414   7.027  0.3383  0.6576  0.3522
 1187TIP3    H225197   3.674   3.501   7.151 -0.9482  1.2609  0.0247
 1188TIP3   OH225198   1.555   6.625   1.677 -0.1263 -0.1973  0.1145
 1188TIP3    H125199   1.648   6.641   1.691  0.2157 -0.2431 -1.8040
 1188TIP3    H225200   1.535   6.671   1.595 -1.1642 -2.3458 -0.9033
 1189TIP3   OH225201   4.496   2.988   8.468 -0.0467  0.5780 -0.2358
 1189TIP3    H125202   4.482   2.990   8.562  2.8992  0.9869  0.2908
 1189TIP3    H225203   4.427   2.930   8.435 -0.6655 -0.2273  2.2388
 1190TIP3   OH225204   5.109   6.053   6.748 -0.3570  0.5304  0.0763
 1190TIP3    H125205   5.107   6.052   6.653  0.5477  0.6609  0.0460
 1190TIP3    H225206   5.199   6.029   6.771 -1.0190 -1.3641  0.9390
 1191TIP3   OH225207   3.584   6.059   8.472  0.2491  0.6109 -0.1574
 1191TIP3    H125208   3.539   5.975   8.481 -2.2608  1.9277  0.5004
 1191TIP3    H225209   3.538   6.103   8.399  0.8359  1.8031  0.1604
 1192TIP3   OH225210   6.705   2.735   7.780  0.1185 -0.2830  0.2694
 1192TIP3    H125211   6.712   2.782   7.697  1.2719  0.9130  1.0050
 1192TIP3    H225212   6.757   2.656   7.767 -1.0894 -0.9564 -0.6798
 1193TIP3   OH225213   1.073   6.367   1.480  0.6489  0.0991  0.1405
 1193TIP3    H125214   1.110   6.424   1.412  0.5514 -0.9223 -0.7932
 1193TIP3    H225215   1.148   6.325   1.520  0.6262 -0.4681 -0.3997
 1194TIP3   OH225216   2.720   2.219   1.967 -0.2148 -0.6904  0.2171
 1194TIP3    H125217   2.806   2.255   1.988  0.3079 -1.1866 -0.9677
 1194TIP3    H225218   2.663   2.247   2.039  0.4484  1.4086 -0.0035
 1195TIP3   OH225219   2.885   3.071   0.277  0.2828  0.1082  0.6799
 1195TIP3    H125220   2.881   3.147   0.218  0.4829  1.0777  1.8903
 1195TIP3    H225221   2.794   3.055   0.302  0.1917 -0.3339  0.0985
 1196TIP3   OH225222   2.213   0.075   0.323  0.7417 -0.3704  0.2180
 1196TIP3    H125223   2.257  -0.005   0.294 -0.4103  0.0574 -3.1783
 1196TIP3    H225224   2.260   0.146   0.280 -0.4847  0.4537  0.1747
 1197TIP3   OH225225   1.603   6.368   7.676 -0.2190  0.1504 -0.3127
 1197TIP3    H125226   1.669   6.299   7.670 -0.0732  0.2410  0.1732
 1197TIP3    H225227   1.550   6.343   7.752  0.7007  1.3052  0.7477
 1198TIP3   OH225228   1.740   2.078   6.038 -0.2719  0.3438 -1.3969
 1198TIP3    H125229   1.827   2.088   6.075 -0.0353 -0.7369 -1.6306
 1198TIP3    H225230   1.710   2.168   6.023  1.0030  0.7228 -1.7885
 1199TIP3   OH225231   3.533   4.724   8.511 -0.1063  0.3122 -0.0989
 1199TIP3    H125232   3.543   4.816   8.484 -3.5434  0.8509 -0.0787
 1199TIP3    H225233   3.518   4.728   8.605 -1.7319 -0.0385 -0.3076
 1200TIP3   OH225234   0.437   1.764   1.258  0.2163 -0.9239  0.0842
 1200TIP3    H125235   0.372   1.803   1.200  0.3458 -0.5866  0.1602
 1200TIP3    H225236   0.450   1.675   1.225  1.2610 -0.3177 -1.2348
 1201TIP3   OH225237   6.247   2.868   0.752 -0.2014 -0.1217 -0.5879
 1201TIP3    H125238   6.254   2.782   0.795  0.6752 -0.1214 -0.7042
 1201TIP3    H225239   6.278   2.930   0.817 -0.3388  0.0526 -0.6879
 1202TIP3   OH225240   0.578   0.188   1.089 -0.7064  0.3144  0.5290
 1202TIP3    H125241   0.576   0.097   1.119 -0.6236 -0.4637 -1.6302
 1202TIP3    H225242   0.556   0.240   1.166 -5.0598 -1.7354  0.9795
 1203TIP3   OH225243   3.447   4.645   6.874  0.4513  0.3027 -0.7982
 1203TIP3    H125244   3.480   4.587   6.806 -0.2817 -1.5037  0.3222
 1203TIP3    H225245   3.524   4.673   6.922  0.6892 -1.3653 -0.1439
 1204TIP3   OH225246   3.365   3.596   2.709  0.0381 -0.1456  0.1855
 1204TIP3    H125247   3.420   3.666   2.674 -1.1002  0.9393  0.4901
 1204TIP3    H225248   3.394   3.517   2.663 -0.9063  1.0600 -2.7330
 1205TIP3   OH225249   6.915   2.516   6.159  0.0758 -0.3572 -0.5293
 1205TIP3    H125250   6.835   2.472   6.190  0.2844 -1.0214 -0.9265
 1205TIP3    H225251   6.947   2.564   6.236 -0.6488 -0.1683 -0.3399
 1206TIP3   OH225252   6.149   5.370   2.296 -0.1899  0.1571 -0.4484
 1206TIP3    H125253   6.119   5.279   2.299 -0.8815  0.3397 -1.3212
 1206TIP3    H225254   6.186   5.386   2.383 -2.6948 -0.0712  0.7482
 1207TIP3   OH225255   6.346   2.393   0.727 -0.1005 -0.4763 -0.4203
 1207TIP3    H125256   6.387   2.308   0.713  0.5996 -0.4903  1.4901
 1207TIP3    H225257   6.252   2.374   0.731 -0.0982 -0.8738 -1.7633
 1208TIP3   OH225258   5.411   5.264   0.725  0.1042  0.2775 -0.3143
 1208TIP3    H125259   5.504   5.267   0.749  0.1582  1.0209 -0.5704
 1208TIP3    H225260   5.386   5.173   0.737  0.9512  0.0004 -0.5446
 1209TIP3   OH225261   1.870   6.416   0.784  0.0453  0.1746  0.3991
 1209TIP3    H125262   1.900   6.501   0.753 -1.9455  0.8376  0.1089
 1209TIP3    H225263   1.803   6.390   0.720 -0.1329 -1.1162  1.0715
 1210TIP3   OH225264   6.613   6.519   1.458 -0.3792  0.4298  0.4135
 1210TIP3    H125265   6.657   6.532   1.374  0.8669  1.0793  1.1273
 1210TIP3    H225266   6.619   6.425   1.475 -0.3880  0.3386 -0.0964
 1211TIP3   OH225267   1.179   0.227   1.388 -0.2485 -0.1504 -0.0189
 1211TIP3    H125268   1.183   0.164   1.316  0.3393 -1.5098  1.1519
 1211TIP3    H225269   1.102   0.200   1.439  0.6197 -0.6019  1.0813
 1212TIP3   OH225270   5.654   4.135   7.820 -0.1260  0.0906  0.2620
 1212TIP3    H125271   5.606   4.053   7.826  0.4080 -0.3458 -0.9903
 1212TIP3    H225272   5.600   4.191   7.764  0.3224 -0.0488 -0.3262
 1213TIP3   OH225273   3.260   5.390   2.033  0.4194  0.2195  0.4567
 1213TIP3    H125274   3.331   5.326   2.035  1.7803  1.6710  1.5719
 1213TIP3    H225275   3.192   5.353   2.090  1.2994 -0.1362  1.3042
 1214TIP3   OH225276   3.805   6.144   8.282  0.5950  0.1188  0.4408
 1214TIP3    H125277   3.882   6.089   8.277  0.0073 -0.7163  0.4355
 1214TIP3    H225278   3.739   6.091   8.327  0.2180  1.0498  1.0444
 1215TIP3   OH225279   1.308   6.942   6.194 -0.3567  0.2926 -0.3781
 1215TIP3    H125280   1.341   7.024   6.230  0.3669  0.5817 -1.6497
 1215TIP3    H225281   1.220   6.963   6.162  0.8598  1.4014 -3.3163
 1216TIP3   OH225282   0.514   2.187   8.543 -1.0226 -0.1541  0.0195
 1216TIP3    H125283   0.526   2.117   8.607  0.4031 -0.6395 -0.7337
 1216TIP3    H225284   0.568   2.259   8.575  0.3117 -0.6648 -0.9683
 1217TIP3   OH225285   6.315   0.673   1.261  0.3393  0.6527 -0.1900
 1217TIP3    H125286   6.252   0.613   1.302  1.1900 -0.5472 -0.6078
 1217TIP3    H225287   6.383   0.684   1.327 -1.1789  3.5701  1.1078
 1218TIP3   OH225288   4.697   0.447   0.451 -0.2209  0.5409  0.3294
 1218TIP3    H125289   4.760   0.393   0.499 -1.0779  0.0547  0.9436
 1218TIP3    H225290   4.651   0.385   0.395 -1.1871  0.6118  1.0121
 1219TIP3   OH225291   0.299   1.559   7.628  0.4132  0.0200  0.0195
 1219TIP3    H125292   0.311   1.504   7.550 -1.8928 -1.9849  0.9293
 1219TIP3    H225293   0.223   1.614   7.607  2.1121  2.3079 -0.5079
 1220TIP3   OH225294   5.193   0.675   7.530  0.0511 -0.4090  0.1337
 1220TIP3    H125295   5.246   0.697   7.454 -0.8976  1.2053 -0.1176
 1220TIP3    H225296   5.189   0.579   7.530  1.1919 -0.4786 -1.0441
 1221TIP3   OH225297   2.615   0.321   1.494 -0.5293 -0.6913 -0.0327
 1221TIP3    H125298   2.638   0.343   1.404 -0.6585 -0.3593  0.0152
 1221TIP3    H225299   2.665   0.241   1.512 -0.3196 -0.6270 -0.3179
 1222TIP3   OH225300   5.661   6.377   0.242  0.0429  0.5253  0.2321
 1222TIP3    H125301   5.752   6.400   0.260 -0.3319  1.7359  0.7257
 1222TIP3    H225302   5.655   6.376   0.147  0.3240  1.5490  0.1897
 1223TIP3   OH225303   1.826   0.385   1.972 -0.7751 -0.6013  0.3371
 1223TIP3    H125304   1.759   0.431   2.022  0.6688  0.5574  1.2802
 1223TIP3    H225305   1.793   0.296   1.964 -2.3837 -0.0784  0.8383
 1224TIP3   OH225306   2.341   6.324   1.565 -0.2865  0.6168 -0.5731
 1224TIP3    H125307   2.308   6.236   1.584 -0.2281  0.5031 -0.9999
 1224TIP3    H225308   2.267   6.382   1.582 -0.3295  0.4848 -0.3066
 1225TIP3   OH225309   4.688   5.549   7.854  0.0087 -0.0458 -0.2243
 1225TIP3    H125310   4.617   5.488   7.875 -0.0317 -0.7010 -2.0877
 1225TIP3    H225311   4.660   5.592   7.773  1.1927  0.6037 -0.3223
 1226TIP3   OH225312   1.989   4.496   8.016  0.1937  0.2918  0.4179
 1226TIP3    H125313   2.083   4.512   8.004  0.6243 -0.0373  2.9201
 1226TIP3    H225314   1.981   4.400   8.014  0.1791  0.2477  1.6399
 1227TIP3   OH225315   6.166   6.527   0.341 -0.1407 -0.5432 -0.1225
 1227TIP3    H125316   6.218   6.450   0.365  1.7387  0.5771 -0.4771
 1227TIP3    H225317   6.202   6.598   0.393 -2.5113 -0.0303  0.9471
 1228TIP3   OH225318   5.383   2.391   1.008 -0.4952 -0.0494 -0.3171
 1228TIP3    H125319   5.452   2.386   0.941 -1.1954  0.6389 -1.1215
 1228TIP3    H225320   5.303   2.368   0.960 -0.8772 -0.5012  0.5249
 1229TIP3   OH225321   0.273   5.480   7.192  0.0786  0.4860  0.1794
 1229TIP3    H125322   0.296   5.389   7.211 -1.6473  0.1497  0.8029
 1229TIP3    H225323   0.357   5.521   7.169  1.1094 -0.9082  1.2623
 1230TIP3   OH225324   1.350   3.931   2.101  0.1670  0.2868  0.7134
 1230TIP3    H125325   1.335   3.882   2.182  1.6673 -1.7511 -0.1628
 1230TIP3    H225326   1.316   3.875   2.032  2.6953 -0.0465 -0.3975
 1231TIP3   OH225327   4.054   2.620   7.065  0.2386  0.1588  0.1608
 1231TIP3    H125328   4.122   2.687   7.055  0.9320 -0.7261 -1.5439
 1231TIP3    H225329   3.975   2.661   7.029  0.3914  0.4254  0.1243
 1232TIP3   OH225330   4.022   4.754   2.456  0.0842  0.3438 -0.3233
 1232TIP3    H125331   3.940   4.804   2.457  0.1781  0.5818  2.1829
 1232TIP3    H225332   4.088   4.815   2.487  0.2827 -1.0798  2.3792
 1233TIP3   OH225333   6.565   4.761   1.285  0.7477 -0.0250 -0.6995
 1233TIP3    H125334   6.499   4.724   1.344  1.3736 -1.2087 -0.7256
 1233TIP3    H225335   6.515   4.797   1.212  0.1222 -0.6747 -0.5946
 1234TIP3   OH225336   3.184   0.511   0.145 -0.5854 -0.3423  0.1170
 1234TIP3    H125337   3.130   0.449   0.195 -3.8526  0.7138 -1.7908
 1234TIP3    H225338   3.240   0.455   0.091 -2.6964 -1.6984 -0.7876
 1235TIP3   OH225339   2.631   1.933   7.416  0.6305 -0.1950 -0.4836
 1235TIP3    H125340   2.703   1.949   7.354 -0.1440  1.5900 -0.9837
 1235TIP3    H225341   2.583   1.859   7.378  1.4112 -0.5350 -0.8465
 1236TIP3   OH225342   1.179   0.864   0.327  0.3860  0.4937 -0.5890
 1236TIP3    H125343   1.117   0.791   0.338 -0.4923  1.5603  3.0976
 1236TIP3    H225344   1.265   0.825   0.342  0.3375 -0.3661 -2.2872
 1237TIP3   OH225345   2.334   2.136   0.197  0.2066  0.0443  0.5400
 1237TIP3    H125346   2.252   2.173   0.164  0.2459  0.0120  0.4045
 1237TIP3    H225347   2.396   2.209   0.195  0.4157 -0.1398 -0.1892
 1238TIP3   OH225348   2.939   6.862   1.072  0.1344  0.2199 -0.0074
 1238TIP3    H125349   2.858   6.827   1.109  1.3932 -1.4886  1.2783
 1238TIP3    H225350   2.987   6.896   1.147  0.4436  1.6740 -0.8165
 1239TIP3   OH225351   3.001   3.599   7.627  0.9145 -0.4707  0.0479
 1239TIP3    H125352   3.001   3.557   7.541 -0.9209  1.6884 -1.1004
 1239TIP3    H225353   3.003   3.693   7.608 -1.4133  0.1429  2.2614
 1240TIP3   OH225354   1.703   4.680   6.936 -0.3853  0.0623  0.0845
 1240TIP3    H125355   1.707   4.591   6.969  1.0701  0.2438  0.4938
 1240TIP3    H225356   1.693   4.735   7.014 -1.7265  0.2408 -0.2020
 1241TIP3   OH225357   3.490   3.048   7.800  0.3487  0.1294 -0.3902
 1241TIP3    H125358   3.516   2.958   7.819 -1.1454 -0.2749 -0.0983
 1241TIP3    H225359   3.507   3.058   7.706  0.5133 -0.4563 -0.4311
 1242TIP3   OH225360   6.741   5.807   1.222 -0.3900 -0.5790  0.0666
 1242TIP3    H125361   6.744   5.781   1.130  0.7422 -1.6247  0.3810
 1242TIP3    H225362   6.786   5.892   1.224 -1.1079 -0.1722 -0.4427
 1243TIP3   OH225363   4.815   0.847   6.892 -0.2495  0.4601  0.3302
 1243TIP3    H125364   4.785   0.929   6.930 -1.6809  0.3030 -0.3886
 1243TIP3    H225365   4.739   0.813   6.844  0.8214 -0.4268 -0.8153
 1244TIP3   OH225366   1.304   3.426   7.226 -0.0353  0.4433  0.5162
 1244TIP3    H125367   1.327   3.400   7.315 -1.5737  1.0143  1.1117
 1244TIP3    H225368   1.307   3.521   7.226 -0.6250  0.4703  0.1320
 1245TIP3   OH225369   3.518   1.905   8.549  0.1789  0.5542 -0.0420
 1245TIP3    H125370   3.604   1.900   8.589 -0.0315  1.3826  0.5542
 1245TIP3    H225371   3.463   1.848   8.603  0.4460 -0.3620 -0.7154
 1246TIP3   OH225372   6.543   3.473   1.955  0.4036 -0.8837 -0.2497
 1246TIP3    H125373   6.477   3.455   1.889 -0.5611 -2.6835  1.1047
 1246TIP3    H225374   6.498   3.529   2.019  0.3006 -1.7035  0.4197
 1247TIP3   OH225375   5.967   4.102   0.973 -0.4092 -0.4327 -0.1939
 1247TIP3    H125376   6.060   4.084   0.964  0.5006  3.8684 -1.5456
 1247TIP3    H225377   5.961   4.165   1.044 -2.0773  0.5423 -1.1440
 1248TIP3   OH225378   1.119   1.822   0.980 -0.1156 -0.5194 -0.1083
 1248TIP3    H125379   1.103   1.771   1.059  0.0450  0.1172  0.3442
 1248TIP3    H225380   1.207   1.857   0.992 -1.6597  3.3333  1.6020
 1249TIP3   OH225381   0.779   2.942   1.550  0.7102  0.2048  0.7259
 1249TIP3    H125382   0.790   3.030   1.587  0.4822  0.7197 -0.3804
 1249TIP3    H225383   0.784   2.956   1.455  1.8013 -1.1382  0.5538
 1250TIP3   OH225384   6.058   6.743   7.393  0.0001  0.1084 -0.1427
 1250TIP3    H125385   6.139   6.699   7.420 -0.2194 -0.1314  0.1245
 1250TIP3    H225386   5.994   6.673   7.387 -0.3205  0.3754  0.1539
 1251TIP3   OH225387   6.402   6.644   8.403 -0.3044 -0.0598 -0.0968
 1251TIP3    H125388   6.439   6.634   8.491  1.6956 -0.3160 -0.9016
 1251TIP3    H225389   6.393   6.554   8.370 -0.4424  0.0539 -0.3747
 1252TIP3   OH225390   4.002   2.327   0.822 -0.1646 -0.2290 -0.3075
 1252TIP3    H125391   4.073   2.327   0.758  1.0140 -0.1342  0.9300
 1252TIP3    H225392   3.926   2.360   0.775  0.3385 -1.2904 -1.9620
 1253TIP3   OH225393   4.602   1.509   0.406  0.4614 -0.1646  0.3380
 1253TIP3    H125394   4.645   1.533   0.324 -0.0906 -2.3583 -0.6657
 1253TIP3    H225395   4.575   1.592   0.445  2.3469  1.0292 -0.7927
 1254TIP3   OH225396   1.257   6.308   7.909 -0.2937 -0.1709  0.5521
 1254TIP3    H125397   1.245   6.228   7.960 -0.3074  0.4398  1.5345
 1254TIP3    H225398   1.330   6.353   7.952  1.0480 -0.5603 -1.1663
 1255TIP3   OH225399   5.131   4.443   7.320 -0.1074  0.3840  0.6035
 1255TIP3    H125400   5.216   4.467   7.356 -0.0222 -0.2560  0.8479
 1255TIP3    H225401   5.152   4.401   7.236 -0.2302  0.8482  0.3387
 1256TIP3   OH225402   6.064   5.047   1.527  0.0338 -0.3068 -0.4646
 1256TIP3    H125403   6.011   4.968   1.536  0.0752 -0.2675  0.1338
 1256TIP3    H225404   6.099   5.042   1.438  0.5694 -1.2951 -0.2089
 1257TIP3   OH225405   5.126   1.368   0.001 -0.2767  0.1283 -0.2953
 1257TIP3    H125406   5.214   1.370  -0.038 -0.1215  0.0474  0.0469
 1257TIP3    H225407   5.125   1.442   0.062 -0.4264  0.0967 -0.2590
 1258TIP3   OH225408   5.853   6.319   0.590  0.4467 -0.0635 -0.1115
 1258TIP3    H125409   5.943   6.308   0.619 -0.1066 -3.0979  0.7163
 1258TIP3    H225410   5.813   6.376   0.656  1.2691 -0.2299  0.5453
 1259TIP3   OH225411   4.942   6.264   6.716 -0.2382 -0.4538  0.4735
 1259TIP3    H125412   4.936   6.258   6.620  1.7092  2.2471  0.0902
 1259TIP3    H225413   4.994   6.188   6.741  0.0680 -0.6664 -0.7273
 1260TIP3   OH225414   3.632   5.904   0.164 -0.0682 -0.1463 -0.4678
 1260TIP3    H125415   3.551   5.883   0.211  0.6458  0.6324  1.2077
 1260TIP3    H225416   3.618   5.993   0.132 -0.3708 -0.5040 -1.3541
 1261TIP3   OH225417   1.124   0.972   7.601 -0.1788 -0.0099  0.5754
 1261TIP3    H125418   1.057   1.003   7.540  1.0462 -0.2092 -0.9285
 1261TIP3    H225419   1.113   1.027   7.679 -0.4860  1.6769 -0.6028
 1262TIP3   OH225420   5.296   2.182   8.146 -0.1902 -0.7981  0.5469
 1262TIP3    H125421   5.367   2.118   8.153  0.0937 -0.6755 -0.8012
 1262TIP3    H225422   5.253   2.181   8.231  2.5409  0.4623  2.0524
 1263TIP3   OH225423   5.352   5.669   1.571 -0.1784 -0.5551 -0.0134
 1263TIP3    H125424   5.443   5.662   1.601 -0.8563  0.1986  2.4469
 1263TIP3    H225425   5.308   5.593   1.608 -0.8277 -0.2408 -0.1133
 1264TIP3   OH225426   4.301   3.227   0.689  0.1678  0.5130  0.1198
 1264TIP3    H125427   4.315   3.317   0.716  0.2210  0.2250  1.0691
 1264TIP3    H225428   4.297   3.231   0.593  0.2566  1.5023  0.1521
 1265TIP3   OH225429   1.317   5.807   2.034  0.5887  0.5601 -0.1517
 1265TIP3    H125430   1.230   5.768   2.046  0.6873  0.4952  0.3774
 1265TIP3    H225431   1.377   5.733   2.045  0.6863  0.4180 -1.4031
 1266TIP3   OH225432   0.509   6.906   0.522  0.0966  0.4683  0.3244
 1266TIP3    H125433   0.558   6.827   0.502 -2.5971 -1.1075 -0.4771
 1266TIP3    H225434   0.558   6.947   0.594  1.6650 -1.7944  0.6398
 1267TIP3   OH225435   4.867   0.856   0.368 -1.5095 -0.4718  0.8008
 1267TIP3    H125436   4.950   0.881   0.409 -0.7749 -1.3911 -0.0768
 1267TIP3    H225437   4.892   0.812   0.287 -2.8181 -1.7632  1.0573
 1268TIP3   OH225438   5.003   0.678   8.209 -0.0398  0.4119 -0.3512
 1268TIP3    H125439   5.063   0.609   8.240  0.6440 -0.0540 -2.5322
 1268TIP3    H225440   4.916   0.643   8.226  0.3097 -0.2044  0.2251
 1269TIP3   OH225441   4.930   1.121   7.765 -0.1801  0.6340 -0.2145
 1269TIP3    H125442   4.920   1.197   7.821 -1.2646  0.6272 -0.3797
 1269TIP3    H225443   5.018   1.130   7.728  0.7839  0.3302  1.9045
 1270TIP3   OH225444   5.324   2.012   7.250 -0.0717 -0.2533  0.6985
 1270TIP3    H125445   5.249   2.040   7.303 -0.3486  0.9144 -0.2780
 1270TIP3    H225446   5.375   2.091   7.235  0.1577 -0.6055 -0.5206
 1271TIP3   OH225447   3.291   2.187   7.462  0.0036 -0.2260  0.0664
 1271TIP3    H125448   3.223   2.120   7.449 -0.5687  0.3894 -0.1432
 1271TIP3    H225449   3.372   2.142   7.439 -0.5645 -0.3289 -1.9134
 1272TIP3   OH225450   0.962   0.331   0.215 -0.5988  0.2454  0.8295
 1272TIP3    H125451   1.056   0.313   0.207 -0.7333 -0.0137 -0.2618
 1272TIP3    H225452   0.920   0.246   0.198 -1.1854  1.1396 -2.9924
 1273TIP3   OH225453   2.060   4.481   7.645  0.5862 -0.5668 -0.1682
 1273TIP3    H125454   2.101   4.403   7.609 -0.6147 -0.6654 -1.4251
 1273TIP3    H225455   2.030   4.529   7.568  1.5513  1.2993  0.5494
 1274TIP3   OH225456   6.505   1.565   7.323 -0.4017  0.0680 -0.1173
 1274TIP3    H125457   6.530   1.657   7.323 -0.5156  0.1011  0.3689
 1274TIP3    H225458   6.512   1.538   7.414 -0.9426 -0.2474 -0.1647
 1275TIP3   OH225459   3.143   1.117   1.117  0.3459  0.1152  0.3844
 1275TIP3    H125460   3.068   1.094   1.062 -0.7249 -0.4042  2.0044
 1275TIP3    H225461   3.219   1.083   1.069 -0.6949 -1.7547 -0.0409
 1276TIP3   OH225462   6.960   5.671   7.059 -0.0643 -0.5581  0.4978
 1276TIP3    H125463   6.957   5.612   6.983 -2.9488 -0.8189  0.7133
 1276TIP3    H225464   6.954   5.759   7.021  0.7406 -0.5617  0.3446
 1277TIP3   OH225465   4.727   3.330   7.449 -0.2136 -0.3539  0.3293
 1277TIP3    H125466   4.810   3.339   7.497  0.7245 -1.9578 -0.8659
 1277TIP3    H225467   4.708   3.418   7.417  2.2307 -0.2630 -1.1771
 1278TIP3   OH225468   2.224   4.935   6.577  0.4922  0.0162  0.5780
 1278TIP3    H125469   2.250   4.862   6.520 -1.0635 -0.3280  0.2805
 1278TIP3    H225470   2.129   4.935   6.574  0.4392  2.5099  0.0062
 1279TIP3   OH225471   4.069   4.175   0.930 -0.1186 -0.1209 -0.1559
 1279TIP3    H125472   4.125   4.224   0.870 -0.5009  0.3531 -0.1293
 1279TIP3    H225473   4.017   4.242   0.975  0.2296 -0.4532  0.7768
 1280TIP3   OH225474   6.755   3.054   2.101  0.0744 -0.4474  0.4119
 1280TIP3    H125475   6.691   3.074   2.169 -0.6168  1.0460 -0.6080
 1280TIP3    H225476   6.829   3.111   2.120 -1.3075  2.2869 -1.6635
 1281TIP3   OH225477   5.429   3.767   6.491  0.3580  0.0931 -0.2400
 1281TIP3    H125478   5.359   3.794   6.551  0.4302  0.4406 -0.3091
 1281TIP3    H225479   5.387   3.765   6.405 -0.1681 -2.0084  0.0264
 1282TIP3   OH225480   1.593   1.457   7.045 -0.7095 -0.1688  0.1167
 1282TIP3    H125481   1.535   1.387   7.014 -0.7142 -0.3050  0.4312
 1282TIP3    H225482   1.654   1.471   6.972 -0.5474 -0.6777  0.1506
 1283TIP3   OH225483   4.170   2.173   8.505 -0.2283  0.5187  0.1586
 1283TIP3    H125484   4.146   2.213   8.589  0.0080  2.6409 -0.7268
 1283TIP3    H225485   4.088   2.143   8.468 -0.2077 -1.6547  1.6656
 1284TIP3   OH225486   0.974   4.985   1.298 -0.6233  0.3925 -0.0604
 1284TIP3    H125487   1.045   4.933   1.259 -1.3011 -0.5014 -0.1411
 1284TIP3    H225488   0.895   4.933   1.282 -1.3234  1.4538 -0.1206
 1285TIP3   OH225489   2.641   0.437   1.219 -0.0055  0.4182 -0.0559
 1285TIP3    H125490   2.608   0.526   1.207 -0.7692 -0.1084 -2.3972
 1285TIP3    H225491   2.735   0.444   1.202  0.0876  0.8833  0.5897
 1286TIP3   OH225492   5.080   5.739   1.658 -0.4886 -0.0891 -1.0152
 1286TIP3    H125493   5.175   5.751   1.652 -0.0181 -2.4119  0.4831
 1286TIP3    H225494   5.066   5.647   1.636 -2.3504  0.0497 -0.5748
 1287TIP3   OH225495   4.818   4.402   0.821  0.0119  0.0477  0.0226
 1287TIP3    H125496   4.732   4.436   0.798  0.0152  0.3229  0.3920
 1287TIP3    H225497   4.824   4.415   0.916 -0.1297 -1.3228  0.2312
 1288TIP3   OH225498   4.931   6.620   0.454  0.5524  0.1192  0.0684
 1288TIP3    H125499   4.875   6.690   0.422  0.1981 -1.8775 -4.6572
 1288TIP3    H225500   4.874   6.565   0.507 -1.1472 -0.0046 -1.7501
 1289TIP3   OH225501   0.255   1.331   1.216  0.5291 -0.2625  0.3950
 1289TIP3    H125502   0.328   1.384   1.250  1.7780 -2.3605  1.1553
 1289TIP3    H225503   0.217   1.386   1.147  2.3535  1.2293  0.4716
 1290TIP3   OH225504   3.098   1.845   0.324  0.1759  0.4603 -0.5627
 1290TIP3    H125505   3.046   1.810   0.396  0.0267 -0.4071 -1.0816
 1290TIP3    H225506   3.145   1.919   0.362  1.3534 -0.9538  0.8856
 1291TIP3   OH225507   6.465   2.546   0.122  0.1363  0.3547 -0.1213
 1291TIP3    H125508   6.544   2.493   0.133  0.6854  0.9715 -0.9467
 1291TIP3    H225509   6.493   2.635   0.145 -0.0771  0.7311 -1.2544
 1292TIP3   OH225510   0.676   6.273   1.968 -0.3455 -0.0158 -0.0872
 1292TIP3    H125511   0.596   6.263   2.019 -0.3465 -0.3856 -0.1517
 1292TIP3    H225512   0.734   6.204   2.001 -0.0307  0.2920  0.0042
 1293TIP3   OH225513   5.419   2.766   1.235  0.4578 -0.0402  0.0117
 1293TIP3    H125514   5.404   2.839   1.175  1.0036  0.4958  0.5089
 1293TIP3    H225515   5.460   2.698   1.182  1.1495  0.5178 -0.1651
 1294TIP3   OH225516   5.467   5.021   7.415 -0.8625 -0.4690 -0.9093
 1294TIP3    H125517   5.453   4.971   7.496  0.3402 -0.5772 -0.7591
 1294TIP3    H225518   5.432   5.108   7.435  2.0244  0.4191  0.8029
 1295TIP3   OH225519   4.535   1.787   1.396 -0.5365 -0.7900  0.2173
 1295TIP3    H125520   4.461   1.835   1.433  0.4156  1.1290 -0.2500
 1295TIP3    H225521   4.527   1.800   1.301  1.9245  1.9568  0.2579
 1296TIP3   OH225522   2.005   5.292   7.355 -0.1076 -0.2175  0.3093
 1296TIP3    H125523   1.955   5.355   7.406 -1.6235  0.6258 -2.0512
 1296TIP3    H225524   1.992   5.208   7.400 -3.0458  0.1044  0.2601
 1297TIP3   OH225525   2.097   3.079   8.370  0.4296  0.7902 -0.0265
 1297TIP3    H125526   2.176   3.058   8.420 -0.7547  2.8486  3.0131
 1297TIP3    H225527   2.124   3.148   8.309  1.3951  0.0264 -0.4722
 1298TIP3   OH225528   0.961   0.350   6.575  0.9533  0.7133 -0.3008
 1298TIP3    H125529   0.936   0.365   6.667 -1.2819  1.3483 -0.9498
 1298TIP3    H225530   0.957   0.255   6.564 -2.7870  0.7660 -0.6608
 1299TIP3   OH225531   4.081   3.770   0.369  0.1146  0.4030  0.4474
 1299TIP3    H125532   4.022   3.818   0.310 -0.2228 -0.6092 -0.0570
 1299TIP3    H225533   4.023   3.725   0.430  0.3436 -0.5691 -0.0297
 1300TIP3   OH225534   4.520   2.137   0.587 -0.2418  0.2917 -0.3036
 1300TIP3    H125535   4.578   2.081   0.638  1.2236  1.5286 -0.5522
 1300TIP3    H225536   4.574   2.170   0.515 -1.4009  1.0561 -0.8655
 1301TIP3   OH225537   0.085   5.810   1.431  0.3791 -0.4297  0.3101
 1301TIP3    H125538   0.122   5.877   1.374 -1.0672  0.2048  0.0528
 1301TIP3    H225539   0.157   5.751   1.450  1.6732  1.1032  0.3903
 1302TIP3   OH225540   3.613   5.660   0.590  0.3975 -0.3681 -0.2182
 1302TIP3    H125541   3.604   5.749   0.554 -0.6630  0.0480  1.0117
 1302TIP3    H225542   3.687   5.666   0.650 -0.9924  0.3270  1.5504
 1303TIP3   OH225543   0.367   3.237   6.760  0.5534 -0.4387 -0.4798
 1303TIP3    H125544   0.330   3.149   6.755 -0.5736 -0.3994  3.5674
 1303TIP3    H225545   0.294   3.295   6.735 -0.0798 -0.5747  0.9795
 1304TIP3   OH225546   5.095   5.573   2.417 -0.5039 -0.1535 -0.3406
 1304TIP3    H125547   5.018   5.611   2.458 -0.3010  0.5030 -0.5548
 1304TIP3    H225548   5.061   5.507   2.357 -0.8844 -0.0225 -0.2708
 1305TIP3   OH225549   0.564   1.237   1.632 -0.9207 -0.2688  0.1223
 1305TIP3    H125550   0.535   1.183   1.559  0.1065 -1.4905  0.5891
 1305TIP3    H225551   0.511   1.206   1.706 -1.0661  0.1002  0.1763
 1306TIP3   OH225552   5.341   0.984   0.974  0.6419  0.4463 -0.2579
 1306TIP3    H125553   5.375   1.051   1.033  2.4362  0.8039 -1.5869
 1306TIP3    H225554   5.311   1.032   0.897 -0.8111 -0.0805 -0.0503
 1307TIP3   OH225555   4.816   1.979   7.539  0.1088  0.4873 -0.5322
 1307TIP3    H125556   4.790   2.070   7.525 -3.2126 -0.2306  0.3307
 1307TIP3    H225557   4.837   1.947   7.451  0.3157  1.7692 -0.9778
 1308TIP3   OH225558   3.542   1.075   8.094  0.6305  0.3474  0.6444
 1308TIP3    H125559   3.511   0.985   8.105 -2.0278  1.3505  2.6196
 1308TIP3    H225560   3.548   1.087   7.999 -0.0718 -1.5785  0.3078
 1309TIP3   OH225561   1.003   2.526   7.651 -0.4416  0.6693  0.0463
 1309TIP3    H125562   1.071   2.480   7.602 -0.6748 -0.4017  0.6703
 1309TIP3    H225563   1.038   2.614   7.665  0.0269  0.6959 -1.1899
 1310TIP3   OH225564   0.941   0.578   7.574 -0.7015 -0.1644  0.1304
 1310TIP3    H125565   0.881   0.631   7.626  1.8275  1.8179  1.2908
 1310TIP3    H225566   1.008   0.550   7.637  1.1724  0.2765 -1.5538
 1311TIP3   OH225567   1.641   2.171   6.393 -0.2873  0.4439  0.8344
 1311TIP3    H125568   1.677   2.260   6.395 -0.5004  0.5295  0.8950
 1311TIP3    H225569   1.564   2.177   6.337  0.7814 -0.1142 -0.7578
 1312TIP3   OH225570   3.426   1.664   2.429 -0.5690  0.2075 -0.0310
 1312TIP3    H125571   3.416   1.759   2.432  1.8180  0.5137  2.8697
 1312TIP3    H225572   3.499   1.645   2.488 -1.0674 -3.4809 -0.3263
 1313TIP3   OH225573   1.877   0.014   7.608  0.4360 -0.4064  0.8005
 1313TIP3    H125574   1.785  -0.013   7.602  0.3920 -0.3136  1.0468
 1313TIP3    H225575   1.885   0.085   7.544  1.0854 -2.4090 -1.5167
 1314TIP3   OH225576   5.185   2.078   2.332  0.3967  0.6292 -0.3433
 1314TIP3    H125577   5.133   2.032   2.398  0.1142  2.2305  0.6010
 1314TIP3    H225578   5.127   2.085   2.256 -0.3407  1.3065  0.2674
 1315TIP3   OH225579   3.559   1.124   6.806  0.3591 -0.0832 -0.4031
 1315TIP3    H125580   3.521   1.056   6.861 -2.0622  1.8832  0.5691
 1315TIP3    H225581   3.551   1.092   6.717 -0.1227 -1.3240  0.0717
 1316TIP3   OH225582   2.532   4.296   7.619  0.8037  0.2740 -0.5865
 1316TIP3    H125583   2.550   4.390   7.626 -0.7918  0.5662  0.1087
 1316TIP3    H225584   2.607   4.254   7.662  0.9366  1.2919  0.2313
 1317TIP3   OH225585   0.803   3.942   8.079  0.0378 -0.3782  0.8331
 1317TIP3    H125586   0.766   3.971   7.996  1.0875 -0.1882  0.4070
 1317TIP3    H225587   0.730   3.943   8.140 -0.5541  0.3965  0.1392
 1318TIP3   OH225588   0.094   2.275   2.213 -0.3800 -0.0802  0.6482
 1318TIP3    H125589   0.016   2.258   2.266 -0.8864 -0.2856 -0.1294
 1318TIP3    H225590   0.077   2.228   2.131  0.5459 -0.0813  0.4504
 1319TIP3   OH225591   3.162   0.334   2.127  0.2284 -0.0347  0.3578
 1319TIP3    H125592   3.159   0.327   2.032  0.4431  1.0593  0.2540
 1319TIP3    H225593   3.253   0.358   2.146  0.9862 -3.0962  1.0806
 1320TIP3   OH225594   0.889   4.062   7.238  0.3720 -0.3613 -0.1443
 1320TIP3    H125595   0.827   4.043   7.308  0.1890  0.3303 -0.1071
 1320TIP3    H225596   0.917   4.152   7.255 -0.3453  0.1327 -1.4416
 1321TIP3   OH225597   1.036   1.323   6.817 -1.0965  0.2135  0.3558
 1321TIP3    H125598   1.112   1.316   6.761 -1.9428  0.6824 -0.9084
 1321TIP3    H225599   1.068   1.303   6.905  0.7554  1.6876  0.0768
 1322TIP3   OH225600   0.917   3.362   2.608  0.0702 -0.4552 -0.2982
 1322TIP3    H125601   0.982   3.427   2.580 -0.4239  0.1289 -0.1084
 1322TIP3    H225602   0.970   3.290   2.643  0.6437 -0.4485 -1.1106
 1323TIP3   OH225603   5.274   2.916   0.656  0.0439 -0.1381  0.1202
 1323TIP3    H125604   5.222   2.982   0.701  0.9626 -0.8253  2.3391
 1323TIP3    H225605   5.274   2.943   0.564 -2.6249  0.8883  0.3374
 1324TIP3   OH225606   4.211   6.109   1.131 -0.5488  0.0699  0.5992
 1324TIP3    H125607   4.207   6.026   1.084  0.1345  0.6438 -0.4951
 1324TIP3    H225608   4.279   6.095   1.197  0.6401  0.2201 -0.5540
 1325TIP3   OH225609   4.099   5.324   7.293  0.1308  0.2243  0.4589
 1325TIP3    H125610   4.141   5.384   7.354 -1.2976  2.1031 -0.2955
 1325TIP3    H225611   4.064   5.254   7.348 -1.7801  2.2303  2.0225
 1326TIP3   OH225612   4.245   0.545   0.295 -0.5454  0.1717  0.3915
 1326TIP3    H125613   4.161   0.538   0.341 -0.2629  1.3659  1.1177
 1326TIP3    H225614   4.276   0.455   0.289 -1.6162 -0.2335  0.5910
 1327TIP3   OH225615   1.133   4.035   6.445  0.1096  0.6764 -0.5872
 1327TIP3    H125616   1.053   4.033   6.392 -0.7548 -0.9659  0.6921
 1327TIP3    H225617   1.179   3.954   6.422 -0.7568 -0.5870  1.7702
 1328TIP3   OH225618   0.722   4.942   7.126  0.8090 -0.1267  0.4770
 1328TIP3    H125619   0.679   4.948   7.041 -0.5481 -0.2501  1.1291
 1328TIP3    H225620   0.710   4.851   7.153  2.4128 -0.4425  0.2249
 1329TIP3   OH225621   5.365   1.362   7.182 -0.0919 -0.0456  0.3838
 1329TIP3    H125622   5.361   1.440   7.238  1.7782  0.2105  0.2290
 1329TIP3    H225623   5.331   1.391   7.098 -0.4204  0.3042  0.6330
 1330TIP3   OH225624   4.752   1.486   6.430 -0.0497  0.7665 -0.4087
 1330TIP3    H125625   4.764   1.414   6.492 -1.9633  1.6040  1.0240
 1330TIP3    H225626   4.831   1.485   6.377  0.2677 -1.9829 -0.0223
 1331TIP3   OH225627   5.860   4.151   0.631 -0.5813  0.5032  0.0377
 1331TIP3    H125628   5.770   4.183   0.632 -0.0841  2.1760  2.4865
 1331TIP3    H225629   5.911   4.226   0.663  1.3132 -1.2454  1.3118
 1332TIP3   OH225630   5.281   5.968   0.931 -0.3692  1.0314  0.6008
 1332TIP3    H125631   5.344   6.040   0.937  0.7156  0.0858  0.8334
 1332TIP3    H225632   5.200   6.010   0.902  0.0143  2.4705  1.4834
 1333TIP3   OH225633   2.228   1.041   8.036 -0.8468 -0.3113 -0.7369
 1333TIP3    H125634   2.146   0.995   8.019 -1.7831  0.0707  2.2210
 1333TIP3    H225635   2.259   1.004   8.119 -0.1649  2.3455  0.2833
 1334TIP3   OH225636   2.472   1.246   6.973  0.1639 -0.2018 -0.0422
 1334TIP3    H125637   2.514   1.183   6.915  0.7414 -2.3774  2.5405
 1334TIP3    H225638   2.386   1.208   6.992  0.0553  0.3701  0.6707
 1335TIP3   OH225639   6.642   2.627   6.075 -0.1145 -0.6154 -0.1198
 1335TIP3    H125640   6.714   2.563   6.070 -0.9355 -1.5967  0.3537
 1335TIP3    H225641   6.678   2.705   6.034  1.6959 -0.6438  1.2636
 1336TIP3   OH225642   2.877   6.415   1.749  0.5610 -0.0408  0.2763
 1336TIP3    H125643   2.859   6.506   1.724  0.7299  0.0855  0.6083
 1336TIP3    H225644   2.819   6.363   1.694 -0.4016  0.3221  0.9199
 1337TIP3   OH225645   1.118   6.495   0.163  0.0180  0.0609 -0.2677
 1337TIP3    H125646   1.211   6.472   0.170 -0.2932 -1.4528 -0.7798
 1337TIP3    H225647   1.073   6.411   0.157 -1.6360  0.6259  2.4126
 1338TIP3   OH225648   0.808   1.263   6.324  0.6259 -0.1751 -0.1367
 1338TIP3    H125649   0.791   1.170   6.312  1.5596 -0.3758 -0.0191
 1338TIP3    H225650   0.901   1.273   6.305  0.8914  0.4695  1.3325
 1339TIP3   OH225651   6.087   5.753   7.317 -0.3014  0.3953  0.2916
 1339TIP3    H125652   6.047   5.682   7.367  0.3974  0.7571  1.3901
 1339TIP3    H225653   6.048   5.745   7.230  0.1502 -1.6468  0.2324
 1340TIP3   OH225654   0.215   0.361   2.210 -0.4293  0.0811 -0.0547
 1340TIP3    H125655   0.228   0.288   2.271  1.8361  0.8228  0.4724
 1340TIP3    H225656   0.232   0.439   2.263 -1.4159  0.9216 -0.9423
 1341TIP3   OH225657   4.492   4.732   1.074  0.7223  0.0163  0.1363
 1341TIP3    H125658   4.398   4.739   1.056  0.7331  0.7737  0.3562
 1341TIP3    H225659   4.533   4.735   0.988  0.6044  0.7169  0.1020
 1342TIP3   OH225660   5.593   0.964   1.510 -0.1796 -0.3332 -0.6660
 1342TIP3    H125661   5.585   0.989   1.603 -0.3097  1.2279 -1.0680
 1342TIP3    H225662   5.685   0.982   1.488 -0.1753 -0.6037 -0.8752
 1343TIP3   OH225663   6.647   3.053   7.223  0.1509  0.8845  0.1145
 1343TIP3    H125664   6.682   2.990   7.160  0.0035  0.4210  0.4914
 1343TIP3    H225665   6.552   3.053   7.207  0.3069  2.2885 -1.0430
 1344TIP3   OH225666   6.695   2.664   0.301  0.0661 -0.0453 -0.0572
 1344TIP3    H125667   6.677   2.736   0.362 -0.8457  0.3426 -0.7561
 1344TIP3    H225668   6.672   2.585   0.349  1.2983  0.0886  0.8027
 1345TIP3   OH225669   4.054   3.312   2.274  0.0825 -0.3071  0.0602
 1345TIP3    H125670   4.008   3.243   2.323  0.2657  0.5920  1.5702
 1345TIP3    H225671   4.121   3.343   2.334 -0.3291  1.5485 -0.3769
 1346TIP3   OH225672   1.756   0.789   0.129 -0.1319  0.0258 -0.0903
 1346TIP3    H125673   1.752   0.693   0.136 -2.3033 -0.0303 -1.1503
 1346TIP3    H225674   1.753   0.820   0.219  0.3293 -0.9139  0.2567
 1347TIP3   OH225675   0.844   4.670   0.227  0.1744  0.0733 -0.1345
 1347TIP3    H125676   0.836   4.656   0.321  1.7303  1.1812  0.1997
 1347TIP3    H225677   0.862   4.583   0.191 -2.4976 -0.7439  0.2653
 1348TIP3   OH225678   0.143   5.329   0.292 -0.2823  0.0538 -0.1067
 1348TIP3    H125679   0.178   5.316   0.204 -0.5964  1.1749 -0.4104
 1348TIP3    H225680   0.197   5.397   0.330 -0.7063  0.2024  0.2433
 1349TIP3   OH225681   1.051   2.578   1.290 -0.3181  0.6209 -0.3162
 1349TIP3    H125682   1.124   2.622   1.247 -1.9152  2.5052 -1.2640
 1349TIP3    H225683   1.037   2.499   1.238  0.0860  1.0199 -1.0612
 1350TIP3   OH225684   1.682   6.687   8.158 -0.0428 -0.2601 -0.1602
 1350TIP3    H125685   1.649   6.623   8.221 -1.4262  0.0219 -0.5610
 1350TIP3    H225686   1.631   6.766   8.175  0.9894  0.4433 -0.2930
 1351TIP3   OH225687   3.125   6.165   2.043 -0.1461  0.6781  0.1534
 1351TIP3    H125688   3.166   6.225   2.106  0.6764 -0.4400  0.7131
 1351TIP3    H225689   3.034   6.196   2.038 -0.4224  0.4297  2.4104
 1352TIP3   OH225690   2.282   4.381   7.243  0.3416  0.0143  0.0483
 1352TIP3    H125691   2.348   4.367   7.174  0.0242 -0.9485 -0.0752
 1352TIP3    H225692   2.307   4.464   7.283  1.0367  0.1672 -0.6649
 1353TIP3   OH225693   1.906   3.771   8.270  0.2088 -0.4249  0.0793
 1353TIP3    H125694   1.865   3.685   8.281 -0.3569 -0.0305  1.1116
 1353TIP3    H225695   1.840   3.824   8.226 -0.0239 -0.0699  0.8551
 1354TIP3   OH225696   0.340   2.186   7.600 -0.6471  0.5826  0.1212
 1354TIP3    H125697   0.322   2.098   7.569  0.9122 -0.0897  1.0151
 1354TIP3    H225698   0.384   2.174   7.684  0.0067  2.1862  0.0541
 1355TIP3   OH225699   5.714   3.554   1.520 -0.5352  0.4330  0.3146
 1355TIP3    H125700   5.623   3.581   1.515 -0.6957 -0.1294  0.1382
 1355TIP3    H225701   5.764   3.632   1.497 -0.9990  0.4723 -0.5962
 1356TIP3   OH225702   6.031   4.576   1.178 -0.1608 -0.0749  0.2357
 1356TIP3    H125703   5.975   4.637   1.226  0.9455  0.7853  0.4739
 1356TIP3    H225704   5.970   4.519   1.131 -1.2624 -0.3411  1.9154
 1357TIP3   OH225705   2.646   0.515   0.794 -0.4684  0.2339 -0.0226
 1357TIP3    H125706   2.729   0.560   0.776 -0.3060  0.2988  0.8231
 1357TIP3    H225707   2.672   0.434   0.837 -0.8333  0.1664  0.0726
 1358TIP3   OH225708   5.010   1.705   7.362 -0.5858 -0.2775 -0.0567
 1358TIP3    H125709   4.987   1.724   7.452 -2.1029  0.3059 -0.5422
 1358TIP3    H225710   4.937   1.738   7.310 -0.3152 -1.6686 -1.4162
 1359TIP3   OH225711   1.989   5.327   7.863  0.0846  0.5975 -0.1400
 1359TIP3    H125712   2.059   5.318   7.928 -0.2781  1.3727  0.3687
 1359TIP3    H225713   1.977   5.238   7.829 -1.7052 -0.5070  2.9573
 1360TIP3   OH225714   2.379   1.155   0.625  0.4516  0.4653 -0.6034
 1360TIP3    H125715   2.329   1.187   0.700 -0.6838  0.3511 -1.2760
 1360TIP3    H225716   2.417   1.233   0.585 -1.0753  0.8587 -1.3736
 1361TIP3   OH225717   5.440   3.357   8.067 -0.9637  0.7278  0.4721
 1361TIP3    H125718   5.518   3.310   8.094  1.6006  2.5053 -3.0239
 1361TIP3    H225719   5.384   3.290   8.027  1.5885  0.0794 -2.3837
 1362TIP3   OH225720   5.943   0.946   0.057 -0.0041 -0.0485 -0.1738
 1362TIP3    H125721   5.924   0.899   0.137  0.1927  0.5236  0.2152
 1362TIP3    H225722   6.010   1.010   0.081  1.6993 -1.3210 -1.2753
 1363TIP3   OH225723   3.699   5.071   6.361  0.5344  0.1288  0.1532
 1363TIP3    H125724   3.749   5.105   6.287  1.3169  0.4760  0.8270
 1363TIP3    H225725   3.614   5.115   6.355  0.4711 -0.1003 -0.7240
 1364TIP3   OH225726   4.734   2.212   0.060  0.1398 -0.0921  0.0952
 1364TIP3    H125727   4.657   2.237   0.110  0.5235 -1.6092  1.5714
 1364TIP3    H225728   4.805   2.263   0.099  0.3410 -0.8607  0.7855
 1365TIP3   OH225729   1.252   6.147   7.171 -0.0742 -0.1474  0.1482
 1365TIP3    H125730   1.346   6.137   7.180  0.0618  0.4788 -0.4823
 1365TIP3    H225731   1.232   6.113   7.084 -0.6341 -1.4720  0.7614
 1366TIP3   OH225732   0.947   1.260   8.076  0.1170  0.0520 -0.4482
 1366TIP3    H125733   0.895   1.182   8.056  1.9710 -0.9884 -1.4002
 1366TIP3    H225734   0.928   1.278   8.168  0.0912 -1.8821 -0.0406
 1367TIP3   OH225735   5.440   3.163   1.489  0.3830  0.3412 -0.5530
 1367TIP3    H125736   5.490   3.114   1.554 -1.5109  0.6102  1.1841
 1367TIP3    H225737   5.491   3.242   1.474  2.0938 -0.8471 -1.3358
 1368TIP3   OH225738   3.708   0.810   6.985 -0.1076 -0.3598  0.0464
 1368TIP3    H125739   3.645   0.857   7.039 -0.1450  0.2817 -0.5333
 1368TIP3    H225740   3.790   0.858   6.996 -0.2649  0.1741 -0.9441
 1369TIP3   OH225741   6.923   6.268   7.652 -0.1709 -0.4011  0.1443
 1369TIP3    H125742   6.959   6.350   7.616  0.8867 -0.4077  1.1246
 1369TIP3    H225743   6.970   6.199   7.605  0.0243 -0.4306  0.3847
 1370TIP3   OH225744   6.030   2.704   0.301  0.3705  0.8063 -0.8853
 1370TIP3    H125745   6.001   2.788   0.266  0.8154  1.5650  0.4953
 1370TIP3    H225746   6.039   2.719   0.395 -2.9254 -1.7109  0.0458
 1371TIP3   OH225747   4.979   4.596   7.467  0.0213  0.4590  0.1969
 1371TIP3    H125748   4.898   4.546   7.469 -0.2694  0.8344 -1.1002
 1371TIP3    H225749   5.041   4.538   7.422 -0.4503  1.3975 -1.7581
 1372TIP3   OH225750   2.868   3.075   7.932 -0.5427  0.5982  0.1754
 1372TIP3    H125751   2.833   3.038   8.012 -0.0722  0.1243  0.1673
 1372TIP3    H225752   2.792   3.084   7.874 -0.7743  0.3293  0.4364
 1373TIP3   OH225753   1.648   1.873   7.124  0.2525 -0.0043 -0.1075
 1373TIP3    H125754   1.701   1.808   7.078  0.1288 -1.4448  1.6356
 1373TIP3    H225755   1.559   1.840   7.117 -0.1098  1.1310 -0.9977
 1374TIP3   OH225756   6.746   1.388   8.277 -0.1794 -0.0534 -0.6922
 1374TIP3    H125757   6.767   1.319   8.340 -0.4304  0.8336  0.4013
 1374TIP3    H225758   6.662   1.362   8.241  0.0880 -0.7086 -0.8680
 1375TIP3   OH225759   1.143   0.711   1.015 -0.1213  0.1735 -0.4614
 1375TIP3    H125760   1.142   0.806   1.003 -1.1256  0.3971  1.2165
 1375TIP3    H225761   1.117   0.697   1.106  0.3354 -1.7065 -0.5708
 1376TIP3   OH225762   6.546   3.994   0.150 -0.4525 -0.3377  0.1785
 1376TIP3    H125763   6.540   3.901   0.129 -0.6482 -0.6178  1.3915
 1376TIP3    H225764   6.535   3.998   0.245  1.1828  0.7826  0.3552
 1377TIP3   OH225765   6.890   2.478   7.005 -0.5658 -0.3177  0.0384
 1377TIP3    H125766   6.970   2.472   7.058 -0.7534  0.5360  0.4352
 1377TIP3    H225767   6.874   2.572   6.997 -0.4969 -0.4089 -1.6146
 1378TIP3   OH225768   3.084   3.314   0.697 -0.0354 -0.2370  0.0368
 1378TIP3    H125769   3.054   3.390   0.748  0.2323 -1.1805  1.6820
 1378TIP3    H225770   3.089   3.345   0.607 -2.8273  0.8845  0.1705
 1379TIP3   OH225771   1.738   3.341   0.630  0.2483  0.1846 -0.5680
 1379TIP3    H125772   1.645   3.358   0.615  0.1472 -0.2890 -0.4847
 1379TIP3    H225773   1.740   3.282   0.706  0.5472 -0.8832 -1.3877
 1380TIP3   OH225774   2.877   5.369   0.818  0.3957  0.9198  0.0988
 1380TIP3    H125775   2.926   5.288   0.829  1.0075  1.1416 -0.8860
 1380TIP3    H225776   2.878   5.385   0.723  0.9102  2.4510  0.3423
 1381TIP3   OH225777   4.624   2.285   7.959 -0.7171 -0.8879 -0.1645
 1381TIP3    H125778   4.570   2.360   7.982 -2.6676 -1.9637 -0.9715
 1381TIP3    H225779   4.586   2.213   8.010 -0.4740 -1.8069 -1.2624
 1382TIP3   OH225780   2.059   4.247   7.020  0.4438  0.0255  0.0218
 1382TIP3    H125781   1.994   4.266   6.953 -0.0817 -1.3032  0.1199
 1382TIP3    H225782   2.121   4.187   6.978  0.7465  0.0877  0.3735
 1383TIP3   OH225783   2.106   0.129   1.993 -0.4027 -0.6629  0.6249
 1383TIP3    H125784   2.031   0.108   1.938  0.3036 -0.2836 -0.5096
 1383TIP3    H225785   2.107   0.061   2.060 -0.8024 -1.6015 -0.3133
 1384TIP3   OH225786   0.690   3.715   6.172 -0.6997  0.2075  0.0242
 1384TIP3    H125787   0.688   3.698   6.266 -0.1668 -1.0827 -0.1790
 1384TIP3    H225788   0.774   3.679   6.143 -0.0520  2.1218 -0.6810
 1385TIP3   OH225789   4.026   1.010   8.468 -0.2310 -0.5846 -0.3048
 1385TIP3    H125790   4.097   0.969   8.517 -0.2448 -0.2893 -0.0381
 1385TIP3    H225791   3.979   0.937   8.427  1.0610 -0.7238 -1.6356
 1386TIP3   OH225792   6.801   5.850   7.361  0.4230  0.1378  0.1077
 1386TIP3    H125793   6.728   5.824   7.417  0.1769  0.9621  0.1762
 1386TIP3    H225794   6.879   5.834   7.415  0.2667 -0.2884  0.2084
 1387TIP3   OH225795   2.756   3.451   7.999 -0.5338  0.3688  0.2796
 1387TIP3    H125796   2.840   3.493   8.013 -0.5505  1.4491 -2.2006
 1387TIP3    H225797   2.692   3.510   8.040 -0.2257  0.6141  0.4115
 1388TIP3   OH225798   0.713   1.917   1.186  0.8612  0.2156 -0.2875
 1388TIP3    H125799   0.677   1.836   1.222  0.9017  0.6727  0.8183
 1388TIP3    H225800   0.638   1.959   1.143  0.5306  0.2064  0.2668
 1389TIP3   OH225801   3.606   1.086   7.831 -0.3213 -0.1335  0.0939
 1389TIP3    H125802   3.630   1.175   7.806  0.6662 -0.3734  0.1625
 1389TIP3    H225803   3.687   1.037   7.827 -1.1704 -1.4712 -1.7102
 1390TIP3   OH225804   4.751   5.662   0.917 -0.4656 -0.2502 -0.1506
 1390TIP3    H125805   4.831   5.657   0.970  0.3167 -0.2442 -1.3068
 1390TIP3    H225806   4.723   5.571   0.907 -0.6439 -0.2494  0.2801
 1391TIP3   OH225807   4.886   0.148   7.182  0.5815  0.6706 -0.0607
 1391TIP3    H125808   4.875   0.135   7.276  0.7031  1.5580  0.0843
 1391TIP3    H225809   4.874   0.242   7.169 -1.2950  0.3334 -1.1982
 1392TIP3   OH225810   3.356   4.107   7.490  0.3379  0.2578  0.2141
 1392TIP3    H125811   3.270   4.113   7.449  0.3157  0.2928  0.2641
 1392TIP3    H225812   3.410   4.169   7.442  0.6169 -0.5279 -0.5015
 1393TIP3   OH225813   0.877   1.550   6.317  0.7751  0.5950 -0.0468
 1393TIP3    H125814   0.827   1.471   6.296  0.1155  0.6878  1.1131
 1393TIP3    H225815   0.869   1.605   6.239 -0.5352  0.4090 -0.0643
 1394TIP3   OH225816   6.067   2.861   7.734 -0.5495 -0.5055 -0.4310
 1394TIP3    H125817   6.080   2.768   7.718 -0.7370 -0.6629  0.3277
 1394TIP3    H225818   5.976   2.868   7.762 -0.4337 -0.1336 -0.1467
 1395TIP3   OH225819   2.008   0.322   6.741 -0.7808  0.2208  0.2659
 1395TIP3    H125820   1.921   0.362   6.748 -0.7586  0.3396 -0.1461
 1395TIP3    H225821   2.023   0.312   6.647 -0.3275  0.2482  0.3336
 1396TIP3   OH225822   5.119   6.852   7.999  0.1589  0.2122  0.1500
 1396TIP3    H125823   5.066   6.774   7.980  0.1841  0.4887 -1.1888
 1396TIP3    H225824   5.149   6.839   8.089  0.4570 -1.5000 -0.1592
 1397TIP3   OH225825   4.067   1.761   2.174  0.0286  0.4195  0.7562
 1397TIP3    H125826   4.001   1.700   2.142  0.9355 -0.8234  1.1892
 1397TIP3    H225827   4.041   1.779   2.264 -1.2780  2.1772  0.0803
 1398TIP3   OH225828   3.871   3.389   7.639 -0.6884 -0.3019 -0.2343
 1398TIP3    H125829   3.866   3.297   7.613 -0.5120 -0.6021  0.7789
 1398TIP3    H225830   3.780   3.413   7.659 -0.7371 -0.2499 -0.5179
 1399TIP3   OH225831   2.207   3.025   6.953  0.8007  0.1234 -0.3472
 1399TIP3    H125832   2.147   2.958   6.918  0.4850  0.0272  0.3702
 1399TIP3    H225833   2.225   3.081   6.878 -0.0373  0.0431 -0.6270
 1400TIP3   OH225834   1.778   1.708   6.949 -0.0379 -0.0294  0.3263
 1400TIP3    H125835   1.855   1.758   6.923 -0.3571  1.1504  1.5149
 1400TIP3    H225836   1.782   1.628   6.896  0.7139  1.0523 -1.3312
 1401TIP3   OH225837   3.911   6.655   7.584 -0.5189 -0.5297 -0.1421
 1401TIP3    H125838   3.999   6.693   7.588  0.3052 -2.3039 -0.5382
 1401TIP3    H225839   3.871   6.696   7.507  0.0331  0.1188 -0.0936
 1402TIP3   OH225840   1.722   2.921   0.972 -0.2681  0.5042 -0.7754
 1402TIP3    H125841   1.765   2.839   0.996 -3.1378 -0.9649 -0.1641
 1402TIP3    H225842   1.724   2.922   0.876  0.0511 -0.1412 -0.7809
 1403TIP3   OH225843   5.410   0.831   0.162 -0.1213  0.1990  0.1368
 1403TIP3    H125844   5.435   0.922   0.145  1.7184 -0.2344  0.3687
 1403TIP3    H225845   5.484   0.779   0.131 -0.6212 -1.1460  1.1009
 1404TIP3   OH225846   0.061   3.887   7.410 -0.3207 -0.2623  0.0613
 1404TIP3    H125847   0.041   3.954   7.344  0.9255 -0.6530 -0.7448
 1404TIP3    H225848  -0.022   3.841   7.423 -1.3443  1.7277  1.0220
 1405TIP3   OH225849   3.310   6.504   0.962 -0.0594  0.0819  0.4009
 1405TIP3    H125850   3.319   6.540   0.874  0.2031  1.0772  0.8129
 1405TIP3    H225851   3.289   6.412   0.949 -0.1596  0.2477 -0.7004
 1406TIP3   OH225852   3.554   6.783   0.371  0.8493 -0.6917  0.6912
 1406TIP3    H125853   3.584   6.870   0.399 -0.8873 -0.1574  1.0393
 1406TIP3    H225854   3.465   6.777   0.404 -0.0311 -1.5113 -1.6192
 1407TIP3   OH225855   2.169   3.020   7.236 -0.4327 -0.2317 -0.3808
 1407TIP3    H125856   2.083   3.044   7.270  0.0205  0.8858  0.0236
 1407TIP3    H225857   2.161   3.026   7.141 -0.7517  0.0413 -0.3366
 1408TIP3   OH225858   1.531   6.145   0.460  0.1713 -0.2188  0.0752
 1408TIP3    H125859   1.491   6.231   0.469  0.7997  0.0315  0.4977
 1408TIP3    H225860   1.505   6.116   0.372 -0.7475  0.0254  0.2548
 1409TIP3   OH225861   0.597   6.814   1.038 -0.3564  0.4386  0.9864
 1409TIP3    H125862   0.654   6.768   0.977  1.0629  2.8475  0.3840
 1409TIP3    H225863   0.628   6.787   1.125 -1.9020 -2.4211  0.7742
 1410TIP3   OH225864   0.791   5.854   6.187 -0.0868  0.0545 -0.1596
 1410TIP3    H125865   0.845   5.898   6.121 -1.3194 -0.3639 -1.5094
 1410TIP3    H225866   0.852   5.833   6.258  1.0897  1.3693 -0.7392
 1411TIP3   OH225867   1.125   4.556   0.598 -0.4139 -0.5987 -0.1335
 1411TIP3    H125868   1.180   4.634   0.601 -2.4039  0.8590  0.2355
 1411TIP3    H225869   1.103   4.538   0.689 -1.3631 -0.5591 -0.3497
 1412TIP3   OH225870   3.954   0.725   0.230  0.0025  0.2594  0.0867
 1412TIP3    H125871   4.047   0.742   0.216 -0.2637  3.1024  1.2068
 1412TIP3    H225872   3.938   0.751   0.321 -1.8983 -0.2063 -0.0739
 1413TIP3   OH225873   2.392   0.724   1.737 -0.2390 -0.2891 -0.1830
 1413TIP3    H125874   2.447   0.801   1.752 -1.8141  0.5284  1.9422
 1413TIP3    H225875   2.443   0.668   1.679  2.4642  0.7547  1.0629
 1414TIP3   OH225876   4.305   2.739   2.742 -0.1894  0.0060  0.3749
 1414TIP3    H125877   4.361   2.664   2.721  0.4535  0.4188  0.5750
 1414TIP3    H225878   4.262   2.714   2.824  0.3077 -0.0008  0.6401
 1415TIP3   OH225879   2.151   3.895   8.006 -0.2367  0.4822  0.2936
 1415TIP3    H125880   2.159   3.945   8.087  1.8713 -0.4598  0.7631
 1415TIP3    H225881   2.082   3.939   7.957 -0.8573  1.7138  2.1377
 1416TIP3   OH225882   4.211   5.833   1.887  0.2712  0.1635  0.6261
 1416TIP3    H125883   4.258   5.803   1.964  1.1177  0.4398  0.2261
 1416TIP3    H225884   4.118   5.822   1.909  0.5192 -0.2487  1.4731
 1417TIP3   OH225885   2.650   1.564   7.686  1.3914  0.3719 -0.0789
 1417TIP3    H125886   2.563   1.543   7.722  0.5948  1.0707 -1.5134
 1417TIP3    H225887   2.666   1.653   7.715  1.0822  0.6685 -0.7978
 1418TIP3   OH225888   2.154   1.772   1.287  0.4583  0.0575 -0.6307
 1418TIP3    H125889   2.063   1.759   1.313  0.8662 -1.0267  0.3033
 1418TIP3    H225890   2.196   1.809   1.365  1.0062 -0.2714 -0.7658
 1419TIP3   OH225891   4.417   3.947   7.354  0.1575 -0.1115 -0.3102
 1419TIP3    H125892   4.421   3.883   7.284  0.3783 -0.0443 -0.3572
 1419TIP3    H225893   4.431   4.032   7.311  0.6183 -0.1002 -0.1381
 1420TIP3   OH225894   2.427   5.148   0.900  0.1210 -0.1369 -0.1368
 1420TIP3    H125895   2.425   5.076   0.837 -0.1249  0.2937 -0.6326
 1420TIP3    H225896   2.353   5.204   0.874  0.7092  0.6429 -0.1846
 1421TIP3   OH225897   1.400   0.724   7.165 -0.6414  0.1495  0.2318
 1421TIP3    H125898   1.493   0.701   7.164 -1.1798 -2.3338 -0.3837
 1421TIP3    H225899   1.395   0.805   7.216  1.9262  0.8063 -0.4408
 1422TIP3   OH225900   1.661   0.089   0.866  0.4132 -0.0797 -1.1339
 1422TIP3    H125901   1.655   0.057   0.776 -0.1137  0.2471 -1.2171
 1422TIP3    H225902   1.610   0.026   0.917  0.4618 -0.0998 -1.1107
 1423TIP3   OH225903   6.366   5.262   7.178 -0.3375  0.4961 -0.1563
 1423TIP3    H125904   6.411   5.242   7.096  0.1498 -0.6645  0.3711
 1423TIP3    H225905   6.432   5.248   7.246 -0.9661  0.6246  0.4966
 1424TIP3   OH225906   4.542   5.434   7.101  0.4525 -0.2492  0.0894
 1424TIP3    H125907   4.604   5.363   7.083  2.3537  1.3613 -0.1466
 1424TIP3    H225908   4.541   5.485   7.019  0.1372  0.6991  0.6740
 1425TIP3   OH225909   6.495   5.876   1.617  0.5402  0.1516  0.1006
 1425TIP3    H125910   6.500   5.901   1.710 -0.8496  0.7513  0.0415
 1425TIP3    H225911   6.547   5.942   1.572  0.6273  0.2834  0.3905
 1426TIP3   OH225912   0.659   2.675   1.246 -0.2206 -0.4320 -0.0852
 1426TIP3    H125913   0.678   2.582   1.258  2.1954  0.1222  1.1429
 1426TIP3    H225914   0.686   2.693   1.156  1.2020 -0.5656  0.2883
 1427TIP3   OH225915   1.690   5.196   7.431  0.0528  0.3923 -0.2557
 1427TIP3    H125916   1.617   5.172   7.375 -1.5306  2.2539  0.8592
 1427TIP3    H225917   1.744   5.254   7.377 -0.0922  0.1925 -0.6171
 1428TIP3   OH225918   3.296   6.548   2.389 -0.4081 -0.3552 -0.2621
 1428TIP3    H125919   3.338   6.463   2.403 -1.2662 -0.8605 -0.7204
 1428TIP3    H225920   3.222   6.549   2.450 -1.6089 -0.7978 -1.6503
 1429TIP3   OH225921   0.852   2.981   6.472  0.8351  0.2232  0.0849
 1429TIP3    H125922   0.854   2.932   6.389 -0.5871  0.8864 -0.3649
 1429TIP3    H225923   0.937   2.963   6.512  1.1778 -0.8816 -1.0698
 1430TIP3   OH225924   4.523   4.045   6.598  0.3426 -0.3154 -0.6295
 1430TIP3    H125925   4.567   4.068   6.681  0.8854  3.5955 -1.7996
 1430TIP3    H225926   4.594   4.018   6.541  0.2866 -0.7444 -0.4960
 1431TIP3   OH225927   4.401   1.250   6.542 -0.1890 -0.0334 -0.2155
 1431TIP3    H125928   4.335   1.186   6.570 -0.3573 -0.5151 -1.6205
 1431TIP3    H225929   4.362   1.335   6.562 -2.0255 -0.2349 -2.4484
 1432TIP3   OH225930   2.959   6.722   7.479 -0.4541  0.2018 -0.1024
 1432TIP3    H125931   2.986   6.657   7.544 -1.2099  0.2028  0.2367
 1432TIP3    H225932   3.039   6.769   7.457 -0.1756  0.2025  0.8384
 1433TIP3   OH225933   5.605   0.367   7.776 -0.1809 -0.4330  0.0659
 1433TIP3    H125934   5.530   0.363   7.835 -0.5207 -0.3247 -0.3640
 1433TIP3    H225935   5.607   0.282   7.733  0.8093 -0.9824  1.1385
 1434TIP3   OH225936   4.356   3.054   7.332 -0.5579  0.0786 -1.1473
 1434TIP3    H125937   4.298   3.092   7.398 -1.0511 -0.0426 -1.5037
 1434TIP3    H225938   4.346   3.111   7.256  1.8939  1.7030 -0.3601
 1435TIP3   OH225939   2.046   0.872   6.549 -0.1878 -0.2317 -0.4889
 1435TIP3    H125940   2.119   0.927   6.578 -0.5443  0.7591 -1.4240
 1435TIP3    H225941   2.087   0.788   6.529  0.3555 -0.3456  0.9915
 1436TIP3   OH225942   0.125   5.111   0.602  0.1600 -0.1913 -0.5503
 1436TIP3    H125943   0.054   5.173   0.620  0.8711  0.8840 -1.3064
 1436TIP3    H225944   0.205   5.162   0.615  0.8445 -1.6086  1.1144
 1437TIP3   OH225945   2.275   3.629   1.540 -0.0141  0.4601 -0.2906
 1437TIP3    H125946   2.229   3.564   1.486 -0.5446 -1.2004  2.0010
 1437TIP3    H225947   2.365   3.597   1.543 -0.1461  0.1387  0.3635
 1438TIP3   OH225948   1.421   6.748   6.764  0.6860 -0.3347 -0.4277
 1438TIP3    H125949   1.340   6.757   6.814  0.5304  1.5448 -0.9703
 1438TIP3    H225950   1.489   6.781   6.823  0.8160 -0.2703 -0.6154
 1439TIP3   OH225951   5.063   3.516   0.824  0.2407 -0.2436 -0.0512
 1439TIP3    H125952   5.023   3.538   0.740  0.5028 -1.1678 -0.4334
 1439TIP3    H225953   5.087   3.424   0.816  0.7270 -0.2139  0.8585
 1440TIP3   OH225954   1.094   0.838   0.060 -0.0983  0.2278 -0.3131
 1440TIP3    H125955   1.180   0.816   0.024  0.7292  1.1297  0.9862
 1440TIP3    H225956   1.114   0.885   0.141 -1.8468 -0.6605  0.6951
 1441TIP3   OH225957   2.585   3.209   7.942  0.2607 -0.2152 -0.1278
 1441TIP3    H125958   2.633   3.277   7.988 -1.3283 -0.4507  2.0332
 1441TIP3    H225959   2.524   3.256   7.886 -0.0144  0.1253  0.4539
 1442TIP3   OH225960   0.136   2.676   7.114  0.0553  0.4094 -0.1408
 1442TIP3    H125961   0.209   2.634   7.160 -1.2120 -0.1535  1.4471
 1442TIP3    H225962   0.146   2.769   7.133 -0.1916  0.2289  0.9402
 1443TIP3   OH225963   0.562   3.487   1.841  0.6853 -0.1268  0.2547
 1443TIP3    H125964   0.519   3.560   1.797  2.4643  0.0498 -1.3133
 1443TIP3    H225965   0.497   3.455   1.904 -0.1599  2.7796  0.9979
 1444TIP3   OH225966   2.601   2.884   1.015  0.2094 -0.3604 -0.7413
 1444TIP3    H125967   2.545   2.806   1.014  0.9372 -0.9773  1.3163
 1444TIP3    H225968   2.690   2.849   1.004  0.4665  0.2978 -0.7793
 1445TIP3   OH225969   1.932   1.773   1.445 -0.5196  0.3125 -0.2954
 1445TIP3    H125970   1.948   1.769   1.539 -0.4790  0.4033 -0.2984
 1445TIP3    H225971   1.845   1.734   1.433 -0.1711 -0.4776 -0.3124
 1446TIP3   OH225972   6.678   3.699   8.527 -0.2775  0.0879  0.3972
 1446TIP3    H125973   6.716   3.625   8.481  1.2510  1.2144 -0.2056
 1446TIP3    H225974   6.594   3.715   8.483 -0.8339 -1.5018  0.8109
 1447TIP3   OH225975   4.516   0.289   6.677 -0.4000  0.2399 -0.2729
 1447TIP3    H125976   4.524   0.288   6.581  0.0645  1.3993 -0.2561
 1447TIP3    H225977   4.605   0.281   6.709 -0.4291  1.1452  0.0483
 1448TIP3   OH225978   5.299   0.519   1.443 -0.0335 -0.1241 -0.1204
 1448TIP3    H125979   5.291   0.538   1.350 -1.9331 -3.5049 -0.8331
 1448TIP3    H225980   5.381   0.470   1.451  0.2090  0.3021  0.0252
 1449TIP3   OH225981   2.362   4.470   0.217 -0.5090 -0.1168  0.0815
 1449TIP3    H125982   2.421   4.401   0.250  0.8744  0.0690 -1.8473
 1449TIP3    H225983   2.404   4.552   0.244  0.8984  0.0522 -2.3802
 1450TIP3   OH225984   2.570   1.322   0.486  0.6193  0.6875 -0.0852
 1450TIP3    H125985   2.624   1.245   0.472  0.5688  0.9522 -2.0161
 1450TIP3    H225986   2.618   1.394   0.444  0.4402  1.6374  1.2520
 1451TIP3   OH225987   1.368   6.246   0.961 -0.0368  0.8248  0.4454
 1451TIP3    H125988   1.293   6.206   0.916  0.0540  1.0890  0.0532
 1451TIP3    H225989   1.428   6.270   0.890  0.4203  0.6143  0.7566
 1452TIP3   OH225990   5.708   4.453   2.313  0.2214  0.0061 -0.3945
 1452TIP3    H125991   5.765   4.529   2.300 -0.3901  0.6590  0.6854
 1452TIP3    H225992   5.762   4.379   2.284  0.8460  0.8245 -1.4054
 1453TIP3   OH225993   3.111   5.494   1.636  0.5607  0.2537 -0.1728
 1453TIP3    H125994   3.025   5.498   1.678 -0.2967  0.7489 -1.9113
 1453TIP3    H225995   3.105   5.555   1.562  2.7191  0.9975  0.1930
 1454TIP3   OH225996   3.911   1.773   0.982 -0.4170 -0.4227  0.2885
 1454TIP3    H125997   3.869   1.699   1.027 -0.5231 -0.9281 -0.6279
 1454TIP3    H225998   3.962   1.733   0.912 -0.6206  0.3903 -0.3366
 1455TIP3   OH225999   2.181   6.673   1.414  0.3088  0.2903 -0.3106
 1455TIP3    H126000   2.094   6.698   1.443  0.1190 -0.9032  0.1756
 1455TIP3    H226001   2.176   6.579   1.397  1.5917  0.1205  0.0852
 1456TIP3   OH226002   6.595   1.978   7.968  0.1756 -0.6890  0.0902
 1456TIP3    H126003   6.582   2.039   8.040  1.4586 -0.0462 -0.1945
 1456TIP3    H226004   6.568   2.027   7.890  0.3216 -0.8103 -0.0381
 1457TIP3   OH226005   2.123   4.995   1.007 -0.0992 -0.0593  0.0162
 1457TIP3    H126006   2.071   5.073   1.025  1.5078  0.9375  0.5382
 1457TIP3    H226007   2.061   4.922   1.015 -1.8357  1.1811 -1.3354
 1458TIP3   OH226008   5.520   3.200   8.387 -0.3783  0.0427 -0.2399
 1458TIP3    H126009   5.534   3.156   8.471 -2.3056 -0.5307 -0.1701
 1458TIP3    H226010   5.581   3.274   8.388 -0.8780  0.5065  2.0227
 1459TIP3   OH226011   5.040   2.168   7.659  0.2606 -0.2028  0.7818
 1459TIP3    H126012   4.986   2.099   7.699  0.4254 -0.6680  0.2103
 1459TIP3    H226013   4.977   2.235   7.632 -0.1287 -1.0333 -0.4814
 1460TIP3   OH226014   5.740   5.077   7.487 -0.2736  0.2214 -0.2996
 1460TIP3    H126015   5.723   5.142   7.419 -0.4384  0.8004  0.2860
 1460TIP3    H226016   5.656   5.031   7.496 -0.1680 -0.0584 -0.6867
 1461TIP3   OH226017   3.804   1.233   0.858 -0.3231 -0.5728  0.1814
 1461TIP3    H126018   3.868   1.246   0.927  0.1639 -1.1760 -0.1485
 1461TIP3    H226019   3.725   1.276   0.890  0.1222 -0.1761  0.7682
 1462TIP3   OH226020   4.989   4.279   1.653 -0.3132 -0.7160  0.0536
 1462TIP3    H126021   5.022   4.284   1.743 -1.8132  2.4439  0.5562
 1462TIP3    H226022   5.068   4.276   1.599  0.7211  0.6807  1.3925
 1463TIP3   OH226023   2.932   0.195   7.917 -0.3060 -0.3192  0.4718
 1463TIP3    H126024   2.918   0.167   8.008 -1.4386 -1.9836 -0.1717
 1463TIP3    H226025   3.024   0.174   7.900  0.1951  0.9133  1.5078
 1464TIP3   OH226026   3.571   3.138   7.519 -0.2935 -0.4668 -0.3952
 1464TIP3    H126027   3.647   3.087   7.546 -0.2642 -0.2188 -0.0013
 1464TIP3    H226028   3.589   3.162   7.428  1.0113  1.2077  0.2626
 1465TIP3   OH226029   2.120   5.664   7.973  0.3435 -0.0838  0.5715
 1465TIP3    H126030   2.128   5.726   7.901 -0.1886 -1.2316 -0.4981
 1465TIP3    H226031   2.206   5.667   8.016 -0.1143  2.4549  1.4889
 1466TIP3   OH226032   5.713   0.943   1.000 -0.0330 -0.7583  0.1809
 1466TIP3    H126033   5.691   0.987   0.918 -0.0759 -1.1464 -0.0179
 1466TIP3    H226034   5.737   1.014   1.060 -0.0665 -0.4689 -0.1468
 1467TIP3   OH226035   4.346   4.761   7.871  0.1541 -0.5874  0.5655
 1467TIP3    H126036   4.425   4.787   7.823  2.1212 -1.3125  3.1235
 1467TIP3    H226037   4.356   4.667   7.883 -2.4569 -1.1637 -1.1871
 1468TIP3   OH226038   2.752   1.507   0.369 -0.7025  0.1721  0.0955
 1468TIP3    H126039   2.823   1.532   0.310 -0.5137 -2.0785 -0.7459
 1468TIP3    H226040   2.793   1.498   0.454 -0.1726 -0.1750 -0.1945
 1469TIP3   OH226041   0.171   2.767   7.510  0.4611  0.2335 -0.4498
 1469TIP3    H126042   0.203   2.679   7.491  2.0255  1.0358 -1.8095
 1469TIP3    H226043   0.237   2.825   7.472 -0.1065  2.0119  1.1211
 1470TIP3   OH226044   0.509   4.043   1.179 -0.7875  0.5186  0.2591
 1470TIP3    H126045   0.525   3.954   1.148  0.8743  0.6137  0.7671
 1470TIP3    H226046   0.413   4.051   1.180 -0.9707 -1.2591  0.2320
 1471TIP3   OH226047   5.755   2.462   1.887 -0.3917  0.1473 -0.1883
 1471TIP3    H126048   5.671   2.490   1.922  0.2014 -1.0822  2.5768
 1471TIP3    H226049   5.817   2.530   1.915 -0.3751  0.8821 -1.9226
 1472TIP3   OH226050   6.782   1.257   0.176  0.5543 -0.0258 -0.1522
 1472TIP3    H126051   6.822   1.309   0.107 -0.1899 -0.0033 -0.5766
 1472TIP3    H226052   6.774   1.318   0.250  0.6538  0.1621 -0.2945
 1473TIP3   OH226053   0.615   4.387   6.648 -0.0424 -0.2503 -0.1096
 1473TIP3    H126054   0.526   4.356   6.633  0.1669 -0.2927 -1.4020
 1473TIP3    H226055   0.641   4.427   6.565  1.2949 -0.6252  0.1002
 1474TIP3   OH226056   0.711   1.920   0.262  0.3812  0.5914  0.4286
 1474TIP3    H126057   0.771   1.932   0.188 -0.0449 -1.0328 -0.2181
 1474TIP3    H226058   0.758   1.861   0.321  0.3480  1.1747  1.0591
 1475TIP3   OH226059   2.029   3.263   0.952  0.1859  0.0281  0.0134
 1475TIP3    H126060   2.025   3.328   1.022 -0.7294  0.1423 -0.1346
 1475TIP3    H226061   1.937   3.242   0.933  0.4325 -0.2388 -0.9299
 1476TIP3   OH226062   6.771   4.424   0.410 -0.0033 -0.6254 -0.0064
 1476TIP3    H126063   6.685   4.411   0.370  0.3270 -0.2518 -0.8651
 1476TIP3    H226064   6.797   4.337   0.439 -0.3261 -0.8813 -0.4706
 1477TIP3   OH226065   4.720   0.436   8.432 -0.0036 -0.2333  0.2935
 1477TIP3    H126066   4.785   0.379   8.391 -0.2966  0.5889 -1.4266
 1477TIP3    H226067   4.663   0.377   8.480  1.8472 -0.9952  1.6588
 1478TIP3   OH226068   4.235   1.460   6.980  0.6668 -0.0174 -0.2955
 1478TIP3    H126069   4.256   1.543   7.025  0.6008  0.3823 -0.9950
 1478TIP3    H226070   4.250   1.478   6.888 -0.2172 -0.5245 -0.5501
 1479TIP3   OH226071   2.701   4.619   7.000  0.0894 -0.2671  0.4596
 1479TIP3    H126072   2.666   4.613   6.911  0.5871  1.7607  0.0818
 1479TIP3    H226073   2.748   4.536   7.013  0.2095 -0.4971 -1.2380
 1480TIP3   OH226074   1.310   4.189   6.739 -0.3606  0.2103  0.3805
 1480TIP3    H126075   1.359   4.262   6.775 -0.1008  0.0785  0.2965
 1480TIP3    H226076   1.218   4.216   6.745 -0.4185 -0.2435  2.1422
 1481TIP3   OH226077   5.612   3.803   1.052 -0.6065 -0.0901 -0.0343
 1481TIP3    H126078   5.599   3.711   1.073 -0.6625  0.0044  0.3659
 1481TIP3    H226079   5.698   3.807   1.009 -1.4629 -0.5931 -1.8628
 1482TIP3   OH226080   4.459   2.895   1.298 -0.6508 -0.0533  0.4520
 1482TIP3    H126081   4.527   2.961   1.309  0.0236 -0.7557  0.5146
 1482TIP3    H226082   4.479   2.828   1.363 -0.2526 -1.2272 -0.8427
 1483TIP3   OH226083   0.142   3.178   1.190 -0.1527 -0.2017 -0.5863
 1483TIP3    H126084   0.145   3.162   1.096 -1.6578  0.4846 -0.7863
 1483TIP3    H226085   0.213   3.239   1.207 -0.2678  0.1674 -1.3908
 1484TIP3   OH226086   3.818   0.015   6.905  0.1544 -0.4723  0.1073
 1484TIP3    H126087   3.910   0.027   6.927 -0.3252 -0.4871  2.2837
 1484TIP3    H226088   3.781  -0.031   6.980 -2.3307  2.4847  0.9019
 1485TIP3   OH226089   2.166   0.677   1.387  0.8665 -0.2916  0.1143
 1485TIP3    H126090   2.193   0.646   1.474 -0.4402 -0.7559  0.3868
 1485TIP3    H226091   2.088   0.625   1.367 -0.7669  1.9933  0.0878
 1486TIP3   OH226092   5.081   2.376   7.846  0.2985 -0.0710 -0.0451
 1486TIP3    H126093   5.174   2.385   7.828  0.8113 -1.4594  1.6549
 1486TIP3    H226094   5.055   2.296   7.799  0.6483 -1.2566  1.6975
 1487TIP3   OH226095   2.474   1.007   0.342  0.2031 -0.3233  0.2910
 1487TIP3    H126096   2.566   1.034   0.345  0.2140 -0.0090 -1.6398
 1487TIP3    H226097   2.454   1.002   0.249 -2.0034  0.4476  0.6832
 1488TIP3   OH226098   1.739   1.695   2.359 -0.3012  0.4226  0.0875
 1488TIP3    H126099   1.689   1.671   2.281  1.7475  0.6181 -1.3724
 1488TIP3    H226100   1.708   1.783   2.380  0.1239  0.9744 -1.4313
 1489TIP3   OH226101   2.973   6.625   0.326 -0.2464 -0.1697 -0.0392
 1489TIP3    H126102   3.060   6.658   0.347 -0.0482  0.7484 -2.0832
 1489TIP3    H226103   2.979   6.597   0.235 -2.0166 -0.3347 -0.1385
 1490TIP3   OH226104   1.101   5.675   6.650 -0.1889  0.1996 -0.3216
 1490TIP3    H126105   1.188   5.694   6.616 -0.6882  3.6103 -0.0525
 1490TIP3    H226106   1.050   5.650   6.572 -0.0799  2.9832 -1.4024
 1491TIP3   OH226107   5.186   3.821   8.163  0.2874 -1.3670 -1.1257
 1491TIP3    H126108   5.244   3.749   8.188 -1.9221 -2.8087  0.1186
 1491TIP3    H226109   5.103   3.802   8.206 -0.4608  1.8691 -0.8355
 1492TIP3   OH226110   4.981   2.560   0.055 -0.5634  0.6500 -0.6563
 1492TIP3    H126111   5.062   2.579   0.007  0.3530  1.5511  1.1547
 1492TIP3    H226112   4.911   2.582  -0.007  0.5685  1.9158 -1.5437
 1493TIP3   OH226113   3.835   2.682   8.490  0.5197  0.6087 -0.1732
 1493TIP3    H126114   3.791   2.609   8.447 -1.0967  1.2759  0.3094
 1493TIP3    H226115   3.904   2.707   8.429 -1.1673  0.9697 -2.0220
 1494TIP3   OH226116   5.430   5.532   7.275  0.3078 -1.3231  1.3054
 1494TIP3    H126117   5.514   5.535   7.320  1.2416 -0.8781 -0.3670
 1494TIP3    H226118   5.436   5.455   7.218 -0.2127 -0.9908  0.7951
 1495TIP3   OH226119   1.376   2.812   0.348 -0.3751  0.4600  0.0653
 1495TIP3    H126120   1.390   2.903   0.321 -0.8151  0.8036  0.9383
 1495TIP3    H226121   1.326   2.773   0.277  0.9894  0.5012 -0.9616
 1496TIP3   OH226122   2.974   4.068   2.095 -0.3371 -0.1007 -0.2717
 1496TIP3    H126123   2.992   4.009   2.022 -2.4484  1.0252 -1.8203
 1496TIP3    H226124   2.883   4.050   2.118 -0.4032  1.1698  0.5470
 1497TIP3   OH226125   1.572   2.576   8.386  0.4049  0.3441 -0.4274
 1497TIP3    H126126   1.652   2.610   8.348  1.0615 -0.6978 -0.0162
 1497TIP3    H226127   1.593   2.486   8.411 -1.3910 -0.5698 -1.9037
 1498TIP3   OH226128   6.107   3.068   7.231 -0.1388  0.4986 -0.5879
 1498TIP3    H126129   6.081   3.053   7.140 -0.2646 -0.3588 -0.4152
 1498TIP3    H226130   6.066   2.997   7.280  1.2274  0.0392 -0.0739
 1499TIP3   OH226131   3.085   6.317   7.515 -0.1404  0.8403  0.3157
 1499TIP3    H126132   3.026   6.253   7.475  0.8133 -0.8472  1.4422
 1499TIP3    H226133   3.145   6.342   7.446 -0.8228  0.8941 -0.2675
 1500TIP3   OH226134   6.727   3.546   0.687  0.1250 -0.1334 -0.6263
 1500TIP3    H126135   6.711   3.514   0.598  0.3385  0.6007 -0.9418
 1500TIP3    H226136   6.713   3.470   0.743  0.3260 -0.6949 -1.3185
 1501TIP3   OH226137   1.042   5.668   7.911  0.2181  0.4525  0.4294
 1501TIP3    H126138   1.101   5.629   7.846  3.1544  1.6032  2.1894
 1501TIP3    H226139   1.045   5.608   7.985 -0.5057  0.7363  0.6934
 1502TIP3   OH226140   1.877   6.271   8.371 -0.0334  0.5763  0.1611
 1502TIP3    H126141   1.846   6.259   8.461 -1.1487 -0.8727 -0.3912
 1502TIP3    H226142   1.973   6.269   8.379 -0.1198 -0.1798  1.2357
 1503TIP3   OH226143   1.183   2.231   6.754 -0.7151  0.0270 -0.2109
 1503TIP3    H126144   1.191   2.232   6.659  0.3930 -1.3041 -0.1616
 1503TIP3    H226145   1.125   2.158   6.773 -0.6660  0.0820  0.1558
 1504TIP3   OH226146   6.958   6.206   0.014 -0.1976 -0.2686 -0.2751
 1504TIP3    H126147   6.925   6.296   0.016  0.9202  0.1647 -0.5040
 1504TIP3    H226148   6.998   6.194   0.100  0.6842 -0.1374 -0.6593
 1505TIP3   OH226149   0.029   0.717   7.884  0.8344 -0.2323 -0.1896
 1505TIP3    H126150   0.044   0.637   7.833 -1.6552 -0.2462 -1.0157
 1505TIP3    H226151  -0.055   0.750   7.852  1.3070  2.1564  0.8838
 1506TIP3   OH226152   5.675   4.917   8.515 -0.1643 -0.3400  0.1491
 1506TIP3    H126153   5.719   4.989   8.469  0.0350 -0.9801 -0.6794
 1506TIP3    H226154   5.744   4.877   8.568 -0.2090 -0.1126  0.3833
 1507TIP3   OH226155   3.587   3.948   0.858 -0.2641 -0.2074 -0.4484
 1507TIP3    H126156   3.676   3.982   0.853 -0.8919  1.5081 -1.0428
 1507TIP3    H226157   3.540   4.012   0.913 -1.4820 -0.1343 -1.5197
 1508TIP3   OH226158   4.101   3.137   1.681 -0.0252  0.2290  0.5520
 1508TIP3    H126159   4.072   3.074   1.614 -1.3913  1.7458 -0.3509
 1508TIP3    H226160   4.074   3.222   1.647  1.7073  1.3291  1.7729
 1509TIP3   OH226161   0.755   4.973   6.594 -0.1013  0.0064 -0.0511
 1509TIP3    H126162   0.786   4.884   6.613  0.7873  0.0289 -1.3122
 1509TIP3    H226163   0.830   5.017   6.555 -1.4578  0.2910 -2.5427
 1510TIP3   OH226164   2.592   3.362   0.148  0.2382  0.4634 -0.5315
 1510TIP3    H126165   2.687   3.353   0.152  0.3035  0.2530 -2.0649
 1510TIP3    H226166   2.564   3.356   0.239  1.6653  0.2789 -0.0739
 1511TIP3   OH226167   6.752   6.374   2.057  0.0354 -0.4215  0.3899
 1511TIP3    H126168   6.793   6.449   2.099  3.4767 -2.7096  1.4922
 1511TIP3    H226169   6.723   6.318   2.129  0.3530 -1.5644 -0.3465
 1512TIP3   OH226170   3.284   1.588   7.858 -0.1829 -0.3077 -0.7381
 1512TIP3    H126171   3.368   1.571   7.815  0.4604 -1.9643  1.0584
 1512TIP3    H226172   3.224   1.524   7.821  0.2287 -1.3536  0.3362
 1513TIP3   OH226173   1.175   2.029   8.076  0.1344 -0.2070 -0.0083
 1513TIP3    H126174   1.239   2.028   8.148  0.4392  1.3927 -0.2065
 1513TIP3    H226175   1.223   1.995   8.001 -0.1666 -1.8293  0.5023
 1514TIP3   OH226176   3.871   5.128   0.694 -0.5983  0.3191  0.0793
 1514TIP3    H126177   3.929   5.204   0.696  1.3923 -1.1164  0.3603
 1514TIP3    H226178   3.848   5.117   0.602 -0.0898  0.6931 -0.0952
 1515TIP3   OH226179   1.236   4.966   1.985 -0.5073  0.1642 -0.1093
 1515TIP3    H126180   1.299   4.914   2.034 -1.6523 -1.7827 -0.5747
 1515TIP3    H226181   1.151   4.927   2.007 -1.2115  0.3343 -2.2342
 1516TIP3   OH226182   0.065   1.299   0.301 -0.0552 -0.4651  0.1756
 1516TIP3    H126183   0.009   1.231   0.264  0.9439 -1.0066 -0.4134
 1516TIP3    H226184   0.020   1.328   0.379 -0.6701 -1.5838  0.2562
 1517TIP3   OH226185   0.801   0.285   8.484  0.1327 -0.2453 -0.1514
 1517TIP3    H126186   0.882   0.248   8.520  1.0912  1.1154 -0.8243
 1517TIP3    H226187   0.806   0.266   8.390 -0.8797 -1.1018 -0.0515
 1518TIP3   OH226188   5.098   1.564   0.174 -0.0522 -0.0329  0.4948
 1518TIP3    H126189   5.134   1.557   0.263 -0.3937 -1.5205  0.5423
 1518TIP3    H226190   5.108   1.656   0.152  0.2230  0.3317  2.0022
 1519TIP3   OH226191   2.570   4.194   6.884  0.1364  1.0327  0.6977
 1519TIP3    H126192   2.618   4.118   6.917  2.3767  1.0410 -2.1614
 1519TIP3    H226193   2.530   4.233   6.962 -0.7945 -2.7719  2.3471
 1520TIP3   OH226194   5.477   3.302   0.852 -0.1849 -0.5927 -0.3474
 1520TIP3    H126195   5.446   3.212   0.854  0.6538 -0.8894 -0.4279
 1520TIP3    H226196   5.548   3.302   0.788 -0.0793  0.0957 -0.2422
 1521TIP3   OH226197   3.951   1.835   2.442  0.4125 -0.0006  0.2330
 1521TIP3    H126198   3.952   1.740   2.445 -1.9326 -0.2358 -2.7257
 1521TIP3    H226199   3.863   1.859   2.470  0.7459  1.2692  0.2496
 1522TIP3   OH226200   4.602   4.983   7.669  0.0468 -0.0519 -0.1977
 1522TIP3    H126201   4.517   4.941   7.655 -0.0410 -0.3175  1.0121
 1522TIP3    H226202   4.638   4.994   7.581 -0.5930 -1.2925 -0.6460
 1523TIP3   OH226203   4.207   1.249   8.521 -0.2755  0.3031 -0.8755
 1523TIP3    H126204   4.128   1.196   8.522 -0.7324  0.9742 -1.1381
 1523TIP3    H226205   4.196   1.311   8.593  0.6682 -0.5281  0.0284
 1524TIP3   OH226206   4.039   2.962   2.769  0.2168  0.2232  0.4480
 1524TIP3    H126207   4.038   2.870   2.796 -0.2748 -0.2276 -1.0280
 1524TIP3    H226208   3.984   3.007   2.833 -0.1408 -0.6389  0.7534
 1525TIP3   OH226209   3.266   6.167   1.163  0.1733  0.1566  0.7625
 1525TIP3    H126210   3.282   6.261   1.172  1.6329  0.1223 -1.0221
 1525TIP3    H226211   3.299   6.130   1.245 -1.4792  1.2541  1.9951
 1526TIP3   OH226212   4.078   2.337   1.697  0.2644 -0.0261 -0.7779
 1526TIP3    H126213   4.012   2.403   1.673 -0.0999  0.2080  0.7569
 1526TIP3    H226214   4.028   2.256   1.707  0.2971  0.0282 -0.1628
 1527TIP3   OH226215   4.930   4.618   7.798 -0.2563 -0.6702  0.1851
 1527TIP3    H126216   4.954   4.588   7.886 -0.3140 -0.2848  0.3383
 1527TIP3    H226217   4.968   4.554   7.739  0.3094 -0.6051  0.4658
 1528TIP3   OH226218   4.943   3.721   2.257 -0.0925 -0.3323  0.6110
 1528TIP3    H126219   4.851   3.741   2.239  0.0560  0.5946  0.8401
 1528TIP3    H226220   4.945   3.626   2.264 -0.9028 -0.4166 -0.1087
 1529TIP3   OH226221   0.461   6.617   1.213  0.0713  0.5085  0.3109
 1529TIP3    H126222   0.556   6.617   1.202  0.0657 -1.4268 -0.1025
 1529TIP3    H226223   0.427   6.578   1.132 -0.9822  0.0270  0.9582
 1530TIP3   OH226224   4.502   6.821   1.936 -0.0014 -0.4652 -0.7496
 1530TIP3    H126225   4.563   6.868   1.993  1.3759 -0.7452 -1.9507
 1530TIP3    H226226   4.436   6.785   1.996  0.8856  0.0286  0.5575
 1531TIP3   OH226227   5.617   0.441   1.127 -0.3288  0.2081 -0.2878
 1531TIP3    H126228   5.546   0.496   1.159  0.2213  0.5921  0.2930
 1531TIP3    H226229   5.580   0.353   1.123 -0.4092  0.1440  1.4186
 1532TIP3   OH226230   3.207   6.719   0.111 -0.2807  0.2266 -0.5326
 1532TIP3    H126231   3.216   6.732   0.205 -1.4842 -0.1482 -0.3478
 1532TIP3    H226232   3.296   6.705   0.080  0.5428  3.3896  0.0565
 1533TIP3   OH226233   0.851   0.482   7.868  0.6812 -0.2988  0.0084
 1533TIP3    H126234   0.936   0.474   7.911  0.8261  0.8763 -0.0400
 1533TIP3    H226235   0.850   0.412   7.802  2.1475  0.4939 -0.8968
 1534TIP3   OH226236   6.863   2.598   2.111 -0.1683 -0.3081  0.2239
 1534TIP3    H126237   6.896   2.686   2.129  0.7563 -0.4906 -0.4888
 1534TIP3    H226238   6.832   2.566   2.195  0.4792  0.2992  0.7090
 1535TIP3   OH226239   4.324   4.279   1.056  0.3242 -0.8644 -0.3245
 1535TIP3    H126240   4.304   4.186   1.065 -1.8520 -0.5831 -1.6821
 1535TIP3    H226241   4.284   4.304   0.973  0.8690  1.3010  0.0152
 1536TIP3   OH226242   2.869   3.280   7.088 -0.1327 -0.5631 -0.3708
 1536TIP3    H126243   2.885   3.310   6.999  0.3441 -0.6888 -0.3307
 1536TIP3    H226244   2.909   3.193   7.091 -0.6912 -0.8156 -0.2169
 1537TIP3   OH226245   3.724   6.522   8.186 -0.3860  0.2648  0.2114
 1537TIP3    H126246   3.750   6.548   8.274 -0.5887  1.0837  0.0379
 1537TIP3    H226247   3.667   6.446   8.198  0.7755 -0.5723  0.6916
 1538TIP3   OH226248   5.226   6.675   1.504  0.3309 -0.2466 -0.0079
 1538TIP3    H126249   5.189   6.763   1.501 -0.3942 -0.5725 -1.3590
 1538TIP3    H226250   5.192   6.638   1.586 -0.7584  0.1396 -0.2690
 1539TIP3   OH226251   5.345   5.785   8.242  0.3831  0.4134  0.6796
 1539TIP3    H126252   5.308   5.872   8.227 -0.0518 -0.0205 -0.9758
 1539TIP3    H226253   5.324   5.765   8.333 -3.0907  0.4088 -0.0058
 1540TIP3   OH226254   3.682   2.343   1.445  0.3216 -0.0507 -0.5213
 1540TIP3    H126255   3.652   2.256   1.419 -0.3511  0.0465 -0.0938
 1540TIP3    H226256   3.778   2.337   1.445  0.2693 -0.9667  0.1012
 1541TIP3   OH226257   1.040   3.089   1.394 -0.1840 -0.2743 -0.6525
 1541TIP3    H126258   0.983   3.100   1.318  0.0847  1.8019 -0.6155
 1541TIP3    H226259   0.996   3.136   1.464 -0.1321 -1.6621  0.3294
 1542TIP3   OH226260   1.306   4.707   1.464  0.3548  0.2255 -0.2455
 1542TIP3    H126261   1.357   4.656   1.401 -0.1616  0.5527 -0.9503
 1542TIP3    H226262   1.316   4.661   1.547  1.2709 -0.0650 -0.5041
 1543TIP3   OH226263   3.344   3.191   7.994 -0.0332 -0.0364  0.0401
 1543TIP3    H126264   3.250   3.205   7.983  0.1592  0.2522 -1.5292
 1543TIP3    H226265   3.372   3.149   7.912  0.6890 -2.9908  1.6544
 1544TIP3   OH226266   0.640   3.886   0.342  0.0478 -0.3362  0.6360
 1544TIP3    H126267   0.658   3.900   0.435 -0.7585  0.1490  0.7359
 1544TIP3    H226268   0.579   3.812   0.340  2.0609 -2.0632  0.2951
 1545TIP3   OH226269   4.505   3.489   6.343  0.7511  0.6938  0.4620
 1545TIP3    H126270   4.563   3.470   6.269 -1.3945 -0.2114 -1.0997
 1545TIP3    H226271   4.483   3.582   6.333 -0.0167  0.4282 -0.4441
 1546TIP3   OH226272   1.469   4.269   1.183 -0.0083 -0.6896 -0.2271
 1546TIP3    H126273   1.539   4.297   1.242 -1.3371  0.1511  1.0353
 1546TIP3    H226274   1.400   4.335   1.195 -0.3405 -0.4656 -2.7750
 1547TIP3   OH226275   1.661   6.657   7.701 -0.4603  0.5251 -0.2158
 1547TIP3    H126276   1.666   6.663   7.605  0.5079  0.9672 -0.1556
 1547TIP3    H226277   1.626   6.570   7.718 -0.4779  0.3746 -0.9688
 1548TIP3   OH226278   3.854   6.822   7.159 -0.2186 -0.2189 -0.1358
 1548TIP3    H126279   3.916   6.751   7.175 -0.9331 -1.3242 -1.9212
 1548TIP3    H226280   3.773   6.778   7.135 -1.0129  1.2112 -0.2007
 1549TIP3   OH226281   4.429   4.132   0.437  0.2910 -0.4563 -0.7127
 1549TIP3    H126282   4.417   4.096   0.349  0.1467 -0.6677 -0.6099
 1549TIP3    H226283   4.400   4.061   0.495 -0.1129 -0.1232 -0.5080
 1550TIP3   OH226284   5.336   0.266   0.946 -0.0720 -0.0263 -0.1477
 1550TIP3    H126285   5.290   0.349   0.962  0.5559  0.2125  0.4686
 1550TIP3    H226286   5.401   0.261   1.016  1.1125 -0.1638 -1.2291
 1551TIP3   OH226287   1.835   0.304   0.594  0.4000  0.2852  0.3126
 1551TIP3    H126288   1.754   0.265   0.560 -0.8919  1.1962  2.1789
 1551TIP3    H226289   1.818   0.398   0.594  1.2414  0.4517  1.3181
 1552TIP3   OH226290   4.411   0.014   7.501  0.4926  0.1816 -0.4819
 1552TIP3    H126291   4.328   0.034   7.456  0.5522  0.6350 -0.3921
 1552TIP3    H226292   4.473   0.078   7.467  0.9243 -0.4323 -0.8712
 1553TIP3   OH226293   5.016   5.526   6.966  0.9215 -0.4126  0.9637
 1553TIP3    H126294   5.098   5.540   7.013  1.4949 -0.6285  0.0546
 1553TIP3    H226295   5.010   5.600   6.906 -0.3122  0.4046  2.0351
 1554TIP3   OH226296   0.055   4.102   0.162  0.1201  0.0418 -0.1522
 1554TIP3    H126297   0.051   4.119   0.257 -1.1245 -0.3643 -0.1208
 1554TIP3    H226298   0.149   4.105   0.142  0.5655 -1.4387  1.3989
 1555TIP3   OH226299   3.536   4.207   0.275 -0.2064  0.4335  0.4896
 1555TIP3    H126300   3.624   4.212   0.239 -0.4346 -1.0272 -0.3286
 1555TIP3    H226301   3.546   4.231   0.367  1.1426 -0.3231  0.5640
 1556TIP3   OH226302   1.664   6.568   1.295 -0.8899  0.2171 -0.4214
 1556TIP3    H126303   1.597   6.580   1.362  0.2559 -1.8490  1.2243
 1556TIP3    H226304   1.632   6.497   1.240 -0.8565  0.4368 -0.7257
 1557TIP3   OH226305   4.549   0.859   7.447  0.3105 -0.3553  0.1661
 1557TIP3    H126306   4.495   0.830   7.374 -1.0375 -2.0208  1.7262
 1557TIP3    H226307   4.622   0.798   7.449  0.2932 -0.3742  0.2423
 1558TIP3   OH226308   4.982   6.341   7.081  0.2165 -0.1895 -0.1413
 1558TIP3    H126309   4.914   6.331   7.016  0.1484 -0.4565 -0.0281
 1558TIP3    H226310   4.936   6.344   7.165  0.2006  1.2940 -0.1682
 1559TIP3   OH226311   3.570   3.010   1.500  0.0299 -0.7963 -0.0018
 1559TIP3    H126312   3.580   2.938   1.437  0.0221  0.1251 -1.0943
 1559TIP3    H226313   3.617   3.084   1.459  2.7037 -0.9401  2.4448
 1560TIP3   OH226314   5.367   5.674   0.754  0.2433 -0.1558 -0.2414
 1560TIP3    H126315   5.431   5.724   0.804  0.6789  0.0641 -1.0091
 1560TIP3    H226316   5.343   5.602   0.812  0.6086  0.1874  0.3505
 1561TIP3   OH226317   5.972   1.043   0.408 -0.2747 -0.3662 -0.0364
 1561TIP3    H126318   5.996   1.091   0.329  1.6454 -0.5473  0.3974
 1561TIP3    H226319   6.052   0.999   0.435 -1.2100 -1.3253  1.3258
 1562TIP3   OH226320   6.795   1.772   7.437  0.1332  0.3568 -0.3616
 1562TIP3    H126321   6.717   1.808   7.478  0.7298  0.4158  0.7565
 1562TIP3    H226322   6.861   1.841   7.449  1.0796 -0.7631  1.1014
 1563TIP3   OH226323   3.349   4.407   1.218 -0.3920 -0.7315  0.7705
 1563TIP3    H126324   3.412   4.359   1.273 -0.1277 -2.5148 -0.9865
 1563TIP3    H226325   3.269   4.408   1.270  0.6821  0.5282  2.5429
 1564TIP3   OH226326   2.547   4.370   7.138 -0.8422  0.5800  0.5244
 1564TIP3    H126327   2.551   4.449   7.192 -0.3328 -1.2906  3.4545
 1564TIP3    H226328   2.631   4.326   7.153 -1.3714 -0.8586 -0.4424
 1565TIP3   OH226329   6.459   0.254   0.997 -0.1059  0.4598  0.1059
 1565TIP3    H126330   6.511   0.195   0.942  2.8581  2.0474  0.9701
 1565TIP3    H226331   6.397   0.295   0.936 -0.9622 -2.0495 -0.8428
 1566TIP3   OH226332   1.770   6.882   6.900 -0.1256  0.6463 -0.6369
 1566TIP3    H126333   1.689   6.901   6.948 -0.0880 -0.0952 -0.2628
 1566TIP3    H226334   1.827   6.956   6.918  0.1677  0.0231  1.1062
 1567TIP3   OH226335   4.359   5.293   0.394  0.4932  0.5003  0.3822
 1567TIP3    H126336   4.271   5.300   0.358  1.1190 -0.4828 -1.5241
 1567TIP3    H226337   4.391   5.383   0.399  0.0219  0.7485 -0.7210
 1568TIP3   OH226338   0.847   1.356   1.504 -0.0158  0.9093 -0.7469
 1568TIP3    H126339   0.754   1.378   1.514 -0.0658  0.8224 -1.0119
 1568TIP3    H226340   0.890   1.401   1.577 -0.0320  2.3989 -1.6025
 1569TIP3   OH226341   0.961   5.004   6.234 -0.3288  0.0567  0.3660
 1569TIP3    H126342   1.023   5.030   6.166  0.9967 -1.3467  0.9743
 1569TIP3    H226343   0.992   5.048   6.313 -0.2138 -0.4840  0.6277
 1570TIP3   OH226344   5.786   2.892   1.190 -0.1805 -0.1815 -0.1549
 1570TIP3    H126345   5.726   2.967   1.190  1.3416  1.1207 -0.9872
 1570TIP3    H226346   5.806   2.877   1.282 -1.8973 -0.7733  0.1515
 1571TIP3   OH226347   0.086   1.796   6.910 -1.0992 -0.3181 -0.3058
 1571TIP3    H126348   0.155   1.767   6.850 -0.5514  1.8055 -0.7560
 1571TIP3    H226349   0.006   1.791   6.858 -0.9861 -0.7341 -0.4490
 1572TIP3   OH226350   4.404   0.667   0.553 -0.5543 -0.0454  0.1413
 1572TIP3    H126351   4.499   0.653   0.547 -0.4539  0.1369  1.1818
 1572TIP3    H226352   4.366   0.586   0.520 -0.0790  0.4497 -1.8107
 1573TIP3   OH226353   5.803   3.285   7.287  0.3723 -0.3672 -0.3744
 1573TIP3    H126354   5.760   3.303   7.204 -0.0188 -0.8415 -0.2806
 1573TIP3    H226355   5.763   3.203   7.317 -0.9040  0.7542  1.2063
 1574TIP3   OH226356   0.398   3.429   6.530  0.2443  1.0974  0.0839
 1574TIP3    H126357   0.489   3.407   6.511  1.0519  3.8873  0.2111
 1574TIP3    H226358   0.348   3.351   6.505  2.6210 -0.4293 -0.1947
 1575TIP3   OH226359   6.373   0.630   0.675 -0.0375 -0.0515 -0.3484
 1575TIP3    H126360   6.321   0.700   0.713  0.7001  0.7592 -0.8182
 1575TIP3    H226361   6.388   0.656   0.585  1.1596 -0.2818 -0.2276
 1576TIP3   OH226362   3.445   6.120   7.617  0.0643  0.0737 -0.5817
 1576TIP3    H126363   3.457   6.115   7.712  1.3422  1.2023 -0.6562
 1576TIP3    H226364   3.460   6.212   7.595  1.7149 -0.4876 -2.0856
 1577TIP3   OH226365   2.162   4.331   1.279  0.0576  0.0892 -0.3525
 1577TIP3    H126366   2.173   4.398   1.347  1.2508 -1.3993  1.0079
 1577TIP3    H226367   2.072   4.301   1.288 -1.4736  3.3626 -2.8662
 1578TIP3   OH226368   0.878   3.211   1.655  0.4753 -0.3670 -0.2249
 1578TIP3    H126369   0.835   3.194   1.739 -1.1558 -0.4052 -1.0249
 1578TIP3    H226370   0.956   3.262   1.677  0.0652 -0.3620  1.2976
 1579TIP3   OH226371   0.500   0.840   8.269  0.1885 -0.1542  0.7946
 1579TIP3    H126372   0.444   0.898   8.218  0.5193 -0.3750  0.1783
 1579TIP3    H226373   0.576   0.893   8.292  0.4731 -0.3281  0.2638
 1580TIP3   OH226374   3.192   4.943   0.478 -0.1807 -0.1969 -0.4241
 1580TIP3    H126375   3.236   4.859   0.482 -1.2826 -0.7573  2.1465
 1580TIP3    H226376   3.216   4.987   0.560 -2.9184  0.1778  0.2824
 1581TIP3   OH226377   1.594   1.346   7.409 -0.2667 -0.2558 -0.2662
 1581TIP3    H126378   1.638   1.415   7.360 -0.4534  0.0540  0.0021
 1581TIP3    H226379   1.603   1.268   7.354  0.1352 -0.0702 -0.4671
 1582TIP3   OH226380   0.660   2.119   0.465  0.3663 -0.0192  0.1960
 1582TIP3    H126381   0.567   2.125   0.486 -0.7310  0.4090 -3.8705
 1582TIP3    H226382   0.669   2.035   0.419  2.1469 -0.3020  0.9787
 1583TIP3   OH226383   3.807   6.009   0.932  0.3739  0.3945  0.2993
 1583TIP3    H126384   3.838   5.918   0.929  1.1876  0.6847 -0.2885
 1583TIP3    H226385   3.833   6.046   0.848  0.9935  1.4788  0.9518
 1584TIP3   OH226386   1.643   2.307   8.464 -0.5112 -0.4147 -0.2222
 1584TIP3    H126387   1.577   2.250   8.503  1.4777 -1.7712  1.3467
 1584TIP3    H226388   1.678   2.257   8.390 -0.6003 -0.0839 -0.4928
 1585TIP3   OH226389   6.296   1.953   0.392  0.1828 -0.1463 -0.1012
 1585TIP3    H126390   6.381   1.923   0.424  1.4940  0.5625 -2.6850
 1585TIP3    H226391   6.286   2.041   0.428  0.5042 -0.2515  0.2493
 1586TIP3   OH226392   1.120   2.046   1.338 -0.0126  0.2689 -0.5224
 1586TIP3    H126393   1.169   2.078   1.262  0.3035  0.8463 -0.0861
 1586TIP3    H226394   1.088   1.960   1.312  1.0049  0.0023 -0.9184
 1587TIP3   OH226395   1.971   1.866   2.454  0.1850 -0.1057  0.3484
 1587TIP3    H126396   1.970   1.937   2.390 -0.5305  0.9156  1.4401
 1587TIP3    H226397   1.882   1.865   2.489  0.1448 -1.6351  0.2850
 1588TIP3   OH226398   3.327   1.568   1.041  0.5750  0.1033  0.6227
 1588TIP3    H126399   3.281   1.650   1.023  2.4439  1.1474  0.2588
 1588TIP3    H226400   3.281   1.502   0.990 -1.1259  0.8619  1.1162
 1589TIP3   OH226401   5.125   4.289   7.092  1.1632  0.4350  0.7049
 1589TIP3    H126402   5.106   4.275   6.999  2.4522  1.2695  0.2871
 1589TIP3    H226403   5.042   4.322   7.128  0.1711 -1.4136  0.2301
 1590TIP3   OH226404   3.660   0.186   6.550 -0.1752 -0.3760 -0.4775
 1590TIP3    H126405   3.588   0.135   6.513 -0.7494  0.1171 -0.0646
 1590TIP3    H226406   3.645   0.275   6.518 -1.5304  0.3823  2.0729
 1591TIP3   OH226407   6.834   3.803   0.172  0.3362 -0.3606  0.2527
 1591TIP3    H126408   6.762   3.785   0.112  0.7975 -0.5054 -0.2680
 1591TIP3    H226409   6.897   3.852   0.120 -0.1007  1.2186  1.1549
 1592TIP3   OH226410   3.329   3.718   6.588 -0.3911 -0.2153 -0.1684
 1592TIP3    H126411   3.374   3.789   6.634 -0.5294 -0.0047 -0.3598
 1592TIP3    H226412   3.236   3.739   6.597 -0.5776 -1.6176  1.8471
 1593TIP3   OH226413   4.165   1.781   8.346  0.0244 -0.9678  0.2584
 1593TIP3    H126414   4.099   1.724   8.305 -2.2331  1.9913 -0.5899
 1593TIP3    H226415   4.212   1.820   8.272  1.0269 -1.1220  0.7959
 1594TIP3   OH226416   0.415   0.250   0.887  0.5434  0.2149 -0.2833
 1594TIP3    H126417   0.444   0.248   0.978 -0.6584  0.9966  0.1567
 1594TIP3    H226418   0.453   0.330   0.851  0.9765 -0.0670 -0.4464
 1595TIP3   OH226419   5.135   6.450   6.763  0.0995 -0.2630  0.1263
 1595TIP3    H126420   5.065   6.384   6.762 -1.5143  1.2593  2.1993
 1595TIP3    H226421   5.142   6.478   6.671 -0.9367 -1.5131 -0.3790
 1596TIP3   OH226422   2.991   1.976   1.389 -0.2681 -0.3953  0.1816
 1596TIP3    H126423   2.972   1.989   1.482 -0.6774 -1.2199  0.2301
 1596TIP3    H226424   2.910   2.001   1.344 -0.5531 -1.2806  0.1683
 1597TIP3   OH226425   4.653   5.276   2.153 -0.4363  0.0246 -0.2862
 1597TIP3    H126426   4.622   5.357   2.194 -0.8452  0.1400 -0.8119
 1597TIP3    H226427   4.704   5.233   2.221 -3.2117 -1.0496  1.3093
 1598TIP3   OH226428   1.671   6.175   6.610  0.6212  0.3819 -0.2896
 1598TIP3    H126429   1.621   6.201   6.533  0.1665 -0.2047 -0.2013
 1598TIP3    H226430   1.640   6.086   6.630  3.1157 -0.8461 -1.4286
 1599TIP3   OH226431   6.436   4.799   7.727 -1.0542 -0.0673 -0.3735
 1599TIP3    H126432   6.522   4.833   7.702 -1.0689 -0.1889 -0.5863
 1599TIP3    H226433   6.432   4.812   7.822 -1.4031  1.3302 -0.5582
 1600TIP3   OH226434   1.649   1.874   6.193 -0.4431  0.1831 -0.2285
 1600TIP3    H126435   1.695   1.936   6.137 -0.5377 -0.2236 -0.7552
 1600TIP3    H226436   1.717   1.815   6.225  0.1109  2.0457  2.3318
 1601TIP3   OH226437   3.029   4.255   0.602 -0.5986  0.4901 -0.1754
 1601TIP3    H126438   3.036   4.343   0.564 -1.6440  0.3821 -0.6409
 1601TIP3    H226439   3.109   4.210   0.573  0.3763  1.5361  0.7953
 1602TIP3   OH226440   4.521   5.810   7.379  0.2513 -0.0296  0.2305
 1602TIP3    H126441   4.611   5.828   7.405  0.5289 -0.2256 -0.5589
 1602TIP3    H226442   4.522   5.719   7.349 -0.1758  0.0066  0.0931
 1603TIP3   OH226443   3.161   0.086   8.363  0.3005  0.2614  0.1776
 1603TIP3    H126444   3.140   0.063   8.453 -1.4868 -1.1274 -0.5223
 1603TIP3    H226445   3.244   0.042   8.345 -0.6518 -1.7380  0.3808
 1604TIP3   OH226446   5.803   1.617   1.162  0.6704  0.2056  0.7138
 1604TIP3    H126447   5.886   1.652   1.130 -0.3492  0.9173 -1.3407
 1604TIP3    H226448   5.778   1.675   1.234  1.5326  0.4890  0.7962
 1605TIP3   OH226449   6.518   4.363   7.554 -0.2166 -0.1758  0.3339
 1605TIP3    H126450   6.525   4.447   7.599 -0.3103 -0.5482  1.0583
 1605TIP3    H226451   6.456   4.313   7.606 -0.3295 -0.6212 -0.2180
 1606TIP3   OH226452   2.287   0.951   6.645 -0.2823 -0.3850  0.0907
 1606TIP3    H126453   2.321   0.915   6.727  0.8596  0.5554  0.0671
 1606TIP3    H226454   2.342   0.911   6.577  1.9196  2.2773  0.1548
 1607TIP3   OH226455   4.376   1.554   7.407 -0.1501 -0.5183  0.0888
 1607TIP3    H126456   4.334   1.498   7.473 -0.6412  0.5192  0.6751
 1607TIP3    H226457   4.352   1.643   7.432 -1.5890 -0.1289 -2.3012
 1608TIP3   OH226458   5.357   0.960   1.402  0.4374 -0.0435 -0.3558
 1608TIP3    H126459   5.310   0.899   1.459  1.1104  0.6424  0.9554
 1608TIP3    H226460   5.444   0.967   1.440  1.1065 -0.0296 -1.8275
 1609TIP3   OH226461   4.090   1.691   1.288 -0.7563  0.0372  0.1388
 1609TIP3    H126462   4.021   1.664   1.228  1.8028  0.4957 -3.3097
 1609TIP3    H226463   4.144   1.613   1.298  0.2584  0.6554 -0.3455
 1610TIP3   OH226464   6.916   2.194   8.322  0.0152 -0.1419  0.1229
 1610TIP3    H126465   6.921   2.103   8.351  0.0380 -0.4897 -0.9354
 1610TIP3    H226466   6.974   2.241   8.382 -0.5953 -0.6887  1.1679
 1611TIP3   OH226467   1.544   1.102   0.864  0.1977 -0.1341  0.4461
 1611TIP3    H126468   1.495   1.184   0.872  0.6802  0.1212  0.8202
 1611TIP3    H226469   1.488   1.045   0.811 -0.1152  0.4536  0.1456
 1612TIP3   OH226470   0.252   0.957   0.364  0.4981 -0.0069 -0.0163
 1612TIP3    H126471   0.188   0.974   0.295 -0.3664 -0.3696  0.6689
 1612TIP3    H226472   0.337   0.967   0.321 -0.0158 -0.1892 -1.1206
 1613TIP3   OH226473   6.825   1.319   7.809 -0.2163 -0.5592 -0.4815
 1613TIP3    H126474   6.736   1.285   7.817 -0.1544 -0.5556  0.3346
 1613TIP3    H226475   6.864   1.268   7.737 -0.0652 -2.3755  0.8202
 1614TIP3   OH226476   0.689   1.143   1.941  0.2362 -0.3571 -0.2603
 1614TIP3    H126477   0.746   1.094   2.000 -0.4490 -0.7046  0.1322
 1614TIP3    H226478   0.629   1.078   1.905 -0.2566  0.0798 -0.2534
 1615TIP3   OH226479   0.470   2.995   0.294  0.0038 -0.3386  0.3739
 1615TIP3    H126480   0.497   2.913   0.252 -2.9564 -0.6178 -1.2852
 1615TIP3    H226481   0.500   3.064   0.234  3.0695 -0.0086  2.0858
 1616TIP3   OH226482   6.183   1.293   7.542 -0.1387 -0.1025 -0.0092
 1616TIP3    H126483   6.170   1.320   7.451 -0.9357  0.0275  0.1291
 1616TIP3    H226484   6.273   1.316   7.562 -0.8948  3.0084  0.2558
 1617TIP3   OH226485   2.516   5.170   7.477 -0.4534 -0.1109 -0.1763
 1617TIP3    H126486   2.537   5.172   7.383 -0.3516 -1.2285 -0.1900
 1617TIP3    H226487   2.601   5.182   7.520 -0.4022 -0.2810 -0.2289
 1618TIP3   OH226488   2.732   1.665   0.758  0.7024 -0.6688 -0.2339
 1618TIP3    H126489   2.676   1.739   0.734  1.8336  1.7844  3.7773
 1618TIP3    H226490   2.689   1.626   0.834  2.9882 -0.4032  1.2828
 1619TIP3   OH226491   2.463   5.699   7.558 -0.3761  0.2808 -0.0830
 1619TIP3    H126492   2.534   5.752   7.520  0.8556 -1.8726 -0.9723
 1619TIP3    H226493   2.416   5.664   7.483  0.0409 -1.3940  0.3872
 1620TIP3   OH226494   2.305   0.306   0.827 -0.2889 -0.0056 -0.4689
 1620TIP3    H126495   2.336   0.229   0.780 -0.5153 -1.0697  1.0528
 1620TIP3    H226496   2.343   0.299   0.914 -0.0147  1.8171 -0.3941
 1621TIP3   OH226497   5.098   1.711   2.074  0.3327 -0.2334  0.3336
 1621TIP3    H126498   5.147   1.703   2.156  1.0504 -0.3336 -0.0947
 1621TIP3    H226499   5.137   1.787   2.031  0.1624 -0.3672 -0.0537
 1622TIP3   OH226500   4.854   2.447   2.495  0.3231 -0.5124  0.4886
 1622TIP3    H126501   4.800   2.369   2.501  1.6471 -1.5646 -0.6822
 1622TIP3    H226502   4.804   2.506   2.438 -0.2229 -0.8955  0.5585
 1623TIP3   OH226503   0.476   3.724   5.994 -0.2229  0.5828  0.6096
 1623TIP3    H126504   0.457   3.631   6.006 -0.1085  0.7802  2.5210
 1623TIP3    H226505   0.561   3.737   6.035 -0.2889  1.5522  0.4616
 1624TIP3   OH226506   5.308   5.950   1.714  0.8612 -0.1776 -0.0643
 1624TIP3    H126507   5.340   5.882   1.655 -0.0025 -1.7006  1.1285
 1624TIP3    H226508   5.304   5.907   1.800 -1.2852  0.8619  0.4247
 1625TIP3   OH226509   5.697   5.870   1.365  0.1466  0.1826  1.1457
 1625TIP3    H126510   5.682   5.940   1.301 -1.5009  0.3190  1.6255
 1625TIP3    H226511   5.669   5.790   1.321  1.0749 -0.0408  0.9492
 1626TIP3   OH226512   6.045   1.493   7.018  0.1216 -0.5301  0.0814
 1626TIP3    H126513   6.107   1.541   7.072  0.3823 -2.5364  1.6689
 1626TIP3    H226514   6.084   1.406   7.007 -1.5229 -1.2481 -0.4846
 1627TIP3   OH226515   3.300   3.381   6.525  0.4175 -0.0962  0.6653
 1627TIP3    H126516   3.263   3.322   6.590 -2.6666  1.8685  0.9215
 1627TIP3    H226517   3.373   3.424   6.569 -0.2158 -0.4261  2.0660
 1628TIP3   OH226518   1.674   4.937   8.524  0.7559 -0.4945 -0.1797
 1628TIP3    H126519   1.652   4.954   8.615 -0.2101  0.9800 -0.6565
 1628TIP3    H226520   1.688   5.023   8.486 -0.3179 -0.9786 -1.7768
 1629TIP3   OH226521   6.709   3.499   8.345 -0.0179 -0.0636 -0.0603
 1629TIP3    H126522   6.715   3.404   8.332  0.8308 -0.1284  0.7481
 1629TIP3    H226523   6.674   3.532   8.262 -0.0773 -1.0501 -0.4423
 1630TIP3   OH226524   0.862   1.539   8.155  0.1233 -0.3138  0.1906
 1630TIP3    H126525   0.806   1.485   8.099  0.9430 -0.3190 -0.6371
 1630TIP3    H226526   0.951   1.511   8.134  0.4268 -0.9480  2.1347
 1631TIP3   OH226527   4.226   3.123   8.302 -0.5037  0.0700  0.3182
 1631TIP3    H126528   4.193   3.207   8.334 -1.2124  0.0297 -0.2753
 1631TIP3    H226529   4.319   3.123   8.325 -0.5859  0.8397  0.6820
 1632TIP3   OH226530   3.441   6.619   8.549 -0.3935 -0.6080 -0.2858
 1632TIP3    H126531   3.398   6.536   8.525 -1.2787 -0.8320  1.8887
 1632TIP3    H226532   3.508   6.593   8.612 -0.7011  0.3154  0.4398
 1633TIP3   OH226533   1.833   2.434   7.244  0.6246 -0.0587  0.0960
 1633TIP3    H126534   1.766   2.367   7.255 -0.0219  0.2804 -1.5600
 1633TIP3    H226535   1.898   2.394   7.186  1.8979 -0.3804  1.6672
 1634TIP3   OH226536   2.424   1.972   1.303  0.5019 -0.4014  0.0744
 1634TIP3    H126537   2.344   2.006   1.345 -1.1386 -1.0747 -2.3195
 1634TIP3    H226538   2.438   1.886   1.343  0.5733  0.0863  1.1325
 1635TIP3   OH226539   5.495   6.844   1.416 -0.3782 -0.3476  0.2868
 1635TIP3    H126540   5.422   6.783   1.409  1.0325 -2.1102 -0.0641
 1635TIP3    H226541   5.552   6.805   1.482  0.7021  0.4568 -0.1372
 1636TIP3   OH226542   6.618   2.580   7.229 -0.2666  0.6175 -0.1899
 1636TIP3    H126543   6.601   2.605   7.138 -0.3562  0.0410 -0.3356
 1636TIP3    H226544   6.707   2.545   7.228  0.5469  2.5312  0.3473
 1637TIP3   OH226545   1.340   3.998   7.670  0.0593 -0.0541 -0.5837
 1637TIP3    H126546   1.427   4.036   7.682  0.3526 -0.1474 -2.1438
 1637TIP3    H226547   1.301   3.998   7.757  0.4294  2.8594 -0.3259
 1638TIP3   OH226548   3.332   5.929   6.821 -0.0355  0.5361  0.2237
 1638TIP3    H126549   3.334   5.872   6.744  0.4090  0.3055  0.3999
 1638TIP3    H226550   3.419   5.918   6.860 -0.1846  0.8212  0.6332
 1639TIP3   OH226551   6.473   5.064   1.931  0.6314  0.0932  0.1195
 1639TIP3    H126552   6.518   5.040   2.012  1.4374  1.8053  0.2342
 1639TIP3    H226553   6.533   5.036   1.862 -0.9714 -3.2985 -0.0981
 1640TIP3   OH226554   1.558   0.509   8.347  0.4315  0.2505  0.0875
 1640TIP3    H126555   1.638   0.561   8.352  1.1248 -0.7153 -0.6467
 1640TIP3    H226556   1.533   0.511   8.255  1.2311 -1.7551 -0.2385
 1641TIP3   OH226557   1.557   5.054   7.197  0.3650 -0.0877 -0.4388
 1641TIP3    H126558   1.464   5.062   7.217  0.3269  0.0640 -0.6693
 1641TIP3    H226559   1.571   4.960   7.185  0.2119 -0.0975 -0.5440
 1642TIP3   OH226560   2.663   3.642   0.611  0.0778  0.0383  0.9678
 1642TIP3    H126561   2.580   3.598   0.590 -0.9357  1.7028  1.3516
 1642TIP3    H226562   2.712   3.639   0.529  0.1428 -1.9411  1.0216
 1643TIP3   OH226563   3.832   3.402   8.077 -0.2602 -0.3569  0.1662
 1643TIP3    H126564   3.757   3.457   8.055 -0.0981 -0.0489  0.3701
 1643TIP3    H226565   3.803   3.313   8.059  0.1420 -0.0822 -2.2180
 1644TIP3   OH226566   0.240   5.323   8.497 -0.1760  0.1999  0.5252
 1644TIP3    H126567   0.163   5.266   8.498 -0.2613  0.3134  0.4445
 1644TIP3    H226568   0.204   5.412   8.499 -0.0250  0.2494  1.8763
 1645TIP3   OH226569   4.116   4.908   0.403 -0.0905  0.2400 -0.0238
 1645TIP3    H126570   4.119   4.948   0.316  1.4856  0.2479  0.0002
 1645TIP3    H226571   4.164   4.969   0.458 -0.2201 -0.2593  0.6473
 1646TIP3   OH226572   6.377   3.905   0.848  0.3205 -0.2233 -0.2818
 1646TIP3    H126573   6.453   3.862   0.808  1.4944 -0.2645  1.8191
 1646TIP3    H226574   6.342   3.840   0.909  0.0990  0.6355  0.5379
 1647TIP3   OH226575   2.074   0.008   1.449  0.0793  0.0839  0.2032
 1647TIP3    H126576   2.016   0.060   1.393 -0.5188 -0.9411 -0.1686
 1647TIP3    H226577   2.161   0.019   1.411 -0.4422 -1.3102 -1.5107
 1648TIP3   OH226578   2.283   4.431   1.507 -0.2330  0.3111 -0.4130
 1648TIP3    H126579   2.270   4.336   1.505 -2.3664  0.5035  0.8877
 1648TIP3    H226580   2.242   4.459   1.588  1.7200  2.2145  0.0032
 1649TIP3   OH226581   2.753   0.312   8.188 -0.5352 -0.1533 -0.5007
 1649TIP3    H126582   2.739   0.217   8.184 -1.4063 -0.1484  1.3310
 1649TIP3    H226583   2.848   0.323   8.186 -0.3778 -1.1673  0.4914
 1650TIP3   OH226584   5.854   5.127   6.116  0.1842 -0.8312  0.1457
 1650TIP3    H126585   5.815   5.096   6.034  1.1589  0.7327 -0.9496
 1650TIP3    H226586   5.787   5.110   6.182 -2.3164  1.5008 -1.5975
 1651TIP3   OH226587   5.964   6.380   6.748  0.0056 -0.0555  0.0967
 1651TIP3    H126588   6.049   6.420   6.768 -0.3388  0.0532  1.4063
 1651TIP3    H226589   5.961   6.378   6.652  0.6204  1.7846  0.0000
 1652TIP3   OH226590   4.849   6.603   8.319 -0.0533  0.0549  0.4416
 1652TIP3    H126591   4.829   6.693   8.294 -1.0246 -0.1038  0.6195
 1652TIP3    H226592   4.772   6.574   8.368  1.2175 -0.0903  2.4628
 1653TIP3   OH226593   0.654   3.883   1.443  0.1437  0.1743 -0.0341
 1653TIP3    H126594   0.589   3.846   1.382  0.0863 -0.2040  0.2514
 1653TIP3    H226595   0.602   3.929   1.509  0.1917  0.3412 -0.1135
 1654TIP3   OH226596   1.466   0.175   0.282 -0.3997  0.2001  0.1412
 1654TIP3    H126597   1.416   0.163   0.201  1.4266  1.5308 -1.2959
 1654TIP3    H226598   1.476   0.270   0.290  1.4634  0.0175  0.5702
 1655TIP3   OH226599   2.735   0.040   8.124 -0.4105 -0.5402  0.6020
 1655TIP3    H126600   2.777   0.028   8.209 -1.1475  0.8451  1.1849
 1655TIP3    H226601   2.654  -0.011   8.130  0.2231 -1.6255  0.1830
 1656TIP3   OH226602   5.794   4.448   1.108  0.7536 -0.2362 -0.5847
 1656TIP3    H126603   5.776   4.542   1.109  1.3886 -0.1159 -0.0040
 1656TIP3    H226604   5.708   4.408   1.092 -0.1927  0.3040  2.5293
 1657TIP3   OH226605   0.266   4.870   0.796 -0.6356 -0.1029 -0.1329
 1657TIP3    H126606   0.242   4.949   0.844 -2.9142  1.1659 -3.0809
 1657TIP3    H226607   0.196   4.807   0.818 -1.9196  0.6188 -1.9312
 1658TIP3   OH226608   6.089   6.723   0.783  0.1265  0.5968  0.2806
 1658TIP3    H126609   6.088   6.628   0.790 -1.7956  0.5703  0.2389
 1658TIP3    H226610   6.033   6.753   0.855 -0.4124  1.5981 -0.5233
 1659TIP3   OH226611   1.220   5.427   1.802  0.4915 -0.5213  0.3238
 1659TIP3    H126612   1.281   5.467   1.740 -0.7312  0.5221 -0.2553
 1659TIP3    H226613   1.217   5.334   1.777  0.7821 -0.3048 -0.5310
 1660TIP3   OH226614   1.338   2.997   7.751 -0.1425  0.3468 -0.5192
 1660TIP3    H126615   1.296   2.923   7.708 -0.2722  0.6623 -0.9460
 1660TIP3    H226616   1.282   3.018   7.825 -0.9400  0.9858 -1.2837
 1661TIP3   OH226617   3.637   4.543   6.310 -0.4509  0.7623  0.5727
 1661TIP3    H126618   3.719   4.495   6.294 -1.0294  0.4172 -1.6935
 1661TIP3    H226619   3.657   4.633   6.287 -0.5921  0.7377  0.3453
 1662TIP3   OH226620   0.932   3.933   8.436 -0.2765 -0.5491 -0.2802
 1662TIP3    H126621   0.949   3.956   8.527 -0.0842 -0.8180 -0.2503
 1662TIP3    H226622   0.963   3.844   8.426  2.5231  0.4502 -1.3925
 1663TIP3   OH226623   1.305   3.264   7.702  0.3485  0.1828 -0.1473
 1663TIP3    H126624   1.295   3.169   7.710 -0.0727  0.0159 -2.0831
 1663TIP3    H226625   1.223   3.300   7.734 -0.4186 -0.2805 -1.4827
 1664TIP3   OH226626   2.670   3.436   0.892  0.2524 -0.3192 -0.0036
 1664TIP3    H126627   2.693   3.526   0.873  1.1330 -0.8957 -1.9278
 1664TIP3    H226628   2.589   3.420   0.843  0.2252 -0.6520  0.1390
 1665TIP3   OH226629   5.841   5.668   8.450 -0.0910 -0.4034  0.8678
 1665TIP3    H126630   5.821   5.632   8.537  0.3906 -0.9066  0.7768
 1665TIP3    H226631   5.854   5.590   8.395  0.0301 -0.0877  0.4475
 1666TIP3   OH226632   4.578   2.729   7.558 -0.4871 -0.2636 -0.0685
 1666TIP3    H126633   4.637   2.804   7.569  0.0075 -0.2235 -2.4064
 1666TIP3    H226634   4.490   2.767   7.564 -0.3620 -0.1804  2.5385
 1667TIP3   OH226635   0.066   3.998   8.048 -0.3506  0.4340 -0.7408
 1667TIP3    H126636   0.128   4.015   8.119 -1.2449  2.0864 -0.2883
 1667TIP3    H226637   0.103   4.042   7.972 -0.5628  0.7087 -0.6851
 1668TIP3   OH226638   6.843   0.292   8.033 -0.1823 -0.3592 -0.0913
 1668TIP3    H126639   6.777   0.356   8.008 -2.0535 -1.3982  1.9246
 1668TIP3    H226640   6.875   0.257   7.950 -0.7524  1.5356 -1.1578
 1669TIP3   OH226641   1.903   0.134   0.313 -0.1551  0.2063 -0.0748
 1669TIP3    H126642   1.985   0.119   0.265 -1.9987  0.9520 -3.8402
 1669TIP3    H226643   1.906   0.226   0.339  0.9643 -0.2646  1.6216
 1670TIP3   OH226644   0.542   2.442   2.148 -0.1081  0.0376  0.4196
 1670TIP3    H126645   0.476   2.485   2.201 -0.6795 -0.5771  0.2216
 1670TIP3    H226646   0.625   2.477   2.179 -0.5317  0.8980  0.5986
 1671TIP3   OH226647   5.711   6.455   7.160 -0.0567 -0.3933 -0.3733
 1671TIP3    H126648   5.709   6.548   7.137  0.8063 -0.1392  0.5214
 1671TIP3    H226649   5.798   6.426   7.133 -0.3074 -0.9385 -0.6082
 1672TIP3   OH226650   2.738   2.012   1.341  0.1581 -0.3685  0.0371
 1672TIP3    H126651   2.652   1.989   1.376  0.3459 -0.9218  0.1420
 1672TIP3    H226652   2.720   2.080   1.276 -0.0302  1.8895  2.3319
 1673TIP3   OH226653   0.849   0.248   7.736 -0.4758  0.0020 -0.0418
 1673TIP3    H126654   0.894   0.254   7.652 -0.2668 -0.7496  0.0142
 1673TIP3    H226655   0.887   0.172   7.779 -0.5114  0.4330  0.7777
 1674TIP3   OH226656   5.078   6.475   2.244  0.0308 -0.2378  0.3351
 1674TIP3    H126657   5.088   6.408   2.312  1.6624 -0.0875  0.2922
 1674TIP3    H226658   5.029   6.546   2.286 -1.5713 -1.3452  0.4322
 1675TIP3   OH226659   6.831   6.408   0.576  0.0316 -0.5239  0.5772
 1675TIP3    H126660   6.921   6.392   0.606 -0.1155 -0.1952  1.2250
 1675TIP3    H226661   6.783   6.328   0.600  0.0662 -0.5429  0.5827
 1676TIP3   OH226662   1.512   5.759   7.813 -0.3308  0.1025 -0.0005
 1676TIP3    H126663   1.517   5.850   7.842  2.0921 -0.0584  0.3394
 1676TIP3    H226664   1.498   5.709   7.893  1.1501  0.0295  0.2506
 1677TIP3   OH226665   3.599   0.834   8.453  0.3937 -0.2418  0.1044
 1677TIP3    H126666   3.522   0.778   8.441 -0.3067  0.8126 -0.5112
 1677TIP3    H226667   3.565   0.924   8.445  1.2800  0.3415  2.2082
 1678TIP3   OH226668   2.421   3.141   1.104 -0.4195 -0.0930  0.3108
 1678TIP3    H126669   2.488   3.074   1.107  0.3692  0.6086 -0.8456
 1678TIP3    H226670   2.353   3.104   1.047 -0.5574 -0.4031  0.6760
 1679TIP3   OH226671   0.283   5.016   0.304 -0.0354 -0.1589 -0.4550
 1679TIP3    H126672   0.357   5.040   0.248 -0.2129 -0.8689 -1.0214
 1679TIP3    H226673   0.236   5.097   0.319 -0.5519 -0.1127 -2.1935
 1680TIP3   OH226674   4.952   3.115   6.308 -0.2610  0.0726  0.8504
 1680TIP3    H126675   4.981   3.025   6.292  0.9878  0.5445  0.3380
 1680TIP3    H226676   4.872   3.106   6.359  0.6366 -1.2947  2.0796
 1681TIP3   OH226677   1.330   6.289   1.615  0.5984 -0.2823 -0.0820
 1681TIP3    H126678   1.336   6.201   1.653  0.6862 -0.0034  0.5558
 1681TIP3    H226679   1.414   6.301   1.570  0.4771 -0.6279 -0.4122
 1682TIP3   OH226680   3.561   5.855   7.868  0.1385  0.1461  0.0473
 1682TIP3    H126681   3.526   5.944   7.862  0.8843  0.5800  1.7083
 1682TIP3    H226682   3.490   5.803   7.904 -1.4514 -0.7179 -3.8242
 1683TIP3   OH226683   0.371   1.380   6.342 -0.0199  0.0312  0.0409
 1683TIP3    H126684   0.357   1.458   6.396  0.1969 -0.4309  0.7762
 1683TIP3    H226685   0.321   1.311   6.386  2.3190 -1.0073  1.2314
 1684TIP3   OH226686   6.487   5.437   6.821 -0.4914  0.2194 -0.4429
 1684TIP3    H126687   6.391   5.441   6.823 -0.5890 -0.6206 -1.9772
 1684TIP3    H226688   6.509   5.441   6.728  0.8464 -1.6033 -0.2490
 1685TIP3   OH226689   5.616   6.306   0.847 -0.4749 -0.2465 -0.1406
 1685TIP3    H126690   5.563   6.329   0.771  0.2628  2.6386  0.1151
 1685TIP3    H226691   5.682   6.246   0.812 -0.9108  0.0211 -1.4977
 1686TIP3   OH226692   1.168   5.811   0.727 -0.7460 -0.1381  0.0177
 1686TIP3    H126693   1.224   5.842   0.655  0.1002 -1.3065  0.1371
 1686TIP3    H226694   1.220   5.826   0.806  0.0952 -2.6069  0.0043
 1687TIP3   OH226695   4.419   5.667   8.319  0.2838 -0.2674  0.6462
 1687TIP3    H126696   4.345   5.609   8.300 -0.5620  0.9992 -0.1210
 1687TIP3    H226697   4.491   5.633   8.265 -0.0822 -0.8275  0.5032
 1688TIP3   OH226698   0.434   3.252   1.214  0.1865 -0.0043  0.1339
 1688TIP3    H126699   0.455   3.184   1.151 -1.6385 -0.2077 -0.3313
 1688TIP3    H226700   0.473   3.222   1.296  1.8669 -0.1509 -0.6781
 1689TIP3   OH226701   1.099   1.419   1.355  0.5369 -0.4848  0.7991
 1689TIP3    H126702   1.063   1.379   1.276 -0.1010  0.8871  0.3585
 1689TIP3    H226703   1.021   1.443   1.406  0.9105 -0.1807  1.2290
 1690TIP3   OH226704   5.513   5.322   1.002 -0.1194  0.3118 -0.6570
 1690TIP3    H126705   5.574   5.272   0.947 -1.1407 -0.3845 -1.1894
 1690TIP3    H226706   5.454   5.365   0.940 -1.5520 -0.8212 -0.1485
 1691TIP3   OH226707   6.924   0.399   8.497 -0.6091 -0.1244  0.3004
 1691TIP3    H126708   6.899   0.356   8.579 -1.3717  0.2191  0.2629
 1691TIP3    H226709   6.987   0.340   8.457 -1.1165 -0.8732  0.5766
 1692TIP3   OH226710   6.037   5.583   2.131 -0.9678 -0.5494  0.4118
 1692TIP3    H126711   5.947   5.582   2.163 -2.3919  0.5088 -3.0464
 1692TIP3    H226712   6.069   5.494   2.145 -2.6660 -1.0497  1.4004
 1693TIP3   OH226713   2.618   5.035   7.895 -0.2573  0.1082  0.4325
 1693TIP3    H126714   2.669   5.081   7.829 -1.1831  1.3528  0.5514
 1693TIP3    H226715   2.636   4.942   7.880  1.1919  0.4683 -0.1942
 1694TIP3   OH226716   3.014   4.455   5.951  0.0737  0.1159 -0.4528
 1694TIP3    H126717   2.970   4.374   5.975  0.3132  0.1534  0.1443
 1694TIP3    H226718   3.047   4.489   6.034  0.8864  0.2840 -0.8376
 1695TIP3   OH226719   6.565   1.636   0.599 -0.9609  0.3499  0.2484
 1695TIP3    H126720   6.518   1.573   0.544 -1.8337 -0.1039  1.4658
 1695TIP3    H226721   6.645   1.655   0.550 -2.2412  0.8992 -1.7213
 1696TIP3   OH226722   6.799   4.112   1.470 -0.0577 -0.1842  0.0381
 1696TIP3    H126723   6.837   4.025   1.469  1.0380  0.2826 -0.2978
 1696TIP3    H226724   6.787   4.134   1.377 -1.8496 -0.5982  0.1268
 1697TIP3   OH226725   5.965   0.093   1.387 -0.7829  0.6083 -0.3494
 1697TIP3    H126726   5.877   0.128   1.403 -1.3693 -1.4733  1.3756
 1697TIP3    H226727   5.991   0.054   1.470  1.3920  0.3209 -1.1156
 1698TIP3   OH226728   3.119   5.969   1.033 -0.0036 -0.4082  0.6032
 1698TIP3    H126729   3.068   5.935   1.106  0.4671  1.6104  1.9584
 1698TIP3    H226730   3.181   6.030   1.073  0.5380  0.4929 -1.4490
 1699TIP3   OH226731   5.266   2.752   0.304 -0.3728  0.5751 -0.3443
 1699TIP3    H126732   5.295   2.838   0.333  0.0974 -0.0590  1.1402
 1699TIP3    H226733   5.340   2.694   0.320 -1.1728 -0.3774  0.0520
 1700TIP3   OH226734   6.748   4.001   0.871  0.8970  0.2553  0.5488
 1700TIP3    H126735   6.820   3.949   0.908  1.3354  0.4472 -0.0153
 1700TIP3    H226736   6.691   4.019   0.945  0.7702 -0.9740  0.7794
 1701TIP3   OH226737   4.476   4.053   8.487  0.2543  0.4304 -0.0846
 1701TIP3    H126738   4.430   4.036   8.404 -0.8698  0.9118  0.4210
 1701TIP3    H226739   4.478   3.967   8.530 -0.5882  0.4874  0.0861
 1702TIP3   OH226740   0.493   4.325   1.517  0.1349 -0.3642  0.5777
 1702TIP3    H126741   0.458   4.369   1.439  0.0256 -0.2331  0.6985
 1702TIP3    H226742   0.417   4.317   1.575  0.3044 -0.0754  0.8430
 1703TIP3   OH226743   3.858   0.108   0.115 -0.1110  0.5770  0.0872
 1703TIP3    H126744   3.914   0.153   0.178 -0.0848  0.2327  0.3100
 1703TIP3    H226745   3.880   0.149   0.031  1.1813 -0.2022  0.0216
 1704TIP3   OH226746   0.528   2.773   0.528  0.2098 -0.6656  0.1814
 1704TIP3    H126747   0.503   2.831   0.457 -0.6385 -1.4090 -0.1514
 1704TIP3    H226748   0.550   2.831   0.601 -0.4500  0.0746 -0.2006
 1705TIP3   OH226749   2.194   3.397   1.391  0.4504 -0.4449 -0.0357
 1705TIP3    H126750   2.242   3.367   1.314 -1.2538  0.6115 -1.6115
 1705TIP3    H226751   2.139   3.322   1.416  0.1970 -0.4444 -0.5694
 1706TIP3   OH226752   2.296   0.199   8.562  0.0536  0.1970  0.6285
 1706TIP3    H126753   2.302   0.106   8.583 -1.3844  0.1892  1.1259
 1706TIP3    H226754   2.335   0.242   8.638  3.3173  0.0145 -0.7756
 1707TIP3   OH226755   5.995   3.168   8.321 -0.2091 -0.3525  0.1629
 1707TIP3    H126756   6.019   3.185   8.230 -1.0245  2.8046  0.4522
 1707TIP3    H226757   5.965   3.077   8.321  2.1882 -1.2777 -2.1623
 1708TIP3   OH226758   1.351   4.970   2.442  0.2986 -0.1486  0.2417
 1708TIP3    H126759   1.342   4.875   2.451 -0.3946 -0.5313 -3.1086
 1708TIP3    H226760   1.442   4.983   2.416 -0.2398 -0.2576 -1.8761
 1709TIP3   OH226761   1.981   1.271   0.774  0.2032 -0.0260 -0.0277
 1709TIP3    H126762   1.925   1.273   0.851 -0.5783 -1.9592 -0.5003
 1709TIP3    H226763   1.946   1.338   0.717  0.2885  0.8666  0.9289
 1710TIP3   OH226764   2.892   3.711   7.849  0.4089  0.1544 -0.3805
 1710TIP3    H126765   2.924   3.668   7.770  1.8260 -0.0965  0.3067
 1710TIP3    H226766   2.920   3.654   7.921 -0.9659  0.3113  0.3122
 1711TIP3   OH226767   1.150   5.438   0.852 -0.3456  0.0065  0.0881
 1711TIP3    H126768   1.200   5.366   0.891  0.0308  0.8005  1.1335
 1711TIP3    H226769   1.110   5.400   0.774  1.5668 -0.7750 -0.5719
 1712TIP3   OH226770   2.564   0.953   1.780 -0.5112  0.0884 -0.3167
 1712TIP3    H126771   2.653   0.953   1.743 -0.7337  0.3205 -0.8731
 1712TIP3    H226772   2.575   0.983   1.870  0.3473 -2.7206  0.6239
 1713TIP3   OH226773   2.531   4.800   8.503 -0.2366  0.0053 -0.4910
 1713TIP3    H126774   2.480   4.742   8.447 -0.7692 -0.0848  0.0711
 1713TIP3    H226775   2.591   4.743   8.550 -0.0864  0.0303 -0.6509
 1714TIP3   OH226776   0.662   1.573   1.822  0.2432  0.1241  0.2211
 1714TIP3    H126777   0.712   1.534   1.895  1.3311  1.5069  0.2683
 1714TIP3    H226778   0.670   1.668   1.836 -0.9510  0.3944 -0.7785
 1715TIP3   OH226779   1.775   0.433   6.662  0.3016  0.4039  0.2107
 1715TIP3    H126780   1.704   0.494   6.684 -0.4599  0.1906 -1.4905
 1715TIP3    H226781   1.731   0.348   6.652  1.0314 -0.0204  0.5219
 1716TIP3   OH226782   3.598   1.518   0.327 -0.4040 -0.9715 -0.3058
 1716TIP3    H126783   3.682   1.471   0.323 -1.1377 -2.4882  0.8522
 1716TIP3    H226784   3.593   1.551   0.417 -0.3697  0.4776 -0.8189
 1717TIP3   OH226785   4.985   4.929   0.439 -0.0786  0.7665 -0.8572
 1717TIP3    H126786   5.045   4.878   0.494 -1.8371 -1.0570 -0.5426
 1717TIP3    H226787   5.043   4.981   0.383  1.7803  0.1994  0.4311
 1718TIP3   OH226788   0.467   5.302   2.203  0.0597  0.2736 -0.3012
 1718TIP3    H126789   0.530   5.261   2.263 -2.4281  2.0861  3.9325
 1718TIP3    H226790   0.504   5.388   2.185 -0.7292  1.0474  1.5652
 1719TIP3   OH226791   0.840   2.145   6.487  0.0682 -0.5486  0.0976
 1719TIP3    H126792   0.817   2.208   6.419 -1.7312 -0.2938  0.8743
 1719TIP3    H226793   0.851   2.198   6.566  1.3223 -0.9251  0.1856
 1720TIP3   OH226794   3.728   4.586   7.032  0.4082  0.7306 -0.8003
 1720TIP3    H126795   3.727   4.680   7.047 -1.5839  0.9223 -1.8562
 1720TIP3    H226796   3.754   4.576   6.941  4.1010 -0.0155  0.1282
 1721TIP3   OH226797   2.792   6.637   8.298  0.6211  0.0857  0.3934
 1721TIP3    H126798   2.817   6.548   8.320  0.5696  0.0611  0.3520
 1721TIP3    H226799   2.763   6.676   8.381 -1.8064 -0.7143  0.0105
 1722TIP3   OH226800   1.505   3.229   7.165  0.2507 -0.3933  0.1057
 1722TIP3    H126801   1.476   3.320   7.165  0.7315 -0.2384 -0.2275
 1722TIP3    H226802   1.599   3.233   7.148  0.4249 -0.9054  0.8709
 1723TIP3   OH226803   2.322   3.045   8.533 -0.2825 -0.1905  1.2668
 1723TIP3    H126804   2.403   3.091   8.514  1.0030 -1.7201  2.7370
 1723TIP3    H226805   2.306   3.063   8.626 -0.9986 -0.8307  1.2800
 1724TIP3   OH226806   2.377   5.576   0.266  0.3710  0.2417 -0.2794
 1724TIP3    H126807   2.382   5.605   0.357 -0.3435  1.6734 -0.6802
 1724TIP3    H226808   2.400   5.483   0.270  2.7414  0.7833  1.0515
 1725TIP3   OH226809   2.664   3.790   7.764 -0.0981 -0.1870 -0.0153
 1725TIP3    H126810   2.603   3.734   7.813 -1.5557  0.3292 -1.1780
 1725TIP3    H226811   2.750   3.768   7.800 -1.0859  0.3483  2.9602
 1726TIP3   OH226812   0.788   2.192   8.076  0.2301  0.0434 -0.2885
 1726TIP3    H126813   0.723   2.246   8.032  1.5066  3.2491  1.3903
 1726TIP3    H226814   0.746   2.165   8.158  0.8115  1.9719  0.7161
 1727TIP3   OH226815   5.433   6.728   8.196 -0.1087  0.1856  0.4844
 1727TIP3    H126816   5.437   6.702   8.104  0.9367  0.5254  0.4123
 1727TIP3    H226817   5.357   6.682   8.231  0.4079 -1.2084 -0.1646
 1728TIP3   OH226818   4.735   4.332   2.423  0.0391  0.4850 -0.6798
 1728TIP3    H126819   4.783   4.341   2.506 -0.8108 -1.0266  0.0090
 1728TIP3    H226820   4.770   4.402   2.368  0.9837  1.2116  0.7781
 1729TIP3   OH226821   6.244   1.383   0.247 -0.2583 -0.0562 -0.5992
 1729TIP3    H126822   6.231   1.378   0.152 -1.1298 -1.0760 -0.4461
 1729TIP3    H226823   6.166   1.343   0.284 -1.3057  2.8639  0.6421
 1730TIP3   OH226824   5.789   4.252   7.164  0.4113  0.0068 -0.0511
 1730TIP3    H126825   5.847   4.283   7.094 -1.6372  1.8236 -1.0534
 1730TIP3    H226826   5.751   4.331   7.201 -0.6417 -1.0865  1.2938
 1731TIP3   OH226827   6.711   1.786   8.541 -0.3738 -0.0345  0.5481
 1731TIP3    H126828   6.637   1.753   8.489  0.1034 -1.8056  0.9375
 1731TIP3    H226829   6.760   1.841   8.480 -1.3149  0.1326 -0.0828
 1732TIP3   OH226830   2.264   0.646   6.812 -0.0388 -0.5562 -0.3429
 1732TIP3    H126831   2.343   0.699   6.819  0.9625 -2.0266 -0.2397
 1732TIP3    H226832   2.279   0.589   6.736 -0.9640 -0.9173 -0.2751
 1733TIP3   OH226833   4.558   2.417   2.210  0.0499  0.4378 -0.1455
 1733TIP3    H126834   4.598   2.485   2.265  1.9287  0.1535 -1.0495
 1733TIP3    H226835   4.625   2.348   2.207 -1.4359 -1.0647 -0.0041
 1734TIP3   OH226836   0.796   3.628   0.151 -0.0280 -0.1197 -0.1869
 1734TIP3    H126837   0.755   3.570   0.215 -0.1553 -2.0709 -1.9537
 1734TIP3    H226838   0.874   3.581   0.122  0.8185  1.3854 -0.4461
 1735TIP3   OH226839   4.994   5.503   0.785  0.3881 -0.2902  0.2042
 1735TIP3    H126840   4.917   5.451   0.809  1.2441 -1.1030  1.2872
 1735TIP3    H226841   4.995   5.575   0.848  1.2080 -0.9954  1.0223
 1736TIP3   OH226842   4.140   4.419   1.666  0.1099  0.8387  0.8269
 1736TIP3    H126843   4.164   4.350   1.604  1.8676  1.2163  1.0368
 1736TIP3    H226844   4.156   4.501   1.619 -1.8528  1.1439  0.6213
 1737TIP3   OH226845   5.712   4.571   7.240 -0.2432  0.0330  0.0195
 1737TIP3    H126846   5.750   4.655   7.265  0.5285  0.0809 -1.2156
 1737TIP3    H226847   5.688   4.582   7.148  0.6921 -1.3629 -0.4295
 1738TIP3   OH226848   2.218   1.445   2.052 -0.0954 -0.0842 -0.4248
 1738TIP3    H126849   2.148   1.426   1.990  0.6919  0.5327 -1.5263
 1738TIP3    H226850   2.247   1.533   2.031  1.8859 -0.7791 -0.8824
 1739TIP3   OH226851   0.397   0.100   7.964  0.1702 -0.1277  0.1669
 1739TIP3    H126852   0.337   0.173   7.976 -0.0630  0.2213 -2.5837
 1739TIP3    H226853   0.478   0.139   7.931  1.4949 -0.7486  2.4509
 1740TIP3   OH226854   6.065   0.221   1.796  0.3315 -0.3612 -0.1780
 1740TIP3    H126855   6.153   0.249   1.820  0.1995 -0.1586  0.0669
 1740TIP3    H226856   6.017   0.217   1.878 -0.2001  0.6123 -0.4259
 1741TIP3   OH226857   5.201   3.082   0.899 -0.4301 -0.0802  0.4935
 1741TIP3    H126858   5.190   3.148   0.830  1.0111  1.1251  1.3446
 1741TIP3    H226859   5.123   3.092   0.954 -1.2383 -0.5536 -0.5369
 1742TIP3   OH226860   3.940   4.690   1.097  0.2816  0.4430  0.4294
 1742TIP3    H126861   3.951   4.606   1.053 -1.1163 -0.7614  2.2507
 1742TIP3    H226862   3.905   4.749   1.030 -2.3460 -1.4803 -0.0184
 1743TIP3   OH226863   5.720   0.235   1.840 -0.3439  0.1860  0.6033
 1743TIP3    H126864   5.720   0.174   1.915 -3.1614  0.0671  0.6182
 1743TIP3    H226865   5.812   0.238   1.812  0.3498 -1.9162  2.3233
 1744TIP3   OH226866   1.986   5.443   0.626  0.1086 -0.2481 -0.1882
 1744TIP3    H126867   1.907   5.398   0.596 -0.5412  1.3702 -1.0317
 1744TIP3    H226868   2.013   5.496   0.552  1.1378  0.3449  0.5862
 1745TIP3   OH226869   0.179   2.010   6.762  0.0719 -0.0627  0.3447
 1745TIP3    H126870   0.114   2.060   6.712  0.3896 -0.2838 -0.2982
 1745TIP3    H226871   0.129   1.940   6.804 -0.2881  0.4608  0.8087
 1746TIP3   OH226872   0.442   6.424   8.527 -0.1225 -0.0761 -0.1622
 1746TIP3    H126873   0.509   6.417   8.595 -0.4056  0.4110  0.1732
 1746TIP3    H226874   0.411   6.335   8.515  0.2167 -0.2258  0.0593
 1747TIP3   OH226875   6.636   2.590   1.827 -0.4542 -0.1838  0.2513
 1747TIP3    H126876   6.557   2.548   1.792 -1.5308  0.7240  1.5237
 1747TIP3    H226877   6.636   2.677   1.787  0.4203 -0.4911 -0.4498
 1748TIP3   OH226878   2.424   4.516   8.001  0.6982 -0.1631 -0.1034
 1748TIP3    H126879   2.377   4.551   7.925 -0.5190  1.0888  1.1840
 1748TIP3    H226880   2.382   4.557   8.076  1.9940 -1.2472  1.2557
 1749TIP3   OH226881   4.516   2.544   6.837 -0.1057 -0.3479  0.6117
 1749TIP3    H126882   4.503   2.577   6.748  3.0629  0.6393  0.3876
 1749TIP3    H226883   4.433   2.501   6.859 -1.5525  0.7246 -2.1892
 1750TIP3   OH226884   3.675   4.842   6.902  0.8401  0.5458  0.4524
 1750TIP3    H126885   3.611   4.911   6.922  0.9739  1.4934 -2.0116
 1750TIP3    H226886   3.756   4.890   6.882  1.1966 -0.3749 -0.3804
 1751TIP3   OH226887   0.680   2.127   6.850  0.1938  0.0325 -0.7167
 1751TIP3    H126888   0.626   2.206   6.843 -0.2561 -0.0185  1.4522
 1751TIP3    H226889   0.770   2.158   6.837  0.2239  1.3175  1.8559
 1752TIP3   OH226890   4.290   5.463   1.417 -0.0213  0.1326  0.1422
 1752TIP3    H126891   4.259   5.411   1.343  0.2650  0.0332  0.0933
 1752TIP3    H226892   4.374   5.425   1.441  1.6181  2.2746 -1.7037
 1753TIP3   OH226893   4.067   1.089   1.056  0.2949  0.8244  0.2914
 1753TIP3    H126894   3.997   1.062   1.115  0.9276  0.3258  0.8221
 1753TIP3    H226895   4.071   1.019   0.990 -1.0689  1.8513 -0.9491
 1754TIP3   OH226896   0.941   2.877   7.862  0.4244  0.5268  0.3438
 1754TIP3    H126897   0.995   2.868   7.941  0.8208 -0.4635 -0.0285
 1754TIP3    H226898   0.993   2.837   7.793 -0.8291 -0.5508 -0.0083
 1755TIP3   OH226899   3.617   1.578   0.601 -0.4661  0.1583 -0.2793
 1755TIP3    H126900   3.613   1.547   0.692 -0.8465 -0.7565 -0.5916
 1755TIP3    H226901   3.622   1.673   0.608  1.2188  0.0413  0.7429
 1756TIP3   OH226902   0.696   3.900   1.959 -0.3950 -0.1957 -0.2677
 1756TIP3    H126903   0.779   3.876   1.999 -0.5747  1.2179  1.0329
 1756TIP3    H226904   0.661   3.817   1.925  1.1047 -0.9526 -0.0380
 1757TIP3   OH226905   3.118   3.589   1.357 -0.8122 -0.2942 -0.1260
 1757TIP3    H126906   3.094   3.644   1.282  1.0282  1.4443  0.4705
 1757TIP3    H226907   3.210   3.568   1.342 -0.4150  0.0841  1.6220
 1758TIP3   OH226908   6.177   5.112   6.595 -0.2996 -0.2051  0.2883
 1758TIP3    H126909   6.098   5.124   6.543 -0.8347 -1.6363  0.7303
 1758TIP3    H226910   6.215   5.030   6.562  1.5856  0.9653 -0.6322
 1759TIP3   OH226911   3.523   6.844   8.390  0.4604 -0.2213 -0.3847
 1759TIP3    H126912   3.549   6.879   8.475  2.0508 -0.8456 -0.5741
 1759TIP3    H226913   3.466   6.771   8.410  0.0336  0.2371  0.1065
 1760TIP3   OH226914   5.711   4.453   0.196 -0.9084 -0.0151 -0.6122
 1760TIP3    H126915   5.681   4.543   0.205 -0.7435 -0.0727  0.5923
 1760TIP3    H226916   5.644   4.401   0.242  0.5417 -0.2201  1.3787
 1761TIP3   OH226917   4.005   3.881   1.148 -0.5375  0.2361  0.1401
 1761TIP3    H126918   4.023   3.907   1.058  0.8962 -1.9701 -0.2892
 1761TIP3    H226919   3.945   3.807   1.141 -3.3049  2.1906  1.2428
 1762TIP3   OH226920   6.655   3.779   1.093 -0.0938 -0.0451  0.3336
 1762TIP3    H126921   6.573   3.742   1.061  0.2886 -1.7598  1.2378
 1762TIP3    H226922   6.723   3.733   1.043  0.3480  1.1948 -0.2460
 1763TIP3   OH226923   2.027   3.959   0.968 -0.4405  0.3740  0.3770
 1763TIP3    H126924   2.074   3.954   0.885 -0.0850  2.1247  0.4211
 1763TIP3    H226925   1.980   3.876   0.975  0.2066 -0.1543 -1.1441
 1764TIP3   OH226926   6.468   1.537   7.007 -0.5092  0.0456 -0.1085
 1764TIP3    H126927   6.541   1.586   7.045 -0.3744 -0.3358  0.1330
 1764TIP3    H226928   6.390   1.581   7.041 -0.4182 -1.1201  1.8032
 1765TIP3   OH226929   6.032   3.965   1.473  0.0041  0.3381  0.5304
 1765TIP3    H126930   6.026   3.894   1.538 -0.1806  0.0312  0.1787
 1765TIP3    H226931   6.051   3.920   1.391  0.9871  0.7881  0.5026
 1766TIP3   OH226932   4.900   4.257   6.655  0.0037 -0.2839  0.0890
 1766TIP3    H126933   4.913   4.166   6.628  1.5905 -0.7050  2.0475
 1766TIP3    H226934   4.987   4.296   6.649 -0.8907  1.5467 -2.0402
 1767TIP3   OH226935   2.894   2.477   0.766  0.1489  0.3838  0.9676
 1767TIP3    H126936   2.848   2.422   0.830  0.7485 -0.4628  0.6850
 1767TIP3    H226937   2.950   2.534   0.819 -0.1042  0.3780  1.2421
 1768TIP3   OH226938   0.687   5.678   1.011 -0.7023  0.1211 -0.2566
 1768TIP3    H126939   0.749   5.608   1.031  0.1553  0.9531  0.0735
 1768TIP3    H226940   0.642   5.648   0.931  2.6139  0.9681 -2.6658
 1769TIP3   OH226941   3.163   5.708   8.517  0.6990  0.3568 -0.0706
 1769TIP3    H126942   3.126   5.744   8.436 -1.4530 -0.6309  0.4039
 1769TIP3    H226943   3.200   5.624   8.492 -1.0750 -0.5311  0.1227
 1770TIP3   OH226944   1.243   4.894   1.236 -0.3096 -0.0130 -0.0630
 1770TIP3    H126945   1.309   4.963   1.226 -1.2697  1.0144  0.3701
 1770TIP3    H226946   1.284   4.830   1.294  0.4171  0.4595 -0.0314
 1771TIP3   OH226947   4.733   6.362   2.034  0.2058 -0.1693  0.0787
 1771TIP3    H126948   4.719   6.401   2.119 -0.1787 -0.7542  0.2908
 1771TIP3    H226949   4.758   6.271   2.053 -1.0128 -0.6351 -0.4533
 1772TIP3   OH226950   2.145   4.485   1.806 -0.2841  0.3084  0.5222
 1772TIP3    H126951   2.079   4.457   1.742 -0.7082  0.1323  1.0215
 1772TIP3    H226952   2.164   4.406   1.857  2.0954 -0.2554 -1.1075
 1773TIP3   OH226953   0.078   2.839   8.192  0.3854 -0.1116 -0.6419
 1773TIP3    H126954   0.125   2.914   8.228 -1.6960  1.3693 -0.7968
 1773TIP3    H226955   0.131   2.811   8.117  0.7495  1.8328 -1.1583
 1774TIP3   OH226956   0.310   1.342   8.152 -0.2732  0.5967 -0.1417
 1774TIP3    H126957   0.221   1.361   8.124 -0.2321 -1.4455 -1.9708
 1774TIP3    H226958   0.357   1.325   8.070  1.3225 -0.2089  0.8957
 1775TIP3   OH226959   4.579   5.613   6.330 -0.4326  1.0234  0.5432
 1775TIP3    H126960   4.671   5.633   6.341  0.0246 -0.8967  0.6293
 1775TIP3    H226961   4.534   5.664   6.397  0.8266  0.2015  2.0503
 1776TIP3   OH226962   2.837   2.003   7.604  0.5921 -0.2104 -0.0872
 1776TIP3    H126963   2.779   1.969   7.537 -0.9924  1.4439  0.3501
 1776TIP3    H226964   2.831   1.940   7.676  0.7027 -0.9411 -0.7172
 1777TIP3   OH226965   5.744   1.290   6.637 -0.1351  0.5361  0.3408
 1777TIP3    H126966   5.810   1.345   6.594  0.3344 -1.1241 -1.1507
 1777TIP3    H226967   5.760   1.303   6.731  2.2438  0.2842  0.0293
 1778TIP3   OH226968   5.737   1.890   7.548 -0.1767 -0.0493  0.0505
 1778TIP3    H126969   5.805   1.951   7.522 -0.3304 -0.0594 -0.3893
 1778TIP3    H226970   5.677   1.941   7.602  0.8591 -0.3555  1.5382
 1779TIP3   OH226971   4.342   2.956   0.760 -0.1285  0.4424  0.6091
 1779TIP3    H126972   4.270   2.912   0.715  0.7302 -0.3764  0.0112
 1779TIP3    H226973   4.314   3.048   0.766 -0.8809  0.2820 -0.2944
 1780TIP3   OH226974   1.170   3.865   1.242  0.6442  0.3698  0.4445
 1780TIP3    H126975   1.075   3.872   1.255  0.9012  0.6308  2.4632
 1780TIP3    H226976   1.191   3.937   1.183 -0.8561 -1.8694 -3.2455
 1781TIP3   OH226977   3.922   3.787   0.143 -0.5988  0.3180  0.0612
 1781TIP3    H126978   3.833   3.824   0.141 -0.0398  1.7816  0.8602
 1781TIP3    H226979   3.963   3.818   0.062 -1.1850 -1.4289 -0.9546
 1782TIP3   OH226980   1.025   3.616   0.482  0.4203 -0.1661 -0.1326
 1782TIP3    H126981   0.953   3.564   0.520  0.4568 -0.2700 -0.2034
 1782TIP3    H226982   1.012   3.704   0.517 -1.0406  0.3707 -1.8680
 1783TIP3   OH226983   6.359   2.075   0.822  0.0587 -0.4761  1.0003
 1783TIP3    H126984   6.442   2.056   0.866  0.5562 -0.1249  0.2317
 1783TIP3    H226985   6.307   1.995   0.833  0.3063 -0.5274  1.8989
 1784TIP3   OH226986   2.958   1.935   1.703 -0.3865  0.3479 -0.1952
 1784TIP3    H126987   2.863   1.926   1.692 -0.2346 -0.7739 -0.6617
 1784TIP3    H226988   2.968   1.971   1.791 -1.2327  0.0837  0.0204
 1785TIP3   OH226989   0.282   3.194   6.456  0.1881 -0.2784 -0.3535
 1785TIP3    H126990   0.205   3.213   6.510  0.1519 -1.2329 -0.0476
 1785TIP3    H226991   0.301   3.101   6.473  2.4200  0.3307  0.9222
 1786TIP3   OH226992   2.126   1.811   0.042  0.4700 -0.1229  0.0873
 1786TIP3    H126993   2.057   1.755   0.008  2.2750 -3.0437  0.9355
 1786TIP3    H226994   2.194   1.810  -0.025  1.0193  0.0627  0.6318
 1787TIP3   OH226995   4.685   6.656   1.745 -0.1333 -0.2811 -0.2717
 1787TIP3    H126996   4.688   6.672   1.839 -0.2231  0.2460 -0.3541
 1787TIP3    H226997   4.604   6.607   1.732  0.1697 -0.8580 -0.0053
 1788TIP3   OH226998   5.416   3.648   7.418  0.1965  0.7535  0.3670
 1788TIP3    H126999   5.496   3.655   7.365  1.0968 -0.9410  1.4180
 1788TIP3    H227000   5.347   3.631   7.354  1.0614 -0.0439 -0.3829
 1789TIP3   OH227001   3.991   0.638   0.678  0.0284  0.0218 -0.2970
 1789TIP3    H127002   3.937   0.654   0.755 -1.0642 -0.5065 -0.9420
 1789TIP3    H227003   4.075   0.609   0.714 -0.6129 -0.6589  0.6857
 1790TIP3   OH227004   0.803   4.533   7.763  0.8856 -0.6641  0.1614
 1790TIP3    H127005   0.758   4.489   7.835  0.8152  0.0701  0.5644
 1790TIP3    H227006   0.802   4.626   7.786 -0.5184 -0.2054 -1.5042
 1791TIP3   OH227007   0.354   1.648   1.758  0.2709  0.1803 -0.1583
 1791TIP3    H127008   0.366   1.599   1.677  2.3573 -0.7178  0.6319
 1791TIP3    H227009   0.441   1.652   1.797 -0.7651  0.0579  2.3314
 1792TIP3   OH227010   6.247   1.973   7.998  0.1517  1.3753  0.0760
 1792TIP3    H127011   6.222   2.066   7.992  0.4296  1.4370 -0.1582
 1792TIP3    H227012   6.166   1.925   7.982  0.4132  1.5550 -1.9929
 1793TIP3   OH227013   2.295   3.705   0.864  0.1192  0.0548  0.4214
 1793TIP3    H127014   2.275   3.698   0.771  0.2531  1.2217  0.2922
 1793TIP3    H227015   2.349   3.783   0.871 -0.1875  0.1832  1.5284
 1794TIP3   OH227016   0.882   2.726   1.653 -0.0992  0.1982  0.3428
 1794TIP3    H127017   0.867   2.649   1.599  0.0274  0.5012 -0.1275
 1794TIP3    H227018   0.852   2.800   1.600 -0.2033  0.4794  0.7796
 1795TIP3   OH227019   6.333   4.241   0.748  0.4071  0.5290  0.0604
 1795TIP3    H127020   6.328   4.313   0.686 -0.9406  0.7542  0.3840
 1795TIP3    H227021   6.309   4.280   0.832 -2.3822 -0.6182 -0.0848
 1796TIP3   OH227022   0.695   4.656   0.692 -0.2030  0.4791  0.1522
 1796TIP3    H127023   0.621   4.715   0.677 -0.2423  0.4539  0.2456
 1796TIP3    H227024   0.661   4.569   0.672 -0.5273  0.3323  1.2530
 1797TIP3   OH227025   0.160   4.506   0.449 -0.2734  0.0188 -0.2538
 1797TIP3    H127026   0.146   4.517   0.355 -0.6037 -1.4149 -0.3939
 1797TIP3    H227027   0.097   4.565   0.490 -1.7384 -1.0322 -0.9349
 1798TIP3   OH227028   2.931   4.344   1.800  0.2480  0.0965  0.1729
 1798TIP3    H127029   2.898   4.363   1.888 -0.4305 -1.0159  0.1705
 1798TIP3    H227030   2.986   4.419   1.779  0.8170  0.1535  1.7419
 1799TIP3   OH227031   3.974   0.285   0.311  0.0664  0.1713 -0.7416
 1799TIP3    H127032   3.943   0.366   0.353  0.1461 -0.6311  0.9313
 1799TIP3    H227033   4.004   0.230   0.383  0.4728 -1.1772 -1.8902
 1800TIP3   OH227034   3.956   2.534   7.694 -0.1050  0.2217  0.1521
 1800TIP3    H127035   4.027   2.474   7.670  0.0983  0.4185  0.2575
 1800TIP3    H227036   3.933   2.509   7.783 -0.5751 -0.2343 -0.0963
 1801TIP3   OH227037   5.033   0.491   1.455  0.8302  0.0496  0.1163
 1801TIP3    H127038   5.127   0.499   1.472  0.8567  0.4886 -0.2150
 1801TIP3    H227039   4.994   0.478   1.541  1.1148  0.7048  0.3511
 1802TIP3   OH227040   0.495   6.353   2.138 -0.0039 -0.2777 -0.1862
 1802TIP3    H127041   0.459   6.436   2.107  0.1166  0.7783  2.2397
 1802TIP3    H227042   0.429   6.321   2.200  1.3917 -0.3022  1.3580
 1803TIP3   OH227043   4.813   4.371   7.489  0.2247  0.5692 -0.1111
 1803TIP3    H127044   4.875   4.365   7.561  1.6378 -0.9070 -1.3852
 1803TIP3    H227045   4.772   4.284   7.485 -0.3536  0.8581 -0.6449
 1804TIP3   OH227046   6.930   1.870   1.780  0.2266 -0.3272  0.4614
 1804TIP3    H127047   6.946   1.962   1.797  0.3376 -0.2779  0.1041
 1804TIP3    H227048   7.017   1.832   1.767  0.2082 -0.5609  0.9833
 1805TIP3   OH227049   6.869   6.277   7.308  0.4023 -0.4133  0.6633
 1805TIP3    H127050   6.803   6.315   7.366 -0.2052 -0.4440  0.0026
 1805TIP3    H227051   6.916   6.215   7.364 -0.3885 -0.6887  1.0519
 1806TIP3   OH227052   2.397   6.403   7.523  0.5000  0.6064  0.0276
 1806TIP3    H127053   2.356   6.324   7.488 -0.1710  0.7658  0.4373
 1806TIP3    H227054   2.488   6.398   7.493  0.6228 -0.6213  0.5223
 1807TIP3   OH227055   1.348   1.955   7.041 -0.5325 -0.2636 -0.3103
 1807TIP3    H127056   1.357   1.937   6.947 -0.8649 -2.1351 -0.0193
 1807TIP3    H227057   1.315   2.045   7.045  0.2525  0.1407 -1.9521
 1808TIP3   OH227058   5.024   0.646   6.823 -0.2863  0.3683 -0.2520
 1808TIP3    H127059   5.041   0.615   6.735  1.1931  0.3244  0.0156
 1808TIP3    H227060   4.952   0.709   6.814 -1.0060 -0.5843 -1.2796
 1809TIP3   OH227061   6.363   4.599   2.342  0.5287  0.1612  0.0499
 1809TIP3    H127062   6.374   4.681   2.390  0.8792  0.9969 -1.4037
 1809TIP3    H227063   6.270   4.578   2.352  0.2774  1.1280 -0.1751
 1810TIP3   OH227064   4.755   1.803   8.113  0.2046 -0.4246  0.6457
 1810TIP3    H127065   4.785   1.893   8.108 -1.7856  0.2438 -0.5140
 1810TIP3    H227066   4.677   1.807   8.168 -0.9928 -1.0621 -0.9255
 1811TIP3   OH227067   5.968   5.958   0.973 -0.2785 -0.0388  0.1773
 1811TIP3    H127068   5.977   5.928   1.064 -0.6591  0.9618  0.5541
 1811TIP3    H227069   5.963   6.053   0.979  2.4436  0.2814 -1.1142
 1812TIP3   OH227070   3.919   4.389   7.217  0.1165  0.3582  0.0255
 1812TIP3    H127071   3.852   4.379   7.149 -0.9744 -0.7824  1.2033
 1812TIP3    H227072   3.899   4.321   7.281  1.1027  1.3651  1.4867
 1813TIP3   OH227073   1.933   6.650   8.283 -0.0375  0.5546 -0.2555
 1813TIP3    H127074   1.900   6.713   8.347  2.0168  0.9957  0.4657
 1813TIP3    H227075   1.865   6.646   8.216 -1.7979  0.8816  1.4044
 1814TIP3   OH227076   3.083   6.835   6.625  0.3468  0.2175  0.8772
 1814TIP3    H127077   3.072   6.748   6.585 -1.9081  1.5889 -1.7930
 1814TIP3    H227078   3.155   6.875   6.576 -0.4078  0.8023  0.2247
 1815TIP3   OH227079   4.498   0.058   1.762 -0.5014  0.1415 -0.4914
 1815TIP3    H127080   4.582   0.094   1.732 -0.1318 -0.7717 -0.5903
 1815TIP3    H227081   4.523  -0.013   1.823 -1.1571 -1.1413 -1.6583
 1816TIP3   OH227082   2.974   5.906   8.436 -0.2972 -0.4355 -0.2432
 1816TIP3    H127083   2.886   5.869   8.424  0.9649 -3.8834  0.0665
 1816TIP3    H227084   3.007   5.917   8.347 -0.2291 -1.3647 -0.3431
 1817TIP3   OH227085   5.300   6.032   2.301  0.1932 -0.1198  0.1870
 1817TIP3    H127086   5.375   6.045   2.359  1.4688 -1.4367 -1.0601
 1817TIP3    H227087   5.265   5.947   2.327 -0.9409  0.5127  0.7956
 1818TIP3   OH227088   6.258   3.096   6.631 -0.1298 -1.0425 -0.2575
 1818TIP3    H127089   6.286   3.042   6.557  0.7681  0.1622 -0.8257
 1818TIP3    H227090   6.268   3.186   6.600  0.4464 -0.5107  1.3868
 1819TIP3   OH227091   4.553   5.907   8.353 -0.0351  0.1835  0.4914
 1819TIP3    H127092   4.485   5.842   8.340  0.2961 -0.0952  0.1393
 1819TIP3    H227093   4.635   5.858   8.348  0.2633  0.7789 -0.8612
 1820TIP3   OH227094   3.663   6.565   0.121 -0.1548  0.5136  0.2025
 1820TIP3    H127095   3.703   6.481   0.147 -0.1585 -0.0198 -1.3922
 1820TIP3    H227096   3.657   6.615   0.203  0.5675 -0.7380  1.0623
 1821TIP3   OH227097   3.626   3.617   7.403 -0.7430  0.4717 -0.6674
 1821TIP3    H127098   3.533   3.631   7.386 -1.0046  0.1275  0.3773
 1821TIP3    H227099   3.633   3.619   7.499 -0.2441 -2.7836 -0.5209
 1822TIP3   OH227100   4.708   4.171   1.696 -0.0478  0.0875  0.5902
 1822TIP3    H127101   4.711   4.078   1.674  1.1060 -0.3572  2.3960
 1822TIP3    H227102   4.784   4.208   1.652 -1.3408  0.5168 -1.3677
 1823TIP3   OH227103   6.459   1.242   7.287  0.3304 -0.3410 -0.5103
 1823TIP3    H127104   6.495   1.205   7.207  1.9609 -3.8800  1.6406
 1823TIP3    H227105   6.527   1.303   7.318  2.4487 -3.1788  0.8926
 1824TIP3   OH227106   6.866   2.227   8.015 -0.3433  0.5757 -0.4672
 1824TIP3    H127107   6.866   2.192   8.104  0.7619  0.1900 -0.6018
 1824TIP3    H227108   6.779   2.266   8.004 -1.3194 -1.3290  0.0015
 1825TIP3   OH227109   6.548   6.954   0.427 -0.0201 -0.0019  0.1126
 1825TIP3    H127110   6.527   6.867   0.460 -0.0236 -0.2334 -0.4927
 1825TIP3    H227111   6.551   7.010   0.505 -0.1272 -0.5210  0.4867
 1826TIP3   OH227112   0.864   0.471   7.225  0.0743 -0.2866 -0.0511
 1826TIP3    H127113   0.807   0.409   7.179 -0.1664  0.6559 -1.0738
 1826TIP3    H227114   0.862   0.550   7.170  0.1613  0.7132  1.3408
 1827TIP3   OH227115   6.429   0.000   1.862  0.4666  0.0257 -0.1396
 1827TIP3    H127116   6.436   0.047   1.779  1.9428  1.1416  0.5723
 1827TIP3    H227117   6.435   0.068   1.929 -0.5717 -0.8676  0.8938
 1828TIP3   OH227118   5.616   6.326   1.257  0.9417 -0.0853  0.7184
 1828TIP3    H127119   5.560   6.279   1.318  0.7371  1.3702  1.6916
 1828TIP3    H227120   5.557   6.385   1.210  1.1097 -1.0863 -0.8727
 1829TIP3   OH227121   1.310   5.189   2.570  0.0356 -0.0944 -0.2935
 1829TIP3    H127122   1.268   5.170   2.654  1.2646 -0.5331  0.2581
 1829TIP3    H227123   1.300   5.108   2.520 -0.5514  0.1097 -0.5116
 1830TIP3   OH227124   4.809   5.875   8.492  0.6187  0.5071  0.7969
 1830TIP3    H127125   4.841   5.862   8.403  0.7397  0.4235  0.8529
 1830TIP3    H227126   4.769   5.962   8.491 -0.5982 -0.0283  0.3048
 1831TIP3   OH227127   0.106   3.272   0.244  0.7267 -0.1493  0.5689
 1831TIP3    H127128   0.098   3.192   0.192 -0.6348  1.3755 -1.7345
 1831TIP3    H227129   0.163   3.329   0.192  0.0064  1.1408  1.1249
 1832TIP3   OH227130   5.918   6.528   7.420  0.0145 -0.7242 -0.4105
 1832TIP3    H127131   5.827   6.540   7.446 -0.0984  0.8638 -1.4133
 1832TIP3    H227132   5.953   6.467   7.485 -1.3812 -0.2676  0.8328
 1833TIP3   OH227133   5.694   6.006   0.373  0.2077  0.4755 -0.2985
 1833TIP3    H127134   5.687   6.090   0.420  0.0051  0.2209  0.1305
 1833TIP3    H227135   5.604   5.975   0.365  0.0816  1.2355 -2.2026
 1834TIP3   OH227136   3.291   0.565   0.720 -0.4911  0.0654  0.1344
 1834TIP3    H127137   3.211   0.551   0.771 -0.7358 -0.2344 -0.3233
 1834TIP3    H227138   3.273   0.644   0.669 -0.8597 -0.5084 -0.6511
 1835TIP3   OH227139   3.826   2.956   1.763  0.3768 -0.5377 -0.0627
 1835TIP3    H127140   3.737   2.944   1.729 -0.3203  0.6099  1.2601
 1835TIP3    H227141   3.837   3.051   1.770  1.0208 -0.6899  1.4672
 1836TIP3   OH227142   6.686   4.231   6.881 -1.2038  0.0202 -0.4523
 1836TIP3    H127143   6.639   4.306   6.844  0.8189  1.2639 -0.7021
 1836TIP3    H227144   6.754   4.212   6.816  0.3477  0.1072  1.0606
 1837TIP3   OH227145   2.682   3.468   7.484  0.1861  0.4834 -0.0830
 1837TIP3    H127146   2.625   3.542   7.505 -1.1024  0.3601 -2.7220
 1837TIP3    H227147   2.703   3.428   7.568 -0.7917  2.6097  1.2307
 1838TIP3   OH227148   4.322   3.389   7.475 -0.4375 -0.7803 -0.1040
 1838TIP3    H127149   4.318   3.424   7.386 -0.1750 -2.4372 -0.8017
 1838TIP3    H227150   4.330   3.467   7.531  2.0016  0.2269 -1.6683
 1839TIP3   OH227151   3.190   0.453   6.389  0.0225  0.2661 -0.0241
 1839TIP3    H127152   3.101   0.417   6.396 -0.2243  0.9957  0.6505
 1839TIP3    H227153   3.179   0.533   6.338  0.1252  0.9154  0.9510
 1840TIP3   OH227154   1.960   1.176   6.865 -0.3121 -0.0651 -0.4349
 1840TIP3    H127155   1.867   1.155   6.857 -0.2055 -0.4946 -0.5277
 1840TIP3    H227156   1.996   1.162   6.778  0.2654 -1.9796  0.0793
 1841TIP3   OH227157   2.918   0.691   0.010  0.3938 -0.4708 -0.1010
 1841TIP3    H127158   2.860   0.650   0.074 -0.2334  0.0698 -0.3126
 1841TIP3    H227159   2.948   0.771   0.054 -2.6478  1.7126 -1.5962
 1842TIP3   OH227160   0.256   1.206   6.908  0.7446  0.3030 -0.3442
 1842TIP3    H127161   0.248   1.173   6.819  3.1869  0.6872 -0.7888
 1842TIP3    H227162   0.303   1.136   6.955  2.8666  1.5714 -0.4134
 1843TIP3   OH227163   1.016   2.045   0.481 -0.5196 -0.6141  0.5735
 1843TIP3    H127164   0.990   2.018   0.569 -2.4066 -0.2352  0.1866
 1843TIP3    H227165   0.939   2.090   0.447  0.6579  0.4586 -0.7742
 1844TIP3   OH227166   1.008   6.911   7.545  0.4510 -0.7658  0.0672
 1844TIP3    H127167   0.935   6.850   7.539  0.9149 -1.3385  0.1309
 1844TIP3    H227168   1.047   6.894   7.631 -1.2732  1.7860  1.4911
 1845TIP3   OH227169   1.301   2.684   7.336  0.2281 -0.1058 -0.0669
 1845TIP3    H127170   1.285   2.593   7.311  1.5246 -0.4233  0.1894
 1845TIP3    H227171   1.273   2.689   7.428  0.9604 -0.4772  0.1790
 1846TIP3   OH227172   4.626   1.367   7.014  0.0446  0.0658  0.6819
 1846TIP3    H127173   4.656   1.283   6.980 -1.2630  0.2782 -1.1422
 1846TIP3    H227174   4.552   1.346   7.071 -1.2740  0.0218 -0.9767
 1847TIP3   OH227175   2.050   3.227   6.528 -0.0508 -0.3107  0.3245
 1847TIP3    H127176   2.019   3.318   6.522  0.6651 -0.1233 -0.6482
 1847TIP3    H227177   2.096   3.212   6.446  0.0792 -1.4745  0.6033
 1848TIP3   OH227178   5.056   1.653   6.942 -0.3462 -0.4886  0.7544
 1848TIP3    H127179   5.074   1.716   7.012  2.9799 -0.8188  0.3819
 1848TIP3    H227180   5.142   1.617   6.920 -1.5807 -2.1348 -1.8930
 1849TIP3   OH227181   2.020   2.289   7.064 -0.3982  0.7565  0.1926
 1849TIP3    H127182   2.043   2.374   7.025  0.0436  0.0842 -1.0482
 1849TIP3    H227183   2.051   2.224   7.001 -1.7857 -0.3097  0.5556
 1850TIP3   OH227184   6.359   3.537   0.553  0.3128 -0.5431  0.4890
 1850TIP3    H127185   6.362   3.486   0.634 -0.4611 -2.2120 -0.4738
 1850TIP3    H227186   6.357   3.472   0.484 -0.7603  0.7997 -0.8192
 1851TIP3   OH227187   2.671   5.129   1.296 -0.4158  0.7842 -0.0128
 1851TIP3    H127188   2.601   5.180   1.337 -0.8290 -0.0744  0.3599
 1851TIP3    H227189   2.690   5.060   1.359 -0.6072 -0.1667 -0.9807
 1852TIP3   OH227190   4.362   5.884   7.600  0.1774 -0.2741  0.3815
 1852TIP3    H127191   4.366   5.853   7.510 -1.0353  2.0547 -0.5757
 1852TIP3    H227192   4.284   5.940   7.602  0.2925 -0.0912  2.8391
 1853TIP3   OH227193   0.453   0.380   1.917 -0.1855 -0.0477  0.2402
 1853TIP3    H127194   0.451   0.434   1.838 -0.1631 -0.4999 -0.0713
 1853TIP3    H227195   0.375   0.325   1.911  0.1490 -0.5259  0.2191
 1854TIP3   OH227196   4.208   5.537   8.204  0.0687 -0.3856  0.1885
 1854TIP3    H127197   4.187   5.604   8.140 -0.0123 -0.2479  0.3572
 1854TIP3    H227198   4.245   5.465   8.153 -0.4419 -0.4730 -0.0694
 1855TIP3   OH227199   0.825   3.441   7.415  0.2845 -0.1838  0.1170
 1855TIP3    H127200   0.773   3.389   7.476  0.6892 -0.5747  0.1330
 1855TIP3    H227201   0.887   3.379   7.377 -0.3308 -0.0637 -1.1149
 1856TIP3   OH227202   0.581   0.866   7.070  0.2796  0.3002 -0.4547
 1856TIP3    H127203   0.651   0.895   7.013 -0.2366  2.7599  0.0702
 1856TIP3    H227204   0.504   0.859   7.013  0.7018 -1.5881 -0.8638
 1857TIP3   OH227205   4.211   1.668   6.294 -0.2633  0.1119 -0.2542
 1857TIP3    H127206   4.294   1.712   6.311  0.0673 -0.6828  0.2514
 1857TIP3    H227207   4.150   1.707   6.357 -0.6440  1.6472 -1.4977
 1858TIP3   OH227208   4.131   0.358   1.015 -0.6684  0.2819 -0.0433
 1858TIP3    H127209   4.100   0.436   0.969  1.0996  0.4354 -1.0683
 1858TIP3    H227210   4.099   0.369   1.105 -0.7165  2.0419 -0.2377
 1859TIP3   OH227211   0.249   4.741   7.726  0.0656  0.2067  0.2531
 1859TIP3    H127212   0.289   4.770   7.644  0.3292 -1.4796 -0.2476
 1859TIP3    H227213   0.320   4.741   7.789  0.1711  0.1477  0.1340
 1860TIP3   OH227214   3.802   1.155   2.172  0.2356 -0.3388 -0.2153
 1860TIP3    H127215   3.720   1.134   2.127  0.2794  1.1278 -1.0390
 1860TIP3    H227216   3.796   1.248   2.191  1.1054 -0.5163  1.0376
 1861TIP3   OH227217   3.135   4.047   7.657  0.0608 -0.1527 -0.0727
 1861TIP3    H127218   3.224   4.052   7.622  0.1210 -1.0618 -0.0594
 1861TIP3    H227219   3.097   3.970   7.616 -0.0753 -0.8899  1.3738
 1862TIP3   OH227220   5.180   5.015   0.001  0.1782 -0.4979  0.4270
 1862TIP3    H127221   5.166   4.920  -0.003 -1.7564 -0.2398  0.3184
 1862TIP3    H227222   5.227   5.035  -0.080  0.7077 -1.3631  0.5016
 1863TIP3   OH227223   0.453   1.935   8.203  0.2030  0.3392  0.3232
 1863TIP3    H127224   0.487   1.877   8.135  1.0272  0.4309  0.6436
 1863TIP3    H227225   0.364   1.905   8.218  0.8673 -1.3643  1.0398
 1864TIP3   OH227226   2.505   3.990   8.014 -0.5251  0.5021  0.4648
 1864TIP3    H127227   2.496   3.899   7.985 -0.1540  0.4744  0.4319
 1864TIP3    H227228   2.457   3.994   8.097 -0.3283  0.2105  0.5939
 1865TIP3   OH227229   5.212   1.062   0.705  0.7409  0.1331  0.2157
 1865TIP3    H127230   5.186   1.010   0.629 -1.0658  0.4262  0.5910
 1865TIP3    H227231   5.264   1.133   0.669  0.4523 -0.0950 -0.6655
 1866TIP3   OH227232   3.578   1.663   0.901  0.2000  0.4077  0.0794
 1866TIP3    H127233   3.554   1.572   0.914  1.1956 -0.1236 -1.5008
 1866TIP3    H227234   3.603   1.694   0.988 -0.2505 -0.7767  0.6559
 1867TIP3   OH227235   0.478   0.242   7.288  0.0689  0.4423 -0.0825
 1867TIP3    H127236   0.447   0.220   7.200 -0.0100  0.7799 -0.1429
 1867TIP3    H227237   0.472   0.160   7.337  0.0716  0.2627 -0.3796
 1868TIP3   OH227238   1.913   5.808   7.582 -0.1700  0.4117 -0.5845
 1868TIP3    H127239   1.994   5.829   7.629  0.0454  0.1875 -0.8480
 1868TIP3    H227240   1.940   5.742   7.517 -0.8653 -0.8511  0.3728
 1869TIP3   OH227241   2.445   0.600   0.405 -0.4204 -0.2839  0.1472
 1869TIP3    H127242   2.526   0.560   0.374 -0.4968 -1.1930  1.0802
 1869TIP3    H227243   2.442   0.578   0.498  0.1307  2.8586  1.0507
 1870TIP3   OH227244   5.558   4.223   7.512  0.0821  0.3358 -0.7094
 1870TIP3    H127245   5.590   4.141   7.550 -0.9028  0.2794  0.0371
 1870TIP3    H227246   5.636   4.278   7.506  0.4645 -0.0455  0.3922
 1871TIP3   OH227247   3.331   3.144   1.388  0.4794 -0.0369 -0.5624
 1871TIP3    H127248   3.302   3.085   1.458  0.8522  0.5319  0.0821
 1871TIP3    H227249   3.259   3.206   1.377 -0.0198 -0.7429 -1.4147
 1872TIP3   OH227250   5.602   3.670   7.883 -0.3515 -0.1087 -0.0534
 1872TIP3    H127251   5.575   3.748   7.931  0.2458  1.0126 -1.4553
 1872TIP3    H227252   5.668   3.701   7.821 -1.4485 -1.3633 -1.9632
 1873TIP3   OH227253   2.011   4.101   7.412 -0.1337 -0.0551  0.5449
 1873TIP3    H127254   1.956   4.095   7.490  0.6429 -1.0612  1.0232
 1873TIP3    H227255   2.050   4.015   7.403  0.7294  0.4020 -0.2675
 1874TIP3   OH227256   1.057   1.522   0.129  0.5785  0.0101 -0.2477
 1874TIP3    H127257   1.105   1.605   0.131 -0.4658  0.6278  1.5542
 1874TIP3    H227258   0.965   1.548   0.122  0.2752 -1.0164 -0.1933
 1875TIP3   OH227259   4.540   6.549   7.373 -0.1154 -0.2877  0.1178
 1875TIP3    H127260   4.592   6.542   7.293  1.5903 -1.1149  1.2356
 1875TIP3    H227261   4.601   6.585   7.438 -1.5875  0.8087  0.9632
 1876TIP3   OH227262   1.804   3.985   1.403  0.4510  0.0410  0.6395
 1876TIP3    H127263   1.753   4.010   1.325 -0.5509 -0.4177  1.1324
 1876TIP3    H227264   1.741   3.989   1.474  1.4044  0.6334  1.4745
 1877TIP3   OH227265   1.281   0.027   0.462 -0.2587 -0.0961 -0.1539
 1877TIP3    H127266   1.237   0.106   0.492 -1.2977 -0.4633 -0.6665
 1877TIP3    H227267   1.356   0.058   0.412 -1.4245  0.6136 -1.5223
 1878TIP3   OH227268   0.450   2.289   7.080  0.1616 -0.0210  0.2350
 1878TIP3    H127269   0.384   2.226   7.052  0.7219 -1.3014  1.6243
 1878TIP3    H227270   0.487   2.251   7.160  0.4403  2.1348  1.2133
 1879TIP3   OH227271   4.694   4.522   7.992  0.0801  0.4017 -0.3541
 1879TIP3    H127272   4.675   4.443   8.042  1.1312  0.8712  0.8515
 1879TIP3    H227273   4.699   4.493   7.901  1.5015 -1.1431  0.1567
 1880TIP3   OH227274   0.556   1.365   0.058 -0.0762 -0.4297  0.1582
 1880TIP3    H127275   0.483   1.423   0.037 -1.2069 -1.3299  1.4854
 1880TIP3    H227276   0.605   1.412   0.125  0.1780 -0.1370 -0.2258
 1881TIP3   OH227277   2.997   6.949   6.331 -0.1592 -0.1702  0.8358
 1881TIP3    H127278   2.914   6.919   6.293 -0.6164 -0.1707  1.8097
 1881TIP3    H227279   3.061   6.885   6.300 -0.4683 -0.0407 -0.1193
 1882TIP3   OH227280   2.272   1.872   0.257  0.2022 -0.6402  0.4593
 1882TIP3    H127281   2.320   1.954   0.243  3.2772 -2.6305 -2.0293
 1882TIP3    H227282   2.201   1.876   0.192  0.2246  0.0698  0.4606
 1883TIP3   OH227283   4.787   3.612   1.665  0.4478  0.0374  0.2553
 1883TIP3    H127284   4.697   3.623   1.635  0.4929  0.4286  0.2600
 1883TIP3    H227285   4.781   3.548   1.736  0.0148  0.9037  1.0138
 1884TIP3   OH227286   4.762   5.281   7.188 -0.2081 -0.3570  0.0191
 1884TIP3    H127287   4.796   5.355   7.238  0.9064 -0.6726 -0.2346
 1884TIP3    H227288   4.840   5.229   7.168 -1.0761 -2.2240  1.1990
 1885TIP3   OH227289   4.332   0.940   0.509  0.3379  0.4191  0.4024
 1885TIP3    H127290   4.282   0.946   0.427  0.7231 -0.0194  0.1335
 1885TIP3    H227291   4.371   0.853   0.507 -1.3124 -0.4394  2.0099
 1886TIP3   OH227292   3.353   6.654   7.133 -0.0168 -0.1717 -0.6897
 1886TIP3    H127293   3.350   6.596   7.057  0.9167 -1.8966  0.5094
 1886TIP3    H227294   3.277   6.711   7.123 -0.1436 -0.6093 -2.6919
 1887TIP3   OH227295   2.514   1.258   0.943 -0.0670  0.0576 -0.1721
 1887TIP3    H127296   2.461   1.287   0.869  0.0664  0.4726 -0.1102
 1887TIP3    H227297   2.527   1.164   0.929  2.2191  0.5488 -2.1340
 1888TIP3   OH227298   2.296   5.576   1.161 -0.0936  0.1400  0.1362
 1888TIP3    H127299   2.262   5.561   1.073 -0.1117  2.5862 -0.3572
 1888TIP3    H227300   2.382   5.536   1.161  0.8065  1.8863 -1.7744
 1889TIP3   OH227301   0.047   6.875   1.072  0.0689  0.0016  0.3281
 1889TIP3    H127302  -0.026   6.856   1.013  0.7982  0.9229 -0.9254
 1889TIP3    H227303   0.124   6.843   1.027  0.5254 -0.3714  1.3445
 1890TIP3   OH227304   5.340   4.319   7.977  0.0652 -0.0763  0.0083
 1890TIP3    H127305   5.419   4.357   7.938 -0.2792  0.0104 -0.6221
 1890TIP3    H227306   5.281   4.394   7.988 -0.0938 -0.2101  0.0645
 1891TIP3   OH227307   3.282   2.698   1.524 -0.3593  0.2091  0.1043
 1891TIP3    H127308   3.351   2.632   1.517  0.4514  0.9122  1.3073
 1891TIP3    H227309   3.248   2.706   1.434  0.1850 -1.1245 -0.2439
 1892TIP3   OH227310   1.422   3.340   7.447  0.5071 -0.6566 -0.2606
 1892TIP3    H127311   1.391   3.338   7.538  0.4648 -0.0100 -0.2550
 1892TIP3    H227312   1.430   3.248   7.423  1.6840 -0.8568  0.7977
 1893TIP3   OH227313   4.621   2.336   7.001  0.1146 -0.2644 -0.5566
 1893TIP3    H127314   4.616   2.372   7.090  1.6315 -2.2041  0.3903
 1893TIP3    H227315   4.568   2.395   6.948 -2.1385  0.1243  1.9020
 1894TIP3   OH227316   0.883   2.318   7.066 -0.6487  0.2225 -0.3161
 1894TIP3    H127317   0.873   2.358   7.152  1.9154  0.3849  0.0012
 1894TIP3    H227318   0.880   2.392   7.005  1.3303  0.6412  0.0255
 1895TIP3   OH227319   2.159   2.379   0.193  0.5362  0.2215  0.4580
 1895TIP3    H127320   2.155   2.473   0.176  0.1351  0.0748 -0.3055
 1895TIP3    H227321   2.150   2.371   0.288 -0.4509  0.9085  0.4378
 1896TIP3   OH227322   1.542   3.532   8.507  0.4840 -0.0364  0.1324
 1896TIP3    H127323   1.509   3.603   8.563  0.4341  2.1316 -2.4299
 1896TIP3    H227324   1.599   3.481   8.564 -0.5284  1.2450  2.4508
 1897TIP3   OH227325   4.992   2.304   1.231 -0.5848  0.0301 -0.7918
 1897TIP3    H127326   5.003   2.360   1.155  0.7390  0.2647 -0.4615
 1897TIP3    H227327   4.901   2.276   1.228 -1.0636  1.5495 -1.4067
 1898TIP3   OH227328   1.478   1.098   7.108  0.1769  0.0798 -0.0032
 1898TIP3    H127329   1.417   1.060   7.172  1.1045  0.8533  1.3965
 1898TIP3    H227330   1.506   1.023   7.055 -0.8227 -0.5409  0.3126
 1899TIP3   OH227331   3.044   2.242   1.134  0.3142  0.1891  0.1029
 1899TIP3    H127332   2.953   2.232   1.161  0.7500 -1.0629  1.2157
 1899TIP3    H227333   3.063   2.335   1.144 -0.3660  0.1961  1.4523
 1900TIP3   OH227334   1.904   0.953   0.985  0.1569  0.2217 -0.8940
 1900TIP3    H127335   1.874   0.866   1.012 -0.5527  0.4084 -1.0749
 1900TIP3    H227336   1.981   0.970   1.039  0.7318 -0.8242 -1.3533
 1901TIP3   OH227337   1.942   1.275   2.735  0.7559 -0.2890  0.0218
 1901TIP3    H127338   1.877   1.227   2.683  0.8599  0.6801 -1.0416
 1901TIP3    H227339   1.914   1.262   2.826  0.2083 -1.5008 -0.3082
 1902TIP3   OH227340   4.456   0.206   0.037 -0.3555 -0.0055 -0.1945
 1902TIP3    H127341   4.382   0.155   0.071 -1.0642  1.9418  1.4201
 1902TIP3    H227342   4.419   0.256  -0.036 -1.4887  2.8456  2.1141
 1903TIP3   OH227343   6.265   3.172   8.363 -0.3385 -0.3007 -0.2707
 1903TIP3    H127344   6.178   3.133   8.369 -0.3573 -0.5625 -1.7269
 1903TIP3    H227345   6.307   3.150   8.445 -1.2207 -1.2368 -0.0496
 1904TIP3   OH227346   0.854   0.266   8.214 -0.1974  1.1384 -0.2833
 1904TIP3    H127347   0.797   0.293   8.142  1.0199 -0.0831 -1.7868
 1904TIP3    H227348   0.941   0.258   8.175  1.1072  3.0565  1.9540
 1905TIP3   OH227349   0.541   6.518   0.717 -0.3969 -0.4627  0.0181
 1905TIP3    H127350   0.608   6.576   0.752 -2.1053  0.5642  1.7537
 1905TIP3    H227351   0.492   6.572   0.655  0.0045 -1.0412 -0.8203
 1906TIP3   OH227352   2.311   1.692   1.933 -0.0342  0.7620 -0.4517
 1906TIP3    H127353   2.350   1.711   2.018 -0.9123  0.7073 -0.0333
 1906TIP3    H227354   2.383   1.702   1.871  1.1817 -1.3656  0.5049
 1907TIP3   OH227355   5.599   2.553   7.643 -0.6939 -0.4302 -0.2413
 1907TIP3    H127356   5.601   2.503   7.561 -0.5234  0.6178 -0.8929
 1907TIP3    H227357   5.631   2.492   7.709  1.5550 -0.5734 -1.3805
 1908TIP3   OH227358   3.604   3.312   8.447 -0.3595 -0.3461 -0.5595
 1908TIP3    H127359   3.664   3.275   8.512 -0.5755 -1.5794 -1.0425
 1908TIP3    H227360   3.613   3.256   8.370 -3.0685 -1.4163 -0.2250
 1909TIP3   OH227361   1.163   2.279   0.550 -0.3017 -0.1870  0.2306
 1909TIP3    H127362   1.090   2.218   0.558 -0.9968  0.5766 -0.1536
 1909TIP3    H227363   1.137   2.338   0.480  0.2296  0.7291  0.7878
 1910TIP3   OH227364   4.335   2.681   7.768  0.1236  0.1102  0.2146
 1910TIP3    H127365   4.277   2.709   7.697  1.8038  3.1947 -0.1404
 1910TIP3    H227366   4.396   2.621   7.726 -0.6926 -0.4465 -0.2068
 1911TIP3   OH227367   4.099   4.630   6.525  0.4509  0.1563  0.2198
 1911TIP3    H127368   4.116   4.539   6.500  0.2620  0.5297 -1.3837
 1911TIP3    H227369   4.166   4.680   6.477 -0.9054  1.0511 -0.8074
 1912TIP3   OH227370   2.098   5.139   0.081 -1.0210  0.2530  0.3360
 1912TIP3    H127371   2.129   5.229   0.093 -1.7104  0.4903  0.3247
 1912TIP3    H227372   2.167   5.085   0.121  0.7301  0.6189 -2.0067
 1913TIP3   OH227373   4.342   6.602   7.669  0.0790 -0.2266 -0.2239
 1913TIP3    H127374   4.396   6.676   7.695  0.4069  0.2439 -2.0910
 1913TIP3    H227375   4.269   6.642   7.620 -0.9797 -0.9879  0.6775
 1914TIP3   OH227376   5.873   3.219   7.592 -0.2100  0.2435 -0.1666
 1914TIP3    H127377   5.834   3.295   7.549  0.1481 -0.3788 -1.6840
 1914TIP3    H227378   5.818   3.204   7.669 -0.8526  1.4556 -0.3613
 1915TIP3   OH227379   5.084   2.448   8.253  0.0979  0.2730 -0.2203
 1915TIP3    H127380   5.122   2.535   8.267  0.2327  0.2642 -0.5180
 1915TIP3    H227381   5.138   2.390   8.306 -0.3845  0.4567  0.4774
 1916TIP3   OH227382   2.511   1.350   1.200  0.3595 -0.1567 -0.2652
 1916TIP3    H127383   2.544   1.312   1.119  0.0846  1.7723 -1.3175
 1916TIP3    H227384   2.428   1.305   1.216 -0.0718  0.1382 -1.6040
 1917TIP3   OH227385   2.742   5.898   1.904  0.5054 -0.9250 -0.3118
 1917TIP3    H127386   2.648   5.910   1.918  0.5369 -1.5096  0.4919
 1917TIP3    H227387   2.774   5.862   1.986  1.3666 -1.1231 -0.7202
 1918TIP3   OH227388   2.842   4.491   1.368  0.3247  0.2500 -0.3272
 1918TIP3    H127389   2.840   4.571   1.315 -0.1525  1.0543  0.8536
 1918TIP3    H227390   2.926   4.496   1.414  0.2738  0.0811 -0.2170
 1919TIP3   OH227391   2.439   0.919   2.169 -0.1254  0.0632  0.5095
 1919TIP3    H127392   2.526   0.919   2.128 -0.3298 -0.8278  0.0561
 1919TIP3    H227393   2.386   0.974   2.111  0.0135  0.2146  0.5236
 1920TIP3   OH227394   1.401   5.548   0.146 -0.1311  0.1610  0.3310
 1920TIP3    H127395   1.494   5.527   0.156 -0.1818 -0.2999 -0.1347
 1920TIP3    H227396   1.364   5.473   0.100 -0.4943  0.8682 -0.5609
 1921TIP3   OH227397   2.085   2.413   2.585 -0.1831  0.0837 -0.3335
 1921TIP3    H127398   2.051   2.329   2.615 -0.4444 -0.3643 -1.7701
 1921TIP3    H227399   2.029   2.435   2.510 -0.5677  1.8910  0.4521
 1922TIP3   OH227400   5.228   0.918   1.640 -0.3110 -0.0602 -0.6798
 1922TIP3    H127401   5.276   0.853   1.691  0.0165  0.3946 -0.3980
 1922TIP3    H227402   5.260   1.002   1.672 -1.0023  0.2477 -0.7775
 1923TIP3   OH227403   1.498   3.384   1.442 -0.0721 -0.3244  0.1378
 1923TIP3    H127404   1.481   3.412   1.352 -1.3293  2.6382  1.1794
 1923TIP3    H227405   1.534   3.295   1.433 -1.5900 -0.7651 -3.1703
 1924TIP3   OH227406   1.822   1.824   8.183 -0.2399  0.0809 -0.1393
 1924TIP3    H127407   1.747   1.780   8.222 -0.4340  1.5489  1.2050
 1924TIP3    H227408   1.855   1.882   8.252  2.3419 -0.7447 -0.5576
 1925TIP3   OH227409   0.464   6.317   1.713  0.0716  0.3189  0.6240
 1925TIP3    H127410   0.535   6.335   1.651  1.7558  0.1927  2.3968
 1925TIP3    H227411   0.503   6.334   1.799 -1.8568 -0.4705  1.7212
 1926TIP3   OH227412   6.165   5.993   7.082 -0.1277 -0.1768  0.4855
 1926TIP3    H127413   6.172   6.028   6.994  2.8244 -2.7648 -0.4870
 1926TIP3    H227414   6.108   5.917   7.073  0.2502 -0.4976  0.7964
 1927TIP3   OH227415   6.057   2.551   8.328  0.3279  0.6276  0.6246
 1927TIP3    H127416   6.089   2.472   8.372  0.5208 -0.5474 -1.4911
 1927TIP3    H227417   6.134   2.608   8.322  1.2484 -0.7146 -1.3081
 1928TIP3   OH227418   6.948   3.759   0.630  0.4213  0.5260 -0.3602
 1928TIP3    H127419   6.904   3.824   0.575  1.2219  0.2138 -1.4089
 1928TIP3    H227420   6.911   3.675   0.603 -1.3260  0.5544  1.6695
 1929TIP3   OH227421   3.917   5.895   7.934  0.1154  0.0175  0.0525
 1929TIP3    H127422   3.941   5.984   7.956 -1.5714  0.3212  0.8030
 1929TIP3    H227423   3.989   5.841   7.968  0.3449  0.9463  1.0657
 1930TIP3   OH227424   4.595   0.386   1.411 -0.3303 -0.0201  0.0103
 1930TIP3    H127425   4.587   0.296   1.379  0.4938  0.3867 -1.4268
 1930TIP3    H227426   4.608   0.439   1.332  2.8614  0.9135  0.9999
 1931TIP3   OH227427   1.337   5.797   0.214 -0.3214  0.8198 -0.4320
 1931TIP3    H127428   1.315   5.825   0.125 -1.0828  0.1174 -0.4739
 1931TIP3    H227429   1.359   5.705   0.205 -2.1788  0.2624  0.3651
 1932TIP3   OH227430   4.108   3.900   7.678 -0.8303  0.0959  0.3722
 1932TIP3    H127431   4.171   3.840   7.718 -0.3181  1.2119  1.3014
 1932TIP3    H227432   4.023   3.870   7.711 -0.5868 -0.1469  0.8012
 1933TIP3   OH227433   2.609   4.505   8.222 -0.0489 -0.2942  0.2734
 1933TIP3    H127434   2.595   4.494   8.128 -1.6561 -0.9980  0.5623
 1933TIP3    H227435   2.619   4.599   8.234 -2.7310  0.1517 -0.3067
 1934TIP3   OH227436   2.867   6.022   1.711 -0.4513 -0.0455 -0.2655
 1934TIP3    H127437   2.833   5.978   1.789 -1.1384 -0.2162 -0.6580
 1934TIP3    H227438   2.811   6.098   1.700  1.5803  1.8266  1.2472
 1935TIP3   OH227439   3.429   2.364   7.043  0.2282 -0.2604 -0.4099
 1935TIP3    H127440   3.432   2.270   7.026  1.3822 -0.2604 -0.3025
 1935TIP3    H227441   3.519   2.387   7.065  0.7518  1.4494 -3.6658
 1936TIP3   OH227442   4.862   6.754   0.834  0.7669 -0.2114  0.2833
 1936TIP3    H127443   4.901   6.835   0.801 -0.9158 -0.6100 -3.1890
 1936TIP3    H227444   4.772   6.778   0.857  0.1387 -1.0687 -1.1224
 1937TIP3   OH227445   6.162   1.400   7.960 -0.0527 -0.2728  0.5701
 1937TIP3    H127446   6.206   1.482   7.981 -0.8466  0.7287 -1.4053
 1937TIP3    H227447   6.192   1.339   8.027  1.0287  1.4566  1.7468
 1938TIP3   OH227448   4.517   4.804   1.804 -0.4361 -0.5809 -0.3581
 1938TIP3    H127449   4.497   4.871   1.869 -1.0148 -0.6318 -0.4810
 1938TIP3    H227450   4.603   4.828   1.770 -1.3798  1.1123 -1.6820
 1939TIP3   OH227451   0.671   5.147   1.301 -0.0001 -0.3649  0.4235
 1939TIP3    H127452   0.633   5.117   1.218 -1.8247  0.8049  0.7830
 1939TIP3    H227453   0.730   5.076   1.327  1.0500 -0.5309 -2.1145
 1940TIP3   OH227454   6.575   1.732   7.735 -0.0532 -0.5208  0.0168
 1940TIP3    H127455   6.506   1.674   7.704  0.0825 -0.5777 -0.1807
 1940TIP3    H227456   6.565   1.812   7.685 -0.8539 -0.0007  0.9789
 1941TIP3   OH227457   1.919   6.712   0.737  0.2059  0.3233  0.0678
 1941TIP3    H127458   1.990   6.716   0.802  0.0051 -1.0244  0.3917
 1941TIP3    H227459   1.921   6.798   0.695  2.1934  0.2370 -0.0971
 1942TIP3   OH227460   3.337   2.877   8.226  0.3404  0.5318  0.1715
 1942TIP3    H127461   3.331   2.848   8.318 -0.5399 -1.7784 -0.5226
 1942TIP3    H227462   3.425   2.851   8.199 -0.1208 -0.7862 -0.1775
 1943TIP3   OH227463   1.843   0.133   8.381  0.0665  0.1626 -0.1932
 1943TIP3    H127464   1.926   0.180   8.372  0.1964  0.5514  2.2204
 1943TIP3    H227465   1.825   0.098   8.294  1.7802  1.6833 -1.2232
 1944TIP3   OH227466   6.239   1.833   0.872  0.6425  0.0263 -0.2206
 1944TIP3    H127467   6.303   1.779   0.918 -0.6555 -0.0038  1.6139
 1944TIP3    H227468   6.182   1.770   0.829  1.3290  0.0461 -1.2105
 1945TIP3   OH227469   5.287   5.985   7.138  0.1978  0.2642 -0.0589
 1945TIP3    H127470   5.279   6.079   7.121 -1.0511  0.3202  0.7040
 1945TIP3    H227471   5.198   5.951   7.125  0.4147 -0.6319  0.7112
 1946TIP3   OH227472   1.219   6.614   6.545 -0.2535  0.4238  0.2675
 1946TIP3    H127473   1.276   6.538   6.539  1.1979  1.4748  0.2801
 1946TIP3    H227474   1.150   6.597   6.481  1.5642  0.3319 -1.7865
 1947TIP3   OH227475   2.715   5.057   8.169 -0.5394  0.2131 -0.4916
 1947TIP3    H127476   2.675   5.053   8.083 -0.1699  0.8613 -0.7025
 1947TIP3    H227477   2.773   5.133   8.165 -0.3406  0.1110  0.2496
 1948TIP3   OH227478   1.772   0.617   6.012 -0.3128  0.1824  0.5702
 1948TIP3    H127479   1.844   0.671   5.979 -1.3564  1.3604  0.1660
 1948TIP3    H227480   1.693   0.665   5.989 -1.3510 -1.8647 -0.5053
 1949TIP3   OH227481   6.591   3.607   8.091  0.7936  0.2757 -0.2466
 1949TIP3    H127482   6.507   3.586   8.049  0.9584  1.2549 -1.1057
 1949TIP3    H227483   6.657   3.587   8.024  1.2589 -0.4617  0.4137
 1950TIP3   OH227484   5.718   3.045   7.420  0.0287  0.1055  0.0609
 1950TIP3    H127485   5.785   3.091   7.471 -1.0761  2.1222 -0.2057
 1950TIP3    H227486   5.739   2.952   7.431  2.9226  0.6386 -0.0946
 1951TIP3   OH227487   5.979   2.810   8.522  0.1437 -0.2055 -0.2180
 1951TIP3    H127488   6.010   2.732   8.568 -0.7562  0.0628  0.8777
 1951TIP3    H227489   5.914   2.777   8.460 -0.7340 -0.2823  0.7126
 1952TIP3   OH227490   2.669   1.598   6.102 -0.3843 -0.4660 -0.0887
 1952TIP3    H127491   2.577   1.577   6.087 -0.5492  1.0876 -1.5358
 1952TIP3    H227492   2.716   1.519   6.075 -1.2927 -1.4776  1.1831
 1953TIP3   OH227493   0.884   3.689   1.059  0.0921  0.5465 -0.6015
 1953TIP3    H127494   0.830   3.623   1.101  2.0030 -0.9436 -0.3313
 1953TIP3    H227495   0.893   3.758   1.126  0.2221 -0.1565  0.1185
 1954TIP3   OH227496   0.068   6.409   2.249  0.0253  0.3820 -0.3351
 1954TIP3    H127497  -0.028   6.413   2.257 -0.1438 -2.2609 -0.1243
 1954TIP3    H227498   0.088   6.464   2.174 -1.6614  0.9530 -0.4148
 1955TIP3   OH227499   1.721   3.413   0.124  0.3251 -0.2702 -0.1964
 1955TIP3    H127500   1.683   3.325   0.126  0.6486 -0.4092  0.1110
 1955TIP3    H227501   1.811   3.399   0.096  0.0751  0.0891 -1.2128
 1956TIP3   OH227502   6.265   6.517   1.941  0.7522  0.7413  0.0007
 1956TIP3    H127503   6.328   6.522   1.869 -0.3137 -1.7283 -1.2104
 1956TIP3    H227504   6.179   6.523   1.899  0.0930 -1.1529  0.9629
 1957TIP3   OH227505   0.536   6.288   7.004  0.3767 -0.0264  0.1776
 1957TIP3    H127506   0.563   6.365   7.054  0.2318 -0.2665  0.6261
 1957TIP3    H227507   0.485   6.324   6.931  0.2873  0.3027  0.3992
 1958TIP3   OH227508   2.703   5.816   7.469 -0.1153 -0.1664 -0.1941
 1958TIP3    H127509   2.658   5.892   7.432 -0.8944 -0.3740  0.2872
 1958TIP3    H227510   2.747   5.775   7.395 -0.3875  0.2801 -0.6056
 1959TIP3   OH227511   5.798   2.851   1.509 -0.1023 -0.2848  0.1055
 1959TIP3    H127512   5.872   2.793   1.526 -0.2029 -0.5289 -0.2726
 1959TIP3    H227513   5.724   2.793   1.493 -0.4171 -0.0390  0.6430
 1960TIP3   OH227514   2.710   3.983   0.384 -0.2471 -0.1700 -0.5034
 1960TIP3    H127515   2.783   3.969   0.324 -0.9467  2.7072 -2.2384
 1960TIP3    H227516   2.645   3.917   0.358 -0.1328  0.3739 -2.2699
 1961TIP3   OH227517   2.994   0.644   0.476  0.3142 -0.2860 -0.3008
 1961TIP3    H127518   3.065   0.589   0.443  1.4672  0.6795  0.4663
 1961TIP3    H227519   2.981   0.710   0.409 -1.2350 -1.5730 -1.3322
 1962TIP3   OH227520   3.585   0.820   7.677 -0.3424  0.3714  0.2670
 1962TIP3    H127521   3.506   0.861   7.641 -0.3207 -0.2050 -0.4483
 1962TIP3    H227522   3.648   0.820   7.606  0.2240  0.5884  0.7578
 1963TIP3   OH227523   6.263   3.544   7.303  0.1755  0.0674 -0.6027
 1963TIP3    H127524   6.184   3.495   7.285  0.5534 -0.5383 -0.6506
 1963TIP3    H227525   6.328   3.477   7.325  0.2103  0.6375  1.2358
 1964TIP3   OH227526   0.715   5.932   1.526 -0.2700 -0.3766  0.0442
 1964TIP3    H127527   0.775   5.857   1.528 -2.6481 -2.4381 -0.6198
 1964TIP3    H227528   0.681   5.939   1.615  0.0086 -0.0128  0.1248
 1965TIP3   OH227529   3.889   4.455   6.320  0.0051 -0.2552  0.0580
 1965TIP3    H127530   3.955   4.433   6.253  0.7241  0.4349  0.5125
 1965TIP3    H227531   3.879   4.375   6.371  0.8531 -0.2468  0.2653
 1966TIP3   OH227532   5.083   0.274   6.269  0.3898  0.3311 -0.5207
 1966TIP3    H127533   5.039   0.353   6.236  1.5306  1.2578  0.1048
 1966TIP3    H227534   5.099   0.221   6.191 -1.2385  0.2460 -0.8429
 1967TIP3   OH227535   1.541   1.868   7.545 -0.1801  0.6290  0.0525
 1967TIP3    H127536   1.621   1.815   7.535 -0.2669  0.3868  0.6122
 1967TIP3    H227537   1.545   1.930   7.472 -0.4962 -0.6765 -1.1223
 1968TIP3   OH227538   5.229   0.932   8.478  0.4329 -0.3678  0.2294
 1968TIP3    H127539   5.309   0.883   8.456  0.2252 -0.0339 -1.3505
 1968TIP3    H227540   5.219   0.919   8.572  0.8956 -2.6085  0.0235
 1969TIP3   OH227541   6.782   5.740   0.059  0.2871 -0.0722  0.1586
 1969TIP3    H127542   6.695   5.781   0.067  0.3972 -0.0095  1.1491
 1969TIP3    H227543   6.768   5.667  -0.001 -0.4876 -0.1342  0.3963
 1970TIP3   OH227544   3.096   1.417   1.705 -0.0828  0.0564 -0.1226
 1970TIP3    H127545   3.164   1.419   1.772 -0.5227 -0.7107  0.3643
 1970TIP3    H227546   3.073   1.508   1.691  1.5447  0.3908 -0.8198
 1971TIP3   OH227547   3.182   0.315   0.812  0.3934 -0.5499  0.0632
 1971TIP3    H127548   3.196   0.264   0.891 -0.4682  0.8301  1.1626
 1971TIP3    H227549   3.268   0.321   0.771  1.0810 -0.3970  1.4709
 1972TIP3   OH227550   3.334   2.726   1.962  0.4605 -0.0665  0.0205
 1972TIP3    H127551   3.429   2.736   1.957  0.4940  0.4064  1.2113
 1972TIP3    H227552   3.304   2.805   2.008 -0.3530 -0.8778  0.9369
 1973TIP3   OH227553   1.438   4.514   0.936 -0.2093  0.3410 -0.2598
 1973TIP3    H127554   1.394   4.437   0.971 -1.1103  0.9300 -0.0701
 1973TIP3    H227555   1.371   4.582   0.934  1.0722  1.7966  1.7124
 1974TIP3   OH227556   0.128   6.347   1.963 -0.1395 -0.0984  0.4386
 1974TIP3    H127557   0.047   6.381   1.926  1.5823  0.3984 -3.4680
 1974TIP3    H227558   0.161   6.416   2.020 -1.5532  0.4332  0.6342
 1975TIP3   OH227559   3.559   1.328   0.985  0.1966  0.1955 -0.0965
 1975TIP3    H127560   3.490   1.314   0.919  0.3942  2.6188 -0.9348
 1975TIP3    H227561   3.522   1.294   1.066 -1.3175 -0.0601 -0.8525
 1976TIP3   OH227562   4.677   0.046   2.092  0.2665 -0.6730 -0.2417
 1976TIP3    H127563   4.670   0.133   2.052 -2.3153 -0.8576 -0.3590
 1976TIP3    H227564   4.744   0.001   2.040 -0.0155  0.4890 -1.6831
 1977TIP3   OH227565   1.992   0.259   6.486 -0.0526 -0.2124 -0.0017
 1977TIP3    H127566   1.950   0.189   6.536  0.0922 -0.8270 -0.7213
 1977TIP3    H227567   1.976   0.236   6.394 -0.3214  0.8992 -0.2427
 1978TIP3   OH227568   1.445   3.118   0.233  0.4731 -0.1310  0.1311
 1978TIP3    H127569   1.525   3.113   0.180  0.1496  0.3868 -0.4109
 1978TIP3    H227570   1.422   3.211   0.234 -0.2247 -0.2960  0.1244
 1979TIP3   OH227571   5.820   0.735   0.659 -0.1199  0.4432  0.2240
 1979TIP3    H127572   5.725   0.736   0.646  0.1856  0.4871 -2.6478
 1979TIP3    H227573   5.855   0.699   0.578  2.3839  1.1460  0.8928
 1980TIP3   OH227574   0.237   3.071   2.666  0.1948  0.2258 -0.3546
 1980TIP3    H127575   0.247   3.080   2.571 -1.6948  1.2719 -0.4991
 1980TIP3    H227576   0.281   2.989   2.687  1.1461  0.2631 -2.0448
 1981TIP3   OH227577   4.284   4.685   0.753 -0.3629  0.0058  0.2514
 1981TIP3    H127578   4.314   4.775   0.743 -2.3515  0.4794 -3.2032
 1981TIP3    H227579   4.345   4.633   0.701 -2.1374  0.2397 -2.2674
 1982TIP3   OH227580   6.084   2.416   1.748  0.0178  0.1599 -0.0250
 1982TIP3    H127581   6.062   2.417   1.842  0.0367  0.2418 -0.0215
 1982TIP3    H227582   6.151   2.347   1.740 -0.2237 -0.0740 -0.0326
 1983TIP3   OH227583   6.930   3.736   8.307  0.5209 -0.3570 -0.1236
 1983TIP3    H127584   6.957   3.780   8.388 -1.0299 -0.4606  0.4811
 1983TIP3    H227585   6.857   3.681   8.334 -0.2148 -0.1650 -1.6597
 1984TIP3   OH227586   6.487   0.409   1.416 -0.0854 -0.1172  0.9817
 1984TIP3    H127587   6.576   0.378   1.433 -0.2513 -0.7943  0.6445
 1984TIP3    H227588   6.447   0.339   1.364 -0.9796 -0.0572  1.5705
 1985TIP3   OH227589   5.482   6.117   7.838 -0.1445  0.1190  0.2781
 1985TIP3    H127590   5.541   6.192   7.840 -0.5145  0.4182  0.1820
 1985TIP3    H227591   5.511   6.061   7.910  0.2846  0.2382  0.1972
 1986TIP3   OH227592   1.238   1.145   1.235 -0.4233 -0.2470  0.1811
 1986TIP3    H127593   1.223   1.163   1.328 -0.7441  0.8792 -0.0770
 1986TIP3    H227594   1.327   1.176   1.218 -1.6335  3.2080 -0.7124
 1987TIP3   OH227595   4.047   6.538   6.611 -0.1951 -0.0697  0.3140
 1987TIP3    H127596   4.041   6.618   6.663 -0.8502 -0.1803  0.4265
 1987TIP3    H227597   3.966   6.491   6.631  0.5422 -1.1343  0.8599
 1988TIP3   OH227598   2.796   6.463   7.113 -0.2503 -0.7668 -0.0839
 1988TIP3    H127599   2.859   6.393   7.125  0.1263 -0.5775 -0.8733
 1988TIP3    H227600   2.848   6.543   7.119 -0.7518 -0.5126  1.3164
 1989TIP3   OH227601   5.976   2.102   1.220  0.7137 -0.4079 -0.8384
 1989TIP3    H127602   6.037   2.079   1.290  1.0158 -0.1017 -0.9951
 1989TIP3    H227603   6.015   2.179   1.179  1.1691 -1.2872 -2.1160
 1990TIP3   OH227604   2.553   6.638   7.237  0.7604 -0.3411  0.6887
 1990TIP3    H127605   2.635   6.669   7.200  0.3406  1.4007  1.1410
 1990TIP3    H227606   2.579   6.579   7.308  1.6253  0.4997  1.0872
 1991TIP3   OH227607   0.954   6.898   1.091  0.1307 -0.3571 -0.6620
 1991TIP3    H127608   0.907   6.866   1.014 -0.6021 -0.4326 -0.1988
 1991TIP3    H227609   0.885   6.921   1.154  0.7225 -0.7958  0.1737
 1992TIP3   OH227610   0.993   3.660   8.333  0.1396  0.7354  0.2941
 1992TIP3    H127611   0.910   3.660   8.286  0.8818  2.8756 -1.1882
 1992TIP3    H227612   1.057   3.691   8.268  1.8613  0.4405  1.7703
 1993TIP3   OH227613   4.300   4.529   8.409  0.1050 -0.9350  0.3286
 1993TIP3    H127614   4.389   4.556   8.433  0.4840 -1.5594 -0.3545
 1993TIP3    H227615   4.257   4.611   8.383  0.5872 -0.6756  0.3283
 1994TIP3   OH227616   4.347   4.731   6.452 -0.3130 -0.6073  0.3488
 1994TIP3    H127617   4.413   4.685   6.400  0.4195  0.8443 -0.0344
 1994TIP3    H227618   4.385   4.817   6.469 -1.9047  0.0811  0.5590
 1995TIP3   OH227619   3.655   1.840   0.705 -0.6103 -0.3308  0.1133
 1995TIP3    H127620   3.644   1.794   0.789 -0.2201 -0.9405 -0.1670
 1995TIP3    H227621   3.601   1.918   0.714 -1.0393 -0.6850  0.7171
 1996TIP3   OH227622   5.706   2.936   6.278  0.6411  0.0251  0.0128
 1996TIP3    H127623   5.745   2.916   6.192  1.9695  0.2805  0.5365
 1996TIP3    H227624   5.778   2.923   6.340 -0.5677 -1.1286  1.2156
 1997TIP3   OH227625   0.007   0.650   0.022 -0.0642  0.0462  0.8419
 1997TIP3    H127626  -0.033   0.565   0.003  0.0475 -0.0532  1.0527
 1997TIP3    H227627   0.090   0.629   0.065 -0.4044  0.2669  1.6239
 1998TIP3   OH227628   4.331   0.237   1.663 -0.2189 -0.3620 -0.0672
 1998TIP3    H127629   4.384   0.167   1.702 -1.2101 -0.4443  1.2220
 1998TIP3    H227630   4.247   0.195   1.644 -0.1562 -0.0004 -1.1709
 1999TIP3   OH227631   3.448   6.392   0.511  0.9044  0.3514  0.1289
 1999TIP3    H127632   3.533   6.434   0.502  0.6868  1.1848  1.7137
 1999TIP3    H227633   3.402   6.443   0.577 -0.7932 -0.1631 -0.5945
 2000TIP3   OH227634   6.421   5.617   8.405  0.0004 -0.4735 -0.0618
 2000TIP3    H127635   6.513   5.636   8.422  0.5188 -1.6056 -1.4085
 2000TIP3    H227636   6.419   5.589   8.314 -1.6983 -0.3860 -0.0744
 2001TIP3   OH227637   1.160   4.548   7.083  0.9899 -0.7325 -0.2760
 2001TIP3    H127638   1.190   4.551   6.992  0.3999 -0.3853 -0.4641
 2001TIP3    H227639   1.080   4.601   7.084  1.1876 -0.4386  0.5258
 2002TIP3   OH227640   1.910   3.132   0.303  0.8771 -0.1994  0.3110
 2002TIP3    H127641   1.884   3.100   0.390 -1.2510  2.0690  0.6321
 2002TIP3    H227642   1.954   3.215   0.320  0.7522  0.0983 -0.7659
 2003TIP3   OH227643   3.899   6.593   6.318  0.2632 -0.1346  0.2015
 2003TIP3    H127644   3.883   6.686   6.336 -1.5842 -0.5797  1.0190
 2003TIP3    H227645   3.926   6.591   6.226 -1.3996  1.0533 -0.3554
 2004TIP3   OH227646   5.830   5.465   8.280 -0.5448 -0.1644  0.3527
 2004TIP3    H127647   5.891   5.412   8.331  0.0255 -0.0368 -0.1956
 2004TIP3    H227648   5.792   5.404   8.217 -0.0383  0.0341 -0.1444
 2005TIP3   OH227649   0.614   2.092   6.227 -0.3905  0.0879  0.1298
 2005TIP3    H127650   0.519   2.098   6.225 -0.4150 -0.4590 -0.5127
 2005TIP3    H227651   0.643   2.181   6.247 -1.0775 -0.0978  2.1907
 2006TIP3   OH227652   5.991   6.087   7.567  0.2474  0.4408  1.1388
 2006TIP3    H127653   6.078   6.051   7.586  1.3634  1.6173 -1.2775
 2006TIP3    H227654   5.930   6.024   7.604  2.1016 -2.5468 -0.4731
 2007TIP3   OH227655   6.377   6.326   8.453  0.6152  0.3380 -0.5951
 2007TIP3    H127656   6.320   6.355   8.382  1.5359  0.5727 -1.2503
 2007TIP3    H227657   6.331   6.251   8.491 -1.0214  1.5937  0.0836
 2008TIP3   OH227658   6.300   3.845   2.320 -0.7504  0.6998  0.1282
 2008TIP3    H127659   6.338   3.779   2.262  0.2391  0.3067  1.1715
 2008TIP3    H227660   6.221   3.804   2.354 -0.2473  0.1094  0.6127
 2009TIP3   OH227661   6.418   0.655   1.587 -0.2898 -0.2155  0.3217
 2009TIP3    H127662   6.499   0.687   1.629 -0.6488  1.1417  0.0275
 2009TIP3    H227663   6.441   0.569   1.554  0.7425 -0.2813  1.1491
 2010TIP3   OH227664   2.540   2.507   7.931 -0.0559 -0.2514 -0.3678
 2010TIP3    H127665   2.562   2.429   7.880  1.1366  0.3980 -0.9043
 2010TIP3    H227666   2.497   2.565   7.868  0.8160  0.2824 -0.4969
 2011TIP3   OH227667   0.512   5.272   0.584  0.4622  0.3789  0.1491
 2011TIP3    H127668   0.561   5.225   0.651  1.5849  1.3364  0.0456
 2011TIP3    H227669   0.438   5.311   0.632  0.1925 -0.4776  0.4509
 2012TIP3   OH227670   6.100   1.460   0.611 -0.0636  0.1593  0.1733
 2012TIP3    H127671   6.077   1.534   0.668 -0.9200  0.7412 -0.8672
 2012TIP3    H227672   6.057   1.385   0.650 -0.7150  0.5701  0.2713
 2013TIP3   OH227673   0.802   1.876   6.713 -0.3282 -0.5976 -0.1075
 2013TIP3    H127674   0.750   1.948   6.748  0.2485 -0.6339  0.8766
 2013TIP3    H227675   0.740   1.803   6.705 -0.7473 -0.2103 -0.3821
 2014TIP3   OH227676   5.643   6.559   0.974  0.0575 -0.4123  0.5319
 2014TIP3    H127677   5.618   6.474   0.940  1.7745 -0.0000 -2.0484
 2014TIP3    H227678   5.561   6.598   1.005 -1.0719 -2.1773 -0.1067
 2015TIP3   OH227679   5.758   3.379   7.959  0.1797 -0.2387  0.5202
 2015TIP3    H127680   5.736   3.443   7.891  2.1991  0.0392  0.0676
 2015TIP3    H227681   5.727   3.295   7.924 -3.6641  0.5221  1.6690
 2016TIP3   OH227682   3.451   3.461   1.517 -0.0253 -0.6342  0.0636
 2016TIP3    H127683   3.436   3.372   1.549  1.0439 -0.9082 -0.1707
 2016TIP3    H227684   3.497   3.506   1.588  0.3366 -0.5695 -0.2088
 2017TIP3   OH227685   5.271   1.276   7.488 -0.2837  0.0068  0.1445
 2017TIP3    H127686   5.363   1.256   7.472 -0.2776 -0.0479  0.2470
 2017TIP3    H227687   5.254   1.353   7.434  0.5463  1.6900  2.1008
 2018TIP3   OH227688   0.027   0.778   0.593 -0.3465 -0.3690 -0.2063
 2018TIP3    H127689   0.009   0.746   0.682 -0.6621 -0.2894 -0.2410
 2018TIP3    H227690   0.017   0.873   0.598  2.1007 -0.0543  0.2626
 2019TIP3   OH227691   4.660   1.429   7.401 -0.3202 -0.5985 -0.5530
 2019TIP3    H127692   4.726   1.483   7.359  0.8273 -1.2866  0.3088
 2019TIP3    H227693   4.608   1.491   7.453 -1.1118  0.1021 -2.1290
 2020TIP3   OH227694   5.599   4.652   6.992 -0.0720 -0.3342  0.3152
 2020TIP3    H127695   5.640   4.600   6.922 -0.5334  0.1101 -0.2941
 2020TIP3    H227696   5.505   4.643   6.977 -0.3678 -2.8138  2.7476
 2021TIP3   OH227697   3.671   3.555   0.136 -0.0421 -0.3967  0.3060
 2021TIP3    H127698   3.729   3.621   0.174 -0.4396 -0.7400  1.5456
 2021TIP3    H227699   3.682   3.478   0.191 -1.4880 -0.5453  0.4234
 2022TIP3   OH227700   6.585   0.006   0.896 -0.5482  0.4588 -0.7040
 2022TIP3    H127701   6.560  -0.086   0.909 -1.0174  0.5789 -0.7198
 2022TIP3    H227702   6.679   0.008   0.913 -0.5224 -0.0380 -0.7708
 2023TIP3   OH227703   2.946   5.913   0.681  0.6775 -0.0622  0.0142
 2023TIP3    H127704   3.033   5.913   0.720  1.1172  0.8418 -0.9118
 2023TIP3    H227705   2.902   5.836   0.718  0.8164  1.0833  2.8030
 2024TIP3   OH227706   6.021   5.161   0.490 -0.2210 -0.4587 -0.9185
 2024TIP3    H127707   6.021   5.182   0.584 -1.4566 -1.4567 -0.6769
 2024TIP3    H227708   6.016   5.247   0.447  0.8037  0.0400 -0.1028
 2025TIP3   OH227709   3.913   0.924   7.118 -0.4769  0.3026 -0.2446
 2025TIP3    H127710   3.900   0.991   7.185  0.0340  0.3971 -0.2364
 2025TIP3    H227711   3.975   0.862   7.157 -0.2780  0.2859 -0.5786
 2026TIP3   OH227712   5.472   3.541   1.786  0.4365  0.4892  0.5897
 2026TIP3    H127713   5.464   3.447   1.805  1.2222 -0.1290 -1.7897
 2026TIP3    H227714   5.563   3.562   1.803  0.0123  1.1503  2.2325
 2027TIP3   OH227715   6.923   2.115   1.296 -0.1062 -0.4977 -0.0478
 2027TIP3    H127716   6.993   2.122   1.231 -0.8700 -0.1139 -0.8598
 2027TIP3    H227717   6.843   2.132   1.246 -0.8117 -1.2579  0.7888
 2028TIP3   OH227718   0.648   6.500   7.180 -0.1891  0.4961 -0.1165
 2028TIP3    H127719   0.582   6.543   7.234 -1.6742 -0.7843 -0.8484
 2028TIP3    H227720   0.731   6.528   7.218 -1.1225 -0.9739  3.3534
 2029TIP3   OH227721   6.243   1.602   7.183  0.2739  0.3520  0.2539
 2029TIP3    H127722   6.210   1.690   7.202 -0.9550 -0.1220  0.3507
 2029TIP3    H227723   6.314   1.590   7.247 -1.0544  0.4066  1.7987
 2030TIP3   OH227724   1.025   3.647   6.700 -0.1255 -0.1216  0.0051
 2030TIP3    H127725   1.056   3.736   6.685  0.5405 -0.1860  0.9139
 2030TIP3    H227726   0.986   3.621   6.616 -0.1499  0.9417 -0.3313
 2031TIP3   OH227727   4.967   3.241   0.882 -0.3577  0.5842  0.0455
 2031TIP3    H127728   4.967   3.273   0.972 -0.6010 -0.7903  0.5667
 2031TIP3    H227729   4.874   3.236   0.858 -0.2585  1.9879 -0.6896
 2032TIP3   OH227730   1.434   5.300   7.903  0.0067  0.1607 -0.5266
 2032TIP3    H127731   1.469   5.261   7.984 -2.0972  0.4551  0.5945
 2032TIP3    H227732   1.373   5.234   7.870 -2.1979  1.6413  0.3879
 2033TIP3   OH227733   3.063   2.304   7.126 -0.3115  0.4375 -0.1782
 2033TIP3    H127734   3.092   2.229   7.073 -0.6805  0.9955 -1.2082
 2033TIP3    H227735   3.100   2.380   7.082 -0.9949  0.9529  0.1228
 2034TIP3   OH227736   4.370   2.128   1.515  0.3762 -0.4745  0.8165
 2034TIP3    H127737   4.333   2.044   1.486  2.1261 -1.0660  0.1309
 2034TIP3    H227738   4.463   2.109   1.528  0.8628  1.4414  0.3622
 2035TIP3   OH227739   6.660   2.825   0.548 -0.1041 -0.2298 -0.1457
 2035TIP3    H127740   6.603   2.775   0.606  0.5893 -1.0012 -0.1080
 2035TIP3    H227741   6.628   2.915   0.554  1.1147  0.1098  2.9644
 2036TIP3   OH227742   2.585   6.866   0.847 -0.1458  0.4427  0.6559
 2036TIP3    H127743   2.509   6.808   0.846 -1.2359  1.7856  1.1890
 2036TIP3    H227744   2.659   6.809   0.871 -0.9803 -0.8848  0.1811
 2037TIP3   OH227745   4.763   0.463   6.539  0.0847 -0.3898 -0.5405
 2037TIP3    H127746   4.823   0.501   6.475 -1.2014 -0.2231 -1.7027
 2037TIP3    H227747   4.695   0.421   6.486 -0.6809 -0.8059  0.7226
 2038TIP3   OH227748   2.803   0.769   0.975 -0.2436 -0.0531  0.4053
 2038TIP3    H127749   2.777   0.802   0.889 -1.8012  0.2016  0.9420
 2038TIP3    H227750   2.798   0.845   1.033  2.5471  0.2027  0.4361
 2039TIP3   OH227751   3.896   5.655   1.501 -0.2212  0.1327 -0.0981
 2039TIP3    H127752   3.810   5.689   1.477  0.8195  2.0374 -1.3692
 2039TIP3    H227753   3.958   5.720   1.468  1.6400  0.0268  2.8626
 2040TIP3   OH227754   2.127   3.607   8.381  0.4041 -0.2162 -0.8459
 2040TIP3    H127755   2.152   3.608   8.473  0.7357  0.0909 -0.9328
 2040TIP3    H227756   2.090   3.694   8.365 -2.7509 -1.3302 -0.2082
 2041TIP3   OH227757   6.839   4.325   7.432 -0.1405 -0.6832  0.2720
 2041TIP3    H127758   6.784   4.345   7.507 -1.8437 -0.7872 -0.8907
 2041TIP3    H227759   6.784   4.271   7.375  0.9333 -0.2441 -1.2622
 2042TIP3   OH227760   1.225   2.192   7.110 -0.8221  0.5175  0.5760
 2042TIP3    H127761   1.145   2.231   7.147  0.1490  0.9030  2.3824
 2042TIP3    H227762   1.263   2.262   7.057 -0.4806  1.1367  1.6203
 2043TIP3   OH227763   3.150   2.857   0.846 -0.0894  0.2586  0.2686
 2043TIP3    H127764   3.168   2.891   0.934  0.5701 -0.9729  0.6254
 2043TIP3    H227765   3.165   2.932   0.788 -0.2775  1.0149  1.1746
 2044TIP3   OH227766   1.859   0.823   2.117  0.3476  0.1889  0.2323
 2044TIP3    H127767   1.857   0.755   2.050 -0.6074  0.3954  0.0307
 2044TIP3    H227768   1.832   0.778   2.197 -0.4934  0.3646  0.0556
 2045TIP3   OH227769   2.184   1.572   0.639  0.3781 -0.3617 -0.2462
 2045TIP3    H127770   2.247   1.550   0.570 -1.6313 -0.8729 -2.0353
 2045TIP3    H227771   2.130   1.641   0.601  0.4358  0.7940  1.6353
 2046TIP3   OH227772   6.408   4.665   7.202 -0.3250  0.1551  0.2119
 2046TIP3    H127773   6.482   4.612   7.234 -1.1209 -0.3447  1.2962
 2046TIP3    H227774   6.396   4.733   7.269 -0.7396  0.3400 -0.0430
 2047TIP3   OH227775   2.302   4.546   8.238 -0.0897  0.4872  0.6297
 2047TIP3    H127776   2.208   4.530   8.246  0.1516 -0.6248  1.3782
 2047TIP3    H227777   2.344   4.470   8.278  1.1689 -0.0911 -1.5546
 2048TIP3   OH227778   0.835   3.049   2.257  0.2775  0.4022 -0.1558
 2048TIP3    H127779   0.920   3.074   2.293  0.8839  1.3905 -2.1155
 2048TIP3    H227780   0.820   2.960   2.289  1.7116  0.4823  0.7979
 2049TIP3   OH227781   6.566   4.587   0.033  0.1835  0.4770  0.1286
 2049TIP3    H127782   6.487   4.543   0.063  0.6914 -0.3115  0.3267
 2049TIP3    H227783   6.630   4.517   0.020  0.8088  1.0872 -0.1732
 2050TIP3   OH227784   0.088   1.618   0.804  0.2686  0.0319 -0.0154
 2050TIP3    H127785   0.011   1.675   0.800 -0.8987 -1.3987  0.8073
 2050TIP3    H227786   0.133   1.633   0.721  0.0912  2.2078  0.2145
 2051TIP3   OH227787   3.600   5.865   6.884 -0.3175  0.7067  0.1748
 2051TIP3    H127788   3.668   5.874   6.951 -1.5196  0.0210  1.5287
 2051TIP3    H227789   3.635   5.801   6.822 -0.5226 -1.2142  1.9541
 2052TIP3   OH227790   1.132   5.843   6.092 -0.0090  0.4048 -0.1713
 2052TIP3    H127791   1.055   5.900   6.104 -1.4382 -1.2782 -0.9079
 2052TIP3    H227792   1.119   5.804   6.006  0.7845 -1.2451  0.4247
 2053TIP3   OH227793   0.445   4.705   8.502 -0.7488 -0.1013 -0.6184
 2053TIP3    H127794   0.375   4.670   8.558 -0.5787 -0.0298 -0.3601
 2053TIP3    H227795   0.398   4.746   8.429 -0.9640 -0.4092 -0.6565
 2054TIP3   OH227796   2.218   5.170   6.709 -0.0601  0.2815 -0.2694
 2054TIP3    H127797   2.224   5.082   6.671  0.4257 -0.2953  1.0517
 2054TIP3    H227798   2.181   5.224   6.640 -0.5436 -1.0040 -1.0590
 2055TIP3   OH227799   6.905   3.003   7.471 -0.0819 -0.4097 -0.1306
 2055TIP3    H127800   6.950   2.997   7.387 -0.1865  0.2493 -0.2402
 2055TIP3    H227801   6.970   2.978   7.536  0.5145  0.7206 -0.2691
 2056TIP3   OH227802   1.779   1.002   0.710 -0.3511  0.1698  0.3476
 2056TIP3    H127803   1.718   0.931   0.688 -1.6114  1.5960 -0.9566
 2056TIP3    H227804   1.812   0.978   0.797 -2.5432 -0.8460  0.9853
 2057TIP3   OH227805   2.934   0.868   0.305 -0.0060 -0.7823 -0.2579
 2057TIP3    H127806   2.934   0.929   0.231 -0.5325  0.3988  0.6852
 2057TIP3    H227807   2.955   0.923   0.381  3.2111 -2.3835  0.1990
 2058TIP3   OH227808   4.656   0.593   0.197  0.2123 -0.3679  0.6050
 2058TIP3    H127809   4.722   0.538   0.155  1.1715 -1.4046  3.2444
 2058TIP3    H227810   4.635   0.548   0.279 -2.3156  0.9687  0.7973
 2059TIP3   OH227811   5.400   4.554   7.339  0.0799  0.1504 -0.3287
 2059TIP3    H127812   5.487   4.590   7.322 -0.4679  1.5996 -0.1185
 2059TIP3    H227813   5.417   4.469   7.381  1.3847  0.2962 -0.5356
 2060TIP3   OH227814   4.003   2.799   8.051  0.4334 -0.0036  0.6102
 2060TIP3    H127815   3.931   2.736   8.055  1.3002 -0.9801  1.5454
 2060TIP3    H227816   3.972   2.873   8.104  0.1653 -0.4658  1.1084
 2061TIP3   OH227817   1.634   1.197   0.145  0.5082 -0.0735 -0.1666
 2061TIP3    H127818   1.685   1.120   0.121  0.8095 -0.0517  0.3709
 2061TIP3    H227819   1.679   1.270   0.102  1.1937 -0.0027  0.6484
 2062TIP3   OH227820   1.446   1.876   0.921 -0.0128  0.0467  0.1643
 2062TIP3    H127821   1.494   1.804   0.882  1.3836  0.7357  0.5632
 2062TIP3    H227822   1.386   1.905   0.852  1.9544  0.8274 -1.2887
 2063TIP3   OH227823   0.234   1.458   0.458 -0.2901  0.1197 -0.1497
 2063TIP3    H127824   0.180   1.388   0.421  0.5857 -1.3170  1.1748
 2063TIP3    H227825   0.278   1.418   0.533 -0.6382  2.3985  1.4177
 2064TIP3   OH227826   4.515   6.876   8.002  0.2737 -0.1024  0.8460
 2064TIP3    H127827   4.426   6.848   7.980  0.9368 -2.0656  0.4634
 2064TIP3    H227828   4.571   6.802   7.977  2.2653  1.7635 -0.7167
 2065TIP3   OH227829   1.985   2.370   8.283 -0.1195  0.7100  0.4535
 2065TIP3    H127830   2.055   2.309   8.259 -1.1458  0.2883 -1.7172
 2065TIP3    H227831   1.987   2.373   8.379  0.5666 -2.0474  0.6104
 2066TIP3   OH227832   4.214   5.587   6.958  0.2277 -0.4175  0.4005
 2066TIP3    H127833   4.307   5.578   6.976 -0.0520 -2.0378  1.2090
 2066TIP3    H227834   4.202   5.679   6.936  1.8283  0.0629  1.4168
 2067TIP3   OH227835   3.155   4.250   7.362  0.3234  0.0136 -0.4582
 2067TIP3    H127836   3.117   4.278   7.446  0.3716 -0.1596 -0.3781
 2067TIP3    H227837   3.179   4.332   7.319 -0.3568  0.1393 -0.6126
 2068TIP3   OH227838   5.570   4.083   2.036  0.3119 -0.5081  0.3382
 2068TIP3    H127839   5.515   4.148   2.081  1.9736 -0.4839  2.5162
 2068TIP3    H227840   5.552   4.001   2.082  0.2546 -1.0231 -0.5891
 2069TIP3   OH227841   5.879   0.242   0.687 -0.2303  0.1736 -0.0197
 2069TIP3    H127842   5.841   0.321   0.648 -0.1253  2.0515  3.2833
 2069TIP3    H227843   5.803   0.194   0.720 -0.1807 -0.1996 -0.4418
 2070TIP3   OH227844   3.321   3.835   0.006 -0.5210 -0.3909 -0.0155
 2070TIP3    H127845   3.308   3.816  -0.087 -0.3355 -0.5854 -0.0032
 2070TIP3    H227846   3.336   3.749   0.046  0.7892 -0.1942 -0.0243
 2071TIP3   OH227847   5.302   1.088   7.112 -0.1084  0.3410 -0.2389
 2071TIP3    H127848   5.364   1.064   7.043 -2.7702  0.6819 -2.9734
 2071TIP3    H227849   5.326   1.177   7.136  2.4655 -0.6614  1.3271
 2072TIP3   OH227850   0.972   5.773   1.108 -0.2536 -0.0682  0.3582
 2072TIP3    H127851   1.055   5.787   1.063 -0.3113  0.7045  0.4798
 2072TIP3    H227852   0.995   5.727   1.189  0.2663  1.5618  1.1825
 2073TIP3   OH227853   1.214   2.704   1.109 -0.0256  0.2565 -0.0970
 2073TIP3    H127854   1.219   2.786   1.159 -0.1790 -0.3510  0.9438
 2073TIP3    H227855   1.186   2.731   1.022  1.1322  1.4504 -0.1315
 2074TIP3   OH227856   4.539   6.664   0.682  0.4303 -0.4414 -0.3231
 2074TIP3    H127857   4.518   6.706   0.765 -0.9652 -0.1684 -0.7933
 2074TIP3    H227858   4.495   6.579   0.686  0.2950 -0.3984 -0.8066
 2075TIP3   OH227859   4.714   4.580   7.095  0.3764 -0.8160  0.2653
 2075TIP3    H127860   4.699   4.655   7.037 -0.8032 -0.2003  1.3145
 2075TIP3    H227861   4.639   4.580   7.154  1.3238 -1.6635  1.5296
 2076TIP3   OH227862   2.049   3.625   1.296 -0.5939  0.3970 -0.6273
 2076TIP3    H127863   2.057   3.538   1.336 -1.7593  1.0799  1.1907
 2076TIP3    H227864   2.095   3.684   1.355 -0.7785  1.1807 -1.2509
 2077TIP3   OH227865   4.933   1.720   7.731 -0.1802 -0.3951  0.1035
 2077TIP3    H127866   4.942   1.814   7.746 -0.2645  0.0663 -2.3087
 2077TIP3    H227867   4.838   1.706   7.728 -0.1840 -0.7556  1.3217
 2078TIP3   OH227868   6.683   0.185   6.856 -0.1812 -0.0615  0.2607
 2078TIP3    H127869   6.648   0.099   6.830  1.5782 -0.7400  0.0256
 2078TIP3    H227870   6.672   0.239   6.778  1.7765 -1.0755 -0.8090
 2079TIP3   OH227871   0.411   1.601   7.010  0.2047  0.1054  0.0674
 2079TIP3    H127872   0.370   1.640   6.933  2.3016  0.5895 -0.8643
 2079TIP3    H227873   0.476   1.665   7.039 -0.5944 -0.0123  2.3531
 2080TIP3   OH227874   6.465   4.739   8.380 -0.2519  0.3500 -0.0587
 2080TIP3    H127875   6.373   4.717   8.366 -0.5335  0.4035  1.5406
 2080TIP3    H227876   6.491   4.687   8.456  0.5427  1.5963  0.5546
 2081TIP3   OH227877   3.174   5.115   0.009 -0.5070 -0.1468  0.0671
 2081TIP3    H127878   3.080   5.107  -0.007 -1.0285  1.8132  1.6916
 2081TIP3    H227879   3.181   5.145   0.099  1.5838  1.2928 -0.4908
 2082TIP3   OH227880   0.493   3.946   1.673  0.2399  0.2566  0.0338
 2082TIP3    H127881   0.512   4.004   1.747 -1.0058  0.5857  0.1191
 2082TIP3    H227882   0.418   3.986   1.630 -1.1899 -1.6823  0.5794
 2083TIP3   OH227883   4.506   1.708   1.120 -0.4285  0.5570 -0.4215
 2083TIP3    H127884   4.529   1.623   1.083 -1.5193 -0.0006  0.1314
 2083TIP3    H227885   4.422   1.730   1.078 -0.3198  1.2035 -0.3091
 2084TIP3   OH227886   6.189   3.490   2.131  0.4507 -0.1070 -0.2039
 2084TIP3    H127887   6.196   3.548   2.207 -0.0313  0.4433 -0.5648
 2084TIP3    H227888   6.144   3.412   2.164  1.0490 -0.2597  0.2722
 2085TIP3   OH227889   4.796   1.124   8.215  0.0606  0.5733  0.5079
 2085TIP3    H127890   4.832   1.037   8.198 -1.0414  0.4249 -1.2854
 2085TIP3    H227891   4.872   1.182   8.216  0.8259 -0.3921  1.9141
 2086TIP3   OH227892   3.820   4.931   2.329  0.0038 -0.1327  0.1905
 2086TIP3    H127893   3.895   4.988   2.319 -0.0633 -0.2748 -1.4428
 2086TIP3    H227894   3.748   4.978   2.286 -0.5726 -0.4954  0.7338
 2087TIP3   OH227895   3.706   5.909   8.124 -0.5563  0.4411 -0.0009
 2087TIP3    H127896   3.714   5.879   8.033  0.2313  1.2082 -0.2000
 2087TIP3    H227897   3.788   5.956   8.140 -1.1886  1.3152  0.7348
 2088TIP3   OH227898   3.398   0.158   1.223  0.2875  0.3187 -0.7582
 2088TIP3    H127899   3.381   0.231   1.283  0.5018 -1.3855  1.4527
 2088TIP3    H227900   3.455   0.099   1.271 -0.6147 -1.7882 -2.1212
 2089TIP3   OH227901   2.245   0.697   7.503  0.0402  0.2559  0.0906
 2089TIP3    H127902   2.173   0.695   7.440  0.7719 -0.5492 -0.7489
 2089TIP3    H227903   2.322   0.671   7.453  0.7775  0.2850  1.1631
 2090TIP3   OH227904   5.004   3.404   0.265  0.1745 -0.3575  0.4470
 2090TIP3    H127905   4.959   3.320   0.253 -0.6206  0.1380 -0.1773
 2090TIP3    H227906   4.935   3.464   0.291  0.8078  0.0260  1.2616
 2091TIP3   OH227907   3.116   3.339   1.114 -0.2918 -0.0830 -0.1342
 2091TIP3    H127908   3.022   3.324   1.111 -0.1726 -0.5996 -2.0647
 2091TIP3    H227909   3.128   3.425   1.075  0.0763 -0.1781 -0.2343
 2092TIP3   OH227910   0.377   0.430   0.303  0.5374 -0.4412 -0.3554
 2092TIP3    H127911   0.363   0.398   0.392  1.2966  1.5525  0.5302
 2092TIP3    H227912   0.472   0.424   0.289  0.3219 -1.8279 -1.5081
 2093TIP3   OH227913   3.185   2.421   7.361 -0.0172 -0.5917  0.2915
 2093TIP3    H127914   3.231   2.347   7.400  1.7872 -0.5382 -1.5587
 2093TIP3    H227915   3.141   2.385   7.284 -0.6511 -0.0630  0.3913
 2094TIP3   OH227916   5.779   6.559   0.714 -0.1570 -0.1649  0.1176
 2094TIP3    H127917   5.688   6.570   0.685  0.5870  1.7472 -1.7119
 2094TIP3    H227918   5.782   6.603   0.799 -0.3465  2.4206 -1.1268
 2095TIP3   OH227919   5.750   2.772   7.500  0.1920  0.0258  0.1442
 2095TIP3    H127920   5.813   2.737   7.437  0.4463  1.0077 -0.1779
 2095TIP3    H227921   5.701   2.696   7.531  1.0981 -0.6716 -0.0866
 2096TIP3   OH227922   3.573   4.317   0.526  0.4011  0.9048 -0.1099
 2096TIP3    H127923   3.530   4.323   0.611  0.4549  1.0194 -0.0903
 2096TIP3    H227924   3.537   4.389   0.475  1.8394  2.1153  0.4845
 2097TIP3   OH227925   0.701   1.839   1.583  0.0079  0.3018 -0.8349
 2097TIP3    H127926   0.701   1.934   1.597  0.6557  0.4452 -1.7342
 2097TIP3    H227927   0.611   1.819   1.557 -0.4885  0.4472  0.6726
 2098TIP3   OH227928   1.655   1.159   6.368 -0.5880  0.2328 -0.6411
 2098TIP3    H127929   1.627   1.122   6.284  0.6576 -1.3638 -0.3947
 2098TIP3    H227930   1.748   1.179   6.356 -0.7893  1.5520 -0.1467
 2099TIP3   OH227931   5.848   4.110   0.104 -0.2743  0.4569 -0.0452
 2099TIP3    H127932   5.780   4.064   0.153 -1.6486  2.3340 -0.0725
 2099TIP3    H227933   5.854   4.062   0.021 -1.2675  0.0140  0.1227
 2100TIP3   OH227934   3.391   4.144   0.001 -0.0377  0.0273 -0.1142
 2100TIP3    H127935   3.472   4.126   0.048  0.6526 -0.0530 -1.2920
 2100TIP3    H227936   3.418   4.151  -0.091 -1.4666 -0.6591 -0.6082
 2101TIP3   OH227937   0.254   2.102   7.023 -0.1194  0.0415 -0.1760
 2101TIP3    H127938   0.227   2.044   6.952 -1.4176  1.3376 -0.7979
 2101TIP3    H227939   0.183   2.095   7.087 -0.2789  0.8839 -0.2451
 2102TIP3   OH227940   5.013   0.692   5.817  0.3070  0.9723  0.1859
 2102TIP3    H127941   4.998   0.701   5.911  0.2457  1.5442  0.1254
 2102TIP3    H227942   4.949   0.626   5.789  0.6235  0.4705  0.6130
 2103TIP3   OH227943   5.532   3.133   6.361 -0.0360  0.1430 -0.0087
 2103TIP3    H127944   5.490   3.180   6.289  0.1488  1.0289  0.4505
 2103TIP3    H227945   5.577   3.060   6.319 -1.1684 -0.2234 -0.6261
 2104TIP3   OH227946   0.203   5.071   7.565 -0.1533 -0.4043 -0.5314
 2104TIP3    H127947   0.283   5.110   7.601  0.2720 -1.4216 -0.3464
 2104TIP3    H227948   0.140   5.144   7.562  0.5679  0.2525 -0.0418
 2105TIP3   OH227949   2.667   0.835   7.398 -0.6160 -0.0113  0.1212
 2105TIP3    H127950   2.619   0.901   7.348 -1.0275 -0.9208 -0.7045
 2105TIP3    H227951   2.749   0.879   7.423  0.0897  0.1622 -2.2440
 2106TIP3   OH227952   2.317   4.908   2.079  0.0315  0.6676  0.2273
 2106TIP3    H127953   2.379   4.842   2.107  0.0013  0.6352  0.2182
 2106TIP3    H227954   2.240   4.894   2.134  0.3381  1.2379  0.8108
 2107TIP3   OH227955   1.646   1.056   1.525 -0.0792 -0.4474 -0.3390
 2107TIP3    H127956   1.699   1.125   1.484 -0.6378  0.0841 -0.1771
 2107TIP3    H227957   1.602   1.014   1.451  0.1967 -0.5800 -0.4305
 2108TIP3   OH227958   4.475   4.989   0.345 -0.2923  0.2085  0.0679
 2108TIP3    H127959   4.448   5.066   0.296  2.1840  0.9018 -0.3593
 2108TIP3    H227960   4.540   5.022   0.407  0.4231 -1.4521  0.2573
 2109TIP3   OH227961   4.790   0.365   1.633  0.0847 -0.6967  0.2800
 2109TIP3    H127962   4.769   0.298   1.699  0.7932 -1.2326 -0.0261
 2109TIP3    H227963   4.749   0.333   1.553  2.6239 -2.1970 -0.5416
 2110TIP3   OH227964   6.557   0.224   7.099  1.1831  0.4533 -0.1193
 2110TIP3    H127965   6.497   0.297   7.085  1.2770  1.6682  4.2974
 2110TIP3    H227966   6.611   0.221   7.020 -1.0505  2.8970 -1.8892
 2111TIP3   OH227967   6.281   5.429   7.419 -0.1421 -0.1383  0.2036
 2111TIP3    H127968   6.364   5.411   7.464 -1.3378  2.9378  4.1235
 2111TIP3    H227969   6.300   5.505   7.364 -0.2046  0.1233  0.5451
 2112TIP3   OH227970   5.646   0.044   0.250 -0.0686  0.2046  0.3807
 2112TIP3    H127971   5.623  -0.044   0.222  1.1674 -0.4597  1.3388
 2112TIP3    H227972   5.647   0.039   0.346  0.9653  0.9960  0.4228
 2113TIP3   OH227973   3.509   1.428   8.042  0.4718 -0.3706 -0.1488
 2113TIP3    H127974   3.537   1.520   8.051 -0.0282 -0.3216  1.0663
 2113TIP3    H227975   3.498   1.416   7.948 -0.7086  1.2091 -0.2599
 2114TIP3   OH227976   5.051   4.916   7.754 -0.2894  0.2847  0.0049
 2114TIP3    H127977   5.056   4.859   7.830  0.7137 -3.7525 -2.7883
 2114TIP3    H227978   4.973   4.888   7.707  0.6458  0.6071 -1.8596
 2115TIP3   OH227979   4.337   2.624   1.336 -0.1271 -0.0586 -0.3490
 2115TIP3    H127980   4.377   2.660   1.415  0.2021  1.1336 -1.0338
 2115TIP3    H227981   4.329   2.530   1.354 -0.9446  0.3214  1.4651
 2116TIP3   OH227982   5.962   1.540   6.713 -0.3415 -0.0775  0.0464
 2116TIP3    H127983   5.917   1.613   6.756  0.3321 -0.4007  1.3314
 2116TIP3    H227984   5.916   1.462   6.744 -2.0433 -0.2209 -2.4671
 2117TIP3   OH227985   3.269   1.835   8.280  0.5039  0.4756 -0.2670
 2117TIP3    H127986   3.192   1.808   8.331 -0.4740  2.3851 -0.6537
 2117TIP3    H227987   3.298   1.754   8.238  0.0999 -0.7465  1.6512
 2118TIP3   OH227988   3.309   2.638   7.479 -0.0619 -0.0832 -0.4272
 2118TIP3    H127989   3.229   2.602   7.443  0.5434 -1.5953 -0.3177
 2118TIP3    H227990   3.282   2.678   7.562 -0.4808 -1.8790  0.3338
 2119TIP3   OH227991   4.310   1.771   7.899  0.1604  0.2226 -0.6363
 2119TIP3    H127992   4.249   1.698   7.894  1.3637 -0.7718 -1.4934
 2119TIP3    H227993   4.395   1.730   7.912  0.8846  1.4615 -1.2587
 2120TIP3   OH227994   3.354   3.896   0.664 -0.1016 -0.7650 -0.0334
 2120TIP3    H127995   3.345   3.806   0.693 -0.0298 -0.8571 -0.2934
 2120TIP3    H227996   3.437   3.926   0.703 -0.3076 -0.6927  0.3536
 2121TIP3   OH227997   3.255   1.888   1.403 -0.1020  0.4341 -0.6551
 2121TIP3    H127998   3.168   1.924   1.383 -0.0002  1.7602  0.9758
 2121TIP3    H227999   3.243   1.793   1.401 -1.6865  0.5847 -0.2072
 2122TIP3   OH228000   0.323   2.163   1.702  0.6744 -0.1081 -0.2328
 2122TIP3    H128001   0.369   2.198   1.778 -1.6653  0.5160  1.0018
 2122TIP3    H228002   0.311   2.070   1.722  1.2275 -0.2353 -0.4795
 2123TIP3   OH228003   3.932   3.026   0.488 -0.8967 -0.0376  0.1498
 2123TIP3    H128004   3.892   3.070   0.413 -0.5492  0.8965  0.4884
 2123TIP3    H228005   4.026   3.026   0.468 -0.6460  1.3863  1.1292
 2124TIP3   OH228006   0.284   6.280   2.338 -0.4318  0.1285  1.2083
 2124TIP3    H128007   0.218   6.339   2.303  0.7759  0.4672 -0.6575
 2124TIP3    H228008   0.298   6.310   2.428 -1.9916  0.7301  1.2842
 2125TIP3   OH228009   3.478   6.818   6.319  0.0002 -0.4364  0.4490
 2125TIP3    H128010   3.464   6.782   6.407  3.6118 -0.3447  1.2172
 2125TIP3    H228011   3.484   6.740   6.263 -0.9471 -0.5481  0.4755
 2126TIP3   OH228012   1.736   2.265   1.510 -0.0873 -0.7258  0.3424
 2126TIP3    H128013   1.653   2.306   1.534  0.2129 -1.3356  2.6775
 2126TIP3    H228014   1.775   2.325   1.446 -1.4059  0.6058  0.7384
 2127TIP3   OH228015   6.413   2.847   6.984  0.6685  0.0400 -0.2850
 2127TIP3    H128016   6.378   2.864   7.072 -0.3096 -1.8492 -0.2528
 2127TIP3    H228017   6.390   2.924   6.934  1.2285  1.1581  1.1076
 2128TIP3   OH228018   6.010   1.090   7.895 -0.3580 -0.0510 -0.7203
 2128TIP3    H128019   5.963   1.124   7.971  0.8029 -2.1611  1.0585
 2128TIP3    H228020   6.099   1.124   7.905  0.1665 -1.4656 -0.2870
 2129TIP3   OH228021   3.655   6.197   0.115 -0.0413 -0.2801 -0.0736
 2129TIP3    H128022   3.631   6.144   0.040 -1.2389  1.9821 -1.3962
 2129TIP3    H228023   3.581   6.256   0.128  1.6881  1.9422  0.4563
 2130TIP3   OH228024   2.112   1.764   7.851  0.6563  0.2228 -0.4091
 2130TIP3    H128025   2.123   1.670   7.863  1.3208  0.3975  0.4478
 2130TIP3    H228026   2.076   1.794   7.935  0.5220  0.7435 -0.6524
 2131TIP3   OH228027   0.757   5.417   1.712  0.0822  0.3013  0.0690
 2131TIP3    H128028   0.787   5.461   1.791  0.4949 -0.4456  0.3400
 2131TIP3    H228029   0.662   5.411   1.721  0.0024  1.3012 -0.0668
 2132TIP3   OH228030   2.341   2.262   1.112  0.0609 -0.3301 -0.4960
 2132TIP3    H128031   2.426   2.248   1.154 -0.4710 -2.3136  0.0061
 2132TIP3    H228032   2.285   2.295   1.181 -0.0851 -0.9230 -0.3274
 2133TIP3   OH228033   6.837   1.120   1.247  0.6380 -0.3851 -0.2936
 2133TIP3    H128034   6.819   1.125   1.154  1.7847  0.4179 -0.5031
 2133TIP3    H228035   6.893   1.043   1.257  1.5089  0.2118 -0.4656
 2134TIP3   OH228036   5.414   6.468   1.166  0.1849  0.5745  0.1310
 2134TIP3    H128037   5.395   6.533   1.097  0.1987 -0.5665 -0.9856
 2134TIP3    H228038   5.341   6.476   1.227  0.0359  1.4412 -0.1363
 2135TIP3   OH228039   6.410   1.134   6.881 -0.2140  0.0462 -0.1458
 2135TIP3    H128040   6.456   1.146   6.798  2.0842  0.3295  1.0919
 2135TIP3    H228041   6.422   1.216   6.928 -0.7121 -0.4206  0.8394
 2136TIP3   OH228042   4.743   6.193   1.348  0.0839  0.4105  0.1116
 2136TIP3    H128043   4.798   6.218   1.422 -1.7208  0.1201  1.6073
 2136TIP3    H228044   4.744   6.097   1.347 -0.8600  0.3824  0.5508
 2137TIP3   OH228045   1.446   0.599   8.101 -0.2856 -0.1516  0.0576
 2137TIP3    H128046   1.361   0.585   8.144 -0.4240 -0.5961 -0.3509
 2137TIP3    H228047   1.444   0.691   8.074 -0.8484 -0.2894 -0.3895
 2138TIP3   OH228048   2.470   2.867   8.087 -0.4471 -0.1072  0.1616
 2138TIP3    H128049   2.445   2.911   8.006 -0.7805 -1.7987 -0.7240
 2138TIP3    H228050   2.396   2.879   8.146 -0.8156 -0.0487 -0.3078
 2139TIP3   OH228051   5.097   2.419   2.597 -0.0430 -0.4250  0.8813
 2139TIP3    H128052   5.121   2.507   2.629  1.2655 -0.0360 -0.9825
 2139TIP3    H228053   5.008   2.430   2.564  0.4014  0.4850 -0.1172
 2140TIP3   OH228054   6.339   0.536   7.282 -0.3786  0.2281 -0.3696
 2140TIP3    H128055   6.345   0.567   7.191 -0.5589  3.1064  0.4826
 2140TIP3    H228056   6.245   0.532   7.299 -0.3462  1.3213  0.1428
 2141TIP3   OH228057   2.739   1.515   6.755 -0.1047 -0.3504 -0.1489
 2141TIP3    H128058   2.661   1.569   6.739  0.8112  0.8627 -0.6825
 2141TIP3    H228059   2.772   1.494   6.668  0.1492 -0.9009  0.0732
 2142TIP3   OH228060   5.485   0.218   1.198  0.0151 -1.1333  0.1061
 2142TIP3    H128061   5.408   0.210   1.254  2.2276 -0.1769  3.5561
 2142TIP3    H228062   5.522   0.130   1.195 -0.3676 -1.2839 -0.2926
 2143TIP3   OH228063   1.888   6.020   0.832 -0.5746 -0.2603  0.6317
 2143TIP3    H128064   1.970   6.060   0.804  0.2052 -1.4384  1.1381
 2143TIP3    H228065   1.846   6.085   0.887  0.6679 -0.1407  1.4642
 2144TIP3   OH228066   3.593   1.210   0.558 -0.0619 -0.0582 -0.4171
 2144TIP3    H128067   3.661   1.154   0.519 -0.3083 -0.5012 -0.2151
 2144TIP3    H228068   3.631   1.298   0.556  1.4957 -0.5903  1.7668
 2145TIP3   OH228069   1.238   4.465   1.195  0.4853 -0.4848  0.6636
 2145TIP3    H128070   1.160   4.506   1.232 -0.1356  1.4293 -2.4003
 2145TIP3    H228071   1.206   4.411   1.123  1.9607  2.3693 -2.3847
 2146TIP3   OH228072   2.329   6.339   6.939  0.2411 -0.2387  0.0953
 2146TIP3    H128073   2.351   6.269   6.877  1.3020 -0.8247  1.0916
 2146TIP3    H228074   2.234   6.332   6.949  0.1471 -0.6185 -0.8844
 2147TIP3   OH228075   5.304   3.755   8.466 -0.2716 -0.4346  0.0555
 2147TIP3    H128076   5.236   3.689   8.481  0.3361 -0.9800  0.4793
 2147TIP3    H228077   5.330   3.742   8.375  1.1139 -2.0337  0.6347
 2148TIP3   OH228078   2.336   4.962   1.156  0.6626 -0.0831 -0.3677
 2148TIP3    H128079   2.406   4.980   1.093 -1.3005  2.7582 -1.9443
 2148TIP3    H228080   2.255   4.973   1.107 -0.9605 -1.1781  1.8865
 2149TIP3   OH228081   5.940   3.958   0.459 -0.2320  0.1400  0.0442
 2149TIP3    H128082   5.971   3.894   0.523 -1.6974  0.6536  1.3288
 2149TIP3    H228083   5.911   4.032   0.512  0.3436  1.4122 -1.3515
 2150TIP3   OH228084   3.805   1.010   1.065  0.9413  0.2205  0.3240
 2150TIP3    H128085   3.766   1.023   0.979 -0.5763  0.3481  1.0095
 2150TIP3    H228086   3.808   0.915   1.075  0.4072  0.2147  0.4420
 2151TIP3   OH228087   3.485   1.887   1.554 -0.0354  0.3511 -0.0315
 2151TIP3    H128088   3.403   1.877   1.505  0.7048  1.0861 -1.4749
 2151TIP3    H228089   3.463   1.860   1.643 -2.3884  2.4156  0.1216
 2152TIP3   OH228090   6.488   0.677   7.670 -0.0253  0.5029 -0.2400
 2152TIP3    H128091   6.440   0.760   7.662  0.6658  1.1081  1.4731
 2152TIP3    H228092   6.574   0.703   7.702  1.1889 -0.6483 -2.3910
 2153TIP3   OH228093   2.218   6.244   6.629 -0.0400  0.7201  0.0446
 2153TIP3    H128094   2.240   6.294   6.550  1.1040  1.7074  0.9486
 2153TIP3    H228095   2.123   6.231   6.623 -0.4316  3.1678 -0.1466
 2154TIP3   OH228096   0.995   1.713   1.851 -0.4398 -0.0537  0.2659
 2154TIP3    H128097   1.017   1.795   1.809 -0.3054  0.2359  0.8895
 2154TIP3    H228098   0.916   1.732   1.901 -0.8987 -0.5304 -0.2597
 2155TIP3   OH228099   1.776   1.202   0.964  0.5489 -0.7733 -0.5242
 2155TIP3    H128100   1.807   1.114   0.985  2.9643  0.3959  1.2304
 2155TIP3    H228101   1.692   1.187   0.920  0.5195 -3.9013  0.3099
 2156TIP3   OH228102   6.593   6.169   6.750  0.3223 -0.0444  0.1596
 2156TIP3    H128103   6.547   6.253   6.754  0.3354 -0.0268 -0.0246
 2156TIP3    H228104   6.559   6.127   6.671 -1.6754 -1.3905  1.6507
 2157TIP3   OH228105   4.766   6.518   0.627 -0.4393 -0.1483 -0.2080
 2157TIP3    H128106   4.702   6.573   0.672 -0.6181  0.3845 -1.0897
 2157TIP3    H228107   4.730   6.429   0.635 -0.9495  0.0637 -0.1167
 2158TIP3   OH228108   5.936   6.419   8.117 -0.3711 -0.4501 -0.0974
 2158TIP3    H128109   5.929   6.338   8.067 -0.4968 -0.9715  0.7434
 2158TIP3    H228110   5.909   6.395   8.206  0.5960  0.2651  0.4105
 2159TIP3   OH228111   0.126   3.738   1.916  0.1586 -0.0901 -0.0427
 2159TIP3    H128112   0.124   3.734   2.011 -1.6779  0.7709 -0.0089
 2159TIP3    H228113   0.176   3.817   1.896  1.8894 -1.0932  0.1317
 2160TIP3   OH228114   0.586   3.921   8.309  0.2726 -0.2015 -0.2799
 2160TIP3    H128115   0.530   3.980   8.259 -0.5647  0.2510  1.1613
 2160TIP3    H228116   0.594   3.962   8.395 -1.0113 -2.5359  1.0605
 2161TIP3   OH228117   0.687   2.691   0.035  0.1627  0.9523 -0.0042
 2161TIP3    H128118   0.696   2.597   0.050 -0.5745  0.8751 -0.0056
 2161TIP3    H228119   0.604   2.700  -0.012 -1.4551  1.8622  2.7929
 2162TIP3   OH228120   5.542   2.206   1.825 -0.2642  0.0032  0.6014
 2162TIP3    H128121   5.492   2.125   1.836 -0.5859  0.0363 -0.5323
 2162TIP3    H228122   5.487   2.274   1.865 -1.1339  0.0338 -0.6109
 2163TIP3   OH228123   3.874   0.017   2.286 -0.4116  0.2159 -0.2566
 2163TIP3    H128124   3.906   0.107   2.282 -1.4944  0.5882 -1.1780
 2163TIP3    H228125   3.919  -0.028   2.214  0.7240 -0.1932  0.6970
 2164TIP3   OH228126   6.531   5.239   0.872 -0.2606 -0.7657  0.0385
 2164TIP3    H128127   6.459   5.175   0.867 -1.5432  0.5874  0.5405
 2164TIP3    H228128   6.498   5.308   0.929  1.3582  0.0416  0.0584
 2165TIP3   OH228129   3.250   2.379   1.839 -0.5116 -0.1873 -0.4114
 2165TIP3    H128130   3.231   2.289   1.813 -1.1315 -0.2936  0.3702
 2165TIP3    H228131   3.197   2.432   1.779  0.8767 -0.2617 -1.7650
 2166TIP3   OH228132   1.902   5.444   0.215  0.1621 -0.2650  0.0339
 2166TIP3    H128133   1.825   5.491   0.182 -0.5533 -1.4002  0.0441
 2166TIP3    H228134   1.953   5.422   0.137 -1.0437 -2.1051 -0.2961
 2167TIP3   OH228135   5.633   5.739   7.048 -0.0108 -0.2749 -0.3370
 2167TIP3    H128136   5.567   5.755   7.115  1.6541  0.3610  1.2606
 2167TIP3    H228137   5.653   5.826   7.012  1.6409 -0.0730  0.9467
 2168TIP3   OH228138   3.327   0.020   8.143  0.2724  0.5735 -0.1175
 2168TIP3    H128139   3.248   0.053   8.100  0.7577  0.2585 -1.2852
 2168TIP3    H228140   3.365  -0.042   8.081  0.1051 -1.2256  1.4651
 2169TIP3   OH228141   1.695   5.927   6.904 -0.7997 -0.0367 -0.0892
 2169TIP3    H128142   1.772   5.873   6.918 -0.9689 -0.0411  0.8957
 2169TIP3    H228143   1.676   5.919   6.811 -0.7050 -1.5177  0.0007
 2170TIP3   OH228144   3.103   1.135   1.699  0.0434  0.5892  0.3451
 2170TIP3    H128145   3.114   1.116   1.793  0.0118  1.9347  0.6362
 2170TIP3    H228146   3.104   1.230   1.694  0.6642  0.5190 -1.1140
 2171TIP3   OH228147   2.963   2.700   6.496 -0.6163 -0.1865 -0.3180
 2171TIP3    H128148   3.013   2.686   6.576 -0.4712 -0.4165 -0.4502
 2171TIP3    H228149   2.914   2.781   6.513  0.5165  0.5753 -0.5445
 2172TIP3   OH228150   0.031   2.444   7.466  0.1686  0.2930 -0.3379
 2172TIP3    H128151   0.092   2.389   7.416 -0.2315  0.2931 -0.8306
 2172TIP3    H228152   0.010   2.516   7.406  0.2510  0.6828  0.1011
 2173TIP3   OH228153   4.103   5.318   0.316  0.1861 -0.6836 -0.0023
 2173TIP3    H128154   4.064   5.356   0.237 -0.4110 -0.3930  0.4253
 2173TIP3    H228155   4.031   5.272   0.359  0.6416 -1.3478  0.0795
 2174TIP3   OH228156   2.713   0.485   0.440 -0.4655  0.4733  0.3591
 2174TIP3    H128157   2.735   0.401   0.400 -0.4110  1.0030 -0.7701
 2174TIP3    H228158   2.788   0.506   0.495 -1.1725 -0.9633  1.9374
 2175TIP3   OH228159   4.082   4.873   1.309  0.2402  0.9448  0.2592
 2175TIP3    H128160   4.060   4.879   1.216 -0.3458 -1.1565  0.2158
 2175TIP3    H228161   4.102   4.963   1.334 -1.3210  1.8519 -1.4665
 2176TIP3   OH228162   0.396   5.236   7.254 -0.5157 -0.1946  0.0782
 2176TIP3    H128163   0.468   5.219   7.314 -0.2767 -0.6218 -0.3238
 2176TIP3    H228164   0.419   5.188   7.174 -0.2924  1.2373 -0.7595
 2177TIP3   OH228165   3.120   1.157   2.075 -0.5985 -0.2769  0.0021
 2177TIP3    H128166   3.054   1.097   2.040 -0.6457 -2.1654  2.9835
 2177TIP3    H228167   3.202   1.107   2.070 -0.2492  0.2262  0.5515
 2178TIP3   OH228168   4.652   1.200   0.026 -0.4777  0.0698 -0.1631
 2178TIP3    H128169   4.640   1.126   0.086  3.4484  1.0864  2.2904
 2178TIP3    H228170   4.732   1.179  -0.021  0.2013  2.2901 -0.0774
 2179TIP3   OH228171   0.743   2.986   8.259  0.0121 -0.3998 -0.2155
 2179TIP3    H128172   0.718   3.073   8.290 -0.2035 -0.5913  0.1510
 2179TIP3    H228173   0.818   3.002   8.202  0.1834 -0.0014  0.1142
 2180TIP3   OH228174   6.804   6.755   7.620  0.1530  0.2794 -0.1707
 2180TIP3    H128175   6.826   6.828   7.679  1.5053  0.1577 -0.4920
 2180TIP3    H228176   6.716   6.727   7.648 -0.0800  1.5486  0.4337
 2181TIP3   OH228177   2.517   4.840   7.627  0.4954 -0.0384  0.0140
 2181TIP3    H128178   2.559   4.914   7.583 -0.6957 -0.4661 -1.9858
 2181TIP3    H228179   2.582   4.810   7.691  1.2654  2.2767  0.4088
 2182TIP3   OH228180   5.075   4.346   7.654  0.5222  0.2145  0.1032
 2182TIP3    H128181   5.083   4.311   7.565  1.5642  0.7011 -0.0214
 2182TIP3    H228182   5.152   4.402   7.664  0.6000 -0.0943  1.4359
 2183TIP3   OH228183   5.470   3.485   6.520 -0.9330 -0.1332  0.1316
 2183TIP3    H128184   5.408   3.550   6.552 -1.1101 -1.5606  3.0485
 2183TIP3    H228185   5.431   3.401   6.546 -0.2905 -1.4239 -2.6859
 2184TIP3   OH228186   1.594   4.091   8.349 -0.2241 -0.1056  0.0503
 2184TIP3    H128187   1.539   4.017   8.373 -1.2877  0.2805 -1.0643
 2184TIP3    H228188   1.578   4.156   8.418  0.6392 -0.8524  0.9747
 2185TIP3   OH228189   5.083   1.957   7.115 -0.2611  0.1105  0.6041
 2185TIP3    H128190   5.055   2.048   7.108 -0.2602  0.2575  2.0833
 2185TIP3    H228191   5.178   1.962   7.127 -0.0579 -0.1806 -0.7765
 2186TIP3   OH228192   2.095   5.696   7.347 -0.7645  0.3638 -0.3537
 2186TIP3    H128193   2.163   5.671   7.409  1.2779  2.1864 -1.6880
 2186TIP3    H228194   2.074   5.615   7.300  1.2540 -0.1153 -0.5482
 2187TIP3   OH228195   6.779   6.440   1.776  0.1287  0.0359  0.3155
 2187TIP3    H128196   6.776   6.419   1.869 -0.8729 -0.5063  0.1704
 2187TIP3    H228197   6.784   6.355   1.732 -0.5819  0.2383 -0.1651
 2188TIP3   OH228198   3.882   0.121   1.231  0.2078  0.7906  0.4524
 2188TIP3    H128199   3.918   0.174   1.301 -1.2719  2.0165  0.3449
 2188TIP3    H228200   3.790   0.111   1.254 -0.7344  2.6265 -2.0525
 2189TIP3   OH228201   2.933   0.292   8.486  0.0092  0.3419 -0.0460
 2189TIP3    H128202   2.971   0.336   8.410 -1.9212  1.3494 -0.4938
 2189TIP3    H228203   2.853   0.341   8.505 -0.0232 -0.4327  2.1020
 2190TIP3   OH228204   4.851   0.920   1.079 -0.2623  0.0670  0.0286
 2190TIP3    H128205   4.808   0.969   1.150 -1.2962 -1.0482  0.1996
 2190TIP3    H228206   4.944   0.921   1.102 -0.1574  2.4026 -0.2608
 2191TIP3   OH228207   3.616   0.485   1.165  0.1301 -0.1667 -0.2314
 2191TIP3    H128208   3.522   0.477   1.180 -0.2037 -1.5415 -2.6085
 2191TIP3    H228209   3.655   0.436   1.238 -1.1372 -1.8428 -0.6054
 2192TIP3   OH228210   6.271   2.845   8.195 -0.3519  0.4759 -0.5390
 2192TIP3    H128211   6.273   2.763   8.144  0.8316 -0.1739  0.4837
 2192TIP3    H228212   6.267   2.816   8.286  3.6256  1.3342  0.1060
 2193TIP3   OH228213   0.148   4.093   1.998 -0.2497  0.7541  0.6327
 2193TIP3    H128214   0.211   4.154   1.959  0.5643 -1.5064 -1.8770
 2193TIP3    H228215   0.198   4.012   2.012 -2.1910 -0.6105  0.0629
 2194TIP3   OH228216   4.122   6.387   0.653 -0.0624 -0.0149  0.1672
 2194TIP3    H128217   4.136   6.440   0.732 -0.8428 -0.7476  0.8206
 2194TIP3    H228218   4.124   6.297   0.685  2.0214 -0.4693 -1.0421
 2195TIP3   OH228219   4.657   5.931   1.369 -0.0337  0.5420  0.0392
 2195TIP3    H128220   4.629   5.910   1.458 -0.3774  0.0437 -0.1796
 2195TIP3    H228221   4.716   5.860   1.346  0.4326  0.9280  0.0421
 2196TIP3   OH228222   3.926   2.719   2.879  0.2194 -0.2386 -0.0690
 2196TIP3    H128223   3.867   2.657   2.922  1.3034 -1.5521 -0.3943
 2196TIP3    H228224   3.907   2.709   2.785 -0.8495  1.2608 -0.0303
 2197TIP3   OH228225   3.588   5.311   1.327 -0.5836 -0.5060  0.3165
 2197TIP3    H128226   3.561   5.230   1.369  1.2580 -1.4572 -0.2173
 2197TIP3    H228227   3.642   5.356   1.393 -0.8429 -0.1480  0.2906
 2198TIP3   OH228228   5.043   6.477   8.533 -0.2709  0.1042  0.1695
 2198TIP3    H128229   5.041   6.394   8.485  0.1470  1.0140 -1.4623
 2198TIP3    H228230   4.991   6.537   8.480  0.5541  1.2660  0.6354
 2199TIP3   OH228231   4.238   1.087   1.780  0.2042 -0.6385  0.0214
 2199TIP3    H128232   4.318   1.034   1.782  0.1850 -0.6568  1.4067
 2199TIP3    H228233   4.207   1.085   1.871 -0.6354  0.4728 -0.2359
 2200TIP3   OH228234   3.669   3.585   7.690  0.1426  0.0646 -0.2121
 2200TIP3    H128235   3.604   3.648   7.659 -0.2415 -0.4398 -0.4379
 2200TIP3    H228236   3.625   3.538   7.760  0.5712  0.3169  0.2351
 2201TIP3   OH228237   5.774   0.545   7.092 -0.0890 -0.3500  0.0767
 2201TIP3    H128238   5.760   0.634   7.126  0.0828 -0.3983  0.2760
 2201TIP3    H228239   5.857   0.518   7.131 -0.2726 -0.7023  0.2229
 2202TIP3   OH228240   6.360   2.141   7.355 -0.4580 -0.2117  0.1095
 2202TIP3    H128241   6.333   2.227   7.321  0.4223  1.3436  2.9180
 2202TIP3    H228242   6.282   2.109   7.401 -0.2695 -0.0447  0.5541
 2203TIP3   OH228243   1.153   6.502   0.868  0.3286 -0.0351  0.4292
 2203TIP3    H128244   1.148   6.408   0.853 -0.3159  0.0653 -0.0243
 2203TIP3    H228245   1.246   6.523   0.862  0.2359 -0.1003 -2.8662
 2204TIP3   OH228246   6.047   1.298   6.384  0.6031  0.3934 -0.3544
 2204TIP3    H128247   6.106   1.320   6.313 -0.6157  0.3198 -1.4317
 2204TIP3    H228248   6.003   1.218   6.356 -1.6771  1.6693 -0.7081
 2205TIP3   OH228249   4.575   1.345   0.805 -0.0733  0.2289  0.0586
 2205TIP3    H128250   4.543   1.264   0.766  0.7753  0.5689 -1.4261
 2205TIP3    H228251   4.514   1.412   0.774 -2.3632 -0.1055  3.4031
 2206TIP3   OH228252   6.478   1.017   8.542 -0.2049 -0.1660 -0.4500
 2206TIP3    H128253   6.485   0.986   8.452 -0.3657 -2.8434  0.3678
 2206TIP3    H228254   6.564   1.001   8.580 -0.5287 -0.3778  0.2228
 2207TIP3   OH228255   2.869   2.694   1.618  0.1188 -0.6161 -0.7561
 2207TIP3    H128256   2.824   2.732   1.693  1.4384 -1.4800  0.5132
 2207TIP3    H228257   2.943   2.646   1.655  0.7669 -1.1437 -2.6015
 2208TIP3   OH228258   3.187   3.810   6.826 -0.0148 -0.1477 -0.5935
 2208TIP3    H128259   3.185   3.728   6.777 -1.2566  0.1079 -1.0094
 2208TIP3    H228260   3.110   3.858   6.795 -1.0702 -0.1260  1.8704
 2209TIP3   OH228261   1.874   6.666   2.426  0.7965  0.2239  0.3875
 2209TIP3    H128262   1.781   6.652   2.447 -0.0122  0.0248 -2.8335
 2209TIP3    H228263   1.896   6.748   2.469 -0.6955  0.0029  1.6687
 2210TIP3   OH228264   2.195   0.145   0.603 -0.1594 -0.3015  0.3688
 2210TIP3    H128265   2.171   0.118   0.514 -0.1654  1.0511 -0.0578
 2210TIP3    H228266   2.282   0.107   0.617  0.1587  0.0815 -0.4985
 2211TIP3   OH228267   0.219   3.467   1.801  0.4226  0.4435 -0.0027
 2211TIP3    H128268   0.222   3.558   1.772  0.7629  0.8121  1.1493
 2211TIP3    H228269   0.272   3.465   1.881 -0.7386 -0.4735  0.7680
 2212TIP3   OH228270   2.112   5.386   6.568  0.3627 -0.2668 -0.1869
 2212TIP3    H128271   2.021   5.360   6.550 -1.3649  3.8215  1.3988
 2212TIP3    H228272   2.145   5.415   6.483 -1.2629  1.8239 -0.1786
 2213TIP3   OH228273   0.321   3.019   7.623 -0.3652 -0.0797  0.2167
 2213TIP3    H128274   0.296   3.060   7.706 -1.5199  1.3425 -0.7885
 2213TIP3    H228275   0.283   2.931   7.628 -2.3731  0.7452  0.3217
 2214TIP3   OH228276   1.877   0.237   7.930  0.0599  0.3657 -0.4903
 2214TIP3    H128277   1.851   0.223   7.839 -0.5067  0.0329 -0.2814
 2214TIP3    H228278   1.828   0.315   7.958  0.4805  0.6608 -0.5650
 2215TIP3   OH228279   1.984   0.785   5.994 -0.6947 -0.0338 -0.1400
 2215TIP3    H128280   1.960   0.835   6.073 -0.0316 -0.4179  0.3161
 2215TIP3    H228281   2.064   0.739   6.019 -1.3244 -1.3812 -0.5394
 2216TIP3   OH228282   4.748   6.779   5.956 -0.2254  0.4968  0.6762
 2216TIP3    H128283   4.774   6.704   5.903  1.5820  0.7857  1.0873
 2216TIP3    H228284   4.700   6.741   6.029 -0.8658 -0.0937 -0.0380
 2217TIP3   OH228285   6.806   3.542   6.047  0.5165  0.1647 -0.7562
 2217TIP3    H128286   6.772   3.630   6.061  1.5004  0.1981  2.0207
 2217TIP3    H228287   6.730   3.492   6.016 -1.1367  1.0780  1.5852
 2218TIP3   OH228288   6.893   1.432   1.332 -0.0070  0.2223  0.1586
 2218TIP3    H128289   6.868   1.386   1.252 -0.2887 -0.4988  0.6495
 2218TIP3    H228290   6.954   1.500   1.303 -0.9727  0.6987 -0.8096
 2219TIP3   OH228291   6.169   1.035   8.423  0.0912  0.0697 -0.5999
 2219TIP3    H128292   6.135   0.945   8.427  0.0460  0.1296  1.1189
 2219TIP3    H228293   6.263   1.024   8.408 -0.0888 -0.2189 -1.5566
 2220TIP3   OH228294   1.298   3.646   0.562  0.3731 -0.5546  0.0553
 2220TIP3    H128295   1.292   3.608   0.650 -0.6855  0.9774  0.6826
 2220TIP3    H228296   1.208   3.640   0.527  0.0994  1.5726  0.2925
 2221TIP3   OH228297   2.056   3.679   1.007  0.0878 -0.3342  0.4585
 2221TIP3    H128298   2.144   3.681   0.969  0.1192  1.5213  0.5434
 2221TIP3    H228299   2.070   3.683   1.101 -0.0929 -0.8406  0.5135
 2222TIP3   OH228300   5.205   4.249   0.814  0.1423 -0.1251 -0.5569
 2222TIP3    H128301   5.293   4.270   0.843 -0.7165 -0.9517  3.1755
 2222TIP3    H228302   5.212   4.160   0.778  0.6665 -0.6308  0.7508
 2223TIP3   OH228303   5.398   4.747   7.983  0.1215 -0.0288  0.1622
 2223TIP3    H128304   5.360   4.665   8.014  0.1823 -0.1174  0.0023
 2223TIP3    H228305   5.421   4.730   7.892 -0.3815  0.3350 -0.0406
 2224TIP3   OH228306   1.708   1.601   8.359 -0.1916  0.0158  0.6598
 2224TIP3    H128307   1.657   1.589   8.278  1.4609 -1.0085 -0.2780
 2224TIP3    H228308   1.643   1.594   8.429 -1.4197 -0.7871 -0.5008
 2225TIP3   OH228309   2.486   6.956   1.096  0.1098 -0.1503  0.1168
 2225TIP3    H128310   2.506   6.918   1.010  0.0565 -0.4915  0.2506
 2225TIP3    H228311   2.463   7.047   1.078  0.8851  0.0038 -0.1460
 2226TIP3   OH228312   2.235   1.502   7.102  0.1941  0.5097 -0.2036
 2226TIP3    H128313   2.197   1.587   7.123 -0.3554  0.3515 -0.5292
 2226TIP3    H228314   2.234   1.498   7.007 -0.0010  0.0509 -0.1870
 2227TIP3   OH228315   2.602   6.443   0.685  0.2903  0.1755 -0.5071
 2227TIP3    H128316   2.553   6.363   0.701 -1.9598  1.3260 -1.2721
 2227TIP3    H228317   2.677   6.415   0.632 -0.4097 -1.4044 -0.7138
 2228TIP3   OH228318   6.291   6.270   1.563  0.0132 -0.1551 -0.0260
 2228TIP3    H128319   6.318   6.191   1.517  0.0676  0.3125 -0.8085
 2228TIP3    H228320   6.343   6.340   1.523 -0.3810  0.3470  0.3295
 2229TIP3   OH228321   1.758   1.279   1.443  0.2276 -0.0047 -0.4315
 2229TIP3    H128322   1.833   1.321   1.399  1.2281 -0.9483  0.3206
 2229TIP3    H228323   1.777   1.288   1.536 -1.2815  0.9183 -0.1802
 2230TIP3   OH228324   3.020   1.121   0.856  0.0134  0.1364 -0.1921
 2230TIP3    H128325   2.955   1.167   0.803 -1.0382 -0.8212  0.2226
 2230TIP3    H228326   3.023   1.033   0.820  0.6112 -0.0193  0.2137
 2231TIP3   OH228327   1.133   3.941   7.459 -0.3595 -0.2651  0.2518
 2231TIP3    H128328   1.222   3.939   7.494  0.7147 -0.6897 -2.3531
 2231TIP3    H228329   1.089   4.010   7.509  1.3227 -0.2155  1.7451
 2232TIP3   OH228330   3.448   5.249   6.421  0.8272 -0.3523 -0.8840
 2232TIP3    H128331   3.513   5.294   6.476  1.0630 -0.0166 -1.4229
 2232TIP3    H228332   3.435   5.165   6.463  0.6442  0.0831 -0.0448
 2233TIP3   OH228333   5.968   6.396   7.014 -0.1229 -0.2942 -0.4802
 2233TIP3    H128334   6.011   6.339   7.077  1.0711  0.2979 -0.7474
 2233TIP3    H228335   5.959   6.341   6.935 -0.8645 -0.7621 -0.0862
 2234TIP3   OH228336   1.880   6.298   0.129 -0.0836  0.1260 -0.2431
 2234TIP3    H128337   1.934   6.364   0.084  1.6198  0.5180  2.2311
 2234TIP3    H228338   1.940   6.254   0.189 -2.0897 -0.8898  1.1102
 2235TIP3   OH228339   1.107   1.065   1.729 -0.0696 -0.0317 -0.1792
 2235TIP3    H128340   1.098   1.090   1.821 -1.4534  0.1241 -0.3284
 2235TIP3    H228341   1.186   1.011   1.726  2.4460  3.3588  0.3206
 2236TIP3   OH228342   5.094   2.474   1.669 -0.7335  0.1388 -0.1666
 2236TIP3    H128343   5.088   2.479   1.764  0.2288  1.1971 -0.1466
 2236TIP3    H228344   5.004   2.461   1.640 -1.0323 -0.2357  0.8763
 2237TIP3   OH228345   2.509   4.481   1.273 -0.1582  0.1974  0.2517
 2237TIP3    H128346   2.575   4.420   1.307 -1.2664 -1.3511 -0.2505
 2237TIP3    H228347   2.499   4.546   1.342 -0.5798 -1.4921  1.8868
 2238TIP3   OH228348   2.444   2.631   7.696 -0.4277 -0.0643 -0.3152
 2238TIP3    H128349   2.354   2.664   7.694 -0.2763  0.3584 -0.3106
 2238TIP3    H228350   2.447   2.565   7.627 -1.1519 -1.1775  0.6750
 2239TIP3   OH228351   4.071   5.242   7.921 -0.3646  0.4261 -1.1678
 2239TIP3    H128352   4.146   5.281   7.967  1.1558 -2.4716 -0.9335
 2239TIP3    H228353   4.008   5.221   7.990 -0.0865  0.2364 -0.9682
 2240TIP3   OH228354   0.493   5.291   1.111  0.3816  0.2110 -0.2419
 2240TIP3    H128355   0.477   5.198   1.098 -0.4304  0.3612 -0.3810
 2240TIP3    H228356   0.563   5.312   1.049  1.9539 -0.6973  1.1607
 2241TIP3   OH228357   0.609   3.295   6.835  0.0987  0.1992 -0.7066
 2241TIP3    H128358   0.516   3.288   6.814  0.4424  1.0587 -2.6598
 2241TIP3    H228359   0.652   3.234   6.776  0.7227 -1.1967  1.0854
 2242TIP3   OH228360   2.407   4.783   0.186 -0.1145  0.8313  0.0245
 2242TIP3    H128361   2.323   4.743   0.165  0.8517 -1.2683 -0.1237
 2242TIP3    H228362   2.446   4.800   0.100  0.0642  0.7409  0.0877
 2243TIP3   OH228363   5.067   1.260   8.145 -0.2730  0.0729 -0.1787
 2243TIP3    H128364   5.126   1.193   8.178  1.4031  1.6680  0.2484
 2243TIP3    H228365   5.097   1.277   8.056 -0.4189  0.5339 -0.1440
 2244TIP3   OH228366   4.111   1.934   1.753  0.1504  0.9145 -0.2081
 2244TIP3    H128367   4.067   1.849   1.748  0.6795  0.6984 -1.6392
 2244TIP3    H228368   4.074   1.984   1.681  0.2869  1.6892  0.2525
 2245TIP3   OH228369   0.756   5.379   7.182  0.0467 -0.1661 -0.4291
 2245TIP3    H128370   0.766   5.471   7.204 -0.5446 -0.0199 -0.7597
 2245TIP3    H228371   0.801   5.333   7.253 -0.2749  0.3525  0.1249
 2246TIP3   OH228372   1.040   0.350   2.387  0.2488  0.2915 -0.1129
 2246TIP3    H128373   1.041   0.422   2.451 -0.5514  1.2154 -1.0946
 2246TIP3    H228374   0.949   0.348   2.356  0.4620 -0.6137 -0.6936
 2247TIP3   OH228375   6.272   5.410   1.826 -0.1806 -0.0117 -0.0032
 2247TIP3    H128376   6.313   5.471   1.764  1.0802 -0.0855  0.7139
 2247TIP3    H228377   6.239   5.339   1.771  1.2442 -0.2595 -0.5805
 2248TIP3   OH228378   6.529   3.099   7.719  0.1065 -0.1463 -0.6137
 2248TIP3    H128379   6.465   3.161   7.753  0.8412  1.4053 -1.9197
 2248TIP3    H228380   6.480   3.048   7.654 -0.7364 -1.6523  1.1042
 2249TIP3   OH228381   6.862   2.433   1.046  0.4222 -0.1774  0.4560
 2249TIP3    H128382   6.935   2.389   1.090 -1.0150 -2.8163  0.4067
 2249TIP3    H228383   6.840   2.375   0.973 -1.7026  0.5348  0.4766
 2250TIP3   OH228384   0.929   1.899   8.111  0.5648 -0.0858  0.0920
 2250TIP3    H128385   0.864   1.946   8.059  0.6784 -0.7199 -0.6538
 2250TIP3    H228386   1.005   1.957   8.114  0.2779  0.2877  0.2246
 2251TIP3   OH228387   5.781   5.562   0.778  0.4257  0.5510  0.4064
 2251TIP3    H128388   5.869   5.529   0.792  0.4078  0.8469  1.3250
 2251TIP3    H228389   5.793   5.652   0.748  0.4436  0.7450  0.9747
 2252TIP3   OH228390   4.571   4.575   6.376 -0.3343  0.1059  0.3433
 2252TIP3    H128391   4.662   4.586   6.349 -0.1343 -1.2975  0.4099
 2252TIP3    H228392   4.570   4.496   6.429 -1.6973 -0.2551 -0.1643
 2253TIP3   OH228393   0.271   6.706   7.131 -0.1857  0.1598 -0.1948
 2253TIP3    H128394   0.270   6.692   7.037  1.6644  1.6776 -0.5062
 2253TIP3    H228395   0.199   6.653   7.164 -0.6524 -0.6927 -2.4070
 2254TIP3   OH228396   5.461   4.547   5.813  0.0430  0.3893 -0.5837
 2254TIP3    H128397   5.410   4.558   5.893 -0.8205 -0.3201 -1.0231
 2254TIP3    H228398   5.396   4.536   5.744  0.7840  0.2912 -1.2824
 2255TIP3   OH228399   6.716   2.491   7.499 -0.2453 -0.2449  0.3647
 2255TIP3    H128400   6.763   2.563   7.456 -0.0520 -0.9784 -0.6789
 2255TIP3    H228401   6.782   2.423   7.509 -0.8456 -0.9181 -0.2111
 2256TIP3   OH228402   0.084   4.895   8.393  0.1564 -0.2113 -0.6325
 2256TIP3    H128403   0.114   4.815   8.436  0.0083 -0.5884 -1.2299
 2256TIP3    H228404  -0.000   4.872   8.355 -0.7016  0.6931  0.5975
 2257TIP3   OH228405   0.080   5.497   8.154  0.8637  0.4757 -0.2751
 2257TIP3    H128406   0.140   5.484   8.082  2.8971  2.0651  1.0357
 2257TIP3    H228407   0.107   5.580   8.194 -2.1587  1.2295  0.4596
 2258TIP3   OH228408   1.573   0.435   0.587  0.3510 -0.2237  0.3622
 2258TIP3    H128409   1.601   0.508   0.642  0.5262  0.1198 -0.1796
 2258TIP3    H228410   1.486   0.413   0.620  1.0356 -0.9946  1.7460
 2259TIP3   OH228411   4.703   3.064   1.194  0.1597 -0.4439  0.3737
 2259TIP3    H128412   4.729   2.981   1.233  1.0503  0.1656  1.1155
 2259TIP3    H228413   4.736   3.131   1.254 -0.5699  0.4508 -0.1905
 2260TIP3   OH228414   1.792   6.607   7.038  0.0588 -0.4888  0.5223
 2260TIP3    H128415   1.782   6.693   6.996  1.4266 -0.4256  0.2767
 2260TIP3    H228416   1.881   6.609   7.074 -0.1609 -1.5352  1.1336
 2261TIP3   OH228417   6.281   2.030   7.724  0.7498  0.3528 -0.7308
 2261TIP3    H128418   6.352   2.089   7.701  1.0982  0.1994 -0.0476
 2261TIP3    H228419   6.291   2.014   7.818 -0.7598  1.1088 -0.4073
 2262TIP3   OH228420   2.961   1.427   1.228  0.4461 -0.0579  0.1181
 2262TIP3    H128421   3.038   1.385   1.266 -0.3170 -3.1847 -1.4083
 2262TIP3    H228422   2.898   1.434   1.300  1.8466  1.9818  1.2343
 2263TIP3   OH228423   3.862   2.076   0.267  0.1037  0.2535  0.0322
 2263TIP3    H128424   3.799   2.042   0.330  2.0502  0.4522  2.2014
 2263TIP3    H228425   3.843   2.170   0.262 -1.8496 -0.1444 -1.9423
 2264TIP3   OH228426   5.360   6.652   7.941  0.1922  0.0012  0.6459
 2264TIP3    H128427   5.419   6.703   7.885  0.3385 -0.1937  0.6219
 2264TIP3    H228428   5.285   6.710   7.956 -0.7134 -0.6010 -1.2594
 2265TIP3   OH228429   2.655   6.129   2.098  0.8326 -0.0196 -0.1874
 2265TIP3    H128430   2.722   6.106   2.034  0.5640 -0.4801 -0.3056
 2265TIP3    H228431   2.704   6.165   2.172  1.1476  0.4731 -0.6276
 2266TIP3   OH228432   3.372   3.279   0.005  0.1692 -0.3343 -0.7543
 2266TIP3    H128433   3.336   3.203  -0.040  0.3588  0.0298 -1.5275
 2266TIP3    H228434   3.465   3.278  -0.015 -0.1009  1.0942 -2.2795
 2267TIP3   OH228435   5.944   4.839   6.517  0.3297 -0.9723  0.1917
 2267TIP3    H128436   6.006   4.819   6.447  1.3086 -1.3911  1.1605
 2267TIP3    H228437   5.953   4.767   6.579 -0.2314 -0.4163  0.9461
 2268TIP3   OH228438   4.112   3.807   6.982 -0.4599 -0.3362 -0.0264
 2268TIP3    H128439   4.026   3.791   7.020 -2.0766 -0.0842 -3.2690
 2268TIP3    H228440   4.143   3.721   6.954  0.1993 -0.3648  0.7329
 2269TIP3   OH228441   3.498   5.500   6.917 -0.0088 -0.3934 -0.5550
 2269TIP3    H128442   3.494   5.407   6.895 -2.1856 -0.7278  0.9432
 2269TIP3    H228443   3.429   5.540   6.864  0.0875  0.1594 -0.2646
 2270TIP3   OH228444   2.101   1.501   7.885  0.3324 -0.1936 -0.5698
 2270TIP3    H128445   2.025   1.451   7.853 -0.1815  0.7876 -0.9170
 2270TIP3    H228446   2.084   1.512   7.979 -2.1656  3.5673 -1.2313
 2271TIP3   OH228447   2.352   3.562   7.276 -0.4448  0.1485 -0.6098
 2271TIP3    H128448   2.265   3.590   7.303 -0.4537 -0.3046 -0.1488
 2271TIP3    H228449   2.349   3.466   7.279  0.5970  0.1197  1.2043
 2272TIP3   OH228450   4.143   2.508   8.253 -0.6155  0.1955 -0.1986
 2272TIP3    H128451   4.063   2.536   8.298 -1.6782  0.4352 -2.1298
 2272TIP3    H228452   4.142   2.557   8.171  1.1776 -0.3254 -0.5598
 2273TIP3   OH228453   2.031   3.297   6.887 -0.1208 -0.7677 -0.2148
 2273TIP3    H128454   2.118   3.301   6.848  0.2264 -1.1412  0.4886
 2273TIP3    H228455   2.018   3.384   6.925 -0.8700 -0.0820 -1.9682
 2274TIP3   OH228456   0.254   3.549   7.832  0.7311  0.4218  0.0759
 2274TIP3    H128457   0.275   3.465   7.792 -0.2045  0.7070 -1.0822
 2274TIP3    H228458   0.187   3.587   7.775 -1.3229  0.4972  2.3588
 2275TIP3   OH228459   0.940   5.516   0.384 -0.5911  0.2049  0.2459
 2275TIP3    H128460   0.964   5.566   0.462  2.5534 -0.8885  0.1116
 2275TIP3    H228461   0.850   5.543   0.365  0.2424  4.3425  1.2546
 2276TIP3   OH228462   3.272   6.423   1.299 -1.0204 -0.3311  0.6966
 2276TIP3    H128463   3.349   6.406   1.354 -0.8935 -0.3454  0.5141
 2276TIP3    H228464   3.293   6.504   1.253 -1.1997 -0.2252  0.7960
 2277TIP3   OH228465   5.530   5.028   0.362 -0.2088  0.6353 -0.4180
 2277TIP3    H128466   5.528   4.962   0.292  0.2758 -0.5251  0.6219
 2277TIP3    H228467   5.445   5.072   0.356 -0.8252 -0.5477 -0.7228
 2278TIP3   OH228468   1.705   1.820   1.084 -0.8150  0.1929 -0.2664
 2278TIP3    H128469   1.733   1.728   1.093 -1.2773 -0.2760 -2.8952
 2278TIP3    H228470   1.773   1.860   1.030 -2.2923  0.5158 -1.9374
 2279TIP3   OH228471   5.908   5.981   8.038 -0.3560  0.0859  0.5691
 2279TIP3    H128472   5.827   5.933   8.050 -0.0476  0.0031  2.7011
 2279TIP3    H228473   5.978   5.917   8.053  0.2162 -0.1590 -2.4671
 2280TIP3   OH228474   2.397   6.420   0.179  0.0321 -0.4161  0.1872
 2280TIP3    H128475   2.357   6.448   0.097  1.0126 -0.1936 -0.2314
 2280TIP3    H228476   2.409   6.325   0.169  0.1747 -0.3851  0.0578
 2281TIP3   OH228477   0.942   1.224   1.162 -0.0260  0.1103  0.0746
 2281TIP3    H128478   0.903   1.161   1.223 -1.5385 -0.0460 -0.9823
 2281TIP3    H228479   1.025   1.184   1.136 -0.3494 -0.8230  0.4292
 2282TIP3   OH228480   3.467   3.002   2.163  0.3172  0.1463 -0.1710
 2282TIP3    H128481   3.380   3.026   2.193 -0.0705  0.4021 -1.4400
 2282TIP3    H228482   3.526   3.062   2.209 -0.1885  0.1254  0.5174
 2283TIP3   OH228483   1.731   0.142   2.002  0.0981  0.3726  0.4440
 2283TIP3    H128484   1.726   0.152   2.097  0.5501  1.1331  0.4006
 2283TIP3    H228485   1.646   0.170   1.969 -0.4060 -0.8469  0.6898
 2284TIP3   OH228486   2.896   2.293   1.519 -0.5473  0.0880  0.3624
 2284TIP3    H128487   2.842   2.278   1.441  0.8863 -0.9277 -0.4763
 2284TIP3    H228488   2.974   2.337   1.487  0.2418 -0.6843  1.1677
 2285TIP3   OH228489   0.032   5.141   8.528  0.7845  0.2626 -0.5806
 2285TIP3    H128490   0.055   5.071   8.467  0.2810 -0.3345 -0.1067
 2285TIP3    H228491  -0.040   5.104   8.581  0.8940  0.9280  0.0527
 2286TIP3   OH228492   2.483   6.122   1.776  0.2437 -0.6156 -0.1738
 2286TIP3    H128493   2.437   6.164   1.848  1.1107  0.3746 -0.1802
 2286TIP3    H228494   2.528   6.047   1.816 -0.5162 -0.9812  0.0139
 2287TIP3   OH228495   6.152   2.265   0.911  0.0857  0.2913  0.4966
 2287TIP3    H128496   6.220   2.199   0.905 -1.2457 -1.1365  0.4230
 2287TIP3    H228497   6.184   2.327   0.977  0.7647 -1.2109  1.6348
 2288TIP3   OH228498   2.354   1.610   6.319  0.3680 -0.2231  0.6937
 2288TIP3    H128499   2.402   1.618   6.402  4.0247  1.0879 -1.3239
 2288TIP3    H228500   2.321   1.699   6.303 -1.1165 -0.6758  1.0982
 2289TIP3   OH228501   6.513   0.136   8.302 -0.0497 -0.3634  0.0892
 2289TIP3    H128502   6.572   0.118   8.375 -1.5888  0.4551  1.5854
 2289TIP3    H228503   6.463   0.055   8.291 -1.1442  0.1123  1.2662
 2290TIP3   OH228504   1.403   6.397   0.471 -0.2809  0.2278 -0.0714
 2290TIP3    H128505   1.311   6.380   0.454 -0.9223  2.2946  1.0359
 2290TIP3    H228506   1.413   6.492   0.462  1.9313 -0.0138 -0.9632
 2291TIP3   OH228507   0.405   6.197   6.709  0.1615 -0.3090  0.1986
 2291TIP3    H128508   0.355   6.119   6.734 -0.1875 -0.1686 -0.0514
 2291TIP3    H228509   0.364   6.269   6.757  0.3568 -0.2465  0.2734
 2292TIP3   OH228510   5.643   6.863   8.333  0.4244 -0.5566 -0.0601
 2292TIP3    H128511   5.705   6.872   8.260  0.1071 -0.0893 -0.2785
 2292TIP3    H228512   5.574   6.806   8.299 -0.9529  1.5325 -0.9868
 2293TIP3   OH228513   4.495   2.769   7.244 -0.1286  0.4114 -0.1503
 2293TIP3    H128514   4.582   2.763   7.205  0.8897  1.4725  1.8362
 2293TIP3    H228515   4.507   2.742   7.335 -1.9153  0.4258  0.1251
 2294TIP3   OH228516   4.306   0.722   7.556 -0.5762  0.1942  0.1066
 2294TIP3    H128517   4.267   0.778   7.624 -0.6663  0.8992 -0.5099
 2294TIP3    H228518   4.383   0.771   7.527  0.5022 -0.9423  0.9490
 2295TIP3   OH228519   3.386   3.234   1.023 -0.7755 -0.8036  0.2112
 2295TIP3    H128520   3.291   3.239   1.011 -0.6997  0.2327 -0.1104
 2295TIP3    H228521   3.417   3.190   0.944 -0.8562  0.3446 -0.4871
 2296TIP3   OH228522   6.823   3.399   6.295 -0.2123  0.6850  0.5274
 2296TIP3    H128523   6.813   3.310   6.263  1.6726  0.8296 -0.6010
 2296TIP3    H228524   6.797   3.454   6.221 -1.2056  1.1114  1.1606
 2297TIP3   OH228525   4.209   1.137   0.767  0.0831  0.6843 -0.3784
 2297TIP3    H128526   4.180   1.116   0.856 -1.3701  1.8298 -0.5349
 2297TIP3    H228527   4.297   1.100   0.761  0.0701  0.2649  1.4095
 2298TIP3   OH228528   5.935   3.786   6.616  0.4884  0.6513  0.0449
 2298TIP3    H128529   5.954   3.752   6.703  2.0433  1.0829 -0.0853
 2298TIP3    H228530   5.997   3.740   6.559 -2.0180 -1.3515 -1.2563
 2299TIP3   OH228531   1.536   6.891   7.040  0.1194  0.3753  0.5699
 2299TIP3    H128532   1.471   6.822   7.046  0.1632  0.0609 -1.6056
 2299TIP3    H228533   1.502   6.962   7.095 -1.9026  0.1002 -0.2374
 2300TIP3   OH228534   0.418   5.575   1.111 -0.2024  0.3779 -0.1064
 2300TIP3    H128535   0.434   5.481   1.098 -1.4675  0.0780  0.2974
 2300TIP3    H228536   0.467   5.597   1.190 -1.0095 -0.2915  0.6045
 2301TIP3   OH228537   2.235   2.328   0.446  0.4492 -0.0260 -0.2116
 2301TIP3    H128538   2.211   2.384   0.519 -0.7137  0.2333 -0.7637
 2301TIP3    H228539   2.323   2.297   0.466  0.3898  0.5529  0.9719
 2302TIP3   OH228540   6.845   1.859   8.027 -0.1570 -1.0254  0.1136
 2302TIP3    H128541   6.761   1.889   7.993  0.5198  0.3683 -0.4405
 2302TIP3    H228542   6.825   1.819   8.112 -1.3400 -0.5030  0.0893
 2303TIP3   OH228543   5.941   0.119   0.241 -0.1708  0.4377 -0.3886
 2303TIP3    H128544   5.968   0.181   0.309 -0.7838 -0.3958  0.6422
 2303TIP3    H228545   5.847   0.108   0.254  0.0619 -1.4174  0.0927
 2304TIP3   OH228546   0.823   3.083   7.394 -0.2393 -0.2406 -0.7089
 2304TIP3    H128547   0.858   3.121   7.474  1.1448  0.1944 -1.4847
 2304TIP3    H228548   0.885   3.013   7.372 -1.3843 -1.3221 -0.6522
 2305TIP3   OH228549   1.794   2.712   7.772 -0.2460  0.1588 -0.5596
 2305TIP3    H128550   1.802   2.762   7.690  0.6625  0.8600 -0.0542
 2305TIP3    H228551   1.738   2.766   7.828 -1.0827 -0.4431 -0.7922
 2306TIP3   OH228552   1.762   3.311   7.031  0.2324 -0.2871  0.3193
 2306TIP3    H128553   1.687   3.356   6.992  0.3578 -0.0985  0.2910
 2306TIP3    H228554   1.817   3.287   6.956  0.8697  0.7920  0.4248
 2307TIP3   OH228555   6.371   4.154   7.374 -0.0940 -0.2610  0.4917
 2307TIP3    H128556   6.407   4.070   7.400  1.5374  0.2344 -0.0049
 2307TIP3    H228557   6.430   4.218   7.414 -1.7092  0.6837  1.4540
 2308TIP3   OH228558   6.381   3.123   7.153  0.1743  0.2168 -0.0990
 2308TIP3    H128559   6.299   3.103   7.199  0.3994  2.1420  1.2542
 2308TIP3    H228560   6.363   3.206   7.108  0.5403 -0.7345 -2.0891
 2309TIP3   OH228561   0.709   1.595   6.063  0.5345  0.3786  0.0963
 2309TIP3    H128562   0.789   1.557   6.026  0.2004 -1.1121  0.8631
 2309TIP3    H228563   0.654   1.520   6.085 -2.6923  1.2939 -3.7119
 2310TIP3   OH228564   5.500   4.007   1.204 -0.1684 -0.2380 -0.2804
 2310TIP3    H128565   5.546   3.953   1.139  2.7033  3.6686 -1.8946
 2310TIP3    H228566   5.547   3.992   1.286 -0.7461 -1.6439 -0.1857
 2311TIP3   OH228567   1.703   6.837   1.258  0.6622  0.4070 -0.5536
 2311TIP3    H128568   1.701   6.743   1.241  1.0877  0.2153  0.4347
 2311TIP3    H228569   1.787   6.866   1.222  0.2400  0.5359 -1.4593
 2312TIP3   OH228570   1.819   5.050   0.543  0.2155  0.4786  0.1300
 2312TIP3    H128571   1.851   5.064   0.454 -0.2729 -3.1344 -0.7931
 2312TIP3    H228572   1.898   5.045   0.596  0.8983 -1.7689 -0.9741
 2313TIP3   OH228573   4.532   3.505   7.845 -0.4161  0.1898  0.1981
 2313TIP3    H128574   4.469   3.489   7.774  1.4965 -1.5583 -1.2045
 2313TIP3    H228575   4.518   3.597   7.869 -2.4931  0.2550 -1.0213
 2314TIP3   OH228576   2.309   4.860   5.992 -0.1933 -0.4841 -0.1655
 2314TIP3    H128577   2.239   4.925   5.999  0.5195  0.5039 -1.5981
 2314TIP3    H228578   2.307   4.833   5.900 -0.2591 -2.2790  0.3317
 2315TIP3   OH228579   6.297   2.686   8.429 -0.5663 -0.1882 -0.0721
 2315TIP3    H128580   6.326   2.724   8.512  0.3508  1.9795 -1.3098
 2315TIP3    H228581   6.340   2.600   8.426 -0.8290 -0.4239  1.7730
 2316TIP3   OH228582   1.297   1.003   0.755  0.3332 -0.3557 -0.1148
 2316TIP3    H128583   1.254   1.052   0.824  1.8024  2.2616 -0.9372
 2316TIP3    H228584   1.229   0.944   0.721 -1.0944  0.0724  1.8516
 2317TIP3   OH228585   6.454   0.390   8.135 -0.7415  0.0573 -0.0553
 2317TIP3    H128586   6.506   0.395   8.055 -2.7307 -0.7200 -1.4835
 2317TIP3    H228587   6.517   0.407   8.206  0.8384  2.0785 -1.8168
 2318TIP3   OH228588   2.268   5.096   8.232  0.3439 -0.2410  0.4782
 2318TIP3    H128589   2.232   5.021   8.280 -0.8759  0.5005  0.7843
 2318TIP3    H228590   2.361   5.076   8.222 -0.5592 -4.1420 -3.6818
 2319TIP3   OH228591   3.476   1.304   8.321  0.2472 -0.4016  0.8116
 2319TIP3    H128592   3.506   1.385   8.280 -0.1223 -0.1887  0.9510
 2319TIP3    H228593   3.486   1.237   8.253 -0.5144 -0.0221  0.3029
 2320TIP3   OH228594   0.352   3.516   1.125  0.0606  0.2043  0.2111
 2320TIP3    H128595   0.274   3.503   1.179  1.0967 -0.4784  1.5990
 2320TIP3    H228596   0.411   3.445   1.150  1.3807  1.0624 -0.3526
 2321TIP3   OH228597   5.930   5.845   0.712  0.4832 -0.4018  0.4077
 2321TIP3    H128598   5.983   5.890   0.777  0.5702  1.5217 -0.9248
 2321TIP3    H228599   5.973   5.863   0.628  0.0045 -2.2589 -0.3030
 2322TIP3   OH228600   2.107   4.824   7.444  0.3109  0.1343 -0.2340
 2322TIP3    H128601   2.141   4.849   7.530  0.0874 -0.4228  0.0166
 2322TIP3    H228602   2.028   4.878   7.433  0.9047  0.9737 -0.5504
 2323TIP3   OH228603   3.005   4.163   1.290 -0.0674  0.1463 -0.2989
 2323TIP3    H128604   3.015   4.080   1.338  0.0290  0.3206 -0.0126
 2323TIP3    H228605   3.044   4.229   1.348  1.3336  0.1654 -1.2219
 2324TIP3   OH228606   1.895   1.012   0.074 -0.2497 -0.0092 -0.8333
 2324TIP3    H128607   1.866   0.923   0.094  2.4117 -0.9461 -0.7974
 2324TIP3    H228608   1.902   1.014  -0.022  1.3228 -0.4342 -0.7469
 2325TIP3   OH228609   6.348   6.331   0.454 -0.0386  0.0492  0.3030
 2325TIP3    H128610   6.308   6.274   0.389 -0.8587  0.2065  0.6613
 2325TIP3    H228611   6.438   6.342   0.423 -0.2956 -0.2064 -0.5802
 2326TIP3   OH228612   4.064   4.368   8.240  0.2584 -0.7829 -0.0617
 2326TIP3    H128613   3.972   4.365   8.211  0.1843  0.3705 -0.0131
 2326TIP3    H228614   4.089   4.459   8.227  1.1724 -0.9295  0.6416
 2327TIP3   OH228615   3.738   3.842   6.825  0.9483  0.3746  0.8770
 2327TIP3    H128616   3.794   3.833   6.902  0.6030 -0.3889  1.0445
 2327TIP3    H228617   3.761   3.768   6.769 -0.7703 -0.7131  1.5266
 2328TIP3   OH228618   4.895   4.795   1.998  0.3574  0.0233 -0.0505
 2328TIP3    H128619   4.870   4.703   1.988 -0.0178  0.1605 -0.4080
 2328TIP3    H228620   4.894   4.810   2.092 -0.9988  0.0334 -0.0435
 2329TIP3   OH228621   6.713   0.111   2.206 -0.4852 -0.1951  0.0558
 2329TIP3    H128622   6.638   0.129   2.261  0.2981  1.1104  0.7408
 2329TIP3    H228623   6.753   0.197   2.190  0.3597 -0.7577 -1.0168
 2330TIP3   OH228624   2.282   0.036   7.804  0.0412  0.4573  0.3342
 2330TIP3    H128625   2.268   0.009   7.713  0.6264  0.7821  0.1424
 2330TIP3    H228626   2.222   0.109   7.817  1.0190  1.4156 -0.2821
 2331TIP3   OH228627   3.540   6.252   6.103  0.2359  0.0149  0.5334
 2331TIP3    H128628   3.589   6.327   6.068 -0.5874  0.0671 -0.5467
 2331TIP3    H228629   3.456   6.256   6.059 -0.2936 -0.8094  1.4337
 2332TIP3   OH228630   1.959   2.330   7.523  0.5188 -0.3031  0.1566
 2332TIP3    H128631   2.040   2.279   7.522  0.0409 -1.0591 -0.6862
 2332TIP3    H228632   1.969   2.394   7.453 -0.1935 -1.3581 -0.9509
 2333TIP3   OH228633   1.823   0.585   0.456  1.0499 -0.1489 -0.0777
 2333TIP3    H128634   1.739   0.629   0.443  0.4707 -0.8472  1.1687
 2333TIP3    H228635   1.836   0.534   0.376  0.5278  0.3406 -0.4815
 2334TIP3   OH228636   0.172   6.537   1.221 -0.3442  0.7317 -0.1805
 2334TIP3    H128637   0.254   6.586   1.230 -0.0295  0.3268 -0.7584
 2334TIP3    H228638   0.135   6.536   1.309  1.1793 -0.6392  0.4939
 2335TIP3   OH228639   3.687   1.879   2.541 -0.8115 -0.0108 -0.5093
 2335TIP3    H128640   3.673   1.792   2.579 -0.8638 -0.2354 -1.0284
 2335TIP3    H228641   3.601   1.902   2.504 -1.3898  1.1693  1.4226
 2336TIP3   OH228642   5.919   2.622   7.300 -0.3305 -0.0657 -0.1635
 2336TIP3    H128643   5.847   2.573   7.260 -1.4896  0.0750  1.6303
 2336TIP3    H228644   5.978   2.555   7.334 -0.9060 -0.2289  0.5414
 2337TIP3   OH228645   5.235   1.402   6.939  0.2356  0.0084 -0.5216
 2337TIP3    H128646   5.167   1.337   6.921 -1.8095  1.8262  0.2693
 2337TIP3    H228647   5.236   1.457   6.860  0.6820  0.1038 -0.4514
 2338TIP3   OH228648   1.074   0.329   8.066  0.0776 -0.4192  0.4454
 2338TIP3    H128649   1.048   0.260   8.005  0.3530  0.0227 -0.1732
 2338TIP3    H228650   1.155   0.297   8.106 -0.1631 -0.7590  0.6686
 2339TIP3   OH228651   5.968   0.850   1.688  0.0846  0.7018  0.6866
 2339TIP3    H128652   5.927   0.775   1.644 -1.0663  2.3938 -1.2869
 2339TIP3    H228653   6.043   0.812   1.734 -0.1833 -1.5993 -0.6131
 2340TIP3   OH228654   0.778   4.543   7.333  0.1487  0.4214  0.5563
 2340TIP3    H128655   0.777   4.498   7.248  0.8534  3.0842 -0.9929
 2340TIP3    H228656   0.687   4.566   7.349  0.0165 -0.0532  0.5145
 2341TIP3   OH228657   6.766   5.035   6.969 -0.0797 -0.3437 -0.1075
 2341TIP3    H128658   6.681   4.995   6.986  0.3370 -1.0730  0.3003
 2341TIP3    H228659   6.804   4.983   6.898 -0.1666  0.2772 -0.6234
 2342TIP3   OH228660   4.674   3.804   2.310  0.2014 -0.0064  0.2671
 2342TIP3    H128661   4.596   3.760   2.345  0.7361 -1.8012 -0.6890
 2342TIP3    H228662   4.685   3.881   2.366 -0.8543 -1.0187  1.9484
 2343TIP3   OH228663   0.959   6.579   1.924  0.2748  0.8132 -1.0938
 2343TIP3    H128664   1.028   6.539   1.871  0.2629  0.3599 -0.7675
 2343TIP3    H228665   0.878   6.545   1.888  0.2746  0.3177 -0.6425
 2344TIP3   OH228666   0.073   6.308   8.318  0.3582  0.1732  0.3024
 2344TIP3    H128667   0.115   6.393   8.329  1.1888 -0.2058  0.1611
 2344TIP3    H228668   0.034   6.289   8.403 -0.5208  1.0478  0.1099
 2345TIP3   OH228669   5.986   5.198   8.118 -0.7391 -0.6252  0.4876
 2345TIP3    H128670   5.939   5.260   8.062  1.6247  1.6836  0.8708
 2345TIP3    H228671   6.016   5.130   8.058 -0.4728  0.4348 -0.6172
 2346TIP3   OH228672   0.225   6.253   1.108  0.6233 -0.4028 -0.1814
 2346TIP3    H128673   0.198   6.337   1.145  0.6418 -0.1814 -0.6709
 2346TIP3    H228674   0.321   6.254   1.112  0.7948  0.7790 -2.7040
 2347TIP3   OH228675   2.996   0.150   6.711 -0.7787 -0.2451 -0.4143
 2347TIP3    H128676   2.983   0.208   6.636  2.6939  0.8296 -0.3454
 2347TIP3    H228677   3.039   0.073   6.675  1.0228  0.3244  0.3995
 2348TIP3   OH228678   5.174   3.805   0.220  0.1219  0.0093  0.1660
 2348TIP3    H128679   5.130   3.738   0.167 -1.1745  1.3152 -0.4727
 2348TIP3    H228680   5.244   3.757   0.265 -1.3137 -1.9615  0.4651
 2349TIP3   OH228681   0.659   6.247   0.145 -0.2967 -0.1576  0.2047
 2349TIP3    H128682   0.603   6.170   0.152 -1.2283  0.6066  1.7289
 2349TIP3    H228683   0.709   6.248   0.227  0.5522  0.2502 -0.2955
 2350TIP3   OH228684   6.640   4.649   7.571 -0.1720  0.4134 -0.3918
 2350TIP3    H128685   6.732   4.652   7.544 -0.1040  0.6568 -0.1332
 2350TIP3    H228686   6.643   4.632   7.665 -0.4009  0.0703 -0.4399
 2351TIP3   OH228687   3.463   2.478   1.523  0.3801  0.2041  0.8971
 2351TIP3    H128688   3.545   2.441   1.492  0.3173  0.3028  0.6131
 2351TIP3    H228689   3.405   2.403   1.535  0.3253  0.1904  0.5401
 2352TIP3   OH228690   1.148   1.738   7.059 -0.6358  0.0349  0.1616
 2352TIP3    H128691   1.222   1.797   7.045 -0.8641  0.2526 -0.1359
 2352TIP3    H228692   1.119   1.714   6.971 -0.6427 -0.4005  0.2788
 2353TIP3   OH228693   3.955   4.827   1.576  0.0604  0.1290 -0.1071
 2353TIP3    H128694   3.991   4.846   1.663  1.2503  1.1947 -0.7910
 2353TIP3    H228695   4.024   4.854   1.515 -0.9057 -0.2189 -1.4052
 2354TIP3   OH228696   5.678   0.756   1.323  0.7620 -0.3450  0.0097
 2354TIP3    H128697   5.756   0.804   1.297  1.1502 -1.0193 -0.1027
 2354TIP3    H228698   5.652   0.796   1.406 -0.1222  1.3909 -1.0513
 2355TIP3   OH228699   5.519   0.084   8.150  0.0793  0.4029  0.2383
 2355TIP3    H128700   5.504  -0.001   8.110 -1.2791  0.7894 -0.1391
 2355TIP3    H228701   5.523   0.067   8.244 -0.9464 -0.0047  0.2236
 2356TIP3   OH228702   4.176   5.821   0.234  0.0794 -0.4276 -0.1107
 2356TIP3    H128703   4.213   5.861   0.156 -1.3870  0.0922 -0.5684
 2356TIP3    H228704   4.249   5.774   0.274  1.4163  1.1931 -0.5481
 2357TIP3   OH228705   1.594   5.438   8.360 -0.2964 -0.4210 -0.0288
 2357TIP3    H128706   1.573   5.353   8.399  0.0397 -0.5356 -0.0948
 2357TIP3    H228707   1.514   5.489   8.371 -0.0089 -0.2393  1.3795
 2358TIP3   OH228708   0.059   5.819   7.569  0.4247  0.3304 -0.3803
 2358TIP3    H128709   0.075   5.730   7.538 -0.5086 -0.2605  0.7719
 2358TIP3    H228710   0.069   5.814   7.664 -0.9337  1.1537 -0.1681
 2359TIP3   OH228711   1.212   0.948   6.877 -0.3625  0.0713 -0.7577
 2359TIP3    H128712   1.196   0.868   6.926 -0.6215  1.4338  1.5500
 2359TIP3    H228713   1.200   0.923   6.785  1.1756 -2.8566 -0.2682
 2360TIP3   OH228714   0.747   4.067   7.509 -0.1293 -0.4154  0.2677
 2360TIP3    H128715   0.653   4.085   7.501 -0.0730 -0.6328 -1.2263
 2360TIP3    H228716   0.785   4.152   7.533 -0.6870 -0.2740  0.6669
 2361TIP3   OH228717   2.371   6.544   1.109 -0.2128  0.5392  0.4335
 2361TIP3    H128718   2.412   6.545   1.196 -0.9811 -1.5441  0.8694
 2361TIP3    H228719   2.445   6.537   1.048  0.2919  1.3140  0.9246
 2362TIP3   OH228720   5.539   5.758   7.487  0.8827  0.0209  0.6204
 2362TIP3    H128721   5.600   5.724   7.421 -1.7415 -1.7682 -1.0717
 2362TIP3    H228722   5.497   5.833   7.445  0.2524 -0.2111  0.8165
 2363TIP3   OH228723   6.146   1.471   1.219  0.0441 -0.6466 -0.7763
 2363TIP3    H128724   6.098   1.405   1.170  1.0766 -2.2469  0.2806
 2363TIP3    H228725   6.238   1.458   1.193  0.4872 -0.8854  0.8039
 2364TIP3   OH228726   2.776   0.639   7.683  0.7951  0.1693  0.4302
 2364TIP3    H128727   2.857   0.616   7.728  0.6383  0.3482  0.8116
 2364TIP3    H228728   2.707   0.619   7.747  0.6705  2.1822  0.9932
 2365TIP3   OH228729   4.995   0.002   6.944 -0.4413 -0.2881 -0.1342
 2365TIP3    H128730   4.966   0.040   7.028 -0.2798  0.4266 -0.3887
 2365TIP3    H228731   5.024   0.078   6.893  0.7600 -0.8720 -0.3306
 2366TIP3   OH228732   0.449   3.319   7.473 -0.1489  0.1480  0.8936
 2366TIP3    H128733   0.461   3.225   7.484 -1.3495  0.0069  1.1058
 2366TIP3    H228734   0.438   3.332   7.379 -1.4799 -0.1376  0.9854
 2367TIP3   OH228735   4.932   5.766   0.356 -0.0691  0.0806  0.5086
 2367TIP3    H128736   4.848   5.733   0.386  0.4057 -2.7984 -0.9454
 2367TIP3    H228737   4.997   5.711   0.400  1.2900  3.0747  2.6389
 2368TIP3   OH228738   3.792   3.395   7.306 -0.4659 -0.0183 -0.3612
 2368TIP3    H128739   3.719   3.336   7.289 -0.0566 -0.3353 -1.0745
 2368TIP3    H228740   3.759   3.455   7.372 -2.0751  1.1324 -2.1023
 2369TIP3   OH228741   3.006   6.500   0.073  0.8748  0.1877  0.4726
 2369TIP3    H128742   3.097   6.498   0.045  1.6683 -0.7767  2.8577
 2369TIP3    H228743   2.985   6.409   0.095 -0.4191  0.5156  0.7227
 2370TIP3   OH228744   5.214   0.189   8.205  0.7498 -0.2813 -0.0638
 2370TIP3    H128745   5.196   0.119   8.143 -1.1688 -0.0068  0.1281
 2370TIP3    H228746   5.253   0.145   8.281 -0.1825 -1.1273 -0.0522
 2371TIP3   OH228747   4.801   3.614   0.939  0.3459 -0.1386 -0.3210
 2371TIP3    H128748   4.799   3.710   0.932  0.0988 -0.1805 -0.9253
 2371TIP3    H228749   4.889   3.590   0.911  0.4021 -0.0877 -0.1870
 2372TIP3   OH228750   2.609   3.047   0.372  0.4669 -0.8865 -0.3640
 2372TIP3    H128751   2.592   3.109   0.443 -1.6817  1.4673 -2.6981
 2372TIP3    H228752   2.579   2.963   0.406 -0.2325  0.0883  1.6075
 2373TIP3   OH228753   6.327   3.829   1.668 -0.2814 -0.4093  0.7419
 2373TIP3    H128754   6.245   3.783   1.654  0.8585 -2.4346  0.4047
 2373TIP3    H228755   6.318   3.870   1.754 -1.1550 -1.6901  1.2772
 2374TIP3   OH228756   2.541   1.322   7.967  0.6876  0.7373  0.2106
 2374TIP3    H128757   2.504   1.304   8.053 -0.4790  1.4056 -0.1357
 2374TIP3    H228758   2.467   1.315   7.906  1.2370  1.5144 -0.5785
 2375TIP3   OH228759   1.081   5.005   7.517  0.0028 -0.2218  0.1100
 2375TIP3    H128760   1.075   4.916   7.484  0.8776  0.2452 -1.3929
 2375TIP3    H228761   1.169   5.034   7.493 -0.1782  0.9693  0.7883
 2376TIP3   OH228762   4.274   0.910   0.012 -0.4641  0.6698  0.3028
 2376TIP3    H128763   4.293   0.897  -0.081 -1.0387  0.0448  0.2644
 2376TIP3    H228764   4.339   0.856   0.057 -1.2264 -0.3554  0.2097
 2377TIP3   OH228765   6.687   0.068   8.099  0.2623 -0.1447  0.3618
 2377TIP3    H128766   6.762   0.126   8.091 -0.3838  0.6500 -0.0687
 2377TIP3    H228767   6.619   0.122   8.140 -0.4328 -0.5099 -0.2881
 2378TIP3   OH228768   6.215   4.734   7.040 -0.5999 -0.5684  0.5607
 2378TIP3    H128769   6.235   4.825   7.060  0.4089 -0.8601  0.9562
 2378TIP3    H228770   6.276   4.684   7.094  0.3986 -1.4399 -1.2741
 2379TIP3   OH228771   2.918   5.043   8.525  0.5637  0.3171 -0.1329
 2379TIP3    H128772   2.912   4.948   8.512  0.4609  0.2708  0.2223
 2379TIP3    H228773   2.827   5.073   8.526  0.3249 -0.0807  3.1418
 2380TIP3   OH228774   5.759   3.401   1.744  0.4341 -0.3390  0.1303
 2380TIP3    H128775   5.723   3.418   1.657 -0.4768 -1.6357  0.2252
 2380TIP3    H228776   5.734   3.478   1.795 -3.1459 -1.5378  0.4465
 2381TIP3   OH228777   5.627   1.615   8.045 -0.5792 -0.4951 -0.2417
 2381TIP3    H128778   5.686   1.547   8.012 -0.2679 -0.1481 -0.4024
 2381TIP3    H228779   5.539   1.584   8.022 -0.3041  0.9248 -3.7132
 2382TIP3   OH228780   5.469   4.257   1.366 -0.0205 -0.0500 -0.6485
 2382TIP3    H128781   5.560   4.230   1.383 -0.0361 -1.1451 -2.0910
 2382TIP3    H228782   5.438   4.196   1.299 -1.6731  0.6253 -0.5465
 2383TIP3   OH228783   1.853   5.564   7.962  0.3138 -0.0487 -0.6837
 2383TIP3    H128784   1.947   5.575   7.948  0.4667 -1.4182 -0.8630
 2383TIP3    H228785   1.822   5.517   7.884 -0.6710  1.0362 -0.9841
 2384TIP3   OH228786   0.103   2.029   7.994  0.0680 -0.1641  1.0789
 2384TIP3    H128787   0.069   2.118   7.996 -1.5150 -0.7132 -0.0077
 2384TIP3    H228788   0.027   1.974   8.011  0.6990 -1.3797  0.1072
 2385TIP3   OH228789   5.815   1.431   7.951 -0.3465 -0.1287 -0.1329
 2385TIP3    H128790   5.792   1.356   7.897 -0.3791  1.0399 -1.8286
 2385TIP3    H228791   5.910   1.435   7.948 -0.3933  0.5972 -1.0912
 2386TIP3   OH228792   0.132   5.740   8.274  0.0794 -0.2522  0.2780
 2386TIP3    H128793   0.060   5.797   8.248  1.7936  2.0997  0.3655
 2386TIP3    H228794   0.117   5.724   8.367  0.1429  1.0421  0.5346
 2387TIP3   OH228795   2.717   2.869   1.796 -0.1446  0.3693  0.3063
 2387TIP3    H128796   2.758   2.839   1.877 -1.4525 -0.5165  0.6672
 2387TIP3    H228797   2.625   2.880   1.818 -0.6944 -0.7094 -1.2654
 2388TIP3   OH228798   5.841   4.253   8.020  0.2066  0.3083  0.0097
 2388TIP3    H128799   5.795   4.272   8.102 -1.7763  0.9586 -1.1929
 2388TIP3    H228800   5.774   4.218   7.962  1.7741 -1.0277 -1.0762
 2389TIP3   OH228801   1.820   0.766   7.443  0.3457 -0.6205 -1.0974
 2389TIP3    H128802   1.730   0.784   7.469  0.3677  0.3086 -1.6113
 2389TIP3    H228803   1.865   0.747   7.525  0.2054  1.3074 -0.5241
 2390TIP3   OH228804   6.200   0.820   0.760 -0.0520  0.0031  0.1034
 2390TIP3    H128805   6.203   0.771   0.842  2.7688 -0.2682 -0.0767
 2390TIP3    H228806   6.126   0.880   0.771 -1.0503 -1.4370  1.9655
 2391TIP3   OH228807   3.541   5.546   8.351  0.3859  0.3121 -0.4889
 2391TIP3    H128808   3.582   5.601   8.283  0.4240  1.3730  0.3728
 2391TIP3    H228809   3.596   5.559   8.428 -0.4228  0.1443  0.1181
 2392TIP3   OH228810   1.640   6.462   0.125 -0.0566  0.0838 -0.2581
 2392TIP3    H128811   1.709   6.402   0.153 -0.0179  0.2216 -0.0561
 2392TIP3    H228812   1.655   6.541   0.177  0.2285  0.4691 -0.9190
 2393TIP3   OH228813   5.213   4.181   1.560  0.6556 -0.0671 -0.0126
 2393TIP3    H128814   5.222   4.180   1.464  0.2216  1.4566 -0.0972
 2393TIP3    H228815   5.193   4.090   1.583  1.1369 -0.5332 -1.3268
 2394TIP3   OH228816   1.641   0.320   1.611 -0.1588 -0.5208 -0.4446
 2394TIP3    H128817   1.592   0.257   1.558  0.0898 -1.2395  0.1580
 2394TIP3    H228818   1.723   0.275   1.633  0.3214  0.2778 -0.5794
 2395TIP3   OH228819   0.661   4.636   7.088 -0.0030 -0.4377  0.3647
 2395TIP3    H128820   0.566   4.640   7.098  0.0343 -0.9352  0.9345
 2395TIP3    H228821   0.678   4.555   7.040  0.2361 -1.2949  1.8255
 2396TIP3   OH228822   4.954   2.900   0.031 -0.3436 -0.3917  0.2745
 2396TIP3    H128823   4.862   2.889   0.009 -0.4345 -2.7585  1.5263
 2396TIP3    H228824   4.957   2.891   0.126  1.1140  0.2158  0.3103
 2397TIP3   OH228825   5.285   1.430   0.395 -0.3445  0.0732 -0.2139
 2397TIP3    H128826   5.245   1.506   0.436  0.1292 -0.3894  1.1352
 2397TIP3    H228827   5.346   1.396   0.460  1.1734 -0.1155 -1.6658
 2398TIP3   OH228828   5.821   6.750   0.520  0.5917  0.1249  0.2952
 2398TIP3    H128829   5.865   6.733   0.603  1.3922 -0.6247 -0.2692
 2398TIP3    H228830   5.778   6.668   0.498 -0.3280  0.5668  0.3612
 2399TIP3   OH228831   4.955   3.982   1.453  0.4896 -0.3856 -0.1906
 2399TIP3    H128832   4.998   4.051   1.401  0.8243  0.7099  1.4814
 2399TIP3    H228833   4.918   3.923   1.387 -0.7142  1.9197 -1.7239
 2400TIP3   OH228834   0.845   2.348   0.526  0.6622 -0.7571  0.2205
 2400TIP3    H128835   0.771   2.287   0.522  0.4710 -0.6112  1.2118
 2400TIP3    H228836   0.805   2.433   0.546  1.0428 -0.5592  0.1494
 2401TIP3   OH228837   2.863   0.517   6.772 -0.7170  0.0251 -0.4221
 2401TIP3    H128838   2.892   0.461   6.844 -1.7743  0.4106  0.3375
 2401TIP3    H228839   2.929   0.586   6.766 -1.3078  0.7742  1.1240
 2402TIP3   OH228840   5.009   3.066   7.991  0.2593  0.0065 -0.3903
 2402TIP3    H128841   5.008   2.970   7.982  0.3862 -0.1391  0.9343
 2402TIP3    H228842   4.928   3.085   8.038 -0.3321  0.6885 -1.6235
 2403TIP3   OH228843   0.889   0.710   6.229  0.3850 -0.1301 -0.2701
 2403TIP3    H128844   0.909   0.629   6.276  0.2669  0.0611  0.1194
 2403TIP3    H228845   0.921   0.695   6.140  0.8785 -0.3879 -0.0520
 2404TIP3   OH228846   2.676   5.449   7.417  0.4302 -0.1238 -0.2597
 2404TIP3    H128847   2.647   5.358   7.415 -0.0092  0.0208 -0.5675
 2404TIP3    H228848   2.758   5.447   7.466 -0.1903 -0.5161  0.8113
 2405TIP3   OH228849   5.351   1.695   0.644  0.0448  0.6704  0.3453
 2405TIP3    H128850   5.263   1.730   0.657 -1.2372 -1.5117 -1.6322
 2405TIP3    H228851   5.377   1.729   0.558  0.9077  0.8414  0.6659
 2406TIP3   OH228852   1.806   4.064   8.518 -0.4255  0.3289  0.8591
 2406TIP3    H128853   1.766   4.123   8.455  1.0382 -0.7789 -1.1959
 2406TIP3    H228854   1.734   4.008   8.548 -0.7419 -0.8714 -1.8810
 2407TIP3   OH228855   6.880   0.161   6.051 -0.4340  0.3144  0.3720
 2407TIP3    H128856   6.850   0.236   6.103 -2.8900 -1.2453  1.3984
 2407TIP3    H228857   6.802   0.132   6.004  0.3230 -1.8459  0.3360
 2408TIP3   OH228858   3.579   3.232   7.249  0.6336 -0.2726  0.1252
 2408TIP3    H128859   3.484   3.239   7.261  0.5385  0.8089 -1.0247
 2408TIP3    H228860   3.590   3.194   7.162  1.2374  0.5438 -0.1748
 2409TIP3   OH228861   4.481   1.355   1.228 -0.2308 -0.4761  0.0476
 2409TIP3    H128862   4.511   1.416   1.160 -0.0900 -1.2342 -0.5774
 2409TIP3    H228863   4.498   1.402   1.310  2.1331 -0.6064 -0.2968
 2410TIP3   OH228864   6.143   0.999   1.356  0.4290  0.5244  0.2011
 2410TIP3    H128865   6.140   1.071   1.420  0.0288 -0.2235  1.0445
 2410TIP3    H228866   6.218   0.946   1.383 -1.0165 -1.0035  1.4293
 2411TIP3   OH228867   4.084   1.752   0.756 -0.4084  0.0312 -0.2860
 2411TIP3    H128868   4.079   1.841   0.721 -1.0738 -0.0249 -0.3436
 2411TIP3    H228869   4.057   1.696   0.683 -4.5283  0.0511  0.9396
 2412TIP3   OH228870   4.730   1.500   1.612  0.4912 -0.1076 -0.4184
 2412TIP3    H128871   4.646   1.454   1.613 -0.6952  1.8967  1.5897
 2412TIP3    H228872   4.734   1.541   1.526 -0.7374  0.0067 -0.4395
 2413TIP3   OH228873   2.201   4.227   8.251 -0.2654 -0.6911 -0.2231
 2413TIP3    H128874   2.129   4.171   8.282 -0.1116 -1.0443 -0.5005
 2413TIP3    H228875   2.176   4.252   8.163 -0.1903 -0.5665 -0.2090
 2414TIP3   OH228876   2.922   0.918   1.305 -0.0958 -0.4060 -0.2836
 2414TIP3    H128877   2.837   0.906   1.348  0.6081 -0.8745  1.0215
 2414TIP3    H228878   2.905   0.984   1.238 -1.1020  0.9523  1.2062
 2415TIP3   OH228879   3.806   1.728   6.657  0.1852 -0.2986 -0.0859
 2415TIP3    H128880   3.786   1.682   6.738  1.7000 -0.3165  0.3193
 2415TIP3    H228881   3.725   1.773   6.633 -0.0254  0.5280  1.9835
 2416TIP3   OH228882   5.404   0.594   8.052  0.0662 -0.0093 -0.1831
 2416TIP3    H128883   5.475   0.602   8.116 -0.9646  0.8073  0.9122
 2416TIP3    H228884   5.415   0.669   7.994  2.3294 -1.9124 -2.4586
 2417TIP3   OH228885   5.413   2.350   0.083 -0.1802 -0.7536  0.1909
 2417TIP3    H128886   5.343   2.392   0.132 -0.4369 -0.7833 -0.1514
 2417TIP3    H228887   5.459   2.296   0.148 -0.2061 -0.4005  0.5034
 2418TIP3   OH228888   4.427   3.692   2.391  0.2031 -0.3209  0.6164
 2418TIP3    H128889   4.340   3.656   2.373  0.9460 -1.2946 -1.3171
 2418TIP3    H228890   4.470   3.624   2.443  1.4548 -2.3268 -2.6680
 2419TIP3   OH228891   0.686   6.563   8.107 -0.0351 -0.1332 -0.1946
 2419TIP3    H128892   0.613   6.622   8.127 -1.2145 -2.1564  1.8705
 2419TIP3    H228893   0.664   6.526   8.021 -0.4004  0.7606 -0.4946
 2420TIP3   OH228894   6.551   3.214   6.647  0.2065  0.0954 -0.6988
 2420TIP3    H128895   6.498   3.199   6.725  0.7982  0.6660 -0.1710
 2420TIP3    H228896   6.505   3.283   6.600  0.0074 -0.0385 -0.7007
 2421TIP3   OH228897   2.798   6.388   1.413  0.0228 -0.6400  0.8045
 2421TIP3    H128898   2.879   6.422   1.452  0.5565  1.7298 -2.0353
 2421TIP3    H228899   2.826   6.345   1.332 -1.4888 -0.1712 -0.0076
 2422TIP3   OH228900   2.997   4.752   7.279 -0.3705 -0.0203  0.3913
 2422TIP3    H128901   2.960   4.742   7.366 -1.2163 -2.5245 -0.1569
 2422TIP3    H228902   2.929   4.795   7.228  0.2855  1.8310  1.0089
 2423TIP3   OH228903   3.692   5.045   7.242  0.0459 -0.5467 -0.5262
 2423TIP3    H128904   3.640   5.080   7.314  1.6352 -0.0848  0.4486
 2423TIP3    H228905   3.691   4.950   7.256 -2.1668 -0.7436 -1.7008
 2424TIP3   OH228906   2.644   5.564   1.921 -0.0724 -0.7989 -0.4631
 2424TIP3    H128907   2.730   5.594   1.951  0.1945  0.6084 -2.4114
 2424TIP3    H228908   2.583   5.594   1.988  0.7900 -0.4408  0.1809
 2425TIP3   OH228909   3.216   0.771   0.033 -0.1838 -0.0069 -0.1701
 2425TIP3    H128910   3.191   0.688   0.071 -0.4036 -0.0394 -0.3795
 2425TIP3    H228911   3.256   0.748  -0.051 -1.9484  0.1770 -1.1198
 2426TIP3   OH228912   1.769   1.161   2.542  0.7976  0.5218 -0.1152
 2426TIP3    H128913   1.751   1.071   2.570  1.6985  1.1274  2.7557
 2426TIP3    H228914   1.682   1.200   2.531  0.3820 -0.1607  0.6045
 2427TIP3   OH228915   2.746   6.846   0.319  0.3135 -0.0320  0.3256
 2427TIP3    H128916   2.804   6.786   0.366 -0.2750 -0.5039  0.4647
 2427TIP3    H228917   2.662   6.800   0.314  0.3954 -0.0479 -1.3355
 2428TIP3   OH228918   0.302   5.377   0.774 -0.3842 -0.6295 -0.0000
 2428TIP3    H128919   0.245   5.443   0.734  1.0441 -0.5073 -1.9302
 2428TIP3    H228920   0.250   5.342   0.847 -3.6055 -1.6120 -2.5347
 2429TIP3   OH228921   1.895   1.270   0.433 -0.5833  0.0247 -0.1838
 2429TIP3    H128922   1.890   1.363   0.412 -2.0274 -0.1297 -0.6938
 2429TIP3    H228923   1.988   1.252   0.442 -0.3126  1.7053  0.8298
 2430TIP3   OH228924   0.761   5.543   8.094 -0.1462  0.1098 -0.1829
 2430TIP3    H128925   0.744   5.597   8.171 -0.2002  0.5647 -0.5110
 2430TIP3    H228926   0.852   5.563   8.070  0.0247 -0.3839  0.0386
 2431TIP3   OH228927   5.368   5.743   7.966  0.2266 -0.1686 -0.1332
 2431TIP3    H128928   5.379   5.725   8.060 -3.1608 -2.3313  0.0318
 2431TIP3    H228929   5.393   5.661   7.923 -0.6048 -0.0585 -0.8513
 2432TIP3   OH228930   4.938   0.578   1.705  0.2943 -0.2859  0.3628
 2432TIP3    H128931   4.898   0.664   1.696  0.7105 -0.0617  0.6330
 2432TIP3    H228932   4.867   0.516   1.689 -0.1119  0.1068  0.6558
 2433TIP3   OH228933   5.139   6.723   8.245 -0.4818  0.2014 -0.0100
 2433TIP3    H128934   5.053   6.689   8.222 -0.8009  2.7700 -3.4488
 2433TIP3    H228935   5.127   6.767   8.329 -1.9827 -1.1387  0.5149
 2434TIP3   OH228936   3.536   5.894   7.490  0.2672 -0.0782 -0.1183
 2434TIP3    H128937   3.522   5.982   7.524 -2.8641 -0.4931 -0.0643
 2434TIP3    H228938   3.609   5.859   7.541  0.9602  2.1338  0.4921
 2435TIP3   OH228939   0.472   6.699   8.312  0.6542  0.2962  0.0336
 2435TIP3    H128940   0.394   6.688   8.366  1.3343  1.3885  1.2899
 2435TIP3    H228941   0.449   6.766   8.248  0.2147 -0.2052 -0.3499
 2436TIP3   OH228942   1.131   3.875   6.710  0.2058 -0.2525 -0.0810
 2436TIP3    H128943   1.209   3.848   6.662  0.5053 -0.1707  0.3553
 2436TIP3    H228944   1.161   3.945   6.768 -0.8588  2.3819 -2.4446
 2437TIP3   OH228945   2.878   1.964   2.208  0.6014  0.0878 -0.1641
 2437TIP3    H128946   2.929   1.913   2.271 -0.2510  3.1923  3.4372
 2437TIP3    H228947   2.788   1.935   2.220  0.4946  0.3573 -0.3028
 2438TIP3   OH228948   2.997   6.524   7.673  0.2502  0.4068 -0.0912
 2438TIP3    H128949   2.921   6.491   7.721  1.0172 -0.0204  0.8500
 2438TIP3    H228950   3.043   6.446   7.643  1.4209  0.6013  1.1128
 2439TIP3   OH228951   1.075   3.015   1.895  0.6944  0.2380 -0.1842
 2439TIP3    H128952   0.984   2.993   1.913  1.4540 -1.9414  1.5851
 2439TIP3    H228953   1.097   3.082   1.959  1.2422 -1.9221  2.0697
 2440TIP3   OH228954   6.201   5.160   7.477  0.1223 -0.3132  0.4366
 2440TIP3    H128955   6.128   5.187   7.532  0.2679  0.1361  0.4138
 2440TIP3    H228956   6.230   5.241   7.434  0.7043 -0.4641  0.5343
 2441TIP3   OH228957   5.556   2.104   1.090  0.1058  0.0290 -0.3682
 2441TIP3    H128958   5.620   2.122   1.159  0.6103 -2.6344 -0.0160
 2441TIP3    H228959   5.591   2.146   1.012  0.4852  1.5050  0.5608
 2442TIP3   OH228960   4.211   6.527   0.170  0.2476  0.1966  0.3205
 2442TIP3    H128961   4.262   6.582   0.109 -0.0911 -1.2832 -1.3825
 2442TIP3    H228962   4.159   6.589   0.220  0.4038  1.4958 -1.0446
 2443TIP3   OH228963   2.071   2.746   7.260 -0.1385 -0.2416  0.9809
 2443TIP3    H128964   2.055   2.771   7.351  0.3493  0.3874  0.9079
 2443TIP3    H228965   2.129   2.815   7.227  0.5955 -1.0626  0.5176
 2444TIP3   OH228966   2.049   6.233   0.334  0.3832  0.0541 -0.5113
 2444TIP3    H128967   2.047   6.319   0.378  2.9391 -0.1072  0.1243
 2444TIP3    H228968   2.097   6.250   0.253 -0.4924 -0.4960 -1.1506
 2445TIP3   OH228969   5.049   0.357   1.187  0.2754 -0.3904  0.3228
 2445TIP3    H128970   5.058   0.409   1.267  0.9248 -1.3899  0.9150
 2445TIP3    H228971   5.086   0.412   1.119  2.3313 -0.6291  1.1754
 2446TIP3   OH228972   4.673   2.530   0.946 -0.3977 -0.0264 -0.0572
 2446TIP3    H128973   4.635   2.598   1.001 -1.0867 -0.5266  0.1007
 2446TIP3    H228974   4.737   2.576   0.891 -0.4056  0.6356  0.4764
 2447TIP3   OH228975   4.972   1.341   7.350  0.0242  0.1762 -0.0814
 2447TIP3    H128976   5.066   1.323   7.351 -0.0851 -0.3805  0.3267
 2447TIP3    H228977   4.961   1.405   7.279  0.7017  0.2224 -0.1547
 2448TIP3   OH228978   6.905   0.633   0.803  0.1417  0.7059 -0.1694
 2448TIP3    H128979   6.923   0.696   0.873  0.5367  0.9229 -0.4637
 2448TIP3    H228980   6.815   0.604   0.819 -0.4043  2.0760 -0.6058
 2449TIP3   OH228981   2.085   4.039   8.538 -0.3996 -0.7581  0.4364
 2449TIP3    H128982   2.112   4.089   8.614 -0.6844 -2.3310  1.6292
 2449TIP3    H228983   1.990   4.051   8.534 -0.3250 -0.2624 -0.0023
 2450TIP3   OH228984   3.040   4.566   0.790 -0.1568  0.2523 -0.1032
 2450TIP3    H128985   2.961   4.556   0.843 -0.2832 -1.6151 -0.5632
 2450TIP3    H228986   3.008   4.591   0.704 -0.3637 -1.2292 -0.4941
 2451TIP3   OH228987   6.710   6.772   8.222 -0.1333 -0.0282  0.0518
 2451TIP3    H128988   6.716   6.726   8.138 -2.2317 -1.2505  0.4923
 2451TIP3    H228989   6.710   6.865   8.199 -1.2585 -0.3459 -1.3833
 2452TIP3   OH228990   3.046   3.037   7.486  0.2620 -0.3494 -0.0737
 2452TIP3    H128991   3.005   2.978   7.549  0.1078 -0.4003 -0.2194
 2452TIP3    H228992   3.139   3.019   7.493  0.1898 -0.8405 -0.3470
 2453TIP3   OH228993   5.321   6.676   6.730 -0.5451 -0.0764 -0.0084
 2453TIP3    H128994   5.318   6.716   6.643  0.3403  0.1541  0.0554
 2453TIP3    H228995   5.231   6.649   6.747 -0.6830 -0.3437 -1.0946
 2454TIP3   OH228996   3.715   4.622   8.103 -0.9722 -0.6233  0.4548
 2454TIP3    H128997   3.653   4.692   8.082 -0.9464 -0.0647  2.0864
 2454TIP3    H228998   3.704   4.607   8.197  0.3967 -1.4723  0.5177
 2455TIP3   OH228999   2.529   2.838   1.498  0.1189 -0.8214  0.3557
 2455TIP3    H129000   2.465   2.879   1.557  1.1678  1.8674 -0.2598
 2455TIP3    H229001   2.548   2.753   1.540 -2.2164 -0.7967  1.6606
 2456TIP3   OH229002   0.392   0.478   7.381 -0.0452  0.5459 -0.1393
 2456TIP3    H129003   0.442   0.432   7.314  1.2570 -0.2402  1.3124
 2456TIP3    H229004   0.458   0.509   7.443 -1.1231  2.0955  0.3073
 2457TIP3   OH229005   2.919   3.861   0.285 -0.3063  0.5053 -0.0261
 2457TIP3    H129006   3.000   3.861   0.336 -0.1090 -1.7997 -0.2384
 2457TIP3    H229007   2.946   3.881   0.195 -0.2583  1.6293  0.2275
 2458TIP3   OH229008   3.894   3.741   7.418 -0.6938 -0.4315 -0.4350
 2458TIP3    H129009   3.811   3.696   7.408 -1.0489  0.3460 -1.1564
 2458TIP3    H229010   3.918   3.729   7.510 -2.3333  0.5746  0.1585
 2459TIP3   OH229011   1.833   3.223   6.232  0.2979  0.1170  0.3224
 2459TIP3    H129012   1.913   3.274   6.236  1.6042 -1.8001  0.2793
 2459TIP3    H229013   1.840   3.174   6.150 -1.8734  1.3240 -0.6672
 2460TIP3   OH229014   5.113   4.433   6.628 -0.4708 -0.2979 -0.2313
 2460TIP3    H129015   5.095   4.506   6.687  1.5708  1.2956 -1.4191
 2460TIP3    H229016   5.094   4.467   6.541  1.4261 -0.8065 -0.9017
 2461TIP3   OH229017   3.801   1.666   7.203 -0.2205  0.0961 -0.0343
 2461TIP3    H129018   3.840   1.579   7.200  0.1541  0.2341  0.6453
 2461TIP3    H229019   3.718   1.653   7.250 -0.0303  0.1498  0.3212
 2462TIP3   OH229020   2.258   0.377   7.562 -0.0884  0.5105  0.0370
 2462TIP3    H129021   2.187   0.390   7.499  0.1578 -0.3658 -0.4341
 2462TIP3    H229022   2.215   0.343   7.640 -0.3128  0.9472  0.1020
 2463TIP3   OH229023   3.899   2.837   7.695  0.2426  0.6737  0.0937
 2463TIP3    H129024   3.871   2.786   7.771 -1.8696  2.6093  0.7448
 2463TIP3    H229025   3.985   2.802   7.673  0.6595 -0.4273  2.9604
 2464TIP3   OH229026   2.633   1.593   8.036 -0.4336 -0.6318 -0.5974
 2464TIP3    H129027   2.612   1.657   7.968 -1.8322  0.6658  0.9792
 2464TIP3    H229028   2.603   1.509   8.000 -0.5331 -0.0923 -1.8188
 2465TIP3   OH229029   4.273   2.420   1.083  0.3156  0.7724  0.0354
 2465TIP3    H129030   4.325   2.414   1.164  0.9306 -0.1192 -0.4133
 2465TIP3    H229031   4.184   2.396   1.110  0.7988 -0.9643  0.1926
 2466TIP3   OH229032   0.522   3.478   1.453 -0.1142 -0.1077 -0.1057
 2466TIP3    H129033   0.479   3.393   1.455 -0.0264 -0.1608  1.9052
 2466TIP3    H229034   0.612   3.461   1.479 -0.4485  0.7231  1.7867
 2467TIP3   OH229035   1.365   6.665   7.067  0.3358  0.5229 -0.3264
 2467TIP3    H129036   1.274   6.692   7.078 -0.6808 -2.1307 -1.2856
 2467TIP3    H229037   1.383   6.612   7.145  1.0252  0.9611 -0.1869
 2468TIP3   OH229038   6.701   3.905   7.180 -0.0128 -0.2417  0.3307
 2468TIP3    H129039   6.793   3.924   7.161  0.3701 -0.3440  1.9374
 2468TIP3    H229040   6.696   3.810   7.179  0.2344 -0.2860  1.5802
 2469TIP3   OH229041   3.569   6.274   8.185 -0.3748  0.2746 -0.0210
 2469TIP3    H129042   3.649   6.223   8.198  0.4392  1.9367  1.9885
 2469TIP3    H229043   3.499   6.218   8.220  0.3409  0.0217  1.0440
 2470TIP3   OH229044   6.707   0.799   7.850  0.2446  0.6190 -0.1950
 2470TIP3    H129045   6.685   0.754   7.931  5.6350 -0.1546  1.2493
 2470TIP3    H229046   6.707   0.892   7.874  0.3219  0.5026  0.2747
 2471TIP3   OH229047   4.658   0.463   1.851  0.0456  0.2778 -0.2722
 2471TIP3    H129048   4.678   0.541   1.903  2.3897  0.4993 -1.3448
 2471TIP3    H229049   4.679   0.390   1.909 -2.0550  0.3643  0.7003
 2472TIP3   OH229050   5.137   6.925   1.471 -0.2801 -0.4402  0.4738
 2472TIP3    H129051   5.048   6.956   1.484 -0.4732 -0.3848 -0.9042
 2472TIP3    H229052   5.157   6.943   1.379  2.2021  2.2358  1.3795
 2473TIP3   OH229053   6.010   3.344   0.277  0.1919  0.3425 -0.5462
 2473TIP3    H129054   5.978   3.317   0.191 -1.4253 -0.4407  0.2493
 2473TIP3    H229055   5.963   3.425   0.295  0.6541  0.5930 -0.4632
 2474TIP3   OH229056   3.691   5.611   7.109  0.5689 -0.4853 -0.0918
 2474TIP3    H129057   3.644   5.583   7.030  0.5159 -1.7189  0.3623
 2474TIP3    H229058   3.695   5.533   7.164  0.2794  0.4353  1.2980
 2475TIP3   OH229059   3.269   1.038   6.932 -0.5582  0.4955 -0.0965
 2475TIP3    H129060   3.264   0.998   6.845  0.2892  0.7565 -0.2761
 2475TIP3    H229061   3.191   1.094   6.937 -0.3739  0.8384 -0.8766
 2476TIP3   OH229062   4.839   1.941   6.668 -0.0984  0.0420  0.2794
 2476TIP3    H129063   4.933   1.925   6.667 -0.3002 -1.3137 -1.3894
 2476TIP3    H229064   4.800   1.854   6.676 -1.2161  0.5422  0.4564
 2477TIP3   OH229065   1.185   2.043   0.268  0.0791 -0.1627 -1.4923
 2477TIP3    H129066   1.134   2.055   0.348  3.2600  1.6011  0.4727
 2477TIP3    H229067   1.168   2.121   0.216  1.3611  0.8804 -0.4113
 2478TIP3   OH229068   5.209   0.621   0.129  0.3551  0.0779 -0.0810
 2478TIP3    H129069   5.224   0.570   0.050  0.8632  1.7985 -1.1452
 2478TIP3    H229070   5.291   0.669   0.143  0.2009 -0.0342  1.3850
 2479TIP3   OH229071   0.619   4.814   1.008 -0.3961  0.1924  0.5808
 2479TIP3    H129072   0.673   4.842   0.934 -1.3015 -1.6550 -0.8591
 2479TIP3    H229073   0.565   4.744   0.973 -3.3288  1.5123  2.0928
 2480TIP3   OH229074   1.198   5.353   7.181  0.8064 -0.2601  0.3273
 2480TIP3    H129075   1.154   5.297   7.116 -0.2816  0.6843  0.2176
 2480TIP3    H229076   1.178   5.442   7.153  2.1750  0.1918  0.7363
 2481TIP3   OH229077   3.037   5.273   1.446  0.1759 -0.2779 -0.5984
 2481TIP3    H129078   3.099   5.337   1.483  2.6547 -0.9731 -3.1929
 2481TIP3    H229079   2.958   5.324   1.429  1.3259  1.6253 -0.5867
 2482TIP3   OH229080   3.946   6.551   7.219  0.7056 -0.5071 -0.1285
 2482TIP3    H129081   3.945   6.520   7.310 -1.1100 -0.5637 -0.1206
 2482TIP3    H229082   3.943   6.471   7.167  1.2423 -0.4582 -0.2425
 2483TIP3   OH229083   0.736   6.247   0.403  0.1932  0.0613  0.0803
 2483TIP3    H129084   0.740   6.169   0.457  1.0545 -0.6035 -0.9022
 2483TIP3    H229085   0.806   6.304   0.437  0.3186 -0.0902  0.0780
 2484TIP3   OH229086   4.468   2.505   8.014 -0.7034  0.0626  0.1428
 2484TIP3    H129087   4.444   2.567   8.083 -1.2136  1.0995 -0.9292
 2484TIP3    H229088   4.396   2.441   8.013 -0.6005 -0.0646  0.6857
 2485TIP3   OH229089   6.432   2.440   1.677 -0.1248  0.1592 -0.8487
 2485TIP3    H129090   6.345   2.439   1.718  0.0077 -0.2263 -0.5630
 2485TIP3    H229091   6.456   2.347   1.670  0.3710  0.2710 -0.6925
 2486TIP3   OH229092   5.677   3.245   0.257  0.1887 -0.3402 -0.1771
 2486TIP3    H129093   5.665   3.164   0.308 -0.0177 -0.5581 -0.5634
 2486TIP3    H229094   5.638   3.225   0.172  0.8261 -0.0966 -0.5327
 2487TIP3   OH229095   1.434   2.727   7.003 -0.0113 -0.1755  0.0121
 2487TIP3    H129096   1.400   2.804   7.048  1.4823  0.5489 -0.0270
 2487TIP3    H229097   1.372   2.711   6.932 -2.0006 -0.9008  1.8275
 2488TIP3   OH229098   5.275   2.857   7.039 -0.4678 -0.3782 -0.2114
 2488TIP3    H129099   5.205   2.844   7.103  1.7508  0.5580  2.6424
 2488TIP3    H229100   5.291   2.770   7.002 -1.8962 -0.9313  0.4275
 2489TIP3   OH229101   5.725   3.538   6.809 -0.1873  0.4234  1.0884
 2489TIP3    H129102   5.792   3.489   6.761  1.0520  0.4770  2.6593
 2489TIP3    H229103   5.732   3.627   6.776  0.3290  0.3632  1.0283
 2490TIP3   OH229104   5.113   4.212   6.435  0.1275 -0.6945  0.7742
 2490TIP3    H129105   5.134   4.270   6.508 -1.3632 -1.3007  1.7231
 2490TIP3    H229106   5.035   4.164   6.464 -1.2820 -0.0688 -1.7146
 2491TIP3   OH229107   4.290   3.605   8.258  0.3968 -0.2754  0.2854
 2491TIP3    H129108   4.345   3.670   8.215 -0.6658 -0.0498 -0.8030
 2491TIP3    H229109   4.324   3.521   8.229  0.3990 -0.1440 -0.1019
 2492TIP3   OH229110   0.164   1.104   7.996 -0.6282  0.3861  0.0672
 2492TIP3    H129111   0.194   1.110   7.906  0.3267 -1.0662  0.2612
 2492TIP3    H229112   0.109   1.182   8.008 -0.0866  1.0488 -1.4904
 2493TIP3   OH229113   0.117   3.313   6.651  0.3370  0.3802 -0.0976
 2493TIP3    H129114   0.038   3.264   6.626  0.5280  0.8290 -1.6946
 2493TIP3    H229115   0.083   3.391   6.695 -0.1237  0.4886 -0.6253
 2494TIP3   OH229116   0.855   2.501   1.498  0.2672 -0.4804 -0.0943
 2494TIP3    H129117   0.925   2.495   1.433 -0.3310 -4.4354 -0.6206
 2494TIP3    H229118   0.775   2.483   1.448 -0.8778  1.2988  0.9810
 2495TIP3   OH229119   0.513   0.132   1.361  0.2227 -0.2946  0.0469
 2495TIP3    H129120   0.469   0.048   1.349 -0.6178  0.1209  0.1761
 2495TIP3    H229121   0.488   0.160   1.448  0.0095  0.3710 -0.2228
 2496TIP3   OH229122   0.318   4.636   8.190  0.1567  0.1742  0.3045
 2496TIP3    H129123   0.309   4.716   8.242 -0.6467  1.4147 -1.6280
 2496TIP3    H229124   0.405   4.643   8.150  0.0101  0.1814 -0.0157
 2497TIP3   OH229125   0.202   0.342   7.494 -0.3022  0.0074  0.2617
 2497TIP3    H129126   0.173   0.259   7.455  0.0627  0.1791 -0.3964
 2497TIP3    H229127   0.262   0.379   7.429  0.7116  0.0736  1.2204
 2498TIP3   OH229128   1.971   1.018   1.578  0.4076 -0.4484  0.0868
 2498TIP3    H129129   2.029   0.979   1.643 -0.8544  0.7828  2.0750
 2498TIP3    H229130   1.889   1.031   1.625 -0.4518  0.8404 -1.6709
 2499TIP3   OH229131   4.395   2.444   0.838 -0.2390  0.0803 -0.6016
 2499TIP3    H129132   4.443   2.525   0.860 -0.2474  0.5042 -2.0739
 2499TIP3    H229133   4.356   2.417   0.921  1.0127  0.7539  0.2450
 2500TIP3   OH229134   0.160   5.902   7.852 -0.4878 -0.3791 -0.1206
 2500TIP3    H129135   0.213   5.981   7.850 -0.8416  0.0680 -5.4398
 2500TIP3    H229136   0.071   5.932   7.836 -0.7665 -1.7422 -1.3362
 2501TIP3   OH229137   1.281   2.150   6.203  0.0546  0.4531  0.2982
 2501TIP3    H129138   1.358   2.202   6.227  0.3743  0.1737 -0.1068
 2501TIP3    H229139   1.282   2.077   6.265 -2.0077  2.3607  2.7816
 2502TIP3   OH229140   5.337   3.015   1.884  0.1179 -0.4178  0.4767
 2502TIP3    H129141   5.272   3.008   1.814  1.1463 -1.4690 -0.4227
 2502TIP3    H229142   5.324   2.937   1.937  0.1756 -0.2566  0.7318
 2503TIP3   OH229143   6.697   2.642   0.967 -0.2510 -0.0218  0.0048
 2503TIP3    H129144   6.747   2.570   1.007  2.5626  1.6753 -0.2040
 2503TIP3    H229145   6.756   2.717   0.970 -1.6032  1.3638 -3.2216
 2504TIP3   OH229146   4.576   0.186   0.784 -0.5150  0.0385  0.0232
 2504TIP3    H129147   4.598   0.104   0.739  2.2659  0.3073  0.7167
 2504TIP3    H229148   4.643   0.248   0.754 -0.6319  1.1584  1.9374
 2505TIP3   OH229149   4.395   1.960   0.295  0.0497  0.0509 -0.3782
 2505TIP3    H129150   4.409   1.890   0.230 -2.7446 -1.2675  0.3130
 2505TIP3    H229151   4.302   1.955   0.316  0.5670  1.3372  2.7347
 2506TIP3   OH229152   4.788   2.060   8.110 -0.2500 -0.0475  0.1690
 2506TIP3    H129153   4.849   2.133   8.100 -0.5370  0.8085  3.4899
 2506TIP3    H229154   4.702   2.102   8.122 -0.4443 -0.8319  1.9126
 2507TIP3   OH229155   4.797   3.861   1.988  0.4208  0.3696 -0.0458
 2507TIP3    H129156   4.831   3.772   1.994 -0.5646 -0.2350 -2.4104
 2507TIP3    H229157   4.787   3.877   1.895  0.6483  3.0317  0.3031
 2508TIP3   OH229158   1.341   0.500   1.289  0.6313 -0.0475  0.6085
 2508TIP3    H129159   1.289   0.454   1.223  1.8298 -1.1360  0.3682
 2508TIP3    H229160   1.419   0.530   1.242  1.6600 -1.1166  1.5397
 2509TIP3   OH229161   6.088   4.220   7.616 -0.1498 -0.0231  0.3305
 2509TIP3    H129162   6.047   4.155   7.559 -0.8399  1.0809 -0.4730
 2509TIP3    H229163   6.107   4.294   7.558 -2.5725  1.9099  1.8023
 2510TIP3   OH229164   6.109   3.549   0.803 -0.1703  0.0112  0.3720
 2510TIP3    H129165   6.159   3.469   0.786 -1.0208 -0.4612  0.0090
 2510TIP3    H229166   6.051   3.526   0.876  1.0943  0.9887  1.7390
 2511TIP3   OH229167   5.962   6.174   0.381 -1.0896 -0.3775 -0.6288
 2511TIP3    H129168   5.967   6.201   0.473  1.5361 -0.8516 -0.5604
 2511TIP3    H229169   5.869   6.157   0.366 -1.6476  0.1693  1.7912
 2512TIP3   OH229170   1.564   5.569   0.510 -0.7960 -0.2118  0.7186
 2512TIP3    H129171   1.470   5.569   0.528 -1.4115  0.0943 -2.0211
 2512TIP3    H229172   1.578   5.647   0.457  1.0490 -0.2205  1.1411
 2513TIP3   OH229173   5.380   1.425   8.204 -0.1781 -0.1912 -0.0872
 2513TIP3    H129174   5.346   1.336   8.218  0.6539 -0.9256 -2.3780
 2513TIP3    H229175   5.312   1.470   8.155 -0.8108  0.6656  1.4855
 2514TIP3   OH229176   4.484   4.013   2.085  0.0709 -0.1310  0.1138
 2514TIP3    H129177   4.561   4.063   2.061  0.9879 -1.4238  0.2841
 2514TIP3    H229178   4.436   4.071   2.145 -0.2143  1.5208 -1.6256
 2515TIP3   OH229179   0.812   6.926   1.964  0.3776 -0.2585 -0.7282
 2515TIP3    H129180   0.744   6.864   1.991 -0.4694  1.3897  1.1807
 2515TIP3    H229181   0.892   6.892   2.004  0.2385 -0.9723 -1.0431
 2516TIP3   OH229182   2.579   6.042   7.396 -0.4222  0.6384 -0.1899
 2516TIP3    H129183   2.577   6.138   7.393 -3.2683  0.6294 -1.9355
 2516TIP3    H229184   2.501   6.015   7.348  1.9313 -2.6432 -2.6236
 2517TIP3   OH229185   3.328   5.652   0.639  0.0663  0.3184  0.4088
 2517TIP3    H129186   3.349   5.714   0.708 -0.8354  1.1726 -0.0624
 2517TIP3    H229187   3.413   5.624   0.604  0.4925  0.7389  1.0947
 2518TIP3   OH229188   1.813   2.639   1.122  0.6636 -0.3947 -0.1815
 2518TIP3    H129189   1.811   2.579   1.047 -1.9960  0.8622 -1.2465
 2518TIP3    H229190   1.722   2.642   1.152  1.3743  0.4600  2.0415
 2519TIP3   OH229191   0.670   1.541   0.265 -0.5759  0.2448  0.0909
 2519TIP3    H129192   0.623   1.603   0.321  0.6357  0.1442  1.2703
 2519TIP3    H229193   0.737   1.594   0.222 -0.2959 -0.0205  0.1964
 2520TIP3   OH229194   2.978   1.565   0.236 -0.2465  0.0735 -0.8677
 2520TIP3    H129195   3.043   1.632   0.257 -0.5153 -0.2429  1.2091
 2520TIP3    H229196   2.920   1.607   0.173  0.0307  1.5499 -0.1921
 2521TIP3   OH229197   6.359   3.371   0.296  0.0553  0.1977 -0.0322
 2521TIP3    H129198   6.412   3.297   0.327  0.8052  0.2703 -1.0709
 2521TIP3    H229199   6.373   3.372   0.201 -0.3076  1.3926 -0.0905
 2522TIP3   OH229200   3.836   2.355   0.310 -0.2101  0.0900 -0.3884
 2522TIP3    H129201   3.883   2.416   0.367  0.5716  0.3606 -1.2842
 2522TIP3    H229202   3.750   2.394   0.298 -0.1739  0.3314  0.1204
 2523TIP3   OH229203   2.473   5.905   1.947 -0.2086  0.0349  0.3363
 2523TIP3    H129204   2.486   5.830   2.005 -0.1491 -0.4393 -0.2831
 2523TIP3    H229205   2.381   5.899   1.920 -0.4218  0.6401  0.9104
 2524TIP3   OH229206   3.762   2.174   8.046  0.1255 -0.1305 -0.4369
 2524TIP3    H129207   3.713   2.203   7.969  1.0294  1.3314 -0.4947
 2524TIP3    H229208   3.698   2.177   8.117  0.3569  3.0688 -0.2333
 2525TIP3   OH229209   4.363   3.084   1.523 -0.3683 -0.3927  0.6992
 2525TIP3    H129210   4.457   3.067   1.521  0.1061  1.6749  2.0509
 2525TIP3    H229211   4.352   3.151   1.591 -2.6955  0.1794 -0.1405
 2526TIP3   OH229212   1.573   0.004   1.744 -0.2741  0.2247 -0.2870
 2526TIP3    H129213   1.584  -0.038   1.829 -1.4712  1.6670  0.6294
 2526TIP3    H229214   1.630  -0.046   1.685  1.5143 -0.1049  1.5917
 2527TIP3   OH229215   5.461   1.463   8.468 -0.0164  0.2202  0.2482
 2527TIP3    H129216   5.438   1.460   8.375 -0.5770 -0.6659  0.3956
 2527TIP3    H229217   5.432   1.378   8.502 -0.8894  0.9784  1.4676
 2528TIP3   OH229218   6.146   3.031   0.024  0.2182 -0.1879  0.3015
 2528TIP3    H129219   6.109   2.957  -0.025  2.0382 -0.6283 -0.4794
 2528TIP3    H229220   6.080   3.100   0.016 -1.0291 -1.3601  0.1158
 2529TIP3   OH229221   1.472   3.737   8.207 -0.0989 -0.1908 -0.0139
 2529TIP3    H129222   1.462   3.780   8.291 -0.4527 -1.3298  0.5533
 2529TIP3    H229223   1.557   3.693   8.213 -0.2855 -0.5727 -0.1001
 2530TIP3   OH229224   5.808   4.425   1.603 -0.5974  0.0122 -0.4401
 2530TIP3    H129225   5.799   4.340   1.560 -0.1348 -0.6166  0.6738
 2530TIP3    H229226   5.840   4.405   1.691  0.7192  1.4183 -0.5547
 2531TIP3   OH229227   1.415   6.627   1.403  0.3056  0.8961  0.1122
 2531TIP3    H129228   1.325   6.605   1.427  0.1766 -0.3462 -1.3917
 2531TIP3    H229229   1.407   6.709   1.353 -0.1270  0.3186 -0.7992
 2532TIP3   OH229230   5.994   3.177   1.288 -0.0678 -0.6397  0.3516
 2532TIP3    H129231   5.975   3.199   1.380 -0.8785  0.1621  0.0041
 2532TIP3    H229232   6.007   3.082   1.289 -1.7215 -0.8980  1.0426
 2533TIP3   OH229233   6.030   4.029   6.523  0.0921 -0.1388  0.1796
 2533TIP3    H129234   6.117   4.028   6.484 -0.1077 -0.7598 -0.2740
 2533TIP3    H229235   6.023   3.944   6.568  0.0102  0.2256  0.8776
 2534TIP3   OH229236   3.521   1.569   7.666  0.2600  0.1628  0.5333
 2534TIP3    H129237   3.470   1.539   7.590  0.0302  0.0032  0.7507
 2534TIP3    H229238   3.597   1.510   7.668  0.1731  0.0506  0.5359
 2535TIP3   OH229239   4.225   0.120   0.924 -0.1906  0.1302  0.7836
 2535TIP3    H129240   4.174   0.200   0.934 -0.3780  0.3240 -1.2435
 2535TIP3    H229241   4.316   0.147   0.937 -0.0057  1.2412 -2.1006
 2536TIP3   OH229242   2.589   1.762   6.335  0.3508  0.0579  0.3409
 2536TIP3    H129243   2.633   1.696   6.280 -0.7936 -0.7472  0.3718
 2536TIP3    H229244   2.660   1.803   6.384  1.0452 -1.4810  0.6746
 2537TIP3   OH229245   2.582   5.256   7.227  0.5814 -0.2032 -0.1029
 2537TIP3    H129246   2.515   5.241   7.160  0.9859 -0.9392 -0.3528
 2537TIP3    H229247   2.662   5.275   7.177  1.1089 -1.6875  0.1257
 2538TIP3   OH229248   3.886   0.568   1.434  0.3752 -0.7526  0.0838
 2538TIP3    H129249   3.868   0.661   1.426 -1.1236 -0.8692  1.4189
 2538TIP3    H229250   3.958   0.562   1.497  1.4774 -0.4691 -1.1196
 2539TIP3   OH229251   4.435   6.073   1.303 -0.1546  0.3982  0.7034
 2539TIP3    H129252   4.495   6.000   1.318 -2.1309 -1.4366  0.1777
 2539TIP3    H229253   4.474   6.122   1.230 -0.1456 -1.8150 -0.8746
 2540TIP3   OH229254   6.208   4.208   1.590  0.3278  0.0937  0.6298
 2540TIP3    H129255   6.140   4.254   1.638  0.4285 -1.0193  1.9065
 2540TIP3    H229256   6.168   4.124   1.566  0.9450 -0.1998  0.5870
 2541TIP3   OH229257   6.741   2.281   6.856  0.0612  0.2150  0.9202
 2541TIP3    H129258   6.788   2.337   6.918 -1.4965  1.9599  0.6212
 2541TIP3    H229259   6.702   2.341   6.794 -2.5154 -1.0773  1.1285
 2542TIP3   OH229260   4.126   1.571   7.874 -0.6986 -0.1343  0.3538
 2542TIP3    H129261   4.031   1.575   7.870 -0.6703 -0.1357 -0.5123
 2542TIP3    H229262   4.145   1.514   7.949 -1.3472  0.9631  1.3805
 2543TIP3   OH229263   5.823   4.665   6.077 -0.3107 -0.1946  0.0593
 2543TIP3    H129264   5.817   4.627   5.989 -1.8313  0.0867  0.0049
 2543TIP3    H229265   5.849   4.592   6.133  2.6530  0.0467 -0.8522
 2544TIP3   OH229266   6.048   4.728   0.627 -0.4553 -0.0059  0.3951
 2544TIP3    H129267   6.118   4.761   0.570 -0.5324 -1.3130 -0.5217
 2544TIP3    H229268   6.095   4.682   0.697 -0.3489 -1.2845 -0.4702
 2545TIP3   OH229269   4.022   4.754   7.037  0.0438 -0.4182  0.1468
 2545TIP3    H129270   3.991   4.732   6.949 -1.2554 -1.3312  0.7898
 2545TIP3    H229271   4.116   4.768   7.027 -0.1019 -0.3806 -1.4000
 2546TIP3   OH229272   5.403   5.187   1.753 -0.0225  0.4782  1.2446
 2546TIP3    H129273   5.315   5.222   1.737  0.3285  0.8040 -0.1123
 2546TIP3    H229274   5.436   5.238   1.827  0.3047  2.8213 -0.3929
 2547TIP3   OH229275   3.778   4.311   8.164 -0.3837  0.3044  0.1807
 2547TIP3    H129276   3.721   4.383   8.192  0.2794  0.4833  1.1301
 2547TIP3    H229277   3.720   4.250   8.118 -1.1439  0.9504  0.2700
 2548TIP3   OH229278   5.839   4.871   0.724 -0.4074 -0.3488 -0.1037
 2548TIP3    H129279   5.912   4.816   0.694  1.3070  1.8277 -0.1532
 2548TIP3    H229280   5.789   4.888   0.644  0.0140 -0.4527 -0.3959
 2549TIP3   OH229281   0.148   2.433   0.831  0.0620  0.2751  0.5370
 2549TIP3    H129282   0.067   2.395   0.796  0.7241 -0.6124 -0.0526
 2549TIP3    H229283   0.197   2.461   0.754 -0.3189  2.2131  0.9434
 2550TIP3   OH229284   1.151   6.429   8.220  0.6854  0.6333  0.1038
 2550TIP3    H129285   1.215   6.360   8.236 -0.2271 -0.5862 -1.1702
 2550TIP3    H229286   1.069   6.382   8.203  0.3555  1.9118 -2.3471
 2551TIP3   OH229287   5.932   6.246   0.911 -0.4077 -0.0084  0.3059
 2551TIP3    H129288   5.892   6.309   0.971  1.1772  0.3362  1.0368
 2551TIP3    H229289   6.002   6.295   0.868  0.6960 -1.1866  0.7079
 2552TIP3   OH229290   6.127   5.753   1.941  0.6667  0.4707  0.3619
 2552TIP3    H129291   6.223   5.757   1.949  0.5212  3.4764  2.5367
 2552TIP3    H229292   6.098   5.702   2.016  0.5307  1.0220  0.6921
 2553TIP3   OH229293   4.799   6.743   7.229  0.7354  0.0109 -0.0424
 2553TIP3    H129294   4.881   6.791   7.217 -0.8877  3.4453  1.4532
 2553TIP3    H229295   4.732   6.810   7.235 -2.2568 -2.6404 -0.9745
 2554TIP3   OH229296   1.371   1.731   7.704 -0.3777 -0.4959  0.8011
 2554TIP3    H129297   1.399   1.641   7.690  0.6550 -0.4267  2.1845
 2554TIP3    H229298   1.439   1.785   7.662 -1.8210 -0.2983 -1.4865
 2555TIP3   OH229299   2.796   2.086   6.154  0.5649  0.9925  0.3916
 2555TIP3    H129300   2.802   2.019   6.086 -2.1591  2.3015 -1.3251
 2555TIP3    H229301   2.882   2.128   6.153  1.2748 -0.3882 -0.7379
 2556TIP3   OH229302   2.682   1.352   0.062  0.7775  0.4341  0.2629
 2556TIP3    H129303   2.746   1.367  -0.007  1.6103 -0.6095  0.7760
 2556TIP3    H229304   2.735   1.333   0.140 -0.0505 -3.1028  0.1272
 2557TIP3   OH229305   4.026   4.614   7.279 -0.0432  0.1465  0.2615
 2557TIP3    H129306   4.007   4.676   7.209  1.1139  0.0985 -0.1209
 2557TIP3    H229307   3.991   4.530   7.248  0.5460  0.1077 -0.3141
 2558TIP3   OH229308   4.502   5.196   0.117  0.2344  0.0699  0.4003
 2558TIP3    H129309   4.581   5.143   0.104  0.5043  0.4410  0.5076
 2558TIP3    H229310   4.530   5.267   0.176 -0.2224  0.1030  0.5767
 2559TIP3   OH229311   5.828   1.798   0.356 -0.3587 -0.1335  0.0487
 2559TIP3    H129312   5.895   1.734   0.333 -0.3719  0.2472 -1.1275
 2559TIP3    H229313   5.823   1.856   0.279 -0.1890  1.4177  1.1642
 2560TIP3   OH229314   5.761   1.889   7.279  0.7254 -0.0050 -0.5062
 2560TIP3    H129315   5.752   1.806   7.231  1.2331 -1.3566  1.6058
 2560TIP3    H229316   5.706   1.878   7.357  2.1708  0.9126  0.6990
 2561TIP3   OH229317   4.289   4.781   6.981 -0.0963 -0.2256  0.4632
 2561TIP3    H129318   4.328   4.731   7.052  1.8284 -0.7706 -0.8909
 2561TIP3    H229319   4.314   4.733   6.902  2.0971  2.9344 -0.9488
 2562TIP3   OH229320   6.262   6.207   7.325  0.5109  0.0285 -0.0427
 2562TIP3    H129321   6.356   6.196   7.340  0.6376  1.6485  0.4709
 2562TIP3    H229322   6.256   6.271   7.254 -0.2024  0.3053  0.2576
 2563TIP3   OH229323   5.309   3.171   7.678 -0.3135  0.2479  0.5645
 2563TIP3    H129324   5.337   3.254   7.638 -0.3483  0.3213  0.6916
 2563TIP3    H229325   5.385   3.114   7.670  0.1905  0.7339  1.7343
 2564TIP3   OH229326   0.666   4.916   6.877 -0.0230 -0.0701 -0.5987
 2564TIP3    H129327   0.704   4.997   6.843  0.2342 -0.1376 -0.4713
 2564TIP3    H229328   0.687   4.850   6.811 -0.5490  0.0345 -0.8838
 2565TIP3   OH229329   3.500   1.714   7.055  0.2889  0.2864 -0.0981
 2565TIP3    H129330   3.525   1.711   7.147  2.4786 -0.1504 -0.6287
 2565TIP3    H229331   3.405   1.700   7.055  0.1596  0.7894  2.0918
 2566TIP3   OH229332   3.882   3.041   8.164  0.0392  0.2903  0.0203
 2566TIP3    H129333   3.789   3.060   8.176 -0.5578 -2.3080  0.0293
 2566TIP3    H229334   3.924   3.067   8.246 -0.8598  0.4317  0.4364
 2567TIP3   OH229335   0.498   6.832   8.071 -0.0861  0.0822  0.0669
 2567TIP3    H129336   0.427   6.896   8.059  2.0633  2.8856  1.1035
 2567TIP3    H229337   0.514   6.798   7.983 -1.8859  0.2598 -0.3843
 2568TIP3   OH229338   4.438   2.038   2.395  0.3391  0.1726  0.4992
 2568TIP3    H129339   4.529   2.034   2.423  0.4711  0.3825  0.1009
 2568TIP3    H229340   4.409   1.946   2.395  0.2115  0.2059  1.7162
 2569TIP3   OH229341   4.828   2.544   8.322 -0.2091  0.3789 -0.6346
 2569TIP3    H129342   4.878   2.617   8.283 -0.5816  0.1195 -1.6394
 2569TIP3    H229343   4.871   2.466   8.288  1.5163  0.0170  2.0827
 2570TIP3   OH229344   6.421   3.738   0.203  0.1313  0.5510 -0.1320
 2570TIP3    H129345   6.483   3.740   0.276  2.5706 -1.3912 -1.9611
 2570TIP3    H229346   6.345   3.692   0.238  0.0117  2.1725  1.9367
 2571TIP3   OH229347   6.054   5.902   0.441 -0.1026 -0.0874  0.6067
 2571TIP3    H129348   6.005   5.973   0.398  0.4241  0.2655  0.5840
 2571TIP3    H229349   6.090   5.851   0.368  0.1895  0.0893  0.6286
 2572TIP3   OH229350   3.417   1.378   6.777 -0.4788  0.1587 -0.1673
 2572TIP3    H129351   3.350   1.431   6.821  0.2092 -0.0934  1.2389
 2572TIP3    H229352   3.423   1.298   6.830 -1.3367 -1.2614 -2.1200
 2573TIP3   OH229353   2.322   6.329   7.899  0.4110  0.2249  0.2646
 2573TIP3    H129354   2.344   6.244   7.861  0.6074  0.3312  0.1415
 2573TIP3    H229355   2.392   6.387   7.871 -1.1839  1.1496 -2.0849
 2574TIP3   OH229356   4.245   3.553   6.942  0.2397 -0.1933  0.4403
 2574TIP3    H129357   4.198   3.473   6.917 -1.1966  0.4456  0.9937
 2574TIP3    H229358   4.272   3.537   7.033  2.7865 -1.2877 -0.4108
 2575TIP3   OH229359   2.623   5.315   0.948  0.0045  0.1698 -0.5220
 2575TIP3    H129360   2.706   5.273   0.927 -0.6594  0.1258 -3.3712
 2575TIP3    H229361   2.563   5.242   0.966 -0.0740  0.0856 -1.1241
 2576TIP3   OH229362   2.873   2.530   1.881 -0.4584 -0.2064  0.6198
 2576TIP3    H129363   2.920   2.498   1.804 -1.5731  1.0354 -0.6453
 2576TIP3    H229364   2.916   2.613   1.903 -1.3480  0.4178  0.0897
 2577TIP3   OH229365   3.586   3.519   8.004 -0.5907 -0.1380  0.0240
 2577TIP3    H129366   3.539   3.540   8.085 -1.1678 -0.4140 -0.2351
 2577TIP3    H229367   3.537   3.446   7.966 -0.8314  0.5422 -1.0152
 2578TIP3   OH229368   1.086   3.379   1.074 -0.1350 -0.0057 -0.4731
 2578TIP3    H129369   1.110   3.447   1.137 -0.9469 -1.0422  1.0336
 2578TIP3    H229370   0.996   3.355   1.098 -0.0089 -1.3243 -1.2100
 2579TIP3   OH229371   6.636   2.211   7.121 -0.0824 -0.3237  0.3506
 2579TIP3    H129372   6.571   2.282   7.119  1.0476  0.7479  0.7237
 2579TIP3    H229373   6.663   2.201   7.030  4.2003  4.0528  0.7186
 2580TIP3   OH229374   2.144   4.787   8.223 -0.0061  0.1789 -0.4197
 2580TIP3    H129375   2.075   4.823   8.167 -1.1690  2.4740  2.2458
 2580TIP3    H229376   2.101   4.718   8.272  0.9526 -1.6749 -2.0510
 2581TIP3   OH229377   0.014   5.491   7.268  0.2617 -0.1047 -0.2583
 2581TIP3    H129378  -0.014   5.554   7.202  1.3559 -1.0506 -1.6655
 2581TIP3    H229379   0.108   5.481   7.255  0.3577 -0.9761  0.8655
 2582TIP3   OH229380   0.354   6.030   0.908 -0.5678  0.1030 -0.2092
 2582TIP3    H129381   0.420   6.033   0.977 -1.5959 -0.0457  0.8150
 2582TIP3    H229382   0.305   6.112   0.917  0.3601  0.8899 -1.8960
 2583TIP3   OH229383   6.527   2.116   8.197  0.3459 -0.0963  0.1877
 2583TIP3    H129384   6.596   2.166   8.240  0.3550 -0.0857  0.1610
 2583TIP3    H229385   6.458   2.108   8.263  0.7274 -0.8535  0.5082
 2584TIP3   OH229386   6.328   3.452   6.766 -0.3242  0.4534  0.6381
 2584TIP3    H129387   6.331   3.408   6.681 -0.1463 -0.0335  0.8953
 2584TIP3    H229388   6.374   3.535   6.752 -2.6589  1.6859 -0.4930
 2585TIP3   OH229389   1.444   1.675   7.132  0.0275 -0.5928 -0.2149
 2585TIP3    H129390   1.478   1.615   7.065 -0.8406 -0.4632 -0.7971
 2585TIP3    H229391   1.361   1.705   7.096 -0.0752  0.1003  0.5808
 2586TIP3   OH229392   4.877   3.446   7.648  0.4851 -0.2369 -0.3502
 2586TIP3    H129393   4.837   3.452   7.735 -0.0540 -0.3250 -0.5855
 2586TIP3    H229394   4.971   3.446   7.664  0.4885  2.3456  0.1104
 2587TIP3   OH229395   4.795   2.029   8.415  0.2181  0.1396  0.3363
 2587TIP3    H129396   4.761   2.025   8.325  1.5032  0.3234 -0.1878
 2587TIP3    H229397   4.744   2.098   8.457 -1.2686 -0.8083  0.1527
 2588TIP3   OH229398   0.668   2.311   1.032 -0.2112 -0.0958  0.3205
 2588TIP3    H129399   0.575   2.333   1.023 -0.1858  0.0121  0.3214
 2588TIP3    H229400   0.677   2.227   0.988  0.1452  0.9516 -1.7587
 2589TIP3   OH229401   1.793   5.181   6.306  0.0236  0.0569  1.1598
 2589TIP3    H129402   1.724   5.174   6.240 -1.4936  0.3051  2.6561
 2589TIP3    H229403   1.808   5.090   6.334 -0.5938  0.1175  1.7042
 2590TIP3   OH229404   6.023   3.303   1.777 -0.4294  0.8032 -0.4727
 2590TIP3    H129405   6.067   3.376   1.820  0.3207  0.5274 -0.7577
 2590TIP3    H229406   5.929   3.322   1.787 -0.3048  0.5739  1.5962
 2591TIP3   OH229407   3.481   5.335   7.643 -0.5478 -0.3485  0.3703
 2591TIP3    H129408   3.413   5.395   7.614 -0.3011 -0.3873 -0.3180
 2591TIP3    H229409   3.434   5.255   7.667 -0.7300 -0.4756 -0.3726
 2592TIP3   OH229410   3.637   6.649   7.734 -0.7067  0.1825 -0.7314
 2592TIP3    H129411   3.703   6.678   7.797 -0.5093 -1.0178 -0.3458
 2592TIP3    H229412   3.686   6.631   7.654 -0.5002 -0.9826 -0.3584
 2593TIP3   OH229413   6.237   6.046   0.837 -0.0872 -0.1473 -0.1834
 2593TIP3    H129414   6.215   5.957   0.809  0.6695 -0.2991 -0.3181
 2593TIP3    H229415   6.319   6.066   0.791 -0.0611  0.4833  0.1265
 2594TIP3   OH229416   4.342   5.899   1.497  0.0504 -0.6591  0.2102
 2594TIP3    H129417   4.271   5.853   1.543  0.9263 -2.7197 -0.3878
 2594TIP3    H229418   4.375   5.835   1.434  2.4481  0.2203  0.4835
 2595TIP3   OH229419   4.761   5.872   0.754  0.1286 -0.5283  0.1558
 2595TIP3    H129420   4.752   5.939   0.822  0.2840 -0.2770 -0.0651
 2595TIP3    H229421   4.762   5.789   0.801  0.8578 -0.3253  0.5098
 2596TIP3   OH229422   4.633   2.694   0.641 -0.2418  0.3635 -0.9143
 2596TIP3    H129423   4.724   2.721   0.657 -0.4060  0.6673 -0.4759
 2596TIP3    H229424   4.640   2.619   0.582  0.4066 -0.9556  0.7834
 2597TIP3   OH229425   4.734   3.001   8.116 -0.4443 -0.2054 -0.2945
 2597TIP3    H129426   4.696   3.063   8.179 -0.3766 -2.0698  1.6879
 2597TIP3    H229427   4.808   2.963   8.161  0.2801 -0.8591 -1.9458
 2598TIP3   OH229428   3.797   5.390   8.078  0.0707  0.0091 -0.0272
 2598TIP3    H129429   3.770   5.386   7.986  0.5768  0.0643 -0.1774
 2598TIP3    H229430   3.818   5.482   8.093  0.7463 -0.1394 -0.0691
 2599TIP3   OH229431   4.228   3.024   0.458 -0.3861 -0.0254 -0.0141
 2599TIP3    H129432   4.311   2.978   0.470  0.2868  0.8259 -1.1338
 2599TIP3    H229433   4.226   3.044   0.364 -1.8913 -0.0692 -0.0144
 2600TIP3   OH229434   1.680   3.577   8.280  0.2143 -0.0772 -0.4807
 2600TIP3    H129435   1.628   3.572   8.360 -1.8139 -0.2808 -1.7227
 2600TIP3    H229436   1.692   3.485   8.254  2.0121 -0.0785  0.2416
 2601TIP3   OH229437   0.738   1.694   0.931 -0.2053  0.4303 -0.1825
 2601TIP3    H129438   0.798   1.755   0.886 -1.5498  0.6239 -1.8294
 2601TIP3    H229439   0.787   1.612   0.935  0.5453  0.8364 -0.6218
 2602TIP3   OH229440   6.604   6.915   6.748 -0.2001 -0.3194  0.1777
 2602TIP3    H129441   6.665   6.912   6.674  0.5380 -2.1222  0.8117
 2602TIP3    H229442   6.603   6.826   6.782 -1.1778  0.2779  1.8309
 2603TIP3   OH229443   0.004   0.904   1.732 -0.1093 -0.0942 -0.3640
 2603TIP3    H129444   0.069   0.854   1.782  1.0108  2.3798  0.8257
 2603TIP3    H229445  -0.061   0.930   1.797  0.7690  2.2025 -0.3057
 2604TIP3   OH229446   2.574   4.858   6.392 -0.1310  0.3620 -0.5319
 2604TIP3    H129447   2.603   4.770   6.416 -1.6931 -0.7445 -2.4707
 2604TIP3    H229448   2.585   4.863   6.297  3.2197  3.5867 -0.2218
 2605TIP3   OH229449   2.509   2.204   7.567 -0.4712 -0.2206  0.1568
 2605TIP3    H129450   2.419   2.230   7.583 -0.6802 -0.7522 -0.1178
 2605TIP3    H229451   2.503   2.114   7.535  0.1062 -0.0155 -0.5533
 2606TIP3   OH229452   4.205   1.052   7.476 -0.2941 -0.0297  0.0968
 2606TIP3    H129453   4.290   1.093   7.484 -0.1311 -0.5924  1.6149
 2606TIP3    H229454   4.198   0.995   7.553 -1.5777 -0.8387 -0.5695
 2607TIP3   OH229455   0.732   3.278   7.605 -0.0985  0.4061 -0.1447
 2607TIP3    H129456   0.682   3.320   7.674  1.0064  2.2241 -0.3820
 2607TIP3    H229457   0.799   3.227   7.651 -1.0564 -0.6344  0.1345
 2608TIP3   OH229458   0.682   3.650   0.739 -0.8457 -0.4144 -0.0748
 2608TIP3    H129459   0.723   3.735   0.752  0.5588 -0.8038 -1.4981
 2608TIP3    H229460   0.596   3.657   0.780 -1.5534  2.3212 -1.7755
 2609TIP3   OH229461   3.927   4.602   7.926 -0.1332  1.0719  0.7266
 2609TIP3    H129462   3.991   4.542   7.963  0.1888  0.4821 -0.6941
 2609TIP3    H229463   3.856   4.606   7.990 -0.5183 -1.4287  0.5371
 2610TIP3   OH229464   1.194   6.502   2.219 -0.3756 -0.4608 -0.9926
 2610TIP3    H129465   1.151   6.497   2.305 -0.5432 -0.7109 -1.0929
 2610TIP3    H229466   1.182   6.593   2.192  1.9640  0.3959  0.4486
 2611TIP3   OH229467   3.051   0.866   0.766  0.5152  0.2533  0.1883
 2611TIP3    H129468   3.053   0.812   0.845 -0.7591 -1.5900 -0.9735
 2611TIP3    H229469   3.128   0.837   0.715 -0.2097 -0.5738 -0.4686
 2612TIP3   OH229470   6.751   3.646   1.845 -0.1450  0.3823  0.2422
 2612TIP3    H129471   6.705   3.585   1.902  1.1017 -0.2135  0.6523
 2612TIP3    H229472   6.691   3.660   1.771 -0.3303 -1.6235 -0.0466
 2613TIP3   OH229473   3.480   2.439   1.973 -0.4317 -0.3202 -0.3692
 2613TIP3    H129474   3.523   2.493   1.907 -0.5207 -0.8864 -0.9096
 2613TIP3    H229475   3.395   2.417   1.934 -0.5627 -0.5080  0.0144
 2614TIP3   OH229476   2.561   5.449   0.700  0.1660  0.5018 -0.4919
 2614TIP3    H129477   2.600   5.407   0.777  0.5563  0.3356 -0.7752
 2614TIP3    H229478   2.572   5.384   0.630  1.5598  1.4004 -1.1542
 2615TIP3   OH229479   1.299   0.218   8.170  0.0845 -0.0918 -0.2687
 2615TIP3    H129480   1.310   0.130   8.206  0.1061 -1.5955 -3.6215
 2615TIP3    H229481   1.386   0.258   8.178 -0.2763  0.3109  2.6550
 2616TIP3   OH229482   2.587   4.925   1.005  0.5518  0.0983 -0.3341
 2616TIP3    H129483   2.593   4.960   0.916  0.4488  1.9112  0.3106
 2616TIP3    H229484   2.663   4.963   1.050  0.7664 -1.0262  0.2831
 2617TIP3   OH229485   5.455   1.138   1.206  0.2249 -0.6312 -0.3789
 2617TIP3    H129486   5.548   1.118   1.205 -0.1020 -2.3717  0.9756
 2617TIP3    H229487   5.415   1.067   1.256 -2.0626 -0.8928 -2.4059
 2618TIP3   OH229488   4.869   5.214   0.327 -0.3287 -0.4564  0.1546
 2618TIP3    H129489   4.866   5.212   0.423  0.6040  0.6782  0.2372
 2618TIP3    H229490   4.946   5.163   0.305 -1.5294 -2.2337 -0.1223
 2619TIP3   OH229491   6.469   1.312   7.606  0.7322  0.0606 -0.2012
 2619TIP3    H129492   6.473   1.232   7.658  0.5319  0.9502  1.2386
 2619TIP3    H229493   6.547   1.309   7.551  0.6227 -1.2055 -0.3057
 2620TIP3   OH229494   5.416   5.617   6.729  0.2947 -0.6620  0.3604
 2620TIP3    H129495   5.488   5.612   6.791  1.2484  1.3118 -0.4768
 2620TIP3    H229496   5.354   5.679   6.768  1.0857  0.9055 -0.7131
 2621TIP3   OH229497   0.553   3.277   0.108  0.4549  0.5930  0.0211
 2621TIP3    H129498   0.557   3.332   0.186 -2.5990 -2.2138  2.4493
 2621TIP3    H229499   0.477   3.308   0.060  0.2029  0.0839  0.0836
 2622TIP3   OH229500   1.585   4.719   0.412  0.6384  0.0994 -0.1695
 2622TIP3    H129501   1.529   4.796   0.428  0.2200  0.0182 -1.1744
 2622TIP3    H229502   1.671   4.756   0.392  0.2747  0.3683 -1.3523
 2623TIP3   OH229503   1.453   0.361   7.541 -0.2559 -0.0678 -0.5868
 2623TIP3    H129504   1.365   0.399   7.531  0.1534  0.9284 -0.5009
 2623TIP3    H229505   1.489   0.360   7.452 -0.4912 -0.8206 -0.6752
 2624TIP3   OH229506   4.002   5.213   1.701 -0.0791 -0.0115 -0.6698
 2624TIP3    H129507   3.952   5.208   1.783  0.2706 -1.7729 -0.5117
 2624TIP3    H229508   4.093   5.201   1.728  0.3150  1.6988 -1.1126
 2625TIP3   OH229509   0.288   5.943   6.351 -0.4180  0.4610  0.4305
 2625TIP3    H129510   0.295   6.013   6.287  0.8650 -1.7155 -2.0080
 2625TIP3    H229511   0.378   5.912   6.363 -0.6718  0.5388  3.0844
 2626TIP3   OH229512   6.789   6.433   0.885  0.2935 -1.1777  0.7657
 2626TIP3    H129513   6.710   6.432   0.940  0.6105 -0.9134  1.2337
 2626TIP3    H229514   6.775   6.505   0.824  1.3677  0.7459  2.6518
 2627TIP3   OH229515   5.917   2.076   6.453  0.1789 -0.1473 -0.0813
 2627TIP3    H129516   5.934   2.027   6.533 -1.6432 -4.0107 -1.8130
 2627TIP3    H229517   5.824   2.098   6.457  0.6868  2.3159  0.0710
 2628TIP3   OH229518   6.612   2.431   0.471  0.7082  0.4491 -0.3859
 2628TIP3    H129519   6.590   2.371   0.542  0.1072 -0.1361 -1.0648
 2628TIP3    H229520   6.636   2.375   0.398 -2.6646  0.8646 -1.9981
 2629TIP3   OH229521   4.877   6.726   1.196 -0.2837  0.8492 -0.2819
 2629TIP3    H129522   4.857   6.672   1.273  1.0009 -0.6308 -0.9035
 2629TIP3    H229523   4.964   6.763   1.216 -0.7309  1.9221 -0.2838
 2630TIP3   OH229524   1.499   0.431   0.316  0.2755  0.2569 -0.1677
 2630TIP3    H129525   1.556   0.499   0.280  1.9637 -1.2321 -0.4049
 2630TIP3    H229526   1.507   0.439   0.411  1.9858 -0.7865 -0.1924
 2631TIP3   OH229527   5.274   0.785   6.768  0.0456  0.0391 -0.2713
 2631TIP3    H129528   5.183   0.816   6.761  0.4895  1.1841 -1.3017
 2631TIP3    H229529   5.286   0.730   6.691  0.3038  0.1300 -0.2957
 2632TIP3   OH229530   6.284   4.423   0.556  0.6652  0.2389 -0.1040
 2632TIP3    H129531   6.311   4.514   0.558  1.2178  0.0867 -0.3788
 2632TIP3    H229532   6.308   4.392   0.468  0.4360 -0.1561 -0.0339
 2633TIP3   OH229533   1.662   4.068   1.201 -0.0757  0.0175 -0.5302
 2633TIP3    H129534   1.588   4.115   1.240  0.2656  0.3957 -0.3269
 2633TIP3    H229535   1.647   4.075   1.107 -1.5394 -1.9259 -0.4915
 2634TIP3   OH229536   1.097   6.804   7.783  0.2806 -0.1908  0.1271
 2634TIP3    H129537   1.024   6.743   7.796  0.1997  0.1709  1.5265
 2634TIP3    H229538   1.168   6.749   7.749 -0.9307 -0.3570 -2.4148
 2635TIP3   OH229539   2.304   4.062   1.052 -0.0876  0.1371 -0.3696
 2635TIP3    H129540   2.325   4.065   1.145 -0.5460 -1.5012 -0.1927
 2635TIP3    H229541   2.217   4.102   1.046  0.0828  0.5444 -0.1474
 2636TIP3   OH229542   3.034   5.332   2.191 -0.1940  0.4207 -0.7477
 2636TIP3    H129543   3.018   5.420   2.225 -2.5626 -0.0269 -0.5490
 2636TIP3    H229544   2.989   5.274   2.252  0.7243 -0.8907 -1.2725
 2637TIP3   OH229545   5.895   3.880   1.159  0.5582 -0.5145  0.3168
 2637TIP3    H129546   5.846   3.961   1.169 -0.0812 -0.7899 -0.5214
 2637TIP3    H229547   5.987   3.907   1.161  0.3657  0.4448 -1.4702
 2638TIP3   OH229548   0.990   6.683   8.342  0.3019  0.7913  0.2176
 2638TIP3    H129549   0.901   6.664   8.371  0.0403 -1.9837 -2.0094
 2638TIP3    H229550   1.038   6.701   8.423 -1.1282 -3.0129  2.1571
 2639TIP3   OH229551   1.692   4.062   6.795  0.3091  0.0513 -0.1920
 2639TIP3    H129552   1.675   4.010   6.716  0.0662  0.7894 -0.6365
 2639TIP3    H229553   1.618   4.043   6.852 -0.0377  0.2955 -0.5578
 2640TIP3   OH229554   0.574   5.593   1.933 -0.3153 -0.0091 -0.3663
 2640TIP3    H129555   0.591   5.552   2.018  1.2578 -0.3549 -0.8105
 2640TIP3    H229556   0.630   5.671   1.932  0.3202 -0.4513 -1.3821
 2641TIP3   OH229557   3.246   4.843   1.165 -0.0838 -0.1887  0.2762
 2641TIP3    H129558   3.328   4.881   1.135 -1.7520  3.2098 -0.4036
 2641TIP3    H229559   3.206   4.911   1.219 -2.8395 -1.3509 -0.1301
 2642TIP3   OH229560   0.072   2.866   6.753 -0.5109 -0.2123 -0.4474
 2642TIP3    H129561   0.022   2.900   6.679  0.2339  0.0626 -0.8407
 2642TIP3    H229562   0.151   2.921   6.755 -0.6239 -0.0643  0.6932
 2643TIP3   OH229563   3.799   1.972   6.039 -0.2436  0.1078 -0.8128
 2643TIP3    H129564   3.891   1.993   6.026 -0.0346  0.4150  0.9169
 2643TIP3    H229565   3.788   1.885   6.000  0.6543  0.2550 -1.4188
 2644TIP3   OH229566   3.315   2.800   8.495 -0.0242  0.3125  0.3467
 2644TIP3    H129567   3.366   2.724   8.469 -0.6467  0.0039 -0.0030
 2644TIP3    H229568   3.364   2.838   8.568  0.6230 -0.0500  0.1057
 2645TIP3   OH229569   4.485   0.146   1.318 -0.0066 -0.0526  0.3465
 2645TIP3    H129570   4.471   0.165   1.226  0.4401 -0.0379  0.2777
 2645TIP3    H229571   4.430   0.070   1.336  2.0192 -1.8572 -0.6483
 2646TIP3   OH229572   2.734   6.691   8.558  0.2691  0.3924 -0.2380
 2646TIP3    H129573   2.643   6.718   8.563  0.1562  0.3518 -1.5587
 2646TIP3    H229574   2.737   6.604   8.597 -0.1341  0.6487  0.3677
 2647TIP3   OH229575   4.992   6.456   7.548  0.5128 -0.4836  0.0153
 2647TIP3    H129576   5.040   6.504   7.481 -1.5391 -0.9097 -1.8981
 2647TIP3    H229577   5.057   6.438   7.616  3.2200 -1.6094 -2.6421
 2648TIP3   OH229578   3.855   1.098   0.618 -0.2480  0.5111 -0.6421
 2648TIP3    H129579   3.846   1.172   0.678  1.9358  0.0009  0.4013
 2648TIP3    H229580   3.916   1.129   0.551  0.6011 -0.2737 -0.2525
 2649TIP3   OH229581   4.464   6.786   0.926  0.0099  0.2905  0.2350
 2649TIP3    H129582   4.483   6.708   0.977 -0.1872 -0.2437 -0.4797
 2649TIP3    H229583   4.531   6.849   0.951  0.3609 -0.2205  0.5894
 2650TIP3   OH229584   5.070   6.735   1.755 -0.9291 -0.7721  0.6763
 2650TIP3    H129585   5.008   6.804   1.782 -1.6683 -1.1130 -0.1016
 2650TIP3    H229586   5.136   6.735   1.824 -0.1243  1.6664  0.0266
 2651TIP3   OH229587   5.548   1.523   0.748  0.4052 -0.1640 -0.3730
 2651TIP3    H129588   5.523   1.523   0.840  1.3362  0.1139 -0.1090
 2651TIP3    H229589   5.489   1.585   0.706 -0.1672 -0.4558 -0.0146
 2652TIP3   OH229590   1.288   1.251   6.662 -0.2722  0.6334 -0.3147
 2652TIP3    H129591   1.355   1.195   6.623 -3.4064 -1.0939 -3.9191
 2652TIP3    H229592   1.318   1.340   6.644  1.3950 -0.0511 -1.1462
 2653TIP3   OH229593   2.074   5.100   0.666 -0.5870  0.2160  0.3498
 2653TIP3    H129594   2.056   5.149   0.747 -0.3169  2.2832 -0.7676
 2653TIP3    H229595   2.144   5.149   0.624 -2.8841  1.1900 -2.7008
 2654TIP3   OH229596   2.393   4.152   7.362 -0.4970  0.2769 -0.0796
 2654TIP3    H129597   2.461   4.183   7.422  0.4575  1.6112 -1.7639
 2654TIP3    H229598   2.341   4.230   7.342 -1.5112 -0.3891 -0.1069
 2655TIP3   OH229599   2.056   1.532   6.752  0.2964 -0.3632  0.7869
 2655TIP3    H129600   2.029   1.624   6.759 -0.7115 -0.6362  0.7389
 2655TIP3    H229601   1.973   1.484   6.743  0.6721 -1.4673  2.7030
 2656TIP3   OH229602   3.160   4.366   1.448  0.5662  0.4357  0.1623
 2656TIP3    H129603   3.142   4.451   1.487 -0.8598 -0.2433  1.0631
 2656TIP3    H229604   3.127   4.302   1.511  0.6318 -0.7752 -0.9653
 2657TIP3   OH229605   3.362   1.067   1.687  0.2706 -0.2296 -0.3172
 2657TIP3    H129606   3.278   1.113   1.685  0.4623  0.0958 -1.0888
 2657TIP3    H229607   3.343   0.984   1.730 -0.8901 -1.0174 -2.2198
 2658TIP3   OH229608   3.718   4.875   7.442  0.3100  0.1402 -0.2788
 2658TIP3    H129609   3.652   4.806   7.457  0.3465  0.1556 -0.0410
 2658TIP3    H229610   3.802   4.830   7.453  0.3330  0.4089  0.7671
 2659TIP3   OH229611   6.770   4.736   8.435  1.1628  0.4393  0.0111
 2659TIP3    H129612   6.721   4.696   8.506  2.7752  0.4189  1.1603
 2659TIP3    H229613   6.724   4.709   8.356 -0.0306 -0.4600  0.9799
 2660TIP3   OH229614   6.960   6.145   6.731 -0.5377 -0.0446 -0.1301
 2660TIP3    H129615   6.940   6.209   6.663  0.8394  0.4544 -0.0968
 2660TIP3    H229616   7.023   6.086   6.690 -1.7270 -1.3765 -0.1385
 2661TIP3   OH229617   5.080   4.103   0.484  0.3001  0.5698 -0.0791
 2661TIP3    H129618   5.116   4.096   0.396 -0.2865  0.2298 -0.2965
 2661TIP3    H229619   4.994   4.144   0.471 -0.4550 -0.8766  0.1547
 2662TIP3   OH229620   1.960   6.398   1.272 -0.4472  0.3563 -0.2192
 2662TIP3    H129621   1.928   6.311   1.295 -1.6867  0.3597 -1.8174
 2662TIP3    H229622   1.908   6.457   1.326  0.2353  0.1582  0.6950
 2663TIP3   OH229623   2.434   6.078   1.109 -0.7136 -0.0460  0.1011
 2663TIP3    H129624   2.380   6.155   1.127  0.4328  0.6859  0.5703
 2663TIP3    H229625   2.385   6.005   1.147 -1.8208  0.4397 -0.3473
 2664TIP3   OH229626   1.465   6.423   8.044  0.5396 -0.0831  0.2056
 2664TIP3    H129627   1.475   6.511   8.080  1.6059  0.8168 -2.1001
 2664TIP3    H229628   1.524   6.369   8.097  0.2036  0.6346  1.3691
 2665TIP3   OH229629   1.368   2.359   0.823  0.0332  0.4025  0.2500
 2665TIP3    H129630   1.319   2.307   0.759  0.8320  1.5974 -1.4186
 2665TIP3    H229631   1.305   2.378   0.892 -1.1817 -0.0801 -0.6836
 2666TIP3   OH229632   1.446   6.662   0.430 -0.2882 -0.0714  0.2936
 2666TIP3    H129633   1.451   6.703   0.516  0.2245 -0.0415  0.2495
 2666TIP3    H229634   1.532   6.676   0.391 -1.1878  1.9785 -1.1590
 2667TIP3   OH229635   5.579   1.222   8.083  0.0190  0.3769 -0.1199
 2667TIP3    H129636   5.541   1.143   8.120 -0.4817  1.6686  2.3260
 2667TIP3    H229637   5.536   1.294   8.129  0.5879  2.1075 -2.1095
 2668TIP3   OH229638   3.055   1.813   2.347 -0.2426  0.3597  0.0117
 2668TIP3    H129639   3.082   1.883   2.407 -1.6959 -0.0329  1.1646
 2668TIP3    H229640   3.131   1.754   2.345  0.2061  0.8919  0.6663
 2669TIP3   OH229641   3.602   0.072   1.044  0.1532 -0.6500 -0.2574
 2669TIP3    H129642   3.550   0.104   1.117  0.5785 -0.6536  0.0552
 2669TIP3    H229643   3.627   0.150   0.996  0.7982 -0.5386  0.2386
 2670TIP3   OH229644   1.990   5.798   6.654  0.6519 -0.2145 -0.2780
 2670TIP3    H129645   2.035   5.792   6.570 -0.7599  0.8101 -1.1543
 2670TIP3    H229646   1.936   5.720   6.658  0.8277 -0.3350 -0.2566
 2671TIP3   OH229647   2.922   1.531   7.941  0.6887 -0.4236 -0.0798
 2671TIP3    H129648   2.848   1.573   7.987  1.5835  1.0822  0.0343
 2671TIP3    H229649   2.880   1.465   7.886 -0.9094  1.2135 -0.9692
 2672TIP3   OH229650   0.073   2.329   6.358  0.1357  0.0009  0.2919
 2672TIP3    H129651  -0.018   2.358   6.354 -0.6684 -2.3831 -3.4482
 2672TIP3    H229652   0.125   2.408   6.347 -1.5107  1.1963  0.7780
 2673TIP3   OH229653   3.468   5.436   0.208  0.1081  0.2452  0.2141
 2673TIP3    H129654   3.537   5.436   0.274  0.7828  0.0109 -0.4871
 2673TIP3    H229655   3.504   5.386   0.135 -0.7059  0.3366 -0.2640
 2674TIP3   OH229656   1.721   4.279   7.988  0.3242  0.2059 -0.4398
 2674TIP3    H129657   1.759   4.316   7.907 -0.2315  0.3121 -0.6591
 2674TIP3    H229658   1.763   4.328   8.058  2.0702 -1.0226 -0.5631
 2675TIP3   OH229659   4.012   5.595   7.146  0.3990 -0.4304 -0.0656
 2675TIP3    H129660   4.080   5.596   7.079  0.6819 -1.2385  0.1985
 2675TIP3    H229661   4.014   5.506   7.181 -0.6374 -0.4018  0.1066
 2676TIP3   OH229662   4.037   1.791   7.147  0.4538 -0.5448 -0.2782
 2676TIP3    H129663   4.117   1.740   7.157  1.2909  0.4240 -1.7423
 2676TIP3    H229664   3.966   1.728   7.164  1.4588 -1.9550 -1.1001
 2677TIP3   OH229665   2.491   5.058   6.565  0.6179  0.2724  0.2162
 2677TIP3    H129666   2.417   5.012   6.605  0.0144  0.6613 -0.4362
 2677TIP3    H229667   2.527   4.995   6.502 -0.6216  0.8879 -1.1641
 2678TIP3   OH229668   6.553   6.450   7.913  0.1581  0.1194  0.4134
 2678TIP3    H129669   6.610   6.462   7.837 -0.6861  1.0832 -0.0938
 2678TIP3    H229670   6.614   6.432   7.985  1.0286  0.0529 -0.3177
 2679TIP3   OH229671   4.776   6.273   7.806 -0.0143 -0.4245 -0.3156
 2679TIP3    H129672   4.870   6.278   7.789 -0.0659  0.3980 -0.3831
 2679TIP3    H229673   4.766   6.193   7.858  1.0768  0.7996  1.9337
 2680TIP3   OH229674   0.200   4.329   8.436  0.1618 -0.0884  0.7671
 2680TIP3    H129675   0.143   4.395   8.474  0.2019  0.1957  0.3302
 2680TIP3    H229676   0.141   4.257   8.414 -0.0134  0.1687  0.3978
 2681TIP3   OH229677   6.544   0.567   8.491 -0.5685 -0.2237  0.5024
 2681TIP3    H129678   6.469   0.533   8.443 -0.2087  0.0501 -0.2597
 2681TIP3    H229679   6.595   0.489   8.513 -1.7068 -0.5556  2.1635
 2682TIP3   OH229680   5.411   5.071   7.148  0.2137  0.1761 -0.7286
 2682TIP3    H129681   5.410   5.080   7.243  2.1395  1.2740 -0.7494
 2682TIP3    H229682   5.320   5.083   7.121 -0.0694  1.8996  0.8273
 2683TIP3   OH229683   3.698   4.808   6.239  1.1483  0.2228  0.3853
 2683TIP3    H129684   3.735   4.874   6.298  0.1775  1.1774 -0.0339
 2683TIP3    H229685   3.604   4.828   6.237  1.1464  0.2611 -1.4995
 2684TIP3   OH229686   3.369   1.487   7.403 -0.2118  0.1332  0.7231
 2684TIP3    H129687   3.370   1.395   7.377 -0.0020  0.3113  0.1028
 2684TIP3    H229688   3.277   1.504   7.427 -0.2715 -0.2068  0.7389
 2685TIP3   OH229689   6.934   2.888   7.183  0.0214  0.1496  0.0313
 2685TIP3    H129690   6.972   2.976   7.182 -1.8377  1.1247  2.3057
 2685TIP3    H229691   6.902   2.874   7.094  0.8347  1.5588 -0.5128
 2686TIP3   OH229692   6.438   2.119   6.789  0.0222 -0.0814 -0.0603
 2686TIP3    H129693   6.430   2.207   6.752 -2.3939 -0.1864  0.0269
 2686TIP3    H229694   6.522   2.120   6.835 -0.1160  2.3026  0.2779
 2687TIP3   OH229695   0.873   5.374   6.720  0.5239 -0.2935  0.1843
 2687TIP3    H129696   0.915   5.389   6.635  0.8474 -1.5458  0.1082
 2687TIP3    H229697   0.937   5.404   6.784 -0.3736  2.2699  0.0130
 2688TIP3   OH229698   2.411   1.753   1.475  0.1062 -0.3244 -0.7148
 2688TIP3    H129699   2.450   1.803   1.547 -1.1021  2.1714 -1.6741
 2688TIP3    H229700   2.434   1.662   1.494  2.5227  0.5463  1.0988
 2689TIP3   OH229701   6.305   4.508   0.077 -0.5683  0.6963 -0.5252
 2689TIP3    H129702   6.271   4.421   0.099 -1.8071  1.7186  1.9554
 2689TIP3    H229703   6.227   4.562   0.062  0.1132  1.8444 -0.0678
 2690TIP3   OH229704   0.244   4.591   0.118  0.5814 -0.0630 -0.7302
 2690TIP3    H129705   0.217   4.676   0.152 -0.8284 -1.2341  1.2985
 2690TIP3    H229706   0.164   4.550   0.087  1.2797 -0.5884 -1.9256
 2691TIP3   OH229707   3.673   1.189   1.226 -0.5139  0.5317  0.5475
 2691TIP3    H129708   3.687   1.260   1.163 -0.9136  1.4798  1.4896
 2691TIP3    H229709   3.721   1.115   1.190  0.6447  1.5298 -0.0299
 2692TIP3   OH229710   3.934   0.818   5.985  0.1036 -0.2518  0.4463
 2692TIP3    H129711   3.904   0.901   6.022  0.6918 -0.0628  0.5166
 2692TIP3    H229712   4.000   0.844   5.920 -0.3776 -0.6150 -0.2008
 2693TIP3   OH229713   5.705   6.807   6.201 -0.1179 -0.0797 -0.1283
 2693TIP3    H129714   5.663   6.723   6.220  0.2650 -0.4027 -0.6973
 2693TIP3    H229715   5.732   6.840   6.287 -0.5826 -0.3706  0.1326
 2694TIP3   OH229716   3.742   1.748   7.760  0.3600  0.0570  0.2661
 2694TIP3    H129717   3.674   1.696   7.717  1.0172  0.3513 -1.1989
 2694TIP3    H229718   3.706   1.836   7.764  0.0873 -0.0761  0.8181
 2695TIP3   OH229719   6.805   2.226   0.883 -0.3755 -0.2668 -0.0663
 2695TIP3    H129720   6.858   2.146   0.881 -0.3058 -0.2016 -1.8879
 2695TIP3    H229721   6.780   2.241   0.792  0.3866  2.3146  0.0800
 2696TIP3   OH229722   4.731   5.076   7.945  0.1583  0.1186  0.5479
 2696TIP3    H129723   4.688   5.034   7.871  0.0155  0.2072  0.5815
 2696TIP3    H229724   4.783   5.006   7.985 -1.0098 -0.3417  1.3210
 2697TIP3   OH229725   4.563   1.668   2.038  0.3149 -0.0444  0.8759
 2697TIP3    H129726   4.492   1.723   2.003  0.1088 -0.8329 -0.0185
 2697TIP3    H229727   4.549   1.668   2.132 -0.5429  0.2845  0.7644
 2698TIP3   OH229728   4.150   5.711   7.975 -0.3969  0.0140  0.2422
 2698TIP3    H129729   4.238   5.712   7.937 -0.3266 -0.2559  0.3927
 2698TIP3    H229730   4.093   5.691   7.902 -0.2470 -0.6508  0.2944
 2699TIP3   OH229731   4.994   0.278   8.338 -0.6889  0.2116  0.2339
 2699TIP3    H129732   5.023   0.224   8.412 -0.3010  0.5760  0.3493
 2699TIP3    H229733   5.054   0.256   8.267  0.8223  2.0021  0.8783
 2700TIP3   OH229734   3.479   1.142   5.702  0.7972 -0.0354 -0.5607
 2700TIP3    H129735   3.412   1.137   5.770  2.0414 -0.0501  0.7197
 2700TIP3    H229736   3.448   1.084   5.632  0.0382 -0.9374  0.4991
 2701TIP3   OH229737   2.964   2.125   0.909  0.0196 -0.1995 -0.0951
 2701TIP3    H129738   2.988   2.165   0.992  1.1724  1.1339 -1.0278
 2701TIP3    H229739   2.868   2.126   0.908 -0.0086 -0.4098  1.2799
 2702TIP3   OH229740   6.220   2.073   0.110  0.0765  0.2185 -0.1228
 2702TIP3    H129741   6.262   2.035   0.187  3.3909 -0.0359 -1.8640
 2702TIP3    H229742   6.188   2.158   0.140  1.2625  0.1178  1.5673
 2703TIP3   OH229743   5.346   4.424   7.569 -0.2817  0.3581  0.5409
 2703TIP3    H129744   5.397   4.493   7.610 -1.4873  1.7648 -0.2142
 2703TIP3    H229745   5.407   4.350   7.561  0.9825  1.2440  1.5481
 2704TIP3   OH229746   1.869   5.948   7.187  0.1527  0.2922 -0.8455
 2704TIP3    H129747   1.881   5.924   7.095  1.5564 -1.2147 -0.3191
 2704TIP3    H229748   1.785   5.909   7.211  1.9604 -3.7063 -0.2628
 2705TIP3   OH229749   1.181   1.167   0.955 -0.3990 -0.1590  0.1267
 2705TIP3    H129750   1.216   1.154   1.043  2.5038  0.3368 -0.8375
 2705TIP3    H229751   1.166   1.262   0.949  3.4420  0.5404 -1.1099
 2706TIP3   OH229752   3.472   3.114   0.784 -0.1117 -0.2033  0.1473
 2706TIP3    H129753   3.477   3.019   0.777  0.2636 -0.3054  1.5230
 2706TIP3    H229754   3.554   3.146   0.747 -0.2980 -0.4028 -0.4402
 2707TIP3   OH229755   4.184   0.136   7.813 -0.0103 -0.1157  0.1520
 2707TIP3    H129756   4.134   0.132   7.732  1.2575  0.6412 -0.7045
 2707TIP3    H229757   4.275   0.142   7.785  0.5101 -0.5471  1.6474
 2708TIP3   OH229758   1.162   1.755   0.087  0.3170  0.7523 -0.0586
 2708TIP3    H129759   1.256   1.775   0.085  0.9097 -1.5638 -2.5949
 2708TIP3    H229760   1.140   1.735  -0.004 -2.2948 -0.2425  0.6932
 2709TIP3   OH229761   1.471   6.339   1.368  0.0111  0.0722  0.2733
 2709TIP3    H129762   1.504   6.345   1.278 -1.3644 -2.1558 -0.4630
 2709TIP3    H229763   1.399   6.401   1.371 -1.6699 -1.6752 -1.0910
 2710TIP3   OH229764   3.379   6.621   0.709  0.9310 -0.0727 -0.0676
 2710TIP3    H129765   3.301   6.664   0.673  1.7758 -1.6310 -4.3165
 2710TIP3    H229766   3.443   6.692   0.718 -0.5999  1.0943  2.8033
 2711TIP3   OH229767   4.081   1.958   6.900 -0.3653  0.2998 -0.4533
 2711TIP3    H129768   4.169   1.963   6.939 -0.2280  2.2482 -0.9344
 2711TIP3    H229769   4.040   1.884   6.945  0.9667  0.3282  0.9118
 2712TIP3   OH229770   5.274   2.099   1.023  0.2594  0.9580  0.8559
 2712TIP3    H129771   5.366   2.100   1.048  0.2348 -0.3487  1.0566
 2712TIP3    H229772   5.230   2.058   1.097 -0.2672  0.1563  0.1236
 2713TIP3   OH229773   6.424   0.943   7.648  0.4983 -0.3591 -0.7058
 2713TIP3    H129774   6.338   0.983   7.661  0.9199  0.6776 -1.0505
 2713TIP3    H229775   6.438   0.947   7.553  1.5442  0.8127 -0.5302
 2714TIP3   OH229776   5.196   1.949   1.264  0.4918  0.3193  0.3300
 2714TIP3    H129777   5.274   1.945   1.319  0.5268 -1.0262  0.2234
 2714TIP3    H229778   5.149   1.868   1.284 -0.8627  1.0976  0.3692
 2715TIP3   OH229779   6.671   4.779   0.204  0.3274  0.1801 -0.6328
 2715TIP3    H129780   6.654   4.699   0.155 -1.8385 -0.7887  1.5222
 2715TIP3    H229781   6.586   4.823   0.209  1.3594  2.4405 -1.3285
 2716TIP3   OH229782   2.703   4.889   7.393  0.4332  0.6865 -0.0020
 2716TIP3    H129783   2.736   4.911   7.306  1.0523 -0.3373 -0.0363
 2716TIP3    H229784   2.782   4.869   7.444 -0.0874 -2.3412 -0.2319
 2717TIP3   OH229785   3.517   5.701   1.937  0.2280 -0.1472 -0.3957
 2717TIP3    H129786   3.517   5.699   2.032  0.3693 -0.1459 -0.3961
 2717TIP3    H229787   3.579   5.634   1.911  0.7747  0.3786 -0.4739
 2718TIP3   OH229788   5.916   3.533   8.429  0.8814 -0.2306 -0.3320
 2718TIP3    H129789   5.928   3.576   8.514 -0.6116 -1.0905  0.3521
 2718TIP3    H229790   5.822   3.543   8.411  0.7972 -1.8709 -0.8916
 2719TIP3   OH229791   3.259   2.035   1.046  0.1407 -0.4011  0.3056
 2719TIP3    H129792   3.197   2.099   1.083  0.3991 -0.1707  0.3476
 2719TIP3    H229793   3.334   2.037   1.106  0.8485  0.4517 -0.5744
 2720TIP3   OH229794   2.725   5.564   0.326  0.3412  0.4371 -0.1805
 2720TIP3    H129795   2.725   5.660   0.332 -0.3580  0.3941  0.7094
 2720TIP3    H229796   2.634   5.541   0.309  0.6631 -0.0329 -1.3368
 2721TIP3   OH229797   3.786   2.662   7.448  0.0477 -0.1451  0.6084
 2721TIP3    H129798   3.828   2.661   7.535  0.7312 -1.7582  0.3057
 2721TIP3    H229799   3.823   2.586   7.403 -3.2446 -1.7527  0.3222
 2722TIP3   OH229800   0.669   4.085   0.923  0.6873  0.1538 -0.3226
 2722TIP3    H129801   0.666   3.989   0.915  0.8720  0.1825 -0.7693
 2722TIP3    H229802   0.647   4.102   1.014  1.4376 -0.3561 -0.0417
 2723TIP3   OH229803   5.336   5.909   2.615  0.4915 -0.3265 -0.5820
 2723TIP3    H129804   5.429   5.934   2.620  0.5205 -0.2477 -1.3346
 2723TIP3    H229805   5.329   5.863   2.532  0.1128 -1.4851  0.0780
 2724TIP3   OH229806   4.989   4.630   7.070  0.4680  0.1723  0.0522
 2724TIP3    H129807   4.899   4.596   7.063  0.1381  1.1802 -0.8528
 2724TIP3    H229808   4.982   4.702   7.133  0.3837  1.0308 -0.9148
 2725TIP3   OH229809   4.001   0.665   7.440  0.2221 -0.3026 -0.0372
 2725TIP3    H129810   4.081   0.680   7.491  0.3003 -0.2804 -0.1651
 2725TIP3    H229811   3.948   0.608   7.495  0.9284 -1.5001 -0.5563
 2726TIP3   OH229812   2.612   0.864   5.867  0.0756 -0.1816 -0.4770
 2726TIP3    H129813   2.525   0.903   5.860  0.6687  1.1180 -0.8951
 2726TIP3    H229814   2.669   0.924   5.820  1.1838 -1.0911 -0.3320
 2727TIP3   OH229815   4.807   0.238   0.969  0.3634  0.4037 -0.9434
 2727TIP3    H129816   4.836   0.326   0.991 -0.7939  0.2957  1.3085
 2727TIP3    H229817   4.825   0.187   1.048  0.0932 -1.1652 -1.8537
 2728TIP3   OH229818   5.313   6.333   1.471 -0.2375 -0.2947  0.1616
 2728TIP3    H129819   5.383   6.276   1.441 -0.2406 -1.2955  1.9042
 2728TIP3    H229820   5.244   6.274   1.502 -0.8869  0.6485  0.5951
 2729TIP3   OH229821   4.254   4.619   1.285  0.2395  0.3120  0.3568
 2729TIP3    H129822   4.246   4.620   1.190  0.0960 -0.0148  0.3632
 2729TIP3    H229823   4.203   4.694   1.315 -2.7929 -1.5624  0.3852
 2730TIP3   OH229824   0.300   3.176   1.880 -0.5066  0.2480 -0.2789
 2730TIP3    H129825   0.352   3.196   1.803 -0.7133 -1.8477 -1.0285
 2730TIP3    H229826   0.315   3.250   1.940  1.5219  0.7607 -1.3487
 2731TIP3   OH229827   6.053   3.522   6.497  0.4804  0.6838  0.1313
 2731TIP3    H129828   6.131   3.473   6.525  0.1382  0.2237  0.3019
 2731TIP3    H229829   6.086   3.589   6.437  1.1464  1.2020  1.0472
 2732TIP3   OH229830   0.827   3.483   6.809  0.0106  0.6424 -0.8784
 2732TIP3    H129831   0.894   3.529   6.760  0.1500  1.4732  0.0637
 2732TIP3    H229832   0.776   3.436   6.743 -0.0998  2.1060 -1.8672
 2733TIP3   OH229833   2.048   6.158   1.044  0.3662 -0.4309  0.3484
 2733TIP3    H129834   2.080   6.072   1.018 -1.3481 -1.4479  1.3881
 2733TIP3    H229835   2.126   6.207   1.070  1.4745 -1.2861 -1.2761
 2734TIP3   OH229836   2.971   3.520   6.646  0.8187  0.4567  0.2029
 2734TIP3    H129837   3.019   3.591   6.603  1.6550  1.2864  2.3834
 2734TIP3    H229838   2.933   3.560   6.724 -2.3323 -0.5182 -0.6754
 2735TIP3   OH229839   2.765   4.181   1.642 -0.2155 -0.0356 -0.0260
 2735TIP3    H129840   2.761   4.101   1.695 -0.5892 -0.7517 -1.1060
 2735TIP3    H229841   2.822   4.240   1.692 -0.2326 -0.8391  0.9659
 2736TIP3   OH229842   6.685   5.038   8.423  0.2312 -0.0460 -0.3733
 2736TIP3    H129843   6.745   5.021   8.350 -0.8401 -0.7256 -1.1268
 2736TIP3    H229844   6.714   4.978   8.492  0.3664 -0.4361 -0.7653
 2737TIP3   OH229845   3.242   6.308   1.608 -0.1231  0.4504 -0.7677
 2737TIP3    H129846   3.231   6.234   1.669  0.3577  0.8905 -0.1239
 2737TIP3    H229847   3.321   6.286   1.558  0.7400  1.0706  0.2696
 2738TIP3   OH229848   2.413   1.668   7.505 -0.2529 -0.0037 -0.4433
 2738TIP3    H129849   2.455   1.672   7.419  2.2434  0.9513  0.7048
 2738TIP3    H229850   2.445   1.586   7.543  2.7039  1.7902  1.3280
 2739TIP3   OH229851   6.850   1.536   1.617  0.0167  0.1425 -0.5770
 2739TIP3    H129852   6.862   1.536   1.522  0.6595 -0.2946 -0.5020
 2739TIP3    H229853   6.893   1.455   1.647 -0.7701 -0.0725  0.0144
 2740TIP3   OH229854   4.988   6.409   0.738  0.5082 -0.0997  0.9152
 2740TIP3    H129855   4.936   6.331   0.719  3.3413 -1.6734 -1.1443
 2740TIP3    H229856   4.935   6.482   0.706 -0.8393 -1.5094 -0.2182
 2741TIP3   OH229857   5.292   5.452   0.878 -0.4394 -0.7646  0.0206
 2741TIP3    H129858   5.219   5.421   0.932 -1.8126  0.5318 -0.9898
 2741TIP3    H229859   5.290   5.395   0.801 -1.6969  0.4616 -0.9137
 2742TIP3   OH229860   4.035   2.227   7.380 -0.6171  0.0430  0.2259
 2742TIP3    H129861   4.007   2.149   7.333 -1.6964 -0.6958  1.9603
 2742TIP3    H229862   4.129   2.233   7.366 -0.2903 -2.3342  1.1011
 2743TIP3   OH229863   3.978   3.363   1.193 -0.3275 -0.1446  0.3358
 2743TIP3    H129864   3.922   3.320   1.130 -2.0471  0.6063  1.2905
 2743TIP3    H229865   4.066   3.328   1.175 -1.2892 -2.3836 -0.2971
 2744TIP3   OH229866   5.979   5.940   0.014 -0.3519 -0.1494  0.5926
 2744TIP3    H129867   5.947   5.863  -0.032  0.7627  0.2208 -0.8863
 2744TIP3    H229868   5.978   6.010  -0.052 -1.2636  1.1033  1.8727
 2745TIP3   OH229869   1.747   1.836   2.000  0.8198  0.1177  0.0455
 2745TIP3    H129870   1.833   1.835   1.959  0.7804 -0.9191 -0.0342
 2745TIP3    H229871   1.701   1.760   1.964  1.1687 -1.5167  2.7204
 2746TIP3   OH229872   0.078   6.925   1.427  0.6768 -0.2826 -0.6872
 2746TIP3    H129873   0.088   6.983   1.502 -0.5000 -0.0700 -0.6711
 2746TIP3    H229874   0.120   6.971   1.355 -0.6090  0.8229 -0.7710
 2747TIP3   OH229875   2.785   1.679   0.095 -0.3442 -0.6027  0.3067
 2747TIP3    H129876   2.691   1.677   0.079 -0.1229 -2.1655 -1.0504
 2747TIP3    H229877   2.804   1.770   0.115 -2.2388 -0.3631  1.2880
 2748TIP3   OH229878   3.003   2.012   1.956 -0.3214 -0.0217  0.1192
 2748TIP3    H129879   3.094   2.006   1.986 -0.3983 -0.4940  0.2583
 2748TIP3    H229880   2.950   1.998   2.034 -0.5172 -0.2105 -0.0473
 2749TIP3   OH229881   1.121   6.109   1.312  0.2579 -0.3756  0.9387
 2749TIP3    H129882   1.102   6.103   1.406  1.1748 -1.8289  1.0557
 2749TIP3    H229883   1.205   6.064   1.302 -0.1816 -0.8871 -0.6871
 2750TIP3   OH229884   0.188   3.328   7.628  0.3316 -0.7682 -0.7843
 2750TIP3    H129885   0.275   3.328   7.588  0.0074 -1.0489 -1.5064
 2750TIP3    H229886   0.130   3.360   7.559  0.1919  2.0420  0.4874
 2751TIP3   OH229887   5.083   1.708   1.357 -0.4352  0.9575 -0.4577
 2751TIP3    H129888   5.140   1.632   1.351 -0.5632  0.8699 -0.5613
 2751TIP3    H229889   4.999   1.678   1.322 -0.4866  1.1442 -0.4946
 2752TIP3   OH229890   5.551   3.573   1.264  0.3532 -0.3846  0.0225
 2752TIP3    H129891   5.602   3.649   1.291  0.3908 -1.3163  2.8922
 2752TIP3    H229892   5.612   3.499   1.271 -0.6272 -1.1527  0.8442
 2753TIP3   OH229893   0.845   1.439   1.015  0.5733 -0.1147  0.0587
 2753TIP3    H129894   0.930   1.443   0.971  0.4951 -1.1526 -0.2307
 2753TIP3    H229895   0.857   1.374   1.084 -0.0816 -0.5650 -0.2355
 2754TIP3   OH229896   5.370   4.890   7.652  0.4819  0.9443 -0.1008
 2754TIP3    H129897   5.288   4.863   7.610  1.1653  1.2309 -1.6967
 2754TIP3    H229898   5.344   4.959   7.712 -0.5577  0.4383  0.0613
 2755TIP3   OH229899   1.033   6.846   0.433 -0.6996 -0.4588 -0.4538
 2755TIP3    H129900   1.126   6.854   0.412 -1.1227  4.2331 -1.6563
 2755TIP3    H229901   0.993   6.814   0.353 -0.3148 -0.7658 -0.5260
 2756TIP3   OH229902   6.365   5.736   7.579  0.2837 -0.3573 -0.3026
 2756TIP3    H129903   6.325   5.803   7.523 -1.2939 -1.5860 -0.6985
 2756TIP3    H229904   6.402   5.672   7.517  2.0716  0.2436  0.0667
 2757TIP3   OH229905   4.275   4.326   0.780 -0.6585  0.0154 -0.1341
 2757TIP3    H129906   4.273   4.278   0.697 -0.5420 -0.4284  0.1195
 2757TIP3    H229907   4.357   4.376   0.776 -1.1378  0.7800 -0.7204
 2758TIP3   OH229908   1.883   0.357   5.984 -0.3071  0.4526 -0.4021
 2758TIP3    H129909   1.846   0.444   5.969  0.9685  1.1018  0.0608
 2758TIP3    H229910   1.966   0.374   6.027  0.3212 -0.9767 -1.0012
 2759TIP3   OH229911   1.501   2.156   2.282 -0.0758  0.0203  0.1681
 2759TIP3    H129912   1.506   2.076   2.231 -1.4409  0.7373 -1.1851
 2759TIP3    H229913   1.556   2.219   2.235  1.6192 -0.2747  1.6436
 2760TIP3   OH229914   4.228   1.925   1.388  0.4961  0.6531 -0.4510
 2760TIP3    H129915   4.173   1.855   1.353 -0.6091  0.8611  0.8042
 2760TIP3    H229916   4.205   2.003   1.337  0.2644  0.5468 -0.5073
 2761TIP3   OH229917   6.846   2.452   1.387  0.1447  0.1122 -0.5767
 2761TIP3    H129918   6.840   2.526   1.448 -0.5062  0.4034 -0.9809
 2761TIP3    H229919   6.933   2.461   1.348  1.2912 -1.0630  1.5081
 2762TIP3   OH229920   6.519   2.190   7.733  0.2258 -0.0331  0.2332
 2762TIP3    H129921   6.607   2.178   7.697  0.7984 -0.1692  1.6250
 2762TIP3    H229922   6.527   2.267   7.790 -0.6391  0.1428  0.1203
 2763TIP3   OH229923   1.696   0.305   8.541  0.2105  0.1926 -0.1119
 2763TIP3    H129924   1.761   0.235   8.533  0.0968  0.1376 -0.5899
 2763TIP3    H229925   1.705   0.355   8.460 -0.9899 -0.3716 -0.6255
 2764TIP3   OH229926   4.045   3.833   8.458 -0.3401  0.0945 -0.1537
 2764TIP3    H129927   4.132   3.800   8.482 -0.5974  0.4992  1.3917
 2764TIP3    H229928   4.061   3.882   8.377  0.4292 -1.8517 -1.2424
 2765TIP3   OH229929   4.330   5.329   6.631  0.2135 -1.3160  0.9313
 2765TIP3    H129930   4.367   5.340   6.544 -0.0831 -2.4167  0.6600
 2765TIP3    H229931   4.333   5.417   6.669  1.5413 -1.0764  0.3071
 2766TIP3   OH229932   1.009   0.580   0.011 -0.1011 -0.0742 -0.1970
 2766TIP3    H129933   0.982   0.529   0.087 -3.7299 -0.2174 -1.3995
 2766TIP3    H229934   1.040   0.663   0.048  0.1892 -0.9030  1.5105
 2767TIP3   OH229935   2.997   3.962   1.484 -0.4818 -0.2533 -0.5455
 2767TIP3    H129936   3.071   3.921   1.530  0.0252  1.7738  0.6051
 2767TIP3    H229937   2.920   3.939   1.536  0.0209  1.5695  1.1212
 2768TIP3   OH229938   0.225   6.942   8.275 -0.1135 -0.7595 -0.3305
 2768TIP3    H129939   0.172   6.876   8.231 -0.4403 -1.1315  0.5819
 2768TIP3    H229940   0.252   7.002   8.206 -2.5212  0.0001 -0.6944
 2769TIP3   OH229941   0.142   3.083   0.468  0.0741  0.1606  0.4311
 2769TIP3    H129942   0.175   3.159   0.517 -1.8869  0.8646  0.7298
 2769TIP3    H229943   0.112   3.119   0.385  3.0386 -0.9788 -1.2905
 2770TIP3   OH229944   2.659   0.676   6.753 -0.4865  0.1083 -0.1732
 2770TIP3    H129945   2.665   0.741   6.683  0.5057  0.4924  0.2549
 2770TIP3    H229946   2.740   0.626   6.746 -0.8643 -0.5364  0.0358
 2771TIP3   OH229947   0.581   3.777   7.226  0.4723  0.1159 -0.4836
 2771TIP3    H129948   0.576   3.835   7.150 -0.3994  0.0607 -0.4742
 2771TIP3    H229949   0.501   3.796   7.276  0.7918 -0.2082  0.1599
 2772TIP3   OH229950   5.102   5.654   8.229  0.0846  0.7883 -0.0777
 2772TIP3    H129951   5.066   5.663   8.141 -0.8127  1.2240  0.3157
 2772TIP3    H229952   5.183   5.705   8.227  0.7644 -0.2823 -1.0071
 2773TIP3   OH229953   1.424   2.461   8.003 -0.0865 -0.5870  0.8512
 2773TIP3    H129954   1.357   2.433   8.065  0.2846  1.2279  2.1719
 2773TIP3    H229955   1.498   2.487   8.057  0.4231  0.6425 -0.3621
 2774TIP3   OH229956   6.010   1.855   7.954 -0.3914  0.3154  0.0928
 2774TIP3    H129957   5.973   1.805   7.881  0.1802 -1.5297  1.0209
 2774TIP3    H229958   5.962   1.824   8.031  2.1306 -1.2534  1.1532
 2775TIP3   OH229959   4.151   5.646   1.057  0.0675  0.2091 -0.0442
 2775TIP3    H129960   4.165   5.741   1.064 -2.3344  0.6256 -0.1594
 2775TIP3    H229961   4.237   5.608   1.078  1.3223  2.4067 -0.8273
 2776TIP3   OH229962   3.540   6.825   0.793  0.0886 -0.5651  0.5227
 2776TIP3    H129963   3.504   6.891   0.734  0.6544 -0.2397  0.5319
 2776TIP3    H229964   3.510   6.850   0.880 -0.3231 -0.7556  0.4395
 2777TIP3   OH229965   4.579   2.913   7.866  0.4420 -0.6526  0.2286
 2777TIP3    H129966   4.604   2.907   7.958 -0.9676  0.1276  0.6977
 2777TIP3    H229967   4.608   3.001   7.839  2.7562 -1.6179 -0.7340
 2778TIP3   OH229968   6.703   4.960   0.907 -0.1331 -0.0311 -0.3010
 2778TIP3    H129969   6.749   5.041   0.885 -0.8600 -0.0493 -2.0819
 2778TIP3    H229970   6.769   4.906   0.950  1.3245  0.2422 -2.0646
 2779TIP3   OH229971   6.384   3.111   0.415 -0.4860  0.3248 -0.3887
 2779TIP3    H129972   6.294   3.076   0.414 -0.0555 -0.8637  0.3017
 2779TIP3    H229973   6.407   3.116   0.507  0.3672  0.0389 -0.5741
 2780TIP3   OH229974   2.572   3.143   8.515 -0.0337  0.1609 -0.2265
 2780TIP3    H129975   2.554   3.231   8.546  1.9430  0.0301  1.5065
 2780TIP3    H229976   2.663   3.146   8.485 -0.3514 -0.9832 -1.4173
 2781TIP3   OH229977   1.529   5.104   0.600  0.1044  0.3215  0.0286
 2781TIP3    H129978   1.548   5.182   0.653  1.7104 -1.9435  3.0895
 2781TIP3    H229979   1.610   5.088   0.551 -0.0019  0.2387 -0.1202
 2782TIP3   OH229980   2.055   6.177   0.689 -0.2872 -0.4175 -0.4265
 2782TIP3    H129981   2.148   6.195   0.679 -0.0303 -1.2088  0.4182
 2782TIP3    H229982   2.017   6.262   0.712  0.0631  0.1010 -1.6979
 2783TIP3   OH229983   2.116   3.934   1.739 -0.3280 -0.0033 -0.0063
 2783TIP3    H129984   2.155   3.868   1.796 -0.9904  0.6787  1.2847
 2783TIP3    H229985   2.023   3.912   1.736 -1.2626  2.6515  3.2086
 2784TIP3   OH229986   3.291   0.921   5.630 -0.3378 -0.3882  0.8276
 2784TIP3    H129987   3.293   0.847   5.690  1.3697 -1.3213 -0.3058
 2784TIP3    H229988   3.349   0.896   5.559  0.9627  2.3732  0.7972
 2785TIP3   OH229989   3.810   1.596   8.426 -0.0403  0.0233 -0.0871
 2785TIP3    H129990   3.836   1.504   8.425  2.1707  0.5731 -1.4212
 2785TIP3    H229991   3.824   1.624   8.516 -2.7977 -1.3701  0.8989
 2786TIP3   OH229992   2.873   5.682   1.681  0.1259  0.0252 -0.1355
 2786TIP3    H129993   2.851   5.661   1.772 -1.5571  2.3282  0.1000
 2786TIP3    H229994   2.830   5.614   1.629  1.0561 -1.2800  0.7592
 2787TIP3   OH229995   0.312   4.779   1.131 -0.4870  0.0246  0.5060
 2787TIP3    H129996   0.347   4.762   1.044 -3.3719  1.6697 -1.1249
 2787TIP3    H229997   0.285   4.694   1.164 -0.5453 -0.4789 -0.7908
 2788TIP3   OH229998   0.666   6.528   1.926 -0.6806 -0.2392  0.1708
 2788TIP3    H129999   0.575   6.541   1.952 -1.0353 -0.8782 -0.7242
 2788TIP3    H230000   0.684   6.436   1.948 -0.2935 -0.1563  0.2076
 2789TIP3   OH230001   4.031   4.059   7.101  0.1815 -0.3913  0.0880
 2789TIP3    H130002   3.947   4.069   7.146 -0.6241 -0.8504 -1.2400
 2789TIP3    H230003   4.063   3.974   7.131  0.0600 -0.3265  0.4132
 2790TIP3   OH230004   6.468   6.636   0.311 -0.5965 -0.3236  0.0042
 2790TIP3    H130005   6.470   6.569   0.244  1.8431 -0.3792  0.0519
 2790TIP3    H230006   6.539   6.614   0.371 -0.2899  1.7890  0.5280
 2791TIP3   OH230007   0.200   5.161   1.340  0.0263  0.6999  0.7036
 2791TIP3    H130008   0.223   5.158   1.433  1.9621  3.6180  0.4457
 2791TIP3    H230009   0.285   5.155   1.295 -0.8751 -0.6208 -0.9131
 2792TIP3   OH230010   1.260   3.495   7.971  0.1972 -0.0997 -0.5969
 2792TIP3    H130011   1.231   3.570   7.918  0.8390 -0.3568 -1.3425
 2792TIP3    H230012   1.296   3.534   8.050  0.9952  0.4252 -1.2028
 2793TIP3   OH230013   5.103   6.162   0.365 -0.5337  0.4159 -0.3962
 2793TIP3    H130014   5.179   6.154   0.423 -1.5798 -1.0993  0.8535
 2793TIP3    H230015   5.060   6.243   0.392 -1.6702 -0.8616  1.8691
 2794TIP3   OH230016   2.325   4.094   0.377 -0.9091  0.3522  0.4757
 2794TIP3    H130017   2.314   4.172   0.431  0.4235  1.4720 -0.7506
 2794TIP3    H230018   2.375   4.033   0.431  0.3589  1.4328  0.5872
 2795TIP3   OH230019   6.741   5.577   8.141  0.6813 -0.3135 -0.3999
 2795TIP3    H130020   6.700   5.611   8.061  2.4318 -0.4487 -1.4173
 2795TIP3    H230021   6.825   5.541   8.111  0.4363 -2.3563  1.1698
 2796TIP3   OH230022   2.693   3.247   0.594 -0.1813 -0.0499 -0.6200
 2796TIP3    H130023   2.640   3.268   0.670  0.7110  0.2147 -0.0552
 2796TIP3    H230024   2.758   3.184   0.627  1.8173  1.9509 -0.5063
 2797TIP3   OH230025   3.730   4.781   7.832 -0.4357  0.4849 -0.1849
 2797TIP3    H130026   3.757   4.871   7.852 -0.7015  0.6242 -0.4404
 2797TIP3    H230027   3.802   4.727   7.864 -0.4717  0.7581  0.3739
 2798TIP3   OH230028   2.657   5.034   8.461 -0.9736  0.1843  0.1766
 2798TIP3    H130029   2.613   4.950   8.470  1.6890 -1.2338  1.2410
 2798TIP3    H230030   2.689   5.035   8.370  0.5762 -0.9092  0.6552
 2799TIP3   OH230031   2.041   6.468   8.522  0.4413 -0.3220  0.5340
 2799TIP3    H130032   1.992   6.477   8.441 -0.3928 -2.9183  0.6856
 2799TIP3    H230033   2.133   6.466   8.495  0.1898 -0.7984 -0.3022
 2800TIP3   OH230034   3.281   5.536   7.563 -0.4573  0.3374 -0.2959
 2800TIP3    H130035   3.230   5.609   7.600 -0.9142  0.3446 -0.9223
 2800TIP3    H230036   3.316   5.571   7.481 -0.6603 -0.1412 -0.5884
 2801TIP3   OH230037   3.600   5.775   1.089 -0.0150  0.5365  0.0747
 2801TIP3    H130038   3.614   5.869   1.099  1.0297  0.5588 -1.2500
 2801TIP3    H230039   3.688   5.738   1.085 -0.3832 -0.2586 -1.2521
 2802TIP3   OH230040   0.219   1.408   7.112  0.3090  0.3552  0.4652
 2802TIP3    H130041   0.257   1.349   7.048 -2.4487  1.0010 -2.0080
 2802TIP3    H230042   0.252   1.495   7.087  1.6159  0.2929  1.8919
 2803TIP3   OH230043   5.985   4.653   7.590 -0.2193  0.5315  0.3340
 2803TIP3    H130044   6.056   4.700   7.545 -0.8288  2.2254  1.0460
 2803TIP3    H230045   5.972   4.574   7.538  1.5525  0.6406 -0.3452
 2804TIP3   OH230046   5.351   0.743   0.410 -0.1374 -0.2779  0.8210
 2804TIP3    H130047   5.371   0.782   0.325 -2.0820 -0.3178  0.2910
 2804TIP3    H230048   5.298   0.666   0.389 -2.3285  0.7737  2.0615
 2805TIP3   OH230049   1.879   1.510   0.642 -0.5849  0.8337 -0.6247
 2805TIP3    H130050   1.900   1.585   0.586  0.0879  0.0772 -1.4004
 2805TIP3    H230051   1.878   1.546   0.731 -0.1348  1.7287 -0.9730
 2806TIP3   OH230052   4.254   0.917   8.135 -0.0030  0.1959  0.3082
 2806TIP3    H130053   4.309   0.988   8.167  0.6611 -1.3882  3.0174
 2806TIP3    H230054   4.245   0.858   8.210 -2.9046 -1.1551 -0.9494
 2807TIP3   OH230055   0.551   2.978   7.173  0.3328 -0.3950 -0.2438
 2807TIP3    H130056   0.536   3.033   7.250 -0.3071  0.3938 -0.9126
 2807TIP3    H230057   0.549   2.889   7.207 -0.1028 -0.0684  0.6355
 2808TIP3   OH230058   4.877   0.113   7.497 -0.2567  0.5531 -0.0855
 2808TIP3    H130059   4.902   0.155   7.579 -0.6655 -0.1898  0.4263
 2808TIP3    H230060   4.790   0.149   7.478 -0.9828 -0.6469  0.7960
 2809TIP3   OH230061   6.020   4.658   1.831  0.6206 -0.0242 -0.4984
 2809TIP3    H130062   5.990   4.631   1.917 -1.6668 -0.3406 -1.3246
 2809TIP3    H230063   6.080   4.589   1.803 -0.3278 -1.0663 -0.0400
 2810TIP3   OH230064   1.116   0.570   7.839  0.4471 -0.3708  0.8429
 2810TIP3    H130065   1.179   0.503   7.814 -0.5818 -0.8281 -0.6902
 2810TIP3    H230066   1.149   0.651   7.799 -0.3464 -0.7895 -0.7858
 2811TIP3   OH230067   3.957   4.541   0.461 -0.4807  0.5076 -0.0666
 2811TIP3    H130068   3.974   4.525   0.554 -2.5904 -1.2528  0.0772
 2811TIP3    H230069   4.005   4.472   0.416 -3.1396 -1.5803  0.0755
 2812TIP3   OH230070   3.054   0.277   1.854  0.0871 -0.3124 -0.5165
 2812TIP3    H130071   3.131   0.220   1.856 -0.3383 -0.9094 -0.6020
 2812TIP3    H230072   2.981   0.217   1.840 -0.3992  0.2407 -0.3916
 2813TIP3   OH230073   1.732   4.567   8.168  0.1123 -0.2332 -0.0542
 2813TIP3    H130074   1.653   4.571   8.113  0.7140 -1.1434 -1.0286
 2813TIP3    H230075   1.804   4.565   8.105  0.8640 -0.5139  0.8021
 2814TIP3   OH230076   3.670   0.265   0.578  0.0373  0.5881 -0.1702
 2814TIP3    H130077   3.744   0.278   0.637  2.2987 -2.2345 -2.1168
 2814TIP3    H230078   3.675   0.339   0.517  0.4967  1.0668  0.4307
 2815TIP3   OH230079   0.976   4.343   7.251  0.7936 -0.0864 -0.4653
 2815TIP3    H130080   0.991   4.433   7.224  0.6887  0.2439  0.5294
 2815TIP3    H230081   1.062   4.311   7.278  0.7804 -0.1882 -0.5416
 2816TIP3   OH230082   1.649   4.775   7.193  0.2784  0.2527  0.4693
 2816TIP3    H130083   1.668   4.703   7.253  0.5138  0.8502  1.1150
 2816TIP3    H230084   1.554   4.780   7.191  0.2578 -0.1350  0.3419
 2817TIP3   OH230085   4.196   4.094   6.330  0.1391 -0.2960  0.5469
 2817TIP3    H130086   4.127   4.097   6.263 -1.0045 -0.8471  1.6621
 2817TIP3    H230087   4.163   4.150   6.400  0.0645 -1.8184  1.7738
 2818TIP3   OH230088   2.218   5.084   7.232 -0.4586  0.1815 -0.0268
 2818TIP3    H130089   2.289   5.022   7.248 -0.6261 -0.5474 -1.7802
 2818TIP3    H230090   2.199   5.122   7.317 -0.0696 -1.8988  1.0553
 2819TIP3   OH230091   5.557   3.098   0.061 -0.1472  0.0542  0.0631
 2819TIP3    H130092   5.604   3.017   0.079  3.1947  1.8506  0.1945
 2819TIP3    H230093   5.490   3.102   0.130  0.7807 -1.7125  1.1563
 2820TIP3   OH230094   1.363   0.426   7.139 -0.2648  0.0922  0.6631
 2820TIP3    H130095   1.439   0.404   7.194  0.7452  1.4709 -0.1397
 2820TIP3    H230096   1.361   0.521   7.137 -0.9511  0.0711 -0.8051
 2821TIP3   OH230097   3.512   1.433   6.522 -0.0034  0.3247 -0.3397
 2821TIP3    H130098   3.528   1.357   6.467  0.7267  0.5622 -0.4660
 2821TIP3    H230099   3.504   1.397   6.611  2.4011  0.2521 -0.0719
 2822TIP3   OH230100   4.481   3.038   6.626  0.1203 -0.2576  0.1711
 2822TIP3    H130101   4.517   3.106   6.570  1.0221  0.9481  2.1045
 2822TIP3    H230102   4.550   2.972   6.634 -0.4159 -0.9982 -0.9558
 2823TIP3   OH230103   5.662   5.025   2.087  0.3774  0.1563 -0.4091
 2823TIP3    H130104   5.574   5.002   2.117 -0.0979 -0.8762 -2.4075
 2823TIP3    H230105   5.704   5.065   2.163 -0.9434 -1.6757  1.3790
 2824TIP3   OH230106   3.511   3.372   0.572  0.1883  1.0319 -0.4942
 2824TIP3    H130107   3.480   3.445   0.519 -0.4736  2.4068  1.6611
 2824TIP3    H230108   3.522   3.408   0.660 -0.1825 -1.4594  0.6805
 2825TIP3   OH230109   3.255   6.041   7.399  0.6118  0.1347 -0.0964
 2825TIP3    H130110   3.308   6.060   7.476 -0.4229  1.8419  0.2375
 2825TIP3    H230111   3.299   6.087   7.328 -0.0966  1.1181  0.0825
 2826TIP3   OH230112   2.224   6.740   1.987 -0.5817 -0.0454 -0.5512
 2826TIP3    H130113   2.222   6.667   1.925  0.0217  0.5143 -1.2440
 2826TIP3    H230114   2.178   6.811   1.943  0.9164  0.7567 -0.9183
 2827TIP3   OH230115   0.538   6.009   6.182 -0.0460  0.1757  0.2164
 2827TIP3    H130116   0.623   5.965   6.179  0.0667  0.3369  0.8441
 2827TIP3    H230117   0.535   6.049   6.270 -0.2854  1.1253 -0.2084
 2828TIP3   OH230118   0.224   1.978   0.851 -0.4446  0.7869 -0.1381
 2828TIP3    H130119   0.136   1.946   0.833 -0.1270 -1.4518  1.8766
 2828TIP3    H230120   0.244   1.946   0.939  2.5780  0.7339 -0.7476
 2829TIP3   OH230121   0.991   3.065   7.640  0.4305 -0.7985  0.3605
 2829TIP3    H130122   1.046   2.988   7.628  2.7559  0.6239  1.2332
 2829TIP3    H230123   0.940   3.046   7.719 -0.7052 -2.3021 -0.6808
 2830TIP3   OH230124   5.852   3.337   6.610  0.6103 -0.2400  0.2480
 2830TIP3    H130125   5.933   3.377   6.641 -0.1008  1.9068 -0.4854
 2830TIP3    H230126   5.879   3.274   6.543  1.6012  2.9822 -2.6487
 2831TIP3   OH230127   1.955   3.524   0.553 -0.4208  0.4566 -0.0609
 2831TIP3    H130128   1.902   3.532   0.474 -1.0582 -3.1591 -0.1742
 2831TIP3    H230129   1.905   3.466   0.610  1.4254  0.4951  1.7282
 2832TIP3   OH230130   4.652   1.167   6.665 -0.1430  0.0768 -0.6975
 2832TIP3    H130131   4.581   1.226   6.641 -0.1194 -0.2551 -1.6028
 2832TIP3    H230132   4.709   1.164   6.588 -0.5888 -1.7797 -0.9928
 2833TIP3   OH230133   4.686   1.240   0.422  0.6493  0.0798 -0.6407
 2833TIP3    H130134   4.663   1.332   0.411  0.1677  0.3944  2.2473
 2833TIP3    H230135   4.758   1.240   0.485 -0.2085 -1.5535  0.4229
 2834TIP3   OH230136   6.922   0.093   0.567 -0.2980 -0.2471 -0.8023
 2834TIP3    H130137   6.970   0.047   0.636 -1.5920 -0.9851 -0.3672
 2834TIP3    H230138   6.990   0.119   0.504  0.8807  0.2432  0.6132
 2835TIP3   OH230139   3.889   1.320   8.177  0.0793  0.2405  0.5350
 2835TIP3    H130140   3.846   1.303   8.261 -0.3587  0.1447  0.2966
 2835TIP3    H230141   3.928   1.236   8.152  0.1639  0.2552  0.6206
 2836TIP3   OH230142   1.838   3.024   0.553  0.6313 -0.5608  1.0536
 2836TIP3    H130143   1.757   3.074   0.559  0.9674  0.3701 -1.1008
 2836TIP3    H230144   1.810   2.933   0.549 -0.4379 -0.1890 -0.9395
 2837TIP3   OH230145   4.720   3.084   1.874 -0.1130  0.7145 -0.1136
 2837TIP3    H130146   4.769   3.093   1.956 -0.0383  0.8202 -0.1702
 2837TIP3    H230147   4.662   3.160   1.873  0.8514  1.4651 -0.8209
 2838TIP3   OH230148   5.263   6.862   1.909 -0.1556 -0.2715 -0.3291
 2838TIP3    H130149   5.216   6.888   1.988  0.1516 -0.6786 -0.0126
 2838TIP3    H230150   5.355   6.866   1.933 -0.0844 -1.1901 -0.4153
 2839TIP3   OH230151   2.175   6.360   6.384 -0.1279 -0.5510 -0.0740
 2839TIP3    H130152   2.138   6.439   6.344  1.7025 -0.1162 -0.9853
 2839TIP3    H230153   2.244   6.332   6.324  1.1740 -1.2031  1.6408
 2840TIP3   OH230154   4.489   1.124   7.422 -0.0050 -0.2063 -0.2877
 2840TIP3    H130155   4.527   1.037   7.433  1.5806  0.3280 -1.2270
 2840TIP3    H230156   4.491   1.162   7.510 -0.3970 -0.9744  0.0657
 2841TIP3   OH230157   0.193   2.802   0.508  0.6615 -0.0598  0.1030
 2841TIP3    H130158   0.108   2.783   0.548 -0.2636  0.9195 -1.2848
 2841TIP3    H230159   0.192   2.897   0.494  1.9891 -0.0318  0.0671
 2842TIP3   OH230160   4.917   1.165   8.498 -0.6030 -0.0754  0.3773
 2842TIP3    H130161   4.929   1.082   8.453 -3.2570 -0.7406  0.7196
 2842TIP3    H230162   5.006   1.195   8.519  0.4489 -2.2752 -0.6901
 2843TIP3   OH230163   0.909   5.165   8.448 -0.1904  0.4310  0.3800
 2843TIP3    H130164   0.989   5.113   8.437 -0.1615 -0.4102  3.4853
 2843TIP3    H230165   0.900   5.213   8.366  1.5717 -2.0394 -1.4288
 2844TIP3   OH230166   4.656   5.281   6.621  0.3497  0.1152  0.5150
 2844TIP3    H130167   4.700   5.197   6.614 -3.7856 -2.2288 -0.4375
 2844TIP3    H230168   4.636   5.306   6.531  1.7780  2.4081  0.7495
 2845TIP3   OH230169   1.788   5.906   8.388 -0.0646  0.2998 -0.2553
 2845TIP3    H130170   1.868   5.949   8.417  0.4629 -0.1484 -1.0122
 2845TIP3    H230171   1.818   5.840   8.325 -1.0153  0.0375 -0.4426
 2846TIP3   OH230172   0.387   0.211   1.592  0.2436 -0.3815 -0.2185
 2846TIP3    H130173   0.295   0.212   1.565  0.2551 -2.7740 -0.5644
 2846TIP3    H230174   0.385   0.172   1.680  0.8370  0.8694  0.3742
 2847TIP3   OH230175   1.727   1.514   1.014 -0.1484  0.6494 -0.4391
 2847TIP3    H130176   1.700   1.427   0.983  2.3142 -0.8020  1.2057
 2847TIP3    H230177   1.723   1.508   1.109  1.9339  1.6388 -0.2396
 2848TIP3   OH230178   0.779   4.802   7.815  0.2235 -0.5473  0.0313
 2848TIP3    H130179   0.863   4.844   7.799 -0.1045 -0.2678 -1.0514
 2848TIP3    H230180   0.741   4.851   7.888  0.6098 -0.0992 -0.0629
 2849TIP3   OH230181   6.425   1.881   7.200 -0.4862  0.0281 -0.3197
 2849TIP3    H130182   6.331   1.893   7.188 -0.3192  2.3593  0.3207
 2849TIP3    H230183   6.457   1.966   7.229  1.5498 -1.1843  1.2921
 2850TIP3   OH230184   0.546   2.493   1.520 -0.0880  0.6107 -0.0804
 2850TIP3    H130185   0.575   2.480   1.430  1.1281 -1.0499  0.4808
 2850TIP3    H230186   0.465   2.444   1.527  0.1114  0.2660 -0.1437
 2851TIP3   OH230187   4.720   6.752   1.489  0.3135  0.2008 -0.1358
 2851TIP3    H130188   4.715   6.729   1.582  1.4565 -1.8045 -0.5076
 2851TIP3    H230189   4.728   6.668   1.444  1.1432  1.1900 -1.9433
 2852TIP3   OH230190   4.106   2.096   2.201  0.1183  0.6958  0.2405
 2852TIP3    H130191   4.176   2.158   2.181 -1.7614  2.3375 -1.9492
 2852TIP3    H230192   4.132   2.015   2.158  0.9608  1.0730  0.0149
 2853TIP3   OH230193   0.872   0.343   0.561 -0.2961  0.2917  0.1691
 2853TIP3    H130194   0.804   0.397   0.520 -0.0850  0.0993 -0.4444
 2853TIP3    H230195   0.823   0.278   0.612 -0.5615  0.5459  0.2435
 2854TIP3   OH230196   4.753   5.944   7.478  0.1390  0.3427  0.1597
 2854TIP3    H130197   4.803   6.006   7.531 -0.4840  1.4023 -0.4463
 2854TIP3    H230198   4.672   5.991   7.458 -0.4877 -0.7986 -0.0607
 2855TIP3   OH230199   6.017   5.507   7.421  0.2875  0.0956 -0.1604
 2855TIP3    H130200   5.974   5.441   7.366 -0.2451  0.3442 -0.0515
 2855TIP3    H230201   6.103   5.470   7.441 -0.0238 -0.5839 -0.0678
 2856TIP3   OH230202   2.026   4.701   0.832 -0.2690 -0.1036 -0.0732
 2856TIP3    H130203   2.031   4.671   0.923  1.8782  1.9659  0.5897
 2856TIP3    H230204   1.948   4.757   0.831 -0.7509 -0.7490  0.2719
 2857TIP3   OH230205   1.530   3.019   1.846 -0.2581 -0.2436 -0.4240
 2857TIP3    H130206   1.450   3.062   1.816  0.9285  0.9755 -2.0253
 2857TIP3    H230207   1.549   2.954   1.778  1.1695  0.9023 -1.1917
 2858TIP3   OH230208   5.248   4.000   0.681  0.3210 -0.8332 -0.0833
 2858TIP3    H130209   5.185   4.025   0.612  0.8185  0.0254 -0.2425
 2858TIP3    H230210   5.240   3.905   0.688 -2.3843 -0.6056  1.2321
 2859TIP3   OH230211   1.185   5.598   7.451  0.5213 -0.7461 -0.9584
 2859TIP3    H130212   1.155   5.685   7.475 -0.4106 -0.6441 -2.3432
 2859TIP3    H230213   1.138   5.578   7.370 -0.6766 -3.2629  0.2184
 2860TIP3   OH230214   2.927   0.926   7.500 -0.3525 -0.0617  0.5157
 2860TIP3    H130215   2.939   0.856   7.564 -0.5328 -1.1273 -0.5836
 2860TIP3    H230216   2.984   0.902   7.427 -0.5716  0.8407  0.0346
 2861TIP3   OH230217   5.693   4.533   6.758 -0.3583  0.1161  0.1550
 2861TIP3    H130218   5.710   4.440   6.773 -1.4911 -0.4044 -1.5038
 2861TIP3    H230219   5.774   4.566   6.720  0.3382  0.0359  1.4954
 2862TIP3   OH230220   1.734   2.229   0.592 -0.5586  0.3731 -0.4135
 2862TIP3    H130221   1.736   2.285   0.669  1.5668  0.7144 -0.6399
 2862TIP3    H230222   1.826   2.220   0.568 -1.1533  0.1713 -2.8332
 2863TIP3   OH230223   3.398   6.668   1.169  0.4832 -0.3852 -0.2642
 2863TIP3    H130224   3.353   6.637   1.091 -0.2374 -0.9276  0.3533
 2863TIP3    H230225   3.484   6.696   1.138  0.4277 -1.1604 -1.1613
 2864TIP3   OH230226   3.074   0.267   0.263  0.5275  0.4637  0.4013
 2864TIP3    H130227   2.979   0.259   0.258  0.4317  1.3648  0.6536
 2864TIP3    H230228   3.107   0.180   0.238 -0.3438  0.2906 -0.1733
 2865TIP3   OH230229   5.102   4.137   7.457 -0.2597 -0.2127  0.0870
 2865TIP3    H130230   5.142   4.140   7.543 -1.7853  2.0941  0.8151
 2865TIP3    H230231   5.174   4.154   7.396  0.3504  1.2177  1.1502
 2866TIP3   OH230232   5.665   0.660   2.057 -0.6786 -0.2643 -0.5471
 2866TIP3    H130233   5.590   0.650   2.116  0.1747  1.5640  0.9853
 2866TIP3    H230234   5.718   0.582   2.071 -0.2862  0.3080  1.5271
 2867TIP3   OH230235   4.708   1.016   1.453 -0.4203  0.4495  0.0393
 2867TIP3    H130236   4.776   1.005   1.520 -1.7256  0.6869  1.4565
 2867TIP3    H230237   4.733   1.095   1.406  0.5106  0.2902  0.2413
 2868TIP3   OH230238   3.522   3.159   0.395 -0.0743 -0.3603 -0.2085
 2868TIP3    H130239   3.517   3.236   0.451  1.7141 -0.7387  0.5324
 2868TIP3    H230240   3.597   3.177   0.337 -2.7977  0.7600 -3.7289
 2869TIP3   OH230241   4.811   1.913   6.372 -0.6447 -0.1521 -0.1670
 2869TIP3    H130242   4.808   1.934   6.465 -0.4717 -0.0593 -0.1834
 2869TIP3    H230243   4.793   1.996   6.328 -1.3620 -0.3208 -0.2054
 2870TIP3   OH230244   3.196   2.081   0.459  0.6678  0.1846 -0.0112
 2870TIP3    H130245   3.132   2.109   0.524 -0.9790  0.7071 -1.7561
 2870TIP3    H230246   3.240   2.162   0.432  1.2700 -0.0143  0.3574
 2871TIP3   OH230247   0.580   5.248   0.335  0.1351 -1.0110 -0.1049
 2871TIP3    H130248   0.547   5.261   0.424  2.2709  0.8870  0.4941
 2871TIP3    H230249   0.637   5.172   0.342 -1.0834 -1.9794 -0.3083
 2872TIP3   OH230250   1.639   1.611   7.777 -0.0539  0.5811  0.1313
 2872TIP3    H130251   1.698   1.605   7.702  0.4921 -1.4015  0.6546
 2872TIP3    H230252   1.647   1.702   7.807  1.9697  0.6335 -0.4252
 2873TIP3   OH230253   2.007   1.058   2.044 -0.2616  0.7872  0.2148
 2873TIP3    H130254   1.922   1.098   2.030  0.3682  1.9616 -0.4650
 2873TIP3    H230255   1.990   0.964   2.044 -1.3478  0.9449 -1.4710
 2874TIP3   OH230256   2.282   2.939   0.996 -0.1320 -0.7428 -0.0685
 2874TIP3    H130257   2.188   2.960   1.001  0.1009  0.2650  0.2127
 2874TIP3    H230258   2.298   2.925   0.902 -0.3899 -0.0608 -0.2210
 2875TIP3   OH230259   2.354   3.945   6.343  0.2440  0.6052  0.6474
 2875TIP3    H130260   2.352   3.860   6.386 -0.5966  0.7492  0.9316
 2875TIP3    H230261   2.262   3.971   6.338  0.4905  1.5387  0.6659
 2876TIP3   OH230262   4.999   4.581   0.698  0.2890 -0.0972  0.1528
 2876TIP3    H130263   4.942   4.508   0.723  2.6760 -2.4731 -0.8482
 2876TIP3    H230264   5.047   4.603   0.777 -1.0400  1.0377  0.6746
 2877TIP3   OH230265   0.388   1.066   1.082 -0.1252  0.2189 -0.0179
 2877TIP3    H130266   0.439   0.996   1.123 -1.3332  0.6044  2.3366
 2877TIP3    H230267   0.359   1.121   1.156 -1.3712  1.7332 -1.5437
 2878TIP3   OH230268   1.000   2.481   8.472  0.4020  0.1696 -0.3568
 2878TIP3    H130269   1.001   2.564   8.425  0.4730 -0.1853 -0.9905
 2878TIP3    H230270   0.983   2.415   8.405  1.4123 -0.4385 -0.0348
 2879TIP3   OH230271   1.455   6.546   2.076 -0.8043  0.3941 -0.1658
 2879TIP3    H130272   1.527   6.540   2.139  0.9897  0.5694 -2.0953
 2879TIP3    H230273   1.376   6.528   2.128  0.5115  1.0181  2.2057
 2880TIP3   OH230274   1.142   1.429   0.970 -0.5474  0.3892 -0.4016
 2880TIP3    H130275   1.193   1.478   1.035  0.1200 -0.7202 -0.0510
 2880TIP3    H230276   1.172   1.461   0.886 -0.2704  0.7173 -0.1806
 2881TIP3   OH230277   3.986   5.590   0.216  0.4197  0.3433 -0.2963
 2881TIP3    H130278   4.075   5.624   0.209  1.1583  0.0599  4.4653
 2881TIP3    H230279   3.935   5.664   0.249  0.3566 -0.8554  2.6752
 2882TIP3   OH230280   1.039   4.859   7.767  0.3121 -0.3386  0.1099
 2882TIP3    H130281   1.014   4.948   7.744  0.9263 -0.4083 -0.9135
 2882TIP3    H230282   1.134   4.857   7.750  0.1123 -1.5004 -1.0163
 2883TIP3   OH230283   6.388   6.705   7.929  0.1588 -0.0703  0.1775
 2883TIP3    H130284   6.417   6.723   7.839  2.4289 -0.1183  0.8499
 2883TIP3    H230285   6.428   6.620   7.950 -0.7972 -0.3215  1.0616
 2884TIP3   OH230286   0.203   3.543   1.381  0.0197  0.4453  0.5136
 2884TIP3    H130287   0.134   3.520   1.319  0.5040  0.1199  0.0826
 2884TIP3    H230288   0.189   3.636   1.399 -0.6822  0.3166  0.6309
 2885TIP3   OH230289   0.912   1.873   7.557 -0.2911 -0.0901 -0.5252
 2885TIP3    H130290   0.936   1.885   7.465 -0.4806 -3.3421 -1.0924
 2885TIP3    H230291   0.978   1.814   7.592 -0.3805  0.8730  1.4159
 2886TIP3   OH230292   5.014   5.885   7.632  0.2132 -0.4125 -0.7180
 2886TIP3    H130293   4.973   5.831   7.564  0.6379 -0.4046 -0.9846
 2886TIP3    H230294   5.065   5.823   7.684 -0.0199 -0.4002 -0.4710
 2887TIP3   OH230295   1.624   0.199   6.765 -0.3628  0.3822  0.2417
 2887TIP3    H130296   1.678   0.173   6.839  0.5293 -0.9240 -0.8151
 2887TIP3    H230297   1.593   0.286   6.787 -1.7450 -0.6935  3.0274
 2888TIP3   OH230298   6.137   1.700   0.330 -0.2382 -0.2426  0.0416
 2888TIP3    H130299   6.181   1.678   0.247 -1.0977 -1.2502 -0.1741
 2888TIP3    H230300   6.182   1.778   0.361 -0.6098  0.8265 -1.9340
 2889TIP3   OH230301   5.804   5.724   8.164 -0.1880 -0.4195  0.2398
 2889TIP3    H130302   5.789   5.782   8.238 -1.0120 -0.5650  0.2003
 2889TIP3    H230303   5.848   5.647   8.202  3.1811  1.1764 -0.0773
 2890TIP3   OH230304   6.472   3.704   6.914 -0.2329 -0.1344  0.8218
 2890TIP3    H130305   6.497   3.703   6.822  0.0491 -0.4897  0.8998
 2890TIP3    H230306   6.514   3.783   6.949 -1.4764  0.7767  0.3463
 2891TIP3   OH230307   3.397   0.156   6.771  0.2204  0.5221  0.2255
 2891TIP3    H130308   3.373   0.136   6.680  1.8387  0.8148 -0.3148
 2891TIP3    H230309   3.403   0.251   6.774  2.3701  0.4664 -0.0509
 2892TIP3   OH230310   6.626   6.358   0.366  0.0482  0.1835  0.3171
 2892TIP3    H130311   6.666   6.328   0.285 -0.2449  1.2760 -0.2593
 2892TIP3    H230312   6.683   6.429   0.396  0.4595 -0.5646  1.3818
 2893TIP3   OH230313   0.722   6.217   1.316 -1.0262  0.1014  0.4169
 2893TIP3    H130314   0.771   6.155   1.262 -2.0978 -0.7346  0.3630
 2893TIP3    H230315   0.724   6.180   1.404 -1.5884  0.0400  0.4065
 2894TIP3   OH230316   2.370   1.521   0.451 -0.2710  0.5126 -0.3809
 2894TIP3    H130317   2.442   1.467   0.486  0.9858  3.6291  2.4855
 2894TIP3    H230318   2.413   1.602   0.423 -2.3688  1.2861 -1.5554
 2895TIP3   OH230319   0.972   1.716   0.758  0.3920  0.4434  0.1566
 2895TIP3    H130320   1.054   1.725   0.806  0.9834 -0.1718 -0.6978
 2895TIP3    H230321   0.956   1.621   0.756 -0.4664  0.5676  0.5032
 2896TIP3   OH230322   0.814   3.010   0.937  0.6250 -0.4437  0.0601
 2896TIP3    H130323   0.760   3.019   0.859 -1.1052 -0.3511  1.2012
 2896TIP3    H230324   0.752   2.985   1.006  1.5278  2.2562  2.0410
 2897TIP3   OH230325   0.835   5.848   0.432 -0.5700  0.2395  0.2588
 2897TIP3    H130326   0.861   5.776   0.489 -0.1687  0.6963  0.6532
 2897TIP3    H230327   0.776   5.901   0.485 -2.0421 -0.5581 -0.4861
 2898TIP3   OH230328   4.380   4.385   8.166  0.5358  0.0887 -0.3097
 2898TIP3    H130329   4.310   4.322   8.181  0.3284  0.2730 -0.5156
 2898TIP3    H230330   4.402   4.417   8.253  2.3205 -2.0602  0.1393
 2899TIP3   OH230331   0.348   2.519   7.222 -0.1043  0.4140 -0.7192
 2899TIP3    H130332   0.330   2.458   7.294 -1.7741  1.6381 -0.0198
 2899TIP3    H230333   0.401   2.469   7.161  1.1305 -0.7888  1.2111
 2900TIP3   OH230334   1.039   1.988   6.805 -0.4130 -0.2617 -0.5474
 2900TIP3    H130335   0.959   1.947   6.771 -0.6514 -0.6435  0.4418
 2900TIP3    H230336   1.023   1.997   6.899  1.1583 -1.4443 -0.1246
 2901TIP3   OH230337   3.527   2.159   0.127 -0.3756  0.5448 -0.1845
 2901TIP3    H130338   3.511   2.067   0.108 -2.1944  0.5085  1.2919
 2901TIP3    H230339   3.553   2.161   0.219  0.1949  1.4657 -0.3510
 2902TIP3   OH230340   3.797   4.284   0.185 -0.3622  0.1818 -0.0918
 2902TIP3    H130341   3.876   4.232   0.166  0.3099  0.6882  1.1967
 2902TIP3    H230342   3.748   4.284   0.102  0.3023 -1.3033 -0.5292
 2903TIP3   OH230343   1.077   1.327   6.408 -0.1433 -0.4657  1.3581
 2903TIP3    H130344   1.125   1.384   6.468 -0.5134  0.5885  0.6788
 2903TIP3    H230345   1.085   1.370   6.323 -1.6586 -0.6466  1.0959
 2904TIP3   OH230346   3.495   4.314   7.308 -0.3357  0.2085 -0.2909
 2904TIP3    H130347   3.471   4.358   7.227  1.8288  1.1178 -0.4994
 2904TIP3    H230348   3.446   4.360   7.376  0.6290  1.9318 -0.6999
 2905TIP3   OH230349   6.415   4.294   8.432  0.6329  0.0794  0.1427
 2905TIP3    H130350   6.510   4.293   8.434  0.7449 -1.3079 -2.0964
 2905TIP3    H230351   6.391   4.382   8.402  1.2649  0.1342 -0.2052
 2906TIP3   OH230352   1.223   0.875   1.270  0.5966 -0.0297  0.0555
 2906TIP3    H130353   1.233   0.968   1.253  0.8682  0.0412  0.5838
 2906TIP3    H230354   1.128   0.860   1.271  0.4550  0.6750  2.1461
 2907TIP3   OH230355   5.383   0.413   0.546  0.3630  0.1537 -0.0604
 2907TIP3    H130356   5.438   0.349   0.591 -1.0118 -0.7683  0.3641
 2907TIP3    H230357   5.338   0.362   0.479 -1.7017  0.3830  1.0946
 2908TIP3   OH230358   6.243   4.056   8.466 -0.5852 -0.3207 -0.0567
 2908TIP3    H130359   6.305   4.127   8.484 -1.1189  0.0943  0.1849
 2908TIP3    H230360   6.295   3.987   8.426  0.0355  0.0152  0.1691
 2909TIP3   OH230361   6.212   6.140   0.015  0.1909 -0.5543 -0.4484
 2909TIP3    H130362   6.126   6.173   0.044 -0.6837 -2.8029 -0.2874
 2909TIP3    H230363   6.193   6.054  -0.023  2.5503 -1.6951  0.7707
 2910TIP3   OH230364   6.508   4.818   1.026 -0.4054 -0.3619 -0.1277
 2910TIP3    H130365   6.567   4.892   1.012 -2.5047  1.2832 -0.9117
 2910TIP3    H230366   6.458   4.812   0.944 -1.6950 -1.2882  0.6884
 2911TIP3   OH230367   5.074   4.045   8.282 -0.2498 -0.4251  0.0762
 2911TIP3    H130368   5.043   4.023   8.369 -2.0960 -1.5059 -0.7989
 2911TIP3    H230369   5.118   3.965   8.252 -1.9623 -1.0313 -0.9485
 2912TIP3   OH230370   2.090   3.638   1.755 -0.0456 -0.3314  0.2541
 2912TIP3    H130371   2.010   3.674   1.716 -0.2145  1.2585  1.9388
 2912TIP3    H230372   2.157   3.648   1.688 -0.4640  1.7162  0.0825
 2913TIP3   OH230373   0.292   5.826   8.090  0.5940 -0.3130 -0.2051
 2913TIP3    H130374   0.231   5.806   8.161  0.8012 -1.3066 -0.3000
 2913TIP3    H230375   0.236   5.840   8.013  0.3750  0.6978  0.1157
 2914TIP3   OH230376   1.753   6.192   6.949 -0.3542  1.1753 -0.3219
 2914TIP3    H130377   1.723   6.104   6.925 -2.3738  1.8308 -0.3813
 2914TIP3    H230378   1.848   6.187   6.946 -0.1998 -1.9517  2.8097
 2915TIP3   OH230379   1.931   2.612   0.815  0.1386 -0.0775 -0.3506
 2915TIP3    H130380   1.961   2.700   0.791  2.1826 -0.2598  1.2006
 2915TIP3    H230381   2.000   2.554   0.782 -0.7773 -1.0522 -0.6211
 2916TIP3   OH230382   3.390   0.631   8.438  0.5185 -0.6411  0.6288
 2916TIP3    H130383   3.447   0.586   8.501  0.4387 -2.5344 -0.5441
 2916TIP3    H230384   3.339   0.560   8.399  0.4813  0.4682 -1.4542
 2917TIP3   OH230385   3.711   2.897   8.392  0.2602 -0.2222  0.2933
 2917TIP3    H130386   3.691   2.968   8.452 -0.3028  0.0857 -0.2492
 2917TIP3    H230387   3.757   2.832   8.446  0.7698  0.5359  0.7919
 2918TIP3   OH230388   6.094   3.537   8.232 -0.4530  0.0780 -0.0228
 2918TIP3    H130389   6.038   3.543   8.309  1.9650 -0.1487  1.8684
 2918TIP3    H230390   6.083   3.447   8.202 -1.4414  0.1742  0.0016
 2919TIP3   OH230391   0.293   6.369   7.407  0.0606 -0.1385 -0.8561
 2919TIP3    H130392   0.291   6.301   7.341 -1.6994 -0.1892 -0.7911
 2919TIP3    H230393   0.341   6.441   7.367  1.0430 -1.0227 -1.2982
 2920TIP3   OH230394   1.758   3.765   7.515 -0.7045  0.2871  1.0048
 2920TIP3    H130395   1.696   3.699   7.485  0.7204 -0.7329  0.1673
 2920TIP3    H230396   1.814   3.719   7.578  1.1410  0.2375 -0.5576
 2921TIP3   OH230397   3.006   4.572   7.914  0.2616 -0.0334 -0.4386
 2921TIP3    H130398   3.045   4.544   7.831  0.2445 -0.4309 -0.3156
 2921TIP3    H230399   2.953   4.497   7.942  0.2886  0.0891 -0.0535
 2922TIP3   OH230400   5.438   1.892   1.495 -0.7425 -0.3331  0.1187
 2922TIP3    H130401   5.410   1.836   1.567 -1.3970  1.6017  1.4802
 2922TIP3    H230402   5.524   1.925   1.523 -0.2424 -0.8316 -0.7853
 2923TIP3   OH230403   5.655   6.060   1.158 -0.0272 -0.1348  0.3754
 2923TIP3    H130404   5.720   6.051   1.088 -0.7469  0.4299 -0.3929
 2923TIP3    H230405   5.653   6.154   1.177 -0.6708 -0.1300  0.3262
 2924TIP3   OH230406   2.769   3.631   6.882 -0.2324  0.2254 -0.4502
 2924TIP3    H130407   2.735   3.705   6.832 -1.9676  0.9430  1.6267
 2924TIP3    H230408   2.779   3.666   6.971 -0.2479 -1.7862  0.3842
 2925TIP3   OH230409   2.322   2.608   1.394 -0.4891 -0.2416  0.2011
 2925TIP3    H130410   2.406   2.619   1.348 -0.1653 -0.6301  0.6761
 2925TIP3    H230411   2.346   2.609   1.487 -1.2324  1.3427  0.4016
 2926TIP3   OH230412   5.286   5.749   1.918 -0.5019  0.3805 -0.6352
 2926TIP3    H130413   5.242   5.689   1.978  1.4527  0.3864  0.8850
 2926TIP3    H230414   5.314   5.822   1.973 -1.7977  2.2044 -2.2420
 2927TIP3   OH230415   0.824   5.709   1.853  0.4054 -0.4378 -0.3054
 2927TIP3    H130416   0.890   5.775   1.831  0.0931 -0.1035 -0.2444
 2927TIP3    H230417   0.873   5.641   1.899  0.5173  0.3394  0.7455
 2928TIP3   OH230418   4.120   3.345   8.403  0.1559 -0.0660 -0.0969
 2928TIP3    H130419   4.087   3.434   8.392 -0.5127 -0.3387 -0.3408
 2928TIP3    H230420   4.116   3.329   8.497 -1.2841 -0.4135 -0.1960
 2929TIP3   OH230421   4.708   4.995   0.496  0.4586 -0.2465 -0.5536
 2929TIP3    H130422   4.796   4.961   0.482  1.2281  0.9199  1.1242
 2929TIP3    H230423   4.719   5.070   0.555 -1.7723 -1.0436  1.0543
 2930TIP3   OH230424   0.865   0.175   2.164 -0.2513 -0.6433  0.8204
 2930TIP3    H130425   0.792   0.199   2.220  0.4145  0.5752  1.1950
 2930TIP3    H230426   0.828   0.172   2.076 -0.4553  1.4456  0.8062
 2931TIP3   OH230427   3.860   1.721   0.269  0.6539  0.1531  0.3777
 2931TIP3    H130428   3.915   1.779   0.215 -0.0603 -0.2155 -0.7956
 2931TIP3    H230429   3.853   1.640   0.218 -2.7448  0.9171 -0.6642
 2932TIP3   OH230430   6.133   6.858   0.120 -0.4191 -0.3070  0.0875
 2932TIP3    H130431   6.224   6.832   0.134 -0.2987 -0.5840 -1.0969
 2932TIP3    H230432   6.106   6.896   0.203  1.8561  2.9583 -0.4319
 2933TIP3   OH230433   2.590   6.838   6.864  0.3854  0.3626  0.2381
 2933TIP3    H130434   2.632   6.753   6.859 -0.7042 -0.1416 -1.0929
 2933TIP3    H230435   2.559   6.845   6.954  0.3166 -0.7343  0.3043
 2934TIP3   OH230436   4.880   5.364   8.081 -0.4848  0.4680  0.1157
 2934TIP3    H130437   4.845   5.449   8.054  0.3827  0.5616 -0.7824
 2934TIP3    H230438   4.820   5.300   8.042 -0.7168  0.6570  0.1618
 2935TIP3   OH230439   0.049   5.533   7.566 -0.5291  0.6300  0.2594
 2935TIP3    H130440   0.118   5.491   7.617  0.9760  1.1531 -1.2485
 2935TIP3    H230441   0.045   5.482   7.485 -2.3082  0.3057  0.5043
 2936TIP3   OH230442   2.761   4.562   0.948  0.1449 -0.1601  0.0626
 2936TIP3    H130443   2.672   4.567   0.984  0.5954  0.1967  1.1677
 2936TIP3    H230444   2.758   4.488   0.887 -1.3844  0.9659 -1.3300
 2937TIP3   OH230445   6.935   1.529   0.184 -0.2932 -0.4348  0.6228
 2937TIP3    H130446   6.988   1.576   0.120 -1.5229  1.8468  1.2068
 2937TIP3    H230447   6.973   1.440   0.185  1.1055  0.0523 -1.6557
 2938TIP3   OH230448   4.903   1.691   1.725 -0.0962  0.1518  0.2553
 2938TIP3    H130449   4.986   1.646   1.739  1.0984  1.7575 -1.1415
 2938TIP3    H230450   4.849   1.627   1.680  0.4879 -0.8294  0.9081
 2939TIP3   OH230451   3.142   5.911   1.569 -0.1690 -0.2974  0.7598
 2939TIP3    H130452   3.059   5.958   1.580 -0.5722 -0.5824 -0.8512
 2939TIP3    H230453   3.117   5.822   1.546  0.5928 -0.3562  0.1392
 2940TIP3   OH230454   6.085   2.223   1.442 -0.1483  0.2710  0.5723
 2940TIP3    H130455   6.023   2.215   1.515  0.5657  0.1829  1.1778
 2940TIP3    H230456   6.094   2.317   1.429 -1.4388  0.2896 -0.4279
 2941TIP3   OH230457   5.048   3.459   6.944 -0.0451  0.4935 -0.0960
 2941TIP3    H130458   4.982   3.399   6.980  1.3691 -1.3789 -0.4836
 2941TIP3    H230459   5.045   3.443   6.850  0.0093  1.4205 -0.2608
 2942TIP3   OH230460   6.604   4.486   1.494 -0.3063 -0.0114  0.6270
 2942TIP3    H130461   6.514   4.515   1.506 -0.0251  0.4772  1.6263
 2942TIP3    H230462   6.628   4.446   1.577  0.5313  0.2445  0.5163
 2943TIP3   OH230463   6.490   2.611   0.656  0.3833  0.6088 -0.6698
 2943TIP3    H130464   6.471   2.685   0.714 -0.1559  0.7832 -1.0694
 2943TIP3    H230465   6.436   2.540   0.689  1.6631  0.0619  0.3612
 2944TIP3   OH230466   3.788   2.675   0.292 -0.0935  0.0106 -0.3301
 2944TIP3    H130467   3.855   2.611   0.316 -0.4337  0.0040  0.6733
 2944TIP3    H230468   3.826   2.724   0.219  1.4673  0.7237  0.8907
 2945TIP3   OH230469   3.977   6.420   7.463  0.3479  0.4911 -0.3530
 2945TIP3    H130470   4.067   6.436   7.492  0.3420  2.1366 -1.1260
 2945TIP3    H230471   3.923   6.454   7.534  0.3137 -0.1851 -0.0431
 2946TIP3   OH230472   3.958   1.968   7.353  0.6892  0.3546 -0.2559
 2946TIP3    H130473   3.960   1.873   7.357 -0.8763  0.1981 -1.6565
 2946TIP3    H230474   3.874   1.988   7.311  0.1741  2.4281  1.5646
 2947TIP3   OH230475   2.911   3.092   1.298 -0.1159  0.6407  0.1219
 2947TIP3    H130476   2.829   3.053   1.267 -0.0979 -0.1049  0.9795
 2947TIP3    H230477   2.950   3.025   1.354  0.4881  1.4562  0.7061
 2948TIP3   OH230478   3.278   1.633   2.059  0.1767  0.0887 -0.4229
 2948TIP3    H130479   3.228   1.624   2.140 -0.5485  0.5647 -0.8097
 2948TIP3    H230480   3.274   1.546   2.018  3.1968 -1.1399  1.4998
 2949TIP3   OH230481   1.250   5.440   2.491  0.4840  0.0109 -0.4907
 2949TIP3    H130482   1.289   5.353   2.502 -0.3396 -0.0734  2.5997
 2949TIP3    H230483   1.311   5.499   2.535 -0.1610  0.6539 -0.4430
 2950TIP3   OH230484   2.907   1.509   0.628  0.3651 -0.2938 -0.5497
 2950TIP3    H130485   2.843   1.538   0.693  1.3652 -1.2806  0.9432
 2950TIP3    H230486   2.961   1.585   0.612  1.3150 -0.5203  1.3005
 2951TIP3   OH230487   4.941   4.242   7.919  0.0631 -0.3015 -0.6315
 2951TIP3    H130488   4.848   4.249   7.899  0.4077  0.3098 -2.1507
 2951TIP3    H230489   4.985   4.264   7.837  1.5617 -0.0796  0.1969
 2952TIP3   OH230490   5.865   6.524   1.874 -0.0173  0.9136 -0.1463
 2952TIP3    H130491   5.789   6.467   1.883  0.5897  0.3950  2.7878
 2952TIP3    H230492   5.920   6.481   1.809 -1.0431 -0.0844 -0.3897
 2953TIP3   OH230493   5.950   2.142   0.537 -0.0664 -0.1529 -0.3333
 2953TIP3    H130494   5.931   2.139   0.444 -0.4895  1.2130 -0.3039
 2953TIP3    H230495   5.920   2.057   0.570  0.6661 -0.8942 -1.5289
 2954TIP3   OH230496   4.829   1.897   7.250  0.6632  0.2695  0.3008
 2954TIP3    H130497   4.772   1.971   7.228  0.5030  0.3020  0.8096
 2954TIP3    H230498   4.910   1.913   7.201  0.0072 -0.1167 -0.9698
 2955TIP3   OH230499   3.807   4.597   6.555  0.5195  0.1262 -0.0721
 2955TIP3    H130500   3.897   4.619   6.529 -0.1189 -1.4669 -4.2814
 2955TIP3    H230501   3.775   4.539   6.486 -3.8774  0.7964  1.1124
 2956TIP3   OH230502   4.559   4.455   0.770  0.2075  0.4112  0.0685
 2956TIP3    H130503   4.521   4.493   0.691 -0.7150  0.3809  0.4929
 2956TIP3    H230504   4.572   4.529   0.829  2.1349  0.6497 -0.5652
 2957TIP3   OH230505   5.919   6.137   6.870  0.5006  0.9439 -0.2830
 2957TIP3    H130506   5.907   6.160   6.777  0.3594 -0.8000 -0.7227
 2957TIP3    H230507   5.984   6.067   6.869 -0.3932  0.0805  0.8430
 2958TIP3   OH230508   5.286   5.957   0.624 -0.2117 -0.3787  0.2422
 2958TIP3    H130509   5.301   5.934   0.715 -0.2725  3.0396  1.2527
 2958TIP3    H230510   5.191   5.954   0.614 -0.3994  1.5357  1.0697
 2959TIP3   OH230511   1.211   4.076   7.209  0.2452 -0.7341 -0.2248
 2959TIP3    H130512   1.255   4.123   7.138 -2.9790  1.9683 -0.6997
 2959TIP3    H230513   1.250   4.112   7.289  0.8239 -0.4756 -0.6169
 2960TIP3   OH230514   0.451   4.518   0.325  0.6370 -0.4758 -0.4044
 2960TIP3    H130515   0.463   4.609   0.349  1.7772 -0.7830  0.2894
 2960TIP3    H230516   0.377   4.518   0.264  1.2940  1.0425 -1.2490
 2961TIP3   OH230517   4.090   4.183   0.584  0.0315  0.3648 -0.3404
 2961TIP3    H130518   4.015   4.228   0.623  2.0119  2.1800  1.6491
 2961TIP3    H230519   4.103   4.227   0.500 -0.3909  0.9323 -0.1203
 2962TIP3   OH230520   2.174   4.539   0.657 -0.0233  0.4073  0.1718
 2962TIP3    H130521   2.102   4.595   0.685  0.3565  0.2299  1.5751
 2962TIP3    H230522   2.252   4.580   0.695  0.5097  0.0340 -0.4886
 2963TIP3   OH230523   6.505   6.094   7.557 -0.1079  0.4217 -0.4526
 2963TIP3    H130524   6.569   6.109   7.488 -0.7334  1.9530 -0.7333
 2963TIP3    H230525   6.453   6.020   7.526 -0.0042  0.7205 -1.3520
 2964TIP3   OH230526   4.802   5.834   7.190 -0.3124  0.3183  0.1036
 2964TIP3    H130527   4.725   5.863   7.142  0.1687 -0.1296 -0.9626
 2964TIP3    H230528   4.792   5.873   7.277 -0.1984  2.8241 -0.9363
 2965TIP3   OH230529   3.893   2.796   0.610  0.0731 -0.1411 -0.4966
 2965TIP3    H130530   3.914   2.875   0.560 -0.9367 -0.7579 -1.9332
 2965TIP3    H230531   3.963   2.791   0.676  1.1365  0.9804 -1.4874
 2966TIP3   OH230532   1.835   5.404   0.987 -0.1075  0.3764 -0.5389
 2966TIP3    H130533   1.749   5.443   0.975 -0.7821 -0.3312  1.5794
 2966TIP3    H230534   1.896   5.468   0.949 -1.4406  1.6964 -0.5203
 2967TIP3   OH230535   6.038   4.594   0.050  0.3391 -0.1725  0.2886
 2967TIP3    H130536   5.995   4.674   0.081  1.9801  2.4283 -3.3656
 2967TIP3    H230537   5.975   4.524   0.068 -2.3937  2.3245  1.2668
 2968TIP3   OH230538   0.666   0.011   7.698 -0.0865  0.0840  0.0101
 2968TIP3    H130539   0.648  -0.082   7.707  1.6333 -0.5203 -2.0394
 2968TIP3    H230540   0.621   0.051   7.772 -1.9351 -2.2070  0.2620
 2969TIP3   OH230541   5.139   5.769   6.359  0.0850  0.3676 -0.0267
 2969TIP3    H130542   5.075   5.710   6.318  0.8654 -0.8860  0.4975
 2969TIP3    H230543   5.091   5.850   6.374 -0.2769  0.9048 -3.3598
 2970TIP3   OH230544   4.871   4.814   0.952  0.0276 -0.2842  0.2931
 2970TIP3    H130545   4.935   4.745   0.932 -0.6792 -1.5077  1.9886
 2970TIP3    H230546   4.844   4.796   1.042 -2.0596  0.7173 -0.0664
 2971TIP3   OH230547   0.184   0.099   1.214 -0.3932  0.0979  0.1103
 2971TIP3    H130548   0.133   0.043   1.156  1.0724 -0.6051 -0.5270
 2971TIP3    H230549   0.269   0.056   1.221  0.4514  1.7433  0.3704
 2972TIP3   OH230550   4.117   3.679   6.571  0.2744 -0.0768 -0.2565
 2972TIP3    H130551   4.165   3.600   6.596 -0.9173 -0.3479  1.3733
 2972TIP3    H230552   4.183   3.738   6.537  1.7658 -0.5340  1.6732
 2973TIP3   OH230553   3.064   5.771   6.436 -0.5883 -0.4065  0.4887
 2973TIP3    H130554   2.999   5.837   6.459  0.2610  1.0150 -0.9524
 2973TIP3    H230555   3.041   5.745   6.347 -0.1796 -1.1350  0.5904
 2974TIP3   OH230556   6.595   6.258   1.534  0.2135  0.3902 -0.4777
 2974TIP3    H130557   6.568   6.248   1.625 -0.6568  0.4573 -0.7182
 2974TIP3    H230558   6.652   6.183   1.517 -0.0058  0.1198 -0.0162
 2975TIP3   OH230559   5.889   5.467   6.715 -0.0981  0.0857 -0.0606
 2975TIP3    H130560   5.944   5.452   6.638  1.1462  0.6049  0.6934
 2975TIP3    H230561   5.853   5.554   6.702  0.4596  0.3503  0.1399
 2976TIP3   OH230562   1.968   5.779   0.571 -0.2398  0.6640  0.0895
 2976TIP3    H130563   1.904   5.723   0.615 -0.0164  0.9895  0.8641
 2976TIP3    H230564   2.008   5.830   0.643 -0.0693  1.4278 -0.5338
 2977TIP3   OH230565   6.473   4.835   7.444  0.2065 -0.1350  0.0644
 2977TIP3    H130566   6.484   4.766   7.508 -0.4782 -0.2182  0.1045
 2977TIP3    H230567   6.560   4.848   7.406  0.6169 -0.0742  1.0106
 2978TIP3   OH230568   1.499   4.187   7.329  0.0634  0.1489  0.5041
 2978TIP3    H130569   1.528   4.261   7.381  1.3025  0.7954 -1.0398
 2978TIP3    H230570   1.567   4.121   7.341 -0.3029 -0.2040  0.6996
 2979TIP3   OH230571   1.802   6.259   1.013  0.0198  0.4323 -0.3669
 2979TIP3    H130572   1.831   6.319   0.945 -0.6037  0.7783 -0.3373
 2979TIP3    H230573   1.882   6.216   1.043  0.4374  1.0599 -0.5654
 2980TIP3   OH230574   2.846   2.866   6.747 -0.5545  0.7881  0.2458
 2980TIP3    H130575   2.897   2.791   6.775 -1.2903  0.4142  0.6188
 2980TIP3    H230576   2.834   2.918   6.827  0.2075  1.4709 -0.0670
 2981TIP3   OH230577   1.095   4.894   0.896  0.2672  0.5459 -0.1544
 2981TIP3    H130578   1.186   4.913   0.920  1.8408 -3.7300 -1.7568
 2981TIP3    H230579   1.063   4.838   0.966 -0.3178  0.1732 -0.7093
 2982TIP3   OH230580   2.062   6.945   6.680  0.5909  0.3356 -0.0828
 2982TIP3    H130581   2.094   6.998   6.607  1.6229  2.2033  1.6333
 2982TIP3    H230582   2.076   6.855   6.652  1.8707  1.0051 -1.7800
 2983TIP3   OH230583   5.497   6.827   6.855  0.4538 -0.0481  0.1547
 2983TIP3    H130584   5.536   6.878   6.784 -1.7797  1.9981  0.2456
 2983TIP3    H230585   5.425   6.780   6.814 -0.3283  0.4889  0.8767
 2984TIP3   OH230586   0.250   3.786   8.032 -0.1118 -0.4679 -0.7376
 2984TIP3    H130587   0.248   3.851   8.103  2.1808 -0.8887 -0.2132
 2984TIP3    H230588   0.175   3.809   7.977 -1.4786  0.3979  1.3416
 2985TIP3   OH230589   1.693   3.607   7.195  0.1894  0.3275 -0.5259
 2985TIP3    H130590   1.618   3.565   7.152  0.8499 -0.9481 -0.4870
 2985TIP3    H230591   1.669   3.612   7.287 -0.1742  0.6586 -0.6392
 2986TIP3   OH230592   6.191   5.618   6.813 -0.1486  0.2062  0.4278
 2986TIP3    H130593   6.148   5.672   6.747 -1.8544 -0.9763  0.5020
 2986TIP3    H230594   6.212   5.536   6.767 -1.3378 -0.6211  1.2968
 2987TIP3   OH230595   2.271   6.003   0.508  0.4002 -0.3055  0.1200
 2987TIP3    H130596   2.351   5.952   0.497  0.3586 -0.5070  0.7017
 2987TIP3    H230597   2.249   6.034   0.420 -0.6853 -2.9194 -0.6379
 2988TIP3   OH230598   6.083   4.773   8.299 -0.2698  0.4881  0.1248
 2988TIP3    H130599   6.152   4.735   8.244  0.1981  0.3262  0.8012
 2988TIP3    H230600   6.045   4.698   8.344  0.2475  0.7378  1.0100
 2989TIP3   OH230601   4.621   3.338   6.639  0.5249 -0.2082  0.5493
 2989TIP3    H130602   4.568   3.307   6.565 -0.3887 -2.6335  2.0783
 2989TIP3    H230603   4.693   3.385   6.599 -1.2753  0.7901 -1.7514
 2990TIP3   OH230604   6.661   3.041   0.855 -0.1153  0.1167 -0.5094
 2990TIP3    H130605   6.664   3.120   0.909 -0.8764  0.8095 -1.4468
 2990TIP3    H230606   6.748   3.036   0.815  0.3550 -0.2433  0.5279
 2991TIP3   OH230607   0.904   4.722   0.528 -0.3760  0.4967 -0.1790
 2991TIP3    H130608   0.976   4.680   0.576  0.2804 -0.9873 -2.2724
 2991TIP3    H230609   0.825   4.690   0.571  0.1811 -0.5063  0.1509
 2992TIP3   OH230610   2.001   3.215   2.071 -0.2105 -0.2234 -0.2561
 2992TIP3    H130611   1.992   3.252   2.159 -1.3439 -1.0818  0.0077
 2992TIP3    H230612   1.962   3.128   2.078  1.0000 -0.8683 -1.2520
 2993TIP3   OH230613   5.660   4.849   6.432 -0.2996 -0.9056 -0.0703
 2993TIP3    H130614   5.681   4.938   6.405 -2.4808 -0.3343 -0.0883
 2993TIP3    H230615   5.744   4.804   6.437  0.8848  1.2545  0.3405
 2994TIP3   OH230616   2.200   6.910   2.210  0.1246  0.2344  0.3236
 2994TIP3    H130617   2.110   6.897   2.240 -0.1826  0.7067 -0.3637
 2994TIP3    H230618   2.216   6.837   2.150 -0.5888  1.3213 -1.2694
 2995TIP3   OH230619   0.337   4.668   1.672 -0.3418  0.0902 -0.6339
 2995TIP3    H130620   0.267   4.641   1.613 -1.0950  0.2715  0.1545
 2995TIP3    H230621   0.338   4.601   1.740 -1.8695  1.6648  1.0543
 2996TIP3   OH230622   0.022   6.867   7.868 -0.4105  0.4589  0.2564
 2996TIP3    H130623   0.092   6.814   7.830 -1.1790  0.1286 -0.7368
 2996TIP3    H230624   0.055   6.957   7.864 -0.3830  0.4029 -1.0058
 2997TIP3   OH230625   0.389   4.774   0.399  0.5851  0.3357 -0.4764
 2997TIP3    H130626   0.445   4.826   0.457 -0.9208 -0.1406  1.5098
 2997TIP3    H230627   0.331   4.838   0.358  0.4964  0.4977 -0.0994
 2998TIP3   OH230628   2.751   5.535   6.370  0.1475  0.2021 -0.3123
 2998TIP3    H130629   2.713   5.477   6.304 -1.3699  1.1452 -0.2995
 2998TIP3    H230630   2.762   5.619   6.325  0.9964  0.3110  0.0762
 2999TIP3   OH230631   5.030   6.036   1.300  0.6157 -0.0660  0.7201
 2999TIP3    H130632   4.998   6.023   1.389  0.8309  1.0536  0.9827
 2999TIP3    H230633   5.026   6.131   1.287  3.0876  0.0689  0.4866
 3000TIP3   OH230634   6.713   0.438   0.977  0.7139 -0.0017  0.5347
 3000TIP3    H130635   6.623   0.405   0.975 -0.1015  2.0651 -1.0650
 3000TIP3    H230636   6.754   0.398   0.901  0.3424  0.9932 -0.2117
 3001TIP3   OH230637   3.677   6.581   6.506  0.1429  0.0656 -0.8627
 3001TIP3    H130638   3.710   6.665   6.473  1.2468  0.5671  1.3274
 3001TIP3    H230639   3.598   6.604   6.555 -0.0660 -0.3229 -1.0126
 3002TIP3   OH230640   4.747   3.129   7.789  0.4907  0.0682  0.1410
 3002TIP3    H130641   4.811   3.108   7.857  2.2124  2.4264 -0.6133
 3002TIP3    H230642   4.751   3.225   7.781 -0.8932  0.0150 -2.0951
 3003TIP3   OH230643   1.905   0.259   1.617 -0.3260 -0.5222 -0.1919
 3003TIP3    H130644   1.909   0.242   1.523  0.8733 -1.2977 -0.0336
 3003TIP3    H230645   1.988   0.303   1.637 -0.1642 -1.1645  0.6259
 3004TIP3   OH230646   2.513   1.979   8.108 -0.2145 -0.0154  0.3408
 3004TIP3    H130647   2.522   2.041   8.180 -0.0237 -0.1347  0.4234
 3004TIP3    H230648   2.464   2.026   8.041  0.4590  0.4378  0.1581
 3005TIP3   OH230649   4.020   4.210   7.768 -0.3616 -0.1480  0.0783
 3005TIP3    H130650   4.111   4.184   7.778 -0.2914  0.2169  0.4634
 3005TIP3    H230651   4.021   4.276   7.698 -0.6225 -1.5576 -1.2946
 3006TIP3   OH230652   5.117   1.502   6.556 -0.6735 -0.0999 -0.0059
 3006TIP3    H130653   5.178   1.547   6.615  0.5516  0.2123 -1.4421
 3006TIP3    H230654   5.076   1.573   6.507 -0.9636 -0.4003 -0.1949
 3007TIP3   OH230655   3.095   1.505   6.784 -0.7131  0.1560 -0.3244
 3007TIP3    H130656   3.062   1.532   6.870  0.6855  0.8155  0.0269
 3007TIP3    H230657   3.073   1.577   6.726  0.9129  1.0541  0.1170
 3008TIP3   OH230658   3.445   2.062   6.397  0.5328 -0.1125  0.3365
 3008TIP3    H130659   3.390   2.061   6.475  2.0126  3.3884  1.6164
 3008TIP3    H230660   3.399   2.120   6.336  0.4482 -1.1236 -0.5979
 3009TIP3   OH230661   1.777   6.696   0.998  0.9888  0.3764  0.2471
 3009TIP3    H130662   1.855   6.660   1.042  1.1777 -0.2956 -0.6015
 3009TIP3    H230663   1.787   6.668   0.907 -1.8170 -2.4988  0.6583
 3010TIP3   OH230664   0.025   5.262   7.438 -0.0894 -0.2973 -0.3346
 3010TIP3    H130665   0.015   5.314   7.359 -0.3746 -0.5941 -0.5006
 3010TIP3    H230666   0.104   5.296   7.481  0.2695 -0.3756 -0.9305
 3011TIP3   OH230667   4.146   1.236   7.120 -0.4528 -0.1237 -0.1373
 3011TIP3    H130668   4.208   1.286   7.068 -0.7130 -1.1832 -1.5185
 3011TIP3    H230669   4.174   1.145   7.111 -1.6674 -0.5255 -0.0442
 3012TIP3   OH230670   0.745   2.448   7.602 -0.1802  0.1139  0.0230
 3012TIP3    H130671   0.829   2.484   7.631  0.0728 -1.6507  1.7490
 3012TIP3    H230672   0.731   2.373   7.660 -1.2581 -1.7664 -2.5161
 3013TIP3   OH230673   0.054   6.749   0.583 -0.1542 -0.1880 -0.0040
 3013TIP3    H130674   0.030   6.773   0.493  0.2773 -0.0813 -0.0909
 3013TIP3    H230675  -0.004   6.676   0.604 -0.7466  0.2424 -0.1168
 3014TIP3   OH230676   2.547   0.984   1.084 -0.0506 -0.5751 -0.3831
 3014TIP3    H130677   2.476   1.047   1.093  1.1800  0.7309  0.8630
 3014TIP3    H230678   2.513   0.917   1.025 -0.9035  2.0048 -3.0632
 3015TIP3   OH230679   4.678   3.283   0.895  0.3411  0.4184  0.2354
 3015TIP3    H130680   4.669   3.343   0.821  1.3918 -0.2080 -0.4163
 3015TIP3    H230681   4.688   3.340   0.971  0.0904  1.0672 -0.2123
 3016TIP3   OH230682   1.815   6.363   6.312  0.4004  0.3685  0.5953
 3016TIP3    H130683   1.782   6.415   6.238 -0.1883 -1.5088 -0.5522
 3016TIP3    H230684   1.758   6.286   6.314  1.2839 -0.2984  2.1527
 3017TIP3   OH230685   6.490   4.990   8.236  0.0098  0.0654 -0.1929
 3017TIP3    H130686   6.537   5.041   8.302  0.5328 -0.7510  0.0846
 3017TIP3    H230687   6.485   4.902   8.273 -1.0719 -0.0497 -0.5594
 3018TIP3   OH230688   4.050   3.399   1.578 -0.2635 -0.4596 -0.3119
 3018TIP3    H130689   4.141   3.422   1.560  0.1701 -2.2633 -0.6691
 3018TIP3    H230690   3.999   3.464   1.531  0.8484  0.2820 -0.5382
 3019TIP3   OH230691   3.305   0.422   7.850 -0.0227 -0.1773 -0.2174
 3019TIP3    H130692   3.385   0.374   7.830 -0.3274 -0.8092  0.0222
 3019TIP3    H230693   3.330   0.514   7.847  0.3543 -0.3078 -1.6559
 3020TIP3   OH230694   5.882   4.249   5.864  0.1964 -0.1474  0.1004
 3020TIP3    H130695   5.892   4.154   5.874 -0.4869 -0.1779  0.5100
 3020TIP3    H230696   5.909   4.285   5.948  0.7147  0.0447 -0.1450
 3021TIP3   OH230697   0.381   4.950   6.993  0.6937 -0.5023 -0.3536
 3021TIP3    H130698   0.309   4.934   6.931 -0.2756  1.3281  0.2254
 3021TIP3    H230699   0.457   4.966   6.937  0.0236  0.2729 -1.0784
 3022TIP3   OH230700   0.063   0.563   7.624 -0.1084 -0.2329  0.2066
 3022TIP3    H130701   0.108   0.502   7.567  0.6848 -0.4242  1.0144
 3022TIP3    H230702   0.113   0.644   7.617  1.1953 -0.8088  2.0856
 3023TIP3   OH230703   2.006   0.797   7.672  0.1726 -0.3115 -0.0141
 3023TIP3    H130704   2.071   0.842   7.618 -1.2904  0.6158 -1.1067
 3023TIP3    H230705   2.004   0.847   7.754  1.0899 -0.5811  0.1799
 3024TIP3   OH230706   3.574   1.692   7.327 -0.0544  0.3028 -0.2092
 3024TIP3    H130707   3.538   1.766   7.375  1.2485 -0.2633  1.7526
 3024TIP3    H230708   3.512   1.620   7.343  0.6208 -0.0198  1.1362
 3025TIP3   OH230709   0.774   2.115   1.563  0.4179 -0.4594 -0.5631
 3025TIP3    H130710   0.801   2.148   1.477  1.6887  0.2380  0.0723
 3025TIP3    H230711   0.832   2.159   1.625  0.1496 -1.6461  0.5847
 3026TIP3   OH230712   1.801   3.050   7.881 -0.4672 -0.3685 -0.2797
 3026TIP3    H130713   1.745   3.070   7.806 -1.7310 -0.3211  0.6474
 3026TIP3    H230714   1.745   2.999   7.940 -0.1569  1.3135  1.5612
 3027TIP3   OH230715   3.386   4.676   6.380  0.4165 -0.0412  0.0180
 3027TIP3    H130716   3.456   4.621   6.344  1.0387  1.2008 -0.7363
 3027TIP3    H230717   3.419   4.701   6.466 -0.9717 -2.8237  1.4836
 3028TIP3   OH230718   2.755   3.141   7.636  0.5008  0.2178  0.3574
 3028TIP3    H130719   2.812   3.171   7.565  0.1230  0.1808  0.0350
 3028TIP3    H230720   2.698   3.076   7.596 -1.2179  1.7891  0.1222
 3029TIP3   OH230721   2.810   3.101   2.059  0.8767  0.4169  0.0420
 3029TIP3    H130722   2.807   3.195   2.046  2.4277  0.6647  1.2136
 3029TIP3    H230723   2.900   3.083   2.084  0.6415 -1.4032 -0.2805
 3030TIP3   OH230724   3.848   6.366   6.529  0.7965 -0.2762 -0.4728
 3030TIP3    H130725   3.794   6.432   6.486  0.3370 -1.0899 -1.1575
 3030TIP3    H230726   3.832   6.379   6.623  0.8725  0.7077 -0.5846
 3031TIP3   OH230727   3.216   3.488   1.830 -0.0718  0.5540 -0.5726
 3031TIP3    H130728   3.133   3.489   1.878  0.1463 -1.0485 -0.1205
 3031TIP3    H230729   3.270   3.424   1.876  1.7571  2.1452 -0.3448
 3032TIP3   OH230730   1.745   6.315   0.527 -0.1776  0.0264  0.2412
 3032TIP3    H130731   1.672   6.262   0.498 -1.0694  1.3093  0.0576
 3032TIP3    H230732   1.823   6.263   0.505 -0.9494 -0.5281 -1.3359
 3033TIP3   OH230733   2.444   3.957   0.853 -0.1112  0.3031  0.0420
 3033TIP3    H130734   2.410   4.012   0.924 -1.2129  2.5290 -2.0465
 3033TIP3    H230735   2.536   3.981   0.846 -0.8358  3.1344 -1.6834
 3034TIP3   OH230736   1.503   2.960   6.427  0.8235 -0.5819 -0.0313
 3034TIP3    H130737   1.424   2.943   6.377  0.9201  0.8078 -0.7001
 3034TIP3    H230738   1.510   2.886   6.488 -1.0497 -0.6509  0.1465
 3035TIP3   OH230739   4.785   3.618   0.257  0.3108 -0.2302  0.6733
 3035TIP3    H130740   4.823   3.706   0.259 -0.6087  0.1721  1.4951
 3035TIP3    H230741   4.716   3.622   0.191  0.9953 -0.6592 -0.0775
 3036TIP3   OH230742   1.284   3.764   2.308 -0.5749 -0.0122 -0.1205
 3036TIP3    H130743   1.327   3.700   2.365 -0.6169 -1.4850 -1.6581
 3036TIP3    H230744   1.193   3.735   2.304 -0.9243  0.9833  0.2546
 3037TIP3   OH230745   6.502   6.710   0.593 -0.0917 -0.6214  0.0636
 3037TIP3    H130746   6.466   6.713   0.682 -0.5076 -0.2635 -0.1113
 3037TIP3    H230747   6.429   6.677   0.540 -0.2697  0.3921 -0.3431
 3038TIP3   OH230748   4.519   5.284   1.423 -1.0322  0.1715  0.3551
 3038TIP3    H130749   4.589   5.256   1.364 -0.4659  0.9391  0.6477
 3038TIP3    H230750   4.549   5.259   1.510 -1.9137 -1.0556  0.3348
 3039TIP3   OH230751   4.610   0.287   7.011  0.5692 -0.3520  0.1128
 3039TIP3    H130752   4.639   0.289   6.920  2.3160  0.9943  0.6354
 3039TIP3    H230753   4.555   0.210   7.017 -2.6469  1.3927 -2.9599
 3040TIP3   OH230754   6.521   1.727   8.014  0.1586 -0.1526 -0.4331
 3040TIP3    H130755   6.518   1.721   7.918  2.0194  0.5336 -0.5750
 3040TIP3    H230756   6.563   1.811   8.032 -1.6494  0.4997  1.0444
 3041TIP3   OH230757   5.049   6.281   7.784 -0.6591 -0.0124  0.3178
 3041TIP3    H130758   5.117   6.216   7.802 -2.1923 -1.2693  2.0071
 3041TIP3    H230759   5.075   6.358   7.835 -0.1232 -0.2104  0.3466
 3042TIP3   OH230760   0.933   1.533   6.587  0.1412  0.1215 -0.0175
 3042TIP3    H130761   0.889   1.524   6.503 -0.3687  0.6773  0.1820
 3042TIP3    H230762   1.022   1.502   6.571 -0.0855 -0.2403 -0.6326
 3043TIP3   OH230763   2.593   0.076   8.459 -0.2199 -0.0427 -0.4372
 3043TIP3    H130764   2.536   0.124   8.399 -1.5156 -0.7033  0.2131
 3043TIP3    H230765   2.677   0.071   8.413 -1.0828 -0.3086 -2.0815
 3044TIP3   OH230766   2.054   4.463   0.344  0.0955 -0.1608 -0.2900
 3044TIP3    H130767   1.968   4.428   0.366 -0.4579  1.4078  0.1420
 3044TIP3    H230768   2.068   4.536   0.404  1.1474  0.4600 -1.2225
 3045TIP3   OH230769   5.024   2.413   7.418 -0.4623 -0.6471  0.1319
 3045TIP3    H130770   4.958   2.481   7.402  0.7317 -0.0666 -3.2406
 3045TIP3    H230771   5.098   2.460   7.455 -0.0957 -0.2539 -1.0345
 3046TIP3   OH230772   4.631   4.800   6.976 -0.3743 -0.2764 -0.1636
 3046TIP3    H130773   4.625   4.788   6.881  0.0318  0.5148 -0.3006
 3046TIP3    H230774   4.616   4.894   6.988 -2.0650 -0.6144  0.7072
 3047TIP3   OH230775   6.375   4.123   6.972 -0.3099  0.0536  0.2285
 3047TIP3    H130776   6.421   4.115   6.889  1.5903  0.5258  1.1931
 3047TIP3    H230777   6.342   4.213   6.973  0.5906  0.3885  0.4261
 3048TIP3   OH230778   0.714   4.444   2.325 -0.4812 -0.1461 -0.0655
 3048TIP3    H130779   0.701   4.366   2.379 -0.8782  1.3768  2.1890
 3048TIP3    H230780   0.790   4.488   2.364  0.3200  0.1866 -1.8677
 3049TIP3   OH230781   0.877   2.345   6.764 -0.1633 -0.1079 -0.1181
 3049TIP3    H130782   0.960   2.297   6.769  1.0500  1.9962  1.4263
 3049TIP3    H230783   0.900   2.428   6.723 -2.2187 -0.6950 -2.7767
 3050TIP3   OH230784   1.227   4.360   0.450  0.0149 -0.0885 -0.0360
 3050TIP3    H130785   1.224   4.424   0.521 -0.2673 -0.4257  0.2544
 3050TIP3    H230786   1.318   4.329   0.450 -0.0678 -0.3435  0.4083
 3051TIP3   OH230787   4.821   3.068   6.558  0.3015 -0.6143  0.4041
 3051TIP3    H130788   4.780   2.990   6.595 -1.3515  0.7930  1.6992
 3051TIP3    H230789   4.847   3.120   6.634  1.6475  0.0018 -0.4322
 3052TIP3   OH230790   6.739   0.348   1.477 -0.3001  0.6001 -0.2784
 3052TIP3    H130791   6.814   0.310   1.432 -0.0742  1.4679 -0.6536
 3052TIP3    H230792   6.778   0.406   1.543 -0.6047  2.5186 -1.7189
 3053TIP3   OH230793   5.953   0.796   7.647  0.3856  0.0221  0.1920
 3053TIP3    H130794   6.010   0.864   7.612 -0.4892  0.0258 -1.3300
 3053TIP3    H230795   5.991   0.773   7.732  2.4769  0.1922 -0.6604
 3054TIP3   OH230796   2.283   2.412   8.128  0.7382 -0.6621  0.2219
 3054TIP3    H130797   2.262   2.332   8.175  2.1833 -0.1708  1.8194
 3054TIP3    H230798   2.368   2.395   8.088 -0.2503 -0.9024 -1.9449
 3055TIP3   OH230799   0.126   5.560   0.028  0.6364 -0.1484 -0.4996
 3055TIP3    H130800   0.165   5.553   0.114  0.7337  0.2533 -0.5082
 3055TIP3    H230801   0.093   5.650   0.024  1.4083  0.1177 -1.2045
 3056TIP3   OH230802   3.077   6.932   0.851 -0.7958  0.1544 -0.0017
 3056TIP3    H130803   3.134   6.983   0.908 -2.0427  2.0945 -0.3751
 3056TIP3    H230804   3.022   6.881   0.911  0.0254 -0.2811  0.3997
 3057TIP3   OH230805   1.100   2.405   0.316  0.1102  0.4216 -0.2813
 3057TIP3    H130806   1.069   2.350   0.244 -0.6617 -0.3541  0.6148
 3057TIP3    H230807   1.041   2.481   0.315  1.0473  1.1602 -1.3906
 3058TIP3   OH230808   5.248   1.456   0.828 -0.5463  0.2423 -0.0190
 3058TIP3    H130809   5.284   1.375   0.794 -0.9496 -0.3671  0.9755
 3058TIP3    H230810   5.303   1.525   0.790  0.8052 -0.5747  0.4003
 3059TIP3   OH230811   2.415   2.047   8.486  0.1899 -0.1544 -0.0316
 3059TIP3    H130812   2.382   1.959   8.467  0.5824 -0.1898 -0.5666
 3059TIP3    H230813   2.403   2.057   8.581  0.5177 -0.9426  0.1031
 3060TIP3   OH230814   1.733   0.669   1.812 -0.6280  0.2907 -0.2197
 3060TIP3    H130815   1.738   0.762   1.791  0.8453  0.2538 -0.1923
 3060TIP3    H230816   1.649   0.658   1.856 -0.9351  1.5576 -0.4505
 3061TIP3   OH230817   5.500   4.299   1.758 -0.3597 -0.1554  0.3670
 3061TIP3    H130818   5.415   4.322   1.794 -0.4402  2.1611 -1.1005
 3061TIP3    H230819   5.492   4.318   1.664  1.7234  0.0006  0.1725
 3062TIP3   OH230820   4.075   3.558   7.569  0.5184 -0.6264  0.4753
 3062TIP3    H130821   4.012   3.502   7.615  0.2137  1.1969  2.4503
 3062TIP3    H230822   4.153   3.557   7.625  1.0083 -0.1727 -0.1860
 3063TIP3   OH230823   1.764   1.455   6.837  0.4929 -0.1702 -0.0030
 3063TIP3    H130824   1.732   1.500   6.758 -0.2037  0.5838  0.6915
 3063TIP3    H230825   1.743   1.363   6.821 -2.3315  0.2715  0.4819
 3064TIP3   OH230826   4.712   4.354   7.746 -0.1221 -0.5363  0.3692
 3064TIP3    H130827   4.640   4.377   7.687 -0.8115 -0.0012  1.4056
 3064TIP3    H230828   4.684   4.272   7.787  0.7906 -1.4453 -0.7298
 3065TIP3   OH230829   0.461   5.294   6.685  0.0132 -0.3896 -0.2783
 3065TIP3    H130830   0.468   5.199   6.680 -1.4038 -0.5182 -0.3175
 3065TIP3    H230831   0.413   5.319   6.606 -0.9899  0.1715  0.4715
 3066TIP3   OH230832   0.384   6.306   0.667 -0.4118 -0.3161  0.6212
 3066TIP3    H130833   0.448   6.371   0.698 -0.9368 -0.9092  3.2211
 3066TIP3    H230834   0.438   6.230   0.644  0.0154  0.1641 -0.0098
 3067TIP3   OH230835   3.409   3.610   7.064  0.2183 -0.3096 -0.4160
 3067TIP3    H130836   3.494   3.573   7.083  0.4844 -0.3503 -1.6257
 3067TIP3    H230837   3.428   3.692   7.017 -0.3949 -0.7524 -1.4736
 3068TIP3   OH230838   4.556   4.952   8.373  0.4184 -0.2510  0.5020
 3068TIP3    H130839   4.550   5.038   8.415  0.4062 -0.2845  0.5687
 3068TIP3    H230840   4.490   4.955   8.303 -0.6748 -0.7596  1.4832
 3069TIP3   OH230841   0.883   1.318   0.082 -1.2190 -0.0206 -0.4270
 3069TIP3    H130842   0.938   1.396   0.072 -2.1710  0.9855  1.6097
 3069TIP3    H230843   0.919   1.273   0.158 -1.3119 -1.0475 -0.9748
 3070TIP3   OH230844   6.488   6.827   7.667  0.1547 -0.0216 -0.4357
 3070TIP3    H130845   6.547   6.902   7.665 -0.6447  0.6481  0.2974
 3070TIP3    H230846   6.423   6.846   7.599 -1.5469  1.2650  1.4290
 3071TIP3   OH230847   5.332   2.376   1.883 -0.4813  0.3368  0.1081
 3071TIP3    H130848   5.331   2.450   1.822 -0.3742  0.6132  0.4398
 3071TIP3    H230849   5.369   2.412   1.964  1.9935 -0.6386 -0.4768
 3072TIP3   OH230850   0.429   6.929   7.356 -0.1495 -0.0961  0.3155
 3072TIP3    H130851   0.516   6.898   7.331  0.0026  0.0694  0.6222
 3072TIP3    H230852   0.395   6.861   7.414 -0.2770 -0.2213  0.0936
 3073TIP3   OH230853   3.300   6.690   8.249 -0.2419 -0.4946 -0.2772
 3073TIP3    H130854   3.214   6.732   8.254 -1.2714 -2.4803 -0.3120
 3073TIP3    H230855   3.353   6.750   8.197 -0.7091  2.1539  2.0343
 3074TIP3   OH230856   0.186   2.495   5.989  0.0636  0.2377  0.2661
 3074TIP3    H130857   0.152   2.548   5.917 -0.6240  0.0307  0.4341
 3074TIP3    H230858   0.113   2.486   6.050  0.7178  0.6607  1.1448
 3075TIP3   OH230859   1.977   1.335   6.547  0.2687 -0.6643  0.0387
 3075TIP3    H130860   1.972   1.266   6.480 -3.3857  0.4643 -1.1226
 3075TIP3    H230861   1.974   1.416   6.496  1.3263  0.3107  1.4858
 3076TIP3   OH230862   4.610   0.277   0.264 -0.1603  0.7327  0.0388
 3076TIP3    H130863   4.542   0.250   0.202 -0.1294 -1.0488  0.7395
 3076TIP3    H230864   4.683   0.218   0.246  0.5941  1.5267  0.4357
 3077TIP3   OH230865   1.320   5.590   6.959 -0.2750 -0.0162 -0.1740
 3077TIP3    H130866   1.343   5.587   6.866 -0.3965  0.2304 -0.2124
 3077TIP3    H230867   1.404   5.591   7.005 -0.1327 -3.0184 -0.1591
 3078TIP3   OH230868   1.418   1.431   1.855 -0.3961 -0.5714 -0.2270
 3078TIP3    H130869   1.420   1.339   1.827  0.0977 -0.4961 -0.4429
 3078TIP3    H230870   1.383   1.427   1.944  1.2145 -1.1515  0.4167
 3079TIP3   OH230871   5.282   5.821   7.608  0.0456  0.2959  0.1865
 3079TIP3    H130872   5.365   5.816   7.560 -0.6017  0.6951 -0.9895
 3079TIP3    H230873   5.248   5.908   7.589 -1.2503 -0.3073 -0.3495
 3080TIP3   OH230874   1.332   0.124   1.693 -0.0539 -0.7179  0.5160
 3080TIP3    H130875   1.287   0.040   1.685 -1.4136 -0.2080  2.2468
 3080TIP3    H230876   1.425   0.101   1.697 -0.3609 -2.0797  0.3487
 3081TIP3   OH230877   4.632   2.397   7.330 -0.1001 -0.1092 -0.1001
 3081TIP3    H130878   4.660   2.479   7.369 -1.4616 -0.0839  0.8995
 3081TIP3    H230879   4.547   2.416   7.290 -0.1339 -0.8765 -0.4304
 3082TIP3   OH230880   6.191   0.702   1.808  0.4942  0.1432  0.3599
 3082TIP3    H130881   6.276   0.674   1.771  0.8881  0.2946  1.1434
 3082TIP3    H230882   6.149   0.620   1.835  1.4734  0.2180  2.2709
 3083TIP3   OH230883   2.451   5.413   6.726 -0.1916  0.4840  0.0824
 3083TIP3    H130884   2.361   5.411   6.758 -0.2807 -0.8081 -0.2188
 3083TIP3    H230885   2.442   5.428   6.632 -0.0469  1.2395  0.1826
 3084TIP3   OH230886   4.888   5.040   0.810  0.8156  0.3965  0.4893
 3084TIP3    H130887   4.799   5.060   0.839  1.3785  1.6298  1.4569
 3084TIP3    H230888   4.915   4.966   0.865 -0.0748 -0.9218 -0.7716
 3085TIP3   OH230889   4.305   3.854   6.467  0.0908 -0.1986 -0.2605
 3085TIP3    H130890   4.377   3.816   6.417  0.5074 -1.2325  1.0727
 3085TIP3    H230891   4.286   3.936   6.422  3.5576  1.2369  0.5432
 3086TIP3   OH230892   1.954   2.176   2.633 -0.3298 -0.4309 -0.3609
 3086TIP3    H130893   1.889   2.129   2.685 -1.1323  1.2046  0.1849
 3086TIP3    H230894   1.919   2.173   2.543 -1.8901  1.4706  0.1027
 3087TIP3   OH230895   4.762   6.121   8.047 -0.6292 -0.2380 -0.5357
 3087TIP3    H130896   4.772   6.207   8.088 -0.6070  0.0272 -1.0833
 3087TIP3    H230897   4.845   6.107   8.001  0.6243 -1.8910  1.9615
 3088TIP3   OH230898   6.653   2.055   0.429  0.2729  0.1429  0.5492
 3088TIP3    H130899   6.603   1.990   0.478  0.0556 -0.0761  0.0454
 3088TIP3    H230900   6.744   2.029   0.439  0.2545  0.2476  1.0440
 3089TIP3   OH230901   6.360   0.848   6.882 -0.1767  0.1589 -0.1773
 3089TIP3    H130902   6.354   0.823   6.790  1.0003 -0.2774 -0.1531
 3089TIP3    H230903   6.343   0.942   6.882 -0.2934  0.1449 -0.8342
 3090TIP3   OH230904   3.672   6.404   7.312 -0.6287  0.2019 -0.4706
 3090TIP3    H130905   3.731   6.331   7.292  0.9239  1.3719 -0.3400
 3090TIP3    H230906   3.612   6.406   7.238 -1.1234 -1.5895 -0.1758
 3091TIP3   OH230907   5.748   6.845   8.085  0.1132 -0.1047 -0.2081
 3091TIP3    H130908   5.711   6.885   8.006  1.2312 -2.6511 -2.1666
 3091TIP3    H230909   5.843   6.848   8.072  0.3065 -0.8739  0.8915
 3092TIP3   OH230910   6.603   3.798   0.690  0.8230 -0.1712 -0.3273
 3092TIP3    H130911   6.649   3.715   0.700  1.1382 -0.1566 -1.5194
 3092TIP3    H230912   6.671   3.865   0.698  1.0096 -0.1442 -1.9481
 3093TIP3   OH230913   2.392   3.432   8.237  0.3936 -0.2124  0.2083
 3093TIP3    H130914   2.438   3.435   8.320 -0.2229  0.8280  0.5346
 3093TIP3    H230915   2.421   3.511   8.191 -1.3653  0.7132  0.6106
 3094TIP3   OH230916   2.283   2.579   8.502  0.2593 -0.1770 -0.0047
 3094TIP3    H130917   2.353   2.644   8.496 -0.8769  1.0639 -0.4726
 3094TIP3    H230918   2.327   2.497   8.524  1.9545  0.3729 -1.1533
 3095TIP3   OH230919   2.275   5.759   1.684  0.1286 -0.4109  0.0194
 3095TIP3    H130920   2.356   5.719   1.651  0.0661  0.6483 -1.5205
 3095TIP3    H230921   2.250   5.822   1.616 -0.8063  0.8728  1.5020
 3096TIP3   OH230922   5.935   2.396   6.504 -0.4192 -0.1276 -0.0302
 3096TIP3    H130923   5.918   2.381   6.411 -1.0388  0.0703  0.0460
 3096TIP3    H230924   5.936   2.491   6.513 -0.8701 -0.1466  0.2515
 3097TIP3   OH230925   2.836   0.076   2.538  0.2028 -0.3348 -0.3661
 3097TIP3    H130926   2.898   0.111   2.475  0.4755 -0.2734 -0.0673
 3097TIP3    H230927   2.890   0.041   2.609 -0.1057  0.2242  0.1602
 3098TIP3   OH230928   6.215   3.783   6.930  0.0432 -0.7313  0.4601
 3098TIP3    H130929   6.239   3.853   6.870  0.0578 -1.2436 -0.1404
 3098TIP3    H230930   6.299   3.744   6.956  0.1442  0.4020  1.9565
 3099TIP3   OH230931   1.011   0.280   7.513  0.5483  0.2790 -0.1466
 3099TIP3    H130932   1.087   0.291   7.457  2.2232  1.4881  2.1724
 3099TIP3    H230933   0.957   0.358   7.497 -1.2306 -1.3533 -3.0202
 3100TIP3   OH230934   1.905   4.233   6.805  0.2080 -0.0717  0.4071
 3100TIP3    H130935   1.959   4.195   6.736 -0.0733  0.6212 -0.2190
 3100TIP3    H230936   1.838   4.167   6.823  1.0755 -0.8108  0.9746
 3101TIP3   OH230937   4.248   3.936   0.649 -0.0454  0.6272 -0.0011
 3101TIP3    H130938   4.184   3.996   0.612  0.7310  2.0503  0.8729
 3101TIP3    H230939   4.216   3.917   0.737 -1.0767 -1.5052 -0.7793
 3102TIP3   OH230940   4.941   3.916   7.461 -0.0025 -0.4078  0.6159
 3102TIP3    H130941   5.010   3.980   7.477  0.7044 -1.3443  1.4680
 3102TIP3    H230942   4.984   3.831   7.474 -0.7709 -1.0951 -0.9942
 3103TIP3   OH230943   4.299   1.154   6.890  0.0213 -0.1534  0.1602
 3103TIP3    H130944   4.337   1.090   6.951  1.0087 -0.4669 -0.7456
 3103TIP3    H230945   4.361   1.227   6.891 -0.0019 -0.1209 -0.3769
 3104TIP3   OH230946   3.216   0.446   8.337  0.0645 -0.7557  0.0132
 3104TIP3    H130947   3.231   0.416   8.248  0.5829  1.0010 -0.5373
 3104TIP3    H230948   3.123   0.468   8.340  0.8516  3.9750 -1.8003
 3105TIP3   OH230949   5.465   6.138   1.384  0.2919  0.0438  0.4777
 3105TIP3    H130950   5.409   6.096   1.319  0.2405  1.6163 -0.5484
 3105TIP3    H230951   5.541   6.080   1.391 -0.6816 -1.2536  0.6441
 3106TIP3   OH230952   4.779   5.313   2.445  0.3815 -0.2629 -0.2585
 3106TIP3    H130953   4.837   5.271   2.509  1.7230 -0.8935 -1.8127
 3106TIP3    H230954   4.837   5.370   2.393 -0.3484 -0.8870 -1.8385
 3107TIP3   OH230955   0.705   4.946   8.314  1.0301 -0.1104 -0.0205
 3107TIP3    H130956   0.777   5.001   8.343  0.7541 -0.3015  1.0662
 3107TIP3    H230957   0.658   4.923   8.395 -0.6935  0.6309 -0.7429
 3108TIP3   OH230958   0.729   0.191   7.136  0.7978 -0.2583  0.0418
 3108TIP3    H130959   0.638   0.162   7.125  0.7513  0.2726 -1.0791
 3108TIP3    H230960   0.748   0.174   7.228  0.3477 -2.5775 -0.2256
 3109TIP3   OH230961   2.463   5.787   1.442 -0.4397  0.4672  0.2881
 3109TIP3    H130962   2.508   5.744   1.514 -0.0367  1.0272  0.3712
 3109TIP3    H230963   2.528   5.790   1.371 -1.0306 -0.6770 -0.3433
 3110TIP3   OH230964   3.120   0.093   0.554 -0.8985  0.3939 -0.4315
 3110TIP3    H130965   3.053   0.045   0.504 -1.8879  1.6168 -0.3299
 3110TIP3    H230966   3.088   0.091   0.644 -0.2720  0.1175 -0.2157
 3111TIP3   OH230967   3.823   5.077   1.142 -0.3589  0.2611  0.1388
 3111TIP3    H130968   3.768   5.154   1.151  1.4543  1.3781  2.7534
 3111TIP3    H230969   3.805   5.024   1.219  0.3531 -0.6352 -0.2754
 3112TIP3   OH230970   5.013   3.538   1.514 -0.0801  0.4042  0.8114
 3112TIP3    H130971   4.995   3.444   1.517 -1.9214  0.6780 -0.5127
 3112TIP3    H230972   4.940   3.578   1.561 -1.5111  1.3793 -2.0699
 3113TIP3   OH230973   1.584   3.250   6.301 -0.0921  0.3572 -0.4786
 3113TIP3    H130974   1.668   3.252   6.257 -0.1424  0.5773 -0.5684
 3113TIP3    H230975   1.568   3.157   6.320  0.1318  0.3084 -0.5311
 3114TIP3   OH230976   2.453   3.283   1.592 -0.2282 -0.5823  0.0556
 3114TIP3    H130977   2.507   3.342   1.538  0.8874 -2.3736 -0.9018
 3114TIP3    H230978   2.409   3.227   1.528 -1.5664 -0.5586  0.9284
 3115TIP3   OH230979   0.136   4.839   6.188 -0.2547  0.0554 -0.1689
 3115TIP3    H130980   0.132   4.864   6.096  1.4551 -0.7174 -0.5010
 3115TIP3    H230981   0.192   4.761   6.189  2.1955  1.6853  1.8019
 3116TIP3   OH230982   4.393   1.974   6.528  0.1773 -0.1542 -0.0668
 3116TIP3    H130983   4.428   1.903   6.474 -2.1714 -0.8953 -0.7208
 3116TIP3    H230984   4.360   2.039   6.465  0.8362  0.7948  0.5291
 3117TIP3   OH230985   3.993   6.005   7.596  0.0738 -0.2107 -0.1817
 3117TIP3    H130986   3.920   6.063   7.620 -0.2585 -0.4461 -0.5978
 3117TIP3    H230987   4.067   6.038   7.646 -0.0251  0.7841 -0.6723
 3118TIP3   OH230988   1.165   2.312   1.486  0.3939 -0.9742  0.5328
 3118TIP3    H130989   1.170   2.237   1.427  0.4370 -0.1331 -0.5629
 3118TIP3    H230990   1.164   2.274   1.574  0.2003 -2.2560 -0.0101
 3119TIP3   OH230991   2.417   3.466   2.027  0.4529  0.5656  0.1716
 3119TIP3    H130992   2.390   3.456   1.936  1.1687 -1.9136  0.1575
 3119TIP3    H230993   2.350   3.419   2.077  1.5722 -0.6199  0.6225
 3120TIP3   OH230994   4.139   5.457   8.465  0.2353 -0.1170 -0.0085
 3120TIP3    H130995   4.173   5.369   8.444  0.0132 -0.6150  1.6024
 3120TIP3    H230996   4.212   5.501   8.508  0.2113  0.3626 -0.4449
 3121TIP3   OH230997   0.838   5.094   7.632  0.0394  0.3350  0.2681
 3121TIP3    H130998   0.912   5.050   7.589  0.2281  0.1746  0.7388
 3121TIP3    H230999   0.856   5.083   7.726 -0.8299 -0.1263  0.3912
 3122TIP3   OH231000   1.695   2.096   0.345 -0.0499 -0.1466  0.1072
 3122TIP3    H131001   1.710   2.167   0.408  0.4808 -0.6940  0.6121
 3122TIP3    H231002   1.751   2.025   0.376  1.9986  0.3177 -2.2708
 3123TIP3   OH231003   2.025   2.847   0.740 -0.2686 -0.3438  0.1425
 3123TIP3    H131004   2.021   2.815   0.650  0.4331 -3.1348  1.0112
 3123TIP3    H231005   2.060   2.935   0.733 -0.7230 -0.3046 -2.3378
 3124TIP3   OH231006   6.493   1.412   0.133 -0.0483 -0.1440  0.4371
 3124TIP3    H131007   6.540   1.329   0.144 -0.8520 -0.6306  0.2671
 3124TIP3    H231008   6.420   1.407   0.195 -0.3938  0.2146  0.0622
 3125TIP3   OH231009   2.247   4.325   6.597 -0.6255  0.2584  0.3441
 3125TIP3    H131010   2.260   4.335   6.503 -0.9303  1.8861  0.4533
 3125TIP3    H231011   2.165   4.276   6.605 -0.6430  0.1915 -0.2225
 3126TIP3   OH231012   2.272   2.006   7.279  0.3137  0.2007 -0.1921
 3126TIP3    H131013   2.343   2.064   7.305 -0.8643  1.5721  0.0613
 3126TIP3    H231014   2.231   1.979   7.361 -0.0020  0.1116 -0.3774
 3127TIP3   OH231015   1.266   4.515   6.379  0.3196 -0.1471 -0.4595
 3127TIP3    H131016   1.218   4.470   6.309 -1.8957 -0.2694  1.0371
 3127TIP3    H231017   1.235   4.606   6.374  0.3464 -0.1020  0.1947
 3128TIP3   OH231018   4.538   1.504   6.279  0.1192 -0.5546  0.2225
 3128TIP3    H131019   4.603   1.513   6.349 -0.0766 -0.1584  0.3584
 3128TIP3    H231020   4.518   1.411   6.276  1.0675 -0.7603 -0.1605
 3129TIP3   OH231021   4.530   5.343   6.368  0.2224 -0.0029 -0.5019
 3129TIP3    H131022   4.579   5.281   6.315  1.1558  0.4496 -0.1872
 3129TIP3    H231023   4.537   5.427   6.322  2.5049  0.8048  1.1048
 3130TIP3   OH231024   1.097   0.570   0.781 -0.1056  0.2861 -0.7484
 3130TIP3    H131025   1.092   0.594   0.874 -1.2083  2.0463 -1.2308
 3130TIP3    H231026   1.011   0.532   0.762  0.2041 -0.2995 -1.0141
 3131TIP3   OH231027   3.281   2.065   8.491 -0.3837  0.2875  0.3923
 3131TIP3    H131028   3.268   2.006   8.417 -0.6108  1.0649 -0.1945
 3131TIP3    H231029   3.356   2.028   8.539 -0.9989 -0.8925  0.4656
 3132TIP3   OH231030   0.483   4.946   6.043 -0.0098 -0.1642  0.4382
 3132TIP3    H131031   0.458   4.882   5.977 -0.0811  1.1561 -0.8645
 3132TIP3    H231032   0.465   4.903   6.126 -1.0007 -1.4452 -0.3994
 3133TIP3   OH231033   2.407   2.101   1.592  0.1690  0.2082  0.5957
 3133TIP3    H131034   2.316   2.111   1.619 -0.5722 -1.8403 -0.8590
 3133TIP3    H231035   2.423   2.175   1.533 -1.0722 -0.2112 -0.3083
 3134TIP3   OH231036   6.894   2.142   1.791 -0.6453  0.1980 -0.0962
 3134TIP3    H131037   6.922   2.228   1.821  0.8093  0.0766 -1.0139
 3134TIP3    H231038   6.850   2.158   1.708 -1.3602  0.1533  0.2647
 3135TIP3   OH231039   4.625   3.338   7.152 -0.1641  0.2030  0.1836
 3135TIP3    H131040   4.609   3.285   7.074 -0.0382 -2.3395  1.7557
 3135TIP3    H231041   4.720   3.343   7.158 -0.0296 -2.3319  1.7388
 3136TIP3   OH231042   1.434   0.645   1.773  0.5850 -0.7157 -0.3556
 3136TIP3    H131043   1.364   0.635   1.837  2.2246 -3.2945  1.2045
 3136TIP3    H231044   1.401   0.601   1.694 -0.5181  0.3682 -0.5175
 3137TIP3   OH231045   2.535   0.184   1.873 -0.5544  0.3455  0.2447
 3137TIP3    H131046   2.474   0.237   1.822  0.8608  2.0162  0.1968
 3137TIP3    H231047   2.525   0.215   1.963 -0.3385  0.0659  0.3690
 3138TIP3   OH231048   3.727   1.527   6.391  0.1547 -0.1522  0.0880
 3138TIP3    H131049   3.663   1.507   6.460  1.1610  0.6971  1.3019
 3138TIP3    H231050   3.767   1.442   6.371 -0.7662 -0.5555 -0.1067
 3139TIP3   OH231051   2.440   0.269   1.149 -0.0044  0.4192 -0.1459
 3139TIP3    H131052   2.505   0.311   1.205  0.2035 -0.4313  0.2702
 3139TIP3    H231053   2.357   0.283   1.194  0.0736  0.3481  0.0217
 3140TIP3   OH231054   2.694   4.102   7.804 -0.3743  0.0256  0.1820
 3140TIP3    H131055   2.641   4.022   7.797  0.8044 -0.7857  0.2992
 3140TIP3    H231056   2.663   4.143   7.884 -1.7479  0.2694 -0.4450
 3141TIP3   OH231057   5.267   4.891   1.763 -0.3434 -0.6329  0.1065
 3141TIP3    H131058   5.254   4.890   1.668 -0.8126 -0.6215  0.1707
 3141TIP3    H231059   5.294   4.981   1.782 -0.7151 -0.5110  0.0479
 3142TIP3   OH231060   2.892   6.279   1.168 -0.0150 -0.4550 -0.1934
 3142TIP3    H131061   2.978   6.239   1.181  0.1718 -0.1377 -0.4466
 3142TIP3    H231062   2.890   6.301   1.075  0.2774  1.0310  0.1198
 3143TIP3   OH231063   0.137   1.683   0.538  0.3370 -0.1346 -0.7201
 3143TIP3    H131064   0.209   1.744   0.550 -0.0122  0.3468 -1.0349
 3143TIP3    H231065   0.168   1.620   0.473  0.9512 -0.7053  0.1068
 3144TIP3   OH231066   5.792   0.589   2.471  0.3880  0.1749 -0.2928
 3144TIP3    H131067   5.764   0.524   2.407  0.0569 -0.9713  0.9787
 3144TIP3    H231068   5.829   0.538   2.543  0.9651  1.4393  0.3383
 3145TIP3   OH231069   1.037   1.772   7.308 -0.1862 -0.4768  0.2462
 3145TIP3    H131070   0.964   1.711   7.304  1.4782 -2.5341 -0.5697
 3145TIP3    H231071   1.062   1.785   7.217 -0.7038  1.7807  0.3641
 3146TIP3   OH231072   1.824   2.595   8.235  0.1461 -0.2776 -0.0174
 3146TIP3    H131073   1.877   2.666   8.270 -1.6698  0.9483  0.3662
 3146TIP3    H231074   1.879   2.517   8.244  2.2629  1.0553 -0.6064
 3147TIP3   OH231075   0.935   2.627   0.231  0.1754  0.5084  0.2145
 3147TIP3    H131076   0.916   2.700   0.290 -1.9418  0.5677 -0.4649
 3147TIP3    H231077   0.888   2.649   0.150  2.6022  0.2057 -1.3801
 3148TIP3   OH231078   5.063   2.234   0.853  0.0299  0.4901  0.0792
 3148TIP3    H131079   5.117   2.187   0.916  0.3015  0.2634 -0.3182
 3148TIP3    H231080   5.101   2.322   0.848  0.4045  0.3105 -0.2498
 3149TIP3   OH231081   1.042   5.348   0.627  0.0453  0.0139  0.6450
 3149TIP3    H131082   1.037   5.298   0.546 -0.2330  1.5235 -0.2962
 3149TIP3    H231083   0.951   5.370   0.647  0.1572  0.0520  1.1256
 3150TIP3   OH231084   4.133   4.923   0.760 -0.1867  0.4294  0.4514
 3150TIP3    H131085   4.147   4.978   0.682  1.1670  0.6901  0.8440
 3150TIP3    H231086   4.047   4.883   0.746  0.3043 -0.0794 -1.5254
 3151TIP3   OH231087   4.489   4.962   6.491  0.1049  0.1232  0.4939
 3151TIP3    H131088   4.431   5.028   6.531 -1.4637 -0.1289 -1.2262
 3151TIP3    H231089   4.570   5.009   6.472  0.1699  0.7359  2.0883
 3152TIP3   OH231090   5.459   6.695   7.292 -0.1569 -0.3565  0.8994
 3152TIP3    H131091   5.541   6.678   7.338 -0.6062  0.0113  1.8548
 3152TIP3    H231092   5.441   6.613   7.245  0.9399 -0.3101  0.3633
 3153TIP3   OH231093   2.476   1.498   1.471 -0.4894  0.1472  0.1121
 3153TIP3    H131094   2.516   1.454   1.546 -0.7640 -1.2486 -0.5263
 3153TIP3    H231095   2.544   1.497   1.403 -1.0761 -0.9166 -0.4891
 3154TIP3   OH231096   0.642   5.439   6.832  0.2258 -0.2925  0.3484
 3154TIP3    H131097   0.725   5.416   6.789  0.2319 -3.1666  1.6223
 3154TIP3    H231098   0.575   5.417   6.768  0.3723 -0.1393  0.1405
 3155TIP3   OH231099   6.078   2.361   2.018 -0.1708 -0.2463 -0.4893
 3155TIP3    H131100   6.156   2.307   2.009  0.6741  0.8154  0.1135
 3155TIP3    H231101   6.075   2.384   2.111 -1.0860 -0.1054 -0.5437
 3156TIP3   OH231102   5.809   6.621   8.429 -0.2071  0.0962  0.5321
 3156TIP3    H131103   5.813   6.525   8.431 -0.6243  0.0470 -0.5013
 3156TIP3    H231104   5.718   6.641   8.409 -0.3508  0.7521  1.7181
 3157TIP3   OH231105   3.819   0.845   1.480 -0.4357  0.3621 -0.1155
 3157TIP3    H131106   3.888   0.899   1.441 -0.2178  1.6673  1.9079
 3157TIP3    H231107   3.739   0.895   1.465 -0.6714 -0.2015 -0.7650
 3158TIP3   OH231108   0.447   2.686   8.446  0.0524  0.0970  0.9452
 3158TIP3    H131109   0.360   2.656   8.419  0.2553  0.9110 -0.7102
 3158TIP3    H231110   0.478   2.740   8.373  2.5218 -1.2998  0.8379
 3159TIP3   OH231111   3.245   1.733   7.172  0.7391 -0.7109 -0.3964
 3159TIP3    H131112   3.225   1.736   7.266 -0.5865 -2.3275 -0.5787
 3159TIP3    H231113   3.246   1.824   7.144  0.3162 -0.2489  1.0174
 3160TIP3   OH231114   2.325   4.271   2.067 -0.1196 -1.0906 -0.2094
 3160TIP3    H131115   2.398   4.227   2.024  0.3736 -2.3529  1.8125
 3160TIP3    H231116   2.295   4.209   2.133  0.3916  1.4023  2.5597
 3161TIP3   OH231117   3.251   3.290   7.340 -0.1968  0.0935  0.0305
 3161TIP3    H131118   3.231   3.362   7.280  3.6722  1.4913  0.1175
 3161TIP3    H231119   3.280   3.332   7.420 -1.4646 -1.7090  1.5153
 3162TIP3   OH231120   3.581   2.776   2.105  0.0062  0.1084 -0.0187
 3162TIP3    H131121   3.676   2.788   2.102  0.2783 -1.3198  1.4535
 3162TIP3    H231122   3.547   2.861   2.136  0.9590  0.1669  0.9211
 3163TIP3   OH231123   4.837   3.273   1.668 -0.1438  0.0619 -0.0071
 3163TIP3    H131124   4.782   3.344   1.701 -0.5119  1.4175 -3.1480
 3163TIP3    H231125   4.845   3.213   1.741 -1.6453  2.2620  2.1315
 3164TIP3   OH231126   5.773   4.040   6.614 -0.0671  0.1282 -0.4106
 3164TIP3    H131127   5.721   4.038   6.534 -1.6301 -0.0090  0.5785
 3164TIP3    H231128   5.862   4.018   6.584 -0.6776 -0.3157 -2.0385
 3165TIP3   OH231129   1.915   1.087   7.550 -0.0009 -0.2198 -0.1188
 3165TIP3    H131130   1.864   1.161   7.517 -1.0382 -1.0490 -0.4189
 3165TIP3    H231131   1.858   1.045   7.614  0.9289 -0.2587  0.7041
 3166TIP3   OH231132   3.931   2.443   7.961  0.1821 -0.1161  0.3812
 3166TIP3    H131133   3.885   2.364   7.988  0.1065  0.1267  0.9574
 3166TIP3    H231134   4.023   2.425   7.981 -0.0432  0.6709  2.3169
 3167TIP3   OH231135   1.337   4.511   1.659  0.0337  0.3163  0.6315
 3167TIP3    H131136   1.383   4.429   1.640  0.6396  0.4778  1.3232
 3167TIP3    H231137   1.362   4.531   1.749 -0.0470  1.3046  0.4419
 3168TIP3   OH231138   2.014   0.872   1.237  0.2454 -0.5680 -0.2789
 3168TIP3    H131139   1.942   0.855   1.298 -0.4065 -0.4191 -1.0037
 3168TIP3    H231140   2.092   0.838   1.282 -0.3955 -1.4823  0.1575
 3169TIP3   OH231141   5.704   5.802   7.929  0.6357 -0.4214 -0.5943
 3169TIP3    H131142   5.740   5.749   8.000  0.3443 -1.8285 -1.4653
 3169TIP3    H231143   5.655   5.740   7.874 -1.1962  1.0427 -0.7135
 3170TIP3   OH231144   5.330   1.557   7.422 -0.7954 -0.9755 -0.8611
 3170TIP3    H131145   5.303   1.626   7.361 -0.3517 -0.6656 -0.7148
 3170TIP3    H231146   5.416   1.585   7.452 -1.2408 -0.8405  0.3279
 3171TIP3   OH231147   5.744   0.503   1.395 -0.3560  0.3304 -0.0309
 3171TIP3    H131148   5.791   0.553   1.462  0.8167  0.2207 -0.7525
 3171TIP3    H231149   5.699   0.570   1.343 -0.3383  0.4983  0.1683
 3172TIP3   OH231150   1.781   4.047   0.536 -0.4881  0.9275 -0.2343
 3172TIP3    H131151   1.801   4.127   0.585  0.2149  1.6105 -1.5730
 3172TIP3    H231152   1.855   3.989   0.553 -0.4854  0.9722 -0.0966
 3173TIP3   OH231153   1.348   3.105   1.515 -0.6404 -0.0772  0.0478
 3173TIP3    H131154   1.347   3.129   1.608 -0.1983  0.9438 -0.2026
 3173TIP3    H231155   1.270   3.147   1.479  0.3030  1.3125 -0.4556
 3174TIP3   OH231156   0.277   4.111   1.551 -0.1341 -0.5106 -0.6078
 3174TIP3    H131157   0.224   4.151   1.482  0.0321  0.6686 -0.0717
 3174TIP3    H231158   0.305   4.184   1.606 -1.1922 -1.5304  1.3915
 3175TIP3   OH231159   5.585   2.504   7.349 -0.0111 -0.0598  0.2681
 3175TIP3    H131160   5.542   2.580   7.310 -1.2696 -1.0692 -0.4364
 3175TIP3    H231161   5.655   2.481   7.288 -1.2966 -0.9885 -0.9427
 3176TIP3   OH231162   0.528   2.173   1.494 -0.0882 -0.0105  0.6867
 3176TIP3    H131163   0.464   2.186   1.564  0.3075  2.8705  0.6369
 3176TIP3    H231164   0.613   2.180   1.537  0.1606  1.8843 -0.0040
 3177TIP3   OH231165   6.792   0.288   0.705 -0.0009  0.0881 -0.3979
 3177TIP3    H131166   6.709   0.243   0.716 -0.3352  0.5956 -0.7803
 3177TIP3    H231167   6.832   0.246   0.629  0.3183 -0.4774  0.0726
 3178TIP3   OH231168   4.594   4.466   1.614 -0.4681 -0.2481  0.1084
 3178TIP3    H131169   4.674   4.455   1.666 -1.0161  1.4824  1.4377
 3178TIP3    H231170   4.619   4.530   1.547 -0.7508  0.4164  0.6239
 3179TIP3   OH231171   2.577   2.466   8.203  0.2368 -0.7382  0.8461
 3179TIP3    H131172   2.559   2.509   8.119  0.5841 -0.8428  0.7145
 3179TIP3    H231173   2.587   2.538   8.265  1.1355 -0.6060  0.5635
 3180TIP3   OH231174   1.254   5.879   7.042  0.0440 -0.0331  0.0488
 3180TIP3    H131175   1.192   5.871   6.970  0.2950 -1.8257 -0.0129
 3180TIP3    H231176   1.321   5.813   7.023  0.7009  0.2296  1.3505
 3181TIP3   OH231177   0.896   3.478   0.841 -0.2047 -0.8065 -0.2583
 3181TIP3    H131178   0.922   3.537   0.911  0.3165  0.7124 -1.6720
 3181TIP3    H231179   0.820   3.520   0.801  0.2921 -0.9818 -1.4110
 3182TIP3   OH231180   1.037   3.999   1.500  0.3194  0.4388 -0.0024
 3182TIP3    H131181   0.970   4.061   1.530 -0.0791  0.7613 -1.4660
 3182TIP3    H231182   1.113   4.055   1.480  0.2774  0.3428 -0.4304
 3183TIP3   OH231183   0.615   0.234   6.836  0.2080 -0.5881  0.1119
 3183TIP3    H131184   0.580   0.237   6.747  1.1908  0.6818 -0.2480
 3183TIP3    H231185   0.706   0.207   6.825  0.5965  0.4806  0.6442
 3184TIP3   OH231186   2.100   1.072   0.637 -0.1031  0.1118 -0.2652
 3184TIP3    H131187   2.066   0.983   0.646  0.2156 -0.0010 -0.1654
 3184TIP3    H231188   2.041   1.126   0.689 -2.0783  0.4198 -2.6430
 3185TIP3   OH231189   4.296   4.017   6.968 -0.0187  0.1249 -0.5820
 3185TIP3    H131190   4.329   3.971   6.891  0.2027 -1.7990  0.5845
 3185TIP3    H231191   4.204   3.992   6.974  0.5809 -1.9311  1.1904
 3186TIP3   OH231192   6.271   1.208   1.084  0.8166 -0.1965  0.1641
 3186TIP3    H131193   6.268   1.283   1.025  0.5962 -0.6969 -0.4706
 3186TIP3    H231194   6.289   1.133   1.028 -3.2463 -1.3215  0.0546
 3187TIP3   OH231195   0.545   2.276   5.975 -0.1852  0.6927  0.3146
 3187TIP3    H131196   0.594   2.203   5.938 -0.8904  0.1523  0.4059
 3187TIP3    H231197   0.556   2.348   5.912  3.7239  1.8533  2.0347
 3188TIP3   OH231198   5.213   3.022   0.063 -0.1108 -0.0198  0.1067
 3188TIP3    H131199   5.260   3.018   0.146  0.3751 -0.1913 -0.1754
 3188TIP3    H231200   5.127   2.985   0.082  0.2760 -0.8155  0.3364
 3189TIP3   OH231201   0.416   6.529   0.958 -0.1982 -0.6250  0.0364
 3189TIP3    H131202   0.323   6.532   0.936 -0.3356  0.4439  0.7006
 3189TIP3    H231203   0.460   6.517   0.874 -0.9476 -1.4646 -0.2487
 3190TIP3   OH231204   5.246   0.563   7.104  0.3080 -0.6927  0.0025
 3190TIP3    H131205   5.231   0.470   7.090  0.8882 -0.7474 -0.2891
 3190TIP3    H231206   5.338   0.576   7.082 -0.0797  0.1802 -1.2668
 3191TIP3   OH231207   6.869   4.468   1.388 -0.6175 -0.4514 -1.6194
 3191TIP3    H131208   6.871   4.543   1.329 -0.1659  0.5183 -0.4329
 3191TIP3    H231209   6.784   4.474   1.431  0.7312  1.5933  1.0922
 3192TIP3   OH231210   4.059   0.466   1.633 -0.2561 -0.3928 -0.6543
 3192TIP3    H131211   4.048   0.437   1.724 -1.1498 -0.5289 -0.7968
 3192TIP3    H231212   4.154   0.480   1.624 -0.3977  2.7915  1.2589
 3193TIP3   OH231213   0.079   4.289   7.994 -0.0008  0.3523 -0.0857
 3193TIP3    H131214   0.151   4.312   8.053  1.5139 -4.8661  0.6505
 3193TIP3    H231215   0.004   4.277   8.052  0.3347 -0.4878  0.1991
 3194TIP3   OH231216   4.809   6.788   0.031  0.0524  0.0165  0.5663
 3194TIP3    H131217   4.752   6.725   0.077  1.5738 -3.2336 -1.6245
 3194TIP3    H231218   4.750   6.832  -0.030 -0.8580 -0.1377  1.3002
 3195TIP3   OH231219   5.350   0.668   1.724 -0.3586 -0.1277 -0.1166
 3195TIP3    H131220   5.341   0.602   1.654  1.3491 -1.0617  0.4796
 3195TIP3    H231221   5.281   0.646   1.786 -0.7669 -0.3881 -0.6457
 3196TIP3   OH231222   3.681   6.563   0.499 -0.3996 -0.1924  0.0945
 3196TIP3    H131223   3.731   6.580   0.580 -0.8390  0.4936  0.2228
 3196TIP3    H231224   3.660   6.649   0.465 -1.2049 -0.4814 -0.1484
 3197TIP3   OH231225   6.859   1.146   0.960 -0.1164  0.2420  0.6697
 3197TIP3    H131226   6.827   1.065   0.920  0.3329  0.2351  0.3180
 3197TIP3    H231227   6.838   1.214   0.896 -1.3453  0.5538  1.3725
 3198TIP3   OH231228   4.338   1.122   7.908  0.1732 -0.9261 -0.2190
 3198TIP3    H131229   4.391   1.116   7.987 -0.5767 -0.9371  0.2896
 3198TIP3    H231230   4.276   1.193   7.926 -0.5687 -1.5048 -0.4483
 3199TIP3   OH231231   2.251   2.896   1.584  0.2199  0.0075 -0.6735
 3199TIP3    H131232   2.167   2.905   1.631  0.3726 -0.1465 -0.3645
 3199TIP3    H231233   2.269   2.802   1.587 -0.4387 -0.2077 -2.2377
 3200TIP3   OH231234   3.094   1.562   7.432  0.0532  0.1372 -0.1917
 3200TIP3    H131235   3.032   1.566   7.505 -0.0571 -0.9526 -0.2047
 3200TIP3    H231236   3.040   1.574   7.354  0.1317  1.0189 -0.1218
 3201TIP3   OH231237   0.452   3.719   1.314  0.5179 -0.0215 -0.1152
 3201TIP3    H131238   0.450   3.633   1.355 -2.8097  0.8221  1.8361
 3201TIP3    H231239   0.364   3.754   1.327  0.4766  2.1187 -4.3587
 3202TIP3   OH231240   4.940   1.331   0.232 -0.0046  0.2277 -0.3224
 3202TIP3    H131241   4.986   1.413   0.215 -2.0126  1.1919 -1.4490
 3202TIP3    H231242   4.867   1.330   0.170 -0.3388 -2.2068 -0.0244
 3203TIP3   OH231243   4.934   3.535   7.389 -0.0386 -0.4744 -0.3007
 3203TIP3    H131244   4.992   3.610   7.401  0.5461 -0.7946 -1.0379
 3203TIP3    H231245   4.896   3.519   7.475 -0.6744  1.0702 -0.2680
 3204TIP3   OH231246   4.427   6.363   7.079  0.3620 -0.9498  0.0042
 3204TIP3    H131247   4.522   6.374   7.080  0.5070 -1.1261 -2.8750
 3204TIP3    H231248   4.392   6.452   7.077  0.6086 -0.8569 -1.0885
 3205TIP3   OH231249   3.222   6.317   0.374 -0.1914 -0.1422  0.2586
 3205TIP3    H131250   3.180   6.281   0.452 -1.8385  1.4776  0.1821
 3205TIP3    H231251   3.308   6.346   0.405 -0.9932  0.9108  1.6465
 3206TIP3   OH231252   6.062   0.594   6.800 -0.0327 -0.5322  0.2938
 3206TIP3    H131253   6.111   0.565   6.877  0.8403  0.8366  0.2881
 3206TIP3    H231254   6.129   0.602   6.731  0.1394  2.9270  0.6977
 3207TIP3   OH231255   3.010   3.574   8.050  0.3354 -0.4934 -1.1167
 3207TIP3    H131256   3.093   3.607   8.016 -0.6251  1.2654 -1.9375
 3207TIP3    H231257   3.008   3.602   8.141  0.3554  0.1025 -1.2937
 3208TIP3   OH231258   6.251   0.466   0.460 -0.4649  0.3609  0.3297
 3208TIP3    H131259   6.323   0.468   0.396 -0.0188  1.0480  0.8432
 3208TIP3    H231260   6.295   0.467   0.545 -1.0851  0.6671  0.6483
 3209TIP3   OH231261   6.437   5.606   1.723  0.2509 -0.3298  0.4132
 3209TIP3    H131262   6.438   5.665   1.798  0.8286  0.8570 -0.5074
 3209TIP3    H231263   6.422   5.662   1.648 -0.7790 -1.5613 -0.3457
 3210TIP3   OH231264   1.783   4.297   0.182 -0.4902 -0.1088 -0.2017
 3210TIP3    H131265   1.781   4.347   0.264 -0.7473  1.5677 -1.1794
 3210TIP3    H231266   1.806   4.208   0.209 -0.6173  0.3809  1.6895
 3211TIP3   OH231267   2.694   0.958   6.144  0.4451  0.6547  0.2887
 3211TIP3    H131268   2.764   1.010   6.106  0.4021  0.2328 -0.3858
 3211TIP3    H231269   2.647   0.923   6.069  0.1525  0.0743  0.7349
 3212TIP3   OH231270   4.213   5.134   7.707  0.4856 -0.3131 -0.0517
 3212TIP3    H131271   4.141   5.190   7.734 -0.3555 -2.0582  1.4755
 3212TIP3    H231272   4.292   5.185   7.728 -0.2488  0.6175  0.5147
 3213TIP3   OH231273   3.971   2.824   6.791  0.0218  0.3989 -0.2828
 3213TIP3    H131274   4.057   2.865   6.781  0.3134 -0.5265 -1.8271
 3213TIP3    H231275   3.913   2.898   6.811  0.5298  1.6638 -2.9650
 3214TIP3   OH231276   4.182   2.559   7.961 -0.0441  0.0497 -0.2678
 3214TIP3    H131277   4.247   2.594   7.900 -0.3653  0.6544 -0.2742
 3214TIP3    H231278   4.112   2.624   7.960 -0.2986 -0.2146  0.3325
 3215TIP3   OH231279   1.741   3.793   0.255  0.0090  0.6167  0.0708
 3215TIP3    H131280   1.830   3.792   0.291 -0.3187  1.5807  0.9483
 3215TIP3    H231281   1.684   3.793   0.331 -0.6920  3.7430 -0.3039
 3216TIP3   OH231282   2.593   2.007   6.973 -0.2589  0.3170 -0.0394
 3216TIP3    H131283   2.641   1.924   6.976 -0.9130 -0.0685  2.3304
 3216TIP3    H231284   2.557   2.011   6.885 -0.9012 -2.3653  0.0062
 3217TIP3   OH231285   1.318   6.677   7.681 -0.7078 -0.5861 -0.3062
 3217TIP3    H131286   1.410   6.669   7.706 -0.6015 -0.4406 -0.6380
 3217TIP3    H231287   1.288   6.587   7.668 -0.5016 -0.6164 -0.5827
 3218TIP3   OH231288   5.678   0.113   0.875 -0.7678 -0.5464 -0.2615
 3218TIP3    H131289   5.664   0.022   0.848 -1.5521 -0.7873  0.8762
 3218TIP3    H231290   5.754   0.110   0.932 -1.7998 -0.8069  1.1642
 3219TIP3   OH231291   2.595   0.818   8.232 -0.7667  0.2527  0.0962
 3219TIP3    H131292   2.653   0.854   8.165 -1.1043 -2.3505 -1.7416
 3219TIP3    H231293   2.652   0.761   8.284 -0.7019  1.5718  1.5577
 3220TIP3   OH231294   4.450   5.759   6.957  0.7302  0.2244 -0.3490
 3220TIP3    H131295   4.484   5.823   7.020 -0.5360  0.0942  0.5011
 3220TIP3    H231296   4.513   5.761   6.885  2.4418  0.1133  1.0576
 3221TIP3   OH231297   6.258   2.191   1.712 -0.3853  0.4199 -0.0642
 3221TIP3    H131298   6.196   2.118   1.718 -0.6709  0.6885  0.3628
 3221TIP3    H231299   6.341   2.151   1.689 -0.5002 -0.0606  0.3443
 3222TIP3   OH231300   4.493   2.841   1.791 -0.1207  0.1471 -0.1283
 3222TIP3    H131301   4.547   2.885   1.856 -1.1754  3.1657 -1.0901
 3222TIP3    H231302   4.403   2.859   1.818 -0.5729  0.2136 -1.5548
 3223TIP3   OH231303   4.245   3.323   1.108  0.5289 -0.8548 -0.1069
 3223TIP3    H131304   4.262   3.238   1.068  0.2573 -0.1204 -1.8672
 3223TIP3    H231305   4.292   3.385   1.053  0.9108  0.1223  1.2851
 3224TIP3   OH231306   1.370   3.882   1.631  0.0325  0.7991 -0.0730
 3224TIP3    H131307   1.376   3.898   1.536 -2.1366  0.7541 -0.2510
 3224TIP3    H231308   1.373   3.970   1.669 -1.0059  0.9473 -0.3201
 3225TIP3   OH231309   4.655   4.072   7.835  0.0322  0.0133 -0.5809
 3225TIP3    H131310   4.723   4.015   7.872 -0.8526 -0.0731  0.9739
 3225TIP3    H231311   4.611   4.017   7.769 -0.2672 -0.8441  0.3070
 3226TIP3   OH231312   1.332   2.658   1.872 -0.2017 -0.0943 -0.9875
 3226TIP3    H131313   1.263   2.713   1.834  0.3198  0.5689 -0.9835
 3226TIP3    H231314   1.385   2.718   1.923  1.4629 -0.2368 -2.4667
 3227TIP3   OH231315   3.052   6.869   1.378 -0.4260  0.0461  0.3426
 3227TIP3    H131316   3.000   6.788   1.372  0.1253 -0.3098  0.2510
 3227TIP3    H231317   3.143   6.840   1.364 -0.3363  0.8561 -0.9659
 3228TIP3   OH231318   3.725   6.911   8.241 -0.6400 -0.5809  0.1136
 3228TIP3    H131319   3.774   6.829   8.237 -0.4293 -0.4679  0.3450
 3228TIP3    H231320   3.669   6.902   8.318 -0.9301 -0.6794 -0.1069
 3229TIP3   OH231321   0.145   3.781   2.182 -0.2734 -0.5544  0.0213
 3229TIP3    H131322   0.224   3.816   2.224 -0.0343 -0.7004 -0.3025
 3229TIP3    H231323   0.088   3.755   2.255  0.4645 -1.5444  0.2576
 3230TIP3   OH231324   4.791   0.714   7.450 -0.2331 -0.2682  0.5292
 3230TIP3    H131325   4.867   0.658   7.469  0.8867  1.3513  1.0368
 3230TIP3    H231326   4.793   0.724   7.354 -0.1838 -0.7316  0.4779
 3231TIP3   OH231327   6.247   6.767   1.618  0.1914  0.5515 -0.0940
 3231TIP3    H131328   6.310   6.724   1.675 -0.1150  0.6654  0.3314
 3231TIP3    H231329   6.300   6.822   1.561  0.5657 -0.1802 -0.4687
 3232TIP3   OH231330   0.376   0.672   8.421  0.0673  0.7940  0.7789
 3232TIP3    H131331   0.443   0.719   8.371 -1.7802  1.5827 -1.1126
 3232TIP3    H231332   0.379   0.583   8.385  0.7967  0.5356  1.4573
 3233TIP3   OH231333   0.162   3.773   0.222 -0.4581 -0.1035 -0.6784
 3233TIP3    H131334   0.176   3.683   0.193 -0.2679 -0.1350 -0.4884
 3233TIP3    H231335   0.069   3.776   0.245 -0.1555 -0.6616  0.7131
 3234TIP3   OH231336   4.019   1.084   8.096 -0.5115  0.0184 -0.6292
 3234TIP3    H131337   3.949   1.024   8.122 -0.6376  0.4198 -0.0254
 3234TIP3    H231338   4.096   1.028   8.087 -0.4342 -0.1325  0.7285
 3235TIP3   OH231339   6.734   6.762   8.503  0.5661  0.6216 -0.0299
 3235TIP3    H131340   6.726   6.675   8.543  1.1886  0.9894  0.9076
 3235TIP3    H231341   6.755   6.743   8.411  0.7620 -0.2272  0.1747
 3236TIP3   OH231342   6.613   2.219   0.673 -1.0755  0.0852  0.5190
 3236TIP3    H131343   6.580   2.170   0.748 -2.7967  0.7895  0.2563
 3236TIP3    H231344   6.626   2.153   0.605 -0.1666 -0.4551  1.1923
 3237TIP3   OH231345   6.756   6.214   6.988 -0.6550 -0.0474 -0.0235
 3237TIP3    H131346   6.764   6.161   6.908 -0.6764 -0.0188 -0.0445
 3237TIP3    H231347   6.807   6.167   7.053 -0.2769  0.1550 -0.1704
 3238TIP3   OH231348   3.642   3.802   2.637 -0.0227  0.7781 -0.1518
 3238TIP3    H131349   3.641   3.867   2.707  0.8424 -0.6682  1.2659
 3238TIP3    H231350   3.551   3.798   2.607 -0.5769  0.8487  1.4544
 3239TIP3   OH231351   6.650   0.941   0.715 -0.8596 -0.2513 -0.4650
 3239TIP3    H131352   6.641   0.853   0.753  1.5447 -0.8075 -1.0528
 3239TIP3    H231353   6.740   0.945   0.684 -1.0614  2.2752 -0.9195
 3240TIP3   OH231354   2.870   1.413   8.419  0.1131  0.6471  0.3307
 3240TIP3    H131355   2.953   1.367   8.401  0.7104  1.1509  1.6316
 3240TIP3    H231356   2.870   1.487   8.359 -0.4681 -0.5611 -1.2140
 3241TIP3   OH231357   1.119   6.811   0.005  0.3127  0.4312 -0.2967
 3241TIP3    H131358   1.044   6.864   0.031 -0.1219  0.1959 -1.0403
 3241TIP3    H231359   1.161   6.788   0.088 -0.6442  0.2647  0.1678
 3242TIP3   OH231360   0.330   6.025   2.224  0.5900  0.5329  0.1047
 3242TIP3    H131361   0.298   6.112   2.250  1.7273  0.8233  0.6054
 3242TIP3    H231362   0.425   6.031   2.234  0.8809 -0.1393 -1.8010
 3243TIP3   OH231363   6.429   5.971   7.125  0.2797 -0.0397  0.4962
 3243TIP3    H131364   6.444   6.047   7.182  1.6999 -1.9310  2.8334
 3243TIP3    H231365   6.333   5.964   7.119  0.1213  1.5487  0.7123
 3244TIP3   OH231366   0.682   3.113   6.628  0.2764  0.3394 -0.2088
 3244TIP3    H131367   0.735   3.075   6.557 -0.7110 -1.3479 -0.0884
 3244TIP3    H231368   0.648   3.194   6.590  1.8313  0.7766 -0.7517
 3245TIP3   OH231369   6.560   2.322   1.021 -0.3408  0.1200  0.4402
 3245TIP3    H131370   6.628   2.317   0.954 -1.0545  0.6450 -0.3474
 3245TIP3    H231371   6.608   2.325   1.104  0.7230  2.5614 -0.1676
 3246TIP3   OH231372   2.067   5.526   7.687  0.0715 -0.6578  0.2600
 3246TIP3    H131373   2.162   5.519   7.685  0.0699 -0.7344 -1.7798
 3246TIP3    H231374   2.038   5.453   7.742  1.1650 -1.0207  0.3748
 3247TIP3   OH231375   0.904   5.488   1.038 -0.1185 -0.2199  0.1292
 3247TIP3    H131376   0.940   5.496   1.126  0.9339  0.8437 -0.3644
 3247TIP3    H231377   0.979   5.501   0.980 -1.1993  1.7530 -0.9423
 3248TIP3   OH231378   2.376   4.896   1.654  0.1779 -0.2079  0.8531
 3248TIP3    H131379   2.434   4.970   1.642 -0.6484  0.2817 -0.3340
 3248TIP3    H231380   2.398   4.836   1.582 -0.9646  0.1361  0.1808
 3249TIP3   OH231381   3.142   0.439   8.064  0.0012  0.1233 -0.3459
 3249TIP3    H131382   3.201   0.435   7.988 -0.0776 -0.6605 -0.3662
 3249TIP3    H231383   3.138   0.533   8.085  2.5828  0.1015  0.6936
 3250TIP3   OH231384   2.197   5.337   0.344  0.0945 -0.0935  0.0232
 3250TIP3    H131385   2.168   5.428   0.337 -0.1165 -0.2263 -0.9353
 3250TIP3    H231386   2.117   5.285   0.337  0.3096 -0.3823 -0.3028
 3251TIP3   OH231387   1.016   0.480   2.107 -0.0494 -0.2869  0.0939
 3251TIP3    H131388   0.991   0.554   2.052 -1.0280  0.1985  1.1541
 3251TIP3    H231389   0.956   0.483   2.181  0.6826 -1.4267  0.7749
 3252TIP3   OH231390   0.752   3.285   8.232 -0.4075 -0.0505 -0.4658
 3252TIP3    H131391   0.807   3.349   8.187  0.5905 -0.2916  0.3760
 3252TIP3    H231392   0.770   3.299   8.325 -4.4266  2.2716  0.1790
 3253TIP3   OH231393   6.024   0.669   0.466  1.0851  0.0021 -0.4324
 3253TIP3    H131394   6.066   0.755   0.464  0.4508  0.3090 -1.2293
 3253TIP3    H231395   6.096   0.607   0.467  1.5647  0.5366  0.9375
 3254TIP3   OH231396   0.413   6.031   6.962  0.7498 -0.4158 -0.7022
 3254TIP3    H131397   0.461   6.106   6.996  0.5957 -0.0916 -1.1900
 3254TIP3    H231398   0.321   6.056   6.967  0.6179 -1.0340  0.2251
 3255TIP3   OH231399   3.977   0.241   8.462 -0.3738  0.6027  0.2760
 3255TIP3    H131400   4.043   0.239   8.531 -0.5621  2.4169  0.5498
 3255TIP3    H231401   4.026   0.265   8.383 -0.1917 -1.2765 -0.2317
 3256TIP3   OH231402   0.523   5.678   7.711 -0.4867 -0.0807  0.0481
 3256TIP3    H131403   0.553   5.602   7.661  3.2383  0.0509  1.7221
 3256TIP3    H231404   0.444   5.647   7.755 -0.0113 -2.4719 -0.5851
 3257TIP3   OH231405   2.764   4.175   5.796  0.2406 -0.0202  0.2233
 3257TIP3    H131406   2.753   4.189   5.890  0.2960  0.7564  0.1208
 3257TIP3    H231407   2.859   4.174   5.783  0.3285 -2.6896  0.5263
 3258TIP3   OH231408   6.660   0.315   0.449  0.5852 -0.5014 -0.2690
 3258TIP3    H131409   6.630   0.271   0.528 -0.4618 -0.1374 -0.4441
 3258TIP3    H231410   6.734   0.369   0.477  2.2378 -2.6969 -0.1383
 3259TIP3   OH231411   0.771   4.065   6.921  0.1496 -0.2185  0.0300
 3259TIP3    H131412   0.818   4.030   6.845 -0.2128 -1.4226  0.3453
 3259TIP3    H231413   0.840   4.091   6.982  0.4319 -1.2479  0.1644
 3260TIP3   OH231414   0.695   5.002   0.369  0.1008 -0.1503 -0.4054
 3260TIP3    H131415   0.667   4.934   0.429  0.3778  0.9758  1.0561
 3260TIP3    H231416   0.768   4.963   0.320 -2.0148 -2.1179 -2.2303
 3261TIP3   OH231417   6.356   2.086   8.407  0.4942 -0.3431  0.1170
 3261TIP3    H131418   6.310   2.021   8.354 -0.2196 -0.7553  1.2137
 3261TIP3    H231419   6.338   2.061   8.497 -0.7769  2.0422  0.5981
 3262TIP3   OH231420   3.705   0.048   0.430  0.0721  0.4650 -0.5326
 3262TIP3    H131421   3.680   0.118   0.491  0.4722  0.6135 -0.5322
 3262TIP3    H231422   3.764   0.091   0.368  1.9876 -0.2973  0.6741
 3263TIP3   OH231423   3.358   5.010   0.220 -0.3987  0.0210 -0.4374
 3263TIP3    H131424   3.329   5.098   0.242 -0.6232 -0.2558  0.4602
 3263TIP3    H231425   3.286   4.953   0.251  0.3907 -0.5664  0.3982
 3264TIP3   OH231426   4.571   4.557   1.335 -0.1308 -0.3638  0.1437
 3264TIP3    H131427   4.514   4.632   1.322 -1.7434 -1.5080  0.3163
 3264TIP3    H231428   4.516   4.481   1.317  0.6098 -1.6305  2.7140
 3265TIP3   OH231429   4.775   4.925   1.663  0.1810  0.0246  0.5220
 3265TIP3    H131430   4.800   4.974   1.585 -0.8908 -0.2114 -0.0023
 3265TIP3    H231431   4.823   4.842   1.655  0.5989  0.2700  0.4657
 3266TIP3   OH231432   2.173   1.499   0.113  0.1294  0.0510 -0.2491
 3266TIP3    H131433   2.149   1.406   0.114 -1.5870  0.4667  1.8497
 3266TIP3    H231434   2.265   1.500   0.142 -0.8505 -0.8364  3.3035
 3267TIP3   OH231435   2.083   5.572   6.336  0.1683 -0.3775 -0.3864
 3267TIP3    H131436   1.995   5.606   6.319 -0.2209 -1.1847 -0.0304
 3267TIP3    H231437   2.115   5.543   6.250  0.7367  1.3689 -0.8033
 3268TIP3   OH231438   4.292   0.823   6.772 -0.5158 -0.1386 -0.2696
 3268TIP3    H131439   4.378   0.846   6.806 -1.4503  0.4543  1.8938
 3268TIP3    H231440   4.287   0.727   6.781 -0.3858 -0.0848  0.4464
 3269TIP3   OH231441   5.296   3.515   1.437 -0.2324 -0.1274  0.0396
 3269TIP3    H131442   5.325   3.595   1.481 -1.9390  1.0068 -0.8082
 3269TIP3    H231443   5.267   3.458   1.508 -1.6329  1.1309  0.5168
 3270TIP3   OH231444   2.654   5.857   2.308 -0.1204 -0.1578  0.4470
 3270TIP3    H131445   2.713   5.833   2.236 -2.5777  2.3107 -2.7266
 3270TIP3    H231446   2.698   5.929   2.352 -0.2241  0.9461 -1.1882
 3271TIP3   OH231447   0.745   4.156   1.844  0.0592  0.5766 -0.2765
 3271TIP3    H131448   0.662   4.203   1.844  0.2954  1.0133 -1.5112
 3271TIP3    H231449   0.722   4.067   1.871 -0.5761  1.0570  0.8429
 3272TIP3   OH231450   2.807   1.788   1.057  0.4582 -0.0102  0.0040
 3272TIP3    H131451   2.770   1.874   1.076 -0.4509 -0.5691  0.9372
 3272TIP3    H231452   2.741   1.726   1.089  1.1836 -1.0584 -0.4427
 3273TIP3   OH231453   2.239   5.149   7.509 -0.3180 -0.1293 -0.6158
 3273TIP3    H131454   2.242   5.085   7.580  2.0786 -0.6348 -1.0716
 3273TIP3    H231455   2.331   5.167   7.489 -0.9206  1.3563 -2.4009
 3274TIP3   OH231456   2.848   5.400   7.763 -0.2661  0.7551  0.2886
 3274TIP3    H131457   2.894   5.433   7.686 -0.5774 -1.0683 -0.7317
 3274TIP3    H231458   2.772   5.457   7.772  0.4331  1.7745  0.0499
 3275TIP3   OH231459   5.488   0.455   0.233 -0.0819  0.4213 -0.8702
 3275TIP3    H131460   5.484   0.411   0.148  1.6211  0.0981 -0.8114
 3275TIP3    H231461   5.444   0.394   0.293  2.9676 -1.7673 -0.6161
 3276TIP3   OH231462   3.912   3.774   2.777 -0.1542 -0.2574  0.0708
 3276TIP3    H131463   3.832   3.760   2.727  0.1044 -2.1399  0.1378
 3276TIP3    H231464   3.892   3.743   2.865 -0.0142  1.3036  0.6911
 3277TIP3   OH231465   6.867   3.885   1.228  0.5761  0.0509  0.1474
 3277TIP3    H131466   6.916   3.915   1.152  0.3896 -1.2387 -0.5110
 3277TIP3    H231467   6.777   3.875   1.197 -0.1194  2.1838  1.2896
 3278TIP3   OH231468   2.543   6.037   0.870 -0.4735  0.0828 -0.2144
 3278TIP3    H131469   2.502   6.044   0.956 -0.1924  1.5632 -0.1791
 3278TIP3    H231470   2.601   5.960   0.877 -1.8724 -0.9556  0.2866
 3279TIP3   OH231471   6.168   2.244   7.934  0.2370  0.1222  0.1288
 3279TIP3    H131472   6.234   2.280   7.994 -0.9450  0.2352  1.4196
 3279TIP3    H231473   6.090   2.296   7.951 -1.2770 -2.3771  1.4019
 3280TIP3   OH231474   4.646   4.277   8.101 -0.3976 -0.1479 -0.4057
 3280TIP3    H131475   4.665   4.229   8.182  0.3286  0.7573 -0.0273
 3280TIP3    H231476   4.562   4.320   8.119 -0.5086 -0.3862 -0.3406
 3281TIP3   OH231477   0.759   5.415   0.624  0.0182  0.3494 -0.8093
 3281TIP3    H131478   0.726   5.459   0.546 -1.8854 -0.7137 -0.6751
 3281TIP3    H231479   0.684   5.412   0.683 -0.0766 -3.1235 -0.8780
 3282TIP3   OH231480   1.508   4.359   8.376 -0.1725 -0.3394  0.2543
 3282TIP3    H131481   1.528   4.331   8.465  0.7060 -0.6358 -0.0237
 3282TIP3    H231482   1.542   4.449   8.371  0.2976 -0.5270  0.0482
 3283TIP3   OH231483   0.324   5.800   8.541 -0.0131  0.2832  0.1985
 3283TIP3    H131484   0.317   5.706   8.557 -1.2840  0.6197  1.7778
 3283TIP3    H231485   0.345   5.806   8.447  1.2168 -1.5828  0.2944
 3284TIP3   OH231486   3.430   2.105   6.949 -0.2830  0.3832  0.1128
 3284TIP3    H131487   3.380   2.070   6.876 -0.1729  1.3703 -0.4519
 3284TIP3    H231488   3.522   2.094   6.925 -0.1628  3.4041 -1.3539
 3285TIP3   OH231489   4.378   1.216   0.290 -0.3975 -0.0622  0.0368
 3285TIP3    H131490   4.334   1.300   0.296  1.1309  0.9252 -1.5313
 3285TIP3    H231491   4.467   1.233   0.323 -0.3781 -1.3291  0.6938
 3286TIP3   OH231492   6.048   5.509   0.817  0.4555 -0.4245 -0.0134
 3286TIP3    H131493   6.044   5.433   0.759 -0.0094 -0.2697 -0.1859
 3286TIP3    H231494   6.035   5.472   0.905  0.6483 -0.5922 -0.0530
 3287TIP3   OH231495   3.551   1.695   1.189 -0.5952 -0.1966 -0.0414
 3287TIP3    H131496   3.503   1.612   1.186  0.1392 -0.8492  2.7977
 3287TIP3    H231497   3.610   1.686   1.264 -0.0635  2.6794  0.0137
 3288TIP3   OH231498   0.673   2.501   8.110 -0.0301 -0.0347 -0.3355
 3288TIP3    H131499   0.758   2.503   8.066 -0.2135  0.9990 -0.6809
 3288TIP3    H231500   0.625   2.431   8.066  0.1985  0.2157 -1.0002
 3289TIP3   OH231501   0.573   1.876   0.022 -0.2409 -1.0488 -0.5982
 3289TIP3    H131502   0.485   1.891   0.054 -0.4962 -1.7217 -0.9738
 3289TIP3    H231503   0.628   1.881   0.100 -0.6421 -0.9072 -0.3223
 3290TIP3   OH231504   3.728   5.934   0.528  0.2812 -0.2728 -0.0099
 3290TIP3    H131505   3.661   6.002   0.519  1.3758  0.4551 -4.4447
 3290TIP3    H231506   3.793   5.972   0.587 -1.7456  0.0783  2.1903
 3291TIP3   OH231507   1.257   2.972   1.243  0.2705 -0.0356 -0.0166
 3291TIP3    H131508   1.258   3.031   1.167  3.1897 -0.9042 -0.7735
 3291TIP3    H231509   1.178   2.997   1.292 -0.8516  1.6190 -2.4837
 3292TIP3   OH231510   4.056   0.412   7.614 -0.0126 -0.5245  0.2085
 3292TIP3    H131511   3.967   0.392   7.583 -1.9119  1.0498  3.9860
 3292TIP3    H231512   4.057   0.380   7.704  3.1333 -0.0024  0.4602
 3293TIP3   OH231513   4.011   6.293   1.653  0.1271 -0.1060 -0.2379
 3293TIP3    H131514   3.934   6.308   1.598  0.5317  0.8021 -0.5879
 3293TIP3    H231515   4.017   6.372   1.708  0.6655 -0.2701 -0.0490
 3294TIP3   OH231516   3.557   4.964   0.589 -0.1384  0.5683 -0.3273
 3294TIP3    H131517   3.518   4.962   0.676  0.7262  1.0905  0.0842
 3294TIP3    H231518   3.564   4.871   0.564 -0.4098  0.4191  0.1458
 3295TIP3   OH231519   2.264   3.381   1.779 -0.2203  0.0474 -1.0920
 3295TIP3    H131520   2.324   3.363   1.706  0.2627 -1.6852 -0.3248
 3295TIP3    H231521   2.177   3.366   1.743 -0.1955  1.7555 -1.9825
 3296TIP3   OH231522   2.439   2.539   0.398  0.1123  0.0921  0.1774
 3296TIP3    H131523   2.403   2.479   0.333  1.5535  0.7620 -1.3055
 3296TIP3    H231524   2.481   2.482   0.463 -1.9168 -0.6092  0.9522
 3297TIP3   OH231525   2.769   4.922   1.462  0.1454 -0.2749 -0.2866
 3297TIP3    H131526   2.800   4.865   1.533  1.4147  0.4398 -0.2425
 3297TIP3    H231527   2.711   4.866   1.411  1.3030 -1.6144 -0.2119
 3298TIP3   OH231528   6.140   4.913   0.242  0.2993 -0.3895  0.0945
 3298TIP3    H131529   6.051   4.935   0.271  0.2428 -1.1604  0.5264
 3298TIP3    H231530   6.196   4.935   0.317  0.6092  1.0024 -0.5138
 3299TIP3   OH231531   2.877   4.694   1.165  0.1202  0.0498  0.2089
 3299TIP3    H131532   2.879   4.789   1.154  0.4405 -0.0047 -0.2357
 3299TIP3    H231533   2.838   4.661   1.084 -2.1317 -0.0694  1.2763
 3300TIP3   OH231534   4.221   4.993   7.957 -0.1807  0.0266  0.0933
 3300TIP3    H131535   4.179   5.041   7.887 -1.2436 -0.0248  0.6830
 3300TIP3    H231536   4.258   4.916   7.914  0.4413  0.7144 -0.6382
 3301TIP3   OH231537   6.262   6.031   6.538  0.2283 -0.4559  0.5759
 3301TIP3    H131538   6.263   5.935   6.538 -0.0219 -0.4643  1.3783
 3301TIP3    H231539   6.331   6.055   6.475 -0.7895 -1.1501 -0.8683
 3302TIP3   OH231540   6.753   0.778   1.016  0.1250  0.3014 -0.0249
 3302TIP3    H131541   6.708   0.730   1.086  0.9033  0.6474  0.7313
 3302TIP3    H231542   6.708   0.863   1.012 -0.5093 -0.0495 -0.5819
 3303TIP3   OH231543   3.546   6.138   7.873 -0.2192  0.0365 -0.2997
 3303TIP3    H131544   3.635   6.144   7.907 -0.5411  0.5903  0.4714
 3303TIP3    H231545   3.501   6.214   7.909 -1.1989 -0.6145 -0.1022
 3304TIP3   OH231546   4.771   1.852   1.914  0.1853  0.1548  0.0485
 3304TIP3    H131547   4.845   1.807   1.871  1.0024 -0.1339  1.6773
 3304TIP3    H231548   4.714   1.781   1.944 -0.6269  0.3694 -0.9360
 3305TIP3   OH231549   4.835   1.911   0.141 -0.3098 -0.0650 -0.0994
 3305TIP3    H131550   4.811   1.985   0.086  2.0666  1.3400  0.6249
 3305TIP3    H231551   4.783   1.922   0.220 -0.9979 -0.0111 -0.5431
 3306TIP3   OH231552   4.672   0.701   0.527  0.1276  0.6224  0.1121
 3306TIP3    H131553   4.694   0.608   0.524  0.1829  0.6150  0.6447
 3306TIP3    H231554   4.702   0.736   0.444 -1.1790 -0.1196 -0.7141
 3307TIP3   OH231555   2.124   6.866   0.884  0.0611 -0.3785 -0.3235
 3307TIP3    H131556   2.149   6.893   0.972 -0.0343  1.6252 -0.8752
 3307TIP3    H231557   2.062   6.932   0.855 -0.6379 -1.5227 -1.5701
 3308TIP3   OH231558   0.289   3.561   7.159  0.3555  0.1388  0.4778
 3308TIP3    H131559   0.242   3.623   7.103  0.4517 -0.3343 -0.1358
 3308TIP3    H231560   0.295   3.605   7.244  1.3529  1.4183 -0.2293
 3309TIP3   OH231561   0.111   2.887   1.296 -0.5233 -0.2017 -0.6351
 3309TIP3    H131562   0.147   2.950   1.233 -0.3018 -0.5642 -0.8699
 3309TIP3    H231563   0.187   2.841   1.331 -0.7122 -0.5794 -0.7174
 3310TIP3   OH231564   3.743   5.084   1.601  0.6690  0.3958 -0.4948
 3310TIP3    H131565   3.830   5.051   1.626  1.3941  0.4567 -2.7014
 3310TIP3    H231566   3.719   5.143   1.672  1.2213 -1.5883  1.4702
 3311TIP3   OH231567   1.845   3.562   7.923  0.3455 -0.4812  0.2933
 3311TIP3    H131568   1.912   3.587   7.987 -0.0927 -1.7982  1.3036
 3311TIP3    H231569   1.858   3.468   7.911 -0.4340 -0.4844 -0.5548
 3312TIP3   OH231570   0.859   0.737   8.017  0.0939 -0.2157  0.0696
 3312TIP3    H131571   0.945   0.778   8.008 -0.5689  0.9978 -1.2061
 3312TIP3    H231572   0.868   0.676   8.090  2.1808 -0.5418 -0.4167
 3313TIP3   OH231573   2.110   5.885   1.441  0.5049  0.7599  0.5510
 3313TIP3    H131574   2.100   5.923   1.353  2.2616 -1.2955 -0.6476
 3313TIP3    H231575   2.052   5.809   1.440  1.9292 -0.3778  0.4018
 3314TIP3   OH231576   5.886   3.396   0.905 -0.4044  0.1703 -0.0770
 3314TIP3    H131577   5.826   3.354   0.844  1.6180 -1.3077 -1.1604
 3314TIP3    H231578   5.837   3.403   0.987 -2.2040 -0.4499 -1.0617
 3315TIP3   OH231579   4.378   5.488   1.080  0.2300 -0.4612  0.0217
 3315TIP3    H131580   4.449   5.440   1.122 -0.6045 -1.0786  0.7679
 3315TIP3    H231581   4.363   5.442   0.998  0.6285 -0.3875 -0.0920
 3316TIP3   OH231582   3.790   4.675   1.843  0.1321  0.3837  0.5619
 3316TIP3    H131583   3.840   4.756   1.832 -0.4901  0.7142  0.1752
 3316TIP3    H231584   3.700   4.703   1.858  0.1260 -0.1911  1.7868
 3317TIP3   OH231585   2.493   2.353   7.063  0.4921 -0.1153  0.0312
 3317TIP3    H131586   2.584   2.335   7.087  0.3662 -0.4395  0.2770
 3317TIP3    H231587   2.442   2.315   7.135  0.1292 -0.6581 -0.5049
 3318TIP3   OH231588   2.980   0.003   0.294  0.5148  0.5737  0.1956
 3318TIP3    H131589   2.975  -0.019   0.201 -1.2923  0.1159  0.3636
 3318TIP3    H231590   2.891  -0.010   0.327  1.3907 -0.5944  2.2981
 3319TIP3   OH231591   4.650   0.632   6.762 -0.3708  0.3420  0.0818
 3319TIP3    H131592   4.676   0.541   6.751 -1.8721 -0.2471  1.1009
 3319TIP3    H231593   4.711   0.681   6.706  1.1185 -1.1619  0.2948
 3320TIP3   OH231594   2.844   6.187   7.451  0.4735  0.4621  0.5925
 3320TIP3    H131595   2.872   6.099   7.428  0.2552  0.9165 -1.5927
 3320TIP3    H231596   2.760   6.199   7.405  0.9393  2.0957  0.0963
 3321TIP3   OH231597   5.216   0.074   6.514 -0.8395  0.1602 -0.5115
 3321TIP3    H131598   5.140   0.064   6.457 -1.5085 -0.7314  0.5126
 3321TIP3    H231599   5.285   0.024   6.470  0.3758  3.9267 -3.3995
 3322TIP3   OH231600   3.012   3.518   0.846  0.1110 -0.0284 -0.2330
 3322TIP3    H131601   2.926   3.547   0.878  0.3400  0.3795  0.0225
 3322TIP3    H231602   3.073   3.586   0.876  0.6375 -0.6936  0.2230
 3323TIP3   OH231603   5.566   0.118   7.635  0.0809  0.7889  0.0497
 3323TIP3    H131604   5.536   0.056   7.568 -0.5633  0.0450  1.0069
 3323TIP3    H231605   5.659   0.098   7.645 -0.3166 -0.7205  1.0377
 3324TIP3   OH231606   4.540   6.783   7.721 -0.4489  0.4887 -0.0980
 3324TIP3    H131607   4.533   6.850   7.653  2.0855  1.2930  0.2989
 3324TIP3    H231608   4.591   6.713   7.680  0.8244  0.8420  0.8048
 3325TIP3   OH231609   6.718   0.837   7.532 -0.3410  0.4998 -0.0382
 3325TIP3    H131610   6.624   0.848   7.518 -0.2024  1.1509 -0.5028
 3325TIP3    H231611   6.759   0.901   7.474  0.4415 -0.5725 -0.7079
 3326TIP3   OH231612   5.112   5.280   8.186 -0.5750  0.2434 -0.1162
 3326TIP3    H131613   5.038   5.314   8.135  0.2947  0.7792 -1.0673
 3326TIP3    H231614   5.107   5.326   8.270 -1.9318 -0.5259  0.2564
 3327TIP3   OH231615   6.943   2.073   2.072 -0.1637  0.4165 -0.1912
 3327TIP3    H131616   6.876   2.063   2.140  0.7907  2.4907  1.1474
 3327TIP3    H231617   6.892   2.087   1.991 -1.3160 -0.4774  0.3484
 3328TIP3   OH231618   5.631   1.316   1.391 -0.3350 -0.0591  0.4508
 3328TIP3    H131619   5.566   1.322   1.321 -0.0019  2.5551  0.2653
 3328TIP3    H231620   5.580   1.309   1.472 -0.7792 -0.1205  0.1648
 3329TIP3   OH231621   6.542   2.900   6.182  0.3067  0.6478  0.1751
 3329TIP3    H131622   6.456   2.937   6.161  0.5924  1.5725  0.5944
 3329TIP3    H231623   6.579   2.875   6.097  0.0784  1.2721 -0.1158
 3330TIP3   OH231624   2.329   1.899   0.802 -0.1303 -0.3752 -0.0002
 3330TIP3    H131625   2.303   1.850   0.879 -1.1904  0.0044 -0.1022
 3330TIP3    H231626   2.248   1.937   0.769  0.4298  0.1299 -0.8375
 3331TIP3   OH231627   5.357   0.060   8.417 -0.2643 -0.1383 -0.1796
 3331TIP3    H131628   5.291   0.098   8.476 -0.7670 -0.1231 -0.7470
 3331TIP3    H231629   5.368  -0.030   8.448 -0.9600 -0.3093 -0.4241
 3332TIP3   OH231630   1.668   2.172   1.956 -0.1689  0.4147  0.2006
 3332TIP3    H131631   1.759   2.176   1.927 -0.4254  0.4272 -0.6181
 3332TIP3    H231632   1.667   2.220   2.039  0.7653 -0.4665  0.7433
 3333TIP3   OH231633   1.462   0.560   7.779  0.0641 -0.6609 -0.9144
 3333TIP3    H131634   1.429   0.469   7.776 -0.4748 -0.4762 -0.7739
 3333TIP3    H231635   1.384   0.613   7.763 -0.1038 -0.1397  1.2578
 3334TIP3   OH231636   2.761   1.801   6.919  0.1386 -0.1101 -0.6604
 3334TIP3    H131637   2.735   1.715   6.887  1.8824 -1.0130  0.2116
 3334TIP3    H231638   2.855   1.807   6.901  0.1005  1.5364 -0.5296
 3335TIP3   OH231639   5.865   0.367   7.663 -0.1110 -0.0619 -0.0750
 3335TIP3    H131640   5.951   0.385   7.701  0.1380 -1.0233 -0.1644
 3335TIP3    H231641   5.805   0.365   7.738  0.0289  0.0803  0.0411
 3336TIP3   OH231642   0.639   3.692   6.772 -0.3782 -0.7999 -0.1094
 3336TIP3    H131643   0.677   3.608   6.797  1.0588 -0.6109 -1.4659
 3336TIP3    H231644   0.549   3.688   6.802 -0.2042 -2.6397  0.2698
 3337TIP3   OH231645   6.731   4.415   1.111 -0.0138 -0.4105  0.8823
 3337TIP3    H131646   6.780   4.483   1.157 -1.9016  1.2190  0.5865
 3337TIP3    H231647   6.712   4.453   1.025 -1.2099 -1.2474  0.7566
 3338TIP3   OH231648   1.636   4.980   2.421  0.6422  0.2949 -0.3448
 3338TIP3    H131649   1.634   5.000   2.515 -0.9129 -1.5132  0.0756
 3338TIP3    H231650   1.726   4.997   2.394  1.6998 -1.1688  1.9686
 3339TIP3   OH231651   0.192   6.201   6.948 -0.2159 -0.1005 -0.1418
 3339TIP3    H131652   0.123   6.208   6.883  0.8471 -0.5799 -1.3674
 3339TIP3    H231653   0.232   6.288   6.951  0.1608 -0.2520 -0.6361
 3340TIP3   OH231654   4.397   4.506   7.915  0.1985  0.2660  0.0365
 3340TIP3    H131655   4.410   4.440   7.847 -2.1892 -1.5690  1.2061
 3340TIP3    H231656   4.405   4.458   7.998  1.9511  2.2168  1.0811
 3341TIP3   OH231657   4.711   6.614   7.583  0.1804 -0.3822  0.2603
 3341TIP3    H131658   4.770   6.541   7.569  1.6541  0.7218  0.5143
 3341TIP3    H231659   4.766   6.692   7.575 -0.6809  0.6309  2.9899
 3342TIP3   OH231660   4.441   2.367   0.003  0.3627 -0.2190 -0.5909
 3342TIP3    H131661   4.363   2.340   0.051 -0.4427  1.7361 -0.7062
 3342TIP3    H231662   4.410   2.380  -0.087  0.6774  1.0509 -0.5376
 3343TIP3   OH231663   6.189   1.370   6.676  0.3844  0.3097  0.3933
 3343TIP3    H131664   6.128   1.445   6.680  0.7330  0.5987  0.3493
 3343TIP3    H231665   6.274   1.410   6.659  0.4849 -0.1431 -0.2029
 3344TIP3   OH231666   5.983   1.220   0.624 -0.4265 -0.0944 -0.3166
 3344TIP3    H131667   6.011   1.177   0.705 -1.3774 -0.5802 -0.2319
 3344TIP3    H231668   5.967   1.148   0.563  0.6452  0.2872 -1.0629
 3345TIP3   OH231669   3.914   2.120   2.409 -1.4252  0.5100  0.1166
 3345TIP3    H131670   3.980   2.051   2.400 -2.5786 -1.2420  3.3577
 3345TIP3    H231671   3.943   2.189   2.349 -0.1039 -2.6393 -3.2667
 3346TIP3   OH231672   3.132   4.292   7.837 -0.3237  0.5411  0.1617
 3346TIP3    H131673   3.103   4.283   7.928 -0.6214 -0.9702 -0.0629
 3346TIP3    H231674   3.128   4.203   7.801  0.8262  0.9355 -1.0225
 3347TIP3   OH231675   3.249   4.721   7.376 -0.7202  0.6491  0.4639
 3347TIP3    H131676   3.164   4.750   7.344 -0.5124  1.2004  0.3926
 3347TIP3    H231677   3.277   4.790   7.436 -0.3775  0.4165  0.5753
 3348TIP3   OH231678   2.368   3.914   1.421  0.4817  0.0430  0.4986
 3348TIP3    H131679   2.355   3.820   1.430  0.2996 -0.0795 -0.8549
 3348TIP3    H231680   2.289   3.946   1.379  0.8893  0.6682  0.1800
 3349TIP3   OH231681   1.284   5.219   0.889 -0.3258 -0.8613  0.2337
 3349TIP3    H131682   1.294   5.224   0.794 -1.8587 -0.6701  0.0500
 3349TIP3    H231683   1.303   5.128   0.910  0.3568 -0.8281 -0.2005
 3350TIP3   OH231684   2.362   1.755   8.154  0.6268 -0.1699  0.0863
 3350TIP3    H131685   2.439   1.812   8.162  1.1211 -0.2290 -3.0112
 3350TIP3    H231686   2.310   1.796   8.085 -0.5932 -1.7832  0.0064
 3351TIP3   OH231687   0.187   1.126   0.869  0.1159  0.5667 -0.5782
 3351TIP3    H131688   0.106   1.111   0.919  0.7325  1.3666  0.6795
 3351TIP3    H231689   0.257   1.106   0.930  0.9664  4.3135 -0.0961
 3352TIP3   OH231690   5.313   5.822   6.872  0.1804  0.2833  0.1672
 3352TIP3    H131691   5.270   5.860   6.949  0.9111  1.1119  0.1724
 3352TIP3    H231692   5.375   5.889   6.843  0.9533 -0.6028 -0.2795
 3353TIP3   OH231693   0.656   6.837   7.139  0.3031  0.5628  0.4918
 3353TIP3    H131694   0.732   6.893   7.122 -0.7697  1.8489 -0.2783
 3353TIP3    H231695   0.688   6.748   7.128  1.2003  1.1333 -2.0841
 3354TIP3   OH231696   2.463   2.777   8.501 -0.3295 -0.6478 -0.0233
 3354TIP3    H131697   2.511   2.804   8.579  0.7028 -1.6832 -0.2660
 3354TIP3    H231698   2.397   2.845   8.488 -1.4949 -1.1826  2.5691
 3355TIP3   OH231699   0.379   1.072   1.800 -0.6912 -0.1841 -0.2020
 3355TIP3    H131700   0.391   1.000   1.738 -1.3532  1.8920 -2.9327
 3355TIP3    H231701   0.296   1.112   1.775  0.0626  2.0562  0.6064
 3356TIP3   OH231702   0.573   3.073   1.806 -0.4438  0.0762  0.6238
 3356TIP3    H131703   0.660   3.103   1.831 -0.2542  0.0347  0.0260
 3356TIP3    H231704   0.531   3.050   1.888 -0.3651  1.3738  1.0549
 3357TIP3   OH231705   0.766   6.665   1.700  0.5255  0.0182  0.5979
 3357TIP3    H131706   0.721   6.647   1.782  1.4790  1.0723  1.3855
 3357TIP3    H231707   0.840   6.604   1.698  1.1799  0.7725  1.1126
 3358TIP3   OH231708   4.489   2.885   0.424 -0.0755  0.2584  0.4483
 3358TIP3    H131709   4.515   2.793   0.412  0.0602  0.3376  0.1090
 3358TIP3    H231710   4.548   2.917   0.492  1.4139  0.6947 -0.9654
 3359TIP3   OH231711   1.849   0.946   7.138  0.3681 -0.4521 -0.4647
 3359TIP3    H131712   1.942   0.926   7.141  0.5380  0.2795 -0.5734
 3359TIP3    H231713   1.844   1.041   7.154 -0.5057 -0.7962  1.5991
 3360TIP3   OH231714   2.061   5.549   8.242 -0.2253  0.3333  0.3251
 3360TIP3    H131715   2.100   5.477   8.193 -1.8677 -0.2893 -0.1412
 3360TIP3    H231716   2.131   5.614   8.249  0.6660 -0.4145 -1.0826
 3361TIP3   OH231717   6.782   2.977   1.416 -0.3261 -0.6549 -0.3209
 3361TIP3    H131718   6.875   2.988   1.396  0.1738 -0.8600  1.6705
 3361TIP3    H231719   6.746   3.065   1.412  1.0112  0.2308  3.4093
 3362TIP3   OH231720   2.094   5.905   7.782  0.0874 -0.2224 -0.5377
 3362TIP3    H131721   2.102   5.963   7.707  1.9623 -0.0189 -0.2411
 3362TIP3    H231722   2.044   5.954   7.847 -2.5496 -0.8180 -1.9809
 3363TIP3   OH231723   0.527   6.489   0.300  0.7167 -0.0075 -0.6300
 3363TIP3    H131724   0.591   6.419   0.292  0.2069 -0.3028 -2.5712
 3363TIP3    H231725   0.568   6.564   0.257  0.7383  0.5132  0.2872
 3364TIP3   OH231726   6.783   4.769   8.004 -0.2704  0.1105  0.3093
 3364TIP3    H131727   6.848   4.701   8.022  0.5288  1.1538  1.5309
 3364TIP3    H231728   6.834   4.841   7.965 -0.9806  0.2929 -0.2987
 3365TIP3   OH231729   5.320   4.096   7.069 -0.1270 -0.3786  0.2102
 3365TIP3    H131730   5.262   4.034   7.113  1.4576  0.0348  3.1183
 3365TIP3    H231731   5.274   4.180   7.074 -0.3624 -0.5079  0.2354
 3366TIP3   OH231732   1.136   1.205   7.883  0.3503 -0.0119 -0.5166
 3366TIP3    H131733   1.075   1.214   7.956 -1.0714 -0.1022 -1.6467
 3366TIP3    H231734   1.126   1.286   7.833 -0.5093 -0.9304 -1.9095
 3367TIP3   OH231735   4.481   3.834   0.524  0.2312  0.3069  0.0591
 3367TIP3    H131736   4.410   3.868   0.578 -0.5425 -2.4155  0.9577
 3367TIP3    H231737   4.561   3.856   0.572 -0.3636 -0.8455  1.6819
 3368TIP3   OH231738   4.633   6.707   2.265  0.4288 -0.4123  0.0618
 3368TIP3    H131739   4.555   6.700   2.210  0.2111 -1.5046  0.4703
 3368TIP3    H231740   4.667   6.795   2.248 -0.7228 -0.0262 -0.3398
 3369TIP3   OH231741   5.495   2.991   7.102  0.0691 -0.2872  0.7031
 3369TIP3    H131742   5.426   2.937   7.060  0.1042 -1.1119  1.6669
 3369TIP3    H231743   5.507   3.064   7.042 -0.8671 -0.7121 -0.0442
 3370TIP3   OH231744   6.463   3.708   2.158 -0.3048  0.3699  0.2366
 3370TIP3    H131745   6.431   3.748   2.077 -0.3023 -0.2082 -0.0580
 3370TIP3    H231746   6.553   3.739   2.167 -0.0117 -0.2461 -0.4538
 3371TIP3   OH231747   3.569   3.993   7.170 -0.8745 -0.2133 -0.3047
 3371TIP3    H131748   3.504   4.059   7.147  0.1120  0.6753 -0.6160
 3371TIP3    H231749   3.597   4.016   7.259 -1.6507 -1.1685  0.2178
 3372TIP3   OH231750   6.424   2.415   7.412  0.2857  0.2663  0.6291
 3372TIP3    H131751   6.467   2.398   7.495  1.1772  1.4216  0.4337
 3372TIP3    H231752   6.493   2.449   7.355  0.1675 -2.3612 -1.2658
 3373TIP3   OH231753   4.170   4.362   6.449  0.0567  0.1368  0.6755
 3373TIP3    H131754   4.260   4.364   6.482 -0.0170 -1.5782  1.0665
 3373TIP3    H231755   4.120   4.318   6.518 -1.3519  2.0637  0.9852
 3374TIP3   OH231756   0.464   4.720   6.228  0.3547 -0.2398  0.4526
 3374TIP3    H131757   0.435   4.653   6.291 -0.9629 -0.5798 -0.4659
 3374TIP3    H231758   0.558   4.705   6.220  0.2619 -1.3028  1.0530
 3375TIP3   OH231759   0.364   0.275   0.548 -0.6411 -0.4036 -0.2542
 3375TIP3    H131760   0.325   0.310   0.628  0.2083  0.5433 -0.2193
 3375TIP3    H231761   0.417   0.201   0.577 -0.5359 -0.2168  0.0413
 3376TIP3   OH231762   1.497   4.512   7.607 -0.1331 -0.0286  0.0844
 3376TIP3    H131763   1.585   4.475   7.618 -0.9017 -1.6276  1.2473
 3376TIP3    H231764   1.439   4.436   7.607 -1.6735  1.0858  1.0931
 3377TIP3   OH231765   5.365   5.125   8.370 -0.2232 -0.0395  0.4834
 3377TIP3    H131766   5.452   5.109   8.405 -0.0740  2.3954  1.3649
 3377TIP3    H231767   5.379   5.146   8.278  0.1373  0.5475  0.6724
 3378TIP3   OH231768   1.585   0.795   6.654  0.6014  0.0147 -0.0890
 3378TIP3    H131769   1.649   0.862   6.629  1.2289 -1.0073 -1.4198
 3378TIP3    H231770   1.588   0.732   6.582 -1.5867 -0.3217  0.0479
 3379TIP3   OH231771   5.221   3.728   6.846  0.0817 -0.6780 -0.5724
 3379TIP3    H131772   5.179   3.643   6.834  2.8686 -2.2198 -0.1120
 3379TIP3    H231773   5.314   3.709   6.849  0.9062  2.5585 -1.5761
 3380TIP3   OH231774   6.244   2.158   0.564  0.0554  0.0598  0.0495
 3380TIP3    H131775   6.150   2.179   0.570 -0.2103 -0.4234 -1.7028
 3380TIP3    H231776   6.265   2.119   0.649 -1.0460  1.2090  0.8981
 3381TIP3   OH231777   1.711   3.694   6.345 -0.3306 -0.1946 -0.3218
 3381TIP3    H131778   1.623   3.722   6.318 -1.1350  0.2921  2.4736
 3381TIP3    H231779   1.768   3.725   6.276 -2.2595  0.2308 -1.8145
 3382TIP3   OH231780   2.716   4.485   0.525 -0.2105 -0.0827  0.0974
 3382TIP3    H131781   2.694   4.418   0.461  0.5180  0.6406 -0.9403
 3382TIP3    H231782   2.806   4.511   0.503  0.2180 -0.0954  1.6624
 3383TIP3   OH231783   0.176   2.737   1.801  0.3007 -0.4047  0.5662
 3383TIP3    H131784   0.246   2.769   1.859  0.3530 -0.7023  0.6649
 3383TIP3    H231785   0.161   2.810   1.740  0.5759 -0.2729  0.6547
 3384TIP3   OH231786   6.881   2.990   6.555  0.0392 -0.1044  0.0582
 3384TIP3    H131787   6.877   3.086   6.556  2.3031  0.0390  0.7276
 3384TIP3    H231788   6.790   2.963   6.544 -0.4704  2.1222 -2.0957
 3385TIP3   OH231789   6.843   5.329   0.231 -0.2079  0.5676  0.1966
 3385TIP3    H131790   6.936   5.343   0.251 -0.3173  2.2914 -0.2952
 3385TIP3    H231791   6.837   5.345   0.137 -1.2098  1.8684  0.4504
 3386TIP3   OH231792   5.563   3.764   0.530 -0.5718 -0.6874  0.3255
 3386TIP3    H131793   5.538   3.765   0.623  0.0713  2.4247  0.5904
 3386TIP3    H231794   5.650   3.723   0.530 -0.4778 -0.5165  1.1333
 3387TIP3   OH231795   4.294   3.324   1.391 -0.4679  0.4344  0.4447
 3387TIP3    H131796   4.288   3.232   1.417 -3.3014  0.6527  0.8842
 3387TIP3    H231797   4.243   3.329   1.310 -0.6676  1.6753  0.6261
 3388TIP3   OH231798   4.563   6.127   6.927  0.5223  0.3243 -0.4294
 3388TIP3    H131799   4.494   6.118   6.861  0.4348  1.6486 -0.5558
 3388TIP3    H231800   4.520   6.104   7.010 -0.1656  1.3680 -0.4722
 3389TIP3   OH231801   1.428   3.316   0.605  0.0531  0.2461  0.6257
 3389TIP3    H131802   1.400   3.358   0.524 -2.1300  1.5173  1.9526
 3389TIP3    H231803   1.469   3.234   0.576 -3.2091 -0.7532 -1.6717
 3390TIP3   OH231804   0.817   5.663   1.558  0.0284  0.4156  0.5005
 3390TIP3    H131805   0.788   5.572   1.562  1.5857 -0.1799 -0.8543
 3390TIP3    H231806   0.832   5.687   1.650 -2.0130 -0.0951  1.0220
 3391TIP3   OH231807   6.122   5.455   7.100  0.1014  0.1687  0.3071
 3391TIP3    H131808   6.051   5.407   7.143 -0.1635  0.6843  0.4443
 3391TIP3    H231809   6.200   5.433   7.151  0.2389 -1.2045 -0.4327
 3392TIP3   OH231810   6.245   1.423   0.915 -0.1461 -0.1342  0.0654
 3392TIP3    H131811   6.281   1.512   0.920 -1.0767  0.4141 -1.9282
 3392TIP3    H231812   6.153   1.436   0.892 -0.4964 -1.6141  0.5502
 3393TIP3   OH231813   2.721   2.894   6.260 -0.0749 -0.0776 -0.3328
 3393TIP3    H131814   2.746   2.970   6.208  2.3029 -1.5279 -1.4886
 3393TIP3    H231815   2.702   2.930   6.347  2.9171  1.7147 -0.2738
 3394TIP3   OH231816   5.507   3.696   0.063 -0.0495 -1.0795 -0.1597
 3394TIP3    H131817   5.445   3.746   0.009  1.5905  1.2114 -0.1039
 3394TIP3    H231818   5.463   3.687   0.148 -0.8198 -0.6015 -0.4941
 3395TIP3   OH231819   2.402   4.563   0.796  0.6344 -0.3255 -0.0258
 3395TIP3    H131820   2.433   4.473   0.785  0.8312 -0.7081  2.7697
 3395TIP3    H231821   2.421   4.583   0.888 -2.4350  1.3774  0.3613
 3396TIP3   OH231822   2.248   4.131   1.578  0.0593 -0.3055  0.4958
 3396TIP3    H131823   2.298   4.055   1.547 -0.7265 -0.8377  0.4928
 3396TIP3    H231824   2.206   4.100   1.658  0.0561  0.2589  0.7131
 3397TIP3   OH231825   6.500   4.262   1.344 -0.2314 -0.6245 -0.7005
 3397TIP3    H131826   6.554   4.227   1.274 -0.0913 -2.0838  0.0885
 3397TIP3    H231827   6.543   4.343   1.370  1.3309 -1.4860 -0.4448
 3398TIP3   OH231828   1.954   5.007   7.810 -0.2234  0.0629  0.2433
 3398TIP3    H131829   1.872   5.045   7.780  0.2991 -0.3938 -1.9355
 3398TIP3    H231830   1.943   4.913   7.799  0.7861  0.0319 -0.6457
 3399TIP3   OH231831   0.109   0.818   6.623  0.7256 -0.1533  0.0705
 3399TIP3    H131832   0.131   0.770   6.703 -1.8015  0.3753  1.1853
 3399TIP3    H231833   0.144   0.906   6.638 -0.3727  0.1578  0.9782
 3400TIP3   OH231834   0.687   0.591   0.070 -0.2910  0.5687  0.2608
 3400TIP3    H131835   0.710   0.501   0.048 -0.8312  0.5699 -0.3428
 3400TIP3    H231836   0.759   0.643   0.035  0.4120  0.3216  1.2963
 3401TIP3   OH231837   0.994   2.612   0.586 -0.0093  0.2183  0.4961
 3401TIP3    H131838   0.991   2.671   0.510  0.9199 -1.2186 -0.7131
 3401TIP3    H231839   0.902   2.595   0.607 -0.3073 -0.4353 -1.2023
 3402TIP3   OH231840   6.057   0.257   0.472  0.2381 -0.2447 -0.4714
 3402TIP3    H131841   6.094   0.345   0.461 -0.6155  0.0047 -1.5016
 3402TIP3    H231842   6.046   0.247   0.566  0.6473  0.6267 -0.3204
 3403TIP3   OH231843   3.891   5.676   7.429 -0.0426 -0.1855 -0.4954
 3403TIP3    H131844   3.840   5.726   7.492  1.2968 -1.0564  1.3982
 3403TIP3    H231845   3.857   5.586   7.437  1.4424 -0.6941  0.5004
 3404TIP3   OH231846   0.359   6.864   1.258  0.0819  0.0160 -0.1248
 3404TIP3    H131847   0.407   6.787   1.227 -0.1469 -0.0463 -0.3204
 3404TIP3    H231848   0.325   6.838   1.344 -2.0657 -0.9819 -1.1931
 3405TIP3   OH231849   0.676   6.897   8.556 -0.8927 -0.0412  0.7615
 3405TIP3    H131850   0.743   6.905   8.488 -0.6825 -3.3431  0.4019
 3405TIP3    H231851   0.594   6.918   8.512 -0.7147 -1.7687 -0.5068
 3406TIP3   OH231852   2.682   5.884   7.069 -0.2106  0.0425 -0.1662
 3406TIP3    H131853   2.693   5.829   7.147  0.3521 -1.3871 -1.1888
 3406TIP3    H231854   2.612   5.841   7.020  0.7879 -0.2854 -1.3757
 3407TIP3   OH231855   1.389   5.168   7.558  0.3093  0.2841  0.2066
 3407TIP3    H131856   1.430   5.229   7.497  0.7745  0.2345  0.4714
 3407TIP3    H231857   1.301   5.205   7.572 -0.6851 -0.9112 -2.2667
 3408TIP3   OH231858   3.119   4.606   1.118 -0.3203  0.2467 -0.6954
 3408TIP3    H131859   3.172   4.671   1.164 -1.5683  2.0302 -1.6664
 3408TIP3    H231860   3.029   4.640   1.124 -1.0978 -1.6641 -0.8075
 3409TIP3   OH231861   6.128   6.258   0.628 -0.2669  0.0194 -0.2819
 3409TIP3    H131862   6.152   6.190   0.691 -0.5400  0.1533 -0.0305
 3409TIP3    H231863   6.208   6.273   0.577 -0.0185 -0.0250  0.0893
 3410TIP3   OH231864   6.867   3.381   0.901  0.3399 -0.2700 -0.1127
 3410TIP3    H131865   6.947   3.332   0.918 -0.1335 -1.1702 -0.4489
 3410TIP3    H231866   6.799   3.332   0.946 -0.0507  0.4267  0.0692
 3411TIP3   OH231867   4.058   1.025   1.587  0.6803 -0.0782  0.1866
 3411TIP3    H131868   4.123   1.029   1.657  1.1983  0.6954 -0.3274
 3411TIP3    H231869   3.974   1.029   1.632  1.0087  0.3032  0.7786
 3412TIP3   OH231870   2.162   6.837   6.948 -0.1474 -0.0095 -0.1817
 3412TIP3    H131871   2.112   6.889   6.885  0.4724  1.0177  0.1420
 3412TIP3    H231872   2.232   6.896   6.978  1.2453 -1.3724 -0.5923
 3413TIP3   OH231873   5.192   0.094   1.232  0.0703  0.7946  0.0934
 3413TIP3    H131874   5.190   0.061   1.142 -2.0542  2.5227 -0.5874
 3413TIP3    H231875   5.154   0.182   1.226 -0.2039  0.9323  2.6842
 3414TIP3   OH231876   1.912   2.764   0.009 -0.1818 -0.2771 -0.2841
 3414TIP3    H131877   1.925   2.779  -0.085 -3.1177  0.2463 -0.6980
 3414TIP3    H231878   1.983   2.814   0.051 -0.0268  1.2128 -2.1633
 3415TIP3   OH231879   5.358   0.108   7.939  0.0408 -0.2155  0.4136
 3415TIP3    H131880   5.338   0.200   7.918  1.0014 -0.2004 -0.5176
 3415TIP3    H231881   5.420   0.113   8.012 -0.0631 -0.1301  0.4960
 3416TIP3   OH231882   6.607   4.211   7.886 -0.6458 -0.4103  0.1817
 3416TIP3    H131883   6.519   4.176   7.875  0.1409 -2.3439 -0.4763
 3416TIP3    H231884   6.653   4.144   7.938  0.7241 -0.0024 -0.4463
 3417TIP3   OH231885   4.941   0.038   0.734  0.4238 -0.4056  0.3669
 3417TIP3    H131886   4.880   0.106   0.707 -0.9697 -2.6759 -2.8067
 3417TIP3    H231887   5.015   0.046   0.673  1.3100 -0.4408  1.3907
 3418TIP3   OH231888   5.922   4.508   8.333 -0.2852 -0.2300 -0.2684
 3418TIP3    H131889   5.883   4.493   8.419 -1.6185  0.7360 -0.6727
 3418TIP3    H231890   5.889   4.436   8.279  2.2954 -2.1210  0.4952
 3419TIP3   OH231891   4.588   1.562   6.822  0.1898 -0.1292 -0.4913
 3419TIP3    H131892   4.608   1.494   6.886  0.7887  1.3944  1.0019
 3419TIP3    H231893   4.673   1.591   6.790 -0.0906 -0.6231 -1.7565
 3420TIP3   OH231894   2.245   6.088   1.683  0.2668 -0.1179  0.5670
 3420TIP3    H131895   2.212   6.030   1.751  1.3326 -0.4171  0.8547
 3420TIP3    H231896   2.336   6.105   1.708  0.0726  1.4341  0.3288
 3421TIP3   OH231897   2.049   1.511   1.679  0.7144 -0.5242 -0.1361
 3421TIP3    H131898   2.006   1.470   1.754 -0.5641 -0.0599 -0.5961
 3421TIP3    H231899   2.002   1.477   1.603  2.8040 -1.9997 -0.8713
 3422TIP3   OH231900   5.443   0.846   6.985 -0.2442  0.2290  0.2961
 3422TIP3    H131901   5.375   0.849   6.917  0.6996 -2.3808 -0.8839
 3422TIP3    H231902   5.397   0.816   7.063 -0.5402 -1.2270 -0.4117
 3423TIP3   OH231903   1.682   2.813   1.373 -0.5188 -0.2584  0.2870
 3423TIP3    H131904   1.615   2.784   1.311 -0.3049  1.5676 -0.8787
 3423TIP3    H231905   1.645   2.794   1.459 -1.8364 -0.7484 -0.3562
 3424TIP3   OH231906   2.223   0.596   7.804 -0.2221 -0.3409 -0.4534
 3424TIP3    H131907   2.129   0.577   7.807 -0.1357 -0.9882 -1.4767
 3424TIP3    H231908   2.233   0.653   7.728  0.1128  0.3793  0.1219
 3425TIP3   OH231909   6.631   0.424   7.892 -0.2796  0.4392 -0.0822
 3425TIP3    H131910   6.689   0.428   7.816  0.5081  0.1484  0.4859
 3425TIP3    H231911   6.555   0.477   7.868 -0.7874 -0.9512 -1.6935
 3426TIP3   OH231912   3.680   2.311   6.266 -0.4669 -0.2001 -0.2885
 3426TIP3    H131913   3.598   2.359   6.279 -0.7562 -0.9302  0.7458
 3426TIP3    H231914   3.748   2.377   6.275 -0.9412  0.4523 -1.3494
 3427TIP3   OH231915   4.739   4.039   0.135  0.3865 -0.4080  0.2059
 3427TIP3    H131916   4.706   4.129   0.136  1.3308 -0.0508  1.5004
 3427TIP3    H231917   4.661   3.984   0.143 -0.1921  0.2854 -0.5113
 3428TIP3   OH231918   3.195   1.054   7.223  0.3680 -0.2768 -0.0604
 3428TIP3    H131919   3.175   0.964   7.196 -0.8563  0.0931 -0.4425
 3428TIP3    H231920   3.172   1.108   7.147 -0.4570  0.5077  0.7243
 3429TIP3   OH231921   3.000   6.027   2.262  0.2724 -0.3627  0.0325
 3429TIP3    H131922   3.064   6.077   2.211 -1.3135  0.4327 -1.2645
 3429TIP3    H231923   2.962   5.965   2.199 -0.4767 -0.5785  0.6769
 3430TIP3   OH231924   6.233   6.720   0.528 -0.4100 -0.2720  0.2292
 3430TIP3    H131925   6.198   6.705   0.616 -0.0356  0.4020  0.4986
 3430TIP3    H231926   6.185   6.797   0.497 -0.0413 -0.0868  0.1191
 3431TIP3   OH231927   3.340   1.490   0.719 -0.0060  0.0312 -0.1005
 3431TIP3    H131928   3.303   1.432   0.652  0.2479 -0.0440 -0.1741
 3431TIP3    H231929   3.282   1.478   0.794 -0.6189  0.5254 -0.4774
 3432TIP3   OH231930   3.020   2.634   2.757 -0.2560 -0.3144  0.4006
 3432TIP3    H131931   3.102   2.606   2.718 -0.2634 -0.8055  0.7122
 3432TIP3    H231932   3.045   2.693   2.828 -0.3085  1.8318 -1.2800
 3433TIP3   OH231933   6.186   5.473   8.254  0.4796  0.1052  0.1719
 3433TIP3    H131934   6.141   5.394   8.225 -0.3213  0.4056  0.5492
 3433TIP3    H231935   6.273   5.467   8.215  0.1245 -0.5064 -0.5572
 3434TIP3   OH231936   3.842   3.197   1.379  0.9167  0.1548 -0.3654
 3434TIP3    H131937   3.928   3.234   1.360  0.3491  1.3345 -0.7529
 3434TIP3    H231938   3.780   3.258   1.339 -0.1649  0.2453  1.3238
 3435TIP3   OH231939   1.493   0.940   6.862  0.3962 -0.7832 -0.3512
 3435TIP3    H131940   1.514   0.860   6.814  0.0533 -1.4521  0.5857
 3435TIP3    H231941   1.415   0.974   6.818  1.1595 -0.3568 -1.4298
 3436TIP3   OH231942   6.838   3.661   1.384  0.3305  0.0215 -0.2916
 3436TIP3    H131943   6.743   3.660   1.394  0.5184  1.6917  3.0812
 3436TIP3    H231944   6.856   3.746   1.343  0.4051 -0.2158 -0.7586
 3437TIP3   OH231945   2.312   5.696   8.379 -0.0395  0.4241  0.2467
 3437TIP3    H131946   2.368   5.630   8.421 -0.2116 -0.4877 -0.9199
 3437TIP3    H231947   2.261   5.733   8.451  1.7256  0.9752  1.2825
 3438TIP3   OH231948   0.192   4.584   7.047 -0.3960  0.2478 -0.1771
 3438TIP3    H131949   0.222   4.502   7.009  1.1579  1.1805 -1.0862
 3438TIP3    H231950   0.107   4.601   7.006 -0.8120 -0.9440  0.1438
 3439TIP3   OH231951   0.560   4.667   2.220 -0.3440  0.0323  0.3516
 3439TIP3    H131952   0.650   4.679   2.190 -0.4956 -0.5574 -0.3771
 3439TIP3    H231953   0.563   4.586   2.271 -0.5706 -0.3366 -0.2038
 3440TIP3   OH231954   0.101   0.926   7.655 -0.4718  0.1288  0.2523
 3440TIP3    H131955   0.063   0.859   7.711  1.6671 -0.8621  0.6072
 3440TIP3    H231956   0.164   0.879   7.600  0.0458  1.6275 -0.4966
 3441TIP3   OH231957   6.109   1.144   0.165  0.1023  0.1042  0.6341
 3441TIP3    H131958   6.199   1.123   0.191  0.3424  0.7610  0.3420
 3441TIP3    H231959   6.118   1.202   0.090 -0.5750 -1.0493 -0.3811
 3442TIP3   OH231960   3.903   3.450   1.855 -0.4500 -0.4921  0.3833
 3442TIP3    H131961   3.818   3.490   1.841 -0.7758 -1.5022 -0.6583
 3442TIP3    H231962   3.926   3.410   1.771  0.9226 -0.4773  0.7159
 3443TIP3   OH231963   2.687   3.415   7.737 -0.5620  0.7209 -0.2775
 3443TIP3    H131964   2.721   3.428   7.826 -0.3979 -0.1621 -0.1979
 3443TIP3    H231965   2.689   3.320   7.725 -2.5194  0.6623 -0.4668
 3444TIP3   OH231966   1.715   3.966   8.132  0.1632 -0.0398 -0.0659
 3444TIP3    H131967   1.676   4.013   8.205 -0.0818 -1.7817  0.9908
 3444TIP3    H231968   1.662   3.990   8.056  1.3381  2.9852 -0.0563
 3445TIP3   OH231969   1.043   6.036   7.725 -0.2224  0.1209 -0.1528
 3445TIP3    H131970   1.002   6.047   7.811  0.3672  0.3582  0.1066
 3445TIP3    H231971   1.006   6.106   7.671 -1.0844 -0.4270 -0.2891
 3446TIP3   OH231972   3.086   6.583   6.870 -0.4027 -0.2053 -0.2547
 3446TIP3    H131973   3.069   6.536   6.788 -1.8916 -1.4933  0.7357
 3446TIP3    H231974   3.177   6.613   6.862 -0.8539  0.7584 -2.8646
 3447TIP3   OH231975   6.447   0.212   1.646  0.0217  0.3324  0.4613
 3447TIP3    H131976   6.410   0.288   1.601 -1.7888 -1.1268 -0.6923
 3447TIP3    H231977   6.446   0.143   1.579  0.2011 -1.0855  1.8713
 3448TIP3   OH231978   1.842   6.004   1.753 -0.4322  0.0471 -0.4162
 3448TIP3    H131979   1.828   5.947   1.677  0.6312  0.5599 -1.0131
 3448TIP3    H231980   1.776   6.073   1.743  0.3051  0.6311 -1.4088
 3449TIP3   OH231981   3.703   6.455   6.014  0.1452 -0.1752  0.1479
 3449TIP3    H131982   3.795   6.444   6.040  0.8065  0.0265 -1.9408
 3449TIP3    H231983   3.703   6.535   5.961 -1.5031  0.5783  1.2180
 3450TIP3   OH231984   3.003   2.225   8.080  0.3391 -0.7015  0.0948
 3450TIP3    H131985   2.940   2.274   8.132 -0.1244 -0.9823 -0.1925
 3450TIP3    H231986   2.952   2.154   8.042  0.1043  0.7592 -2.5748
 3451TIP3   OH231987   5.259   4.552   7.057 -0.3183  0.2594 -0.2086
 3451TIP3    H131988   5.165   4.553   7.038 -0.5783 -0.7138  0.9084
 3451TIP3    H231989   5.265   4.582   7.148  0.0957 -2.6402  0.8505
 3452TIP3   OH231990   1.554   0.129   7.622  0.3267  0.0791  0.6519
 3452TIP3    H131991   1.479   0.076   7.595  1.5897 -1.2549 -0.4333
 3452TIP3    H231992   1.529   0.219   7.601 -1.0464 -0.3145  0.5192
 3453TIP3   OH231993   5.633   2.503   0.395  0.5907 -0.3082  0.2412
 3453TIP3    H131994   5.542   2.506   0.424  0.0012  3.2886 -1.4049
 3453TIP3    H231995   5.644   2.415   0.359 -2.3288 -0.7537  0.1755
 3454TIP3   OH231996   2.775   4.701   0.068  0.4285 -0.4115 -0.4126
 3454TIP3    H131997   2.807   4.638   0.132  0.3191 -1.1593 -1.0823
 3454TIP3    H231998   2.818   4.676  -0.014 -1.3865 -1.0791 -1.2062
 3455TIP3   OH231999   6.280   6.833   6.940  0.2371 -0.1984 -0.8366
 3455TIP3    H132000   6.187   6.842   6.961  0.2024 -0.6165 -0.8058
 3455TIP3    H232001   6.283   6.766   6.872  0.5507 -0.4681 -0.5592
 3456TIP3   OH232002   2.189   0.471   0.494 -0.2054  0.0905 -0.4907
 3456TIP3    H132003   2.264   0.468   0.554 -0.3996  2.4760 -0.0151
 3456TIP3    H232004   2.114   0.450   0.548 -0.0505 -0.8313 -0.6259
 3457TIP3   OH232005   1.425   3.909   6.808  0.0272 -0.1630 -0.4498
 3457TIP3    H132006   1.371   3.865   6.743 -1.3303 -0.6192  0.9454
 3457TIP3    H232007   1.409   4.002   6.793  0.1270 -0.2442 -1.0880
 3458TIP3   OH232008   0.399   3.909   6.774  0.0280 -0.1605  0.4100
 3458TIP3    H132009   0.382   3.947   6.688  0.5466 -1.3722 -0.2526
 3458TIP3    H232010   0.370   3.818   6.767 -0.1439 -0.2211  1.5918
 3459TIP3   OH232011   0.374   1.857   7.936 -0.4729 -0.1934 -0.1928
 3459TIP3    H132012   0.292   1.890   7.973 -0.2223  0.4990 -0.2358
 3459TIP3    H232013   0.356   1.766   7.916 -0.7496 -0.4777  1.2352
 3460TIP3   OH232014   0.957   2.855   1.187 -0.8830 -0.2606 -0.4884
 3460TIP3    H132015   1.033   2.860   1.129 -1.1917  1.9898 -0.7669
 3460TIP3    H232016   0.985   2.796   1.257  1.6182  1.4245  0.0709
 3461TIP3   OH232017   5.173   0.766   6.099 -0.2593 -0.3272  0.3119
 3461TIP3    H132018   5.206   0.681   6.128 -0.5675 -0.2789  0.8186
 3461TIP3    H232019   5.080   0.752   6.085 -0.3893  0.0297  0.7985
 3462TIP3   OH232020   2.732   3.789   1.946 -0.0434 -0.6255 -0.0218
 3462TIP3    H132021   2.794   3.720   1.970 -1.3205 -1.9136 -0.2711
 3462TIP3    H232022   2.649   3.760   1.985 -0.9302  0.0324 -1.3515
 3463TIP3   OH232023   0.785   3.049   1.293  0.1565 -0.1383 -0.2837
 3463TIP3    H132024   0.819   2.974   1.244  0.9021  1.1298 -1.8035
 3463TIP3    H232025   0.690   3.035   1.295  0.2696 -1.0311 -0.7004
 3464TIP3   OH232026   5.822   6.832   6.472 -0.1270 -0.1322 -0.1934
 3464TIP3    H132027   5.862   6.780   6.542 -0.0173 -0.3968 -0.4494
 3464TIP3    H232028   5.798   6.915   6.514 -0.4744 -0.4601  0.2633
 3465TIP3   OH232029   2.670   5.833   0.360 -0.9075 -0.1136  0.7895
 3465TIP3    H132030   2.748   5.889   0.365 -0.9704 -0.0342  0.8930
 3465TIP3    H232031   2.622   5.853   0.441 -1.5478  0.5978  0.2487
 3466TIP3   OH232032   4.334   2.245   7.418  0.0474  0.1044  0.0978
 3466TIP3    H132033   4.291   2.183   7.358 -0.1332 -1.6281  1.8938
 3466TIP3    H232034   4.394   2.191   7.469  3.1142  2.1586 -1.0732
 3467TIP3   OH232035   6.263   3.953   7.780  0.7365 -0.0842  0.0607
 3467TIP3    H132036   6.307   3.904   7.850  0.0735 -0.5407  0.1632
 3467TIP3    H232037   6.203   4.012   7.826 -0.8825 -1.4982 -0.1196
 3468TIP3   OH232038   3.222   1.366   7.674  0.5198  0.0173  0.3211
 3468TIP3    H132039   3.239   1.291   7.732  0.2466  0.9729  1.6728
 3468TIP3    H232040   3.130   1.357   7.649 -0.7295  1.9006  3.6163
 3469TIP3   OH232041   2.414   6.131   6.777 -0.5570  0.4338 -0.1076
 3469TIP3    H132042   2.496   6.123   6.729 -0.7835 -1.0676 -0.3023
 3469TIP3    H232043   2.351   6.162   6.712 -0.9476 -1.9372 -0.9846
 3470TIP3   OH232044   4.799   1.120   6.927 -0.5002 -0.2716  0.4316
 3470TIP3    H132045   4.791   1.163   6.841 -2.2513 -0.2448  0.5761
 3470TIP3    H232046   4.882   1.153   6.962 -1.8692  3.3719  0.6990
 3471TIP3   OH232047   4.829   4.951   8.323 -0.0434  0.2375 -0.1449
 3471TIP3    H132048   4.738   4.923   8.326 -0.4184  1.4593  2.6777
 3471TIP3    H232049   4.826   5.044   8.344  1.9457 -0.0829  1.9831
 3472TIP3   OH232050   4.935   4.694   1.646  0.2195 -0.4470  0.1869
 3472TIP3    H132051   5.026   4.674   1.667  1.0012  1.2321 -1.2578
 3472TIP3    H232052   4.885   4.624   1.686  2.1111 -1.2103  1.3704
 3473TIP3   OH232053   0.810   5.861   0.831  0.2572 -0.2613  0.4090
 3473TIP3    H132054   0.879   5.799   0.806  0.6171  0.6861 -1.0219
 3473TIP3    H232055   0.752   5.810   0.888  1.1883 -1.5724  0.2284
 3474TIP3   OH232056   3.414   3.118   6.443  0.2189  0.2215  0.3170
 3474TIP3    H132057   3.359   3.191   6.472  2.6539  2.0783  0.5211
 3474TIP3    H232058   3.461   3.152   6.367 -0.9794 -2.3066 -1.7186
 3475TIP3   OH232059   1.592   0.784   0.644 -0.0160 -0.2488  0.2250
 3475TIP3    H132060   1.517   0.840   0.627 -0.6232 -1.1948 -0.2899
 3475TIP3    H232061   1.565   0.728   0.716 -0.2049 -1.2829 -0.6234
 3476TIP3   OH232062   4.946   2.974   1.056  0.0639 -0.3755 -0.3166
 3476TIP3    H132063   4.891   3.024   1.117  1.8978  2.6521 -0.9361
 3476TIP3    H232064   4.887   2.952   0.983 -0.9454  0.3745  0.2480
 3477TIP3   OH232065   2.049   5.988   8.425  0.1051  0.3815  0.4586
 3477TIP3    H132066   2.114   5.949   8.484  1.2745 -1.4816 -1.8936
 3477TIP3    H232067   2.088   6.070   8.397  0.5551  0.2157  0.5928
 3478TIP3   OH232068   6.549   3.664   1.646  0.3388  0.1431  0.4460
 3478TIP3    H132069   6.502   3.598   1.698  1.4991 -0.3196  0.9374
 3478TIP3    H232070   6.492   3.740   1.648 -0.7084 -0.6122  0.4627
 3479TIP3   OH232071   4.012   4.874   1.848  0.4391  0.6467  0.3365
 3479TIP3    H132072   4.057   4.815   1.909 -0.7986 -0.8590 -0.1356
 3479TIP3    H232073   3.956   4.928   1.903 -1.3483 -1.3109  0.5359
 3480TIP3   OH232074   2.024   3.334   1.649 -0.0827 -0.1242  0.3213
 3480TIP3    H132075   1.951   3.371   1.699 -0.1231 -1.0866  0.9963
 3480TIP3    H232076   1.996   3.340   1.557 -0.2871  1.0556  0.4514
 3481TIP3   OH232077   4.736   6.149   8.497 -0.8925 -0.3924  0.6320
 3481TIP3    H132078   4.830   6.169   8.496 -1.0747  0.5989  1.2945
 3481TIP3    H232079   4.704   6.189   8.578 -2.4528  2.1416 -1.0883
 3482TIP3   OH232080   6.960   4.022   7.176  0.3443  0.0082 -0.3352
 3482TIP3    H132081   7.027   4.007   7.109  0.3311  0.5031 -0.4609
 3482TIP3    H232082   6.939   4.115   7.169 -1.3209 -0.3959 -1.2093
 3483TIP3   OH232083   6.421   0.927   7.383 -0.0868 -0.9685  0.9504
 3483TIP3    H132084   6.445   0.954   7.294 -1.4404  0.3038  0.9356
 3483TIP3    H232085   6.344   0.871   7.371 -1.8121  1.1747  1.4010
 3484TIP3   OH232086   1.332   4.651   1.922  0.2532 -0.6770 -0.3241
 3484TIP3    H132087   1.243   4.676   1.897  0.0605 -1.6655 -0.6942
 3484TIP3    H232088   1.345   4.691   2.007 -1.1412 -1.7882  0.4654
 3485TIP3   OH232089   4.147   0.220   0.099  0.4698  0.0991  0.3221
 3485TIP3    H132090   4.131   0.231   0.193 -0.7109  0.1714  0.1369
 3485TIP3    H232091   4.159   0.309   0.066  1.5142  0.0321  0.4921
 3486TIP3   OH232092   2.391   0.775   0.161  0.2078 -0.0184  0.2797
 3486TIP3    H132093   2.368   0.708   0.226  0.8298  0.8667  1.4564
 3486TIP3    H232094   2.473   0.744   0.123  0.8922  0.4067  1.3570
 3487TIP3   OH232095   2.883   1.975   8.379  0.4072  0.3474  0.1800
 3487TIP3    H132096   2.957   2.031   8.357  2.0582 -1.6138  0.4335
 3487TIP3    H232097   2.907   1.934   8.462 -1.4180  0.3758  0.7729
 3488TIP3   OH232098   1.033   5.520   1.296  0.2867  0.2419 -0.2672
 3488TIP3    H132099   1.111   5.470   1.270 -0.2902 -0.2459 -1.0966
 3488TIP3    H232100   0.985   5.461   1.354 -0.4486 -0.2484 -1.3310
 3489TIP3   OH232101   1.773   5.219   8.476 -0.0980 -0.0291 -0.8294
 3489TIP3    H132102   1.788   5.313   8.468 -0.9812  0.0906 -1.2293
 3489TIP3    H232103   1.825   5.180   8.405  1.5200  0.0038  0.2974
 3490TIP3   OH232104   5.637   6.398   1.614  0.2677 -0.1598  0.0491
 3490TIP3    H132105   5.670   6.364   1.698  0.9636 -0.8512 -0.4913
 3490TIP3    H232106   5.579   6.330   1.581  1.6453 -0.8669 -1.0249
 3491TIP3   OH232107   4.871   2.687   7.415 -0.2028  0.2177  0.0946
 3491TIP3    H132108   4.819   2.766   7.426  0.3207  0.5613  0.1556
 3491TIP3    H232109   4.893   2.660   7.504  1.2388  1.1088  0.0321
 3492TIP3   OH232110   5.665   0.012   0.525  0.5285  0.3185 -0.2050
 3492TIP3    H132111   5.678  -0.082   0.531 -0.5497  0.2345  1.4864
 3492TIP3    H232112   5.751   0.047   0.503  1.5073 -0.8752  1.5062
 3493TIP3   OH232113   4.144   6.615   6.987  0.0217  0.2077  0.1391
 3493TIP3    H132114   4.117   6.532   7.026 -0.9846  0.4429 -0.0486
 3493TIP3    H232115   4.070   6.643   6.934  0.6410  0.8581 -0.4098
 3494TIP3   OH232116   3.339   2.043   1.816  0.4003  0.1945  0.0359
 3494TIP3    H132117   3.282   2.050   1.893  1.8217  0.0601  1.1627
 3494TIP3    H232118   3.311   1.963   1.772 -0.7510  0.5291  0.1333
 3495TIP3   OH232119   3.257   2.388   8.268  0.5275 -0.3034 -0.0443
 3495TIP3    H132120   3.229   2.317   8.325 -0.3846  1.0438  1.2523
 3495TIP3    H232121   3.176   2.430   8.239  1.0357  1.1198  0.4526
 3496TIP3   OH232122   6.080   5.149   1.249 -0.5281  0.1974  0.0714
 3496TIP3    H132123   6.153   5.092   1.225 -1.2075  0.2120 -2.1984
 3496TIP3    H232124   6.122   5.228   1.282  0.5459  0.4925 -1.8651
 3497TIP3   OH232125   5.124   0.388   7.548 -0.2590 -0.1897  0.2056
 3497TIP3    H132126   5.135   0.304   7.592 -0.7904 -1.5328 -2.0953
 3497TIP3    H232127   5.041   0.381   7.502  0.2558  1.1080 -1.0069
 3498TIP3   OH232128   3.131   1.319   0.333  0.0491  0.0913 -0.6112
 3498TIP3    H132129   3.075   1.387   0.296  0.8799  0.6153 -0.9485
 3498TIP3    H232130   3.214   1.364   0.351  0.7391 -0.9064 -1.1760
 3499TIP3   OH232131   6.549   5.611   7.922  0.5286 -0.2990 -0.3033
 3499TIP3    H132132   6.613   5.679   7.903  1.2753 -0.6681  0.7846
 3499TIP3    H232133   6.469   5.641   7.880  0.3750  2.0800  1.4531
 3500TIP3   OH232134   0.728   5.710   8.561 -0.2309 -0.1981  0.0056
 3500TIP3    H132135   0.678   5.784   8.596  1.7962  0.7577  1.0170
 3500TIP3    H232136   0.715   5.640   8.625  1.4323  0.7542  1.4686
 3501TIP3   OH232137   6.677   5.331   1.159 -0.4393 -0.3707  0.3732
 3501TIP3    H132138   6.699   5.306   1.069 -0.1172  1.4031 -0.0876
 3501TIP3    H232139   6.762   5.344   1.202 -0.3933  3.3162 -0.4739
 3502TIP3   OH232140   2.137   6.546   7.900  0.8653 -0.6194  0.3873
 3502TIP3    H132141   2.047   6.523   7.925  1.0312  1.6111  3.5919
 3502TIP3    H232142   2.188   6.467   7.917  0.0650 -0.7705  2.3689
 3503TIP3   OH232143   0.303   0.854   7.328  0.3722 -0.2226  0.4927
 3503TIP3    H132144   0.222   0.805   7.337  0.0456 -1.1887 -4.4410
 3503TIP3    H232145   0.371   0.797   7.365 -0.6819 -1.7437  0.1705
 3504TIP3   OH232146   4.837   4.355   0.258  0.3499  0.3437 -0.7344
 3504TIP3    H132147   4.880   4.314   0.183  1.1747  1.1652 -0.7204
 3504TIP3    H232148   4.902   4.355   0.327  0.7288  2.4847 -1.0087
 3505TIP3   OH232149   1.776   5.116   1.327  0.3667  0.0296  0.6312
 3505TIP3    H132150   1.752   5.024   1.319 -1.9504  0.5264  1.1973
 3505TIP3    H232151   1.824   5.120   1.410  2.4564 -0.9662 -0.4446
 3506TIP3   OH232152   5.967   6.184   1.240 -0.2760  0.4753 -0.0947
 3506TIP3    H132153   5.946   6.259   1.185 -0.9715  1.8178  1.8935
 3506TIP3    H232154   6.017   6.221   1.313  2.0191 -1.4712 -0.5631
 3507TIP3   OH232155   3.237   3.220   1.672  0.3402 -0.0344  0.0305
 3507TIP3    H132156   3.248   3.301   1.722  2.4539 -0.9331  1.1559
 3507TIP3    H232157   3.204   3.249   1.586  1.2353  2.0446  0.3233
 3508TIP3   OH232158   3.567   6.343   1.172 -0.3837  0.4434 -0.1597
 3508TIP3    H132159   3.570   6.367   1.264  0.3457 -0.4722  0.0718
 3508TIP3    H232160   3.632   6.400   1.130  0.2658 -0.0696  0.1305
 3509TIP3   OH232161   0.532   0.847   0.678 -0.6633  0.6769  0.5481
 3509TIP3    H132162   0.462   0.901   0.641  0.6737  1.7813 -0.4632
 3509TIP3    H232163   0.525   0.764   0.631 -0.0627  1.4784 -1.0298
 3510TIP3   OH232164   0.221   6.094   1.953  0.2357 -0.0027  0.3148
 3510TIP3    H132165   0.206   6.188   1.962 -0.6971 -0.1334  0.2141
 3510TIP3    H232166   0.230   6.062   2.043  0.1897  0.1239  0.3640
 3511TIP3   OH232167   6.273   4.946   1.223  0.2459 -0.3078  0.0588
 3511TIP3    H132168   6.349   5.001   1.240 -0.6450  0.1221  3.1991
 3511TIP3    H232169   6.293   4.863   1.268 -0.2525 -1.0133 -0.9651
 3512TIP3   OH232170   4.630   2.275   2.470  0.1493  0.1524 -0.1212
 3512TIP3    H132171   4.560   2.225   2.511 -0.7920  0.4944 -1.2596
 3512TIP3    H232172   4.649   2.228   2.389  1.1296  0.1677  0.0784
 3513TIP3   OH232173   6.880   2.154   0.188 -0.5223  0.3404 -0.4622
 3513TIP3    H132174   6.840   2.094   0.125  1.2594 -0.4131 -0.9568
 3513TIP3    H232175   6.885   2.103   0.269 -0.0484  0.2129 -0.5676
 3514TIP3   OH232176   6.801   3.190   0.540 -0.0587 -0.8854  0.0605
 3514TIP3    H132177   6.776   3.133   0.467  3.7837 -0.8740 -1.4963
 3514TIP3    H232178   6.851   3.261   0.499  1.2336 -0.2306  2.5586
 3515TIP3   OH232179   0.828   4.339   7.553 -0.2762 -0.1452  0.2991
 3515TIP3    H132180   0.841   4.392   7.475  1.3206 -0.9737 -0.0296
 3515TIP3    H232181   0.820   4.402   7.625  0.2029  0.5742 -0.2711
 3516TIP3   OH232182   6.679   0.700   8.267 -0.5134 -0.3124  0.2318
 3516TIP3    H132183   6.686   0.605   8.274 -0.3398 -0.5165 -1.9800
 3516TIP3    H232184   6.766   0.732   8.289 -1.0867 -0.4335  3.0580
 3517TIP3   OH232185   5.028   2.719   0.969 -0.0088  0.0002  0.0525
 3517TIP3    H132186   4.998   2.806   0.996  1.3071  0.3526  0.4431
 3517TIP3    H232187   5.023   2.666   1.049  0.4258  0.0713  0.1292
 3518TIP3   OH232188   4.654   5.171   6.918 -0.1482 -0.3347  0.2089
 3518TIP3    H132189   4.604   5.199   6.841  0.3123  0.3009  0.1275
 3518TIP3    H232190   4.590   5.130   6.975 -0.9680  1.3056  0.5428
 3519TIP3   OH232191   2.995   1.642   6.999  0.3126 -0.6884 -0.3920
 3519TIP3    H132192   2.913   1.592   6.999 -0.1966  0.1259 -0.3580
 3519TIP3    H232193   3.023   1.644   7.090  0.4157 -1.0358 -0.4155
 3520TIP3   OH232194   5.142   1.371   7.902 -0.1712  0.3443 -0.1238
 3520TIP3    H132195   5.051   1.395   7.920  0.4108  0.5821  2.9410
 3520TIP3    H232196   5.193   1.445   7.934  1.2177 -1.1479  1.3191
 3521TIP3   OH232197   4.916   4.904   8.052 -0.5004 -0.1708 -0.2443
 3521TIP3    H132198   4.991   4.955   8.083  0.3695 -1.9303  0.7390
 3521TIP3    H232199   4.865   4.886   8.132 -0.5225 -1.1944 -0.4691
 3522TIP3   OH232200   2.469   3.385   0.697 -0.0122  0.3582 -0.3914
 3522TIP3    H132201   2.394   3.377   0.756  0.8148 -0.9343  0.5363
 3522TIP3    H232202   2.431   3.384   0.609 -1.1588  0.9673  0.0786
 3523TIP3   OH232203   3.338   3.065   7.233 -0.0008 -0.2521  0.1459
 3523TIP3    H132204   3.342   2.998   7.302 -3.2481 -0.6578  0.0712
 3523TIP3    H232205   3.296   3.140   7.275  0.3517  0.4417 -0.7270
 3524TIP3   OH232206   6.210   1.669   8.023 -0.1136  0.1758 -0.2171
 3524TIP3    H132207   6.140   1.716   7.979 -0.2236  0.6060  0.4202
 3524TIP3    H232208   6.182   1.662   8.114 -0.1524 -1.2231 -0.3180
 3525TIP3   OH232209   6.658   2.869   7.538  0.5384 -0.3434  0.3048
 3525TIP3    H132210   6.612   2.912   7.466  0.9930  0.0260  0.2265
 3525TIP3    H232211   6.747   2.904   7.533 -0.0217  1.6928  2.6298
 3526TIP3   OH232212   2.259   4.311   7.575  0.5809 -0.0022  0.0034
 3526TIP3    H132213   2.350   4.325   7.600  0.4850 -0.7336  0.7561
 3526TIP3    H232214   2.229   4.239   7.629 -0.7587  0.8926  0.5056
 3527TIP3   OH232215   4.727   5.132   1.271 -0.7828 -0.0323  0.0197
 3527TIP3    H132216   4.659   5.065   1.281 -1.1698  0.6596  2.9128
 3527TIP3    H232217   4.788   5.114   1.343 -0.6079  2.3910  0.5331
 3528TIP3   OH232218   0.950   6.952   8.299  0.2384 -0.1236 -0.0813
 3528TIP3    H132219   0.871   6.983   8.255  0.6599  0.0824 -0.7028
 3528TIP3    H232220   0.936   6.858   8.309 -0.0055 -0.1196 -0.3602
 3529TIP3   OH232221   2.502   4.636   1.034  0.2302 -0.2309  0.2867
 3529TIP3    H132222   2.523   4.729   1.031  0.2628 -0.2473 -0.0537
 3529TIP3    H232223   2.499   4.615   1.128  0.1521  0.1263  0.3667
 3530TIP3   OH232224   5.691   0.117   1.410  0.4671  0.4770 -0.2631
 3530TIP3    H132225   5.636   0.091   1.484  1.1221  0.1068  0.0960
 3530TIP3    H232226   5.676   0.211   1.401 -1.0070  0.2319 -0.8120
 3531TIP3   OH232227   4.160   5.711   7.436  0.4428 -0.0376 -0.2175
 3531TIP3    H132228   4.074   5.682   7.403 -0.3222  1.0926  0.6939
 3531TIP3    H232229   4.175   5.794   7.391  2.2740 -1.3536 -2.2535
 3532TIP3   OH232230   2.180   3.353   6.216  0.5317 -0.0977  0.3943
 3532TIP3    H132231   2.259   3.353   6.162 -1.1451 -0.6374 -2.2297
 3532TIP3    H232232   2.168   3.261   6.240  0.9952  0.0696  1.2999
 3533TIP3   OH232233   3.890   1.432   7.484 -0.6116  0.4134 -0.0710
 3533TIP3    H132234   3.901   1.347   7.527  0.0405  0.5194 -0.0301
 3533TIP3    H232235   3.880   1.410   7.391 -2.7068  0.1307  0.1694
 3534TIP3   OH232236   2.557   3.636   0.212 -0.0334  0.1663 -0.0633
 3534TIP3    H132237   2.538   3.566   0.150 -1.2526  1.7883 -1.6703
 3534TIP3    H232238   2.563   3.715   0.157 -0.8793  1.6470  1.8297
 3535TIP3   OH232239   4.247   6.303   8.080 -0.6571  0.0126 -0.0279
 3535TIP3    H132240   4.318   6.329   8.022 -0.9636  2.3848  0.5454
 3535TIP3    H232241   4.285   6.235   8.136  0.9181  0.6360 -0.2842
 3536TIP3   OH232242   5.345   3.899   2.223  0.5559 -0.6080 -0.1482
 3536TIP3    H132243   5.394   3.841   2.165  1.3035 -0.7386  0.5971
 3536TIP3    H232244   5.412   3.948   2.270 -0.0450 -0.2158  0.3083
 3537TIP3   OH232245   2.476   5.335   0.237 -0.1214  0.2459 -0.1718
 3537TIP3    H132246   2.400   5.278   0.233  0.2431 -0.4285  1.6448
 3537TIP3    H232247   2.534   5.303   0.169 -1.2197  0.4442 -1.2333
 3538TIP3   OH232248   5.439   0.809   8.374 -0.4150  0.2022 -0.4350
 3538TIP3    H132249   5.447   0.713   8.373 -0.1287  0.2330 -1.3107
 3538TIP3    H232250   5.385   0.830   8.298  0.4404  0.8072 -0.8983
 3539TIP3   OH232251   1.170   3.033   0.173 -0.1733  0.1339 -0.1472
 3539TIP3    H132252   1.165   2.937   0.175  0.9768  0.0746  0.5243
 3539TIP3    H232253   1.252   3.051   0.127 -0.1538  0.7845  0.1434
 3540TIP3   OH232254   4.201   1.825   6.670 -0.0082  0.2972 -0.5611
 3540TIP3    H132255   4.259   1.877   6.614 -0.6653  0.9522 -0.6576
 3540TIP3    H232256   4.170   1.887   6.736 -0.3771 -0.1124 -0.3486
 3541TIP3   OH232257   2.713   6.080   8.298 -0.0287  0.0172  0.1333
 3541TIP3    H132258   2.627   6.075   8.255  0.0553 -2.8551  0.1035
 3541TIP3    H232259   2.719   5.998   8.347  2.2656  0.6674  1.0432
 3542TIP3   OH232260   1.780   1.678   7.535 -0.7662  0.3103 -0.0377
 3542TIP3    H132261   1.793   1.686   7.440 -2.3824  0.4081 -0.2892
 3542TIP3    H232262   1.843   1.739   7.573  1.7040 -1.5826 -0.8732
 3543TIP3   OH232263   2.415   1.364   0.193  0.4428  0.0556 -0.0677
 3543TIP3    H132264   2.506   1.375   0.221  0.4250  0.3131 -0.1114
 3543TIP3    H232265   2.422   1.326   0.106  0.4944 -1.3245  0.5050
 3544TIP3   OH232266   0.362   1.845   0.647  0.4228  0.4249  0.0383
 3544TIP3    H132267   0.298   1.875   0.712  0.8851 -1.4782  1.4476
 3544TIP3    H232268   0.431   1.803   0.699  3.0637  2.6744 -1.3763
 3545TIP3   OH232269   0.352   0.447   8.278 -0.2009  0.3142 -0.2294
 3545TIP3    H132270   0.393   0.374   8.325 -0.3404  1.2618  1.4539
 3545TIP3    H232271   0.274   0.408   8.238 -0.3128 -0.4528  0.6941
 3546TIP3   OH232272   4.895   2.514   7.990 -0.2104  0.1378 -0.0445
 3546TIP3    H132273   4.963   2.456   7.955  0.3640 -0.1501  1.4397
 3546TIP3    H232274   4.816   2.459   7.993  0.3726 -0.6831  1.5152
 3547TIP3   OH232275   0.252   2.279   7.333 -0.0282  0.5908 -0.2528
 3547TIP3    H132276   0.179   2.241   7.283  0.7999  0.5872 -1.5032
 3547TIP3    H232277   0.314   2.207   7.343  0.0402  0.7291  0.3706
 3548TIP3   OH232278   5.080   0.536   0.382 -0.1179 -0.3773 -0.2253
 3548TIP3    H132279   5.099   0.444   0.363  3.1722 -0.0343  0.6996
 3548TIP3    H232280   5.072   0.578   0.297 -0.7447 -1.3470 -0.6560
 3549TIP3   OH232281   6.501   6.660   7.177  0.2541 -0.0933  0.3467
 3549TIP3    H132282   6.535   6.748   7.161  0.3829  0.6577  3.8522
 3549TIP3    H232283   6.579   6.605   7.182  0.3706  0.0958  0.6327
 3550TIP3   OH232284   6.931   6.938   0.040  0.0246  0.0833 -0.2291
 3550TIP3    H132285   6.871   6.938   0.115 -0.1171 -1.1352 -0.3200
 3550TIP3    H232286   6.897   6.870  -0.018  1.5923 -0.7798 -0.1957
 3551TIP3   OH232287   6.838   1.310   1.961  0.6908 -0.5526 -0.1258
 3551TIP3    H132288   6.887   1.385   1.994  1.1969 -0.3845 -1.2022
 3551TIP3    H232289   6.758   1.308   2.013  0.7583  0.6105  0.0412
 3552TIP3   OH232290   4.919   0.336   8.071  0.3697  0.1652 -0.1457
 3552TIP3    H132291   4.951   0.343   8.161 -0.6383 -0.0249  0.2504
 3552TIP3    H232292   4.926   0.243   8.051  1.9093  0.3926 -0.7957
 3553TIP3   OH232293   4.212   0.432   0.564  0.5727  0.2675 -0.0094
 3553TIP3    H132294   4.119   0.420   0.583  0.6983 -0.5872  0.1068
 3553TIP3    H232295   4.254   0.353   0.597  1.5536  1.3065  1.3147
 3554TIP3   OH232296   3.944   0.392   1.884 -0.2522 -0.0088 -0.1584
 3554TIP3    H132297   3.876   0.346   1.933  0.2590 -0.8302 -0.1868
 3554TIP3    H232298   3.998   0.433   1.951 -0.8903  0.8289 -0.1449
 3555TIP3   OH232299   6.836   1.756   7.778 -0.5105  0.1824  0.2864
 3555TIP3    H132300   6.754   1.728   7.737 -0.2124 -0.6073  0.2298
 3555TIP3    H232301   6.813   1.769   7.870 -0.1369 -2.6074  0.8476
 3556TIP3   OH232302   2.903   0.541   0.707  0.0958 -0.3366  0.2738
 3556TIP3    H132303   2.952   0.579   0.634 -0.5256 -0.5442 -0.2621
 3556TIP3    H232304   2.886   0.450   0.679 -1.9426  0.1506 -0.2709
 3557TIP3   OH232305   1.557   5.147   8.090  0.4333  0.5348  0.3894
 3557TIP3    H132306   1.603   5.215   8.140  0.1218  0.8024  0.3145
 3557TIP3    H232307   1.552   5.073   8.151 -0.5266  1.0804  1.0119
 3558TIP3   OH232308   1.741   3.605   1.201 -0.4036  0.6901  0.3190
 3558TIP3    H132309   1.752   3.629   1.293 -0.8729  1.8083  0.0990
 3558TIP3    H232310   1.830   3.599   1.168 -0.2089 -0.2504  0.9606
 3559TIP3   OH232311   1.624   6.451   2.267  0.0506 -0.3910  0.1445
 3559TIP3    H132312   1.715   6.434   2.291  0.6130  0.0225 -1.5944
 3559TIP3    H232313   1.588   6.364   2.250  0.1417 -0.5467  0.7110
 3560TIP3   OH232314   6.872   3.682   8.045  0.6490  0.1102  0.6423
 3560TIP3    H132315   6.921   3.600   8.056 -0.7870 -0.6156  1.9096
 3560TIP3    H232316   6.873   3.723   8.131 -2.7511 -1.0070  1.3705
 3561TIP3   OH232317   3.655   5.023   8.094  0.0734 -0.2118 -0.0959
 3561TIP3    H132318   3.680   5.017   8.186 -2.8500 -0.9587  0.7361
 3561TIP3    H232319   3.616   5.110   8.086  0.5000 -0.0674 -0.7165
 3562TIP3   OH232320   0.501   0.595   0.548 -0.1681 -0.1655 -0.1903
 3562TIP3    H132321   0.420   0.633   0.513 -0.3887 -0.9567 -0.5633
 3562TIP3    H232322   0.518   0.520   0.492 -0.3138 -1.2398  1.1568
 3563TIP3   OH232323   3.473   2.249   8.190  0.0311  0.2216 -0.5317
 3563TIP3    H132324   3.448   2.170   8.141 -0.6869 -0.4565  0.8836
 3563TIP3    H232325   3.390   2.290   8.215  0.3847  0.6668 -0.0598
 3564TIP3   OH232326   1.070   0.175   8.433  0.1243 -0.1835 -0.1044
 3564TIP3    H132327   1.153   0.138   8.463 -0.6620 -0.1963  2.3178
 3564TIP3    H232328   1.032   0.106   8.377  2.2981  0.4033 -2.4643
 3565TIP3   OH232329   0.601   2.674   1.806 -0.0058 -0.1233 -1.0926
 3565TIP3    H132330   0.695   2.689   1.807  0.4778 -2.4970 -2.5960
 3565TIP3    H232331   0.583   2.637   1.720 -1.7185 -2.7538  0.2326
 3566TIP3   OH232332   1.994   6.473   6.803  0.2060  0.4786 -0.5476
 3566TIP3    H132333   1.994   6.512   6.890  0.7121  0.1766 -0.4102
 3566TIP3    H232334   1.910   6.427   6.797  0.6601 -0.4967  0.2400
 3567TIP3   OH232335   4.700   1.721   6.612 -0.2942  0.9936  0.4346
 3567TIP3    H132336   4.765   1.660   6.648 -0.0478  1.5997  1.0250
 3567TIP3    H232337   4.658   1.672   6.541 -0.9717 -0.3346  1.6952
 3568TIP3   OH232338   4.162   3.047   1.348  0.1144  0.4219 -0.0142
 3568TIP3    H132339   4.218   3.032   1.424 -0.7432 -0.0183  0.5508
 3568TIP3    H232340   4.221   3.037   1.273  1.0318  1.1476  0.5863
 3569TIP3   OH232341   5.435   0.810   7.885 -0.2191  0.5001  0.3464
 3569TIP3    H132342   5.339   0.808   7.889 -0.2862  1.7633 -0.1888
 3569TIP3    H232343   5.457   0.770   7.801 -0.3365  0.9822  0.0791
 3570TIP3   OH232344   2.025   5.871   6.912 -0.6854 -0.1880 -0.0764
 3570TIP3    H132345   2.115   5.849   6.935 -0.8098 -0.6122  0.0120
 3570TIP3    H232346   2.018   5.849   6.819 -0.8122 -0.5328  0.0138
 3571TIP3   OH232347   0.320   2.536   0.651 -0.1813  0.1133 -0.2551
 3571TIP3    H132348   0.293   2.622   0.619 -0.4423  0.0069 -0.3234
 3571TIP3    H232349   0.349   2.489   0.573  2.7688  1.1201  0.0983
 3572TIP3   OH232350   3.609   2.320   8.441  0.3287 -0.2940 -0.7639
 3572TIP3    H132351   3.579   2.309   8.532  0.9626  0.2795 -0.4769
 3572TIP3    H232352   3.556   2.258   8.391 -0.9894  0.3379 -0.2105
 3573TIP3   OH232353   5.768   5.320   2.065  0.2312 -0.0733 -0.1855
 3573TIP3    H132354   5.821   5.279   2.134  1.3878  0.9365 -0.4282
 3573TIP3    H232355   5.757   5.410   2.093  2.3528  0.9080 -2.1221
 3574TIP3   OH232356   1.331   3.416   8.335  0.2178  0.2302 -0.4315
 3574TIP3    H132357   1.396   3.456   8.393  0.0508 -0.1112 -0.0012
 3574TIP3    H232358   1.262   3.385   8.394 -0.5018  0.8960 -0.9156
 3575TIP3   OH232359   1.311   2.073   6.475  0.2779  0.0205 -0.0460
 3575TIP3    H132360   1.396   2.047   6.509  0.2426  1.4010  1.2104
 3575TIP3    H232361   1.319   2.167   6.458 -0.7622  0.0238 -0.6667
 3576TIP3   OH232362   3.099   0.278   7.245  0.1047 -0.2363  0.2882
 3576TIP3    H132363   3.016   0.232   7.240 -0.8657  1.4486  0.2511
 3576TIP3    H232364   3.144   0.256   7.163 -0.4839 -0.8278  0.1199
 3577TIP3   OH232365   3.927   0.620   2.138  0.0261 -0.5935  0.2211
 3577TIP3    H132366   4.011   0.601   2.096  0.6811  0.2922  1.0840
 3577TIP3    H232367   3.929   0.714   2.155 -2.0451 -0.1121 -1.6400
 3578TIP3   OH232368   0.220   6.727   1.778 -0.5793  0.1350  0.2772
 3578TIP3    H132369   0.141   6.746   1.828 -1.9021 -1.8398 -0.9551
 3578TIP3    H232370   0.225   6.632   1.775 -0.3641  0.1405 -2.9309
 3579TIP3   OH232371   3.754   2.123   0.920 -1.2105  0.7182  0.3527
 3579TIP3    H132372   3.770   2.216   0.936 -0.1775  0.1778  2.8876
 3579TIP3    H232373   3.709   2.093   0.999  1.1824 -1.5291  0.9696
 3580TIP3   OH232374   5.656   6.582   7.472 -0.8796  0.2796  0.6061
 3580TIP3    H132375   5.659   6.555   7.564  1.7730  0.6178  0.6954
 3580TIP3    H232376   5.620   6.506   7.426 -2.4627  0.1946  1.9041
 3581TIP3   OH232377   5.436   2.423   8.084 -0.8982  0.8474 -0.0086
 3581TIP3    H132378   5.521   2.401   8.046  0.0464 -1.7565  3.1570
 3581TIP3    H232379   5.381   2.347   8.065 -2.2055  2.0003 -1.0023
 3582TIP3   OH232380   4.944   5.107   1.482 -0.4408  0.2156  0.1380
 3582TIP3    H132381   5.028   5.112   1.437 -0.7449  1.0995 -0.3566
 3582TIP3    H232382   4.955   5.160   1.561 -0.8778  1.3321 -0.5240
 3583TIP3   OH232383   5.190   1.149   7.719  0.2877  0.0003  0.4183
 3583TIP3    H132384   5.200   1.225   7.775  0.1000  0.8291 -0.6304
 3583TIP3    H232385   5.192   1.184   7.630 -2.4071 -0.8800 -0.0796
 3584TIP3   OH232386   1.254   4.182   1.527 -0.1118  0.1593 -0.4872
 3584TIP3    H132387   1.264   4.190   1.622 -1.4316 -0.8383 -0.2353
 3584TIP3    H232388   1.215   4.265   1.500  0.7354  0.6441 -0.2339
 3585TIP3   OH232389   1.709   4.786   7.578  0.3109 -0.4305 -0.7062
 3585TIP3    H132390   1.778   4.767   7.642  1.0014  1.0286 -0.9757
 3585TIP3    H232391   1.664   4.862   7.614 -0.1281 -0.3989 -1.3182
 3586TIP3   OH232392   5.772   4.911   5.980 -0.0417 -0.0547  0.3131
 3586TIP3    H132393   5.801   4.843   6.041  0.8656  0.4235  0.4318
 3586TIP3    H232394   5.722   4.864   5.913 -1.0147 -0.5982  1.3832
 3587TIP3   OH232395   0.765   2.108   5.971  0.1723  0.0424  0.3631
 3587TIP3    H132396   0.772   2.019   5.938  2.4041  0.3867 -0.2351
 3587TIP3    H232397   0.730   2.098   6.060  0.3325 -1.4161  0.2839
 3588TIP3   OH232398   1.803   6.714   1.771  0.2234  0.1150 -0.0337
 3588TIP3    H132399   1.774   6.736   1.860  1.8072 -0.1121  0.5707
 3588TIP3    H232400   1.845   6.794   1.740  0.2087 -0.0036 -0.3557
 3589TIP3   OH232401   3.490   4.730   0.219  0.1871  0.0956 -0.5692
 3589TIP3    H132402   3.538   4.725   0.301 -0.6512  1.3589  0.0343
 3589TIP3    H232403   3.459   4.820   0.215 -3.1795 -0.9136 -0.2798
 3590TIP3   OH232404   1.373   5.769   1.481  0.0525 -0.1085  0.1625
 3590TIP3    H132405   1.415   5.738   1.561 -1.7921 -0.2333  1.1502
 3590TIP3    H232406   1.388   5.698   1.418  0.7380 -0.4319  0.6738
 3591TIP3   OH232407   5.878   0.104   7.881 -0.1498 -0.4286  0.1978
 3591TIP3    H132408   5.883   0.009   7.864 -0.4441 -0.8550  2.2196
 3591TIP3    H232409   5.941   0.142   7.820 -1.0157 -1.7775 -1.6214
 3592TIP3   OH232410   2.611   6.295   7.281  0.2158 -0.0137 -0.6322
 3592TIP3    H132411   2.667   6.364   7.244  0.0676 -0.5671 -1.9417
 3592TIP3    H232412   2.580   6.246   7.205 -1.1622 -0.4104  0.1441
 3593TIP3   OH232413   0.705   2.803   7.749  0.7286 -0.2963  0.7347
 3593TIP3    H132414   0.655   2.790   7.830  1.0280 -0.2048  0.9382
 3593TIP3    H232415   0.793   2.827   7.780  0.6881  0.3215  0.3799
 3594TIP3   OH232416   5.546   2.727   0.684 -0.4188 -0.3218  0.2556
 3594TIP3    H132417   5.584   2.739   0.597 -0.7795 -0.9859  0.0038
 3594TIP3    H232418   5.486   2.800   0.694 -0.9024 -0.6287 -0.3446
 3595TIP3   OH232419   5.483   5.832   0.049  0.2230 -0.2529 -0.2134
 3595TIP3    H132420   5.499   5.746   0.087  0.0355 -0.4822 -0.6536
 3595TIP3    H232421   5.449   5.814  -0.038  0.5185  0.2717 -0.4391
 3596TIP3   OH232422   6.442   5.901   0.575  0.1339  0.2761  0.0701
 3596TIP3    H132423   6.501   5.915   0.648  0.2420  1.1364 -0.1698
 3596TIP3    H232424   6.445   5.807   0.559  1.5967  0.3275 -0.0676
 3597TIP3   OH232425   0.710   4.845   1.269 -0.1734 -0.4313  0.3591
 3597TIP3    H132426   0.675   4.762   1.302  0.7736 -1.1249 -0.3203
 3597TIP3    H232427   0.666   4.858   1.185  2.4250 -2.3183 -1.4832
 3598TIP3   OH232428   1.400   1.882   0.169 -0.2359  0.0653 -0.0415
 3598TIP3    H132429   1.344   1.930   0.230 -0.1869  0.0037  0.0516
 3598TIP3    H232430   1.416   1.944   0.097 -1.8586 -0.4864 -0.9288
 3599TIP3   OH232431   3.158   5.667   7.102  0.6135 -0.9171  0.1396
 3599TIP3    H132432   3.218   5.628   7.037  1.8250 -1.7445  1.6830
 3599TIP3    H232433   3.133   5.751   7.064  0.6870 -1.6840 -1.7316
 3600TIP3   OH232434   0.191   4.455   6.747  0.0873  0.2713  0.4512
 3600TIP3    H132435   0.100   4.480   6.760 -0.3124 -1.5916  1.5451
 3600TIP3    H232436   0.231   4.532   6.706 -1.7930  1.3815  0.5753
 3601TIP3   OH232437   2.765   5.546   0.014 -0.0112 -0.1338 -0.0778
 3601TIP3    H132438   2.726   5.466   0.051 -0.7563 -0.7501 -2.0606
 3601TIP3    H232439   2.859   5.534   0.027 -0.2096 -0.5055  1.2021
 3602TIP3   OH232440   4.934   6.522   1.658 -0.2552 -0.1497 -0.6746
 3602TIP3    H132441   5.006   6.585   1.663  0.7188 -1.2670 -0.0583
 3602TIP3    H232442   4.855   6.575   1.668  0.5186  1.0031 -0.4692
 3603TIP3   OH232443   5.479   3.566   0.984 -0.1706 -0.3661 -0.3750
 3603TIP3    H132444   5.567   3.533   0.964  0.2057  0.8541 -0.8272
 3603TIP3    H232445   5.437   3.576   0.899 -0.2803  0.2951 -0.2488
 3604TIP3   OH232446   0.445   4.141   2.143 -0.1041 -0.1851 -0.5653
 3604TIP3    H132447   0.393   4.214   2.177  0.4332 -0.1466  0.2013
 3604TIP3    H232448   0.471   4.168   2.055 -1.1139 -0.0741 -0.8422
 3605TIP3   OH232449   3.386   0.315   6.489  0.0774 -0.4766  0.0829
 3605TIP3    H132450   3.317   0.373   6.458  0.5614 -0.7028 -1.4949
 3605TIP3    H232451   3.443   0.371   6.541 -1.3174 -0.3097  1.5294
 3606TIP3   OH232452   1.733   0.926   7.714  0.1425 -0.2693  0.2930
 3606TIP3    H132453   1.772   0.849   7.757 -2.1990 -0.9871  1.3136
 3606TIP3    H232454   1.664   0.889   7.659 -0.6874  1.0511  0.4083
 3607TIP3   OH232455   5.118   5.147   6.053  0.3207  0.0255  0.3638
 3607TIP3    H132456   5.030   5.127   6.084  0.8142  0.2866  2.0018
 3607TIP3    H232457   5.112   5.237   6.020 -0.3965 -0.5345 -1.1617
 3608TIP3   OH232458   5.102   5.631   0.559  0.0535 -0.2204 -0.2228
 3608TIP3    H132459   5.168   5.691   0.594 -0.1398 -0.3956  0.4599
 3608TIP3    H232460   5.087   5.568   0.630 -0.5796 -0.3992 -0.5112
 3609TIP3   OH232461   2.474   1.854   1.722 -0.8345 -0.2636  0.1840
 3609TIP3    H132462   2.450   1.936   1.677 -1.5570 -0.2023  0.6606
 3609TIP3    H232463   2.524   1.883   1.798  0.0849 -0.3489 -0.3741
 3610TIP3   OH232464   3.995   4.480   2.519  0.6771 -0.4569  0.8963
 3610TIP3    H132465   4.025   4.570   2.508 -0.2771 -0.0791  1.2624
 3610TIP3    H232466   3.920   4.473   2.460 -0.0407 -0.6074  1.7979
 3611TIP3   OH232467   2.848   6.961   7.728  0.0432  0.6784 -0.4415
 3611TIP3    H132468   2.883   7.002   7.808 -1.5423  1.0822  0.0803
 3611TIP3    H232469   2.867   7.025   7.659 -0.6007  1.3973  0.0232
 3612TIP3   OH232470   1.612   4.611   0.750  0.1208  0.2876 -0.1122
 3612TIP3    H132471   1.593   4.704   0.747 -3.2924 -0.2642 -3.3256
 3612TIP3    H232472   1.558   4.577   0.821 -0.0181  0.5550 -0.0890
 3613TIP3   OH232473   2.950   3.532   7.321 -0.0063  0.2404 -0.2340
 3613TIP3    H132474   2.911   3.615   7.293 -0.7792 -0.6537 -1.9393
 3613TIP3    H232475   3.032   3.526   7.272  0.6206  0.4978  0.7500
 3614TIP3   OH232476   6.780   5.561   6.817 -0.5164  0.3263 -0.1983
 3614TIP3    H132477   6.798   5.474   6.783  0.0989  0.8153 -1.1828
 3614TIP3    H232478   6.716   5.547   6.887 -0.5328 -0.8893 -0.4352
 3615TIP3   OH232479   4.958   0.023   6.074 -0.5345  0.4003  0.1564
 3615TIP3    H132480   4.937  -0.046   6.011 -0.4397  0.7096 -0.2251
 3615TIP3    H232481   5.007   0.087   6.022 -0.1980  0.5197  0.6190
 3616TIP3   OH232482   6.936   3.045   0.728 -0.2835 -0.2050  0.5221
 3616TIP3    H132483   6.938   2.956   0.691  1.4824  0.2700 -0.6791
 3616TIP3    H232484   6.901   3.099   0.657  0.2028  0.2887  0.6545
 3617TIP3   OH232485   4.690   5.730   0.501  0.1100  0.1730 -0.4360
 3617TIP3    H132486   4.729   5.647   0.530 -1.8461 -0.9763 -0.8974
 3617TIP3    H232487   4.704   5.790   0.574  1.3681 -0.6113 -0.0004
 3618TIP3   OH232488   2.406   4.791   6.839 -0.0329 -0.2663  0.1630
 3618TIP3    H132489   2.487   4.761   6.798  0.2719  2.4307 -1.4301
 3618TIP3    H232490   2.432   4.867   6.891 -1.5404  0.7365 -0.4870
 3619TIP3   OH232491   0.553   2.286   7.996 -0.4876 -0.0381 -0.3357
 3619TIP3    H132492   0.512   2.220   7.941  0.6171 -0.9813 -0.0712
 3619TIP3    H232493   0.488   2.308   8.062 -1.2536 -0.0509 -1.0793
 3620TIP3   OH232494   2.797   0.640   1.436 -0.1072  0.6088 -0.0078
 3620TIP3    H132495   2.858   0.567   1.447 -1.8544 -0.8717  0.2301
 3620TIP3    H232496   2.797   0.657   1.342 -0.7595 -0.6862 -0.2570
 3621TIP3   OH232497   4.186   3.744   7.380  0.6581 -0.3772  0.0812
 3621TIP3    H132498   4.140   3.669   7.418  0.0069 -0.4872 -0.8832
 3621TIP3    H232499   4.130   3.819   7.400 -0.0578 -0.5336 -1.2378
 3622TIP3   OH232500   3.108   5.289   7.433  0.3248  0.2489  0.0829
 3622TIP3    H132501   3.118   5.381   7.455  0.5926  0.0952  0.6029
 3622TIP3    H232502   3.148   5.242   7.506  1.8016 -0.2608 -0.9944
 3623TIP3   OH232503   4.306   2.059   6.997 -0.0695  0.4023 -0.5474
 3623TIP3    H132504   4.400   2.043   7.005 -0.1980 -0.5398 -0.8141
 3623TIP3    H232505   4.298   2.117   6.922  0.2814  0.3611 -0.6201
 3624TIP3   OH232506   2.677   3.932   1.483  0.1243  0.0322  0.4690
 3624TIP3    H132507   2.689   4.023   1.456 -0.5215  0.3970  1.3728
 3624TIP3    H232508   2.582   3.919   1.484  0.2259 -1.3069 -1.7081
 3625TIP3   OH232509   2.553   3.252   7.246  0.0669 -0.5267 -0.1444
 3625TIP3    H132510   2.530   3.255   7.153 -0.3084  0.9114 -0.0222
 3625TIP3    H232511   2.468   3.253   7.291  0.2727  0.2038  0.2303
 3626TIP3   OH232512   2.439   0.030   0.490 -0.4838 -0.3455 -0.2366
 3626TIP3    H132513   2.476   0.096   0.430 -0.2046  0.2308  0.5497
 3626TIP3    H232514   2.513  -0.027   0.511 -0.7608 -1.0238 -1.0395
 3627TIP3   OH232515   4.508   2.214   6.641  0.4680 -0.1201 -0.3970
 3627TIP3    H132516   4.459   2.158   6.582  1.1722 -1.5720  0.3531
 3627TIP3    H232517   4.524   2.294   6.590 -1.4012 -0.1680 -1.1383
 3628TIP3   OH232518   4.141   5.281   1.153  0.0542 -0.0271 -0.4176
 3628TIP3    H132519   4.228   5.240   1.152  0.1935  0.0473 -3.9176
 3628TIP3    H232520   4.085   5.219   1.104 -0.9580  1.5463 -1.3464
 3629TIP3   OH232521   6.442   5.632   0.519 -0.3032  0.4200  0.0870
 3629TIP3    H132522   6.352   5.620   0.488 -0.3094  0.5700  0.0481
 3629TIP3    H232523   6.446   5.582   0.600 -1.1469  2.4018  1.4342
 3630TIP3   OH232524   2.489   2.074   6.669  0.1960  0.0470  0.0857
 3630TIP3    H132525   2.447   2.012   6.609  0.1522  1.3897 -1.3493
 3630TIP3    H232526   2.432   2.150   6.667  2.2862  1.7095 -1.4666
 3631TIP3   OH232527   6.671   5.714   7.168  0.0429 -0.2761  0.0670
 3631TIP3    H132528   6.731   5.762   7.226 -1.7304 -0.6618  2.3548
 3631TIP3    H232529   6.702   5.624   7.171 -0.8662 -0.5780  1.6730
 3632TIP3   OH232530   2.643   1.182   7.474 -0.1947 -0.5432  0.0487
 3632TIP3    H132531   2.718   1.242   7.479  0.1908 -1.0318  0.2483
 3632TIP3    H232532   2.568   1.239   7.457  0.2604 -0.0756 -0.4492
 3633TIP3   OH232533   0.505   2.880   1.596  0.0556  0.8292 -0.0931
 3633TIP3    H132534   0.600   2.876   1.583  0.0226 -2.4152 -0.0845
 3633TIP3    H232535   0.493   2.940   1.670  2.0404  1.5349 -0.2865
 3634TIP3   OH232536   4.029   5.332   0.633  0.1424  0.1986  0.2711
 3634TIP3    H132537   3.958   5.380   0.591  1.1734  1.1670 -0.4251
 3634TIP3    H232538   4.051   5.385   0.710  0.4088  0.1498  0.2304
 3635TIP3   OH232539   2.026   3.285   7.405  0.0212  0.3837  0.5429
 3635TIP3    H132540   1.940   3.262   7.368 -0.2730 -0.4911  1.7299
 3635TIP3    H232541   2.005   3.331   7.486  0.6332 -2.0205  2.1600
 3636TIP3   OH232542   0.415   3.688   1.741 -0.4772  0.3520 -0.0716
 3636TIP3    H132543   0.430   3.663   1.650  0.2508 -0.0197  0.1359
 3636TIP3    H232544   0.437   3.781   1.745  0.6107  0.1086 -0.0487
 3637TIP3   OH232545   2.250   4.839   7.694 -0.3297 -0.4082 -0.2825
 3637TIP3    H132546   2.242   4.895   7.771 -1.2868  0.1396 -0.7670
 3637TIP3    H232547   2.343   4.846   7.669  0.0312 -0.7481  0.9215
 3638TIP3   OH232548   4.700   2.847   6.644  0.8297  0.3598  0.1167
 3638TIP3    H132549   4.724   2.819   6.732 -0.2140 -0.5784  0.1212
 3638TIP3    H232550   4.696   2.766   6.593  0.4546  0.7885 -0.5490
 3639TIP3   OH232551   1.587   2.076   6.938  0.1386 -0.6902 -0.3695
 3639TIP3    H132552   1.568   2.075   6.844  0.3895 -2.2450 -0.4233
 3639TIP3    H232553   1.637   1.996   6.954  1.2255  0.1929  0.8809
 3640TIP3   OH232554   4.079   6.337   7.048  0.3414 -0.1956 -0.5542
 3640TIP3    H132555   4.153   6.280   7.026 -0.1796 -0.9502 -0.3919
 3640TIP3    H232556   4.019   6.328   6.974 -0.2766 -0.7835  0.0056
 3641TIP3   OH232557   1.608   3.925   0.072 -0.7560 -0.1611  0.0406
 3641TIP3    H132558   1.654   3.865   0.131 -3.2599 -2.2537  0.0408
 3641TIP3    H232559   1.520   3.887   0.063 -1.5709  2.0083 -2.2587
 3642TIP3   OH232560   3.031   2.102   6.919  1.0473 -0.3877 -0.6049
 3642TIP3    H132561   3.034   2.027   6.861  0.5480 -0.8639 -0.0300
 3642TIP3    H232562   2.946   2.142   6.902  1.6394  0.5461 -1.5010
 3643TIP3   OH232563   2.881   0.479   7.914  0.0967 -0.8991  0.3818
 3643TIP3    H132564   2.822   0.502   7.986 -0.2726  0.8082 -0.4159
 3643TIP3    H232565   2.936   0.409   7.950 -3.1068 -3.4528  0.7981
 3644TIP3   OH232566   0.356   3.370   8.510 -0.0425 -0.3181 -0.2175
 3644TIP3    H132567   0.397   3.448   8.471 -0.1330  0.5965  1.4139
 3644TIP3    H232568   0.351   3.307   8.438  1.9140  0.4302 -1.0906
 3645TIP3   OH232569   1.671   1.209   0.579 -0.1038  0.2323  0.1811
 3645TIP3    H132570   1.742   1.220   0.515 -0.3094 -0.7231 -0.2303
 3645TIP3    H232571   1.712   1.166   0.654 -0.4946 -1.6727 -0.6296
 3646TIP3   OH232572   3.376   0.796   6.775 -0.1596 -0.2911 -0.4927
 3646TIP3    H132573   3.452   0.771   6.722 -0.1664  0.3027 -0.7940
 3646TIP3    H232574   3.310   0.822   6.711 -0.5086 -0.5010 -0.2202
 3647TIP3   OH232575   0.661   1.213   0.369 -0.4913  0.0823 -0.0944
 3647TIP3    H132576   0.634   1.295   0.327 -0.2304  0.3839  0.3107
 3647TIP3    H232577   0.580   1.166   0.387 -0.6212  0.1045 -0.6299
 3648TIP3   OH232578   2.674   2.962   7.105  0.0801 -0.1376 -0.3458
 3648TIP3    H132579   2.579   2.946   7.107 -0.2347  1.5384  1.4285
 3648TIP3    H232580   2.689   3.005   7.021 -0.8091 -0.0673 -0.4791
 3649TIP3   OH232581   5.722   0.541   7.509  0.4977  0.5099 -0.1763
 3649TIP3    H132582   5.752   0.454   7.534  0.5384  1.0041  1.6483
 3649TIP3    H232583   5.640   0.526   7.463  0.6094 -0.5015 -0.0649
 3650TIP3   OH232584   3.369   4.526   8.363 -0.2536  0.2575 -0.5667
 3650TIP3    H132585   3.424   4.601   8.387  0.6064  0.2247 -2.2511
 3650TIP3    H232586   3.361   4.475   8.443  2.0919  0.3580 -0.1870
 3651TIP3   OH232587   5.717   3.354   7.021  0.5185 -0.3442 -0.0930
 3651TIP3    H132588   5.624   3.330   7.025  0.4513  0.0506  2.6295
 3651TIP3    H232589   5.722   3.416   6.948 -1.2184 -0.8709 -0.7285
 3652TIP3   OH232590   0.792   3.593   1.752  0.5852  0.2456 -0.4076
 3652TIP3    H132591   0.857   3.611   1.820 -0.3389 -0.0393  0.5766
 3652TIP3    H232592   0.720   3.550   1.798 -1.4242  2.7308 -0.9520
 3653TIP3   OH232593   1.087   2.860   2.209  0.2667  0.2470 -0.4914
 3653TIP3    H132594   1.128   2.937   2.249 -0.9141  0.4393  0.3652
 3653TIP3    H232595   1.005   2.849   2.256  0.8858 -2.1923  0.1572
 3654TIP3   OH232596   3.260   1.905   2.077  0.0159 -0.0137  0.1234
 3654TIP3    H132597   3.302   1.968   2.135 -2.9074  0.5526  1.8254
 3654TIP3    H232598   3.294   1.820   2.105 -0.4082  0.3549  1.8813
 3655TIP3   OH232599   3.789   4.860   0.921 -0.2966 -0.7227 -0.0001
 3655TIP3    H132600   3.749   4.863   1.007  1.4397  0.7682  0.8390
 3655TIP3    H232601   3.779   4.950   0.887  0.7626 -0.7661 -0.4800
 3656TIP3   OH232602   0.404   2.124   6.612  0.4169 -0.4181 -0.4305
 3656TIP3    H132603   0.329   2.083   6.654  0.4948  1.4070  1.6707
 3656TIP3    H232604   0.474   2.059   6.618  0.1650 -0.5707  1.5369
 3657TIP3   OH232605   2.932   5.028   2.188  0.0292  0.0968  0.0728
 3657TIP3    H132606   2.940   4.966   2.115  0.4683  0.6268 -0.3502
 3657TIP3    H232607   3.020   5.029   2.227 -0.2446 -0.2888  0.6978
 3658TIP3   OH232608   5.378   5.243   0.287  0.0506 -0.2360 -0.4684
 3658TIP3    H132609   5.390   5.326   0.332 -2.5906  1.2093 -2.1302
 3658TIP3    H232610   5.438   5.247   0.213 -0.3084  0.3895 -0.7364
 3659TIP3   OH232611   6.683   3.034   6.923 -0.0532  0.0823  0.9151
 3659TIP3    H132612   6.731   2.959   6.887  0.8428  0.3084  1.6178
 3659TIP3    H232613   6.594   3.024   6.887  0.6404 -0.0176 -0.8812
 3660TIP3   OH232614   6.871   6.751   7.365 -0.1031 -0.0442 -0.6886
 3660TIP3    H132615   6.826   6.741   7.449 -2.1346  0.5035 -1.6422
 3660TIP3    H232616   6.807   6.793   7.308  1.7956  1.2003 -2.0503
 3661TIP3   OH232617   1.924   1.297   7.810 -0.1803 -0.6752  0.3087
 3661TIP3    H132618   1.982   1.227   7.781 -1.0307 -1.8303  1.2881
 3661TIP3    H232619   1.883   1.329   7.729  2.3669  0.7720 -0.5307
 3662TIP3   OH232620   4.703   1.135   0.938  0.2922 -0.5178 -0.3253
 3662TIP3    H132621   4.688   1.197   0.866  0.0607 -2.3367 -1.9334
 3662TIP3    H232622   4.691   1.188   1.017  0.8290  1.6429 -1.5821
 3663TIP3   OH232623   1.702   0.967   1.223 -0.1036  0.1320  0.4332
 3663TIP3    H132624   1.740   0.904   1.284 -1.0559 -1.4411 -0.5168
 3663TIP3    H232625   1.773   0.989   1.163  0.5638  0.9309  1.4970
 3664TIP3   OH232626   4.804   0.206   1.267 -0.6084 -0.3425 -0.0974
 3664TIP3    H132627   4.892   0.243   1.263 -0.8707  0.2607 -2.5806
 3664TIP3    H232628   4.807   0.142   1.337  2.3899 -1.7381 -1.3465
 3665TIP3   OH232629   1.178   4.003   0.876  0.2787 -0.1458  0.5858
 3665TIP3    H132630   1.222   4.001   0.961 -0.4500 -3.0999  1.0226
 3665TIP3    H232631   1.245   3.973   0.814  0.1369 -0.3547  0.5308
 3666TIP3   OH232632   4.314   1.787   7.528  0.6791 -0.1588  0.2868
 3666TIP3    H132633   4.348   1.802   7.616  1.4559 -0.1674 -0.0071
 3666TIP3    H232634   4.232   1.835   7.526  1.4189  1.1504  0.4962
 3667TIP3   OH232635   2.201   0.976   0.987  0.2284 -0.6012  0.0182
 3667TIP3    H132636   2.150   0.985   0.907 -0.0794 -0.4268  0.2318
 3667TIP3    H232637   2.187   0.886   1.014  0.5999 -0.7584 -0.3007
 3668TIP3   OH232638   5.617   4.037   7.127 -0.8932 -0.4429  0.1360
 3668TIP3    H132639   5.651   4.126   7.134 -2.4122  0.1440  0.5797
 3668TIP3    H232640   5.692   3.984   7.098 -0.2232  1.1528 -1.2283
 3669TIP3   OH232641   4.338   5.103   1.221  0.4835 -0.5772 -0.3114
 3669TIP3    H132642   4.304   5.121   1.309  0.9361  1.6776 -0.5403
 3669TIP3    H232643   4.407   5.039   1.235  0.0647 -0.8049  0.8786
 3670TIP3   OH232644   1.266   2.450   7.556  0.2947  0.1008 -0.5397
 3670TIP3    H132645   1.352   2.470   7.594 -0.4285  0.1190  1.1595
 3670TIP3    H232646   1.229   2.384   7.615 -1.2587  0.7995 -0.7058
 3671TIP3   OH232647   6.639   6.315   8.412  0.1336  0.0028 -0.1000
 3671TIP3    H132648   6.552   6.307   8.450  0.2869 -2.3313 -0.0983
 3671TIP3    H232649   6.694   6.343   8.486 -0.4179  0.4814  0.1409
 3672TIP3   OH232650   3.763   5.098   7.856  0.8617 -0.2128 -1.0897
 3672TIP3    H132651   3.670   5.123   7.860  0.7543 -0.4224 -2.0236
 3672TIP3    H232652   3.785   5.075   7.946  1.2574  4.1076  0.1244
 3673TIP3   OH232653   6.621   5.528   2.129  0.1666 -0.2265 -0.3694
 3673TIP3    H132654   6.545   5.508   2.183 -0.1106 -1.0728 -1.0433
 3673TIP3    H232655   6.614   5.467   2.055  2.0486 -1.0563  0.0678
 3674TIP3   OH232656   1.802   4.269   0.671  0.9527  0.4142  0.2437
 3674TIP3    H132657   1.741   4.277   0.745  1.9591  0.4366  1.0974
 3674TIP3    H232658   1.885   4.304   0.705  1.5399  0.0450 -0.7753
 3675TIP3   OH232659   2.852   3.344   1.083  0.3798 -0.2009 -0.2882
 3675TIP3    H132660   2.816   3.306   1.163  2.4966  1.7612  1.7662
 3675TIP3    H232661   2.780   3.398   1.048 -0.3588 -0.5199  0.6803
 3676TIP3   OH232662   1.651   0.361   1.293  0.2743 -0.0764 -0.6415
 3676TIP3    H132663   1.571   0.320   1.326  0.2798  1.1425  1.0290
 3676TIP3    H232664   1.649   0.345   1.199 -2.5330  0.8612 -0.8541
 3677TIP3   OH232665   6.668   4.355   1.765  0.0426 -0.4389  0.0092
 3677TIP3    H132666   6.756   4.391   1.753  0.0154  0.4138  1.9915
 3677TIP3    H232667   6.678   4.261   1.750  1.6479 -0.5786  1.6526
 3678TIP3   OH232668   6.763   2.060   7.717  0.6103 -0.3037 -0.1317
 3678TIP3    H132669   6.813   2.051   7.798  0.0376  2.4674  0.6361
 3678TIP3    H232670   6.821   2.106   7.657  0.9639 -2.1737 -1.3066
 3679TIP3   OH232671   0.362   1.128   7.440 -0.6902 -0.2046  0.0341
 3679TIP3    H132672   0.329   1.043   7.410  1.5636 -1.4794  0.8837
 3679TIP3    H232673   0.444   1.107   7.484 -0.5989  2.3267  1.2416
 3680TIP3   OH232674   2.858   2.278   7.601  0.5762  0.0370 -0.0121
 3680TIP3    H132675   2.921   2.272   7.673  0.4044 -0.7662  0.0748
 3680TIP3    H232676   2.834   2.188   7.582  0.3746  0.2632 -0.8710
 3681TIP3   OH232677   4.919   5.966   1.563  0.6276 -0.1578  0.4912
 3681TIP3    H132678   4.970   5.893   1.599  0.5968 -1.0901 -1.2853
 3681TIP3    H232679   4.828   5.945   1.584  0.8194  1.3485  3.3786
 3682TIP3   OH232680   0.561   2.761   8.002 -0.3164 -0.0456  0.4078
 3682TIP3    H132681   0.607   2.684   8.037 -1.9704 -1.6027 -0.6452
 3682TIP3    H232682   0.539   2.813   8.079  2.2446  0.2657  1.0298
 3683TIP3   OH232683   6.193   0.887   0.413 -0.2128 -0.5362 -0.3720
 3683TIP3    H132684   6.274   0.892   0.463 -0.7552  3.4843  0.4727
 3683TIP3    H232685   6.220   0.909   0.323  0.0026 -2.3842 -0.7933
 3684TIP3   OH232686   1.746   1.340   1.719  0.3351  0.3766  0.2708
 3684TIP3    H132687   1.664   1.300   1.747  0.7330  0.0601  1.0307
 3684TIP3    H232688   1.806   1.326   1.793  0.8512  1.2732  0.0424
 3685TIP3   OH232689   0.187   1.969   7.443 -0.1535  0.4585  0.6105
 3685TIP3    H132690   0.146   1.920   7.514 -1.7578 -1.7024 -1.6493
 3685TIP3    H232691   0.268   1.921   7.424 -0.4199  0.2066  0.0921
 3686TIP3   OH232692   4.360   4.658   6.739  0.3129  0.0304  0.3205
 3686TIP3    H132693   4.439   4.710   6.747  0.1121  0.4801 -0.5451
 3686TIP3    H232694   4.328   4.675   6.651 -0.4743 -0.5389  0.4798
 3687TIP3   OH232695   1.630   3.291   7.907  0.1556 -0.3250  0.1018
 3687TIP3    H132696   1.543   3.327   7.888 -0.5987 -1.0705  1.9374
 3687TIP3    H232697   1.647   3.316   7.998  1.6264 -0.6817 -0.0494
 3688TIP3   OH232698   4.060   4.190   0.139  0.5759 -0.1035  0.1381
 3688TIP3    H132699   4.077   4.097   0.122 -0.8315 -0.7149  1.7547
 3688TIP3    H232700   4.114   4.236   0.074 -1.3702 -2.0602 -3.1813
 3689TIP3   OH232701   1.574   2.866   7.902  0.3347 -0.4926  0.5937
 3689TIP3    H132702   1.536   2.921   7.834 -0.2964 -2.0106 -0.3201
 3689TIP3    H232703   1.514   2.791   7.910  1.8955 -1.7787  0.7797
 3690TIP3   OH232704   0.445   4.773   1.441  0.2746 -0.3214  0.0367
 3690TIP3    H132705   0.402   4.737   1.363 -2.9484  2.7012  0.1825
 3690TIP3    H232706   0.410   4.722   1.513 -0.5578 -0.0112 -0.1376
 3691TIP3   OH232707   1.712   0.980   8.164 -0.1705  0.1308 -0.3082
 3691TIP3    H132708   1.701   0.893   8.125  1.9733 -0.2043 -0.2837
 3691TIP3    H232709   1.708   1.040   8.089  1.4496 -0.3036 -0.7973
 3692TIP3   OH232710   2.186   1.500   8.397 -0.1226 -0.3188  0.4531
 3692TIP3    H132711   2.112   1.439   8.396 -2.6348  2.4804  0.6170
 3692TIP3    H232712   2.209   1.509   8.489 -2.7901  2.1359  1.0430
 3693TIP3   OH232713   6.423   2.429   8.431  0.7664 -0.1114  0.7929
 3693TIP3    H132714   6.510   2.404   8.398 -0.5567 -2.4978 -1.2427
 3693TIP3    H232715   6.432   2.426   8.526  2.7296 -1.1016  0.6299
 3694TIP3   OH232716   5.690   1.015   2.302  0.7743  0.0630 -0.0076
 3694TIP3    H132717   5.695   0.965   2.383  0.1894  0.9353  0.5758
 3694TIP3    H232718   5.601   1.003   2.271  0.5879  0.8204  0.2024
 3695TIP3   OH232719   4.879   5.682   8.005 -0.1168 -0.2109 -0.1052
 3695TIP3    H132720   4.944   5.682   7.935  0.0090  1.9857 -0.0690
 3695TIP3    H232721   4.797   5.707   7.962 -0.6109 -1.3626  0.1285
 3696TIP3   OH232722   0.038   6.788   8.144  0.3925 -0.5737  0.2006
 3696TIP3    H132723  -0.052   6.756   8.151 -0.6261  2.3081  2.7414
 3696TIP3    H232724   0.035   6.854   8.074  0.3103  0.0273  0.7578
 3697TIP3   OH232725   2.850   5.726   7.256 -0.0145  0.8681  0.1873
 3697TIP3    H132726   2.899   5.646   7.275  0.2493  0.7964 -0.7546
 3697TIP3    H232727   2.905   5.796   7.292 -0.3874  0.6197  1.2821
 3698TIP3   OH232728   4.813   3.906   0.567  0.2289  0.0500  0.6359
 3698TIP3    H132729   4.802   3.997   0.597 -0.7402 -0.5047  2.0703
 3698TIP3    H232730   4.802   3.911   0.472 -0.5935  1.3324  0.7680
 3699TIP3   OH232731   4.677   4.685   7.688 -0.0035  0.0567  0.1571
 3699TIP3    H132732   4.745   4.622   7.713  1.1168  0.1931 -2.2306
 3699TIP3    H232733   4.725   4.765   7.666 -1.0081  0.4508 -0.7039
 3700TIP3   OH232734   5.665   2.836   0.021 -0.2556 -0.1728  0.1912
 3700TIP3    H132735   5.697   2.819  -0.067  0.2435  0.3897  0.2623
 3700TIP3    H232736   5.617   2.756   0.044 -0.0859 -0.4674 -0.4476
 3701TIP3   OH232737   4.585   3.304   0.513 -0.0861  0.1440  0.0019
 3701TIP3    H132738   4.632   3.387   0.504 -1.3032  0.9915  1.0934
 3701TIP3    H232739   4.510   3.312   0.455 -2.0371  1.2428  2.4720
 3702TIP3   OH232740   3.185   0.454   6.720  0.0857 -0.0045  0.3686
 3702TIP3    H132741   3.189   0.396   6.644 -0.4547  1.0671 -0.5177
 3702TIP3    H232742   3.275   0.455   6.754  0.3391 -0.4971 -0.2676
 3703TIP3   OH232743   5.839   5.399   6.159 -0.8023  0.0011 -0.9798
 3703TIP3    H132744   5.853   5.305   6.156  1.1694  0.1328  1.5080
 3703TIP3    H232745   5.751   5.409   6.195 -1.8135 -0.8095 -3.0373
 3704TIP3   OH232746   0.128   1.881   1.466 -0.1185 -0.2559 -0.4079
 3704TIP3    H132747   0.132   1.893   1.561 -3.6273  0.3108 -0.2235
 3704TIP3    H232748   0.076   1.954   1.434 -0.7803 -1.5465 -2.5034
 3705TIP3   OH232749   3.967   2.001   0.731  0.4291 -0.3100  0.2422
 3705TIP3    H132750   3.932   2.088   0.747  0.3090 -0.5026  1.1098
 3705TIP3    H232751   3.918   1.944   0.790  0.4089 -0.9889 -0.4128
 3706TIP3   OH232752   5.781   6.821   5.931 -0.1347  0.4386  0.4804
 3706TIP3    H132753   5.803   6.911   5.909 -2.1813  0.6969 -0.7345
 3706TIP3    H232754   5.756   6.824   6.023  0.1344  1.0303  0.5373
 3707TIP3   OH232755   1.537   2.490   7.120  0.0552 -0.2044 -0.9984
 3707TIP3    H132756   1.490   2.447   7.191  0.8808  1.4033  0.5987
 3707TIP3    H232757   1.472   2.546   7.079  0.3413  1.5945  0.8524
 3708TIP3   OH232758   3.488   4.320   0.785  0.2260  0.5359 -0.1392
 3708TIP3    H132759   3.517   4.269   0.861  1.5909  1.3063 -0.1054
 3708TIP3    H232760   3.420   4.377   0.818 -1.4256 -1.2858 -0.1945
 3709TIP3   OH232761   2.611   1.417   1.712  0.4722 -0.2393 -0.3520
 3709TIP3    H132762   2.690   1.365   1.719  0.0007 -0.7731  1.6978
 3709TIP3    H232763   2.580   1.426   1.802 -0.5257  1.9547 -0.8412
 3710TIP3   OH232764   6.804   3.935   1.965 -0.3824  0.5948  0.5430
 3710TIP3    H132765   6.718   3.896   1.978 -0.3594  0.6959  0.9949
 3710TIP3    H232766   6.864   3.879   2.013 -0.2130  0.6060  0.3470
 3711TIP3   OH232767   4.349   0.462   7.851  0.6237  0.0596  0.5664
 3711TIP3    H132768   4.337   0.557   7.852  0.4845  0.0372  1.2515
 3711TIP3    H232769   4.276   0.428   7.902  0.0279 -0.4962 -0.6107
 3712TIP3   OH232770   1.175   2.750   0.157  0.1401 -0.7664 -0.4946
 3712TIP3    H132771   1.219   2.702   0.087  0.2199 -1.1584 -0.1761
 3712TIP3    H232772   1.098   2.698   0.178 -1.0742  0.4295 -1.7516
 3713TIP3   OH232773   4.842   4.654   2.548  0.7600  0.7096  0.1628
 3713TIP3    H132774   4.865   4.566   2.580 -3.1873  0.5378  3.2807
 3713TIP3    H232775   4.886   4.713   2.608  0.6129  0.7409  0.2391
 3714TIP3   OH232776   2.867   2.746   7.411 -0.5812 -0.1372  0.5852
 3714TIP3    H132777   2.915   2.683   7.464  1.4853  1.2969  0.5852
 3714TIP3    H232778   2.822   2.802   7.474  0.4148  0.4680  0.7849
 3715TIP3   OH232779   6.133   2.789   7.238  0.1122  0.6831  0.0237
 3715TIP3    H132780   6.069   2.736   7.284  0.4842  1.0399  0.9738
 3715TIP3    H232781   6.217   2.763   7.275  0.2725  2.1753  0.7757
 3716TIP3   OH232782   4.343   2.220   7.793 -0.2648  0.6015 -0.0337
 3716TIP3    H132783   4.313   2.129   7.791  0.0327  0.4886  0.5177
 3716TIP3    H232784   4.317   2.252   7.879 -2.2166  1.6875 -0.9453
 3717TIP3   OH232785   1.732   0.741   8.002 -0.2019 -0.0552 -0.1032
 3717TIP3    H132786   1.642   0.712   7.986 -0.2664 -0.4424  0.9070
 3717TIP3    H232787   1.784   0.661   8.002  0.4793  0.2814 -2.4592
 3718TIP3   OH232788   4.172   6.606   8.017 -0.0175  0.5754  0.3719
 3718TIP3    H132789   4.213   6.565   8.093 -1.3713  0.6629  1.1716
 3718TIP3    H232790   4.180   6.700   8.034 -1.4327  0.6029  1.0687
 3719TIP3   OH232791   4.745   0.775   1.687 -0.1935 -0.0170  0.2063
 3719TIP3    H132792   4.664   0.815   1.655  0.2079  0.5061 -0.1716
 3719TIP3    H232793   4.802   0.849   1.709  0.3050 -0.3781  0.1498
 3720TIP3   OH232794   4.280   0.425   6.975  0.1940  0.2551  0.0388
 3720TIP3    H132795   4.309   0.348   7.024 -1.3901 -1.4750 -1.5830
 3720TIP3    H232796   4.243   0.483   7.042  0.4061 -0.8950  1.1878
 3721TIP3   OH232797   0.988   5.230   0.383 -0.8682  0.5315 -0.2941
 3721TIP3    H132798   0.973   5.322   0.364 -1.8647  0.6283  0.7936
 3721TIP3    H232799   0.932   5.183   0.322 -2.0731  0.7450  0.6122
 3722TIP3   OH232800   4.843   5.601   8.345 -0.2152 -0.2941  0.3190
 3722TIP3    H132801   4.804   5.607   8.258  0.3386 -0.7737  0.0314
 3722TIP3    H232802   4.918   5.659   8.342  0.6639 -1.4179 -0.0082
 3723TIP3   OH232803   5.924   5.547   1.836  0.1626 -0.4393 -0.0424
 3723TIP3    H132804   5.967   5.601   1.903 -0.1463  0.0860 -0.2562
 3723TIP3    H232805   5.961   5.579   1.753 -1.0302  0.4175 -0.2759
 3724TIP3   OH232806   3.264   2.934   6.784 -0.3677  0.8195  0.6608
 3724TIP3    H132807   3.202   3.002   6.760 -2.1037 -1.3491 -1.5794
 3724TIP3    H232808   3.318   2.922   6.706  0.4024  0.1213  1.2789
 3725TIP3   OH232809   6.430   4.552   1.007 -0.2994 -0.2922  0.1130
 3725TIP3    H132810   6.460   4.639   1.033 -0.5842 -0.4246  0.9323
 3725TIP3    H232811   6.495   4.521   0.945  1.5769 -0.7707  2.1936
 3726TIP3   OH232812   4.869   0.029   1.474 -0.2388 -0.2771  0.4221
 3726TIP3    H132813   4.847   0.072   1.557 -1.7153  0.5471 -0.3664
 3726TIP3    H232814   4.829  -0.057   1.481 -0.7475 -0.0463  0.3909
 3727TIP3   OH232815   1.582   2.677   0.438  0.9171  0.3154 -0.3970
 3727TIP3    H132816   1.548   2.591   0.413 -0.2702  0.9438 -1.0563
 3727TIP3    H232817   1.508   2.736   0.424  1.8651  1.5206 -0.4237
 3728TIP3   OH232818   5.029   3.236   1.893  0.6008  0.3847  0.0013
 3728TIP3    H132819   5.071   3.159   1.854  1.7731 -0.0050  1.9090
 3728TIP3    H232820   5.070   3.310   1.848  3.1585 -0.0016  1.5098
 3729TIP3   OH232821   0.241   1.897   1.734 -0.2429  0.0132  0.3496
 3729TIP3    H132822   0.284   1.813   1.747 -1.6112 -0.6700  0.6337
 3729TIP3    H232823   0.225   1.930   1.823 -1.3224 -0.2966  0.2854
 3730TIP3   OH232824   5.572   4.453   8.438  0.4011 -0.2568 -0.6521
 3730TIP3    H132825   5.514   4.419   8.507  0.7872  0.1036 -0.1491
 3730TIP3    H232826   5.544   4.544   8.426 -0.3055 -0.5763 -1.6606
 3731TIP3   OH232827   1.503   1.244   1.211  0.1572 -0.6391 -0.3173
 3731TIP3    H132828   1.561   1.172   1.236 -0.7708 -0.8817  1.2358
 3731TIP3    H232829   1.554   1.323   1.227 -0.1722 -0.8099  1.8737
 3732TIP3   OH232830   4.959   5.965   7.902  0.0214 -0.4311 -0.0226
 3732TIP3    H132831   5.053   5.962   7.889 -0.0782  0.9252 -1.2885
 3732TIP3    H232832   4.924   5.901   7.840  0.1213 -1.8359  1.2859
 3733TIP3   OH232833   0.536   5.486   7.495 -0.1410  0.0990  0.3876
 3733TIP3    H132834   0.597   5.412   7.491  0.2156  0.3597  0.8925
 3733TIP3    H232835   0.530   5.517   7.405  0.4876  0.0770  0.3357
 3734TIP3   OH232836   2.566   4.812   1.284  0.0085  0.9505  0.1528
 3734TIP3    H132837   2.507   4.873   1.239  0.2434  0.4213 -0.9052
 3734TIP3    H232838   2.507   4.752   1.330 -0.2730  0.9155 -0.2450
 3735TIP3   OH232839   0.960   0.259   1.550  0.1655 -0.9004 -1.0624
 3735TIP3    H132840   1.012   0.227   1.624  0.5482 -0.0481 -0.9529
 3735TIP3    H232841   0.870   0.238   1.573  0.3489 -1.2859 -0.6878
 3736TIP3   OH232842   4.647   6.584   7.987  0.5043  0.2851 -0.2363
 3736TIP3    H132843   4.579   6.563   7.923  0.8507  0.5524 -0.6943
 3736TIP3    H232844   4.635   6.520   8.057  0.2841 -0.1687 -0.6874
 3737TIP3   OH232845   0.088   1.649   1.140 -0.4575 -0.2167  0.5725
 3737TIP3    H132846   0.104   1.633   1.047 -0.3340 -1.7014  0.8286
 3737TIP3    H232847   0.007   1.700   1.141  0.4688  1.3754 -0.4039
 3738TIP3   OH232848   2.306   3.113   1.386 -0.3242  0.1517  0.1495
 3738TIP3    H132849   2.296   3.027   1.425 -0.2848  0.3027  0.4944
 3738TIP3    H232850   2.221   3.132   1.348  0.1679 -0.8297 -1.5610
 3739TIP3   OH232851   6.822   1.779   1.214 -0.2117 -0.6072  0.4408
 3739TIP3    H132852   6.769   1.858   1.211  0.0012 -0.4942 -2.5753
 3739TIP3    H232853   6.758   1.707   1.217 -0.4870 -0.3945 -0.2468
 3740TIP3   OH232854   4.633   3.075   7.295 -0.2785  0.5166  0.1182
 3740TIP3    H132855   4.544   3.047   7.316 -0.6105  0.9077 -0.7381
 3740TIP3    H232856   4.627   3.171   7.287  0.4990  0.6997  1.3635
 3741TIP3   OH232857   2.591   3.875   0.047 -0.2522  0.5856  0.1845
 3741TIP3    H132858   2.572   3.969   0.049  0.3333  0.7072  0.1660
 3741TIP3    H232859   2.602   3.854  -0.046 -1.2511  0.3177  0.1223
 3742TIP3   OH232860   2.994   1.632   7.700 -0.4148 -0.2041  0.1160
 3742TIP3    H132861   3.030   1.605   7.784 -1.0955  0.6186  0.6900
 3742TIP3    H232862   2.951   1.715   7.718  0.2525  0.4742 -1.2511
 3743TIP3   OH232863   2.101   6.248   8.061  0.1315  0.3118 -0.0927
 3743TIP3    H132864   2.055   6.196   7.995 -0.8948  0.1814  0.6972
 3743TIP3    H232865   2.185   6.268   8.021  0.4441 -1.7175 -0.5392
 3744TIP3   OH232866   4.090   0.518   8.555 -0.1664  0.1092 -0.3328
 3744TIP3    H132867   4.021   0.579   8.581 -0.8871 -0.8236  0.0106
 3744TIP3    H232868   4.169   0.551   8.597 -1.0508 -0.6476  2.1116
 3745TIP3   OH232869   4.989   1.453   8.346 -0.2639 -0.3323  0.0792
 3745TIP3    H132870   5.023   1.427   8.431 -1.3591 -0.4925  0.4795
 3745TIP3    H232871   5.024   1.388   8.285 -1.0034 -1.3351  0.6954
 3746TIP3   OH232872   3.880   6.149   1.193  0.3651 -0.2329 -0.2002
 3746TIP3    H132873   3.913   6.233   1.159  0.2833  0.2564  0.8827
 3746TIP3    H232874   3.878   6.092   1.116  0.9252  0.5977 -0.8638
 3747TIP3   OH232875   3.769   2.664   7.997  0.0675  0.2068 -0.2913
 3747TIP3    H132876   3.684   2.628   8.022 -1.0100  1.0947 -2.4265
 3747TIP3    H232877   3.825   2.587   7.987 -1.4396 -0.7166 -2.1526
 3748TIP3   OH232878   4.217   6.743   6.475  0.4428 -0.2690  0.0787
 3748TIP3    H132879   4.235   6.699   6.392 -0.5587 -1.1334  0.3039
 3748TIP3    H232880   4.253   6.831   6.464  1.8376 -0.9084 -0.6449
 3749TIP3   OH232881   5.420   2.195   0.321  0.2120 -0.6524 -0.1324
 3749TIP3    H132882   5.410   2.102   0.301 -0.2946 -0.2313 -1.9583
 3749TIP3    H232883   5.331   2.230   0.314  0.4222  0.0011  0.4356
 3750TIP3   OH232884   3.188   2.868   1.701 -0.4582 -0.1148 -0.0621
 3750TIP3    H132885   3.248   2.809   1.656  2.3648  1.3350  1.4985
 3750TIP3    H232886   3.241   2.906   1.771 -2.4058  3.4448 -0.3121
 3751TIP3   OH232887   5.920   3.118   0.421  0.4575  0.3270  0.3015
 3751TIP3    H132888   5.905   3.069   0.340  3.3445 -0.6897  0.2683
 3751TIP3    H232889   5.931   3.209   0.394 -1.5873  0.5337 -0.0208
 3752TIP3   OH232890   6.101   5.041   6.163 -0.1289 -0.2036  0.3063
 3752TIP3    H132891   6.016   5.070   6.133 -0.2434 -0.0694  0.7605
 3752TIP3    H232892   6.145   5.120   6.194  1.3340  0.2993 -2.6379
 3753TIP3   OH232893   6.142   6.905   1.199 -0.3670  0.3049 -0.2126
 3753TIP3    H132894   6.075   6.915   1.266 -2.4140 -1.9257 -1.7390
 3753TIP3    H232895   6.152   6.992   1.161  0.2037  1.4102  2.2855
 3754TIP3   OH232896   4.043   1.409   1.963  0.0112 -0.2424 -0.0672
 3754TIP3    H132897   4.002   1.368   1.887 -0.9412  2.5170 -1.1801
 3754TIP3    H232898   3.976   1.468   1.997  1.7806  1.6723  0.3171
 3755TIP3   OH232899   2.914   4.076   6.895  0.0063 -0.1828 -0.3024
 3755TIP3    H132900   2.924   4.041   6.806 -1.4543  1.6679 -1.2730
 3755TIP3    H232901   3.000   4.065   6.935  1.1492  0.2554 -2.4856
 3756TIP3   OH232902   4.535   6.031   7.760 -0.6980  0.5324  0.0383
 3756TIP3    H132903   4.503   6.118   7.738 -1.5475  0.7143  1.7870
 3756TIP3    H232904   4.500   5.974   7.692 -1.1872  1.3796 -0.4289
 3757TIP3   OH232905   3.334   4.302   1.838 -0.1705 -0.3176  0.4193
 3757TIP3    H132906   3.254   4.250   1.849 -0.4933  0.2806  0.9542
 3757TIP3    H232907   3.393   4.244   1.790 -0.4909 -1.2169  1.0828
 3758TIP3   OH232908   6.379   3.062   1.348 -0.2068  0.4718  0.0104
 3758TIP3    H132909   6.370   3.027   1.437  0.1366  0.4312  0.0301
 3758TIP3    H232910   6.346   2.993   1.291 -1.2037  0.8176  0.1487
 3759TIP3   OH232911   4.584   5.154   1.922  0.4478 -0.0326  0.3727
 3759TIP3    H132912   4.511   5.095   1.941 -0.3179  0.5741 -0.6210
 3759TIP3    H232913   4.608   5.190   2.007  0.3637 -1.1176  0.8746
 3760TIP3   OH232914   1.613   2.210   2.553  0.3263  0.0563 -0.1905
 3760TIP3    H132915   1.564   2.201   2.471  0.8822 -2.4458 -0.3278
 3760TIP3    H232916   1.673   2.283   2.537  0.4811 -0.4207 -2.0859
 3761TIP3   OH232917   1.991   5.310   6.150 -0.3210 -0.0597  0.5869
 3761TIP3    H132918   2.062   5.308   6.214  0.5999 -1.0598 -0.4207
 3761TIP3    H232919   1.914   5.279   6.198  0.5072 -1.4998  1.0542
 3762TIP3   OH232920   2.442   4.095   8.446  0.0471  0.5101 -0.4809
 3762TIP3    H132921   2.413   4.170   8.394 -2.7994 -0.8657 -1.0433
 3762TIP3    H232922   2.425   4.019   8.391  3.0818 -0.6478 -0.0214
 3763TIP3   OH232923   0.359   1.593   8.488 -0.1271 -0.6126 -0.1481
 3763TIP3    H132924   0.321   1.512   8.454 -2.8490  0.1283  0.8659
 3763TIP3    H232925   0.355   1.583   8.583  3.3097 -0.8644  0.0949
 3764TIP3   OH232926   5.365   1.928   8.521 -0.2546  0.2166 -0.0981
 3764TIP3    H132927   5.319   1.916   8.438  1.4441 -1.5937 -0.8406
 3764TIP3    H232928   5.426   1.855   8.526  0.0302  0.5409  2.5505
 3765TIP3   OH232929   1.309   2.611   8.318 -0.4035  0.3294 -0.2444
 3765TIP3    H132930   1.231   2.637   8.367 -1.2654 -3.4046  0.6892
 3765TIP3    H232931   1.379   2.609   8.384 -0.4046  0.0688 -0.2505
 3766TIP3   OH232932   1.357   4.745   8.419 -0.6508  0.9220  0.1034
 3766TIP3    H132933   1.298   4.690   8.472 -0.4072  1.4199  0.9162
 3766TIP3    H232934   1.443   4.704   8.429 -0.7108  0.6548 -0.4325
 3767TIP3   OH232935   0.255   6.749   1.509  0.4755 -0.3994  0.9873
 3767TIP3    H132936   0.253   6.759   1.604  0.3979  0.0535  0.9433
 3767TIP3    H232937   0.187   6.808   1.477 -0.4220 -1.5519  0.7225
 3768TIP3   OH232938   5.557   4.021   6.397 -0.0495 -0.7511 -0.2195
 3768TIP3    H132939   5.505   4.093   6.432 -1.9868 -1.1233 -2.0480
 3768TIP3    H232940   5.525   3.943   6.443 -1.2313 -0.9779 -1.3341
 3769TIP3   OH232941   3.300   2.340   1.084  0.4752 -0.7756 -0.0287
 3769TIP3    H132942   3.227   2.381   1.131  1.5808 -1.2042  2.1991
 3769TIP3    H232943   3.373   2.344   1.145  2.0454 -1.3848 -1.7571
 3770TIP3   OH232944   4.631   6.959   7.233 -0.4028 -0.1099 -0.2288
 3770TIP3    H132945   4.573   7.022   7.276 -0.2533 -0.9062  1.1985
 3770TIP3    H232946   4.685   7.012   7.176 -1.2488  0.8811 -0.1379
 3771TIP3   OH232947   5.759   2.269   0.156 -0.2558 -0.8790 -0.5222
 3771TIP3    H132948   5.783   2.233   0.070 -0.5843 -0.6209 -0.7228
 3771TIP3    H232949   5.808   2.351   0.162 -2.2399  0.4728 -1.6169
 3772TIP3   OH232950   6.201   4.734   7.438 -0.7024  0.2093  0.2780
 3772TIP3    H132951   6.277   4.788   7.460 -0.5461  0.5449 -1.0153
 3772TIP3    H232952   6.160   4.779   7.364 -0.0620 -1.8754 -1.4616
 3773TIP3   OH232953   5.618   0.750   0.023 -0.3001  0.5086 -0.2382
 3773TIP3    H132954   5.591   0.729  -0.067 -1.3980 -1.8985  0.5710
 3773TIP3    H232955   5.705   0.711   0.031 -0.5147  0.0637 -0.0458
 3774TIP3   OH232956   0.101   1.728   7.182  0.0390 -0.1650  0.3893
 3774TIP3    H132957   0.008   1.708   7.193 -0.2156  0.8888  0.3090
 3774TIP3    H232958   0.111   1.745   7.088 -0.1540  1.7583  0.6677
 3775TIP3   OH232959   6.494   3.449   0.028  0.4038  0.0466 -0.1543
 3775TIP3    H132960   6.494   3.485  -0.061 -1.4314  0.0257 -0.1953
 3775TIP3    H232961   6.478   3.525   0.085  1.2099 -0.0009  0.1581
 3776TIP3   OH232962   1.107   1.397   7.699 -0.0736  0.0713 -0.5149
 3776TIP3    H132963   1.076   1.488   7.707  1.5645  0.4806  2.6989
 3776TIP3    H232964   1.168   1.399   7.625  1.2867  2.0786  0.5707
 3777TIP3   OH232965   0.614   5.384   7.753 -0.1391  0.0650 -0.3292
 3777TIP3    H132966   0.624   5.419   7.664  0.6610  0.4423 -0.1027
 3777TIP3    H232967   0.695   5.409   7.798 -0.8092  0.4579  0.7046
 3778TIP3   OH232968   1.250   2.379   8.182  0.2020  0.1049  0.4347
 3778TIP3    H132969   1.265   2.293   8.222 -1.7301 -0.1216  0.7919
 3778TIP3    H232970   1.266   2.441   8.252 -0.5040 -0.1174  0.8030
 3779TIP3   OH232971   5.498   1.830   0.446 -0.7102  0.5774 -0.1969
 3779TIP3    H132972   5.588   1.856   0.430 -0.6450  0.7070  0.3531
 3779TIP3    H232973   5.450   1.860   0.368 -0.2165  0.1607 -0.6651
 3780TIP3   OH232974   0.672   6.852   1.530  0.2449 -0.2004 -0.4662
 3780TIP3    H132975   0.651   6.917   1.598 -0.4986  1.0360 -1.8257
 3780TIP3    H232976   0.704   6.776   1.579 -1.1595  0.2947  1.3181
 3781TIP3   OH232977   1.020   4.092   6.973  0.4837 -0.0173  0.3135
 3781TIP3    H132978   1.046   4.165   6.916 -1.0721  1.0592  0.9075
 3781TIP3    H232979   1.059   4.113   7.058  0.4210 -0.1144  0.3659
 3782TIP3   OH232980   2.555   4.576   7.589 -0.2286 -0.2318 -0.1733
 3782TIP3    H132981   2.543   4.569   7.494 -0.0901 -0.0882 -0.2030
 3782TIP3    H232982   2.521   4.662   7.611  0.0512 -0.1262 -0.1460
 3783TIP3   OH232983   2.689   0.118   2.204 -0.2490 -0.2025 -0.3208
 3783TIP3    H132984   2.771   0.160   2.232 -0.1152 -0.0861 -0.8782
 3783TIP3    H232985   2.638   0.189   2.165 -0.5043 -0.3287 -0.2150
 3784TIP3   OH232986   3.575   6.072   1.100 -0.4131 -0.7158  0.5141
 3784TIP3    H132987   3.645   6.078   1.035 -0.6361  0.0252  0.3318
 3784TIP3    H232988   3.562   6.162   1.129 -1.8231 -0.7242 -0.0320
 3785TIP3   OH232989   5.065   3.990   7.158  0.3077 -0.0816  0.4553
 3785TIP3    H132990   5.019   4.061   7.204  0.2053  0.3900 -0.3480
 3785TIP3    H232991   5.040   4.001   7.066 -0.1807 -1.5400  0.3924
 3786TIP3   OH232992   6.399   1.675   1.016 -0.1155  0.2781 -0.0547
 3786TIP3    H132993   6.406   1.659   1.110 -0.6970  0.8385  0.0912
 3786TIP3    H232994   6.472   1.626   0.978  0.7793  0.9118  0.7835
 3787TIP3   OH232995   4.439   0.166   6.158  0.0493 -0.0832 -0.0773
 3787TIP3    H132996   4.472   0.076   6.153  1.3711  0.2383  1.7705
 3787TIP3    H232997   4.346   0.155   6.179 -0.2209 -0.9994 -1.6049
 3788TIP3   OH232998   4.277   3.485   0.637 -0.3451  0.4422  0.1523
 3788TIP3    H132999   4.318   3.499   0.551  0.5804 -0.7023  0.3901
 3788TIP3    H233000   4.190   3.524   0.628 -1.3060 -1.9684 -2.2017
 3789TIP3   OH233001   3.297   0.834   0.320 -0.2640 -0.2468 -0.1255
 3789TIP3    H133002   3.318   0.926   0.301  0.6267 -0.2760  0.6530
 3789TIP3    H233003   3.251   0.803   0.241  2.8428 -0.2373 -2.1298
 3790TIP3   OH233004   5.646   4.916   7.013  0.0397 -0.1483 -0.1850
 3790TIP3    H133005   5.646   4.821   6.998  1.5069 -0.0287 -1.1767
 3790TIP3    H233006   5.565   4.933   7.060 -0.9748 -1.7103 -1.2767
 3791TIP3   OH233007   4.115   0.843   7.274  0.6734 -0.5819  0.1396
 3791TIP3    H133008   4.111   0.918   7.333 -1.0124 -0.3995 -0.1438
 3791TIP3    H233009   4.068   0.773   7.321 -0.6592 -0.4427 -0.9114
 3792TIP3   OH233010   6.221   6.148   1.111 -0.5877  0.0644 -0.0037
 3792TIP3    H133011   6.131   6.148   1.144 -0.4718 -1.1673  0.3746
 3792TIP3    H233012   6.211   6.138   1.016 -0.8671  1.1434 -0.0968
 3793TIP3   OH233013   0.755   1.844   6.248 -0.5754 -0.5382 -0.0339
 3793TIP3    H133014   0.695   1.916   6.265  0.6725  0.8779 -1.3237
 3793TIP3    H233015   0.723   1.803   6.168  0.8032  1.0388 -1.4740
 3794TIP3   OH233016   1.973   1.372   1.908  0.4881 -0.0664 -0.4761
 3794TIP3    H133017   1.905   1.367   1.975  1.2677  1.9471  0.5731
 3794TIP3    H233018   2.010   1.284   1.904 -1.1372 -0.8116  0.0207
 3795TIP3   OH233019   5.724   6.843   7.588 -0.3339  0.1463  0.3060
 3795TIP3    H133020   5.726   6.751   7.562 -0.1857 -0.2302  1.5850
 3795TIP3    H233021   5.772   6.888   7.518  1.6450 -1.0645  0.7786
 3796TIP3   OH233022   3.900   4.584   1.374  0.4346  0.4991 -0.0150
 3796TIP3    H133023   3.911   4.638   1.452  1.5731 -0.7247  0.7143
 3796TIP3    H233024   3.892   4.647   1.302  2.2539  1.6334  0.7212
 3797TIP3   OH233025   5.958   2.207   6.901 -0.3796 -0.2224 -0.4491
 3797TIP3    H133026   5.992   2.213   6.811  1.0411  0.3747  0.0995
 3797TIP3    H233027   5.912   2.291   6.914 -1.0823 -0.5427 -0.7908
 3798TIP3   OH233028   2.990   3.822   0.716 -0.0593 -0.0737 -0.9067
 3798TIP3    H133029   3.041   3.764   0.659 -0.1853 -0.4900 -0.5973
 3798TIP3    H233030   2.930   3.866   0.655 -1.2275 -1.6167 -0.9408
 3799TIP3   OH233031   4.923   0.987   1.659  0.0168  0.1280 -0.3092
 3799TIP3    H133032   4.947   1.017   1.746 -0.6039  0.6390 -0.3086
 3799TIP3    H233033   5.005   0.952   1.622  0.5451  0.9535  0.0444
 3800TIP3   OH233034   6.552   5.460   0.129  0.1913  0.0259 -0.4465
 3800TIP3    H133035   6.581   5.534   0.183  0.1996 -2.0522  2.6392
 3800TIP3    H233036   6.478   5.423   0.177 -1.0840 -0.8419 -2.9337
 3801TIP3   OH233037   4.436   2.898   2.359  0.7384  0.2318 -0.1125
 3801TIP3    H133038   4.343   2.912   2.377  0.8039 -0.4958  0.8630
 3801TIP3    H233039   4.457   2.816   2.402  2.8704  2.5300  3.8509
 3802TIP3   OH233040   3.982   2.073   1.524  0.5149 -0.1332 -0.0291
 3802TIP3    H133041   3.973   2.005   1.458 -0.6002  0.4007 -0.4530
 3802TIP3    H233042   3.896   2.080   1.565  0.6644  0.8583  0.1649
 3803TIP3   OH233043   1.701   4.321   0.929  0.3160  1.2536  0.4158
 3803TIP3    H133044   1.793   4.350   0.931 -0.0010  2.5577 -1.0636
 3803TIP3    H233045   1.651   4.403   0.926 -0.8746  0.5531  0.6863
 3804TIP3   OH233046   2.660   6.549   1.926 -0.4220 -0.0025 -0.0407
 3804TIP3    H133047   2.675   6.558   1.832  1.2232 -0.6990  0.1042
 3804TIP3    H233048   2.744   6.575   1.965 -1.5975  1.8855  1.3530
 3805TIP3   OH233049   6.606   1.329   1.512 -0.0164 -0.0879 -0.3526
 3805TIP3    H133050   6.534   1.302   1.455  1.5246 -0.4378 -2.2673
 3805TIP3    H233051   6.565   1.383   1.579 -1.8355  1.2660 -2.4111
 3806TIP3   OH233052   3.720   6.502   0.993 -0.4606  0.0547 -0.2493
 3806TIP3    H133053   3.814   6.507   1.010 -0.3806  2.1954 -0.9254
 3806TIP3    H233054   3.684   6.582   1.032 -1.9444 -0.5343 -0.3358
 3807TIP3   OH233055   6.001   0.332   6.963 -0.4724  0.4428  0.0281
 3807TIP3    H133056   5.922   0.298   6.920 -0.9389 -0.3215  1.4433
 3807TIP3    H233057   5.975   0.348   7.053  1.3318 -1.1975  0.9140
 3808TIP3   OH233058   2.126   3.629   7.469 -0.4403 -0.5784  0.6574
 3808TIP3    H133059   2.114   3.689   7.542 -0.4050 -1.6557  1.5786
 3808TIP3    H233060   2.112   3.542   7.507  3.0678 -1.4711  0.2560
 3809TIP3   OH233061   0.855   3.246   1.120  0.0976 -0.1111  0.5699
 3809TIP3    H133062   0.857   3.200   1.036 -0.2330  1.0765 -0.1031
 3809TIP3    H233063   0.846   3.176   1.185  2.8872 -1.2754 -0.1416
 3810TIP3   OH233064   1.689   0.527   2.150  0.4393 -0.1748 -0.0027
 3810TIP3    H133065   1.734   0.575   2.219  1.2599  0.2972 -0.8468
 3810TIP3    H233066   1.635   0.463   2.197 -0.8402  1.6399  1.1790
 3811TIP3   OH233067   0.068   2.158   6.580  0.0750 -0.2267 -0.5334
 3811TIP3    H133068  -0.027   2.155   6.568 -0.2855  2.2795  0.9099
 3811TIP3    H233069   0.099   2.215   6.510  0.4709 -0.7469 -0.7842
 3812TIP3   OH233070   4.533   3.076   0.983 -0.0265  0.2491 -0.5389
 3812TIP3    H133071   4.589   3.059   1.059 -0.4805  0.5872 -0.1216
 3812TIP3    H233072   4.565   3.158   0.947 -1.4033  1.4349  0.8072
 3813TIP3   OH233073   3.773   0.236   2.012 -0.7807 -0.3317  0.0041
 3813TIP3    H133074   3.772   0.159   1.956 -0.5067 -0.1559 -0.2385
 3813TIP3    H233075   3.807   0.204   2.096  2.6620  0.1797 -1.0423
 3814TIP3   OH233076   6.090   4.177   7.938  0.3841 -0.1487 -0.3703
 3814TIP3    H133077   6.141   4.234   7.995  0.1158 -0.1176 -0.1630
 3814TIP3    H233078   5.999   4.200   7.955  0.3080  2.3668 -3.3081
 3815TIP3   OH233079   0.315   2.162   8.367  0.4638  0.2785  0.2593
 3815TIP3    H133080   0.351   2.089   8.318 -0.6342  1.0345 -1.7714
 3815TIP3    H233081   0.384   2.185   8.430  1.8927 -0.8022 -0.8520
 3816TIP3   OH233082   1.077   2.883   0.935  0.0131 -0.1914  0.6271
 3816TIP3    H133083   1.000   2.931   0.966 -1.8716 -1.7430 -1.2652
 3816TIP3    H233084   1.114   2.939   0.866  0.3291  0.3653  1.2425
 3817TIP3   OH233085   5.096   1.071   1.882 -0.0948  0.1781 -0.0377
 3817TIP3    H133086   5.165   1.100   1.823 -1.5373  0.6228 -1.5981
 3817TIP3    H233087   5.111   1.120   1.963 -0.0868  2.3017 -1.2396
 3818TIP3   OH233088   0.641   5.677   1.282 -0.4487 -0.4842 -0.4442
 3818TIP3    H133089   0.719   5.700   1.332  0.3831  1.9230 -2.6086
 3818TIP3    H233090   0.674   5.660   1.193 -2.3000  0.0816 -1.2955
 3819TIP3   OH233091   3.785   3.734   8.009 -0.4343  0.0548 -0.5457
 3819TIP3    H133092   3.698   3.694   8.014 -0.0063 -0.8837 -0.4477
 3819TIP3    H233093   3.841   3.666   7.970  0.5620  0.1152  0.6968
 3820TIP3   OH233094   4.431   6.837   1.361 -0.1119 -0.2814 -0.2581
 3820TIP3    H133095   4.366   6.867   1.424 -1.0831  1.1344 -1.8521
 3820TIP3    H233096   4.510   6.821   1.414 -1.5604 -1.5970  1.6394
 3821TIP3   OH233097   3.823   5.392   7.498  0.1624 -0.1668 -0.4939
 3821TIP3    H133098   3.878   5.422   7.570 -0.3180 -0.5481  0.0410
 3821TIP3    H233099   3.811   5.298   7.515 -1.5926  0.1218  0.0450
 3822TIP3   OH233100   4.365   1.136   1.133 -0.1493 -0.1956  0.1694
 3822TIP3    H133101   4.283   1.107   1.173 -1.5656  1.6180 -1.2370
 3822TIP3    H233102   4.389   1.215   1.181  1.0994 -0.9618  0.8812
 3823TIP3   OH233103   2.474   3.554   7.695  0.4333 -0.2591 -0.0242
 3823TIP3    H133104   2.406   3.545   7.761  0.7019  1.0578  0.4729
 3823TIP3    H233105   2.550   3.509   7.732  0.3911 -0.0712  0.2957
 3824TIP3   OH233106   2.653   4.778   7.859 -0.2037  0.8265  0.3669
 3824TIP3    H133107   2.622   4.735   7.939 -0.3678  3.2170  1.6857
 3824TIP3    H233108   2.748   4.775   7.865 -0.1532 -1.2158 -0.6749
 3825TIP3   OH233109   0.930   1.076   6.734  0.4237 -0.0963  0.0640
 3825TIP3    H133110   0.983   1.141   6.780  0.4796 -0.7399  0.9293
 3825TIP3    H233111   0.982   1.053   6.657  0.2201  1.1637 -0.4623
 3826TIP3   OH233112   1.981   0.119   0.783 -0.3152 -0.0826  0.5357
 3826TIP3    H133113   2.056   0.124   0.724  0.1480 -1.6204  0.9546
 3826TIP3    H233114   1.906   0.138   0.727  0.2260 -0.2596 -0.2752
 3827TIP3   OH233115   2.695   2.451   0.021  0.0093 -0.2572  0.1321
 3827TIP3    H133116   2.746   2.508  -0.036 -0.3174  0.9509  1.0259
 3827TIP3    H233117   2.755   2.380   0.044  0.4772 -0.1930 -0.8372
 3828TIP3   OH233118   5.722   2.189   1.299 -0.3575 -0.0188  0.4941
 3828TIP3    H133119   5.815   2.165   1.294 -0.6905 -1.2008 -0.7823
 3828TIP3    H233120   5.695   2.160   1.386  0.3613 -0.0692  0.7109
 3829TIP3   OH233121   2.168   2.248   0.878 -0.0735 -0.1277  0.4210
 3829TIP3    H133122   2.225   2.250   0.954  0.9926 -0.2024 -0.3511
 3829TIP3    H233123   2.120   2.166   0.886  0.5251 -0.4594  0.6639
 3830TIP3   OH233124   2.768   6.252   2.306  0.6019  0.2547 -0.2277
 3830TIP3    H133125   2.780   6.162   2.337  1.1293  0.3302 -0.2120
 3830TIP3    H233126   2.806   6.307   2.374 -0.0257  0.5133 -0.0761
 3831TIP3   OH233127   6.914   4.048   7.758  0.2192 -0.2262 -0.5022
 3831TIP3    H133128   6.842   4.072   7.700  0.3325  1.0852 -0.1429
 3831TIP3    H233129   6.874   3.988   7.822 -0.5848  0.5309 -0.2698
 3832TIP3   OH233130   3.663   4.793   1.151  0.6170 -0.0396  0.3123
 3832TIP3    H133131   3.672   4.698   1.164 -0.8935 -0.1082  1.0912
 3832TIP3    H233132   3.698   4.831   1.232 -0.6235 -0.0435  0.8658
 3833TIP3   OH233133   4.167   1.182   1.344 -0.1184  0.3206 -0.2985
 3833TIP3    H133134   4.126   1.139   1.420 -0.8336  0.5774 -0.5287
 3833TIP3    H233135   4.193   1.268   1.377 -0.3470  0.3980 -0.3193
 3834TIP3   OH233136   3.208   5.285   7.166 -0.2393  0.0219  0.6636
 3834TIP3    H133137   3.298   5.319   7.160  0.0144 -0.7070  0.1908
 3834TIP3    H233138   3.195   5.270   7.259  0.7323 -1.3864  0.6098
 3835TIP3   OH233139   5.416   5.904   0.309  0.0939 -0.0983  0.6555
 3835TIP3    H133140   5.464   5.893   0.227  2.5736 -1.6545  2.2066
 3835TIP3    H233141   5.390   5.996   0.310  2.2997  0.5915 -0.6959
 3836TIP3   OH233142   4.873   3.857   0.296 -0.2129 -0.8525 -0.1982
 3836TIP3    H133143   4.968   3.865   0.305 -0.2825 -0.8841  0.7021
 3836TIP3    H233144   4.844   3.940   0.259  0.0571 -0.4370  0.5097
 3837TIP3   OH233145   2.409   3.835   1.725  0.1228 -0.3927  0.5817
 3837TIP3    H133146   2.458   3.755   1.707  0.5170  0.3073 -1.9108
 3837TIP3    H233147   2.338   3.833   1.661  0.7859  1.7035 -0.3103
 3838TIP3   OH233148   1.753   5.777   0.780  0.7243  0.2481  0.1683
 3838TIP3    H133149   1.678   5.803   0.726  1.2070  0.5250 -0.3724
 3838TIP3    H233150   1.811   5.853   0.779  1.9044 -0.6390 -0.9903
 3839TIP3   OH233151   1.420   1.346   0.906 -0.4193 -0.1319  0.2638
 3839TIP3    H133152   1.358   1.380   0.842 -0.7122  0.6546  0.9617
 3839TIP3    H233153   1.392   1.383   0.990 -1.1916 -2.5975  1.2129
 3840TIP3   OH233154   2.842   6.733   8.020  0.5037  0.9391 -0.4097
 3840TIP3    H133155   2.816   6.673   8.090  1.7283  1.7144  0.7701
 3840TIP3    H233156   2.814   6.819   8.051  2.1847  1.4613 -0.2116
 3841TIP3   OH233157   6.643   3.693   6.321 -0.6433 -0.0052  0.9343
 3841TIP3    H133158   6.686   3.728   6.399 -0.7849 -0.0331  1.0264
 3841TIP3    H233159   6.703   3.713   6.249  0.5853 -1.9468  1.3406
 3842TIP3   OH233160   3.978   6.395   8.315  0.6614  0.1442 -0.2552
 3842TIP3    H133161   3.943   6.384   8.403 -0.1252 -0.1603 -0.5878
 3842TIP3    H233162   3.942   6.320   8.266  1.8055 -0.1798 -0.6178
 3843TIP3   OH233163   0.133   4.278   1.348 -0.2359 -0.1284  0.0112
 3843TIP3    H133164   0.191   4.346   1.316 -0.8456  0.6667  0.5519
 3843TIP3    H233165   0.054   4.325   1.376 -0.8981 -1.1152 -0.1437
 3844TIP3   OH233166   2.610   1.966   1.944  0.1728 -0.8518  0.1906
 3844TIP3    H133167   2.584   1.946   2.034 -0.3051  0.2059  0.3070
 3844TIP3    H233168   2.678   2.033   1.953 -2.6203  2.3017 -0.2328
 3845TIP3   OH233169   0.877   2.349   5.943 -0.5924 -0.0506 -0.6387
 3845TIP3    H133170   0.842   2.260   5.929 -1.1706  0.4738 -2.9880
 3845TIP3    H233171   0.943   2.338   6.012  1.1427 -2.7931 -2.5166
 3846TIP3   OH233172   2.013   2.186   0.484  0.6868  0.3756 -0.3613
 3846TIP3    H133173   1.979   2.173   0.396  3.1510  0.2772 -1.3935
 3846TIP3    H233174   2.101   2.221   0.471  1.7002 -1.0130  2.0335
 3847TIP3   OH233175   0.309   0.735   7.584 -0.1637  0.2696  0.2967
 3847TIP3    H133176   0.340   0.786   7.660 -2.3377  0.8365  0.8682
 3847TIP3    H233177   0.375   0.667   7.573  1.7418  1.9260  0.8396
 3848TIP3   OH233178   4.741   5.673   7.597  0.2473  0.2733  0.2652
 3848TIP3    H133179   4.744   5.766   7.620  2.0326  0.1132  0.8300
 3848TIP3    H233180   4.771   5.670   7.506 -0.9265  0.3300 -0.1433
 3849TIP3   OH233181   5.530   1.832   1.187 -0.3885  0.3734  0.0368
 3849TIP3    H133182   5.533   1.809   1.280  2.1805 -0.5777 -0.2118
 3849TIP3    H233183   5.541   1.928   1.186  1.1770  0.2344  0.7050
 3850TIP3   OH233184   0.416   4.518   6.447 -0.1486 -0.5367  0.6733
 3850TIP3    H133185   0.470   4.475   6.380 -2.9175 -1.3070 -1.2906
 3850TIP3    H233186   0.377   4.445   6.496 -0.3732 -0.0690  1.1922
 3851TIP3   OH233187   1.547   3.015   6.883 -0.5504 -0.6724  0.2015
 3851TIP3    H133188   1.618   3.054   6.831 -1.8920  0.5468 -0.8000
 3851TIP3    H233189   1.581   3.014   6.973 -0.0098  1.8499  0.0966
 3852TIP3   OH233190   1.342   0.911   1.647 -0.5146  0.6268  0.0630
 3852TIP3    H133191   1.407   0.912   1.577 -0.9842 -0.7691 -0.4190
 3852TIP3    H233192   1.341   0.820   1.678 -3.8921 -0.0198 -1.5316
 3853TIP3   OH233193   1.104   2.478   7.299 -0.0217  0.4404 -0.2702
 3853TIP3    H133194   1.013   2.460   7.278 -0.3975  0.5395  1.1579
 3853TIP3    H233195   1.100   2.550   7.362  1.1613  1.8299 -1.6941
 3854TIP3   OH233196   4.365   4.749   0.372  0.4794 -0.5472 -0.9196
 3854TIP3    H133197   4.417   4.826   0.350  0.9336 -0.7775 -0.6537
 3854TIP3    H233198   4.287   4.784   0.414  1.3665 -0.2993  0.5668
 3855TIP3   OH233199   2.730   6.041   1.090 -0.0843  0.2859  0.4703
 3855TIP3    H133200   2.639   6.049   1.119 -0.4947  0.5365 -0.8414
 3855TIP3    H233201   2.768   6.127   1.108 -1.3085  1.6801 -2.8481
 3856TIP3   OH233202   3.752   1.723   6.934  0.5306 -0.3545  0.3929
 3856TIP3    H133203   3.656   1.720   6.940  0.5641 -0.3795  1.0462
 3856TIP3    H233204   3.781   1.709   7.024  1.1383  0.1718  0.2827
 3857TIP3   OH233205   0.755   3.669   8.085  0.1073 -0.0730 -0.3642
 3857TIP3    H133206   0.678   3.706   8.043 -0.1589  0.8645  0.9080
 3857TIP3    H233207   0.820   3.739   8.082  0.9489 -0.8583 -1.4405
 3858TIP3   OH233208   3.417   1.895   0.479 -0.2000  0.6606  0.0774
 3858TIP3    H133209   3.353   1.966   0.481 -1.7610 -0.4675 -2.8622
 3858TIP3    H233210   3.405   1.849   0.562 -2.2461  1.2982  0.1870
 3859TIP3   OH233211   5.109   0.794   2.019 -0.1037  0.2670  0.2039
 3859TIP3    H133212   5.094   0.844   2.099 -2.2712  0.6722 -0.4051
 3859TIP3    H233213   5.099   0.857   1.948 -3.3742 -0.9613 -0.6147
 3860TIP3   OH233214   2.194   5.904   1.913 -0.6921  0.2397 -0.1327
 3860TIP3    H133215   2.196   5.862   1.827 -1.8368  1.0869 -0.6020
 3860TIP3    H233216   2.119   5.864   1.958 -1.2975  1.1793 -0.2817
 3861TIP3   OH233217   3.006   4.139   8.445  0.3638 -0.2682  0.1439
 3861TIP3    H133218   2.954   4.063   8.419  1.6521 -0.4965 -1.9396
 3861TIP3    H233219   3.061   4.107   8.517 -2.0678 -0.0765  2.2496
 3862TIP3   OH233220   3.517   0.141   7.459 -0.0410 -0.6018  0.1648
 3862TIP3    H133221   3.452   0.084   7.417  1.0669 -0.6918 -1.5293
 3862TIP3    H233222   3.544   0.093   7.537 -1.4332 -0.9146  0.4662
 3863TIP3   OH233223   2.240   4.072   2.232  0.2687  0.6528 -0.1933
 3863TIP3    H133224   2.297   3.997   2.217  0.1951  0.5672 -0.0491
 3863TIP3    H233225   2.151   4.036   2.224  0.2053  0.4079  1.3347
 3864TIP3   OH233226   3.626   6.938   0.070  0.2255 -0.2451 -0.1152
 3864TIP3    H133227   3.600   6.921   0.160  0.7801 -0.0834  0.0785
 3864TIP3    H233228   3.719   6.960   0.075  0.6316 -1.6619 -0.8867
 3865TIP3   OH233229   0.365   0.593   0.917 -0.0631  0.3532  0.8460
 3865TIP3    H133230   0.292   0.581   0.857 -0.6714  3.9808  0.6109
 3865TIP3    H233231   0.432   0.532   0.887 -1.2072  0.3710 -2.0205
 3866TIP3   OH233232   4.897   1.199   0.619  0.1085 -0.4811  0.4605
 3866TIP3    H133233   4.936   1.149   0.691  1.4871 -0.6763 -0.3793
 3866TIP3    H233234   4.945   1.282   0.619 -0.8568  0.0930  0.6409
 3867TIP3   OH233235   3.326   1.520   0.433 -0.4813  0.0203 -0.0107
 3867TIP3    H133236   3.412   1.537   0.394 -0.4827 -0.7457 -0.3810
 3867TIP3    H233237   3.327   1.566   0.517  0.0141  0.6204 -0.3426
 3868TIP3   OH233238   5.282   3.385   0.321 -0.3917  0.1229  0.2108
 3868TIP3    H133239   5.286   3.289   0.311  0.5786 -0.0704  2.1178
 3868TIP3    H233240   5.190   3.406   0.306 -0.4281 -0.9327 -1.3971
 3869TIP3   OH233241   5.566   1.579   1.750  0.6855 -0.2129  0.4010
 3869TIP3    H133242   5.485   1.617   1.782  1.0511 -1.1924  2.6416
 3869TIP3    H233243   5.539   1.506   1.695  0.0166 -0.6519  1.2891
 3870TIP3   OH233244   5.269   6.272   7.997 -0.2289  0.3860  0.8257
 3870TIP3    H133245   5.298   6.208   7.932 -1.7960 -0.1469  0.6255
 3870TIP3    H233246   5.346   6.329   8.010  0.3984 -0.0247 -0.8298
 3871TIP3   OH233247   2.289   5.584   1.429 -0.7233 -0.2768 -0.4151
 3871TIP3    H133248   2.349   5.655   1.453 -0.4348 -0.8843  0.7880
 3871TIP3    H233249   2.271   5.597   1.336 -0.8460  1.4811 -0.1732
 3872TIP3   OH233250   2.541   4.275   7.964  0.2878  0.5328 -0.3041
 3872TIP3    H133251   2.497   4.217   8.027  0.3104 -1.2589 -1.8262
 3872TIP3    H233252   2.501   4.360   7.978 -0.4187 -0.0209  1.4310
 3873TIP3   OH233253   2.173   1.310   7.551 -0.7717  0.5846 -0.5120
 3873TIP3    H133254   2.170   1.302   7.646  1.0367 -1.2261 -0.5484
 3873TIP3    H233255   2.116   1.241   7.519 -2.4964  2.0723 -0.7917
 3874TIP3   OH233256   5.848   4.364   8.546 -0.4803 -0.1171  0.2980
 3874TIP3    H133257   5.779   4.403   8.600  0.2469 -0.2064  1.3304
 3874TIP3    H233258   5.876   4.288   8.596  0.4340 -0.0232 -0.0609
 3875TIP3   OH233259   0.982   6.134   7.251 -0.2560  0.1637  0.5978
 3875TIP3    H133260   0.895   6.129   7.213  0.6350 -2.4119 -1.3155
 3875TIP3    H233261   1.039   6.158   7.178  0.7730  1.0964  1.6591
 3876TIP3   OH233262   1.206   6.884   8.214  0.1792 -0.2575 -0.6112
 3876TIP3    H133263   1.136   6.946   8.236 -0.2049 -0.4307 -1.3187
 3876TIP3    H233264   1.179   6.802   8.255  0.7196  0.0512  0.3792
 3877TIP3   OH233265   4.076   1.157   2.078 -0.8969  0.1314 -0.0002
 3877TIP3    H133266   4.074   1.226   2.012 -1.0767  2.0144  1.8808
 3877TIP3    H233267   3.984   1.145   2.103 -0.6888  0.5824  1.0212
 3878TIP3   OH233268   3.851   2.963   1.232 -0.8743  0.3510  0.5666
 3878TIP3    H133269   3.876   2.882   1.276  1.5686  1.0528  0.6550
 3878TIP3    H233270   3.860   3.031   1.299 -1.6421  0.8456  0.1766
 3879TIP3   OH233271   1.948   1.840   0.936  0.0396  0.0295  0.2026
 3879TIP3    H133272   1.994   1.910   0.982  1.5836 -1.3071  0.8167
 3879TIP3    H233273   2.016   1.775   0.919 -1.7769 -2.6477  2.2470
 3880TIP3   OH233274   1.834   3.123   8.422  0.1855 -0.0783 -0.2491
 3880TIP3    H133275   1.801   3.044   8.379  0.2409 -0.9458  1.2396
 3880TIP3    H233276   1.930   3.114   8.420  0.1784 -0.3395  0.4328
 3881TIP3   OH233277   6.275   0.395   0.838 -0.2640 -0.3489  0.1002
 3881TIP3    H133278   6.221   0.336   0.787 -2.0135  1.8914 -0.8181
 3881TIP3    H233279   6.239   0.482   0.820  0.3814  0.7747  3.4977
 3882TIP3   OH233280   1.011   4.141   0.467  0.2019  0.6228  0.4019
 3882TIP3    H133281   1.068   4.215   0.449 -1.4882  1.7919 -0.4559
 3882TIP3    H233282   0.929   4.180   0.499 -1.2262 -0.7115 -1.3819
 3883TIP3   OH233283   3.888   3.643   1.089 -0.5937  0.5546  0.6603
 3883TIP3    H133284   3.930   3.575   1.142  1.7016  0.9862 -0.4508
 3883TIP3    H233285   3.930   3.635   1.003 -1.7458  2.0547 -0.0938
 3884TIP3   OH233286   5.926   4.030   7.752  0.2705  0.0998  0.3225
 3884TIP3    H133287   6.006   4.074   7.781  0.7752  0.2510 -1.2151
 3884TIP3    H233288   5.856   4.090   7.776  0.7593  0.6973  0.2827
 3885TIP3   OH233289   2.399   2.521   1.921  0.3022 -0.0721  0.6580
 3885TIP3    H133290   2.486   2.486   1.939  0.1982 -0.4940  0.3361
 3885TIP3    H233291   2.403   2.611   1.954  0.3805 -0.5593  2.0220
 3886TIP3   OH233292   2.124   6.523   7.416  0.0169  0.1747 -0.2856
 3886TIP3    H133293   2.166   6.548   7.333 -0.4138 -1.0103 -0.8846
 3886TIP3    H233294   2.190   6.470   7.461 -0.5161 -1.0440 -0.8857
 3887TIP3   OH233295   4.601   3.192   8.307  0.1550  0.0835  0.6272
 3887TIP3    H133296   4.565   3.117   8.355 -0.3631  0.1908  0.4144
 3887TIP3    H233297   4.661   3.234   8.369  1.5071 -1.2786  0.2928
 3888TIP3   OH233298   1.303   1.874   6.769 -0.3823 -0.7507 -0.3337
 3888TIP3    H133299   1.310   1.806   6.701  0.3966 -1.1870  0.1612
 3888TIP3    H233300   1.213   1.904   6.763 -0.0094  0.1973 -2.4695
 3889TIP3   OH233301   6.336   5.079   0.004 -0.3369  0.0926 -0.7513
 3889TIP3    H133302   6.251   5.055  -0.035 -1.1304  2.8550 -0.8992
 3889TIP3    H233303   6.360   5.161  -0.040  1.7460  0.1036  0.3061
 3890TIP3   OH233304   4.673   4.413   6.603  0.5533  0.4860 -0.0923
 3890TIP3    H133305   4.746   4.351   6.612  0.4601  0.0286 -2.0582
 3890TIP3    H233306   4.715   4.499   6.595  0.7533  0.5051  1.0165
 3891TIP3   OH233307   3.035   1.673   1.155  0.0068 -0.3556 -1.0837
 3891TIP3    H133308   3.005   1.585   1.177 -1.1205  0.1232 -0.6170
 3891TIP3    H233309   2.958   1.718   1.121  0.0488  1.0291  0.4785
 3892TIP3   OH233310   0.295   3.328   8.060  0.0470 -0.4672 -0.3811
 3892TIP3    H133311   0.367   3.292   8.007  1.0204  0.1928  0.4500
 3892TIP3    H233312   0.267   3.254   8.114 -1.5516 -1.3953 -2.3712
 3893TIP3   OH233313   0.862   3.721   1.534  0.3374 -0.0290  0.0821
 3893TIP3    H133314   0.806   3.688   1.604  1.1214 -0.5995  0.4618
 3893TIP3    H233315   0.803   3.766   1.475 -0.7086 -1.6294 -0.1494
 3894TIP3   OH233316   0.544   3.949   7.012 -0.0061 -0.4267  0.0267
 3894TIP3    H133317   0.633   3.978   6.993 -0.8719  2.5414  0.0007
 3894TIP3    H233318   0.511   3.917   6.928  1.1231 -2.1031  0.1517
 3895TIP3   OH233319   0.820   5.969   6.997 -0.0928  0.3962 -0.0668
 3895TIP3    H133320   0.773   5.889   6.974 -0.8105  1.4351 -2.5660
 3895TIP3    H233321   0.765   6.010   7.065 -0.5659 -0.4302  0.0627
 3896TIP3   OH233322   3.495   5.020   7.011  0.1106  0.1588 -0.6015
 3896TIP3    H133323   3.411   4.978   7.030  0.7558 -1.0512 -0.3077
 3896TIP3    H233324   3.534   5.036   7.097  0.3994  0.2600 -0.7473
 3897TIP3   OH233325   5.716   0.954   6.575 -0.0976 -0.0627  0.2927
 3897TIP3    H133326   5.808   0.947   6.604 -0.4211 -1.9988  1.0367
 3897TIP3    H233327   5.708   0.889   6.505 -0.9080  0.0385  0.2831
 3898TIP3   OH233328   1.314   6.052   8.085 -0.0145 -0.6128 -0.0850
 3898TIP3    H133329   1.352   5.966   8.102  0.2705 -0.1420  1.9388
 3898TIP3    H233330   1.222   6.042   8.109 -0.1202 -0.5165 -0.4539
 3899TIP3   OH233331   3.765   4.189   1.247  1.0153 -0.1459  0.0769
 3899TIP3    H133332   3.811   4.121   1.297  0.5518  1.0297  2.1948
 3899TIP3    H233333   3.834   4.243   1.210  1.3670 -1.1091 -0.7263
 3900TIP3   OH233334   4.337   6.237   2.265 -0.1191 -0.3248 -0.0802
 3900TIP3    H133335   4.305   6.183   2.338 -0.5479 -0.8095 -0.6217
 3900TIP3    H233336   4.269   6.305   2.255  0.2145  0.0765  0.3275
 3901TIP3   OH233337   3.917   0.939   6.662  1.0933 -0.0517 -0.0116
 3901TIP3    H133338   3.821   0.941   6.664  1.0604  2.6124  1.9035
 3901TIP3    H233339   3.942   0.903   6.748  1.9122 -2.3408 -1.1255
 3902TIP3   OH233340   3.217   3.665   0.950  0.1525 -0.1993  0.4399
 3902TIP3    H133341   3.312   3.677   0.958  0.0007  3.0033 -1.0026
 3902TIP3    H233342   3.183   3.753   0.940 -2.8849 -1.3595 -0.4791
 3903TIP3   OH233343   5.028   3.014   7.435 -0.4697  0.3420  0.7600
 3903TIP3    H133344   5.079   3.015   7.516 -0.2601  1.8850  0.6318
 3903TIP3    H233345   4.938   3.026   7.463 -0.4609  0.3195  0.7980
 3904TIP3   OH233346   3.581   2.194   7.369  0.1371 -0.4168  0.1840
 3904TIP3    H133347   3.545   2.283   7.376 -3.1837 -1.4555 -1.6862
 3904TIP3    H233348   3.647   2.200   7.301 -0.8557  0.4418 -0.7346
 3905TIP3   OH233349   2.538   0.587   1.563 -0.2823  0.0044  0.7332
 3905TIP3    H133350   2.566   0.496   1.568 -0.6877 -0.1563  0.0795
 3905TIP3    H233351   2.616   0.635   1.536 -0.1760 -0.2031  0.6738
 3906TIP3   OH233352   1.817   6.765   2.080 -0.3274 -0.7282  0.6570
 3906TIP3    H133353   1.883   6.707   2.119  0.3979 -0.2404  0.1754
 3906TIP3    H233354   1.842   6.852   2.109 -0.9517 -0.5689  0.7243
 3907TIP3   OH233355   3.465   0.413   6.823  0.9716 -0.3343  0.6243
 3907TIP3    H133356   3.460   0.462   6.905  1.2769 -0.9758  1.0379
 3907TIP3    H233357   3.512   0.471   6.764 -0.1407  0.5522  0.5788
 3908TIP3   OH233358   6.479   5.598   7.372  0.1874  0.4204  0.5005
 3908TIP3    H133359   6.529   5.520   7.394 -0.2556  0.1742  0.6565
 3908TIP3    H233360   6.530   5.642   7.304  0.0368 -0.4352 -0.1690
 3909TIP3   OH233361   5.930   2.402   7.581  0.0618  0.2825  0.3605
 3909TIP3    H133362   6.023   2.378   7.576  0.2285  1.1083 -1.4816
 3909TIP3    H233363   5.916   2.422   7.674  2.1071  1.4908  0.4862
 3910TIP3   OH233364   1.427   0.498   1.546  0.1932  0.3595 -0.1814
 3910TIP3    H133365   1.426   0.497   1.450  0.6560  0.0297 -0.1881
 3910TIP3    H233366   1.512   0.459   1.569  0.2604  0.8201  0.3570
 3911TIP3   OH233367   5.880   1.398   8.445 -0.7466  0.4097 -0.8513
 3911TIP3    H133368   5.837   1.384   8.360 -2.3266  1.0679 -0.1949
 3911TIP3    H233369   5.827   1.346   8.506  1.0014 -0.9210 -0.3961
 3912TIP3   OH233370   2.177   2.911   1.860  0.4889 -0.4788  0.0417
 3912TIP3    H133371   2.122   2.860   1.920 -1.9213  0.3319 -1.3107
 3912TIP3    H233372   2.200   2.989   1.909 -0.0852 -0.5609  0.4603
 3913TIP3   OH233373   4.324   4.913   7.621  0.0115  0.4623 -0.4431
 3913TIP3    H133374   4.274   4.851   7.674  1.4650 -1.0090 -0.7208
 3913TIP3    H233375   4.290   4.999   7.647  0.1310 -0.2218  2.2870
 3914TIP3   OH233376   5.432   6.199   0.308 -0.4401  0.2666  0.1905
 3914TIP3    H133377   5.347   6.236   0.287 -0.8777 -1.8184 -2.3042
 3914TIP3    H233378   5.494   6.271   0.295 -1.5987  1.1870 -0.3526
 3915TIP3   OH233379   6.286   1.886   8.247 -0.2669 -0.3545  0.0797
 3915TIP3    H133380   6.231   1.810   8.263 -0.3080 -0.3099  0.1521
 3915TIP3    H233381   6.274   1.905   8.154 -0.0510 -0.5975 -0.0002
 3916TIP3   OH233382   0.204   0.448   0.728 -0.2619  0.1556  0.0264
 3916TIP3    H133383   0.194   0.383   0.797  1.5395 -1.8406 -1.4537
 3916TIP3    H233384   0.115   0.469   0.701 -0.9680  0.3742  2.3529
 3917TIP3   OH233385   6.064   3.797   0.665 -0.0411 -0.1416 -0.0495
 3917TIP3    H133386   6.139   3.852   0.641 -0.4293  1.3422  1.8313
 3917TIP3    H233387   6.102   3.725   0.715  0.2218  0.2850  0.3838
 3918TIP3   OH233388   6.144   5.747   6.575 -0.2053  1.0662  0.0182
 3918TIP3    H133389   6.092   5.744   6.495  0.0858 -1.4015 -0.1486
 3918TIP3    H233390   6.235   5.742   6.545 -0.0775  0.5118  0.4784
 3919TIP3   OH233391   4.706   6.287   0.157  0.3949 -0.3111  0.2006
 3919TIP3    H133392   4.793   6.295   0.195  0.7138 -1.7740 -0.1573
 3919TIP3    H233393   4.649   6.333   0.218  1.6078  2.2683 -0.4664
 3920TIP3   OH233394   6.688   2.031   1.183  0.2814 -0.7908  0.5392
 3920TIP3    H133395   6.668   2.124   1.197  1.3560 -0.6606  1.3255
 3920TIP3    H233396   6.604   1.987   1.196 -0.9162  0.2683 -2.6329
 3921TIP3   OH233397   4.595   2.069   6.981  0.6331  0.2561 -0.3491
 3921TIP3    H133398   4.637   2.155   6.974 -0.3365  0.7139 -0.8069
 3921TIP3    H233399   4.604   2.031   6.894  0.1556  0.3439 -0.4429
 3922TIP3   OH233400   2.284   5.073   0.255  0.3297 -0.1016  0.0889
 3922TIP3    H133401   2.348   5.002   0.252 -0.3655 -0.8545  1.7505
 3922TIP3    H233402   2.255   5.075   0.346 -0.7752  1.3323 -0.2651
 3923TIP3   OH233403   3.949   2.472   7.317  0.9743 -0.1745 -0.2059
 3923TIP3    H133404   4.004   2.490   7.240  0.3527 -0.4430 -0.7275
 3923TIP3    H233405   3.963   2.379   7.335  0.1944 -0.4167 -0.7643
 3924TIP3   OH233406   6.449   5.490   8.170 -0.4715 -0.2306 -0.1185
 3924TIP3    H133407   6.490   5.534   8.096  1.5630 -0.3885  0.8576
 3924TIP3    H233408   6.518   5.435   8.207 -1.6665 -0.7886  1.3951
 3925TIP3   OH233409   4.201   1.063   6.613  0.6872  0.2832  0.8231
 3925TIP3    H133410   4.231   1.032   6.699 -0.0284  0.0517  0.9999
 3925TIP3    H233411   4.140   0.994   6.584  0.6190  0.5597  0.3138
 3926TIP3   OH233412   6.160   2.540   0.115 -0.5986  0.7471  0.3781
 3926TIP3    H133413   6.129   2.582   0.195 -0.5550 -0.2563  0.9346
 3926TIP3    H233414   6.247   2.579   0.100 -1.1085  1.8184  0.1309
 3927TIP3   OH233415   1.355   6.211   7.486  0.1830  0.6243 -0.2244
 3927TIP3    H133416   1.322   6.139   7.540  0.3499 -0.1598 -1.1423
 3927TIP3    H233417   1.393   6.168   7.410 -0.4595  1.7308 -1.1960
 3928TIP3   OH233418   6.865   5.682   2.194  0.2665  0.8523  0.2707
 3928TIP3    H133419   6.795   5.645   2.140  0.0197  0.1231  1.0669
 3928TIP3    H233420   6.838   5.773   2.209 -1.7574 -0.0104  2.4979
 3929TIP3   OH233421   4.092   0.869   0.886 -0.0247 -0.3306  0.2321
 3929TIP3    H133422   4.104   0.898   0.795 -0.7579  0.1395  0.2765
 3929TIP3    H233423   4.153   0.795   0.895  0.0030 -0.4392 -0.6628
 3930TIP3   OH233424   2.108   6.836   8.034  0.2112  0.2417 -0.1114
 3930TIP3    H133425   2.103   6.772   8.106 -0.3909  0.5334  0.1144
 3930TIP3    H233426   2.019   6.837   7.998  0.8637 -1.1187 -1.9343
 3931TIP3   OH233427   2.634   5.306   1.765 -0.1529  0.2617  0.4130
 3931TIP3    H133428   2.636   5.394   1.804  3.0132  0.1782  0.7037
 3931TIP3    H233429   2.652   5.247   1.838 -0.8865 -0.5222 -0.0291
 3932TIP3   OH233430   4.486   0.143   8.169 -0.0436 -0.1469 -0.3605
 3932TIP3    H133431   4.509   0.226   8.126  0.3689 -1.0493 -1.9480
 3932TIP3    H233432   4.493   0.077   8.100 -2.0308 -1.2885  0.4331
 3933TIP3   OH233433   5.204   3.728   0.676  0.1704 -0.4636  0.4195
 3933TIP3    H133434   5.115   3.709   0.649 -1.1232  0.7384  3.3270
 3933TIP3    H233435   5.215   3.678   0.757  1.2390  1.1865  1.3519
 3934TIP3   OH233436   6.905   3.428   7.149 -0.6009 -0.5472 -0.0915
 3934TIP3    H133437   6.995   3.433   7.116 -0.1005  1.5943  1.4210
 3934TIP3    H233438   6.857   3.382   7.080  1.0384  0.8350 -2.2862
 3935TIP3   OH233439   0.002   5.957   8.179 -0.9261  0.2767 -0.4691
 3935TIP3    H133440   0.057   6.025   8.140  0.4688 -1.4785 -1.7002
 3935TIP3    H233441  -0.087   5.983   8.156 -0.6038  2.5754  0.5824
 3936TIP3   OH233442   1.771   5.376   0.453  0.2257  0.0356 -0.3745
 3936TIP3    H133443   1.783   5.388   0.359 -0.5221  2.6808 -0.2139
 3936TIP3    H233444   1.715   5.448   0.480  1.9771  0.5317  2.4320
 3937TIP3   OH233445   2.851   2.775   1.106 -0.3039  0.2489 -0.3011
 3937TIP3    H133446   2.886   2.697   1.063 -0.7136  1.7165 -3.6719
 3937TIP3    H233447   2.926   2.815   1.149  0.4344 -0.7365 -0.6400
 3938TIP3   OH233448   1.122   1.052   0.511  0.1165 -0.2798 -0.0342
 3938TIP3    H133449   1.123   0.980   0.448 -0.6105 -1.1646  0.9242
 3938TIP3    H233450   1.072   1.018   0.585 -1.1603  1.5985  0.0226
 3939TIP3   OH233451   0.786   1.413   2.038  0.3238 -0.0235  0.1592
 3939TIP3    H133452   0.757   1.331   1.997 -1.8851  0.6505  0.2631
 3939TIP3    H233453   0.845   1.384   2.108 -0.5203 -1.5573  0.2910
 3940TIP3   OH233454   0.399   2.164   0.742 -0.0600  0.3965  0.4676
 3940TIP3    H133455   0.470   2.100   0.737 -0.7508 -0.2846 -1.7789
 3940TIP3    H233456   0.327   2.115   0.782 -0.8168 -0.5601 -1.8976
 3941TIP3   OH233457   0.567   3.054   1.089  0.2312  0.0065  0.0239
 3941TIP3    H133458   0.548   2.960   1.090  0.6234 -0.0795 -0.2476
 3941TIP3    H233459   0.529   3.086   1.008  1.7282 -0.2835 -0.8389
 3942TIP3   OH233460   6.407   6.377   6.767  0.5140 -0.3497  0.2745
 3942TIP3    H133461   6.344   6.384   6.695  0.0625 -1.0698  0.5898
 3942TIP3    H233462   6.371   6.433   6.836  1.5422  1.2685 -0.4600
 3943TIP3   OH233463   4.367   0.583   0.041 -0.0482 -0.7050 -0.3181
 3943TIP3    H133464   4.419   0.661   0.023 -0.5109 -0.3117  0.0383
 3943TIP3    H233465   4.360   0.579   0.136 -1.0007 -0.5164 -0.3607
 3944TIP3   OH233466   0.865   6.944   6.990  0.3195 -0.0717  0.1959
 3944TIP3    H133467   0.880   7.022   7.042 -0.3425 -1.2842  2.3388
 3944TIP3    H233468   0.846   6.976   6.902  2.7089  2.0132  0.3535
 3945TIP3   OH233469   1.534   1.910   2.194 -0.2422 -0.1259 -0.2763
 3945TIP3    H133470   1.466   1.879   2.133 -0.1301 -2.5596  0.7224
 3945TIP3    H233471   1.616   1.886   2.152 -0.1675 -1.9093  0.8018
 3946TIP3   OH233472   5.175   4.772   0.619  0.5910  0.1089  0.0477
 3946TIP3    H133473   5.100   4.721   0.650 -0.2544  0.4523 -1.2941
 3946TIP3    H233474   5.218   4.715   0.556  0.2471  0.6408 -0.6889
 3947TIP3   OH233475   1.025   1.495   0.472  0.7913 -0.3696 -0.0149
 3947TIP3    H133476   1.081   1.425   0.439  1.0325 -0.4534  0.5474
 3947TIP3    H233477   1.075   1.575   0.456  0.8029 -0.3868 -0.0657
 3948TIP3   OH233478   6.600   2.637   6.959  0.2445 -0.3585  0.9110
 3948TIP3    H133479   6.526   2.697   6.946  0.2398 -0.6157 -0.4764
 3948TIP3    H233480   6.677   2.693   6.955  0.1491 -0.0769  2.4460
 3949TIP3   OH233481   6.480   2.771   0.891  0.4373 -0.2065 -0.4251
 3949TIP3    H133482   6.551   2.726   0.935 -0.5066 -1.2054  0.1107
 3949TIP3    H233483   6.479   2.859   0.930 -0.9464 -1.3192  2.3045
 3950TIP3   OH233484   4.465   4.111   7.163  0.1403  0.5525  0.0933
 3950TIP3    H133485   4.422   4.071   7.087  1.0866 -1.1085  0.3952
 3950TIP3    H233486   4.558   4.110   7.142  0.4583 -0.3123  1.4302
 3951TIP3   OH233487   6.537   5.317   1.934  0.1693 -0.3633 -0.8956
 3951TIP3    H133488   6.446   5.342   1.918  0.1278  0.1948  0.1489
 3951TIP3    H233489   6.534   5.224   1.953 -0.6668  0.2336  2.4747
 3952TIP3   OH233490   1.698   1.571   7.261  0.9671 -0.0657 -0.9460
 3952TIP3    H133491   1.689   1.655   7.306  0.1268 -0.4246 -0.4131
 3952TIP3    H233492   1.627   1.572   7.196 -0.6074 -1.3164  0.6524
 3953TIP3   OH233493   1.677   5.303   7.118  0.0135  0.3051  0.0219
 3953TIP3    H133494   1.649   5.213   7.130  2.0260 -0.2575  1.0284
 3953TIP3    H233495   1.639   5.351   7.192 -1.0459  0.3149 -0.5079
 3954TIP3   OH233496   3.098   0.698   1.660 -0.7107 -0.7473  0.7541
 3954TIP3    H133497   3.120   0.735   1.575 -0.5423 -1.8731  0.2890
 3954TIP3    H233498   3.146   0.752   1.723 -0.0524 -0.5059  0.0597
 3955TIP3   OH233499   5.135   5.116   0.265  0.3267 -0.5251 -0.2064
 3955TIP3    H133500   5.163   5.086   0.179  3.1778  1.9297 -0.3005
 3955TIP3    H233501   5.211   5.162   0.300 -1.9051  1.7226  2.0932
 3956TIP3   OH233502   4.608   4.806   6.696 -1.1670  0.2565 -0.0974
 3956TIP3    H133503   4.592   4.873   6.629 -1.2921  1.4344  1.0673
 3956TIP3    H233504   4.695   4.773   6.676 -0.0894  2.4501  0.6355
 3957TIP3   OH233505   3.903   4.693   0.189 -0.7785  0.3195  0.0460
 3957TIP3    H133506   3.830   4.632   0.177 -0.6110 -0.0326  0.7929
 3957TIP3    H233507   3.978   4.647   0.152 -1.0408  0.9845 -1.4229
 3958TIP3   OH233508   1.667   2.186   7.236  0.2583 -0.7469  0.3135
 3958TIP3    H133509   1.680   2.105   7.187  3.0130  0.4303 -1.1509
 3958TIP3    H233510   1.591   2.227   7.195  0.4208 -1.4086 -0.6838
 3959TIP3   OH233511   2.511   5.670   2.127 -0.6783 -0.1639 -0.1941
 3959TIP3    H133512   2.417   5.651   2.136 -0.5544 -0.4118  0.6675
 3959TIP3    H233513   2.534   5.714   2.209  0.2228 -1.1864  0.1113
 3960TIP3   OH233514   3.583   6.404   7.048  0.1567 -0.1086 -0.1660
 3960TIP3    H133515   3.648   6.399   6.978  1.3546 -1.0294  0.9459
 3960TIP3    H233516   3.530   6.325   7.038  1.3366 -1.0715  0.8599
 3961TIP3   OH233517   6.871   6.042   7.864  0.2430  0.1653 -0.4352
 3961TIP3    H133518   6.935   6.081   7.924  0.2161  0.9695 -0.9079
 3961TIP3    H233519   6.858   6.109   7.797 -0.2578 -0.4403 -0.9531
 3962TIP3   OH233520   4.574   0.835   1.304 -0.1755 -0.4257  0.3376
 3962TIP3    H133521   4.641   0.891   1.343  0.0115 -1.0553  0.9352
 3962TIP3    H233522   4.542   0.884   1.228 -0.1330  0.5599  0.9488
 3963TIP3   OH233523   1.052   2.179   7.344 -0.0433  0.0781 -0.3219
 3963TIP3    H133524   1.080   2.269   7.358  2.3825 -0.7681  0.9099
 3963TIP3    H233525   1.118   2.126   7.389 -0.0931 -2.4150 -2.8687
 3964TIP3   OH233526   2.512   0.155   0.729 -0.7789  0.3073  0.0489
 3964TIP3    H133527   2.525   0.066   0.760 -0.9347  0.8334  1.7189
 3964TIP3    H233528   2.578   0.167   0.660  0.2355 -0.6046  0.8297
 3965TIP3   OH233529   2.850   0.036   8.380 -0.0784 -0.4534  0.0176
 3965TIP3    H133530   2.884  -0.001   8.462  0.2084 -1.5884 -0.5947
 3965TIP3    H233531   2.894   0.121   8.372 -0.3600 -0.1813  1.1989
 3966TIP3   OH233532   4.491   2.727   1.546  0.1905  0.2055 -0.3145
 3966TIP3    H133533   4.580   2.698   1.566  0.3184 -0.8624 -2.1958
 3966TIP3    H233534   4.459   2.764   1.628  1.8741 -0.6323  0.7818
 3967TIP3   OH233535   3.497   3.692   0.986  0.0873  0.2907  0.2150
 3967TIP3    H133536   3.559   3.756   0.950  0.8209 -1.0821 -1.0490
 3967TIP3    H233537   3.525   3.679   1.077  0.2337  1.3665  0.3369
 3968TIP3   OH233538   5.502   3.917   7.559  0.2707 -0.3534  0.0377
 3968TIP3    H133539   5.460   3.840   7.519 -1.4498  0.6769 -0.2500
 3968TIP3    H233540   5.584   3.927   7.511 -0.7862 -0.3832 -1.8945
 3969TIP3   OH233541   6.711   2.015   6.897  0.1903  0.0062  0.0350
 3969TIP3    H133542   6.758   2.098   6.882  0.7492 -0.2635  0.2749
 3969TIP3    H233543   6.759   1.951   6.846 -1.2226  0.1128 -1.4986
 3970TIP3   OH233544   1.223   3.058   0.424  0.4692 -0.5393  0.1688
 3970TIP3    H133545   1.217   3.067   0.329 -0.6993  0.2337  0.2934
 3970TIP3    H233546   1.253   3.144   0.454 -0.7016 -0.2767  0.6133
 3971TIP3   OH233547   2.747   3.896   8.085 -0.2667 -0.4189 -0.1857
 3971TIP3    H133548   2.708   3.809   8.085 -0.9907 -0.1931 -3.1478
 3971TIP3    H233549   2.673   3.956   8.088  0.1231  0.0748 -0.2037
 3972TIP3   OH233550   5.586   6.751   0.147 -0.3168  0.2026 -0.7011
 3972TIP3    H133551   5.589   6.698   0.067  0.7332  0.1538 -0.6464
 3972TIP3    H233552   5.493   6.764   0.164 -0.5876 -1.1682 -1.0201
 3973TIP3   OH233553   0.402   6.502   1.452 -0.4981 -0.0292 -0.2827
 3973TIP3    H133554   0.359   6.574   1.498 -2.2081 -1.6237  0.7452
 3973TIP3    H233555   0.447   6.544   1.378 -0.1374  2.2460  1.1370
 3974TIP3   OH233556   3.627   5.316   6.598  0.1895  0.2539 -0.7332
 3974TIP3    H133557   3.678   5.396   6.609  1.8225 -0.8763  0.4176
 3974TIP3    H233558   3.607   5.288   6.687  0.5279 -1.1438 -1.0702
 3975TIP3   OH233559   0.288   4.373   8.148 -0.0504 -0.2218  0.0169
 3975TIP3    H133560   0.313   4.451   8.098 -2.5325  0.7063  0.0986
 3975TIP3    H233561   0.285   4.403   8.239  1.4985 -1.1380  0.4113
 3976TIP3   OH233562   1.226   0.889   6.599 -0.0603  0.0222  0.0649
 3976TIP3    H133563   1.172   0.964   6.575  0.5808  0.6483  0.5251
 3976TIP3    H233564   1.293   0.884   6.530 -0.0784 -0.1016  0.0563
 3977TIP3   OH233565   5.046   5.702   0.954  0.8869  0.0999 -0.4478
 3977TIP3    H133566   5.134   5.737   0.971  0.7931  1.5531 -2.6148
 3977TIP3    H233567   4.987   5.768   0.990  0.6798 -0.2351 -0.1698
 3978TIP3   OH233568   6.584   2.966   6.523  0.3477 -0.0227  0.1722
 3978TIP3    H133569   6.519   2.975   6.454  0.3082  0.3470  0.2561
 3978TIP3    H233570   6.576   3.047   6.574  0.6998 -0.0848  0.3272
 3979TIP3   OH233571   1.348   4.970   0.850 -0.1567  0.3903  0.4257
 3979TIP3    H133572   1.310   4.949   0.765 -1.9766  0.7017  1.1153
 3979TIP3    H233573   1.420   4.908   0.860 -1.2223 -1.0485 -0.4437
 3980TIP3   OH233574   6.152   4.265   7.229 -0.1855  0.2734 -0.2597
 3980TIP3    H133575   6.074   4.219   7.260  0.1469 -0.2423 -0.1689
 3980TIP3    H233576   6.225   4.216   7.267  0.1742  0.9310 -0.1002
 3981TIP3   OH233577   3.440   0.826   1.071  0.0717  0.1710 -0.1682
 3981TIP3    H133578   3.427   0.813   1.165  0.6380 -1.8980 -0.3198
 3981TIP3    H233579   3.522   0.780   1.052 -0.2910  0.1269 -1.7580
 3982TIP3   OH233580   5.967   5.963   6.515 -0.1998 -0.2628 -0.1354
 3982TIP3    H133581   5.879   5.981   6.546 -0.2399  1.4154 -1.1391
 3982TIP3    H233582   6.021   6.031   6.555  0.6516 -1.2812  0.4822
 3983TIP3   OH233583   1.448   3.474   2.302 -0.4096 -0.5760  0.7596
 3983TIP3    H133584   1.540   3.449   2.293 -0.3649 -0.5710  1.1881
 3983TIP3    H233585   1.405   3.395   2.336 -0.0518  0.2404  3.3151
 3984TIP3   OH233586   0.508   0.297   8.471  0.1735 -0.4079 -0.1313
 3984TIP3    H133587   0.469   0.296   8.558  0.1557 -2.7926 -0.0854
 3984TIP3    H233588   0.601   0.280   8.487 -0.0155 -2.0740 -0.5745
 3985TIP3   OH233589   5.721   1.162   1.185 -0.1436 -0.6399  0.1446
 3985TIP3    H133590   5.705   1.236   1.244 -0.9984 -0.6654 -0.0458
 3985TIP3    H233591   5.813   1.139   1.200  0.3185  0.8639 -0.2492
 3986TIP3   OH233592   6.005   1.383   7.721 -0.0706  0.1602 -0.0455
 3986TIP3    H133593   6.059   1.363   7.798 -1.0498 -0.4782  0.4878
 3986TIP3    H233594   6.057   1.351   7.647 -0.1544 -1.4433  0.5422
 3987TIP3   OH233595   1.410   3.212   8.163 -0.5596  0.9298 -0.4844
 3987TIP3    H133596   1.505   3.222   8.167 -0.5686  0.9993 -0.4352
 3987TIP3    H233597   1.376   3.298   8.188 -0.6465  0.7413  0.0582
 3988TIP3   OH233598   6.155   6.450   0.888 -0.0849 -0.1116 -0.3497
 3988TIP3    H133599   6.206   6.448   0.806  0.1642 -0.5797 -0.1876
 3988TIP3    H233600   6.221   6.438   0.956 -0.1085  1.5443  0.0186
 3989TIP3   OH233601   1.978   1.999   8.359 -0.1693 -0.1398  0.4661
 3989TIP3    H133602   1.908   1.984   8.423 -2.0431 -0.6670 -1.5890
 3989TIP3    H233603   2.016   2.083   8.384 -3.6742  1.8138 -0.1098
 3990TIP3   OH233604   1.047   1.070   6.496  0.0849  0.0914 -0.0145
 3990TIP3    H133605   0.990   1.028   6.431  0.3514 -0.0516 -0.1558
 3990TIP3    H233606   1.052   1.162   6.468  1.7680 -0.3544 -1.3362
 3991TIP3   OH233607   3.974   2.231   1.183  0.0699  0.9342  0.5907
 3991TIP3    H133608   3.884   2.206   1.205 -0.0686 -1.7108 -2.2589
 3991TIP3    H233609   4.015   2.149   1.155  1.2792  2.8645 -4.5513
 3992TIP3   OH233610   3.305   5.998   7.113 -0.2130  0.1831 -0.5264
 3992TIP3    H133611   3.337   6.007   7.023  0.3220 -0.4587 -0.3994
 3992TIP3    H233612   3.221   5.953   7.103 -0.1961  0.1906 -0.7130
 3993TIP3   OH233613   5.968   0.893   6.688 -0.3084 -0.2011 -0.3902
 3993TIP3    H133614   6.024   0.863   6.760 -0.1945  0.0683 -0.3645
 3993TIP3    H233615   6.002   0.980   6.666  0.2519 -0.6525 -1.3822
 3994TIP3   OH233616   4.438   1.098   8.419 -0.0672 -0.0631 -0.4659
 3994TIP3    H133617   4.358   1.145   8.444 -1.0381 -0.8049 -2.0036
 3994TIP3    H233618   4.486   1.086   8.501 -0.5180  2.2202  0.2099
 3995TIP3   OH233619   0.336   6.664   0.586 -0.2703  0.1970 -0.1441
 3995TIP3    H133620   0.357   6.743   0.537 -1.7397  2.0686  2.0571
 3995TIP3    H233621   0.243   6.673   0.607  0.2044 -0.5898  2.7274
 3996TIP3   OH233622   0.439   6.025   0.646  0.0709 -0.4690  0.1675
 3996TIP3    H133623   0.413   6.010   0.737 -1.6622  1.7412  0.1195
 3996TIP3    H233624   0.377   5.973   0.594  0.6954 -1.2703  0.2005
 3997TIP3   OH233625   0.393   4.161   0.874  0.1505  0.2050  0.0858
 3997TIP3    H133626   0.373   4.170   0.781 -0.8332 -1.6589  0.0782
 3997TIP3    H233627   0.486   4.138   0.876 -0.1425 -1.1531 -0.5717
 3998TIP3   OH233628   0.257   0.932   8.438 -0.3210 -0.5934 -0.1300
 3998TIP3    H133629   0.309   0.977   8.371  0.9087 -0.5636  0.8156
 3998TIP3    H233630   0.281   0.840   8.429 -2.6380 -1.1232 -1.8851
 3999TIP3   OH233631   2.823   3.387   0.419  0.0316  0.3199  0.2525
 3999TIP3    H133632   2.791   3.477   0.410 -0.1578  0.2017 -0.3087
 3999TIP3    H233633   2.751   3.340   0.462  1.2068  1.0421  3.2931
 4000TIP3   OH233634   0.052   0.893   7.016 -0.2611  0.2374  0.7152
 4000TIP3    H133635   0.054   0.828   6.946  0.4038  0.4261  0.5522
 4000TIP3    H233636   0.019   0.846   7.092  0.1068 -0.2634  0.5685
 4001TIP3   OH233637   1.783   6.121   7.597 -0.1485 -0.1312  0.1256
 4001TIP3    H133638   1.779   6.026   7.602 -1.4367 -0.1328 -0.4636
 4001TIP3    H233639   1.788   6.140   7.504 -1.8788  0.3966  0.1075
 4002TIP3   OH233640   0.198   3.524   0.097  0.2016  0.3770 -0.9117
 4002TIP3    H133641   0.111   3.513   0.057 -0.2727 -0.8209  0.3887
 4002TIP3    H233642   0.255   3.468   0.045  0.1073  0.7487 -1.4308
 4003TIP3   OH233643   3.533   2.486   7.397  0.1896 -0.6245 -0.4144
 4003TIP3    H133644   3.455   2.524   7.438 -0.5562 -1.3335 -1.1402
 4003TIP3    H233645   3.602   2.551   7.412 -0.6468  0.2201 -0.1531
 4004TIP3   OH233646   2.087   0.768   6.988 -0.3607 -0.1041 -0.1729
 4004TIP3    H133647   2.040   0.848   6.965  0.4601  0.9855  1.7021
 4004TIP3    H233648   2.148   0.754   6.916 -0.5016  0.9831 -0.5259
 4005TIP3   OH233649   4.148   2.742   7.579  0.5048 -0.5337 -0.3212
 4005TIP3    H133650   4.165   2.744   7.485  3.2505 -1.2399  0.0440
 4005TIP3    H233651   4.098   2.661   7.593 -0.3502 -0.1719 -1.2081
 4006TIP3   OH233652   0.554   2.398   0.724  0.6144  0.0397 -0.2079
 4006TIP3    H133653   0.518   2.310   0.734  0.1025  0.2858  0.1821
 4006TIP3    H233654   0.478   2.452   0.699  0.6366  0.6323  0.9439
 4007TIP3   OH233655   3.664   4.525   1.202 -0.2138  0.3937 -0.0813
 4007TIP3    H133656   3.700   4.518   1.113  0.2156  1.1486  0.0159
 4007TIP3    H233657   3.667   4.436   1.237  0.4117  0.2283 -0.5271
 4008TIP3   OH233658   3.181   0.166   1.032 -0.6143  0.1376  0.2879
 4008TIP3    H133659   3.158   0.256   1.054 -2.9968 -0.1339 -0.8291
 4008TIP3    H233660   3.246   0.141   1.098  0.7154  2.8994  0.1353
 4009TIP3   OH233661   6.063   6.921   6.342 -0.0698  0.1264 -0.0188
 4009TIP3    H133662   6.050   7.016   6.336  0.3406  0.2144  0.4023
 4009TIP3    H233663   5.981   6.887   6.375 -0.5552  0.2231 -1.0894
 4010TIP3   OH233664   4.403   4.495   0.208 -0.0697 -0.0356 -0.3761
 4010TIP3    H133665   4.492   4.468   0.187 -0.5425 -1.6832 -0.3658
 4010TIP3    H233666   4.412   4.587   0.236  1.8929 -0.6968  1.4242
 4011TIP3   OH233667   2.059   6.162   7.142 -0.9675  0.5113  0.4468
 4011TIP3    H133668   2.028   6.075   7.168  1.1278  0.0674  1.7304
 4011TIP3    H233669   2.066   6.157   7.047  0.6640 -1.3217  0.5991
 4012TIP3   OH233670   5.362   2.423   7.747 -0.3753 -0.2311 -0.0093
 4012TIP3    H133671   5.360   2.434   7.652 -2.0595 -1.0501 -0.1186
 4012TIP3    H233672   5.387   2.509   7.781  0.8954 -0.0980 -1.1858
 4013TIP3   OH233673   0.973   2.352   8.239  0.1191 -0.0274  0.3173
 4013TIP3    H133674   1.056   2.368   8.194  0.4342 -0.7209  0.6310
 4013TIP3    H233675   0.912   2.326   8.169  0.5679 -0.9641  0.2515
 4014TIP3   OH233676   0.970   1.516   6.037  0.0549 -0.6194 -0.0276
 4014TIP3    H133677   1.022   1.590   6.006 -2.4109  1.1739 -0.2032
 4014TIP3    H233678   1.034   1.453   6.071  2.2196  2.8722  3.0603
 4015TIP3   OH233679   6.217   3.786   8.162 -0.4081 -0.0524  0.6432
 4015TIP3    H133680   6.165   3.819   8.234 -2.0568 -1.5779  0.2336
 4015TIP3    H233681   6.164   3.716   8.124  2.4363 -2.6142  0.9621
 4016TIP3   OH233682   3.265   3.856   1.300  0.3242 -0.2921 -0.1736
 4016TIP3    H133683   3.347   3.808   1.286  0.0507 -1.4302  1.7316
 4016TIP3    H233684   3.276   3.899   1.385 -0.4866  0.8301 -0.6062
 4017TIP3   OH233685   6.806   4.387   7.777  0.0833  0.3396 -0.2176
 4017TIP3    H133686   6.752   4.465   7.768 -2.2839 -0.6723  3.3553
 4017TIP3    H233687   6.744   4.315   7.786  2.1383 -1.5797 -0.5041
 4018TIP3   OH233688   2.857   0.798   7.058  0.0700  0.0917  0.4581
 4018TIP3    H133689   2.858   0.809   6.963  3.0921  2.6914  0.6342
 4018TIP3    H233690   2.779   0.846   7.087  0.0357  0.7026 -0.5982
 4019TIP3   OH233691   1.559   0.649   1.193  0.6562  0.2615 -0.5274
 4019TIP3    H133692   1.637   0.603   1.163  0.6848  1.1345 -1.8394
 4019TIP3    H233693   1.547   0.720   1.131 -0.6715  0.6879  0.1788
 4020TIP3   OH233694   4.048   4.517   0.746  0.1007  0.3046 -0.2541
 4020TIP3    H133695   4.020   4.476   0.827 -0.8652  0.5928 -0.4374
 4020TIP3    H233696   4.137   4.547   0.765  0.4612 -0.9664  0.1994
 4021TIP3   OH233697   1.068   4.436   1.534  0.0130  0.1799  0.3095
 4021TIP3    H133698   1.132   4.480   1.590 -1.6624  0.9725  1.6924
 4021TIP3    H233699   1.026   4.372   1.592  1.2582 -2.1975 -1.2360
 4022TIP3   OH233700   3.268   1.421   7.085  0.0422 -0.5538  0.0021
 4022TIP3    H133701   3.262   1.509   7.122  1.1489 -0.6923  0.5505
 4022TIP3    H233702   3.346   1.383   7.126 -1.1176 -2.2560  0.7698
 4023TIP3   OH233703   3.041   1.719   8.407 -0.1609  0.0969  0.4356
 4023TIP3    H133704   3.081   1.645   8.453  0.0290 -0.5865 -0.7941
 4023TIP3    H233705   2.960   1.683   8.369 -0.3469  0.6619  0.2776
 4024TIP3   OH233706   6.378   0.949   1.598  0.8067 -0.2978  1.0813
 4024TIP3    H133707   6.303   0.974   1.652 -0.1997 -2.0052  0.5506
 4024TIP3    H233708   6.387   0.854   1.612  1.3357 -0.5463 -0.7302
 4025TIP3   OH233709   5.478   3.274   1.823  0.6933  0.2057  0.6217
 4025TIP3    H133710   5.535   3.233   1.758 -0.3679  2.1266 -1.6689
 4025TIP3    H233711   5.420   3.204   1.851  0.4004 -0.4332 -1.4365
 4026TIP3   OH233712   3.262   5.968   0.377 -0.6389 -0.0059 -0.1762
 4026TIP3    H133713   3.242   5.963   0.284 -0.3210 -1.1821 -0.1948
 4026TIP3    H233714   3.239   5.882   0.411  1.4549 -0.3815  0.3816
 4027TIP3   OH233715   0.216   1.763   0.162 -0.7157  0.4757  0.5155
 4027TIP3    H133716   0.177   1.764   0.075 -0.4630  0.3703  0.3991
 4027TIP3    H233717   0.242   1.672   0.175 -2.1960  0.1410  1.3571
 4028TIP3   OH233718   5.354   5.977   2.031 -0.0639  0.3279  0.1286
 4028TIP3    H133719   5.353   6.002   2.123 -0.9841  1.2586 -0.1125
 4028TIP3    H233720   5.424   6.031   1.993 -0.2065  0.5253  0.1412
 4029TIP3   OH233721   3.194   2.690   7.725 -0.3827 -0.5784  0.0921
 4029TIP3    H133722   3.259   2.698   7.795  0.1663 -1.9045 -0.2457
 4029TIP3    H233723   3.111   2.717   7.765  0.2154  0.3245  0.7584
 4030TIP3   OH233724   4.453   1.415   1.494 -0.0796  0.0879 -0.2779
 4030TIP3    H133725   4.374   1.446   1.450 -1.0032 -0.2082  1.0823
 4030TIP3    H233726   4.420   1.361   1.567  1.3427  0.7083  0.8786
 4031TIP3   OH233727   3.986   6.524   6.055 -0.3725 -0.4886  0.4614
 4031TIP3    H133728   3.948   6.557   5.974 -1.7347  0.1536  1.3210
 4031TIP3    H233729   4.038   6.597   6.088 -0.7081 -0.3617  0.7119
 4032TIP3   OH233730   1.391   3.925   1.372 -0.2713 -0.0641  0.6837
 4032TIP3    H133731   1.440   3.865   1.315  0.5914  0.4517  0.8582
 4032TIP3    H233732   1.305   3.932   1.332  0.2937  0.2241 -0.5310
 4033TIP3   OH233733   2.892   5.408   0.527 -0.4926  0.3597  0.2787
 4033TIP3    H133734   2.917   5.326   0.484 -0.1302  0.0319  1.1028
 4033TIP3    H233735   2.858   5.463   0.456 -3.6443 -1.5726  0.1172
 4034TIP3   OH233736   6.218   5.745   0.767  0.5458 -1.0663  0.1287
 4034TIP3    H133737   6.167   5.664   0.777 -1.1576 -0.1440 -0.7245
 4034TIP3    H233738   6.216   5.764   0.674 -1.4020  1.3393  0.5525
 4035TIP3   OH233739   2.257   0.793   0.455  0.3751 -0.7921 -0.1597
 4035TIP3    H133740   2.311   0.722   0.421  0.3920 -1.5482  1.3934
 4035TIP3    H233741   2.177   0.750   0.485  1.0660 -0.4297  2.3502
 4036TIP3   OH233742   1.916   6.018   7.976 -0.1013 -0.3363 -0.6083
 4036TIP3    H133743   1.880   5.967   8.048  0.9152  1.2781  1.1370
 4036TIP3    H233744   1.855   6.090   7.965 -0.1557 -0.4782 -1.2567
 4037TIP3   OH233745   2.881   3.338   0.146 -0.2010  0.4164 -0.3121
 4037TIP3    H133746   2.880   3.355   0.240  0.9977  1.0043 -0.3869
 4037TIP3    H233747   2.973   3.321   0.125 -0.8136 -2.9214 -0.8646
 4038TIP3   OH233748   2.322   0.912   1.369 -0.1040  0.0568 -0.0781
 4038TIP3    H133749   2.345   0.951   1.453 -1.2701  1.8680 -0.5420
 4038TIP3    H233750   2.291   0.824   1.390 -0.7354  0.6206  1.4397
 4039TIP3   OH233751   4.924   1.991   0.444 -0.2753 -0.2465 -0.1505
 4039TIP3    H133752   4.836   1.952   0.436 -0.1569 -1.0074  1.8530
 4039TIP3    H233753   4.947   1.981   0.536  1.7763  0.3058 -0.5560
 4040TIP3   OH233754   1.531   2.047   1.415  1.2307  0.0209  0.2571
 4040TIP3    H133755   1.535   2.052   1.319 -2.2402 -0.3986 -0.0457
 4040TIP3    H233756   1.501   2.134   1.441 -0.8147 -0.7098  0.5771
 4041TIP3   OH233757   1.527   2.519   7.643 -0.6039 -0.2009  0.1173
 4041TIP3    H133758   1.499   2.553   7.728  0.5800  2.8952 -0.5906
 4041TIP3    H233759   1.608   2.472   7.661 -1.0807 -0.7529  0.8681
 4042TIP3   OH233760   3.387   0.048   0.667  0.2768 -0.6315  0.1179
 4042TIP3    H133761   3.328   0.040   0.592 -0.1966 -0.5741  0.4810
 4042TIP3    H233762   3.395   0.142   0.682 -0.9850 -0.6647  1.1862
 4043TIP3   OH233763   5.776   5.290   1.541  0.3734  0.4357 -0.3690
 4043TIP3    H133764   5.855   5.261   1.585  0.8586 -0.6582 -1.9104
 4043TIP3    H233765   5.731   5.344   1.607  2.4222  1.1991  0.4945
 4044TIP3   OH233766   2.058   3.146   1.319  0.1453  0.4301 -0.1265
 4044TIP3    H133767   2.006   3.185   1.249  0.2824 -0.4540 -0.7485
 4044TIP3    H233768   1.996   3.092   1.367 -0.0302  1.3323  0.6858
 4045TIP3   OH233769   6.045   2.813   6.976 -0.0886 -0.2969  0.2900
 4045TIP3    H133770   6.050   2.804   7.071  0.0564  1.1692  0.4454
 4045TIP3    H233771   6.063   2.905   6.960  2.4824 -0.9763 -1.3502
 4046TIP3   OH233772   0.190   5.052   7.188  0.1180 -0.4404 -0.2812
 4046TIP3    H133773   0.250   4.987   7.152  0.2936 -1.4006  1.5815
 4046TIP3    H233774   0.246   5.120   7.225 -0.0554  0.4778 -1.6261
 4047TIP3   OH233775   6.947   3.859   6.819  0.0208 -0.1138 -0.2202
 4047TIP3    H133776   6.975   3.892   6.733 -1.6845 -0.5158 -0.9699
 4047TIP3    H233777   6.855   3.886   6.826 -0.1517 -0.9582  1.0448
 4048TIP3   OH233778   4.917   3.951   7.978  0.1020  0.5942  0.3108
 4048TIP3    H133779   4.947   4.031   7.937  1.5039  0.1721  0.4322
 4048TIP3    H233780   4.957   3.881   7.926 -0.4316  0.0011  0.6870
 4049TIP3   OH233781   2.388   3.326   6.024 -0.4036 -0.2085  0.1451
 4049TIP3    H133782   2.376   3.253   5.964  0.4274  0.5971 -1.0518
 4049TIP3    H233783   2.446   3.386   5.977 -1.8139  1.6730  0.6694
 4050TIP3   OH233784   0.144   0.850   8.100  0.0557  0.1341 -0.1331
 4050TIP3    H133785   0.123   0.935   8.060 -0.4953 -0.1009 -0.3447
 4050TIP3    H233786   0.106   0.786   8.040  0.0548 -0.2503  0.2812
 4051TIP3   OH233787   5.746   0.886   7.412  0.1988  0.6595 -0.0812
 4051TIP3    H133788   5.749   0.867   7.319 -1.7272 -0.2378 -0.0107
 4051TIP3    H233789   5.691   0.964   7.419 -1.7704 -0.7030  0.4181
 4052TIP3   OH233790   1.041   3.551   0.013  0.3428  0.0013  0.5196
 4052TIP3    H133791   1.055   3.461  -0.018 -1.1567  0.2297 -0.9320
 4052TIP3    H233792   1.011   3.599  -0.064  2.2615  2.0955  0.9708
 4053TIP3   OH233793   6.023   3.338   8.049  0.4243 -0.1799  0.0356
 4053TIP3    H133794   6.054   3.335   7.959  1.5789 -1.2926  0.4360
 4053TIP3    H233795   5.928   3.350   8.042  0.4015 -1.0265 -1.3415
 4054TIP3   OH233796   1.465   1.943   7.309 -0.3214 -0.0530 -0.5233
 4054TIP3    H133797   1.534   1.909   7.252 -0.0392 -0.2686 -0.0626
 4054TIP3    H233798   1.406   1.990   7.251  0.8700  1.2034 -0.7523
 4055TIP3   OH233799   2.198   1.276   1.751 -0.1619 -0.1532  0.2752
 4055TIP3    H133800   2.275   1.233   1.713 -0.1135  0.5722 -0.4864
 4055TIP3    H233801   2.185   1.354   1.697 -0.1224  0.9143  1.7586
 4056TIP3   OH233802   6.336   4.834   0.779  0.2312 -0.0700  0.1133
 4056TIP3    H133803   6.300   4.748   0.803 -1.8854  0.6585 -0.1916
 4056TIP3    H233804   6.356   4.827   0.686 -2.0117  0.3537 -0.4590
 4057TIP3   OH233805   2.040   0.890   7.341  0.4481 -0.5434  0.4429
 4057TIP3    H133806   1.962   0.838   7.356  0.8294 -0.8698  1.3469
 4057TIP3    H233807   2.012   0.980   7.357 -0.3105 -0.3782 -1.5046
 4058TIP3   OH233808   2.800   5.373   1.312 -0.1666 -0.2872 -0.3498
 4058TIP3    H133809   2.815   5.419   1.229 -2.0566  0.2016 -0.4749
 4058TIP3    H233810   2.765   5.288   1.286 -2.7367  0.6134 -0.1167
 4059TIP3   OH233811   6.104   5.006   7.961 -0.1347 -0.1421  0.1548
 4059TIP3    H133812   6.050   4.939   7.919  1.0405 -0.5802 -0.7003
 4059TIP3    H233813   6.166   5.032   7.894  1.9950 -1.0609  1.6532
 4060TIP3   OH233814   3.413   1.049   7.597 -0.8133  0.6178  0.4898
 4060TIP3    H133815   3.366   1.118   7.549 -0.2827 -0.5615 -1.8718
 4060TIP3    H233816   3.468   1.097   7.659 -1.4385  2.2638 -0.1657
 4061TIP3   OH233817   6.895   0.331   2.247 -0.3146  0.2830  0.3647
 4061TIP3    H133818   6.871   0.413   2.288 -0.0644 -0.6806  2.5685
 4061TIP3    H233819   6.985   0.344   2.217  0.4368  0.2403  2.4564
 4062TIP3   OH233820   3.195   1.561   2.314 -0.4353  0.0234 -0.6415
 4062TIP3    H133821   3.277   1.582   2.360 -0.3773 -0.2658 -0.6106
 4062TIP3    H233822   3.197   1.466   2.305 -1.4351 -0.1392  0.6178
 4063TIP3   OH233823   5.046   4.650   1.375 -0.3053  0.5812 -0.1321
 4063TIP3    H133824   5.013   4.683   1.458 -0.8502  1.7582 -0.7924
 4063TIP3    H233825   5.141   4.645   1.386 -0.3708  0.8193  0.5173
 4064TIP3   OH233826   6.414   5.764   0.961  0.1376  0.4559 -0.5774
 4064TIP3    H133827   6.397   5.736   1.050 -1.0918 -1.2524 -1.3044
 4064TIP3    H233828   6.335   5.741   0.912  1.7640 -1.1783 -2.6370
 4065TIP3   OH233829   3.925   2.816   7.258 -0.8194 -0.1409  0.0463
 4065TIP3    H133830   4.013   2.780   7.267 -0.4617  0.7800  0.3437
 4065TIP3    H233831   3.874   2.773   7.327 -0.3296  0.1272  0.5775
 4066TIP3   OH233832   3.886   6.150   0.694 -0.2937 -0.5173 -0.2605
 4066TIP3    H133833   3.963   6.181   0.646 -0.0548 -2.4494 -1.2118
 4066TIP3    H233834   3.828   6.225   0.698  0.7755  0.3987 -1.3411
 4067TIP3   OH233835   3.199   5.986   0.783  0.4269  0.2978 -0.1037
 4067TIP3    H133836   3.291   5.973   0.803  0.1868 -3.4809 -0.6088
 4067TIP3    H233837   3.153   5.969   0.865  0.1122 -1.2144 -0.5470
 4068TIP3   OH233838   4.295   5.006   8.248  0.5314 -0.0424 -0.0125
 4068TIP3    H133839   4.231   5.002   8.177  0.3030  0.0749  0.1827
 4068TIP3    H233840   4.335   5.092   8.239  0.2044  0.1414  0.2515
 4069TIP3   OH233841   3.137   2.644   0.488 -0.2990  0.1635  0.2857
 4069TIP3    H133842   3.080   2.721   0.490 -0.6362 -0.0820  0.1393
 4069TIP3    H233843   3.170   2.641   0.398  1.5785  1.4861  0.8655
 4070TIP3   OH233844   6.568   4.164   0.665 -0.4615 -0.5200  0.0274
 4070TIP3    H133845   6.487   4.206   0.692 -0.7844 -0.2607 -1.2860
 4070TIP3    H233846   6.621   4.159   0.745 -0.8651  1.3565  0.4531
 4071TIP3   OH233847   1.375   1.470   7.955 -0.3307 -0.6299  0.3306
 4071TIP3    H133848   1.370   1.500   7.864  0.2396  1.4267  0.9204
 4071TIP3    H233849   1.468   1.451   7.969 -0.1994  0.2983  0.8171
 4072TIP3   OH233850   2.949   6.328   0.912 -0.3331 -0.4708 -0.3868
 4072TIP3    H133851   2.898   6.258   0.870 -1.8172  1.3788 -1.8248
 4072TIP3    H233852   3.039   6.312   0.883 -0.8174 -1.1251 -1.6373
 4073TIP3   OH233853   1.320   1.834   7.962  0.0619  0.4738 -0.3368
 4073TIP3    H133854   1.229   1.804   7.975  0.2219  0.1042 -0.0420
 4073TIP3    H233855   1.345   1.799   7.877 -0.0598  0.5316 -0.3955
 4074TIP3   OH233856   6.310   0.629   7.031  0.1408 -0.5498 -0.1793
 4074TIP3    H133857   6.254   0.669   7.097  2.2128  0.2665  1.1901
 4074TIP3    H233858   6.332   0.701   6.971 -1.1583 -1.1312 -1.4252
 4075TIP3   OH233859   2.438   5.320   6.471  0.2107 -0.2296  0.0511
 4075TIP3    H133860   2.509   5.310   6.408  1.5980  1.0237  1.3504
 4075TIP3    H233861   2.449   5.246   6.531 -0.7809 -1.1146 -0.8201
 4076TIP3   OH233862   2.779   6.405   7.986  0.3103  0.0866 -0.0098
 4076TIP3    H133863   2.857   6.455   8.009 -2.0557  2.3778  4.4987
 4076TIP3    H233864   2.798   6.316   8.014  1.3914  0.5468  0.7840
 4077TIP3   OH233865   3.031   3.405   6.893  0.1758 -0.3884  0.0761
 4077TIP3    H133866   3.038   3.313   6.869  1.0162 -0.1866 -0.4843
 4077TIP3    H233867   3.085   3.451   6.829 -0.0211  0.4699  0.5114
 4078TIP3   OH233868   4.064   4.996   1.041  0.1549 -0.8716 -0.4838
 4078TIP3    H133869   3.977   5.030   1.060 -0.0437 -0.7029 -1.6147
 4078TIP3    H233870   4.056   4.957   0.954  1.2038 -0.8921 -0.5842
 4079TIP3   OH233871   5.234   5.319   7.222 -0.5273  0.5781 -0.5182
 4079TIP3    H133872   5.204   5.257   7.156 -1.5704  0.9039 -0.3627
 4079TIP3    H233873   5.167   5.316   7.290  1.5590 -1.4100  1.6620
 4080TIP3   OH233874   0.575   0.910   1.245 -0.3754  0.3508  0.0035
 4080TIP3    H133875   0.642   0.849   1.275  0.3192  0.1955 -1.7445
 4080TIP3    H233876   0.615   0.955   1.170 -2.2611  0.0724 -1.2548
 4081TIP3   OH233877   1.598   5.366   0.705 -0.0022  1.2597 -0.0798
 4081TIP3    H133878   1.601   5.434   0.773 -0.7802  1.5654 -0.3423
 4081TIP3    H233879   1.585   5.413   0.624 -1.3617  0.7698 -0.1785
 4082TIP3   OH233880   6.400   3.095   6.861  0.5393  0.1891 -0.2958
 4082TIP3    H133881   6.335   3.080   6.793 -0.2129  0.2738  0.3912
 4082TIP3    H233882   6.350   3.127   6.936  0.8315 -3.0106  1.4296
 4083TIP3   OH233883   3.613   5.409   0.810 -0.0432  0.0596  0.1841
 4083TIP3    H133884   3.692   5.454   0.779  1.2594 -1.8951  0.4505
 4083TIP3    H233885   3.573   5.374   0.730 -0.1476  0.2960  0.1320
 4084TIP3   OH233886   6.647   3.324   5.919  0.0289 -0.6513  0.2356
 4084TIP3    H133887   6.567   3.271   5.918  0.1708 -0.8713  0.4898
 4084TIP3    H233888   6.709   3.273   5.867  0.3624 -1.0438  1.0161
 4085TIP3   OH233889   5.137   0.043   0.916 -0.2203 -0.1230 -0.8915
 4085TIP3    H133890   5.173   0.127   0.889  0.0908  0.4242  1.0785
 4085TIP3    H233891   5.048   0.043   0.880 -1.3349  2.4168  1.4445
 4086TIP3   OH233892   2.647   3.778   6.696 -0.4627 -0.0756 -0.0526
 4086TIP3    H133893   2.680   3.864   6.669  1.1403 -0.5431  0.3582
 4086TIP3    H233894   2.620   3.736   6.615 -1.4477  0.8663 -0.2409
 4087TIP3   OH233895   3.844   1.520   7.951 -0.1822 -0.1442  0.1422
 4087TIP3    H133896   3.848   1.456   8.022  0.3150  0.0053  0.2483
 4087TIP3    H233897   3.827   1.604   7.994 -1.8616 -0.3315 -0.0694
 4088TIP3   OH233898   1.226   4.568   8.208 -0.3916 -0.1231 -0.2588
 4088TIP3    H133899   1.171   4.637   8.245 -1.0643 -0.6824 -0.2016
 4088TIP3    H233900   1.217   4.495   8.269  1.7759  0.3224  0.6779
 4089TIP3   OH233901   6.787   1.018   1.523  0.0938 -0.9239  0.0062
 4089TIP3    H133902   6.790   0.959   1.447  0.6490 -0.7005 -0.1547
 4089TIP3    H233903   6.810   0.962   1.597 -0.6186 -1.1812  0.0433
 4090TIP3   OH233904   1.317   6.431   7.258  0.5079  0.2872 -0.4547
 4090TIP3    H133905   1.362   6.405   7.177 -1.7998  1.2659 -2.1926
 4090TIP3    H233906   1.281   6.349   7.292  0.9167 -0.0503 -0.8070
 4091TIP3   OH233907   1.429   1.009   8.277  0.1307 -0.5354  1.0374
 4091TIP3    H133908   1.462   0.957   8.350  1.0009  0.7922  1.6229
 4091TIP3    H233909   1.488   0.990   8.204  1.1067  0.4238  1.5582
 4092TIP3   OH233910   6.782   2.701   8.171  0.4025 -0.0730  0.0260
 4092TIP3    H133911   6.754   2.793   8.169  0.8460  0.0583 -2.2217
 4092TIP3    H233912   6.877   2.705   8.165  0.4630 -0.6824  0.5034
 4093TIP3   OH233913   0.677   1.775   0.625  0.2438 -0.0092  0.0561
 4093TIP3    H133914   0.748   1.746   0.567  1.3191  1.2781  0.6689
 4093TIP3    H233915   0.670   1.705   0.690  0.8932 -0.2127 -0.0789
 4094TIP3   OH233916   5.486   2.740   7.243 -0.0294  0.3746 -0.2540
 4094TIP3    H133917   5.509   2.826   7.208 -1.5019  0.5087 -0.9719
 4094TIP3    H233918   5.404   2.755   7.291 -1.0782 -0.8672 -1.6018
 4095TIP3   OH233919   4.344   0.561   6.748  0.3938  0.3427 -0.8895
 4095TIP3    H133920   4.309   0.506   6.818 -0.8210  2.5011  0.2830
 4095TIP3    H233921   4.428   0.520   6.726  0.7499 -0.4891  1.7228
 4096TIP3   OH233922   0.043   4.924   7.412 -0.2893  0.2623  0.1290
 4096TIP3    H133923   0.100   4.958   7.481  0.0546  1.6604 -0.8060
 4096TIP3    H233924   0.073   4.968   7.332 -1.4070 -0.4729 -0.7237
 4097TIP3   OH233925   1.585   6.637   2.454 -0.4948 -0.0620  0.3023
 4097TIP3    H133926   1.498   6.614   2.487 -0.4273 -0.0419  0.4902
 4097TIP3    H233927   1.612   6.561   2.402  0.8527 -1.5951  3.0209
 4098TIP3   OH233928   3.897   4.296   1.634 -0.2655 -0.3674 -0.1340
 4098TIP3    H133929   3.823   4.354   1.652  2.1142  3.1777 -0.8464
 4098TIP3    H233930   3.967   4.328   1.690  1.5941 -1.7221 -1.5550
 4099TIP3   OH233931   1.814   1.399   7.590  0.1906  0.2702 -0.0658
 4099TIP3    H133932   1.733   1.413   7.540  0.9572  1.3024 -1.0909
 4099TIP3    H233933   1.863   1.481   7.579  1.8052 -0.6842 -0.3168
 4100TIP3   OH233934   0.167   3.733   6.979 -0.4705  0.2782  0.1711
 4100TIP3    H133935   0.090   3.754   6.927  0.3394  1.7154 -0.5135
 4100TIP3    H233936   0.187   3.813   7.027  0.8911  0.1239 -0.0728
 4101TIP3   OH233937   3.718   4.302   7.028  0.8083 -0.2637  0.2923
 4101TIP3    H133938   3.752   4.293   6.939  1.5108  1.1076  0.3948
 4101TIP3    H233939   3.701   4.212   7.056 -0.0821 -0.6787 -1.4567
 4102TIP3   OH233940   0.526   3.157   1.486  0.4344 -0.2453  0.4438
 4102TIP3    H133941   0.533   3.186   1.577 -3.0738  1.2315  0.3924
 4102TIP3    H233942   0.487   3.070   1.490 -0.2626  0.0601  0.3492
 4103TIP3   OH233943   2.501   6.825   2.036  0.4687  0.9479 -0.3079
 4103TIP3    H133944   2.415   6.782   2.034  0.7925 -0.2492  3.6571
 4103TIP3    H233945   2.528   6.826   1.944 -2.9715 -0.2402 -1.5209
 4104TIP3   OH233946   2.169   6.909   1.698 -0.3425 -0.6946  0.3987
 4104TIP3    H133947   2.107   6.952   1.757  1.0777  2.3901 -0.1680
 4104TIP3    H233948   2.135   6.927   1.610 -0.1620 -1.5586  0.1356
 4105TIP3   OH233949   5.042   4.389   0.468  0.3608 -0.0719 -0.1556
 4105TIP3    H133950   5.121   4.337   0.486  0.7506  0.3952 -0.4973
 4105TIP3    H233951   5.041   4.455   0.537  1.8398  1.7035 -1.7030
 4106TIP3   OH233952   3.257   3.248   7.702  0.4512 -0.0310  0.0478
 4106TIP3    H133953   3.207   3.173   7.671  1.5525 -0.5624 -0.5212
 4106TIP3    H233954   3.219   3.270   7.787  1.1924 -2.3037  1.0338
 4107TIP3   OH233955   3.304   6.780   1.428 -0.1990 -0.2782 -0.3097
 4107TIP3    H133956   3.375   6.759   1.488  0.0077 -0.2309 -0.5347
 4107TIP3    H233957   3.311   6.714   1.359 -1.7099 -1.6341  0.7513
 4108TIP3   OH233958   1.848   0.651   0.769  0.4385  0.2237 -0.7983
 4108TIP3    H133959   1.849   0.717   0.699  1.9713  1.0597 -0.0590
 4108TIP3    H233960   1.933   0.607   0.761 -0.0313 -0.7659 -0.4505
 4109TIP3   OH233961   5.631   5.023   1.813 -0.3238 -0.5267  0.0544
 4109TIP3    H133962   5.649   5.040   1.906  1.0401 -0.4689 -0.1948
 4109TIP3    H233963   5.551   5.072   1.794  1.0909  2.0984  0.4384
 4110TIP3   OH233964   6.945   5.751   0.497  0.1790 -0.1229  0.4017
 4110TIP3    H133965   6.884   5.772   0.568 -0.7736 -0.3862 -0.3157
 4110TIP3    H233966   6.891   5.707   0.431  0.8772  0.7619 -0.8077
 4111TIP3   OH233967   1.026   6.427   7.913  0.2211 -0.0777  0.2130
 4111TIP3    H133968   1.096   6.372   7.877  0.1919  1.4271 -2.4103
 4111TIP3    H233969   1.069   6.478   7.981  1.3503 -0.2587 -0.3321
 4112TIP3   OH233970   5.497   6.594   0.730  0.1072  0.1043  0.4776
 4112TIP3    H133971   5.490   6.576   0.636 -1.8802 -1.1559  0.8222
 4112TIP3    H233972   5.407   6.592   0.762  0.4774  2.8171  2.0561
 4113TIP3   OH233973   6.109   3.970   1.843 -0.5938  0.7122  0.4512
 4113TIP3    H133974   6.065   4.055   1.837 -1.2970  0.2977 -0.8436
 4113TIP3    H233975   6.041   3.907   1.819 -0.3075 -0.3050  2.1818
 4114TIP3   OH233976   4.994   0.183   7.750  0.2955  0.1493 -0.3733
 4114TIP3    H133977   4.953   0.137   7.823  0.4041  0.8649  0.1493
 4114TIP3    H233978   5.069   0.128   7.728 -0.1137 -0.4163 -0.3862
 4115TIP3   OH233979   2.127   0.859   1.760  0.1984  0.4285 -0.7973
 4115TIP3    H133980   2.171   0.906   1.830  0.4612 -0.4567 -0.3548
 4115TIP3    H233981   2.193   0.798   1.726 -0.7707 -1.3282  0.2669
 4116TIP3   OH233982   6.709   2.102   2.223  0.0101  0.2691 -0.2677
 4116TIP3    H133983   6.623   2.067   2.200  0.2191 -0.3992 -0.0574
 4116TIP3    H233984   6.691   2.191   2.254 -0.8544 -0.5144  1.6503
 4117TIP3   OH233985   0.738   2.948   0.088  0.4069  0.5743  0.0077
 4117TIP3    H133986   0.737   2.853   0.075  1.0035  0.8217 -2.3582
 4117TIP3    H233987   0.651   2.977   0.061 -0.1629  0.6369  1.7907
 4118TIP3   OH233988   5.185   1.444   1.309  0.4253 -0.1707  0.4715
 4118TIP3    H133989   5.103   1.396   1.320 -1.1280  2.1532 -0.4366
 4118TIP3    H233990   5.218   1.417   1.223  1.5713 -2.3475  1.5027
 4119TIP3   OH233991   0.555   4.240   7.042 -0.4385  0.3388  0.2122
 4119TIP3    H133992   0.471   4.279   7.017 -0.5345  0.0932  0.1456
 4119TIP3    H233993   0.561   4.162   6.987 -0.4472  0.0308  0.6482
 4120TIP3   OH233994   4.562   6.156   8.228  0.9015 -0.7719  0.4042
 4120TIP3    H133995   4.567   6.086   8.294  3.6615 -0.8705  0.2266
 4120TIP3    H233996   4.601   6.117   8.150 -0.8459 -0.1238 -0.8441
 4121TIP3   OH233997   4.233   6.179   7.682 -0.1402 -0.2380  0.0897
 4121TIP3    H133998   4.277   6.209   7.602  0.7706  0.1450  0.7158
 4121TIP3    H233999   4.207   6.260   7.726 -0.3921 -0.4433  0.3214
 4122TIP3   OH234000   5.983   0.271   7.444  0.4384 -0.0235 -0.3286
 4122TIP3    H134001   5.938   0.298   7.524 -1.0269 -0.5237 -0.9607
 4122TIP3    H234002   6.013   0.181   7.462  0.6043  0.0706 -0.1393
 4123TIP3   OH234003   5.616   5.489   8.061  0.8005  0.2109 -0.4190
 4123TIP3    H134004   5.541   5.468   8.006  1.2561  1.5617 -1.6315
 4123TIP3    H234005   5.578   5.517   8.145  0.0600 -0.8861 -0.3641
 4124TIP3   OH234006   2.844   5.315   7.131  0.7458  0.7751 -0.2351
 4124TIP3    H134007   2.906   5.269   7.188  0.0414 -1.2332 -1.0095
 4124TIP3    H234008   2.855   5.274   7.045 -1.7967  0.1928 -0.3522
 4125TIP3   OH234009   5.137   1.561   1.719 -0.3863 -0.2265 -0.0373
 4125TIP3    H134010   5.187   1.609   1.786 -1.4635 -1.5137  1.7715
 4125TIP3    H234011   5.204   1.530   1.657  0.6540  0.9535  0.4492
 4126TIP3   OH234012   6.017   0.563   8.254  0.0442 -0.1877 -0.0082
 4126TIP3    H134013   5.961   0.577   8.177 -0.7538 -0.3242  0.5362
 4126TIP3    H234014   6.003   0.471   8.277 -0.3514  0.0680  0.7922
 4127TIP3   OH234015   5.501   3.923   7.976 -0.1587  0.8852  0.0552
 4127TIP3    H134016   5.575   3.964   8.022 -0.5251  1.3201  0.2601
 4127TIP3    H234017   5.425   3.941   8.032 -0.7006  1.8459 -0.9533
 4128TIP3   OH234018   6.413   3.909   7.133  0.1728 -0.7453 -0.5421
 4128TIP3    H134019   6.377   3.991   7.098 -1.2307 -0.8235  0.6153
 4128TIP3    H234020   6.508   3.923   7.134 -0.0063  0.6659 -0.8380
 4129TIP3   OH234021   2.230   4.068   7.791 -0.1202  0.7836  0.1616
 4129TIP3    H134022   2.188   4.013   7.725  0.3112  1.2149 -0.4831
 4129TIP3    H234023   2.280   4.006   7.845  1.9911  0.6721 -1.7722
 4130TIP3   OH234024   6.344   1.030   0.203  0.3018 -0.0719 -0.2604
 4130TIP3    H134025   6.358   1.006   0.111 -1.0188  0.2550 -0.5685
 4130TIP3    H234026   6.432   1.037   0.239  0.8743  0.3990 -1.6650
 4131TIP3   OH234027   0.356   3.925   2.324 -0.3717 -0.3154 -0.0936
 4131TIP3    H134028   0.362   3.980   2.246  0.2542 -0.8607 -0.4460
 4131TIP3    H234029   0.445   3.923   2.358 -0.7085  0.2034  0.8498
 4132TIP3   OH234030   2.600   0.118   7.603  0.6546 -0.4319  0.3939
 4132TIP3    H134031   2.535   0.060   7.642  0.5815  0.4689  1.6815
 4132TIP3    H234032   2.647   0.155   7.678  0.5853  1.2889 -0.3638
 4133TIP3   OH234033   0.250   4.079   7.797  0.0965  0.2281  0.7045
 4133TIP3    H134034   0.292   4.039   7.721 -0.5924 -0.4545  0.6772
 4133TIP3    H234035   0.311   4.147   7.825 -0.2124  1.3620 -1.2329
 4134TIP3   OH234036   0.105   1.626   8.072  0.1366  0.1790 -0.2578
 4134TIP3    H134037   0.161   1.599   8.000 -1.1199 -1.2921 -0.7207
 4134TIP3    H234038   0.035   1.677   8.031  0.3767  0.8672  0.1580
 4135TIP3   OH234039   3.392   1.772   1.781  0.1647  0.0761  0.2757
 4135TIP3    H134040   3.380   1.753   1.874 -2.5908 -0.1412 -0.0474
 4135TIP3    H234041   3.428   1.690   1.744 -0.4260 -0.4509  0.8580
 4136TIP3   OH234042   6.847   1.824   6.724  0.7915  0.3832 -0.4050
 4136TIP3    H134043   6.767   1.772   6.731 -0.9119  2.7847 -0.8191
 4136TIP3    H234044   6.878   1.810   6.635  0.1795  0.3477 -0.6123
 4137TIP3   OH234045   2.864   6.856   2.106  0.4262  0.1600 -0.6623
 4137TIP3    H134046   2.799   6.910   2.150  1.7645  2.9400 -1.8539
 4137TIP3    H234047   2.934   6.844   2.171  0.6706  0.9524 -0.7703
 4138TIP3   OH234048   6.380   6.952   1.477 -1.0497 -0.1351  0.2798
 4138TIP3    H134049   6.323   7.017   1.437  0.5212  0.7263 -0.6933
 4138TIP3    H234050   6.436   6.922   1.405  0.8032  0.2938  1.4552
 4139TIP3   OH234051   5.783   2.424   7.158 -0.5251  0.4807  0.3108
 4139TIP3    H134052   5.769   2.438   7.065  0.8330  1.4049  0.2238
 4139TIP3    H234053   5.815   2.334   7.165  0.2090  0.6923 -0.2240
 4140TIP3   OH234054   2.975   5.354   0.116  0.0051  0.5390 -0.1359
 4140TIP3    H134055   3.046   5.311   0.069 -0.5193 -1.9421  1.1274
 4140TIP3    H234056   3.011   5.438   0.144  2.4982 -0.6645  0.5590
 4141TIP3   OH234057   0.111   2.232   1.078 -0.1072 -0.3977 -0.0830
 4141TIP3    H134058   0.112   2.154   1.023 -1.8372  0.2148 -1.0530
 4141TIP3    H234059   0.169   2.294   1.034 -0.1180 -0.5163 -0.2653
 4142TIP3   OH234060   4.032   3.220   0.799 -0.9602  0.0059 -0.4285
 4142TIP3    H134061   4.071   3.160   0.863 -2.8000  0.4122  1.1634
 4142TIP3    H234062   4.081   3.205   0.718  2.4413  0.5172  1.4015
 4143TIP3   OH234063   3.719   6.714   1.391  0.0161  0.0298 -0.3619
 4143TIP3    H134064   3.699   6.724   1.484  1.9581 -0.1772  0.1192
 4143TIP3    H234065   3.803   6.758   1.379  0.1740 -0.6037 -1.8590
 4144TIP3   OH234066   6.321   2.537   1.307  0.5243  0.0929  0.3330
 4144TIP3    H134067   6.389   2.513   1.370  0.7112 -0.8510 -0.2093
 4144TIP3    H234068   6.240   2.504   1.346  0.4880  0.5153  0.6113
 4145TIP3   OH234069   3.082   2.209   1.740  0.7339 -0.1967 -0.6375
 4145TIP3    H134070   3.032   2.166   1.809 -0.8665  2.3286 -0.0890
 4145TIP3    H234071   3.041   2.182   1.659 -0.3365  0.3561 -0.2958
 4146TIP3   OH234072   0.389   5.192   7.768  0.7902  0.2178 -0.0517
 4146TIP3    H134073   0.473   5.154   7.741  0.1045 -0.5589 -1.1917
 4146TIP3    H234074   0.366   5.142   7.847  1.3085  0.3288  0.1806
 4147TIP3   OH234075   5.371   5.449   7.935  0.0409  0.0696 -0.1200
 4147TIP3    H134076   5.321   5.370   7.955  0.6616 -0.4587 -0.6264
 4147TIP3    H234077   5.368   5.456   7.840 -0.9422  1.2875 -0.0301
 4148TIP3   OH234078   1.529   0.387   2.307 -0.3292 -0.1511 -0.4344
 4148TIP3    H134079   1.547   0.389   2.401 -0.0167 -0.3853 -0.4881
 4148TIP3    H234080   1.516   0.295   2.287 -2.8565  0.0884 -0.1728
 4149TIP3   OH234081   0.834   4.580   8.103 -0.5501 -0.1985  0.1215
 4149TIP3    H134082   0.914   4.622   8.072 -0.9120  1.8903  1.7675
 4149TIP3    H234083   0.864   4.514   8.166 -0.0277 -1.6669 -1.5972
 4150TIP3   OH234084   2.072   1.526   7.399 -0.0219 -0.2660 -0.7468
 4150TIP3    H134085   2.038   1.494   7.316 -0.8972 -0.7797 -0.1985
 4150TIP3    H234086   2.132   1.457   7.428  0.5608  0.0758 -1.1110
 4151TIP3   OH234087   6.324   6.658   6.708 -0.5303  0.1132  0.6107
 4151TIP3    H134088   6.301   6.667   6.615 -0.3470  0.2460  0.5766
 4151TIP3    H234089   6.420   6.665   6.709 -0.3952 -1.3759  0.6443
 4152TIP3   OH234090   4.827   2.531   0.280  0.2398 -0.8932 -0.8278
 4152TIP3    H134091   4.881   2.539   0.201  0.4876 -0.1331 -0.5903
 4152TIP3    H234092   4.887   2.551   0.352 -0.1670 -0.8518 -0.4979
 4153TIP3   OH234093   1.513   6.364   0.749  0.4061 -0.4829 -0.3281
 4153TIP3    H134094   1.536   6.365   0.656  0.1318  0.1688 -0.3938
 4153TIP3    H234095   1.476   6.451   0.766  0.5192 -0.5682  0.4068
 4154TIP3   OH234096   4.951   3.127   0.209 -0.8109  0.9402  0.2079
 4154TIP3    H134097   4.937   3.083   0.293 -1.2871  0.6380 -0.0238
 4154TIP3    H234098   4.992   3.061   0.153 -2.3014  0.4915 -0.4070
 4155TIP3   OH234099   0.951   2.368   1.126 -0.2587  0.3503 -0.5027
 4155TIP3    H134100   0.911   2.304   1.186  3.4436 -0.0411  1.8895
 4155TIP3    H234101   0.899   2.362   1.046 -3.4900 -1.5588  1.5119
 4156TIP3   OH234102   2.915   0.240   7.608  0.1642  0.3051  0.3743
 4156TIP3    H134103   2.998   0.276   7.577  0.3663 -0.3671  0.1156
 4156TIP3    H234104   2.866   0.315   7.640 -0.3230  1.1412 -2.1542
 4157TIP3   OH234105   6.481   4.813   8.005 -0.1917  0.0907 -0.1024
 4157TIP3    H134106   6.468   4.879   8.073  0.8482  0.3108 -0.1073
 4157TIP3    H234107   6.576   4.811   7.991 -0.1093 -2.0421  0.5059
 4158TIP3   OH234108   2.854   2.441   2.338  0.4045  0.6632  0.3513
 4158TIP3    H134109   2.819   2.518   2.382 -1.1203 -0.8081  1.8610
 4158TIP3    H234110   2.929   2.415   2.392  0.2393  0.4619  0.4852
 4159TIP3   OH234111   3.864   1.996   2.700 -0.1339  0.1251  0.0146
 4159TIP3    H134112   3.933   2.037   2.648 -0.3991 -0.8784 -1.1993
 4159TIP3    H234113   3.806   1.957   2.635  0.7213 -3.1570  1.0368
 4160TIP3   OH234114   5.840   5.178   2.276  0.2668  0.6491  0.4239
 4160TIP3    H134115   5.934   5.167   2.292  0.4516  1.9518  0.4041
 4160TIP3    H234116   5.805   5.208   2.360 -0.4219 -1.2536  0.8531
 4161TIP3   OH234117   1.116   2.161   7.644 -0.3933 -0.3264 -0.0665
 4161TIP3    H134118   1.149   2.085   7.596 -0.4120  0.1552 -0.8662
 4161TIP3    H234119   1.188   2.186   7.702 -1.1880 -2.3042  1.9083
 4162TIP3   OH234120   3.994   1.135   7.331  0.1741  0.8082  0.5846
 4162TIP3    H134121   4.062   1.120   7.396  0.3916 -1.7499 -0.1582
 4162TIP3    H234122   4.030   1.204   7.275  2.2287 -0.5562  0.1434
 4163TIP3   OH234123   5.326   6.136   7.586 -0.4790  0.2730 -0.3087
 4163TIP3    H134124   5.334   6.228   7.563  1.7229  0.4559  0.9515
 4163TIP3    H234125   5.360   6.130   7.675 -0.9299 -1.7085 -0.2144
 4164TIP3   OH234126   1.877   1.835   7.323 -0.1294 -0.4571  0.0365
 4164TIP3    H134127   1.924   1.917   7.340 -0.9351 -0.0827  0.5394
 4164TIP3    H234128   1.875   1.827   7.228 -0.2959  0.2576 -0.0243
 4165TIP3   OH234129   6.776   4.423   6.591 -0.3168 -0.1347  0.1693
 4165TIP3    H134130   6.804   4.513   6.603 -0.9441  0.1363 -0.3170
 4165TIP3    H234131   6.687   4.421   6.626 -0.3217 -0.5560  0.1345
 4166TIP3   OH234132   5.853   3.672   7.210  0.3856 -0.3580  0.1708
 4166TIP3    H134133   5.758   3.685   7.210  0.2793 -1.0767  0.5229
 4166TIP3    H234134   5.865   3.582   7.243  1.1598 -0.4560 -0.3551
 4167TIP3   OH234135   5.819   3.667   0.498  0.0553  0.5128  0.0025
 4167TIP3    H134136   5.895   3.662   0.556  1.0463  1.6031 -1.1689
 4167TIP3    H234137   5.854   3.655   0.410 -1.2350  0.3097 -0.5125
 4168TIP3   OH234138   2.993   2.905   1.479  0.2471  0.3694 -0.1369
 4168TIP3    H134139   2.928   2.838   1.499  0.3033  0.4031  0.1620
 4168TIP3    H234140   3.052   2.905   1.554  1.8355 -1.1050 -1.3394
 4169TIP3   OH234141   0.436   5.352   1.396 -0.5037  0.2016  0.1492
 4169TIP3    H134142   0.494   5.424   1.422  1.0117 -1.1678  0.6903
 4169TIP3    H234143   0.459   5.335   1.305 -1.0188  0.5354 -0.0463
 4170TIP3   OH234144   1.581   4.696   1.779 -0.6126 -0.3005  0.1032
 4170TIP3    H134145   1.630   4.741   1.848  0.3159 -1.6786  0.3730
 4170TIP3    H234146   1.493   4.685   1.815 -0.3418 -0.3314  0.7661
 4171TIP3   OH234147   5.672   1.143   7.241  0.2570  0.1552 -0.2527
 4171TIP3    H134148   5.743   1.109   7.188  0.3309  1.0753 -0.7599
 4171TIP3    H234149   5.632   1.212   7.188 -1.0923 -0.4264 -0.0296
 4172TIP3   OH234150   0.142   6.416   0.676 -0.0023  0.0501  0.3697
 4172TIP3    H134151   0.168   6.501   0.711 -0.9559  0.2247  0.6803
 4172TIP3    H234152   0.224   6.368   0.665  0.5462  1.0287  0.1415
 4173TIP3   OH234153   6.498   1.253   8.435  0.4571  0.0253 -0.1623
 4173TIP3    H134154   6.502   1.312   8.510  0.6025 -0.9075  0.5883
 4173TIP3    H234155   6.514   1.166   8.472  0.3653 -0.4761 -1.2530
 4174TIP3   OH234156   4.347   3.513   6.583  0.3659  0.3778  0.7731
 4174TIP3    H134157   4.373   3.495   6.493 -4.1456  1.4486 -1.0358
 4174TIP3    H234158   4.350   3.427   6.626  3.4459 -0.0121  0.0349
 4175TIP3   OH234159   0.692   2.390   1.302  0.3923  0.1613 -0.4248
 4175TIP3    H134160   0.673   2.382   1.208 -3.1550 -2.1798  0.2614
 4175TIP3    H234161   0.731   2.307   1.326 -0.0449  0.1700  0.3665
 4176TIP3   OH234162   2.265   0.826   7.201 -0.3665 -0.1862 -0.3645
 4176TIP3    H134163   2.224   0.802   7.118  0.3091  1.1904 -1.1279
 4176TIP3    H234164   2.197   0.874   7.248 -1.2574 -2.2530  0.5727
 4177TIP3   OH234165   2.857   0.942   1.705  0.7379 -0.1683  0.3634
 4177TIP3    H134166   2.918   0.929   1.633  0.3937  1.2771 -0.2091
 4177TIP3    H234167   2.913   0.943   1.783  1.0954 -1.8643  0.1677
 4178TIP3   OH234168   1.689   6.051   0.199 -0.1404 -0.6584 -0.3836
 4178TIP3    H134169   1.678   6.140   0.167 -0.5612 -0.7013 -0.3585
 4178TIP3    H234170   1.773   6.052   0.246 -0.7793  0.0502  0.7692
 4179TIP3   OH234171   0.738   6.446   2.266  0.6023  0.5498 -0.0956
 4179TIP3    H134172   0.662   6.410   2.219  0.1755  1.0303  0.2111
 4179TIP3    H234173   0.759   6.381   2.333 -0.4739  1.0657  0.7788
 4180TIP3   OH234174   1.682   1.965   2.428  0.0826  0.4417  0.4547
 4180TIP3    H134175   1.626   1.966   2.351 -1.3151  2.4057  1.4162
 4180TIP3    H234176   1.724   2.051   2.430  1.6399 -0.2877  0.8419
 4181TIP3   OH234177   2.594   4.407   1.999  0.2182  0.1883 -0.1936
 4181TIP3    H134178   2.651   4.367   2.065 -0.1294 -1.0168 -0.5850
 4181TIP3    H234179   2.518   4.436   2.049  0.5830  0.5860  0.1382
 4182TIP3   OH234180   0.736   5.619   7.322  0.0972 -0.2537  0.2690
 4182TIP3    H134181   0.801   5.688   7.311  0.4578 -0.4698  0.9580
 4182TIP3    H234182   0.762   5.575   7.403 -0.3890 -0.9103  0.0737
 4183TIP3   OH234183   1.048   5.950   0.254  0.7997  0.1653  0.0151
 4183TIP3    H134184   1.123   5.893   0.269 -0.0551 -1.6758 -2.1820
 4183TIP3    H234185   0.974   5.902   0.291  0.2763  0.5840 -0.4885
 4184TIP3   OH234186   3.951   3.555   7.861  0.2691 -0.2112 -0.6038
 4184TIP3    H134187   3.921   3.501   7.788  1.4598  1.0020 -2.0931
 4184TIP3    H234188   3.993   3.494   7.921 -0.2775 -1.1872 -1.1920
 4185TIP3   OH234189   5.798   1.611   0.075 -0.2759 -0.1663 -0.4302
 4185TIP3    H134190   5.814   1.574   0.161  0.7634 -0.4986 -0.7484
 4185TIP3    H234191   5.789   1.535   0.017 -1.1014  0.0494 -0.5937
 4186TIP3   OH234192   6.254   5.023   6.862  0.0818  0.4295 -0.2807
 4186TIP3    H134193   6.171   4.984   6.891  0.0372  0.8392  0.1623
 4186TIP3    H234194   6.236   5.053   6.773  0.5012 -1.7144 -1.1700
 4187TIP3   OH234195   3.222   4.016   7.980 -0.4292  0.6395 -0.3615
 4187TIP3    H134196   3.264   3.994   7.897 -0.7382 -2.1832  0.1107
 4187TIP3    H234197   3.129   3.995   7.966 -1.0520  2.9732 -0.1524
 4188TIP3   OH234198   2.067   1.561   6.351 -0.0390 -0.0004  0.0331
 4188TIP3    H134199   2.086   1.654   6.341  0.7814 -0.0927  0.6507
 4188TIP3    H234200   2.153   1.520   6.358 -0.4195 -0.5804  1.6946
 4189TIP3   OH234201   1.288   0.007   0.937 -0.0886  0.1264  0.2313
 4189TIP3    H134202   1.340  -0.065   0.974 -0.2007 -0.4137 -0.6404
 4189TIP3    H234203   1.248  -0.030   0.858  0.2908  1.3077 -0.5328
 4190TIP3   OH234204   6.587   0.636   7.238  0.1134 -0.7736 -0.1834
 4190TIP3    H134205   6.649   0.622   7.309  0.8901 -0.5866 -0.8135
 4190TIP3    H234206   6.503   0.606   7.273  0.5277 -0.8989  0.7249
 4191TIP3   OH234207   4.140   3.796   8.105  0.1804  0.4616 -0.2531
 4191TIP3    H134208   4.059   3.846   8.091 -0.1883 -0.3767 -1.3466
 4191TIP3    H234209   4.112   3.704   8.102  1.1026  0.1621 -0.1124
 4192TIP3   OH234210   5.554   2.048   7.683  0.1364 -0.1737 -0.2505
 4192TIP3    H134211   5.465   2.065   7.653  0.5034  0.3008 -1.0959
 4192TIP3    H234212   5.544   2.030   7.777 -0.8310  0.0038 -0.3054
 4193TIP3   OH234213   0.071   6.188   8.023 -0.0191 -0.0777  0.0296
 4193TIP3    H134214   0.045   6.243   8.097 -1.8258 -0.2402 -0.4358
 4193TIP3    H234215   0.156   6.223   7.996  0.4546  0.2961  1.8530
 4194TIP3   OH234216   3.630   3.609   1.634  0.8498 -0.0618 -0.4180
 4194TIP3    H134217   3.673   3.526   1.651  1.0398  0.7171  4.1978
 4194TIP3    H234218   3.700   3.674   1.635  0.3744  0.4677 -0.2659
 4195TIP3   OH234219   3.720   6.649   7.390  0.0285 -0.6663 -0.0342
 4195TIP3    H134220   3.700   6.556   7.379  0.1585 -0.7236  0.2083
 4195TIP3    H234221   3.737   6.680   7.301  1.1549 -1.1431  0.0058
 4196TIP3   OH234222   5.587   4.453   7.903  1.1858  0.2034 -0.5633
 4196TIP3    H134223   5.571   4.531   7.851  0.1630  1.0749  0.9891
 4196TIP3    H234224   5.642   4.483   7.975 -2.2417  0.4999  2.2100
 4197TIP3   OH234225   1.183   3.483   2.534 -0.0243 -0.8230 -0.7387
 4197TIP3    H134226   1.265   3.533   2.539  0.7292 -2.1228  3.4151
 4197TIP3    H234227   1.211   3.393   2.520 -0.9517 -1.0137 -1.4575
 4198TIP3   OH234228   0.475   2.085   7.821 -0.1117 -0.0783  0.1707
 4198TIP3    H134229   0.442   2.010   7.869 -0.5676  0.4878  0.7645
 4198TIP3    H234230   0.553   2.053   7.776 -1.0433 -1.2520 -0.6649
 4199TIP3   OH234231   6.740   3.328   6.940 -0.2250 -0.0540  0.9802
 4199TIP3    H134232   6.727   3.234   6.928 -1.4156  0.3673 -1.9287
 4199TIP3    H234233   6.656   3.359   6.973  0.3127 -0.0207  2.3822
 4200TIP3   OH234234   1.278   1.833   2.050 -0.4779  0.6333 -0.4596
 4200TIP3    H134235   1.267   1.915   2.003  0.1229 -0.0726 -1.8640
 4200TIP3    H234236   1.188   1.800   2.062 -0.6275  0.7402 -1.2565
 4201TIP3   OH234237   3.231   0.692   7.534  0.4317  0.5727 -0.4121
 4201TIP3    H134238   3.157   0.697   7.593 -0.0553  1.7222 -1.0814
 4201TIP3    H234239   3.211   0.620   7.475  0.6618 -0.2159  0.4600
 4202TIP3   OH234240   5.469   4.900   0.139  0.4394 -0.2185 -0.0684
 4202TIP3    H134241   5.495   4.926   0.050  0.3106 -0.9910 -0.3415
 4202TIP3    H234242   5.405   4.829   0.125  1.0461 -0.9227  0.6490
 4203TIP3   OH234243   2.185   2.389   1.307 -0.4927  0.1255  0.2838
 4203TIP3    H134244   2.227   2.444   1.374 -0.3089 -0.3564  0.5703
 4203TIP3    H234245   2.166   2.449   1.235  0.4741  0.3998  0.2475
 4204TIP3   OH234246   1.026   6.146   6.958  0.4147  0.2138  0.2370
 4204TIP3    H134247   0.966   6.073   6.944 -1.9514  1.7320  1.8562
 4204TIP3    H234248   1.042   6.181   6.870 -0.0487 -0.9808 -0.3419
 4205TIP3   OH234249   3.456   2.035   7.806  0.3798 -0.5369 -0.2129
 4205TIP3    H134250   3.392   2.074   7.746  0.6255  0.0871 -0.0683
 4205TIP3    H234251   3.403   1.980   7.864 -0.1503  0.6329  0.4441
 4206TIP3   OH234252   1.998   0.618   1.901 -0.0161 -0.7362 -0.3999
 4206TIP3    H134253   1.919   0.608   1.848 -1.2507  0.2794  1.1536
 4206TIP3    H234254   2.044   0.693   1.862 -1.2835  0.4711  0.3501
 4207TIP3   OH234255   2.655   5.568   7.121 -0.4000  0.1213  0.1917
 4207TIP3    H134256   2.718   5.622   7.167  1.5116 -0.3616 -1.6938
 4207TIP3    H234257   2.679   5.478   7.143 -2.5594 -0.1080  2.0366
 4208TIP3   OH234258   5.156   6.691   1.075 -0.3442 -0.2523 -0.0955
 4208TIP3    H134259   5.110   6.617   1.114 -0.8605  1.0146  1.8291
 4208TIP3    H234260   5.106   6.710   0.995 -1.1733 -0.9619  0.2336
 4209TIP3   OH234261   0.614   4.156   0.411 -0.1494 -0.7234  0.1352
 4209TIP3    H134262   0.603   4.077   0.358  0.0110 -0.0690 -0.9226
 4209TIP3    H234263   0.525   4.188   0.425 -0.1266  0.0590 -1.2969
 4210TIP3   OH234264   3.631   2.567   7.096  0.0114  0.3265  0.0073
 4210TIP3    H134265   3.713   2.526   7.122 -0.9082 -0.7888  1.2404
 4210TIP3    H234266   3.588   2.591   7.178 -1.9534 -1.2233 -0.4951
 4211TIP3   OH234267   4.439   6.144   8.509  0.2156 -0.2775 -0.3781
 4211TIP3    H134268   4.427   6.238   8.495  1.2664  0.6277  3.5141
 4211TIP3    H234269   4.526   6.125   8.473  0.9448  0.8312  0.6895
 4212TIP3   OH234270   5.096   3.119   0.517 -0.4953 -0.0441  0.1961
 4212TIP3    H134271   5.170   3.112   0.457  0.1529 -2.5770  1.1452
 4212TIP3    H234272   5.116   3.194   0.572  1.4232 -0.6830  0.4411
 4213TIP3   OH234273   2.996   5.150   0.488  0.5917 -0.0513 -0.1158
 4213TIP3    H134274   3.062   5.084   0.469  0.5525 -0.0908 -0.1137
 4213TIP3    H234275   2.952   5.119   0.567 -0.9804 -1.2049 -1.3798
 4214TIP3   OH234276   6.716   4.393   8.499 -0.0450 -0.2273 -0.0670
 4214TIP3    H134277   6.713   4.313   8.551 -0.8081 -0.3102 -0.2303
 4214TIP3    H234278   6.743   4.364   8.412  0.5291 -0.1823  0.0886
 4215TIP3   OH234279   6.764   5.154   7.571 -0.0989 -0.2845  0.9827
 4215TIP3    H134280   6.718   5.227   7.613  0.5734  0.3912  0.5702
 4215TIP3    H234281   6.846   5.192   7.541 -0.4142 -0.8141 -0.6441
 4216TIP3   OH234282   1.608   5.515   1.413  0.6361 -0.1320 -0.0220
 4216TIP3    H134283   1.610   5.443   1.349 -2.1193 -1.0265  0.7659
 4216TIP3    H234284   1.690   5.505   1.462  1.3918 -1.2892 -1.4361
 4217TIP3   OH234285   3.872   5.649   8.133  0.1660 -0.4857  0.2875
 4217TIP3    H134286   3.812   5.710   8.177 -0.3081 -0.6257 -0.1591
 4217TIP3    H234287   3.955   5.696   8.127  0.4483 -0.7072  1.9476
 4218TIP3   OH234288   6.749   4.874   7.325  0.4782 -0.1993  0.1256
 4218TIP3    H134289   6.766   4.918   7.241 -1.5084 -0.3877 -0.4347
 4218TIP3    H234290   6.822   4.900   7.381  1.7094  0.1570 -1.5765
 4219TIP3   OH234291   2.992   6.487   2.211 -0.4600 -0.4653  0.5082
 4219TIP3    H134292   3.004   6.547   2.284  0.8399 -0.7455  0.5514
 4219TIP3    H234293   2.993   6.400   2.251 -0.3985 -0.5928  0.2317
 4220TIP3   OH234294   3.047   6.948   1.661 -0.6522 -0.4186  0.4482
 4220TIP3    H134295   3.097   6.900   1.727 -0.2536  1.0061  1.2319
 4220TIP3    H234296   3.069   6.905   1.578  1.0012 -0.5430  0.9071
 4221TIP3   OH234297   3.049   2.647   7.020 -0.0451 -0.3170 -0.3947
 4221TIP3    H134298   3.025   2.738   7.002 -0.0177 -0.3495 -0.5937
 4221TIP3    H234299   3.123   2.654   7.080 -0.6420 -0.2153  0.3564
 4222TIP3   OH234300   3.205   3.422   2.453 -0.2090 -1.0688  0.4926
 4222TIP3    H134301   3.290   3.467   2.454 -0.7771  0.0344  0.5250
 4222TIP3    H234302   3.153   3.468   2.519 -1.0484 -1.2812 -0.0073
 4223TIP3   OH234303   2.281   0.536   1.883 -0.0344 -0.4580  0.5512
 4223TIP3    H134304   2.327   0.535   1.967  0.6485 -0.4883  0.1835
 4223TIP3    H234305   2.326   0.603   1.831 -0.0271 -0.8870 -0.0156
 4224TIP3   OH234306   6.069   1.041   7.208  0.2058  0.1976 -0.1910
 4224TIP3    H134307   6.006   1.096   7.160  0.2500  0.3187 -0.1097
 4224TIP3    H234308   6.123   1.103   7.256  0.6634  0.1172 -0.5895
 4225TIP3   OH234309   3.121   0.774   1.401  0.1168 -0.4029 -0.1373
 4225TIP3    H134310   3.061   0.840   1.366  0.5471  0.2904  0.3997
 4225TIP3    H234311   3.144   0.720   1.326  0.1726  0.3871 -0.7032
 4226TIP3   OH234312   5.275   4.928   6.630 -0.4991 -0.3773 -0.6865
 4226TIP3    H134313   5.342   4.875   6.587 -1.4689 -1.8917 -0.4215
 4226TIP3    H234314   5.248   4.875   6.705 -1.6113  0.4357 -0.4912
 4227TIP3   OH234315   5.557   0.750   0.582 -0.2138 -0.0274 -0.0622
 4227TIP3    H134316   5.540   0.792   0.667  0.5121 -0.4470  0.3030
 4227TIP3    H234317   5.476   0.761   0.534 -1.8442 -2.5681  1.8571
 4228TIP3   OH234318   4.607   5.523   2.277 -0.1607  0.8254  0.0891
 4228TIP3    H134319   4.551   5.600   2.288 -2.0809 -0.7365  2.3367
 4228TIP3    H234320   4.672   5.530   2.347 -0.7476  0.1178  0.7187
 4229TIP3   OH234321   5.890   0.039   8.443 -0.4006 -0.5018  0.1514
 4229TIP3    H134322   5.798   0.035   8.415 -0.6111 -0.7994  0.8416
 4229TIP3    H234323   5.909   0.132   8.451 -0.8433 -0.4432  0.6083
 4230TIP3   OH234324   4.063   1.541   8.204 -0.3707  0.4410 -0.0791
 4230TIP3    H134325   4.133   1.477   8.212 -0.2840  0.4234 -0.8710
 4230TIP3    H234326   3.982   1.490   8.215 -0.3202  0.0906 -1.2055
 4231TIP3   OH234327   6.709   3.145   6.162 -0.4937  0.2131  0.5201
 4231TIP3    H134328   6.646   3.091   6.209 -0.8382 -0.5384 -0.7547
 4231TIP3    H234329   6.657   3.193   6.098 -0.2078  2.2083  1.7179
 4232TIP3   OH234330   6.363   2.729   7.403 -0.2800 -0.2534 -0.1495
 4232TIP3    H134331   6.329   2.688   7.483  0.2938 -0.8755 -0.2214
 4232TIP3    H234332   6.446   2.685   7.387 -1.3917 -1.7135 -2.3215
 4233TIP3   OH234333   0.050   4.357   7.230  0.3161 -0.5900  0.0177
 4233TIP3    H134334  -0.002   4.382   7.306 -0.3089 -0.2775 -0.4921
 4233TIP3    H234335  -0.007   4.378   7.155  1.5733  0.7787 -0.6107
 4234TIP3   OH234336   2.910   2.873   7.695  0.1392 -0.0575 -0.0920
 4234TIP3    H134337   2.933   2.908   7.780  1.9777  3.8681 -1.9593
 4234TIP3    H234338   2.814   2.866   7.697  0.0988  0.4101  2.0821
 4235TIP3   OH234339   0.116   3.042   0.104 -0.4908  0.4882 -0.1775
 4235TIP3    H134340   0.169   3.018   0.027  1.3295  0.9860  0.8604
 4235TIP3    H234341   0.102   2.959   0.150  0.0240  0.4474 -0.0875
 4236TIP3   OH234342   4.234   0.094   8.227  0.1972  0.6262  0.0168
 4236TIP3    H134343   4.324   0.114   8.202 -0.4507  0.7935 -2.3809
 4236TIP3    H234344   4.198   0.177   8.259  0.3748  0.9826 -0.7092
 4237TIP3   OH234345   0.973   0.102   7.965 -0.6848  0.0311  0.1711
 4237TIP3    H134346   0.891   0.056   7.984 -0.9659  0.1601 -0.6650
 4237TIP3    H234347   1.035   0.033   7.946 -0.2345 -0.1347  2.0385
 4238TIP3   OH234348   1.397   5.121   8.374  0.0420 -0.0754  0.0450
 4238TIP3    H134349   1.363   5.141   8.287 -2.3859 -1.9700  0.4695
 4238TIP3    H234350   1.456   5.047   8.360 -0.6345 -0.6209  0.0312
 4239TIP3   OH234351   1.095   0.005   0.685  0.3079  0.3691  0.2962
 4239TIP3    H134352   1.097   0.100   0.690 -3.1122  0.5444  0.6076
 4239TIP3    H234353   1.092  -0.014   0.591 -0.9737  0.7170  0.2510
 4240TIP3   OH234354   0.222   3.329   1.569  0.1346 -0.2303  0.4438
 4240TIP3    H134355   0.221   3.404   1.510  2.4231 -0.7262 -0.3398
 4240TIP3    H234356   0.229   3.368   1.657 -2.1682  0.4817  0.3557
 4241TIP3   OH234357   0.078   3.128   1.448 -0.6589  0.2512  0.0386
 4241TIP3    H134358   0.148   3.185   1.477 -0.2693 -0.0582 -0.2765
 4241TIP3    H234359   0.067   3.149   1.355 -0.7310  0.0381 -0.0015
 4242TIP3   OH234360   4.324   2.313   8.319  0.2505  0.1245  0.3970
 4242TIP3    H134361   4.253   2.377   8.306  1.4701  2.0905  2.5074
 4242TIP3    H234362   4.284   2.244   8.372 -0.7516 -0.1803 -0.7299
 4243TIP3   OH234363   6.359   6.082   1.364  0.0291  0.3113 -0.0984
 4243TIP3    H134364   6.301   6.133   1.307 -0.4694 -0.6634 -0.4769
 4243TIP3    H234365   6.424   6.044   1.305 -0.1774 -0.2774  0.0460
 4244TIP3   OH234366   0.927   4.203   1.661 -0.0556 -0.4424 -0.4010
 4244TIP3    H134367   0.860   4.174   1.722  0.3424 -1.1993 -0.3187
 4244TIP3    H234368   1.010   4.181   1.704  0.2390 -0.0992 -0.7860
 4245TIP3   OH234369   4.834   5.707   6.430 -0.1506  0.1262  0.1383
 4245TIP3    H134370   4.859   5.750   6.349 -0.2914  0.4667  0.2715
 4245TIP3    H234371   4.800   5.778   6.485  0.7200  0.0437  0.8091
 4246TIP3   OH234372   3.514   3.352   7.806  0.1862 -0.7071  0.1567
 4246TIP3    H134373   3.449   3.348   7.736  0.8415 -1.6038 -0.4125
 4246TIP3    H234374   3.551   3.264   7.810  1.3401 -0.2219  0.4982
 4247TIP3   OH234375   5.096   4.669   6.771  0.1378  0.5960  0.2758
 4247TIP3    H134376   5.080   4.693   6.863 -1.4533  2.7791 -0.4934
 4247TIP3    H234377   5.027   4.713   6.722 -0.2693 -2.1148 -1.8370
 4248TIP3   OH234378   3.836   6.280   1.434  0.0376 -0.1362 -0.4887
 4248TIP3    H134379   3.841   6.237   1.349 -1.8954 -1.7170  0.1211
 4248TIP3    H234380   3.742   6.286   1.453  0.4058  0.5359  1.3476
 4249TIP3   OH234381   2.675   2.399   7.427 -0.0687  0.0463  0.3350
 4249TIP3    H134382   2.678   2.332   7.495 -0.0608  0.5634  0.8495
 4249TIP3    H234383   2.759   2.391   7.382 -0.5029 -1.0100 -0.3166
 4250TIP3   OH234384   4.311   5.594   2.403 -0.3436  0.2389  0.5574
 4250TIP3    H134385   4.238   5.627   2.454  0.8742  1.3259  1.6681
 4250TIP3    H234386   4.347   5.523   2.455  0.3435  0.7524  0.8050
 4251TIP3   OH234387   6.242   2.547   7.091 -0.0863 -0.7948  0.5235
 4251TIP3    H134388   6.197   2.527   7.173 -0.9961 -1.0214 -0.0223
 4251TIP3    H234389   6.209   2.633   7.065  0.0667 -0.8018  0.3021
 4252TIP3   OH234390   0.842   5.096   7.299  0.4187  0.3878  0.7920
 4252TIP3    H134391   0.912   5.033   7.321  0.9220  0.6233 -0.0837
 4252TIP3    H234392   0.798   5.057   7.224  0.1018  0.6284  0.8519
 4253TIP3   OH234393   6.698   0.995   6.933  0.0068  0.2444  0.1617
 4253TIP3    H134394   6.649   1.069   6.969  0.2307  1.2376 -1.4918
 4253TIP3    H234395   6.638   0.952   6.873  0.5797  0.4137 -0.5471
 4254TIP3   OH234396   4.627   6.238   0.786  0.4020  0.1433  0.2008
 4254TIP3    H134397   4.642   6.213   0.878 -1.6838 -2.0818  0.0706
 4254TIP3    H234398   4.695   6.192   0.737 -0.1048 -0.9237  0.4572
 4255TIP3   OH234399   5.697   4.039   0.852  0.1160  0.1768 -0.0452
 4255TIP3    H134400   5.775   4.081   0.889 -0.2322 -0.4824  1.5452
 4255TIP3    H234401   5.723   3.949   0.835 -0.2434 -0.0117  0.3655
 4256TIP3   OH234402   2.578   6.905   1.783 -0.1310 -0.0600 -0.3435
 4256TIP3    H134403   2.550   6.989   1.817  1.2634  0.3396 -0.0941
 4256TIP3    H234404   2.614   6.925   1.696 -0.9915 -0.6155 -0.8438
 4257TIP3   OH234405   4.653   2.189   1.607  0.3115 -0.1309  0.3826
 4257TIP3    H134406   4.690   2.152   1.526  1.5666  0.0657  0.8382
 4257TIP3    H234407   4.699   2.273   1.618  0.1006 -0.1179  1.2530
 4258TIP3   OH234408   3.873   0.014   7.397  0.4590 -0.1131  0.1902
 4258TIP3    H134409   3.784   0.031   7.426  0.3029 -0.1525 -0.2650
 4258TIP3    H234410   3.865  -0.006   7.304  0.8967 -0.4844  0.2270
 4259TIP3   OH234411   6.013   3.098   6.988  0.0139  0.8323 -0.0857
 4259TIP3    H134412   6.015   3.115   6.894  0.8683  1.8861  0.1104
 4259TIP3    H234413   5.983   3.180   7.027 -0.2662  0.4249  0.5823
 4260TIP3   OH234414   3.937   0.584   7.871 -0.4568 -0.3572  0.0328
 4260TIP3    H134415   3.879   0.551   7.803 -0.9692  0.7542 -0.0962
 4260TIP3    H234416   3.991   0.509   7.896  0.9731 -0.4160 -2.8382
 4261TIP3   OH234417   5.535   3.438   0.414 -0.2945 -0.2016  0.1485
 4261TIP3    H134418   5.445   3.419   0.386 -0.1278  0.7181 -1.0600
 4261TIP3    H234419   5.589   3.381   0.360  0.0189  1.4700 -1.3967
 4262TIP3   OH234420   6.259   6.084   7.953 -0.3839  0.3026  0.6320
 4262TIP3    H134421   6.228   5.999   7.983 -1.8151 -0.1126 -1.8069
 4262TIP3    H234422   6.347   6.067   7.919 -0.5163 -0.1392  0.5112
 4263TIP3   OH234423   2.659   2.867   2.094 -0.3522  0.1578 -0.8506
 4263TIP3    H134424   2.682   2.872   2.186  0.9505 -0.8524 -1.0885
 4263TIP3    H234425   2.692   2.948   2.056  1.0725 -0.3592 -0.7938
 4264TIP3   OH234426   4.296   5.113   1.527  0.4597 -0.1366  1.2628
 4264TIP3    H134427   4.291   5.029   1.573  1.5505 -0.7626  0.3086
 4264TIP3    H234428   4.377   5.153   1.558  0.1140  0.4147  1.4624
 4265TIP3   OH234429   5.661   3.486   0.016  0.3947 -0.3471 -0.0409
 4265TIP3    H134430   5.608   3.566   0.019  2.5956  1.1805  0.4358
 4265TIP3    H234431   5.655   3.457  -0.076  1.6550  1.9136 -0.9176
 4266TIP3   OH234432   0.002   6.307   0.268 -0.0216  0.3308 -0.0881
 4266TIP3    H134433  -0.066   6.356   0.221 -0.3862  0.2942  0.3862
 4266TIP3    H234434   0.050   6.373   0.318  1.3140  0.5681 -1.6192
 4267TIP3   OH234435   6.311   3.263   1.566  0.3503 -0.1382  0.3987
 4267TIP3    H134436   6.340   3.263   1.475 -0.5043  1.5313  0.0988
 4267TIP3    H234437   6.312   3.170   1.591 -0.3853 -0.7423 -1.6247
 4268TIP3   OH234438   5.505   3.441   7.642 -0.3027  0.2828  0.7993
 4268TIP3    H134439   5.594   3.470   7.660 -0.6467  0.5866  2.1236
 4268TIP3    H234440   5.469   3.508   7.584 -0.1663  0.9986  1.5286
 4269TIP3   OH234441   4.505   6.429   8.179  0.3333 -0.1383 -0.3757
 4269TIP3    H134442   4.415   6.449   8.205  0.2672 -0.7714 -0.0889
 4269TIP3    H234443   4.515   6.336   8.198  1.5767  0.2656  1.1410
 4270TIP3   OH234444   4.853   6.170   0.638 -0.0935 -0.1265 -0.3034
 4270TIP3    H134445   4.816   6.128   0.560  1.7387 -0.4353 -1.0624
 4270TIP3    H234446   4.908   6.103   0.678  1.1624  0.8355 -0.3187
 4271TIP3   OH234447   4.226   1.974   7.760 -0.6729  0.0195 -0.1561
 4271TIP3    H134448   4.251   1.903   7.819 -0.5439  0.6152  0.5177
 4271TIP3    H234449   4.133   1.961   7.744 -0.3241 -1.2877 -1.4172
 4272TIP3   OH234450   1.112   6.063   0.572  0.1500  0.3808  0.2360
 4272TIP3    H134451   1.058   6.052   0.494 -1.2149 -0.0291  1.2037
 4272TIP3    H234452   1.188   6.007   0.557 -1.2267 -1.6013  0.1761
 4273TIP3   OH234453   2.254   5.593   2.214  0.2345 -0.1844  0.1169
 4273TIP3    H134454   2.268   5.504   2.246  1.8262  0.1460  0.4312
 4273TIP3    H234455   2.169   5.619   2.251 -0.7497 -1.9087 -0.8293
 4274TIP3   OH234456   1.530   4.196   7.779  0.1196 -0.5823  0.5387
 4274TIP3    H134457   1.573   4.228   7.859 -1.0624 -1.4037  1.5534
 4274TIP3    H234458   1.583   4.230   7.707  0.5630  1.1745  1.6394
 4275TIP3   OH234459   6.748   0.915   1.910 -0.5177 -0.2998  0.2461
 4275TIP3    H134460   6.711   0.905   1.998 -1.3249 -0.7244 -0.1339
 4275TIP3    H234461   6.694   0.982   1.868 -0.2055 -0.1793  0.0298
 4276TIP3   OH234462   4.386   3.486   0.906  0.4384  0.1628  0.1659
 4276TIP3    H134463   4.471   3.516   0.874  0.0560  1.1211  0.0130
 4276TIP3    H234464   4.326   3.503   0.833  0.1179 -0.5478  0.2530
 4277TIP3   OH234465   2.854   1.938   7.233  0.0385 -0.3374 -0.7041
 4277TIP3    H134466   2.891   1.975   7.153 -0.4711  2.0605  0.0813
 4277TIP3    H234467   2.923   1.948   7.299  0.2601 -1.7957 -0.6866
 4278TIP3   OH234468   5.797   5.739   1.032 -0.0685 -0.0475  0.3378
 4278TIP3    H134469   5.868   5.799   1.009  2.2423 -1.6378  2.8141
 4278TIP3    H234470   5.810   5.664   0.974 -2.0637  1.0547 -1.7166
 4279TIP3   OH234471   1.975   5.230   1.152 -0.4819  0.0597  0.2316
 4279TIP3    H134472   1.912   5.186   1.208 -1.5727  0.5550 -0.5712
 4279TIP3    H234473   1.922   5.271   1.083  0.8363 -1.0612 -1.5436
 4280TIP3   OH234474   0.526   5.034   1.507 -0.2851 -0.6371  0.3271
 4280TIP3    H134475   0.565   5.099   1.449  0.1544  0.8115  2.1358
 4280TIP3    H234476   0.522   4.954   1.455  0.5559  0.4424 -1.4884
 4281TIP3   OH234477   6.754   6.047   1.517 -1.4138  0.0255 -0.2364
 4281TIP3    H134478   6.751   5.997   1.435 -0.6008 -1.6860  0.7236
 4281TIP3    H234479   6.816   6.117   1.500  0.1409 -1.3630 -0.5756
 4282TIP3   OH234480   1.834   3.121   6.737 -1.0568  0.4874  0.0159
 4282TIP3    H134481   1.767   3.174   6.695 -0.6778  0.5448 -0.5353
 4282TIP3    H234482   1.890   3.184   6.783  0.1377  0.7411 -1.6787
 4283TIP3   OH234483   4.239   6.631   1.155 -0.5366  0.5102 -0.0561
 4283TIP3    H134484   4.244   6.723   1.179 -2.2180  0.2332  1.5694
 4283TIP3    H234485   4.239   6.584   1.239  0.6696 -1.0308 -0.8470
 4284TIP3   OH234486   2.517   4.298   1.772  0.4438 -0.2836  0.5789
 4284TIP3    H134487   2.547   4.344   1.850 -0.2895 -2.0833  2.0014
 4284TIP3    H234488   2.597   4.264   1.732  0.7108 -0.8670  1.5800
 4285TIP3   OH234489   5.402   2.950   1.019 -0.7232 -0.2712  0.3831
 4285TIP3    H134490   5.317   2.978   0.985 -0.7167  1.2980  1.5599
 4285TIP3    H234491   5.465   2.978   0.952 -0.9913 -0.1461  0.1799
 4286TIP3   OH234492   6.264   3.305   6.968  0.0251  0.1197 -0.0264
 4286TIP3    H134493   6.288   3.344   6.884 -1.2719  0.5225 -0.2347
 4286TIP3    H234494   6.170   3.323   6.977 -0.3813 -1.9160  0.4214
 4287TIP3   OH234495   3.509   4.174   1.331  0.0559  0.0657 -0.7352
 4287TIP3    H134496   3.506   4.130   1.416 -0.1808  1.0724 -0.2041
 4287TIP3    H234497   3.599   4.162   1.301  0.0783 -0.5043 -0.4628
 4288TIP3   OH234498   5.714   2.247   7.516  0.6065  0.1196  0.1748
 4288TIP3    H134499   5.655   2.240   7.591  1.8776 -2.1861  1.0867
 4288TIP3    H234500   5.778   2.313   7.542 -0.2875  1.0243  0.1123
 4289TIP3   OH234501   4.019   3.802   0.811 -0.0854  0.0707  0.0711
 4289TIP3    H134502   4.029   3.735   0.744  1.7233  0.8135 -0.4372
 4289TIP3    H234503   3.929   3.834   0.799 -0.5742 -1.3987 -0.4443
 4290TIP3   OH234504   3.381   2.285   0.809  0.2701 -0.2266 -0.1467
 4290TIP3    H134505   3.296   2.303   0.770  0.0970 -0.1537  0.2571
 4290TIP3    H234506   3.362   2.264   0.901  0.5101 -2.1007 -0.5029
 4291TIP3   OH234507   0.818   0.677   0.361 -0.1589 -0.5011  0.4959
 4291TIP3    H134508   0.808   0.760   0.316  0.3943  0.5464  2.2274
 4291TIP3    H234509   0.738   0.628   0.341 -0.1644  0.1414 -1.1142
 4292TIP3   OH234510   1.211   6.850   1.570 -0.6521  0.0637  0.6891
 4292TIP3    H134511   1.118   6.834   1.554 -0.3874 -1.0424  0.1529
 4292TIP3    H234512   1.238   6.780   1.629 -0.2803  0.7260  1.3215
 4293TIP3   OH234513   0.105   6.485   7.234  0.5038 -0.4291  0.3501
 4293TIP3    H134514   0.146   6.497   7.319  1.6177 -0.8040 -0.1230
 4293TIP3    H234515   0.063   6.399   7.239 -0.9774  0.3038  1.1195
 4294TIP3   OH234516   2.798   1.422   7.452  0.4107  0.5385 -0.4049
 4294TIP3    H134517   2.810   1.474   7.372 -2.5319 -0.1223 -1.4237
 4294TIP3    H234518   2.732   1.471   7.502  2.1082  0.8835  1.6722
 4295TIP3   OH234519   1.377   6.904   1.334  0.2184  0.3180 -0.0697
 4295TIP3    H134520   1.338   6.883   1.419  0.9455 -2.7301 -0.3891
 4295TIP3    H234521   1.307   6.950   1.287 -0.9356  0.1606  1.3979
 4296TIP3   OH234522   5.659   1.347   0.079  0.2811  0.3706 -0.4452
 4296TIP3    H134523   5.586   1.374   0.024 -0.3526  2.4568  1.2389
 4296TIP3    H234524   5.617   1.318   0.160  1.1509  4.0230  1.5729
 4297TIP3   OH234525   0.715   6.626   8.396  0.6133  0.7349 -0.8308
 4297TIP3    H134526   0.693   6.573   8.319  0.0701  0.5828 -0.5713
 4297TIP3    H234527   0.638   6.681   8.410  0.4590  0.3166 -0.0143
 4298TIP3   OH234528   6.178   0.770   7.215  0.3406 -0.1752  0.3628
 4298TIP3    H134529   6.122   0.765   7.292 -1.4340 -0.8420 -0.9166
 4298TIP3    H234530   6.168   0.859   7.183  0.9800  0.0631  0.7862
 4299TIP3   OH234531   0.077   5.468   2.417 -0.1422  0.2021 -0.2856
 4299TIP3    H134532   0.132   5.434   2.347 -1.8648  0.3191 -1.7828
 4299TIP3    H234533   0.074   5.563   2.401 -0.0211  0.3147  0.3483
 4300TIP3   OH234534   3.859   5.679   1.175 -0.0046  0.0891 -0.1213
 4300TIP3    H134535   3.858   5.589   1.209 -0.3948  0.1215 -0.0337
 4300TIP3    H234536   3.926   5.723   1.226  0.9473 -0.4279 -0.8979
 4301TIP3   OH234537   5.504   0.506   7.101 -0.6137 -0.3232 -0.5623
 4301TIP3    H134538   5.496   0.411   7.114  0.3952 -0.0953  2.9471
 4301TIP3    H234539   5.598   0.522   7.106 -0.8621  0.9565  0.5490
 4302TIP3   OH234540   5.700   5.987   6.520  0.1458  0.1667 -0.5786
 4302TIP3    H134541   5.646   5.914   6.490  1.0920 -0.3572 -1.0661
 4302TIP3    H234542   5.655   6.065   6.487 -0.2024 -0.2675 -1.1534
 4303TIP3   OH234543   2.006   3.716   7.225 -0.0668  0.3775  0.0170
 4303TIP3    H134544   2.035   3.699   7.315 -2.4072 -1.7090  0.5112
 4303TIP3    H234545   2.023   3.809   7.211  1.6322  0.4490  2.1095
 4304TIP3   OH234546   6.548   5.982   6.543 -0.0961  0.3749 -0.4645
 4304TIP3    H134547   6.497   5.902   6.533 -0.1416  0.5739 -2.1181
 4304TIP3    H234548   6.540   6.026   6.458  0.6277  1.7132  0.1336
 4305TIP3   OH234549   6.416   5.732   2.008 -0.0873 -0.2616  0.3414
 4305TIP3    H134550   6.440   5.654   2.058  0.5208  0.7802  1.7532
 4305TIP3    H234551   6.468   5.802   2.047  0.7586  0.5539 -2.0786
 4306TIP3   OH234552   4.603   1.708   7.906  0.2664 -0.0917  0.1622
 4306TIP3    H134553   4.606   1.614   7.921 -0.1036  0.0384  1.0977
 4306TIP3    H234554   4.656   1.746   7.976 -0.5742  0.4618  0.5179
 4307TIP3   OH234555   3.186   4.482   1.972  1.0807  0.0063 -0.3566
 4307TIP3    H134556   3.226   4.427   1.905 -1.9125 -1.0190 -1.5114
 4307TIP3    H234557   3.121   4.534   1.924  0.0968  0.5588  1.4801
 4308TIP3   OH234558   3.449   5.230   6.827  0.3068 -0.7822  0.1167
 4308TIP3    H134559   3.454   5.160   6.893 -0.9787 -0.5262  0.5128
 4308TIP3    H234560   3.375   5.204   6.771 -0.4670  0.4691  0.5279
 4309TIP3   OH234561   0.343   2.758   7.833  0.1367  0.2938 -0.3154
 4309TIP3    H134562   0.413   2.745   7.897 -2.4578 -2.3576  2.3618
 4309TIP3    H234563   0.362   2.694   7.764  1.9203  1.8153 -1.3227
 4310TIP3   OH234564   4.210   3.690   1.017  0.5192 -0.4351 -0.5162
 4310TIP3    H134565   4.259   3.723   1.092  2.1758  0.7606 -2.0519
 4310TIP3    H234566   4.181   3.768   0.971  0.0181 -1.1439 -1.4360
 4311TIP3   OH234567   2.313   3.035   7.902 -0.5797 -0.4375 -0.5730
 4311TIP3    H134568   2.218   3.031   7.904 -0.6212  0.4660  0.3657
 4311TIP3    H234569   2.334   3.068   7.815 -1.2337  1.1785 -0.1477
 4312TIP3   OH234570   3.560   4.150   1.024 -0.2646  0.7650  0.1423
 4312TIP3    H134571   3.505   4.182   1.096  0.5758 -1.5208  1.9452
 4312TIP3    H234572   3.641   4.200   1.032 -0.7151  1.5607 -0.1826
 4313TIP3   OH234573   5.745   3.181   6.029  0.5531  0.3952  0.2322
 4313TIP3    H134574   5.658   3.219   6.017  1.0886  1.7457  0.3891
 4313TIP3    H234575   5.752   3.114   5.962 -1.4608 -1.3815  1.6491
 4314TIP3   OH234576   4.442   4.905   0.681 -0.5226 -1.1268 -0.0148
 4314TIP3    H134577   4.411   4.987   0.719 -1.3567 -2.0098  1.3102
 4314TIP3    H234578   4.505   4.931   0.615 -0.0878  0.5485  1.0050
 4315TIP3   OH234579   3.418   0.155   7.065  0.4366  0.6142 -0.1972
 4315TIP3    H134580   3.350   0.223   7.069 -0.3346 -0.1033 -0.8260
 4315TIP3    H234581   3.424   0.132   6.972  1.3547  0.4758 -0.1105
 4316TIP3   OH234582   4.377   2.215   2.191 -0.4085 -0.1329 -0.0066
 4316TIP3    H134583   4.417   2.168   2.264 -0.8590  1.0698  1.0614
 4316TIP3    H234584   4.421   2.300   2.191 -1.0679  0.2193 -0.5301
 4317TIP3   OH234585   5.112   6.547   7.836  0.3201  0.2547  0.7992
 4317TIP3    H134586   5.130   6.618   7.774 -0.8768 -1.8889 -2.2218
 4317TIP3    H234587   5.194   6.533   7.882  1.7252  1.0304 -1.3322
 4318TIP3   OH234588   1.892   6.854   8.565 -0.6988 -0.4921  0.4465
 4318TIP3    H134589   1.804   6.816   8.562 -1.2091  0.2801  2.9059
 4318TIP3    H234590   1.885   6.937   8.517 -1.2288 -0.5705  0.3877
 4319TIP3   OH234591   3.114   4.664   7.679  0.1883 -0.2142  0.4632
 4319TIP3    H134592   3.174   4.692   7.748 -0.8854 -0.0119  1.3524
 4319TIP3    H234593   3.072   4.746   7.650 -2.0754 -0.6497  2.2199
 4320TIP3   OH234594   1.228   1.981   7.460 -0.2194 -0.0433 -0.2748
 4320TIP3    H134595   1.180   1.898   7.450 -0.5573  0.3106 -1.7058
 4320TIP3    H234596   1.311   1.966   7.415  0.0563  0.1378  0.1687
 4321TIP3   OH234597   3.860   3.641   6.674  0.2587 -0.3699 -0.2366
 4321TIP3    H134598   3.950   3.644   6.644  0.0997  0.3475 -0.6719
 4321TIP3    H234599   3.807   3.641   6.594 -0.1268 -2.7271 -0.0511
 4322TIP3   OH234600   1.126   1.236   7.342  0.1930  0.1563 -0.5200
 4322TIP3    H134601   1.086   1.295   7.406  3.8014  0.8465  1.3648
 4322TIP3    H234602   1.124   1.284   7.260 -1.7429  0.5758 -0.2752
 4323TIP3   OH234603   3.005   4.110   7.190 -0.1029 -0.2954  0.4648
 4323TIP3    H134604   3.063   4.086   7.118  0.0029  1.4829 -0.0849
 4323TIP3    H234605   3.058   4.167   7.245 -1.3905  1.7597 -0.2938
 4324TIP3   OH234606   1.694   4.562   1.149  0.1527 -0.4480  0.3928
 4324TIP3    H134607   1.697   4.487   1.208 -1.0064 -0.4569  0.4599
 4324TIP3    H234608   1.783   4.569   1.114 -0.1020 -2.9707 -0.9896
 4325TIP3   OH234609   0.947   6.831   1.524 -0.0739 -0.7125  0.0288
 4325TIP3    H134610   0.901   6.829   1.608  1.8121  0.6312  1.1863
 4325TIP3    H234611   0.880   6.855   1.460 -1.3415 -0.6803  1.3269
 4326TIP3   OH234612   3.218   5.548   0.865  0.6069 -0.1995 -0.1871
 4326TIP3    H134613   3.256   5.557   0.778  0.5373 -3.3524 -0.6489
 4326TIP3    H234614   3.293   5.559   0.925  0.4854  3.0296 -0.4616
 4327TIP3   OH234615   6.326   6.515   7.026 -0.1186  0.2425  0.0562
 4327TIP3    H134616   6.406   6.555   7.057  0.3683  0.1620 -1.0378
 4327TIP3    H234617   6.274   6.499   7.105  0.8532  0.4744  0.7537
 4328TIP3   OH234618   3.440   1.047   8.416 -0.0949  0.7353 -0.1187
 4328TIP3    H134619   3.451   1.140   8.397 -1.4097  0.7871 -0.7419
 4328TIP3    H234620   3.414   1.043   8.507 -1.3523  1.1000 -0.4457
 4329TIP3   OH234621   1.310   5.555   0.598 -0.0942  0.4890  0.1789
 4329TIP3    H134622   1.245   5.494   0.564  1.2086 -1.1378  0.4843
 4329TIP3    H234623   1.264   5.603   0.667 -1.1745 -0.0925 -0.1207
 4330TIP3   OH234624   0.018   4.250   1.696  0.0187  0.2388 -0.0650
 4330TIP3    H134625   0.100   4.300   1.699 -0.1615  0.4847  1.1424
 4330TIP3    H234626  -0.015   4.265   1.607  0.5260  1.3833 -0.0870
 4331TIP3   OH234627   3.418   4.208   7.001  1.2282  0.1159  0.1526
 4331TIP3    H134628   3.456   4.292   7.024  0.7774  0.4715 -0.3769
 4331TIP3    H234629   3.487   4.164   6.951  1.0793  0.6241 -0.5195
 4332TIP3   OH234630   2.950   0.535   8.320  0.0419  0.3409  0.0476
 4332TIP3    H134631   2.930   0.588   8.398  2.4502  1.1440  0.2017
 4332TIP3    H234632   3.005   0.592   8.266 -0.5897 -0.6393 -1.7029
 4333TIP3   OH234633   3.069   6.298   8.026  0.7588  0.3769 -0.0926
 4333TIP3    H134634   3.127   6.297   7.950  1.7099  0.0326  0.6240
 4333TIP3    H234635   3.009   6.224   8.010  0.6691  0.5699 -0.7029
 4334TIP3   OH234636   6.067   5.746   0.216 -0.7564 -0.3092  0.1160
 4334TIP3    H134637   6.128   5.729   0.144 -0.5660 -0.6780  0.3578
 4334TIP3    H234638   6.016   5.821   0.188 -1.1738 -0.8870 -0.7158
 4335TIP3   OH234639   6.372   2.298   0.229  0.2549  0.3255 -0.0979
 4335TIP3    H134640   6.365   2.332   0.318 -0.5299 -0.1523  0.0324
 4335TIP3    H234641   6.364   2.375   0.172 -0.7559  0.4511  0.2059
 4336TIP3   OH234642   5.257   0.296   7.038 -0.4841 -0.5135 -0.1508
 4336TIP3    H134643   5.255   0.269   6.946 -1.2501 -1.4612  0.1308
 4336TIP3    H234644   5.331   0.250   7.076 -0.1565 -0.1081 -0.2896
 4337TIP3   OH234645   1.654   1.092   7.915  0.5867  0.0375  0.1657
 4337TIP3    H134646   1.620   1.178   7.891 -1.6136 -0.4102  1.4304
 4337TIP3    H234647   1.667   1.047   7.832  1.4736  1.4317 -0.5005
 4338TIP3   OH234648   4.459   5.536   0.429  0.0487 -0.4247 -0.0150
 4338TIP3    H134649   4.542   5.579   0.450  0.8434 -0.8620 -2.0196
 4338TIP3    H234650   4.422   5.589   0.358 -0.4484 -1.3084 -0.4290
 4339TIP3   OH234651   3.762   3.100   0.003 -0.6305  0.2643 -0.3331
 4339TIP3    H134652   3.754   3.127   0.095 -0.4201 -0.2674 -0.1570
 4339TIP3    H234653   3.852   3.122  -0.020 -0.3647 -0.5620 -0.0972
 4340TIP3   OH234654   0.183   0.833   0.867 -0.1142  0.1129 -0.1332
 4340TIP3    H134655   0.268   0.788   0.871 -0.2277 -0.0868  0.0726
 4340TIP3    H234656   0.198   0.907   0.809  0.7641  1.2849  1.5229
 4341TIP3   OH234657   0.653   2.083   8.310  0.4609  0.4262 -0.4241
 4341TIP3    H134658   0.629   2.117   8.397  0.6940 -1.1389  0.2854
 4341TIP3    H234659   0.572   2.044   8.276  1.0816 -1.9427  0.5766
 4342TIP3   OH234660   4.388   3.345   8.205 -0.5841  0.2294 -0.2697
 4342TIP3    H134661   4.337   3.270   8.176  1.6155 -1.6937  0.5949
 4342TIP3    H234662   4.479   3.316   8.202  0.1584  1.3164  4.2624
 4343TIP3   OH234663   2.385   5.000   6.229 -0.5321  0.4385  0.2178
 4343TIP3    H134664   2.433   4.954   6.298 -1.4068  1.1097  1.3182
 4343TIP3    H234665   2.376   4.935   6.159 -1.0535 -0.8275  1.4104
 4344TIP3   OH234666   4.861   1.374   7.902 -0.0161  0.1734  0.1272
 4344TIP3    H134667   4.779   1.386   7.855  1.3417  1.4194 -2.0851
 4344TIP3    H234668   4.859   1.440   7.972 -0.9272  0.0711  0.2152
 4345TIP3   OH234669   3.540   0.460   8.176  0.1559  0.6226 -0.8980
 4345TIP3    H134670   3.523   0.372   8.142  0.4315  0.6735 -1.1719
 4345TIP3    H234671   3.617   0.449   8.231  0.3106  0.7290 -1.0920
 4346TIP3   OH234672   1.931   4.696   7.166  0.1883 -0.1365  0.3041
 4346TIP3    H134673   1.965   4.786   7.162 -1.0372  0.3629  0.6242
 4346TIP3    H234674   1.838   4.705   7.148 -0.7607 -0.8301  3.9919
 4347TIP3   OH234675   1.253   4.311   7.383  0.4977  0.4565  0.3277
 4347TIP3    H134676   1.255   4.329   7.476 -1.4166 -0.8750  0.6989
 4347TIP3    H234677   1.323   4.248   7.369  1.4316  1.3980  0.6526
 4348TIP3   OH234678   1.223   1.308   0.465 -0.1044 -0.3315 -0.4099
 4348TIP3    H134679   1.301   1.267   0.427 -1.2693 -2.0084 -1.1349
 4348TIP3    H234680   1.171   1.235   0.498 -1.7820  0.6376 -0.7491
 4349TIP3   OH234681   3.962   2.531   0.483 -0.5974  0.3683 -0.1652
 4349TIP3    H134682   4.056   2.517   0.497 -0.9300 -0.2674  1.7916
 4349TIP3    H234683   3.947   2.621   0.511 -0.7685  0.0637  0.7397
 4350TIP3   OH234684   0.473   2.119   7.296  0.0693 -0.2789  0.0579
 4350TIP3    H134685   0.537   2.172   7.343 -1.2957  1.7706 -0.2462
 4350TIP3    H234686   0.524   2.073   7.229  1.3052  0.9008  0.1506
 4351TIP3   OH234687   3.331   2.687   0.702 -0.1376 -0.1908  0.3215
 4351TIP3    H134688   3.255   2.709   0.757 -0.5937  0.1860 -0.4444
 4351TIP3    H234689   3.295   2.631   0.633  0.3453 -0.3031  0.1604
 4352TIP3   OH234690   1.549   0.862   5.927 -0.4893 -0.1299  0.6755
 4352TIP3    H134691   1.469   0.877   5.876 -0.2049 -0.7465  0.0411
 4352TIP3    H234692   1.619   0.901   5.875 -0.3010 -0.0513  0.9830
 4353TIP3   OH234693   6.660   5.203   8.035 -0.6416 -0.3430 -0.1178
 4353TIP3    H134694   6.639   5.251   8.115 -1.7836 -2.0808  0.6696
 4353TIP3    H234695   6.615   5.119   8.044 -0.1137 -0.9169 -2.2164
 4354TIP3   OH234696   0.508   2.748   7.338 -0.3086  0.7116 -0.1346
 4354TIP3    H134697   0.469   2.665   7.311  0.6791  0.4383 -0.7646
 4354TIP3    H234698   0.594   2.725   7.372  0.5230  1.5716 -1.5324
 4355TIP3   OH234699   2.229   4.334   8.507 -0.6168  0.3670 -0.0589
 4355TIP3    H134700   2.203   4.284   8.430 -1.2077  0.9516 -0.2456
 4355TIP3    H234701   2.321   4.355   8.492 -0.3901 -0.5456 -0.0352
 4356TIP3   OH234702   5.683   5.490   7.386  0.3070 -0.6061 -0.6479
 4356TIP3    H134703   5.715   5.501   7.476  0.8153 -1.0233 -0.7703
 4356TIP3    H234704   5.747   5.535   7.332 -0.3527  0.2139 -0.7608
 4357TIP3   OH234705   2.985   3.839   7.519  0.7328  0.3809  0.3156
 4357TIP3    H134706   3.016   3.846   7.429  0.4179  0.0672  0.1790
 4357TIP3    H234707   2.897   3.877   7.517  1.0008  1.0427  0.6474
 4358TIP3   OH234708   5.594   1.498   6.989  0.0785 -0.5582 -1.0700
 4358TIP3    H134709   5.580   1.563   7.059 -0.6888 -1.7872 -0.0252
 4358TIP3    H234710   5.542   1.530   6.916  2.2734  1.6988 -1.7989
 4359TIP3   OH234711   5.008   2.224   8.095 -0.2252  0.0867 -0.4163
 4359TIP3    H134712   5.093   2.216   8.053  0.0073 -2.8925  0.3653
 4359TIP3    H234713   5.021   2.291   8.163  1.3651  0.0054 -0.6003
 4360TIP3   OH234714   6.555   2.959   0.253  0.3115  0.0769 -0.2009
 4360TIP3    H134715   6.642   2.997   0.259  1.6138 -2.5100 -1.2034
 4360TIP3    H234716   6.501   3.014   0.309  2.6411  1.5561  0.7428
 4361TIP3   OH234717   4.398   4.736   8.163  0.7124  0.5122  0.1731
 4361TIP3    H134718   4.469   4.754   8.101 -1.3076  2.5837 -1.7208
 4361TIP3    H234719   4.384   4.820   8.208 -1.0028  0.3984 -0.0822
 4362TIP3   OH234720   6.538   4.744   2.164  0.3937 -0.2062  0.4731
 4362TIP3    H134721   6.520   4.836   2.179  2.0029 -0.1412  2.3745
 4362TIP3    H234722   6.585   4.742   2.080 -1.3187  0.4272 -0.5535
 4363TIP3   OH234723   1.363   6.400   0.178  0.3138 -0.1161  0.3721
 4363TIP3    H134724   1.452   6.431   0.164  0.9108 -2.7527 -3.3665
 4363TIP3    H234725   1.368   6.344   0.255  0.7151  3.1745  2.9237
 4364TIP3   OH234726   4.249   2.118   0.890  0.0524  0.0204 -0.4121
 4364TIP3    H134727   4.250   2.212   0.872 -1.3915  0.2270  0.4674
 4364TIP3    H234728   4.211   2.079   0.812  0.4263  0.1796 -0.6790
 4365TIP3   OH234729   0.139   4.259   0.595  0.2975 -0.4351 -0.3113
 4365TIP3    H134730   0.088   4.274   0.674 -0.9333 -0.7329 -1.0107
 4365TIP3    H234731   0.138   4.343   0.549 -0.7336 -0.7582 -0.9443
 4366TIP3   OH234732   5.863   1.047   1.474 -0.0020 -0.2422  0.2406
 4366TIP3    H134733   5.888   1.135   1.500 -0.5418 -0.1166  0.3578
 4366TIP3    H234734   5.943   0.995   1.480  0.1229  0.0408  1.0325
 4367TIP3   OH234735   4.301   1.089   5.977 -0.4281 -0.5375  0.1814
 4367TIP3    H134736   4.261   1.140   6.049  0.1000 -0.0553  0.1379
 4367TIP3    H234737   4.395   1.099   5.990 -0.2977  0.8181 -1.4396
 4368TIP3   OH234738   5.164   2.206   6.944 -0.7614 -0.2218 -0.0621
 4368TIP3    H134739   5.082   2.229   6.987  0.2942  0.5541  1.6173
 4368TIP3    H234740   5.194   2.288   6.905 -0.3944 -0.3382 -0.0221
 4369TIP3   OH234741   2.666   4.296   1.408 -0.1353 -0.0868 -0.0674
 4369TIP3    H134742   2.729   4.368   1.401 -1.4969  1.3636  1.5191
 4369TIP3    H234743   2.683   4.258   1.495 -0.2549 -0.8768 -0.3834
 4370TIP3   OH234744   4.698   1.874   1.638 -0.4714  0.4505 -0.0263
 4370TIP3    H134745   4.610   1.836   1.642  0.1138 -0.8969  0.6170
 4370TIP3    H234746   4.755   1.806   1.673  0.6380  1.9480  1.2192
 4371TIP3   OH234747   2.021   1.779   2.796 -0.2518 -0.1277  0.3160
 4371TIP3    H134748   2.023   1.798   2.702 -0.2015 -2.5300 -0.2227
 4371TIP3    H234749   1.934   1.805   2.823 -0.9128 -1.0543 -0.8111
 4372TIP3   OH234750   2.589   6.151   8.024 -0.1150 -0.0271  0.3731
 4372TIP3    H134751   2.508   6.099   8.017  0.3664 -0.8001  0.3730
 4372TIP3    H234752   2.632   6.140   7.940 -0.3336  0.9588  0.1191
 4373TIP3   OH234753   0.196   5.972   6.638 -0.0822  0.0483  0.2722
 4373TIP3    H134754   0.273   5.918   6.651  0.7624  1.6940  2.8081
 4373TIP3    H234755   0.209   6.013   6.552 -0.3498 -2.9037 -1.3316
 4374TIP3   OH234756   0.825   3.895   0.139  0.2335  0.0489  0.5229
 4374TIP3    H134757   0.777   3.912   0.220  0.7866 -0.1387  0.9016
 4374TIP3    H234758   0.817   3.800   0.125 -4.1651  0.5399 -2.4231
 4375TIP3   OH234759   3.810   5.231   0.422 -0.8788 -0.1007 -0.3606
 4375TIP3    H134760   3.782   5.190   0.341 -2.9870 -0.7435  0.6213
 4375TIP3    H234761   3.754   5.308   0.431 -1.7408 -0.8700  1.1951
 4376TIP3   OH234762   1.274   5.081   7.252 -0.5804 -0.4817  0.7655
 4376TIP3    H134763   1.220   5.028   7.194  0.9987 -0.3031 -0.9507
 4376TIP3    H234764   1.234   5.168   7.251 -0.3620 -0.3859 -0.3783
 4377TIP3   OH234765   0.494   2.882   8.257 -0.1520  0.3937 -0.2757
 4377TIP3    H134766   0.563   2.947   8.255 -0.4599  0.7198 -0.3749
 4377TIP3    H234767   0.417   2.929   8.289  0.1481 -0.4303  1.8590
 4378TIP3   OH234768   3.768   2.005   0.517  0.1479  0.2455  0.0302
 4378TIP3    H134769   3.861   1.991   0.538  0.1944  0.6792  0.1169
 4378TIP3    H234770   3.721   1.960   0.587  0.2974  0.6334  0.3788
 4379TIP3   OH234771   0.083   3.965   1.716 -0.5084  0.1023  0.6476
 4379TIP3    H134772   0.161   3.994   1.668 -1.9349 -1.1232 -2.6457
 4379TIP3    H234773   0.061   3.881   1.678 -1.8365 -0.9925  3.5600
 4380TIP3   OH234774   5.998   2.145   0.258 -0.2284  0.2825  0.4481
 4380TIP3    H134775   6.010   2.062   0.211  0.8852  0.2838  0.6929
 4380TIP3    H234776   5.967   2.206   0.192 -2.1736 -0.5734  0.4880
 4381TIP3   OH234777   0.335   2.477   7.693  0.3921 -0.0520 -0.5145
 4381TIP3    H134778   0.278   2.447   7.765  0.2768 -0.6215 -0.8336
 4381TIP3    H234779   0.330   2.407   7.629  1.9322 -0.3886 -0.3022
 4382TIP3   OH234780   2.974   1.139   0.207 -0.2805  0.1777 -0.1642
 4382TIP3    H134781   3.021   1.125   0.124  0.8612 -0.7232  0.6063
 4382TIP3    H234782   3.037   1.184   0.263 -0.1827 -1.2935  0.9772
 4383TIP3   OH234783   6.016   5.650   1.574 -0.3824 -0.3587  0.1446
 4383TIP3    H134784   5.995   5.610   1.490 -2.1484  1.6158 -0.4428
 4383TIP3    H234785   6.100   5.694   1.560 -0.1733 -0.8830 -0.2571
 4384TIP3   OH234786   1.243   5.748   1.107  0.3637 -0.2860  0.3622
 4384TIP3    H134787   1.276   5.834   1.135 -2.4584  1.3701 -0.9906
 4384TIP3    H234788   1.269   5.688   1.178  4.3694  1.1126  0.3167
 4385TIP3   OH234789   0.841   1.742   7.030 -0.0876  0.4077  0.7469
 4385TIP3    H134790   0.836   1.699   7.115  2.4706  0.1283  0.8344
 4385TIP3    H234791   0.910   1.808   7.040 -0.1363  0.7615 -0.9364
 4386TIP3   OH234792   2.941   2.591   7.875  0.1127  0.5564  0.5127
 4386TIP3    H134793   2.917   2.608   7.784 -0.7050  2.2529  0.9896
 4386TIP3    H234794   2.858   2.598   7.923  0.3721 -1.2531  1.2961
 4387TIP3   OH234795   2.248   3.900   7.394 -0.2737 -0.3571 -0.0474
 4387TIP3    H134796   2.316   3.843   7.430  0.2146  1.4763  2.0924
 4387TIP3    H234797   2.291   3.984   7.380 -1.7195  0.3922 -0.2168
 4388TIP3   OH234798   1.592   4.883   0.759 -0.1374 -0.1036  0.7433
 4388TIP3    H134799   1.570   4.967   0.718 -0.6773  0.2162  1.6644
 4388TIP3    H234800   1.683   4.893   0.786 -0.7311  0.9328  2.5616
 4389TIP3   OH234801   6.750   5.499   0.448 -0.3453  0.0997 -0.0985
 4389TIP3    H134802   6.758   5.419   0.395 -2.6444 -0.4039  0.2342
 4389TIP3    H234803   6.695   5.557   0.395  0.5276  1.1282  0.0863
 4390TIP3   OH234804   5.346   1.921   0.234  0.5126  0.0739 -0.7064
 4390TIP3    H134805   5.254   1.949   0.243  0.2992 -0.4745 -1.1684
 4390TIP3    H234806   5.358   1.911   0.140  0.3470 -2.1836 -0.5225
 4391TIP3   OH234807   2.726   2.614   6.884 -0.0904 -0.1347 -0.1686
 4391TIP3    H134808   2.765   2.619   6.971  1.0848 -0.6814 -0.6357
 4391TIP3    H234809   2.800   2.594   6.826 -1.1315 -1.6120 -1.0460
 4392TIP3   OH234810   2.681   6.229   1.622  0.1139  0.3762  0.3588
 4392TIP3    H134811   2.682   6.266   1.534 -0.4269 -0.2492  0.0781
 4392TIP3    H234812   2.592   6.194   1.633  1.1709 -2.9225 -0.3318
 4393TIP3   OH234813   0.307   1.055   7.141  0.1010  0.2921  0.9256
 4393TIP3    H134814   0.239   1.110   7.180 -0.9330 -0.9866  1.0009
 4393TIP3    H234815   0.318   0.983   7.203 -0.4744 -0.9666 -0.3749
 4394TIP3   OH234816   0.990   6.736   0.805 -0.1591  0.7494  0.2127
 4394TIP3    H134817   1.054   6.668   0.787 -1.0359  0.4833 -2.3251
 4394TIP3    H234818   1.022   6.813   0.758 -1.0396  0.9583 -0.0849
 4395TIP3   OH234819   4.214   0.062   7.305 -0.2693 -0.2053 -0.1334
 4395TIP3    H134820   4.123   0.065   7.335 -0.0877  1.3949  0.3808
 4395TIP3    H234821   4.216  -0.009   7.241 -1.8012 -0.4849  0.0864
 4396TIP3   OH234822   6.645   1.240   7.088  0.2944  0.1861  0.6272
 4396TIP3    H134823   6.646   1.335   7.077 -0.2735  0.3026  1.4152
 4396TIP3    H234824   6.735   1.217   7.112  0.5178  0.4698  0.0699
 4397TIP3   OH234825   2.383   5.414   7.842  0.5433 -0.3264  0.7910
 4397TIP3    H134826   2.370   5.401   7.748  0.2190  1.1838  0.5903
 4397TIP3    H234827   2.447   5.485   7.847 -0.5496  0.6276  1.6864
 4398TIP3   OH234828   1.432   6.821   0.642  0.1165 -0.1592 -0.3873
 4398TIP3    H134829   1.361   6.866   0.596  0.7250  1.1865 -0.0449
 4398TIP3    H234830   1.506   6.881   0.637  0.6053 -0.5958  1.1266
 4399TIP3   OH234831   5.450   6.727   1.050  0.8170 -0.2448 -0.1410
 4399TIP3    H134832   5.505   6.799   1.081 -0.5691  0.3208  1.1108
 4399TIP3    H234833   5.361   6.756   1.068  0.2218 -2.2583  0.3638
 4400TIP3   OH234834   1.521   2.003   6.667 -0.4971 -0.1625  0.9425
 4400TIP3    H134835   1.551   1.936   6.606  0.9538 -0.3265  1.8082
 4400TIP3    H234836   1.444   1.964   6.710  0.0462 -1.0886  1.0905
 4401TIP3   OH234837   4.560   6.317   7.654  0.0822  0.1361  0.3118
 4401TIP3    H134838   4.551   6.411   7.635  0.2513 -0.0259 -0.6490
 4401TIP3    H234839   4.637   6.312   7.710 -1.3743  0.7998  2.5037
 4402TIP3   OH234840   1.218   6.423   7.636  0.8146 -0.2094  0.0563
 4402TIP3    H134841   1.195   6.359   7.704 -1.3064  0.9391  0.4961
 4402TIP3    H234842   1.269   6.372   7.573  1.6593 -1.6431  1.7839
 4403TIP3   OH234843   1.858   5.738   8.164  0.3418 -0.0722  0.1834
 4403TIP3    H134844   1.828   5.726   8.074 -4.2930 -1.1832  1.6475
 4403TIP3    H234845   1.911   5.661   8.182 -0.2010 -0.7646 -1.0516
 4404TIP3   OH234846   4.048   3.996   1.859  0.2258 -0.6572 -0.2119
 4404TIP3    H134847   4.033   3.932   1.929  0.2631  0.3111  0.7021
 4404TIP3    H234848   3.984   4.066   1.876  1.8534  0.7705  0.3346
 4405TIP3   OH234849   5.084   3.846   1.063 -0.1247  0.2265  0.6109
 4405TIP3    H134850   5.018   3.878   1.002 -0.2624  1.3990  1.3244
 4405TIP3    H234851   5.155   3.911   1.057  1.2830 -1.3420 -0.6222
 4406TIP3   OH234852   2.696   4.050   6.660  0.4212 -0.1800 -0.1976
 4406TIP3    H134853   2.636   4.077   6.730  0.8433  0.8411 -0.2175
 4406TIP3    H234854   2.655   4.082   6.580  1.0230  0.5987 -0.2039
 4407TIP3   OH234855   1.646   6.288   8.203 -0.2421 -1.0324 -0.0811
 4407TIP3    H134856   1.614   6.222   8.265 -0.7492  0.8048  1.7232
 4407TIP3    H234857   1.727   6.320   8.243 -0.9543  0.6931  0.0581
 4408TIP3   OH234858   6.559   3.255   8.269  0.4583  0.2199 -0.1643
 4408TIP3    H134859   6.501   3.189   8.231  0.2135 -1.1176  2.3182
 4408TIP3    H234860   6.502   3.329   8.288  0.2271  0.1771 -0.6735
 4409TIP3   OH234861   6.252   5.414   6.630 -0.4511 -0.2655 -0.0631
 4409TIP3    H134862   6.216   5.326   6.615  0.4858 -0.6595 -0.0403
 4409TIP3    H234863   6.342   5.409   6.599 -0.1731  0.4831  0.6011
 4410TIP3   OH234864   6.937   4.663   0.590 -0.4083 -0.5447 -0.1565
 4410TIP3    H134865   6.865   4.676   0.652 -1.0303  0.9897 -1.1347
 4410TIP3    H234866   6.950   4.749   0.550  2.5923 -0.5342  0.6214
 4411TIP3   OH234867   4.724   3.430   1.122  0.3035  0.0825 -0.1991
 4411TIP3    H134868   4.695   3.466   1.205  0.6545 -2.3880  1.1020
 4411TIP3    H234869   4.746   3.506   1.068  0.6869  1.7388  2.1737
 4412TIP3   OH234870   3.380   5.700   7.364 -0.4293 -0.0270  0.0412
 4412TIP3    H134871   3.436   5.744   7.428  0.4716 -1.1915  0.0953
 4412TIP3    H234872   3.336   5.771   7.318  1.2728  0.9657 -0.1529
 4413TIP3   OH234873   2.815   6.332   8.396  0.4143 -0.5670 -0.2443
 4413TIP3    H134874   2.907   6.358   8.387  0.4018  0.0359  1.0595
 4413TIP3    H234875   2.812   6.242   8.364  1.3750 -0.4556 -0.6769
 4414TIP3   OH234876   4.434   5.250   8.291 -0.0217  0.3752 -0.8137
 4414TIP3    H134877   4.481   5.334   8.297  1.1198 -0.3117  0.3711
 4414TIP3    H234878   4.391   5.241   8.376  1.8337 -1.3257  0.0171
 4415TIP3   OH234879   4.949   4.531   8.058 -0.2346  0.6700  0.1728
 4415TIP3    H134880   4.864   4.572   8.045 -0.8310 -0.8168 -1.0238
 4415TIP3    H234881   4.929   4.452   8.109  0.6922  1.1761  1.3525
 4416TIP3   OH234882   0.430   5.641   0.506  0.3466  0.0682 -0.3377
 4416TIP3    H134883   0.343   5.603   0.519  0.1852  0.5978  0.1872
 4416TIP3    H234884   0.412   5.732   0.482  0.7631  0.2904  0.1734
 4417TIP3   OH234885   2.778   5.828   0.946  0.0535  0.1569  0.0691
 4417TIP3    H134886   2.867   5.852   0.920  0.6735 -1.5239  0.5311
 4417TIP3    H234887   2.754   5.892   1.013 -0.2229  2.3728 -1.9852
 4418TIP3   OH234888   6.248   6.114   6.807 -0.7299  0.5757 -0.5175
 4418TIP3    H134889   6.282   6.121   6.717 -0.2863 -0.4067 -0.4428
 4418TIP3    H234890   6.291   6.185   6.854  0.9948 -0.4054 -0.5188
 4419TIP3   OH234891   1.290   4.063   7.949 -0.2203  0.1558 -0.1772
 4419TIP3    H134892   1.298   4.159   7.947  1.6585  0.0299 -0.5608
 4419TIP3    H234893   1.211   4.047   8.001 -0.0160  1.8952  0.7584
 4420TIP3   OH234894   2.998   1.281   7.553  0.5648  0.2264  0.2524
 4420TIP3    H134895   2.914   1.324   7.537 -0.1087 -0.6855  1.1734
 4420TIP3    H234896   2.983   1.190   7.526  1.3576  0.1317  0.1245
 4421TIP3   OH234897   2.536   2.335   0.219 -0.0949 -0.2558 -0.2749
 4421TIP3    H134898   2.591   2.408   0.188  0.1072  0.1872  1.0577
 4421TIP3    H234899   2.597   2.262   0.227  0.2314  0.1232  0.8057
 4422TIP3   OH234900   2.502   0.210   7.032 -0.3405 -0.3445  0.1598
 4422TIP3    H134901   2.490   0.130   6.981  0.2094 -1.3615  1.5406
 4422TIP3    H234902   2.537   0.274   6.970  1.1187 -1.7826 -0.5738
 4423TIP3   OH234903   3.771   1.980   7.100  0.1038 -0.5965  0.2988
 4423TIP3    H134904   3.863   1.955   7.094 -0.1982 -1.9063  0.7035
 4423TIP3    H234905   3.727   1.924   7.035 -0.5187 -0.6457  0.7516
 4424TIP3   OH234906   1.287   0.330   7.835 -1.1077  0.0437  0.0838
 4424TIP3    H134907   1.300   0.262   7.770 -2.5932 -0.0840 -0.1057
 4424TIP3    H234908   1.286   0.284   7.919  2.5215  0.3754  0.4911
 4425TIP3   OH234909   2.571   1.609   1.086  0.4686  0.4201  0.0842
 4425TIP3    H134910   2.527   1.534   1.126  0.8365  0.8065  1.2616
 4425TIP3    H234911   2.501   1.669   1.062  0.1112 -0.5614 -1.5045
 4426TIP3   OH234912   1.777   3.659   1.476 -0.4203 -0.2824 -0.9063
 4426TIP3    H134913   1.756   3.655   1.569  1.6462 -0.1064 -0.3782
 4426TIP3    H234914   1.805   3.749   1.461  2.4867 -1.0628 -0.8459
 4427TIP3   OH234915   5.827   3.807   0.865 -0.1732  0.2813 -0.2670
 4427TIP3    H134916   5.874   3.849   0.937  1.9567  1.9066 -2.4654
 4427TIP3    H234917   5.892   3.796   0.796 -2.3576 -0.0821 -2.4373
 4428TIP3   OH234918   6.088   5.851   6.277  0.5649  0.0451  0.0476
 4428TIP3    H134919   6.045   5.768   6.298  1.2570 -0.2772  0.2086
 4428TIP3    H234920   6.025   5.918   6.304 -0.3367 -0.4240 -0.7908
 4429TIP3   OH234921   0.316   0.581   6.066  0.1776 -0.1585 -0.5277
 4429TIP3    H134922   0.273   0.505   6.027 -0.7705  0.2605 -0.3195
 4429TIP3    H234923   0.330   0.556   6.158  0.7014 -0.4254 -0.6764
 4430TIP3   OH234924   5.770   3.505   7.642 -0.3829 -0.2614 -0.0233
 4430TIP3    H134925   5.790   3.579   7.699 -0.3765 -0.8767  0.7925
 4430TIP3    H234926   5.845   3.498   7.583 -0.7461  0.8681 -0.6491
 4431TIP3   OH234927   2.496   6.465   8.176 -0.4875 -0.0196  0.1593
 4431TIP3    H134928   2.518   6.418   8.256 -0.0806  0.8733  0.5938
 4431TIP3    H234929   2.565   6.442   8.114  0.4250  0.9702  0.7759
 4432TIP3   OH234930   4.430   4.290   6.560  0.0601 -0.2177  0.4194
 4432TIP3    H134931   4.440   4.195   6.565  0.2751 -0.1978  0.3702
 4432TIP3    H234932   4.514   4.325   6.590 -0.0275 -0.0427  0.4625
 4433TIP3   OH234933   2.825   5.866   1.479 -0.1632 -0.1964 -0.4557
 4433TIP3    H134934   2.838   5.953   1.518  2.1090  0.0359 -1.5122
 4433TIP3    H234935   2.829   5.805   1.553  5.6088  0.0744 -0.0760
 4434TIP3   OH234936   5.246   2.612   6.896 -0.4004 -0.4909 -0.4065
 4434TIP3    H134937   5.285   2.579   6.976  0.9630  0.7566 -0.5158
 4434TIP3    H234938   5.272   2.549   6.829  1.5109  0.3009 -0.4763
 4435TIP3   OH234939   1.520   2.498   0.244 -0.0985 -0.7577 -0.5940
 4435TIP3    H134940   1.456   2.433   0.274  0.8398 -1.4605 -0.0695
 4435TIP3    H234941   1.599   2.447   0.227  0.7295  0.2771  0.0676
 4436TIP3   OH234942   5.828   6.192   1.499  0.5274 -0.0389 -0.4372
 4436TIP3    H134943   5.762   6.259   1.482  0.1748 -0.0921  0.6491
 4436TIP3    H234944   5.858   6.165   1.412  0.4573  1.2999 -0.8895
 4437TIP3   OH234945   6.699   5.815   7.875 -0.0835 -0.4296  0.2687
 4437TIP3    H134946   6.722   5.901   7.840 -1.1391 -0.3535 -0.2830
 4437TIP3    H234947   6.782   5.768   7.879  0.6292  0.8290  1.2325
 4438TIP3   OH234948   6.795   6.492   7.759 -0.4461 -0.2072 -0.3797
 4438TIP3    H134949   6.842   6.411   7.741  0.7600 -0.2424  2.4646
 4438TIP3    H234950   6.837   6.557   7.703 -0.0231 -1.1164 -1.1435
 4439TIP3   OH234951   1.174   2.796   1.710  0.8813  0.4438  0.2793
 4439TIP3    H134952   1.154   2.876   1.758  0.4133 -0.3303  1.4442
 4439TIP3    H234953   1.090   2.770   1.670  1.1092  0.7131 -0.3788
 4440TIP3   OH234954   3.943   1.629   0.530  0.0510 -0.2486 -0.0168
 4440TIP3    H134955   3.864   1.631   0.585  0.2981  1.1242  0.3273
 4440TIP3    H234956   3.914   1.666   0.447  0.2470 -0.0409  0.0069
 4441TIP3   OH234957   1.818   2.683   7.154  0.2711 -0.2109  0.0016
 4441TIP3    H134958   1.895   2.695   7.210  0.2141  1.1624 -0.1697
 4441TIP3    H234959   1.806   2.588   7.149  2.0366 -0.4710 -0.0917
 4442TIP3   OH234960   1.732   5.141   7.871  0.0254  0.1358  0.0113
 4442TIP3    H134961   1.673   5.128   7.945  1.3024  0.8212  1.1892
 4442TIP3    H234962   1.769   5.228   7.885  1.6046 -0.4186 -0.4682
 4443TIP3   OH234963   0.114   4.589   1.528 -0.0353 -0.1582 -0.0874
 4443TIP3    H134964   0.031   4.561   1.490 -0.4224  0.7335  0.0635
 4443TIP3    H234965   0.180   4.564   1.464 -0.5733  0.4513 -0.9072
 4444TIP3   OH234966   2.512   0.671   7.690  0.0270  0.1907  0.0366
 4444TIP3    H134967   2.517   0.755   7.735  1.5797  1.3280 -2.0622
 4444TIP3    H234968   2.418   0.652   7.685 -0.2405  0.6542  2.4641
 4445TIP3   OH234969   0.122   4.261   7.534 -0.4603 -0.2742  0.3544
 4445TIP3    H134970   0.038   4.272   7.489  0.4468  1.4307 -1.0435
 4445TIP3    H234971   0.186   4.250   7.464  1.0226  2.6876  1.0600
 4446TIP3   OH234972   4.112   0.370   7.969  0.5757  0.0147 -0.3070
 4446TIP3    H134973   4.095   0.354   8.062  0.2142  0.4448 -0.2955
 4446TIP3    H234974   4.106   0.284   7.928 -3.4425  0.2481 -0.5736
 4447TIP3   OH234975   3.175   0.050   2.295 -0.4406  0.1961  0.2180
 4447TIP3    H134976   3.253   0.085   2.337  1.5830 -0.4352 -2.6840
 4447TIP3    H234977   3.132   0.127   2.257 -0.8215  0.4494  1.1320
 4448TIP3   OH234978   1.244   3.504   1.496  0.2577 -0.4511 -0.2801
 4448TIP3    H134979   1.330   3.469   1.473  0.4442  0.4010 -0.9240
 4448TIP3    H234980   1.192   3.495   1.416 -0.4277 -1.4184  0.2426
 4449TIP3   OH234981   0.267   6.864   0.118 -0.2983 -0.3219 -0.0753
 4449TIP3    H134982   0.307   6.779   0.137  1.6298  0.5839  0.1311
 4449TIP3    H234983   0.181   6.842   0.081  0.6660 -2.3883 -1.2577
 4450TIP3   OH234984   0.385   4.837   7.514 -0.3247 -0.6912  0.5569
 4450TIP3    H134985   0.352   4.924   7.496  1.1521  0.1175  1.5569
 4450TIP3    H234986   0.480   4.848   7.526  0.0901 -2.6140 -0.4285
 4451TIP3   OH234987   6.496   3.029   0.657  0.5344 -0.0814  0.2190
 4451TIP3    H134988   6.433   2.967   0.693  0.3111 -0.3158 -0.5681
 4451TIP3    H234989   6.560   3.041   0.727  0.3421 -0.8598  0.5387
 4452TIP3   OH234990   4.092   4.162   1.447  0.3767  0.2212  0.6516
 4452TIP3    H134991   4.106   4.211   1.366  0.9632 -1.2341 -0.1809
 4452TIP3    H234992   4.017   4.205   1.489 -0.9911  0.0686 -1.4578
 4453TIP3   OH234993   4.685   3.561   0.501 -0.0536 -0.3751  0.6167
 4453TIP3    H134994   4.731   3.576   0.419  0.0743 -1.8722  0.3775
 4453TIP3    H234995   4.636   3.642   0.517 -0.9727 -0.4401 -1.5218
 4454TIP3   OH234996   2.353   5.984   8.022  0.2268  0.0976 -0.3241
 4454TIP3    H134997   2.280   5.932   8.056 -0.5701  1.8523  0.8009
 4454TIP3    H234998   2.383   5.935   7.945 -2.7697 -0.2261 -1.4325
 4455TIP3   OH234999   4.380   2.369   1.682 -0.0676  0.0359  0.1987
 4455TIP3    H135000   4.290   2.353   1.709  0.7176 -0.5207  2.8232
 4455TIP3    H235001   4.399   2.302   1.617 -1.5733  0.2720 -0.5161
 4456TIP3   OH235002   2.644   2.284   7.779 -0.0596  0.6304 -0.3050
 4456TIP3    H135003   2.606   2.236   7.705 -1.2715  0.9665  0.0808
 4456TIP3    H235004   2.735   2.299   7.753 -0.3654  0.4152 -1.5705
 4457TIP3   OH235005   5.585   6.021   8.072 -0.1409  0.1637  0.3980
 4457TIP3    H135006   5.529   5.980   8.138 -0.6814 -1.4204 -0.9918
 4457TIP3    H235007   5.627   5.948   8.027 -0.1976  1.1843 -1.3712
 4458TIP3   OH235008   0.847   1.095   7.708  0.1362 -0.5200 -0.8713
 4458TIP3    H135009   0.857   1.096   7.803  3.0479  0.5012 -1.0873
 4458TIP3    H235010   0.782   1.162   7.689 -1.3384 -1.5055  0.3897
 4459TIP3   OH235011   5.692   6.669   1.533  0.1278 -0.4580 -0.1024
 4459TIP3    H135012   5.666   6.581   1.560  1.5810 -1.7318 -2.4683
 4459TIP3    H235013   5.757   6.655   1.464  1.9341  2.5000  0.8060
 4460TIP3   OH235014   2.314   5.940   6.941  0.5283  0.1680  0.5195
 4460TIP3    H135015   2.345   6.008   6.881  1.0635 -0.9898 -0.5458
 4460TIP3    H235016   2.371   5.865   6.924 -0.6008 -0.8421  1.0605
 4461TIP3   OH235017   4.468   4.256   1.830  0.2716 -0.4610 -0.1227
 4461TIP3    H135018   4.427   4.256   1.744  1.0977  1.1368 -0.5432
 4461TIP3    H235019   4.557   4.226   1.814  0.8538  1.1653 -0.0793
 4462TIP3   OH235020   4.551   1.943   6.742 -0.0547  0.1331  0.2479
 4462TIP3    H135021   4.610   1.876   6.706  0.0601  0.7834 -0.8342
 4462TIP3    H235022   4.505   1.977   6.665  0.9133  2.2803  0.5497
 4463TIP3   OH235023   1.236   0.375   0.187  0.4701 -0.1241 -0.4799
 4463TIP3    H135024   1.324   0.406   0.208 -0.5461  2.1764  0.7114
 4463TIP3    H235025   1.231   0.378   0.092  2.4735 -2.8664 -0.7986
 4464TIP3   OH235026   3.049   3.285   1.422  0.0655 -0.0849  0.4457
 4464TIP3    H135027   2.994   3.216   1.384 -0.2887 -0.3712  1.4450
 4464TIP3    H235028   3.069   3.343   1.348 -2.3725  0.5744  0.2016
 4465TIP3   OH235029   3.122   4.128   1.829 -0.2501  0.0203  0.1451
 4465TIP3    H135030   3.091   4.037   1.819  0.0512 -0.1286  0.5790
 4465TIP3    H235031   3.051   4.172   1.875 -0.4255  0.0250 -0.1239
 4466TIP3   OH235032   2.560   6.463   7.841  0.1090  0.1529  0.9428
 4466TIP3    H135033   2.577   6.498   7.754 -1.6514  0.7954  0.8228
 4466TIP3    H235034   2.644   6.427   7.869  0.9280  0.7395 -0.6424
 4467TIP3   OH235035   3.287   4.927   8.376  0.4177 -0.1438  0.2686
 4467TIP3    H135036   3.246   4.983   8.442 -3.0218 -0.1031 -1.6848
 4467TIP3    H235037   3.381   4.933   8.395 -0.0567  3.2412  2.4495
 4468TIP3   OH235038   6.244   0.696   8.180 -0.6832  0.2866  0.3005
 4468TIP3    H135039   6.169   0.686   8.122  0.0575 -1.0086 -0.4978
 4468TIP3    H235040   6.216   0.656   8.263 -0.6426 -0.9359 -0.2451
 4469TIP3   OH235041   5.409   5.345   2.372  0.1181  0.5296  0.3343
 4469TIP3    H135042   5.441   5.426   2.332  2.2271 -0.6498 -0.5140
 4469TIP3    H235043   5.323   5.330   2.332 -0.0814  2.0634  0.1369
 4470TIP3   OH235044   6.913   1.910   8.366  0.2677  0.5071  0.1376
 4470TIP3    H135045   6.995   1.929   8.411  0.3165  2.6960 -0.7211
 4470TIP3    H235046   6.922   1.820   8.336  1.4031 -0.0524  1.9804
 4471TIP3   OH235047   6.185   4.966   0.525  0.5824 -0.0687 -0.1185
 4471TIP3    H135048   6.268   5.010   0.506  1.2655 -0.4349  1.7622
 4471TIP3    H235049   6.118   5.031   0.504  1.4679  1.1564  0.7099
 4472TIP3   OH235050   6.477   5.984   1.872 -0.2818  0.3799  0.5845
 4472TIP3    H135051   6.429   5.910   1.909 -0.2590  0.5572  0.9784
 4472TIP3    H235052   6.411   6.052   1.862 -0.2110  0.4590  0.6568
 4473TIP3   OH235053   3.078   1.747   0.589  0.2320 -0.2162 -0.2178
 4473TIP3    H135054   3.021   1.803   0.644  0.7952  0.9886 -0.8168
 4473TIP3    H235055   3.164   1.754   0.630  0.2330 -1.0000 -0.0692
 4474TIP3   OH235056   3.449   5.814   8.492 -1.0440 -0.5583 -0.5411
 4474TIP3    H135057   3.487   5.760   8.562 -0.5057  0.6368  0.1223
 4474TIP3    H235058   3.355   5.815   8.510 -0.7695  1.0142  1.1602
 4475TIP3   OH235059   0.223   1.165   7.739  0.4864  0.4814  0.0892
 4475TIP3    H135060   0.176   1.088   7.708  1.5585  0.2484 -1.0118
 4475TIP3    H235061   0.201   1.234   7.676  1.5640  0.3755 -0.4293
 4476TIP3   OH235062   2.539   1.346   6.613 -0.2068 -1.2152 -0.3332
 4476TIP3    H135063   2.448   1.374   6.599  0.1760 -0.3937 -1.3143
 4476TIP3    H235064   2.582   1.365   6.530  1.3785  0.4199  0.8010
 4477TIP3   OH235065   4.712   5.729   6.841 -0.4040  0.8001 -0.4147
 4477TIP3    H135066   4.804   5.750   6.825 -0.1897  0.1467 -0.0746
 4477TIP3    H235067   4.707   5.634   6.833 -1.0301  0.8219 -0.3334
 4478TIP3   OH235068   6.854   4.242   0.786 -0.5342 -0.3707  0.9040
 4478TIP3    H135069   6.814   4.156   0.799 -0.0237 -0.6646  0.5800
 4478TIP3    H235070   6.929   4.244   0.845 -0.8344  0.0548  1.2798
 4479TIP3   OH235071   0.060   3.966   1.012  0.6368 -0.5458  0.2175
 4479TIP3    H135072   0.079   4.046   0.963 -0.4474 -0.4908 -0.1186
 4479TIP3    H235073   0.102   3.897   0.962  2.9451 -0.0598  1.3155
 4480TIP3   OH235074   0.217   3.818   1.394  0.4765 -0.3721 -0.3224
 4480TIP3    H135075   0.126   3.839   1.374 -0.1769 -0.8519  1.8594
 4480TIP3    H235076   0.257   3.902   1.417  1.3665  0.2667 -3.6752
 4481TIP3   OH235077   5.092   0.539   6.521  0.0670  0.2922 -0.1617
 4481TIP3    H135078   5.054   0.482   6.454 -0.6324  1.1492 -0.5232
 4481TIP3    H235079   5.180   0.505   6.533 -0.8512 -1.9256  0.9016
 4482TIP3   OH235080   3.314   4.483   0.941 -0.5209  0.3845  0.4738
 4482TIP3    H135081   3.223   4.509   0.953 -0.9049 -0.9143  0.5177
 4482TIP3    H235082   3.340   4.446   1.025  0.0972  0.8559  0.4998
 4483TIP3   OH235083   1.087   0.643   7.343 -0.0962 -0.1341  0.5966
 4483TIP3    H135084   1.024   0.635   7.415 -0.3235 -1.1000  0.2976
 4483TIP3    H235085   1.033   0.668   7.268  0.1261  0.7580  0.7212
 4484TIP3   OH235086   0.966   3.227   0.144 -0.5135 -0.2128  0.0096
 4484TIP3    H135087   1.040   3.168   0.130 -0.5032 -0.1245 -0.2970
 4484TIP3    H235088   0.915   3.184   0.213 -0.2404 -0.3305  0.1402
 4485TIP3   OH235089   0.916   2.590   6.655  0.2792  0.4619 -0.3928
 4485TIP3    H135090   0.878   2.621   6.738  2.5374  1.2177  0.4518
 4485TIP3    H235091   0.854   2.618   6.588 -1.6901 -0.2920  1.0196
 4486TIP3   OH235092   2.938   4.985   0.871  0.4665 -0.2474  0.2356
 4486TIP3    H135093   3.013   4.927   0.884  0.3646 -0.1095  1.5711
 4486TIP3    H235094   2.900   4.995   0.958 -0.8870 -0.0143 -0.3556
 4487TIP3   OH235095   5.232   4.384   8.298 -0.0262 -0.7163 -0.3467
 4487TIP3    H135096   5.156   4.368   8.242  0.4356  1.0367 -1.5830
 4487TIP3    H235097   5.297   4.319   8.269 -0.4215 -1.0216 -0.5592
 4488TIP3   OH235098   1.849   4.038   7.132 -0.6555 -0.1617  0.8928
 4488TIP3    H135099   1.817   4.128   7.135 -1.9882 -0.5272 -0.7301
 4488TIP3    H235100   1.934   4.044   7.087 -2.1726  0.0388 -2.2288
 4489TIP3   OH235101   3.471   1.976   1.223 -0.6751 -0.1820  0.0916
 4489TIP3    H135102   3.513   1.901   1.182 -1.7939 -1.5542  1.3426
 4489TIP3    H235103   3.405   1.938   1.282 -2.1084  1.7995 -0.1131
 4490TIP3   OH235104   1.552   3.775   0.844 -0.4992  0.2606 -0.2672
 4490TIP3    H135105   1.581   3.860   0.877 -1.0606  0.0623  0.8094
 4490TIP3    H235106   1.599   3.763   0.762 -0.6887  1.7756 -0.6247
 4491TIP3   OH235107   5.189   6.631   0.509 -0.0802  0.5383 -0.2746
 4491TIP3    H135108   5.102   6.606   0.477 -1.3902  3.2945  0.8088
 4491TIP3    H235109   5.173   6.668   0.595  2.1648  1.3106 -0.1294
 4492TIP3   OH235110   3.667   3.601   8.424 -0.0214 -0.0024 -0.0667
 4492TIP3    H135111   3.646   3.627   8.514 -0.0960 -0.1986 -0.0271
 4492TIP3    H235112   3.647   3.507   8.421  0.8517 -0.1966 -0.0247
 4493TIP3   OH235113   3.747   0.731   1.077  0.8158  0.0054 -0.1841
 4493TIP3    H135114   3.768   0.668   1.009 -0.8183 -1.3690  0.5141
 4493TIP3    H235115   3.715   0.678   1.150 -1.3356  1.6489  0.1614
 4494TIP3   OH235116   2.523   6.042   0.169  0.2498 -0.4701 -0.0510
 4494TIP3    H135117   2.584   6.084   0.230 -0.5551  1.1240 -0.2911
 4494TIP3    H235118   2.565   5.959   0.147  1.5775 -0.1184  1.0045
 4495TIP3   OH235119   6.050   0.509   1.952  0.2402 -0.0180 -0.2403
 4495TIP3    H135120   5.985   0.481   2.017  2.4091  1.3084  2.7587
 4495TIP3    H235121   6.125   0.452   1.967  0.4361 -0.4367 -2.4829
 4496TIP3   OH235122   2.517   1.041   0.066  0.6919  0.2557 -0.3729
 4496TIP3    H135123   2.534   1.133   0.045  1.2243  0.4418  0.7834
 4496TIP3    H235124   2.578   0.993   0.010  0.2588  0.5749 -1.1486
 4497TIP3   OH235125   4.667   3.684   8.439 -0.1230  0.4089 -0.0949
 4497TIP3    H135126   4.677   3.617   8.371  0.2825  0.2292  0.1403
 4497TIP3    H235127   4.721   3.757   8.409 -0.0805  0.3964 -0.0485
 4498TIP3   OH235128   4.485   2.104   6.219  0.4804 -0.1919 -0.1991
 4498TIP3    H135129   4.481   2.164   6.144  1.7846 -0.0387 -0.1599
 4498TIP3    H235130   4.401   2.116   6.263 -0.2045 -0.0932 -1.4816
 4499TIP3   OH235131   5.266   0.832   8.171  0.4474  0.3574 -0.3663
 4499TIP3    H135132   5.216   0.752   8.185  0.8719 -0.2176 -1.9419
 4499TIP3    H235133   5.242   0.861   8.083  0.5174  1.8074  0.0637
 4500TIP3   OH235134   2.242   3.169   1.953  0.2817  0.0660 -0.6966
 4500TIP3    H135135   2.159   3.182   1.999  0.2647 -1.1007 -0.3468
 4500TIP3    H235136   2.232   3.216   1.871 -0.1296  1.2295 -0.0003
 4501TIP3   OH235137   0.862   4.621   8.487  0.1761  0.0551  0.4192
 4501TIP3    H135138   0.935   4.591   8.541  0.4423 -0.3858 -0.1697
 4501TIP3    H235139   0.900   4.688   8.430  0.5214 -1.2467 -0.9587
 4502TIP3   OH235140   0.768   4.156   6.587 -0.3673  0.0053 -0.2789
 4502TIP3    H135141   0.750   4.168   6.494  0.2605  0.4017 -0.3572
 4502TIP3    H235142   0.720   4.226   6.630 -0.8258 -0.3041 -0.2839
 4503TIP3   OH235143   0.825   5.408   7.523 -0.6505  0.6179 -0.5376
 4503TIP3    H135144   0.851   5.422   7.614  0.1002  0.2701 -0.6904
 4503TIP3    H235145   0.828   5.313   7.511 -0.3934  0.6846 -1.0246
 4504TIP3   OH235146   4.130   3.139   7.472  0.1173 -0.0850 -0.4496
 4504TIP3    H135147   4.049   3.140   7.421  0.6246 -0.4049 -1.2837
 4504TIP3    H235148   4.164   3.228   7.464  0.1947 -0.1332 -0.6852
 4505TIP3   OH235149   4.738   1.552   8.270  0.0472  0.3066 -0.1288
 4505TIP3    H135150   4.702   1.470   8.235  0.6153  0.2202 -0.5195
 4505TIP3    H235151   4.810   1.526   8.326 -1.3880  0.3882  1.8661
 4506TIP3   OH235152   4.128   4.344   0.358  0.5022 -0.4194  0.1141
 4506TIP3    H135153   4.084   4.286   0.296 -2.2942 -0.0808  1.6097
 4506TIP3    H235154   4.215   4.357   0.321 -1.2116  0.4363 -4.1745
 4507TIP3   OH235155   4.291   4.112   7.730  0.2919  0.3470 -0.3408
 4507TIP3    H135156   4.234   4.050   7.685 -0.4323 -0.0516  1.0902
 4507TIP3    H235157   4.375   4.103   7.685 -0.6905  0.9057 -2.4471
 4508TIP3   OH235158   2.728   0.650   0.218 -0.0398  0.0873  0.3372
 4508TIP3    H135159   2.721   0.565   0.261 -2.0597 -0.0228 -0.1450
 4508TIP3    H235160   2.769   0.707   0.284  2.6781 -1.5033  0.1926
 4509TIP3   OH235161   5.902   1.700   7.061  0.4531 -0.2779 -0.0070
 4509TIP3    H135162   5.956   1.621   7.049  1.7070  0.5587 -0.0792
 4509TIP3    H235163   5.955   1.757   7.117 -0.3746  0.5769 -0.0625
 4510TIP3   OH235164   0.943   5.909   7.959 -0.1946 -0.2311  0.4304
 4510TIP3    H135165   1.011   5.846   7.938  1.7010  2.5798 -2.8825
 4510TIP3    H235166   0.867   5.880   7.908  0.4805 -0.2480 -0.6089
 4511TIP3   OH235167   2.382   2.609   7.065  0.3947  0.6114  0.3052
 4511TIP3    H135168   2.460   2.592   7.118  0.3001  2.1386  0.9826
 4511TIP3    H235169   2.396   2.557   6.985  1.3294 -0.4019  1.0983
 4512TIP3   OH235170   3.049   2.447   2.527 -0.1656  0.1080  0.0861
 4512TIP3    H135171   2.991   2.484   2.594 -2.2276 -1.0770 -0.9320
 4512TIP3    H235172   3.136   2.475   2.553 -1.1296  1.6643  1.9391
 4513TIP3   OH235173   0.750   5.801   6.583  0.0970  0.0002  0.4954
 4513TIP3    H135174   0.778   5.892   6.594  1.2442 -0.4870  1.9685
 4513TIP3    H235175   0.803   5.769   6.510 -1.8728  1.0686 -1.5110
 4514TIP3   OH235176   6.840   5.328   6.701 -0.5680  0.0220 -0.0153
 4514TIP3    H135177   6.898   5.270   6.749 -0.0842  1.3090  1.0258
 4514TIP3    H235178   6.893   5.358   6.626 -1.1681 -1.6241 -1.1577
 4515TIP3   OH235179   0.941   4.397   8.255  0.0760 -0.2110 -0.5080
 4515TIP3    H135180   0.918   4.321   8.309 -0.2839  0.6703  0.6158
 4515TIP3    H235181   1.003   4.447   8.309  0.6293  0.0944 -1.4004
 4516TIP3   OH235182   0.640   5.118   0.759 -0.9938 -0.0854  0.3173
 4516TIP3    H135183   0.667   5.184   0.822 -1.3919  0.6385 -0.2471
 4516TIP3    H235184   0.719   5.068   0.740 -0.6067  0.4589  0.4891
 4517TIP3   OH235185   0.596   1.242   8.205  0.2351  0.1121  0.0637
 4517TIP3    H135186   0.607   1.243   8.110 -2.6181  0.1879 -0.3437
 4517TIP3    H235187   0.628   1.157   8.232 -0.9339 -0.8079 -1.3063
 4518TIP3   OH235188   4.056   5.905   1.590  0.1699  0.1864 -0.3984
 4518TIP3    H135189   4.110   5.971   1.633 -1.0401 -0.1590  1.7761
 4518TIP3    H235190   4.065   5.827   1.645 -0.3979 -0.7099 -1.5313
 4519TIP3   OH235191   6.110   1.664   8.266 -0.0663 -1.0956  0.4306
 4519TIP3    H135192   6.014   1.666   8.275 -0.0650 -2.6851  1.0088
 4519TIP3    H235193   6.134   1.573   8.283  1.6299 -0.5660  1.0200
 4520TIP3   OH235194   6.467   1.475   8.110  0.5570 -0.3535 -0.2622
 4520TIP3    H135195   6.488   1.563   8.081 -4.6330  0.9491 -1.0564
 4520TIP3    H235196   6.476   1.421   8.032  1.7538 -0.1652 -0.2753
 4521TIP3   OH235197   1.324   0.664   0.508  0.0986  0.4687 -0.8624
 4521TIP3    H135198   1.342   0.588   0.564 -0.1606  0.7897 -0.3306
 4521TIP3    H235199   1.231   0.658   0.489 -0.2364  1.4184  0.3631
 4522TIP3   OH235200   5.899   0.394   0.989  0.3306  0.6910  0.1724
 4522TIP3    H135201   5.930   0.477   1.025  0.3569  1.0811 -0.7286
 4522TIP3    H235202   5.814   0.414   0.951 -0.2090  0.0320  0.9857
 4523TIP3   OH235203   1.835   4.680   0.581  0.3299 -0.0701 -0.1768
 4523TIP3    H135204   1.802   4.640   0.662  2.0005  1.1547  1.1883
 4523TIP3    H235205   1.811   4.772   0.589  1.6756  0.3163 -0.4376
 4524TIP3   OH235206   4.726   6.351   1.755  0.6429  0.7194 -0.4749
 4524TIP3    H135207   4.752   6.350   1.847  0.7782 -1.8723 -0.4651
 4524TIP3    H235208   4.795   6.400   1.710  1.6007  0.3299  0.5519
 4525TIP3   OH235209   1.237   0.068   2.207  0.6903 -0.1287  0.3752
 4525TIP3    H135210   1.299  -0.003   2.192  0.2052 -0.5064  0.1171
 4525TIP3    H235211   1.152   0.024   2.216 -0.5511  0.5870 -4.7213
 4526TIP3   OH235212   6.694   3.636   7.252 -0.0764 -0.7194 -0.2973
 4526TIP3    H135213   6.750   3.569   7.213  0.1902 -0.7804  0.1834
 4526TIP3    H235214   6.605   3.605   7.236  0.0288 -0.7289 -0.8777
 4527TIP3   OH235215   5.533   5.769   6.462  0.0980 -0.0464 -0.1723
 4527TIP3    H135216   5.561   5.682   6.432 -0.5526 -0.4717  0.4238
 4527TIP3    H235217   5.482   5.752   6.541 -0.3720  0.8528 -0.2672
 4528TIP3   OH235218   0.791   5.174   6.890  0.1655  0.3922  0.3062
 4528TIP3    H135219   0.841   5.240   6.841 -0.4540  0.3208 -0.4281
 4528TIP3    H235220   0.858   5.125   6.938  0.7947  0.3577 -0.5931
 4529TIP3   OH235221   1.882   3.419   1.409 -0.1144 -0.4072  0.5942
 4529TIP3    H135222   1.840   3.504   1.420 -0.4858 -0.3754 -0.9138
 4529TIP3    H235223   1.811   3.356   1.417 -0.2018 -0.4420 -0.3147
 4530TIP3   OH235224   6.887   1.142   8.375  0.3152  0.2251 -0.8951
 4530TIP3    H135225   6.832   1.106   8.444  0.0221  0.0545 -1.2145
 4530TIP3    H235226   6.948   1.071   8.354 -0.8080 -0.4317 -2.1184
 4531TIP3   OH235227   3.710   0.465   2.178 -0.1840  0.4902  0.0657
 4531TIP3    H135228   3.725   0.392   2.119 -1.3104 -0.3905  0.8358
 4531TIP3    H235229   3.793   0.514   2.177  1.3939 -1.9895  1.1993
 4532TIP3   OH235230   1.091   0.592   0.362 -0.2833 -0.2375 -0.3548
 4532TIP3    H135231   0.996   0.588   0.378 -0.0675  0.7557  1.3544
 4532TIP3    H235232   1.109   0.513   0.310 -1.8600 -1.0651  0.2687
 4533TIP3   OH235233   4.351   3.415   7.167  0.2011  0.1952 -0.4933
 4533TIP3    H135234   4.311   3.329   7.153  1.5830 -0.4667 -0.5035
 4533TIP3    H235235   4.445   3.400   7.156  0.4540  1.7418 -0.6361
 4534TIP3   OH235236   5.494   4.309   2.216 -0.4642 -0.4149  0.7959
 4534TIP3    H135237   5.543   4.381   2.255 -1.8759  0.4412  1.0431
 4534TIP3    H235238   5.402   4.337   2.220 -0.8195 -1.0752 -1.5082
 4535TIP3   OH235239   3.676   3.058   1.061 -0.1300 -0.0291 -0.3722
 4535TIP3    H135240   3.724   3.125   1.013 -0.7002  0.4407 -0.2961
 4535TIP3    H235241   3.742   3.019   1.119 -0.3100  2.3494  1.6232
 4536TIP3   OH235242   2.043   6.172   6.873  0.1337 -0.1917  0.5413
 4536TIP3    H135243   2.052   6.076   6.877 -1.7447 -0.3971  0.5489
 4536TIP3    H235244   2.046   6.192   6.780 -0.9402 -0.4437  0.4393
 4537TIP3   OH235245   4.225   4.065   1.233 -0.6001  0.1433 -0.3216
 4537TIP3    H135246   4.246   4.101   1.319 -0.7400 -0.5699  0.0213
 4537TIP3    H235247   4.140   4.023   1.244 -1.2752  1.2482 -1.1789
 4538TIP3   OH235248   3.568   2.088   0.726 -0.1478 -0.3032 -0.4319
 4538TIP3    H135249   3.504   2.154   0.754 -1.4595 -1.3123 -0.9429
 4538TIP3    H235250   3.646   2.107   0.778 -1.2122  0.3128  1.0083
 4539TIP3   OH235251   6.756   3.526   7.593  0.0375  0.5146  0.0651
 4539TIP3    H135252   6.793   3.453   7.543  0.2279  1.4974 -1.2903
 4539TIP3    H235253   6.752   3.494   7.683  2.6713 -0.2143  0.0044
 4540TIP3   OH235254   6.801   1.370   0.461 -0.1575 -0.1867 -0.0633
 4540TIP3    H135255   6.725   1.335   0.508  0.1797 -1.0707 -0.1537
 4540TIP3    H235256   6.772   1.456   0.430 -0.1068  0.8857  2.5531
 4541TIP3   OH235257   1.874   0.040   8.112 -0.0002 -0.4731  0.2194
 4541TIP3    H135258   1.877   0.111   8.047 -1.1572 -1.0234 -0.4715
 4541TIP3    H235259   1.845  -0.036   8.062  0.5825 -1.2879  1.0916
 4542TIP3   OH235260   5.294   4.084   7.674  0.5849  0.0161 -0.0128
 4542TIP3    H135261   5.352   4.018   7.636  0.8395  0.0377  0.3318
 4542TIP3    H235262   5.286   4.059   7.766 -2.1929 -1.6214 -0.5641
 4543TIP3   OH235263   6.961   4.480   8.563  0.5100 -0.0927 -0.1542
 4543TIP3    H135264   6.938   4.517   8.648  2.9509  0.2123  0.4471
 4543TIP3    H235265   6.877   4.472   8.517 -0.7225  0.9699  1.7613
 4544TIP3   OH235266   3.439   4.955   7.681 -0.4912  0.1903 -0.0822
 4544TIP3    H135267   3.379   4.986   7.612 -1.8856  0.9359  1.3853
 4544TIP3    H235268   3.462   4.866   7.655  1.2384  1.3046 -2.9033
 4545TIP3   OH235269   3.555   2.486   8.083 -0.0551 -0.0130 -0.4350
 4545TIP3    H135270   3.517   2.408   8.123 -0.5918  0.2195 -0.4807
 4545TIP3    H235271   3.484   2.524   8.032  0.7943 -0.6642 -2.1821
 4546TIP3   OH235272   6.160   3.759   7.625 -0.0837  0.3143  0.0680
 4546TIP3    H135273   6.175   3.848   7.658 -1.6091  0.2353  1.0879
 4546TIP3    H235274   6.193   3.760   7.536  0.2464  1.8106  0.1906
 4547TIP3   OH235275   3.926   0.497   0.454  0.2174 -0.5463  0.5270
 4547TIP3    H135276   3.937   0.559   0.526  1.1192  0.8056 -0.7185
 4547TIP3    H235277   3.831   0.495   0.439  0.2311  1.7514 -0.3625
 4548TIP3   OH235278   4.410   5.044   6.983 -0.5569 -0.2060  0.1557
 4548TIP3    H135279   4.363   4.962   6.999  1.3363 -0.9195  2.5378
 4548TIP3    H235280   4.386   5.101   7.056  0.0263  0.4992 -0.1836
 4549TIP3   OH235281   0.405   2.787   1.974  0.3025  0.1037  0.2398
 4549TIP3    H135282   0.476   2.755   1.917 -0.5278 -0.2890 -0.5872
 4549TIP3    H235283   0.427   2.751   2.060  0.5655 -0.9026 -0.2279
 4550TIP3   OH235284   0.491   1.788   6.387 -0.3711  0.2398 -0.2406
 4550TIP3    H135285   0.416   1.838   6.354 -1.2132  0.2411  1.5468
 4550TIP3    H235286   0.452   1.717   6.438  0.8451 -0.1402  0.1946
 4551TIP3   OH235287   5.721   6.274   7.856  0.4920 -0.1216 -0.1186
 4551TIP3    H135288   5.814   6.253   7.866  0.2341 -0.7525  1.1506
 4551TIP3    H235289   5.720   6.353   7.802  1.7853  0.1816  0.2733
 4552TIP3   OH235290   4.999   0.935   8.348 -0.4386  0.5198 -0.4051
 4552TIP3    H135291   5.000   0.860   8.289 -1.7604  1.8878 -2.3089
 4552TIP3    H235292   5.081   0.929   8.397 -1.4967 -3.3906  1.2814
 4553TIP3   OH235293   3.087   0.534   7.371  0.1282  0.1798 -0.4523
 4553TIP3    H135294   3.103   0.458   7.316 -1.4981  1.0424 -2.2736
 4553TIP3    H235295   2.991   0.537   7.380  0.1456  2.0181 -0.4914
 4554TIP3   OH235296   3.951   2.381   1.404  0.6581  0.1162  0.1136
 4554TIP3    H135297   3.998   2.327   1.467  1.9532 -0.0773 -0.9762
 4554TIP3    H235298   3.967   2.339   1.320 -0.7408  0.5738 -0.4144
 4555TIP3   OH235299   1.823   0.326   6.254 -0.9584 -0.1492  0.8361
 4555TIP3    H135300   1.844   0.320   6.161  0.9118  0.0903  1.2051
 4555TIP3    H235301   1.727   0.328   6.257 -1.0400  1.2303 -1.1624
 4556TIP3   OH235302   6.017   0.230   8.251  0.0896 -0.0221  0.4332
 4556TIP3    H135303   6.075   0.246   8.177 -0.1306  0.4767  0.3676
 4556TIP3    H235304   5.934   0.202   8.213  0.6489 -1.9993  0.5568
 4557TIP3   OH235305   0.539   4.317   7.296  0.3359 -0.4589  0.0999
 4557TIP3    H135306   0.621   4.348   7.335  1.2158 -0.9130 -1.2993
 4557TIP3    H235307   0.564   4.289   7.207 -1.4262 -0.2123 -0.5069
 4558TIP3   OH235308   4.427   6.527   2.164 -0.8269  0.1927  0.1430
 4558TIP3    H135309   4.350   6.505   2.112 -0.4454 -0.6363 -0.0832
 4558TIP3    H235310   4.479   6.447   2.164  0.7906  1.1950 -1.0149
 4559TIP3   OH235311   6.266   5.809   1.218 -0.0940 -0.1921  0.3411
 4559TIP3    H135312   6.273   5.902   1.192 -0.1364  0.2745  1.9209
 4559TIP3    H235313   6.174   5.797   1.240  0.1851 -0.1806  1.5994
 4560TIP3   OH235314   3.894   6.379   0.018 -0.0711 -0.0604 -0.1368
 4560TIP3    H135315   3.826   6.315   0.036  0.2029 -0.3437 -0.0968
 4560TIP3    H235316   3.902   6.429   0.099  0.0178 -0.2605 -0.0217
 4561TIP3   OH235317   3.696   1.494   1.337  0.4800 -0.9963  0.2937
 4561TIP3    H135318   3.718   1.405   1.365 -2.5443 -1.2144  2.5110
 4561TIP3    H235319   3.613   1.485   1.290  0.2454  0.6041  0.3212
 4562TIP3   OH235320   0.027   3.497   2.050 -0.1388 -0.6390  0.4588
 4562TIP3    H135321   0.104   3.489   2.106  0.1967  1.3959  0.3524
 4562TIP3    H235322   0.049   3.567   1.989 -2.1281  0.1148  0.5303
 4563TIP3   OH235323   0.629   2.392   6.534  0.1506 -0.1386 -0.4397
 4563TIP3    H135324   0.641   2.386   6.629  0.8356  0.0667 -0.5063
 4563TIP3    H235325   0.649   2.483   6.513 -2.9350  0.6413 -0.4006
 4564TIP3   OH235326   6.702   5.447   7.190  0.0926  0.1746 -0.2343
 4564TIP3    H135327   6.778   5.416   7.240 -1.4200  0.2366  2.2644
 4564TIP3    H235328   6.671   5.370   7.143  0.1663 -0.4898  0.7924
 4565TIP3   OH235329   5.017   6.681   0.162 -0.3570  0.2358  0.7523
 4565TIP3    H135330   4.997   6.588   0.166 -0.6634  0.3195  1.3840
 4565TIP3    H235331   4.968   6.713   0.086 -0.0167 -0.1691  0.3589
 4566TIP3   OH235332   0.938   0.066   0.193 -0.3923  0.0259  0.4697
 4566TIP3    H135333   0.871   0.016   0.146  1.3820 -0.1769 -2.0523
 4566TIP3    H235334   0.976   0.003   0.254  0.2617 -1.1144 -1.0383
 4567TIP3   OH235335   4.273   3.504   7.756 -0.0938  0.0126  0.3157
 4567TIP3    H135336   4.223   3.449   7.816  0.6153  0.4894  1.3752
 4567TIP3    H235337   4.284   3.587   7.803  2.2039 -0.2789  0.4024
 4568TIP3   OH235338   3.492   0.908   0.582  0.1455  0.6753 -0.0260
 4568TIP3    H135339   3.454   0.995   0.571  0.3919  0.7199 -0.5709
 4568TIP3    H235340   3.542   0.893   0.501  1.6323  0.8044  0.8304
 4569TIP3   OH235341   6.789   2.779   6.827 -0.2636 -0.2841 -0.4500
 4569TIP3    H135342   6.758   2.759   6.739  1.2973  1.5410 -1.4892
 4569TIP3    H235343   6.881   2.803   6.815  0.0828 -0.2699  1.7360
 4570TIP3   OH235344   6.698   1.453   1.093 -0.2769 -0.4458 -0.2032
 4570TIP3    H135345   6.664   1.370   1.060  0.8150 -0.8968 -0.2561
 4570TIP3    H235346   6.732   1.498   1.015 -0.2297 -0.2657 -0.0819
 4571TIP3   OH235347   2.048   2.786   7.521 -0.5140  0.0857  0.2826
 4571TIP3    H135348   1.964   2.825   7.497  0.6249  2.3088 -0.4232
 4571TIP3    H235349   2.088   2.850   7.580 -0.1385 -1.8959  2.2869
 4572TIP3   OH235350   3.391   5.221   1.488 -0.3273 -0.1897  0.2712
 4572TIP3    H135351   3.382   5.316   1.478 -1.0323 -0.3854 -1.3014
 4572TIP3    H235352   3.398   5.208   1.582  0.6421  1.4875  0.4811
 4573TIP3   OH235353   6.812   5.204   0.873  0.0604 -0.1172  0.0392
 4573TIP3    H135354   6.849   5.240   0.792  2.3604 -0.1433  0.9999
 4573TIP3    H235355   6.721   5.233   0.872  1.0486  3.4510 -0.5738
 4574TIP3   OH235356   5.732   1.757   1.639  0.2639 -0.1459 -0.4039
 4574TIP3    H135357   5.804   1.699   1.664  0.6320  0.8462  0.9622
 4574TIP3    H235358   5.653   1.711   1.668  0.3059 -1.2905 -2.0078
 4575TIP3   OH235359   6.280   4.232   8.160 -0.4904 -0.3984  0.2497
 4575TIP3    H135360   6.287   4.286   8.238  1.6831 -0.8638  0.4524
 4575TIP3    H235361   6.294   4.293   8.087 -0.1088 -0.3302  0.3747
 4576TIP3   OH235362   4.895   5.436   7.663 -0.3220 -0.1669  0.1427
 4576TIP3    H135363   4.864   5.516   7.620 -1.6994 -1.6142 -1.7426
 4576TIP3    H235364   4.815   5.388   7.685  0.4889 -1.3025  0.7230
 4577TIP3   OH235365   2.254   1.338   0.775  0.2991 -0.3520  0.2338
 4577TIP3    H135366   2.163   1.310   0.776  0.3020 -0.3481  0.7575
 4577TIP3    H235367   2.255   1.414   0.717 -0.3855  0.8182  1.6899
 4578TIP3   OH235368   3.414   0.465   7.450  0.0135 -0.0604  0.2565
 4578TIP3    H135369   3.333   0.473   7.501  0.3204 -1.2873  0.9682
 4578TIP3    H235370   3.437   0.372   7.456  1.8096  0.3784  0.5829
 4579TIP3   OH235371   6.523   3.571   5.978 -0.0364 -0.2896  0.1949
 4579TIP3    H135372   6.556   3.489   5.941 -0.3912 -0.9984  1.3983
 4579TIP3    H235373   6.515   3.629   5.903 -0.9849 -1.7543 -0.9025
 4580TIP3   OH235374   5.343   4.623   2.173  0.0214 -0.2705 -0.2013
 4580TIP3    H135375   5.267   4.669   2.138  0.7271  0.8268 -0.3563
 4580TIP3    H235376   5.312   4.535   2.192 -1.0546 -0.1054 -1.1019
 4581TIP3   OH235377   3.757   0.575   0.868  0.6501 -0.1617 -0.1841
 4581TIP3    H135378   3.692   0.615   0.811  0.8483 -0.3689 -0.5548
 4581TIP3    H235379   3.712   0.501   0.907 -0.1011  1.0603  1.4060
 4582TIP3   OH235380   5.063   2.819   6.773 -0.0750 -0.0369  0.1064
 4582TIP3    H135381   5.083   2.836   6.681  2.1195  1.3799  0.7776
 4582TIP3    H235382   5.136   2.764   6.803 -0.0891  0.5733  1.2934
 4583TIP3   OH235383   4.855   4.336   7.202 -0.3211 -0.7147  0.4850
 4583TIP3    H135384   4.869   4.358   7.294 -0.6478  1.6704  0.0428
 4583TIP3    H235385   4.809   4.412   7.166 -0.8016 -1.8731 -1.5074
 4584TIP3   OH235386   2.771   6.289   7.694 -0.2317 -0.1129 -0.7158
 4584TIP3    H135387   2.720   6.212   7.720  0.9391 -0.7511 -0.2339
 4584TIP3    H235388   2.819   6.261   7.617 -1.0511  0.6841 -1.5369
 4585TIP3   OH235389   2.815   0.263   0.344 -0.4333  0.2215  0.4696
 4585TIP3    H135390   2.739   0.218   0.307  0.6959 -0.7801 -0.7422
 4585TIP3    H235391   2.817   0.237   0.436 -1.8066  0.6343  0.6313
 4586TIP3   OH235392   6.797   0.577   7.445  0.1014  0.2021  0.8141
 4586TIP3    H135393   6.862   0.553   7.511 -0.8404 -0.8478  1.4072
 4586TIP3    H235394   6.751   0.652   7.483 -1.2073 -1.1103  1.9277
 4587TIP3   OH235395   2.144   4.696   0.129 -0.1888 -0.6158  0.0417
 4587TIP3    H135396   2.108   4.712   0.216 -1.9220 -1.0465 -0.5744
 4587TIP3    H235397   2.104   4.764   0.074  1.6610  0.2946 -0.2662
 4588TIP3   OH235398   5.841   6.600   7.932 -0.3562 -0.5283  1.0406
 4588TIP3    H135399   5.800   6.686   7.946 -0.7028 -0.4729 -0.2198
 4588TIP3    H235400   5.901   6.590   8.006  1.7186  1.9825 -0.1848
 4589TIP3   OH235401   0.583   0.053   0.759 -0.0670  0.0295 -0.0929
 4589TIP3    H135402   0.676   0.034   0.775 -0.3287 -0.7599  0.5376
 4589TIP3    H235403   0.555   0.101   0.838 -0.2037  0.2568 -0.2777
 4590TIP3   OH235404   6.661   4.817   0.479  0.1603 -0.3728  0.8080
 4590TIP3    H135405   6.735   4.789   0.532  0.7713 -0.2921  0.0140
 4590TIP3    H235406   6.698   4.833   0.392 -1.1131 -2.1903 -0.1264
 4591TIP3   OH235407   1.326   3.917   0.617 -0.5720 -0.3149 -0.2028
 4591TIP3    H135408   1.350   3.826   0.605  1.0294  0.1656 -0.9732
 4591TIP3    H235409   1.409   3.962   0.631 -1.2269  1.1563 -0.7894
 4592TIP3   OH235410   1.532   6.544   8.306  0.5373 -0.1019 -0.5584
 4592TIP3    H135411   1.473   6.589   8.367  0.2280  0.5774 -1.3273
 4592TIP3    H235412   1.501   6.454   8.304 -0.1705  0.1343 -0.5709
 4593TIP3   OH235413   1.530   2.783   7.490 -0.4265  0.0727  0.0756
 4593TIP3    H135414   1.481   2.733   7.425  1.4985 -0.0435 -1.3772
 4593TIP3    H235415   1.506   2.744   7.574 -1.3264 -1.2295 -0.7552
 4594TIP3   OH235416   2.211   3.254   8.182 -0.2919  0.5315  0.3368
 4594TIP3    H135417   2.230   3.207   8.101  0.1073 -1.5749  1.5725
 4594TIP3    H235418   2.285   3.315   8.192  0.2764 -0.0434 -0.2780
 4595TIP3   OH235419   0.148   4.516   6.271 -0.3520 -0.5510  0.1220
 4595TIP3    H135420   0.234   4.477   6.288 -0.2264 -0.4448 -0.2480
 4595TIP3    H235421   0.124   4.559   6.352  0.2547  0.0001  0.0134
 4596TIP3   OH235422   2.297   5.739   6.726  0.3679  0.0016 -0.1330
 4596TIP3    H135423   2.219   5.706   6.770  0.4565 -0.2214 -0.1412
 4596TIP3    H235424   2.266   5.765   6.639  0.3575 -0.3463 -0.2336
 4597TIP3   OH235425   3.261   1.236   7.406  0.3139  0.2203  0.4455
 4597TIP3    H135426   3.177   1.275   7.431  0.2906  0.2165  0.3726
 4597TIP3    H235427   3.239   1.171   7.339  0.5553  1.3730 -0.7811
 4598TIP3   OH235428   1.831   6.768   6.620 -0.1592  0.3098  0.0445
 4598TIP3    H135429   1.817   6.782   6.713 -1.0029 -0.3748  0.0295
 4598TIP3    H235430   1.786   6.686   6.600 -0.2736  0.6097 -1.0282
 4599TIP3   OH235431   6.411   4.665   0.533  0.3993 -0.0598 -0.2073
 4599TIP3    H135432   6.347   4.681   0.463 -0.4929 -2.0324  0.1142
 4599TIP3    H235433   6.495   4.691   0.494 -0.3807  1.3025 -1.0931
 4600TIP3   OH235434   0.413   6.567   2.018 -0.1693 -0.5377  0.2413
 4600TIP3    H135435   0.452   6.654   2.011  1.1115 -0.9962  1.3374
 4600TIP3    H235436   0.319   6.584   2.028 -0.6532  0.5387 -4.2088
 4601TIP3   OH235437   6.023   1.667   7.662  0.0599 -0.3172 -0.2066
 4601TIP3    H135438   5.935   1.697   7.687  0.5131  0.4734  0.4661
 4601TIP3    H235439   6.020   1.572   7.674 -0.5707 -0.2473  0.2365
 4602TIP3   OH235440   4.630   4.063   2.447  0.0282 -0.3340  0.6311
 4602TIP3    H135441   4.542   4.071   2.410  0.2507 -0.6581  0.0094
 4602TIP3    H235442   4.657   4.153   2.463 -0.6221 -0.2618  1.3280
 4603TIP3   OH235443   4.246   0.607   6.078  0.3801  0.3457  0.1270
 4603TIP3    H135444   4.306   0.539   6.047 -0.2993 -0.2019 -0.0156
 4603TIP3    H235445   4.161   0.582   6.042 -0.0096  0.9011  0.6432
 4604TIP3   OH235446   2.502   6.586   1.638  0.6084 -0.0168  0.9593
 4604TIP3    H135447   2.508   6.518   1.571 -2.4633  1.2414 -0.7544
 4604TIP3    H235448   2.450   6.655   1.598 -2.1676  0.4894  4.8578
 4605TIP3   OH235449   6.069   2.994   8.086  0.1085 -0.5504 -0.7245
 4605TIP3    H135450   6.126   2.939   8.139 -1.0808 -1.2715 -0.1445
 4605TIP3    H235451   6.048   2.941   8.009  0.9802  0.0910 -1.4291
 4606TIP3   OH235452   4.164   5.942   0.891  0.2991  0.4769 -0.2942
 4606TIP3    H135453   4.175   5.910   0.801 -1.3944 -1.8799  0.2242
 4606TIP3    H235454   4.128   6.030   0.881  1.9150  1.0347 -1.8707
 4607TIP3   OH235455   1.291   6.937   7.936  0.1171 -0.3939  0.1871
 4607TIP3    H135456   1.238   6.893   7.870  0.8942 -1.4655  0.2458
 4607TIP3    H235457   1.268   6.893   8.018 -0.9289  1.0093  0.6712
 4608TIP3   OH235458   5.460   4.798   0.862  0.1844  0.4723  0.0307
 4608TIP3    H135459   5.505   4.797   0.777  0.0028  2.1284 -0.1064
 4608TIP3    H235460   5.401   4.722   0.858 -0.2183  0.8251 -1.5473
 4609TIP3   OH235461   3.329   0.451   1.168 -0.0106 -0.1804 -0.1389
 4609TIP3    H135462   3.246   0.404   1.170 -0.1738  0.0823 -0.5228
 4609TIP3    H235463   3.304   0.544   1.168  0.1692 -0.0628 -2.7147
 4610TIP3   OH235464   0.793   4.331   6.891 -0.2388 -0.3240 -0.2672
 4610TIP3    H135465   0.716   4.363   6.844 -0.1333 -0.6263 -0.6496
 4610TIP3    H235466   0.770   4.243   6.919 -0.1541 -0.2918 -0.0960
 4611TIP3   OH235467   3.570   4.749   6.588 -0.6435 -0.4809 -0.2283
 4611TIP3    H135468   3.590   4.789   6.673  0.8613  1.6565 -1.5045
 4611TIP3    H235469   3.646   4.692   6.571  0.9250  1.8871 -1.6896
 4612TIP3   OH235470   2.741   6.946   1.251 -0.0806  0.1513  0.3437
 4612TIP3    H135471   2.728   6.907   1.337 -1.9293  1.1652  0.5563
 4612TIP3    H235472   2.660   6.929   1.204  0.4034  0.7509 -0.7532
 4613TIP3   OH235473   2.756   5.469   1.562 -0.1607  0.3239 -0.4943
 4613TIP3    H135474   2.772   5.417   1.484  2.6659 -1.9339  1.3352
 4613TIP3    H235475   2.731   5.405   1.629 -0.4351  1.8550  0.9469
 4614TIP3   OH235476   1.616   4.057   0.933 -0.1258 -0.3643  0.1168
 4614TIP3    H135477   1.571   4.075   0.850  0.3792  0.0895 -0.0669
 4614TIP3    H235478   1.659   4.139   0.955 -0.3963 -0.4306  0.9286
 4615TIP3   OH235479   0.755   3.204   7.170  0.1752  0.8078  0.2021
 4615TIP3    H135480   0.716   3.119   7.147 -0.8002  1.0560  0.8873
 4615TIP3    H235481   0.787   3.192   7.259 -0.3328  1.2700  0.4548
 4616TIP3   OH235482   3.825   2.911   2.076 -0.0118  0.3365 -0.4552
 4616TIP3    H135483   3.843   2.944   1.988 -1.6713  1.8195 -0.2991
 4616TIP3    H235484   3.909   2.916   2.121  0.2673  2.3832 -1.1069
 4617TIP3   OH235485   2.391   3.691   0.426 -0.5518  0.6874 -0.2692
 4617TIP3    H135486   2.421   3.772   0.466 -0.8404  0.6200  0.0859
 4617TIP3    H235487   2.451   3.676   0.353  2.6633 -1.3631  2.5092
 4618TIP3   OH235488   2.174   5.332   8.066 -0.3929 -0.1330  0.0819
 4618TIP3    H135489   2.221   5.285   8.135  1.0677 -0.7442 -1.2547
 4618TIP3    H235490   2.243   5.379   8.019 -1.4586  0.9208 -0.4751
 4619TIP3   OH235491   4.168   0.780   6.522 -0.6446  0.2436  0.1533
 4619TIP3    H135492   4.203   0.707   6.472 -0.6443 -0.3272  0.9646
 4619TIP3    H235493   4.197   0.763   6.612  1.0090  2.2488  0.0741
 4620TIP3   OH235494   0.112   6.464   1.484  0.2322  0.1684  0.3784
 4620TIP3    H135495   0.201   6.437   1.509 -0.1800 -1.7905 -0.0681
 4620TIP3    H235496   0.071   6.490   1.566  0.8887  0.0529  0.7566
 4621TIP3   OH235497   4.484   0.030   6.926  0.1404  0.1595  0.2000
 4621TIP3    H135498   4.407   0.049   6.872 -0.1390 -0.0420  0.5183
 4621TIP3    H235499   4.559   0.050   6.870 -0.0773  3.1901  0.7819
 4622TIP3   OH235500   1.294   5.876   0.466 -0.0383 -0.0694 -0.2208
 4622TIP3    H135501   1.310   5.830   0.384  0.9162  1.9873 -1.2406
 4622TIP3    H235502   1.374   5.865   0.516 -0.0360 -0.0038 -0.2104
 4623TIP3   OH235503   5.345   6.949   7.429  0.8462 -0.2139 -0.2768
 4623TIP3    H135504   5.358   6.884   7.360 -0.4601  0.9069 -1.6762
 4623TIP3    H235505   5.292   7.017   7.387  1.1935  1.1982  1.4566
 4624TIP3   OH235506   3.275   0.053   6.511 -0.1343  0.3251  0.1750
 4624TIP3    H135507   3.308  -0.009   6.446 -0.8727 -0.3287  0.4016
 4624TIP3    H235508   3.254   0.131   6.460  1.5014  0.6895 -0.0072
 4625TIP3   OH235509   5.586   6.571   6.265  0.1551  0.3451  0.6168
 4625TIP3    H135510   5.532   6.531   6.334  1.3863 -0.8936  0.9092
 4625TIP3    H235511   5.639   6.498   6.231 -0.2456  0.9642 -1.5042
 4626TIP3   OH235512   3.611   3.406   6.740 -0.1624  0.2408  0.1720
 4626TIP3    H135513   3.671   3.379   6.810  0.1295 -3.0191 -1.1418
 4626TIP3    H235514   3.654   3.482   6.700  1.3913  0.0742  1.4136
 4627TIP3   OH235515   1.100   3.948   0.236 -0.5477 -0.0340  0.0263
 4627TIP3    H135516   1.009   3.920   0.241 -0.0626 -1.6001  1.1696
 4627TIP3    H235517   1.115   3.998   0.316  0.1840 -1.8745  1.1062
 4628TIP3   OH235518   4.994   4.290   8.197  0.2229 -0.9401  0.2615
 4628TIP3    H135519   5.001   4.260   8.106  1.4283 -0.7884  0.2860
 4628TIP3    H235520   5.004   4.211   8.249  1.1246 -0.8323  0.2769
 4629TIP3   OH235521   0.704   5.734   6.861 -0.2540 -0.0414  0.6442
 4629TIP3    H135522   0.708   5.748   6.766  1.9537  0.1709  0.7146
 4629TIP3    H235523   0.714   5.639   6.871 -0.9067 -0.1121  0.6633
 4630TIP3   OH235524   2.915   3.010   7.215 -0.4901 -0.0089 -0.6061
 4630TIP3    H135525   2.952   2.932   7.256  0.6866 -0.3157 -2.1553
 4630TIP3    H235526   2.824   2.987   7.199 -0.5095 -0.5420  0.2028
 4631TIP3   OH235527   0.886   1.682   1.461  0.1788 -0.1240 -0.4413
 4631TIP3    H135528   0.823   1.631   1.410 -0.1507 -0.6911  0.5265
 4631TIP3    H235529   0.833   1.736   1.519  0.5832 -0.9243  0.6891
 4632TIP3   OH235530   6.890   4.313   6.370  0.3920  0.6030  0.7324
 4632TIP3    H135531   6.944   4.391   6.356  0.0044  0.5597 -1.3779
 4632TIP3    H235532   6.832   4.337   6.443 -0.3613  2.6975 -0.4501
 4633TIP3   OH235533   3.015   0.627   0.943  0.0344 -0.0465  0.1200
 4633TIP3    H135534   2.948   0.688   0.972  2.5158  2.5946  0.7611
 4633TIP3    H235535   2.976   0.583   0.867 -3.0918 -0.1811  1.6606
 4634TIP3   OH235536   5.164   1.902   0.595  0.2568  0.1722 -0.0046
 4634TIP3    H135537   5.241   1.930   0.644  0.1882 -1.6755  1.2781
 4634TIP3    H235538   5.090   1.925   0.652  0.0274 -0.0296 -0.2212
 4635TIP3   OH235539   3.887   5.863   8.555 -0.1095  0.5031 -0.0571
 4635TIP3    H135540   3.958   5.917   8.589  0.5921 -0.1918 -0.3733
 4635TIP3    H235541   3.808   5.901   8.592  0.5566  0.2503  1.7266
 4636TIP3   OH235542   4.431   5.709   0.212 -0.4383 -0.3392  0.5037
 4636TIP3    H135543   4.523   5.685   0.215 -0.1770  0.6524  1.1038
 4636TIP3    H235544   4.431   5.800   0.182 -1.2109 -0.2861  0.6350
 4637TIP3   OH235545   3.081   0.713   8.162  0.4380 -0.0046 -0.1425
 4637TIP3    H135546   3.159   0.765   8.182  0.6406  0.3670 -1.7662
 4637TIP3    H235547   3.045   0.754   8.084 -1.1999 -0.4022  0.3740
 4638TIP3   OH235548   5.406   1.348   5.987  0.0900 -0.2919 -0.0957
 4638TIP3    H135549   5.445   1.264   5.965  0.5314  0.0068 -0.4835
 4638TIP3    H235550   5.316   1.328   6.013  0.0189 -0.8199 -0.7363
 4639TIP3   OH235551   4.591   5.449   8.394 -0.4203 -0.1740 -0.3247
 4639TIP3    H135552   4.659   5.508   8.362 -0.5731  0.1019 -0.1398
 4639TIP3    H235553   4.550   5.497   8.466 -1.3131 -0.0268 -0.9228
 4640TIP3   OH235554   1.781   3.173   0.861  0.2473  0.7692  0.4559
 4640TIP3    H135555   1.783   3.095   0.916  1.0457  1.2146  1.0736
 4640TIP3    H235556   1.703   3.221   0.890 -0.0600  0.3666  0.3010
 4641TIP3   OH235557   0.865   3.459   7.936 -0.2007 -0.3251 -0.6159
 4641TIP3    H135558   0.805   3.526   7.968  1.5834  0.5758  1.1019
 4641TIP3    H235559   0.919   3.437   8.012  1.7179 -0.9815 -2.0850
 4642TIP3   OH235560   3.347   5.003   7.424  0.1162 -0.4300  0.2013
 4642TIP3    H135561   3.408   5.059   7.375 -1.6196  1.9751  0.5989
 4642TIP3    H235562   3.296   5.064   7.477 -0.5303 -2.6288  2.2923
 4643TIP3   OH235563   0.033   4.919   7.824  0.2100 -0.2317  0.2331
 4643TIP3    H135564   0.083   4.997   7.800 -0.8743  0.4088 -0.0234
 4643TIP3    H235565   0.097   4.849   7.827  1.8740  1.1944  3.5835
 4644TIP3   OH235566   5.140   4.124   0.172 -0.7965  0.4532 -0.0904
 4644TIP3    H135567   5.230   4.092   0.174 -0.7116  0.5965 -0.9799
 4644TIP3    H235568   5.146   4.207   0.125 -1.3999  0.4327 -0.2062
 4645TIP3   OH235569   3.174   5.267   0.911  0.2784 -0.0974  0.2519
 4645TIP3    H135570   3.152   5.240   1.000  1.2086  0.0493  0.5305
 4645TIP3    H235571   3.190   5.361   0.917 -0.2200  0.0226 -0.1884
 4646TIP3   OH235572   6.497   1.904   0.605  0.5274 -0.3546 -0.0759
 4646TIP3    H135573   6.504   1.813   0.633  1.3899  0.3651  2.2849
 4646TIP3    H235574   6.435   1.943   0.666  0.6408  0.8074 -0.6745
 4647TIP3   OH235575   2.884   0.542   1.171  0.0293  0.2378 -0.7924
 4647TIP3    H135576   2.944   0.483   1.216  0.2635 -0.2110 -1.6757
 4647TIP3    H235577   2.930   0.569   1.093 -0.3362  1.0939 -0.7229
 4648TIP3   OH235578   5.814   1.398   6.881 -0.0483  0.0155 -0.6341
 4648TIP3    H135579   5.743   1.430   6.936 -0.2515 -0.3215 -0.6958
 4648TIP3    H235580   5.894   1.429   6.923 -0.2788  2.0624 -1.6151
 4649TIP3   OH235581   3.255   4.478   7.257 -0.3031 -0.2598  0.2773
 4649TIP3    H135582   3.334   4.478   7.203 -0.3023 -0.3920  0.2757
 4649TIP3    H235583   3.250   4.566   7.293 -0.6257  0.0153 -0.4077
 4650TIP3   OH235584   4.360   3.112   1.980 -0.1382 -0.1990 -0.0193
 4650TIP3    H135585   4.409   3.053   2.038 -1.1973 -1.1657 -0.0562
 4650TIP3    H235586   4.426   3.168   1.941  0.6495  0.4192  2.0341
 4651TIP3   OH235587   1.359   2.296   0.325 -1.0723  0.8529 -1.0607
 4651TIP3    H135588   1.272   2.332   0.307 -1.7267 -0.5129 -0.7188
 4651TIP3    H235589   1.344   2.231   0.394  0.2094  0.5136 -1.0844
 4652TIP3   OH235590   1.575   5.933   6.650  0.2378  0.2376 -0.1160
 4652TIP3    H135591   1.483   5.959   6.657  0.1653 -0.2106  0.7096
 4652TIP3    H235592   1.573   5.842   6.620  0.4040  0.1256  0.2090
 4653TIP3   OH235593   0.173   0.535   7.211  0.1805 -0.0608 -0.1315
 4653TIP3    H135594   0.173   0.457   7.156 -0.4938 -0.6372  0.6709
 4653TIP3    H235595   0.235   0.515   7.281  1.0350  0.6702 -0.6499
 4654TIP3   OH235596   6.364   6.480   0.719  0.4249 -0.3228 -0.2302
 4654TIP3    H135597   6.416   6.400   0.726  0.1216 -0.5950 -0.9854
 4654TIP3    H235598   6.332   6.480   0.629 -0.0886  0.3355 -0.0554
 4655TIP3   OH235599   5.182   3.885   1.622  0.3036 -0.1734  0.0671
 4655TIP3    H135600   5.090   3.873   1.598 -0.0984  0.6779  1.1182
 4655TIP3    H235601   5.203   3.806   1.672  0.1839 -0.4326 -0.2879
 4656TIP3   OH235602   2.157   2.038   1.704  0.1359 -0.0468 -0.2494
 4656TIP3    H135603   2.190   1.952   1.729 -2.6070 -1.0518  0.2911
 4656TIP3    H235604   2.098   2.020   1.631  0.4107  1.5582 -0.9054
 4657TIP3   OH235605   6.481   5.353   1.462  0.0067  1.1788  0.1881
 4657TIP3    H135606   6.501   5.360   1.555 -2.6424  0.1303  0.9147
 4657TIP3    H235607   6.484   5.443   1.430  0.5336  1.6049  1.3839
 4658TIP3   OH235608   0.580   4.288   0.156  0.2702 -0.2899 -0.2259
 4658TIP3    H135609   0.643   4.296   0.227 -0.6261  0.6782  0.4878
 4658TIP3    H235610   0.585   4.371   0.109 -2.3802  0.9654  1.5074
 4659TIP3   OH235611   1.739   4.831   1.952 -0.3495  0.5005 -0.2042
 4659TIP3    H135612   1.826   4.792   1.953  0.0187  1.3116  1.1142
 4659TIP3    H235613   1.712   4.833   2.043 -1.7603  0.2663 -0.5957
 4660TIP3   OH235614   5.124   4.677   0.937  0.1248  0.2252 -0.5436
 4660TIP3    H135615   5.202   4.665   0.882  0.7274  0.1363  0.3142
 4660TIP3    H235616   5.159   4.702   1.022 -0.6336 -2.1351  0.5309
 4661TIP3   OH235617   6.844   6.780   1.304  0.3325 -0.0201 -0.4860
 4661TIP3    H135618   6.889   6.816   1.380 -0.6995 -0.8237  0.5576
 4661TIP3    H235619   6.906   6.789   1.232  0.0824  4.0108 -0.4140
 4662TIP3   OH235620   1.645   5.253   0.140  0.3569 -0.4310  0.5694
 4662TIP3    H135621   1.690   5.241   0.056  0.2756 -0.4936  0.5338
 4662TIP3    H235622   1.669   5.341   0.168  1.9409 -1.0885  1.4193
 4663TIP3   OH235623   2.049   6.825   7.724  0.0593  0.5247  0.1121
 4663TIP3    H135624   1.995   6.895   7.690  0.5285  1.7476  1.7742
 4663TIP3    H235625   2.001   6.791   7.800  1.5913  1.7781  1.7529
 4664TIP3   OH235626   6.011   5.290   6.873  0.1909 -0.3145  0.0976
 4664TIP3    H135627   6.065   5.346   6.930 -0.0033  1.0852 -1.0334
 4664TIP3    H235628   5.949   5.350   6.832  0.1710 -1.3134 -1.4159
 4665TIP3   OH235629   2.243   4.096   6.843 -0.2822  0.2725 -0.1385
 4665TIP3    H135630   2.194   4.102   6.761 -0.6317  1.4643  0.1345
 4665TIP3    H235631   2.324   4.051   6.820 -0.7602 -0.1962 -0.9466
 4666TIP3   OH235632   0.042   2.357   1.951 -0.2660  0.6953 -0.2065
 4666TIP3    H135633   0.092   2.312   2.018 -0.6280  0.5184 -0.0497
 4666TIP3    H235634   0.108   2.396   1.893  0.0447  1.1789  0.4654
 4667TIP3   OH235635   4.402   4.125   7.995  0.5599 -0.5853 -0.3456
 4667TIP3    H135636   4.495   4.151   7.990 -0.3923  3.2331 -2.1193
 4667TIP3    H235637   4.379   4.102   7.906 -0.5551  0.2176 -0.2891
 4668TIP3   OH235638   5.215   2.475   0.201 -0.1262 -0.1206  0.3772
 4668TIP3    H135639   5.205   2.567   0.178  0.5967 -0.1105  0.0675
 4668TIP3    H235640   5.169   2.465   0.284  1.5051  0.9853  1.4559
 4669TIP3   OH235641   2.502   1.787   0.387 -0.4588 -0.0832  0.5513
 4669TIP3    H135642   2.425   1.807   0.333  0.9390 -0.1352 -1.5882
 4669TIP3    H235643   2.571   1.843   0.351  0.3521  0.5188  2.9120
 4670TIP3   OH235644   3.364   6.788   7.956 -0.2559  0.9665  0.7398
 4670TIP3    H135645   3.277   6.750   7.942  0.3725 -0.2297 -0.1247
 4670TIP3    H235646   3.419   6.745   7.891  1.1671  1.0671  1.8315
 4671TIP3   OH235647   6.911   2.575   1.748 -0.0107 -0.4354  0.4509
 4671TIP3    H135648   6.880   2.632   1.677  0.3150 -0.6702  0.1186
 4671TIP3    H235649   6.981   2.625   1.790  2.2289 -1.6342 -1.5674
 4672TIP3   OH235650   2.036   4.310   0.788  0.1886  0.5841  0.1989
 4672TIP3    H135651   2.067   4.258   0.862 -0.0080  0.2736  0.0651
 4672TIP3    H235652   2.078   4.395   0.799  1.6812 -0.0539 -0.4044
 4673TIP3   OH235653   2.689   6.058   7.792  0.4524 -0.3395  0.6606
 4673TIP3    H135654   2.744   5.989   7.756  1.8466  2.1416 -2.3355
 4673TIP3    H235655   2.608   6.053   7.741  0.1200 -0.3949  1.1817
 4674TIP3   OH235656   1.210   4.341   8.378  0.1954 -0.2885 -0.5571
 4674TIP3    H135657   1.198   4.246   8.370  1.6728 -0.4319 -1.4675
 4674TIP3    H235658   1.305   4.353   8.378  0.1833  0.9705  2.6454
 4675TIP3   OH235659   3.186   2.277   0.061 -0.0204  0.0174  0.1596
 4675TIP3    H135660   3.218   2.193   0.028  0.6542 -0.2235  1.3696
 4675TIP3    H235661   3.264   2.320   0.097 -0.6171  0.5088  0.9009
 4676TIP3   OH235662   1.311   3.151   1.786 -0.1202  0.0465  0.5310
 4676TIP3    H135663   1.221   3.121   1.798 -0.1089  0.4279  1.6692
 4676TIP3    H235664   1.319   3.227   1.843  0.8810  0.1054  0.3338
 4677TIP3   OH235665   6.653   4.313   8.226  0.3424  0.3993  0.4303
 4677TIP3    H135666   6.594   4.357   8.165  0.0346  1.6991  1.6167
 4677TIP3    H235667   6.680   4.233   8.180 -1.5619  0.2517 -0.5393
 4678TIP3   OH235668   1.333   3.021   0.843  0.3162 -0.0658 -0.1055
 4678TIP3    H135669   1.390   2.962   0.893  2.4121  1.5334 -0.4773
 4678TIP3    H235670   1.327   2.982   0.756 -1.7920 -1.8573  0.7447
 4679TIP3   OH235671   1.403   3.923   8.430 -0.0064 -0.0468 -0.6603
 4679TIP3    H135672   1.361   3.990   8.377 -0.8337 -0.5663 -0.6794
 4679TIP3    H235673   1.333   3.891   8.488  0.9894  0.9036  1.1707
 4680TIP3   OH235674   3.951   0.234   1.453  0.0994  0.2129 -0.6260
 4680TIP3    H135675   4.000   0.317   1.450  0.6067 -0.1006 -1.1574
 4680TIP3    H235676   3.973   0.197   1.539 -1.8027  1.6091  0.5554
 4681TIP3   OH235677   2.043   2.011   6.590  0.3543  0.1049  0.2058
 4681TIP3    H135678   1.982   2.027   6.518 -0.0961  1.3619  0.8241
 4681TIP3    H235679   2.111   2.078   6.579 -0.2078  0.9216  1.4358
 4682TIP3   OH235680   5.090   6.770   7.164  0.2271 -0.4168 -0.4863
 4682TIP3    H135681   5.110   6.839   7.100 -1.8528  0.0126 -0.7342
 4682TIP3    H235682   5.080   6.691   7.111  0.6575 -0.5090 -0.4318
 4683TIP3   OH235683   5.556   4.887   0.620 -0.5776  0.2729  0.0608
 4683TIP3    H135684   5.580   4.809   0.570  1.3601  0.2917  0.8713
 4683TIP3    H235685   5.566   4.960   0.559  2.0904  0.3360  0.4541
 4684TIP3   OH235686   1.335   2.997   7.443  0.5984 -0.0510 -0.1475
 4684TIP3    H135687   1.414   2.949   7.469  0.9904  0.4257 -0.4397
 4684TIP3    H235688   1.290   3.014   7.526  1.1960  0.3516  0.1067
 4685TIP3   OH235689   0.698   0.300   1.595  0.1819 -0.4761  0.1075
 4685TIP3    H135690   0.646   0.231   1.636  0.3263 -0.9147 -0.4401
 4685TIP3    H235691   0.718   0.361   1.666 -1.6320  0.0504  0.2166
 4686TIP3   OH235692   6.287   0.086   0.628 -0.2479  0.7466 -0.1238
 4686TIP3    H135693   6.257   0.023   0.562  1.5774  0.5732 -0.8591
 4686TIP3    H235694   6.233   0.068   0.705 -0.1674 -1.3531 -0.4949
 4687TIP3   OH235695   0.829   6.185   8.450  0.4490 -0.0657  0.0920
 4687TIP3    H135696   0.789   6.219   8.530 -2.1512 -1.1563 -0.6463
 4687TIP3    H235697   0.858   6.262   8.403  0.2650  0.7136  1.2181
 4688TIP3   OH235698   6.950   3.444   8.519 -0.0609  0.2337 -0.0364
 4688TIP3    H135699   6.866   3.406   8.547  0.3721 -0.4329  0.3892
 4688TIP3    H235700   6.963   3.411   8.430 -0.0249 -0.0498  0.0732
 4689TIP3   OH235701   3.356   6.526   6.891  0.3999 -0.0482  0.4993
 4689TIP3    H135702   3.365   6.431   6.898 -1.0237 -0.2565 -0.1978
 4689TIP3    H235703   3.438   6.555   6.850  1.1896 -0.8611  1.4619
 4690TIP3   OH235704   1.390   0.861   8.542 -0.4997 -0.4403  0.7096
 4690TIP3    H135705   1.481   0.856   8.514 -0.2935 -1.3193  1.4600
 4690TIP3    H235706   1.392   0.915   8.621 -0.9505  1.2923 -0.4132
 4691TIP3   OH235707   1.210   3.455   2.133  0.1897  0.0769 -0.2712
 4691TIP3    H135708   1.155   3.529   2.159 -0.1782  0.1131 -1.1318
 4691TIP3    H235709   1.295   3.473   2.175 -0.1454  0.5428  0.2264
 4692TIP3   OH235710   6.431   1.945   1.271  0.9847  0.0351 -0.0831
 4692TIP3    H135711   6.358   1.899   1.229  1.0987  0.6348 -0.9635
 4692TIP3    H235712   6.400   2.035   1.279  0.5552 -0.2580  2.1120
 4693TIP3   OH235713   6.766   2.720   6.564  0.3103  0.5356  0.0603
 4693TIP3    H135714   6.848   2.719   6.515 -0.3655 -1.6481 -1.1712
 4693TIP3    H235715   6.702   2.761   6.505  0.0133  0.1044  0.0779
 4694TIP3   OH235716   5.564   5.695   1.199  0.4126  0.2770  0.4723
 4694TIP3    H135717   5.613   5.714   1.120  1.7670 -0.8534  0.9995
 4694TIP3    H235718   5.475   5.725   1.180  0.7046  0.0363 -1.4624
 4695TIP3   OH235719   1.152   6.768   6.761 -0.2717  0.8253 -0.2361
 4695TIP3    H135720   1.194   6.704   6.704 -0.1714  0.8146 -0.1513
 4695TIP3    H235721   1.068   6.786   6.720 -1.1578 -0.8322  0.7454
 4696TIP3   OH235722   4.923   3.426   2.203 -0.1433  1.1542 -0.0733
 4696TIP3    H135723   4.955   3.349   2.249 -1.5026  0.1890 -0.6800
 4696TIP3    H235724   4.834   3.403   2.177 -0.5128  2.8610 -0.4413
 4697TIP3   OH235725   1.937   5.161   1.545 -0.5051  0.5996 -0.0101
 4697TIP3    H135726   2.024   5.122   1.556 -1.0284 -0.6046  0.0785
 4697TIP3    H235727   1.887   5.128   1.620 -1.4515  0.0322 -0.8536
 4698TIP3   OH235728   2.754   1.234   0.727 -0.4273  0.2787  0.1042
 4698TIP3    H135729   2.764   1.300   0.796 -0.2845 -0.2757  0.6240
 4698TIP3    H235730   2.736   1.285   0.648  0.5395  0.9976  0.3168
 4699TIP3   OH235731   5.462   0.605   2.257 -0.7865  0.0267 -0.2930
 4699TIP3    H135732   5.516   0.533   2.290  1.8295  2.3483  0.9413
 4699TIP3    H235733   5.372   0.579   2.276  0.1473 -2.1750  1.6102
 4700TIP3   OH235734   2.391   4.604   7.210  0.3080 -0.0254 -0.0379
 4700TIP3    H135735   2.463   4.576   7.153 -0.3701 -0.5987 -0.6233
 4700TIP3    H235736   2.408   4.697   7.226  0.7180  0.0536 -0.8667
 4701TIP3   OH235737   5.503   4.652   7.728  0.0855 -0.9146  0.1116
 4701TIP3    H135738   5.449   4.724   7.695  1.2728  0.2202  0.5201
 4701TIP3    H235739   5.593   4.679   7.708  0.5436 -2.5261 -0.1387
 4702TIP3   OH235740   5.749   3.832   0.029  0.2552  1.0376  0.1795
 4702TIP3    H135741   5.833   3.796   0.059  1.5060  3.0134 -0.7484
 4702TIP3    H235742   5.684   3.782   0.077  1.9772 -0.0648  1.5130
 4703TIP3   OH235743   0.901   2.522   7.928 -0.2769  0.3875  0.6363
 4703TIP3    H135744   0.949   2.440   7.942 -1.9108 -0.5267  1.2487
 4703TIP3    H235745   0.920   2.547   7.838 -1.6244 -2.0265 -0.4246
 4704TIP3   OH235746   4.318   6.010   6.789 -0.1867 -0.4461  0.5016
 4704TIP3    H135747   4.351   6.045   6.706 -1.0067 -1.4266 -0.2650
 4704TIP3    H235748   4.298   5.918   6.770 -0.6512 -0.6133  1.7127
 4705TIP3   OH235749   5.275   2.887   8.405 -0.5748  0.3015  0.0561
 4705TIP3    H135750   5.250   2.948   8.335  0.6513  1.0923  0.2810
 4705TIP3    H235751   5.266   2.938   8.485  0.3441  0.1596  0.2591
 4706TIP3   OH235752   5.699   3.386   8.332 -0.4428  0.1452 -0.1564
 4706TIP3    H135753   5.772   3.327   8.313 -0.7092 -0.2547  0.0618
 4706TIP3    H235754   5.694   3.444   8.256 -0.1057 -0.0345 -0.3156
 4707TIP3   OH235755   5.257   0.461   6.774  0.0229 -0.9277 -0.1459
 4707TIP3    H135756   5.208   0.519   6.833 -0.5600 -1.1710 -0.3856
 4707TIP3    H235757   5.280   0.516   6.700 -1.2270 -1.1792 -0.7532
 4708TIP3   OH235758   3.619   6.437   2.273  0.3898  0.2828 -0.1173
 4708TIP3    H135759   3.603   6.531   2.279 -0.2041  0.1831 -0.1392
 4708TIP3    H235760   3.686   6.428   2.206  0.7166  0.7188  0.1439
 4709TIP3   OH235761   3.408   0.870   7.384  0.0645 -0.0120  0.3243
 4709TIP3    H135762   3.387   0.956   7.421  1.2585  0.8313 -0.8851
 4709TIP3    H235763   3.345   0.811   7.425 -2.3020  1.7877 -0.5065
 4710TIP3   OH235764   6.094   4.979   8.482 -0.5456 -0.1820  0.0650
 4710TIP3    H135765   6.099   4.908   8.417 -1.1652  0.2847 -0.5092
 4710TIP3    H235766   6.004   5.012   8.474 -1.1246 -1.0527  2.1678
 4711TIP3   OH235767   3.196   5.300   6.316  0.1456 -0.3343  0.7220
 4711TIP3    H135768   3.276   5.291   6.368 -1.5887 -1.2558  3.3608
 4711TIP3    H235769   3.138   5.232   6.348 -2.2710  1.2217 -0.1126
 4712TIP3   OH235770   4.539   2.642   2.418 -0.0552 -0.6704 -0.3586
 4712TIP3    H135771   4.550   2.612   2.509 -0.0448  2.8404  0.9687
 4712TIP3    H235772   4.627   2.637   2.381  0.6034  0.6874  0.8963
 4713TIP3   OH235773   1.165   0.011   7.319 -0.2169 -0.3124  0.8628
 4713TIP3    H135774   1.201  -0.077   7.310 -2.0931 -1.1137  0.9785
 4713TIP3    H235775   1.102   0.005   7.390 -1.7313  0.6704 -0.3475
 4714TIP3   OH235776   6.586   0.989   1.088  0.2029 -0.0242 -0.9788
 4714TIP3    H135777   6.540   0.917   1.044  1.1123 -0.5903 -1.0514
 4714TIP3    H235778   6.551   0.990   1.177  0.3583 -0.7414 -0.8982
 4715TIP3   OH235779   6.575   2.782   1.293 -0.2626  0.5506  0.0032
 4715TIP3    H135780   6.664   2.754   1.270 -0.1124  0.1030  1.0548
 4715TIP3    H235781   6.560   2.744   1.380 -0.8239  2.0638  0.6063
 4716TIP3   OH235782   0.570   0.566   1.738 -0.0180  0.4595 -0.0727
 4716TIP3    H135783   0.586   0.594   1.648  1.2983  1.1582  0.3519
 4716TIP3    H235784   0.651   0.524   1.765 -0.3841  0.2994  0.8045
 4717TIP3   OH235785   1.576   2.771   1.989  0.2985 -0.2081  0.0989
 4717TIP3    H135786   1.553   2.858   1.957 -0.7141 -0.9988 -1.4278
 4717TIP3    H235787   1.649   2.786   2.050 -0.9340  1.8632  1.1806
 4718TIP3   OH235788   3.096   0.395   0.515  0.7439  0.1251  0.7180
 4718TIP3    H135789   3.116   0.318   0.568  0.2163  0.4844  1.4462
 4718TIP3    H235790   3.071   0.359   0.430  1.5959 -0.4523  0.6948
 4719TIP3   OH235791   1.977   5.138   6.843  0.4887  0.2788  0.3132
 4719TIP3    H135792   1.926   5.134   6.762 -0.4242 -2.7560  0.9010
 4719TIP3    H235793   2.068   5.138   6.813  0.1649  0.2161 -0.7419
 4720TIP3   OH235794   3.589   6.916   7.661 -0.2982 -0.2841 -0.2301
 4720TIP3    H135795   3.631   6.941   7.743 -1.2732 -0.9959  0.5008
 4720TIP3    H235796   3.604   6.822   7.654  0.4377 -0.1102 -1.2718
 4721TIP3   OH235797   4.590   4.370   1.121 -0.3559 -0.1657  0.1770
 4721TIP3    H135798   4.506   4.347   1.081  0.0143 -1.2543 -0.0126
 4721TIP3    H235799   4.588   4.465   1.127 -0.1057  0.1705 -3.1890
 4722TIP3   OH235800   5.594   2.064   8.268  0.0014 -0.4743  0.1437
 4722TIP3    H135801   5.540   2.102   8.337 -1.9670 -0.4977 -1.3098
 4722TIP3    H235802   5.537   2.001   8.224  0.6809  0.5145 -2.3601
 4723TIP3   OH235803   6.040   2.039   8.244  0.0898  0.4410  0.4528
 4723TIP3    H135804   5.947   2.028   8.262  0.0689 -1.8530 -0.5892
 4723TIP3    H235805   6.077   1.951   8.257  2.2731  1.4353  1.5767
 4724TIP3   OH235806   2.835   4.852   0.335 -0.1806 -0.2754  0.5173
 4724TIP3    H135807   2.792   4.807   0.262 -0.4375  2.0396 -0.8468
 4724TIP3    H235808   2.811   4.944   0.324  2.4743  0.6328  1.5886
 4725TIP3   OH235809   3.035   4.784   8.523  0.1250  0.0491  0.7146
 4725TIP3    H135810   2.990   4.750   8.445  0.5045 -0.2173  0.6051
 4725TIP3    H235811   3.127   4.790   8.496  0.3011 -0.2963  1.2296
 4726TIP3   OH235812   4.332   4.621   1.716  0.1946 -0.3674  0.7241
 4726TIP3    H135813   4.394   4.675   1.764  1.2031  0.7802 -1.7031
 4726TIP3    H235814   4.378   4.537   1.704  1.7815  0.7283 -1.7528
 4727TIP3   OH235815   6.016   6.075   8.337 -0.5279 -0.2598  0.5875
 4727TIP3    H135816   6.034   6.151   8.282 -1.1552  0.2913  1.1323
 4727TIP3    H235817   6.094   6.020   8.327  0.9330  1.4678  1.8979
 4728TIP3   OH235818   6.914   1.146   7.126 -0.0451 -0.4119 -0.2124
 4728TIP3    H135819   6.961   1.227   7.104 -1.3541 -0.0777 -2.0524
 4728TIP3    H235820   6.970   1.076   7.093  0.4594 -0.1829  0.1512
 4729TIP3   OH235821   5.387   3.685   0.328 -0.2938  0.1794  0.2790
 4729TIP3    H135822   5.338   3.620   0.379 -0.0970 -1.6417 -1.7246
 4729TIP3    H235823   5.464   3.704   0.382 -0.6033 -0.8998  1.1454
 4730TIP3   OH235824   4.614   6.225   1.118  0.3026  0.1711 -0.1275
 4730TIP3    H135825   4.643   6.218   1.208  1.5363 -0.2833 -0.5437
 4730TIP3    H235826   4.546   6.293   1.120  1.2211  1.1038  0.9225
 4731TIP3   OH235827   1.937   6.927   0.561 -0.1184 -0.5714 -0.0270
 4731TIP3    H135828   1.933   6.970   0.476 -0.5070  0.4375  0.4855
 4731TIP3    H235829   2.021   6.881   0.561 -0.2214 -0.7623 -1.0391
 4732TIP3   OH235830   2.886   0.261   0.817 -0.1572  0.2721  0.3900
 4732TIP3    H135831   2.860   0.233   0.905 -0.6371 -1.5432 -0.2998
 4732TIP3    H235832   2.980   0.279   0.826 -0.5539  1.9627  1.6912
 4733TIP3   OH235833   2.027   0.412   0.243  0.3159  0.4443  0.5219
 4733TIP3    H135834   2.066   0.444   0.324  2.4464  0.8954 -0.5948
 4733TIP3    H235835   2.100   0.413   0.180 -0.9304 -1.1883 -1.0379
 4734TIP3   OH235836   6.157   6.751   8.396 -0.1206  0.4768 -0.3439
 4734TIP3    H135837   6.156   6.835   8.352 -1.9670 -0.6512 -2.6496
 4734TIP3    H235838   6.241   6.712   8.371 -0.9400  0.0422 -2.6563
 4735TIP3   OH235839   0.290   0.991   0.640  0.2222  0.6313  0.1702
 4735TIP3    H135840   0.248   1.067   0.678  0.4190  0.1803  1.3352
 4735TIP3    H235841   0.253   0.984   0.552 -1.0361  1.0943  0.6401
 4736TIP3   OH235842   1.063   5.153   1.498  0.0599  1.1825 -0.2887
 4736TIP3    H135843   1.048   5.239   1.460  1.0737  0.4963 -2.3922
 4736TIP3    H235844   1.043   5.092   1.428  1.6591 -0.1970  0.3755
 4737TIP3   OH235845   5.113   5.691   7.841  0.0379  0.2162 -0.1298
 4737TIP3    H135846   5.202   5.715   7.867  0.5771 -0.8472 -0.8872
 4737TIP3    H235847   5.114   5.595   7.842 -1.5827  0.1775  1.4060
 4738TIP3   OH235848   4.970   1.451   0.789 -0.3821 -0.6220 -0.5784
 4738TIP3    H135849   4.918   1.450   0.869  0.6113 -2.1664  0.0912
 4738TIP3    H235850   5.061   1.457   0.819 -0.0522 -0.0317 -1.6400
 4739TIP3   OH235851   0.632   6.048   8.325  0.3890  0.0871 -0.3400
 4739TIP3    H135852   0.659   6.040   8.234 -0.0517  0.6895 -0.5342
 4739TIP3    H235853   0.707   6.088   8.369 -0.1225  1.7375 -0.8724
 4740TIP3   OH235854   6.014   5.283   7.661  0.0818 -0.1158  0.1991
 4740TIP3    H135855   6.075   5.355   7.677 -0.2838 -0.1714  2.1033
 4740TIP3    H235856   5.936   5.307   7.711  0.1215 -2.0444  1.2613
 4741TIP3   OH235857   1.474   2.725   0.045  0.4608 -0.1125 -0.2373
 4741TIP3    H135858   1.514   2.658  -0.009 -1.6715 -0.8405 -1.0069
 4741TIP3    H235859   1.487   2.695   0.135 -0.5808 -1.6805 -0.5733
 4742TIP3   OH235860   4.365   3.344   0.346 -0.0839  0.2677  0.1137
 4742TIP3    H135861   4.306   3.299   0.286 -0.7385  1.1108  0.1133
 4742TIP3    H235862   4.370   3.434   0.313 -0.4558  0.7539  1.2979
 4743TIP3   OH235863   4.243   0.556   6.360 -0.1640  0.0272  0.3469
 4743TIP3    H135864   4.254   0.560   6.265 -3.6985 -0.2250 -0.2024
 4743TIP3    H235865   4.267   0.466   6.384  2.4753  0.5633  0.1051
 4744TIP3   OH235866   4.564   2.629   0.370  0.5044  0.6183 -0.0780
 4744TIP3    H135867   4.502   2.557   0.379 -0.6762  1.6251  0.1552
 4744TIP3    H235868   4.644   2.588   0.339 -0.7094 -0.5712 -1.8613
 4745TIP3   OH235869   2.888   0.123   7.267  0.2612  0.5294 -0.5017
 4745TIP3    H135870   2.801   0.160   7.281 -0.4041 -0.6509 -1.3300
 4745TIP3    H235871   2.924   0.112   7.355 -0.6085  0.6185 -0.1271
 4746TIP3   OH235872   1.194   3.486   0.834 -0.3931 -0.0539  0.3328
 4746TIP3    H135873   1.155   3.437   0.907 -1.1365  0.4600  0.2926
 4746TIP3    H235874   1.149   3.454   0.756  0.6271 -0.8329  0.0445
 4747TIP3   OH235875   3.067   2.544   8.145  0.0994 -0.2858  0.2879
 4747TIP3    H135876   3.034   2.582   8.227  1.1369  1.7648 -0.1678
 4747TIP3    H235877   3.015   2.587   8.077  1.6756  0.8424 -0.2718
 4748TIP3   OH235878   5.270   4.796   7.210 -0.0998 -0.2005  0.5237
 4748TIP3    H135879   5.320   4.875   7.191  0.5403 -0.5837  0.5640
 4748TIP3    H235880   5.282   4.781   7.304  2.0683 -1.8328  0.0569
 4749TIP3   OH235881   1.759   3.518   0.377 -0.3041  0.3377 -0.2029
 4749TIP3    H135882   1.755   3.500   0.283 -1.3501 -0.3137 -0.0488
 4749TIP3    H235883   1.669   3.538   0.401 -0.3402 -1.1268  0.9621
 4750TIP3   OH235884   6.315   1.446   8.353 -0.2865 -0.4016 -0.3278
 4750TIP3    H135885   6.368   1.373   8.386  1.1027  1.2465  1.2497
 4750TIP3    H235886   6.368   1.485   8.284 -0.8756 -0.6549 -0.9350
 4751TIP3   OH235887   1.884   1.494   2.489 -0.2529  0.0104  0.5806
 4751TIP3    H135888   1.790   1.512   2.490 -0.3008 -0.1605 -0.2090
 4751TIP3    H235889   1.894   1.411   2.535 -0.7883 -1.2447 -1.4713
 4752TIP3   OH235890   0.758   0.013   1.283 -0.8835 -0.2903 -0.2047
 4752TIP3    H135891   0.725  -0.030   1.362  1.0176 -0.5148  0.5234
 4752TIP3    H235892   0.724   0.102   1.287  1.0014  0.4274  2.1306
 4753TIP3   OH235893   3.761   1.070   1.788  0.0917 -0.7215  0.1442
 4753TIP3    H135894   3.842   1.051   1.835  0.0495  2.7957  1.9113
 4753TIP3    H235895   3.692   1.060   1.854 -0.6133 -0.8702 -0.5975
 4754TIP3   OH235896   1.901   2.200   7.861 -0.2730  0.2608  0.6520
 4754TIP3    H135897   1.832   2.170   7.802  1.4446 -0.8989 -0.8761
 4754TIP3    H235898   1.914   2.292   7.837  0.6003 -0.2606 -1.0765
 4755TIP3   OH235899   3.956   5.355   0.062 -0.3273 -0.1457  0.0276
 4755TIP3    H135900   4.013   5.394  -0.004  0.0857 -0.4888  0.1755
 4755TIP3    H235901   3.942   5.426   0.125 -0.9253  0.2553 -0.5482
 4756TIP3   OH235902   1.825   1.804   0.180 -0.2638 -0.1676  0.3492
 4756TIP3    H135903   1.899   1.779   0.126  0.3547  1.3781  0.4311
 4756TIP3    H235904   1.854   1.788   0.270  0.6377  1.9499  0.4855
 4757TIP3   OH235905   6.186   1.194   8.184 -0.0955  0.3646 -0.2043
 4757TIP3    H135906   6.117   1.200   8.250 -0.2119  0.5762 -0.3453
 4757TIP3    H235907   6.266   1.218   8.232  0.1595 -1.5373  0.3930
 4758TIP3   OH235908   5.151   6.711   6.477 -0.8753  0.1859 -0.1859
 4758TIP3    H135909   5.116   6.623   6.491  0.2081 -0.1068  0.8680
 4758TIP3    H235910   5.087   6.754   6.421 -1.3539 -1.3254 -0.8443
 4759TIP3   OH235911   6.128   1.102   2.076 -0.5884  0.2603  0.2018
 4759TIP3    H135912   6.172   1.054   2.147  0.4306  0.4283 -0.2999
 4759TIP3    H235913   6.087   1.176   2.120  0.6029  0.7405  0.5499
 4760TIP3   OH235914   5.096   5.184   0.857 -0.3424  0.3278  0.1198
 4760TIP3    H135915   5.176   5.138   0.834 -1.2167 -3.0989  3.0663
 4760TIP3    H235916   5.028   5.146   0.801 -0.5254  0.5831  0.1604
 4761TIP3   OH235917   2.118   2.145   6.849  0.2882 -0.2495  0.6845
 4761TIP3    H135918   2.197   2.103   6.883  1.0819 -0.2015 -1.0102
 4761TIP3    H235919   2.140   2.167   6.759 -0.5295  2.6830  1.0961
 4762TIP3   OH235920   1.468   2.866   1.022 -0.2679  0.0215  0.2359
 4762TIP3    H135921   1.487   2.798   1.087  0.8852 -0.6579 -0.7586
 4762TIP3    H235922   1.553   2.907   1.005 -0.4762 -0.0297 -1.0466
 4763TIP3   OH235923   4.478   5.825   6.496 -0.1701 -0.2320  0.0884
 4763TIP3    H135924   4.561   5.831   6.544 -0.6261 -0.5000  0.9272
 4763TIP3    H235925   4.429   5.902   6.523 -0.7138 -0.7562  0.5952
 4764TIP3   OH235926   2.231   1.230   7.147 -0.2056 -0.0442 -0.0124
 4764TIP3    H135927   2.138   1.208   7.144 -0.0995 -0.5443 -3.2341
 4764TIP3    H235928   2.234   1.324   7.127 -0.0357  0.2363  1.2488
 4765TIP3   OH235929   5.538   5.130   8.120 -0.0433  0.4561  0.5210
 4765TIP3    H135930   5.600   5.096   8.056 -1.2130 -0.5601 -0.1348
 4765TIP3    H235931   5.461   5.154   8.069 -0.6580  0.5062  1.4365
 4766TIP3   OH235932   0.413   1.290   7.904  0.3331 -0.3459  0.0939
 4766TIP3    H135933   0.495   1.254   7.872 -0.1434 -1.2673 -0.1178
 4766TIP3    H235934   0.345   1.246   7.852 -0.3357 -0.3034  0.9118
 4767TIP3   OH235935   0.565   4.981   7.700 -0.5115 -0.0964 -0.2234
 4767TIP3    H135936   0.644   4.933   7.675 -0.3114  0.8652 -1.5164
 4767TIP3    H235937   0.515   4.919   7.753  1.3840 -0.5132  1.1587
 4768TIP3   OH235938   5.849   6.717   0.163 -0.1815 -0.0476  0.3019
 4768TIP3    H135939   5.852   6.642   0.223 -1.8907 -1.6483 -1.4832
 4768TIP3    H235940   5.759   6.749   0.170  0.2662  1.2580  0.3118
 4769TIP3   OH235941   1.585   6.760   1.955  0.6488 -0.2757 -0.3775
 4769TIP3    H135942   1.540   6.676   1.968  1.4105 -1.0444 -2.2876
 4769TIP3    H235943   1.658   6.758   2.017 -0.9201  0.3003  1.6278
 4770TIP3   OH235944   6.577   3.331   0.624  0.0598  0.4743  0.0547
 4770TIP3    H135945   6.522   3.268   0.671  0.8162 -0.1050  0.1873
 4770TIP3    H235946   6.637   3.277   0.572  0.7492  1.0769  0.2037
 4771TIP3   OH235947   5.607   2.506   8.536  0.1748  0.1851  0.3277
 4771TIP3    H135948   5.675   2.538   8.595  0.1729  0.7856  0.0079
 4771TIP3    H235949   5.540   2.470   8.594  0.5297  0.0519  0.6621
 4772TIP3   OH235950   6.474   2.613   5.848 -0.5647 -0.0401  0.2442
 4772TIP3    H135951   6.503   2.605   5.939  2.7120  0.4220 -0.6457
 4772TIP3    H235952   6.448   2.705   5.839  3.7808  1.3352 -0.3385
 4773TIP3   OH235953   3.545   0.674   0.721 -0.2407 -0.0602  0.1839
 4773TIP3    H135954   3.473   0.636   0.771  0.7969 -1.1090  0.9220
 4773TIP3    H235955   3.509   0.754   0.683 -0.6210  1.7568  3.9904
 4774TIP3   OH235956   5.350   3.499   7.844  0.0663  0.7700  0.5861
 4774TIP3    H135957   5.399   3.479   7.924  0.3053 -1.4107 -0.0515
 4774TIP3    H235958   5.414   3.489   7.774 -0.8121 -0.2011 -0.0989
 4775TIP3   OH235959   4.541   2.946   2.117 -0.3130 -0.4593 -0.7251
 4775TIP3    H135960   4.631   2.913   2.126 -0.0203  0.2720 -0.9407
 4775TIP3    H235961   4.503   2.935   2.204  0.3515  0.2816 -0.3293
 4776TIP3   OH235962   1.305   6.130   0.214 -0.3934 -0.5137  0.3601
 4776TIP3    H135963   1.288   6.039   0.238 -0.8633 -0.0746  1.7830
 4776TIP3    H235964   1.229   6.178   0.245  0.0969  0.4476  0.1240
 4777TIP3   OH235965   4.918   2.693   0.512  0.3018 -0.2033  0.7074
 4777TIP3    H135966   5.007   2.665   0.532  0.7171  0.1333 -0.5510
 4777TIP3    H235967   4.920   2.789   0.522  0.0813 -0.1961  0.6913
 4778TIP3   OH235968   2.078   4.858   2.200  0.1350 -0.0772 -0.6055
 4778TIP3    H135969   2.008   4.794   2.186 -0.5309  0.0209  1.7109
 4778TIP3    H235970   2.032   4.942   2.212  0.5244 -0.0807  1.3725
 4779TIP3   OH235971   2.000   2.094   0.154 -0.1710 -0.3246 -0.6036
 4779TIP3    H135972   2.006   2.022   0.091 -1.8929  0.0407 -1.2218
 4779TIP3    H235973   1.999   2.173   0.099 -1.8784 -0.0103 -0.1463
 4780TIP3   OH235974   5.582   0.111   1.643 -0.8379  0.1930  0.1017
 4780TIP3    H135975   5.614   0.193   1.683  0.3215  0.2472 -0.8839
 4780TIP3    H235976   5.625   0.042   1.694 -0.6578  0.2330  0.0066
 4781TIP3   OH235977   4.562   5.952   0.174 -0.0018 -0.4025  0.8275
 4781TIP3    H135978   4.540   6.020   0.111  1.0799  0.5164  1.4059
 4781TIP3    H235979   4.604   5.884   0.122 -1.8447 -1.0564  0.1150
 4782TIP3   OH235980   1.521   4.145   7.035  0.2026  0.0023 -0.4434
 4782TIP3    H135981   1.433   4.183   7.038  0.4189  0.6017 -1.1565
 4782TIP3    H235982   1.556   4.157   7.123 -0.5230 -0.4735 -0.0868
 4783TIP3   OH235983   6.136   2.615   7.732 -0.2291 -0.2252  0.2379
 4783TIP3    H135984   6.162   2.540   7.679  1.0436 -0.4621  1.1689
 4783TIP3    H235985   6.202   2.621   7.800  0.3509  2.4156 -0.4402
 4784TIP3   OH235986   6.285   3.052   0.952  0.0880 -0.1512 -0.0393
 4784TIP3    H135987   6.223   3.105   1.002 -1.0765 -0.5151 -1.0442
 4784TIP3    H235988   6.359   3.039   1.011  0.4019  2.5301  0.2817
 4785TIP3   OH235989   6.778   0.715   6.612 -0.3892  0.2033 -0.2103
 4785TIP3    H135990   6.744   0.770   6.541 -0.3066  1.5573  0.7557
 4785TIP3    H235991   6.870   0.740   6.619 -0.4612  0.2558  0.5366
 4786TIP3   OH235992   2.170   2.116   7.873  0.0688 -0.1749  0.0806
 4786TIP3    H135993   2.078   2.140   7.872  0.2776  0.7787 -1.5342
 4786TIP3    H235994   2.174   2.034   7.922 -1.2014  1.2415  2.7486
 4787TIP3   OH235995   0.284   4.214   7.299 -0.5304  0.1020  0.0305
 4787TIP3    H135996   0.210   4.271   7.279 -0.5174 -0.1745 -0.8631
 4787TIP3    H235997   0.362   4.267   7.281 -0.5159 -0.0042 -0.2194
 4788TIP3   OH235998   0.315   6.372   7.981  0.3950  0.1336 -1.0273
 4788TIP3    H135999   0.385   6.377   8.046  0.9980  1.5143 -1.7412
 4788TIP3    H236000   0.253   6.440   8.007  0.0922 -0.0480 -1.2694
 4789TIP3   OH236001   5.667   0.645   0.345 -0.7263 -0.2411 -1.0631
 4789TIP3    H136002   5.629   0.573   0.295 -0.2301 -1.4643  0.2649
 4789TIP3    H236003   5.602   0.664   0.412 -1.0012  0.8049 -1.5997
 4790TIP3   OH236004   3.415   2.890   2.859  0.6198  0.0276 -0.0343
 4790TIP3    H136005   3.354   2.819   2.875  2.6267 -1.4700  1.4942
 4790TIP3    H236006   3.369   2.969   2.889 -0.4903 -1.0754  1.2973
 4791TIP3   OH236007   4.571   2.635   2.000 -0.0273 -0.5043 -0.6379
 4791TIP3    H136008   4.603   2.725   2.000  2.9026 -1.3950 -2.0027
 4791TIP3    H236009   4.623   2.591   2.067  0.8457 -1.7574 -2.0530
 4792TIP3   OH236010   1.914   1.369   8.436  0.0834 -0.7828 -0.2272
 4792TIP3    H136011   1.871   1.374   8.521  0.7787 -0.8253  0.1316
 4792TIP3    H236012   1.844   1.350   8.374 -0.2693 -1.8247  0.4829
 4793TIP3   OH236013   0.637   0.080   1.751 -0.7549  0.5518 -0.0615
 4793TIP3    H136014   0.710   0.087   1.813  0.3447  0.8409 -1.3533
 4793TIP3    H236015   0.561   0.066   1.807  0.1699  0.9544  1.3771
 4794TIP3   OH236016   2.232   4.310   0.508  0.0575  0.3250 -0.3571
 4794TIP3    H136017   2.226   4.357   0.591 -1.2400  2.2306 -1.4531
 4794TIP3    H236018   2.206   4.374   0.442 -1.2637 -1.7752 -2.0234
 4795TIP3   OH236019   6.758   3.829   7.855  0.1970  0.2801 -0.1231
 4795TIP3    H136020   6.806   3.812   7.774  1.1447  0.0367  0.4633
 4795TIP3    H236021   6.780   3.755   7.912  1.2573  1.4816  1.0970
 4796TIP3   OH236022   1.835   5.087   1.809  0.2134 -0.1784 -0.0644
 4796TIP3    H136023   1.776   5.012   1.812 -2.1240  1.5600  0.2202
 4796TIP3    H236024   1.831   5.124   1.897  0.1872  1.1177 -0.5979
 4797TIP3   OH236025   6.347   6.234   1.852  0.5401  0.1169 -0.0261
 4797TIP3    H136026   6.307   6.237   1.765  1.5330  2.7286 -0.5057
 4797TIP3    H236027   6.275   6.214   1.911 -0.3347 -0.8489 -1.3626
 4798TIP3   OH236028   0.332   3.272   7.151 -0.3691  0.4252 -0.4302
 4798TIP3    H136029   0.327   3.367   7.154  0.5328  0.4735  0.9167
 4798TIP3    H236030   0.349   3.251   7.059 -2.3294  1.4229 -1.0613
 4799TIP3   OH236031   1.328   4.197   2.443 -0.2934 -0.0277 -0.2834
 4799TIP3    H136032   1.333   4.198   2.347 -1.2523  1.0634 -0.3520
 4799TIP3    H236033   1.252   4.142   2.462  0.4086 -0.9410 -0.1102
 4800TIP3   OH236034   4.701   4.157   0.937 -0.0996  0.0408 -0.2531
 4800TIP3    H136035   4.658   4.209   1.005 -0.8083 -0.1981 -0.5061
 4800TIP3    H236036   4.725   4.220   0.870 -3.3249 -0.2064 -1.7979
 4801TIP3   OH236037   4.248   1.517   0.478 -0.9869  0.2931  1.0151
 4801TIP3    H136038   4.156   1.543   0.465 -0.3374  2.6355  0.6285
 4801TIP3    H236039   4.291   1.538   0.395 -0.0241 -0.4861  1.3018
 4802TIP3   OH236040   5.982   3.873   7.337  0.4460 -0.9506  0.2899
 4802TIP3    H136041   6.069   3.868   7.300 -0.3770 -1.1830 -1.7418
 4802TIP3    H236042   5.934   3.800   7.297 -0.3604 -1.6422  2.3407
 4803TIP3   OH236043   2.669   6.555   6.908  0.3435  0.2267  0.1786
 4803TIP3    H136044   2.693   6.494   6.838 -1.2109 -1.0383  0.7019
 4803TIP3    H236045   2.709   6.517   6.987 -1.5782 -0.8364  0.7117
 4804TIP3   OH236046   0.551   2.887   6.704  0.0455 -0.3425 -0.4471
 4804TIP3    H136047   0.619   2.952   6.686  0.5371 -0.8327 -0.3580
 4804TIP3    H236048   0.478   2.914   6.648  0.3672  0.0875 -0.6688
 4805TIP3   OH236049   5.811   2.480   6.221 -0.4442 -0.3927  0.2798
 4805TIP3    H136050   5.828   2.474   6.127 -2.1474  0.6501 -0.1331
 4805TIP3    H236051   5.864   2.555   6.249  1.1991 -1.5782  0.4803
 4806TIP3   OH236052   3.461   5.108   7.892 -0.0499 -0.6167  0.2903
 4806TIP3    H136053   3.463   5.055   7.812  0.5917  0.2563 -0.2842
 4806TIP3    H236054   3.403   5.060   7.951 -0.5471 -1.2687 -0.7060
 4807TIP3   OH236055   0.021   3.432   8.064 -0.3883  0.6941 -0.1783
 4807TIP3    H136056  -0.006   3.396   8.149 -0.1813  0.5848 -0.1581
 4807TIP3    H236057  -0.005   3.366   8.000  0.4309  0.2793 -0.0951
 4808TIP3   OH236058   5.239   6.245   7.033  0.0279 -0.5149 -0.2878
 4808TIP3    H136059   5.154   6.256   7.074 -0.2112 -1.2751 -0.5797
 4808TIP3    H236060   5.224   6.268   6.941  0.1887 -0.4633 -0.3020
 4809TIP3   OH236061   0.585   1.367   6.174 -0.2367  0.1245  0.3944
 4809TIP3    H136062   0.500   1.375   6.218 -0.9531 -1.0301 -0.6999
 4809TIP3    H236063   0.640   1.318   6.235 -1.3370 -1.8025 -0.0858
 4810TIP3   OH236064   1.267   6.715   0.236  0.2406 -0.0462  0.2735
 4810TIP3    H136065   1.334   6.699   0.302 -1.0252 -2.1102  1.1456
 4810TIP3    H236066   1.229   6.629   0.219 -0.1806  0.5674 -2.4240
 4811TIP3   OH236067   4.677   4.613   0.130 -0.6410  0.4103  0.7370
 4811TIP3    H136068   4.712   4.701   0.143  0.0327  0.2057  0.3535
 4811TIP3    H236069   4.708   4.563   0.205 -0.2444  0.2702  0.4814
 4812TIP3   OH236070   3.683   1.368   7.773 -0.0672 -0.0300 -0.1979
 4812TIP3    H136071   3.720   1.432   7.833 -0.9489 -0.2952  0.6443
 4812TIP3    H236072   3.754   1.351   7.710  0.0164  2.1767 -0.8030
 4813TIP3   OH236073   4.185   5.974   7.318 -0.2314  0.0522  0.1938
 4813TIP3    H136074   4.216   6.064   7.312  0.8950 -0.3924 -1.7972
 4813TIP3    H236075   4.112   5.970   7.257  1.9875 -1.1233 -2.6541
 4814TIP3   OH236076   6.385   3.967   1.437 -0.0165  0.4129 -0.1569
 4814TIP3    H136077   6.398   3.948   1.530 -3.2028  1.1870  0.5558
 4814TIP3    H236078   6.436   4.046   1.420  0.8628  0.0688  0.8203
 4815TIP3   OH236079   2.020   0.496   6.954  0.2169 -0.1478 -0.3376
 4815TIP3    H136080   2.050   0.457   6.872  2.0003  2.2904 -0.9562
 4815TIP3    H236081   2.033   0.591   6.942  1.1209  0.2829  2.9396
 4816TIP3   OH236082   4.733   1.226   1.225  0.3939  0.6451  0.3055
 4816TIP3    H136083   4.761   1.282   1.298 -0.0015 -0.7778  1.5994
 4816TIP3    H236084   4.640   1.246   1.215  0.2404  0.2120  0.8018
 4817TIP3   OH236085   5.758   5.696   0.381  0.0437 -0.5861  0.4333
 4817TIP3    H136086   5.670   5.692   0.418  0.3138  0.0320  1.1681
 4817TIP3    H236087   5.789   5.785   0.401  1.5420 -1.3795  1.8473
 4818TIP3   OH236088   2.389   5.221   7.044 -0.1813  0.4473  0.7038
 4818TIP3    H136089   2.378   5.316   7.045 -0.0404  0.5168 -1.2697
 4818TIP3    H236090   2.318   5.188   7.099 -0.2840  1.6754  1.3409
 4819TIP3   OH236091   5.891   1.918   1.000  0.2709  0.4868  0.1049
 4819TIP3    H136092   5.960   1.922   0.933  0.1875  2.0149  0.0889
 4819TIP3    H236093   5.926   1.967   1.074  0.4890 -1.4419  1.3556
 4820TIP3   OH236094   5.210   0.488   8.201 -0.2058 -0.3076  0.3677
 4820TIP3    H136095   5.282   0.539   8.161  0.7654 -0.1463  2.2233
 4820TIP3    H236096   5.231   0.397   8.181 -0.2222 -0.1856 -0.2327
 4821TIP3   OH236097   1.445   0.958   1.907 -0.0454 -0.1208  0.0393
 4821TIP3    H136098   1.394   0.952   1.826  0.7613  0.0347 -0.4931
 4821TIP3    H236099   1.457   0.867   1.935 -0.2364 -0.1824 -0.0817
 4822TIP3   OH236100   2.214   3.668   0.618 -0.4993 -0.0058 -0.3922
 4822TIP3    H136101   2.140   3.610   0.600 -0.5763  0.4632 -1.6763
 4822TIP3    H236102   2.269   3.662   0.539  2.1791 -2.2861  1.4219
 4823TIP3   OH236103   0.345   2.125   1.275  0.2203  0.1209 -0.0937
 4823TIP3    H136104   0.337   2.133   1.370 -1.4712  2.8779 -0.3728
 4823TIP3    H236105   0.439   2.111   1.260  0.6308  0.3579  1.9365
 4824TIP3   OH236106   4.785   2.509   1.364  0.1910  0.4193  0.0317
 4824TIP3    H136107   4.736   2.457   1.301  0.7234 -1.7947  1.3422
 4824TIP3    H236108   4.840   2.567   1.311 -0.5382 -0.2505 -1.4939
 4825TIP3   OH236109   2.986   2.470   0.132 -0.4129 -0.6084 -0.3113
 4825TIP3    H136110   3.050   2.410   0.092 -1.0246 -0.7445 -1.1042
 4825TIP3    H236111   3.036   2.518   0.198  0.3370 -1.2373 -0.4088
 4826TIP3   OH236112   2.669   0.800   6.521 -0.1490  0.0801  0.2059
 4826TIP3    H136113   2.709   0.784   6.436 -0.1094 -0.2046  0.2791
 4826TIP3    H236114   2.575   0.794   6.504 -0.1291 -0.4318  0.2746
 4827TIP3   OH236115   2.190   4.598   7.844 -0.2588  0.2057 -0.3318
 4827TIP3    H136116   2.148   4.544   7.778 -0.3218  1.1760 -1.1004
 4827TIP3    H236117   2.191   4.686   7.807  1.3915  0.4293  0.1529
 4828TIP3   OH236118   3.272   5.257   0.298 -0.2905  0.0201  0.6836
 4828TIP3    H136119   3.344   5.317   0.279 -0.3769  0.1450  0.7497
 4828TIP3    H236120   3.221   5.301   0.366 -1.6050  0.9031 -0.8015
 4829TIP3   OH236121   4.449   4.658   7.555  0.2429  0.1306 -0.3398
 4829TIP3    H136122   4.528   4.668   7.608  1.6560 -0.9632 -2.1120
 4829TIP3    H236123   4.430   4.746   7.524  2.2096  0.1184 -1.7626
 4830TIP3   OH236124   6.872   5.380   8.497  0.1100  0.6880  0.2522
 4830TIP3    H136125   6.940   5.444   8.518  0.7759  0.6359 -1.5285
 4830TIP3    H236126   6.916   5.296   8.500 -0.2707  0.5055  0.6606
 4831TIP3   OH236127   0.952   3.488   7.127 -0.1716  0.3180 -0.4007
 4831TIP3    H136128   0.941   3.451   7.215  2.8157 -0.2617 -0.1905
 4831TIP3    H236129   0.925   3.580   7.137 -1.3406 -0.1030  0.6984
 4832TIP3   OH236130   5.851   3.064   1.844  0.7032 -0.3457 -0.5177
 4832TIP3    H136131   5.815   3.125   1.909  3.8287  0.5660  0.5252
 4832TIP3    H236132   5.791   2.990   1.845 -0.7303  0.7389  1.5701
 4833TIP3   OH236133   4.805   2.819   1.601 -0.6270 -0.0417  0.4885
 4833TIP3    H136134   4.897   2.811   1.577 -0.3942  1.1817  0.8981
 4833TIP3    H236135   4.806   2.833   1.696 -1.3852 -2.3077  0.8972
 4834TIP3   OH236136   4.417   5.502   7.685 -0.0158  0.2345 -0.2112
 4834TIP3    H136137   4.355   5.447   7.639  0.6154  0.7410 -1.7229
 4834TIP3    H236138   4.483   5.524   7.620  1.1169  0.6829  1.0365
 4835TIP3   OH236139   3.914   6.686   6.818 -0.4134  0.5090  0.5256
 4835TIP3    H136140   3.847   6.748   6.790  0.3254  1.4119  0.6771
 4835TIP3    H236141   3.866   6.613   6.856 -1.4002 -0.0344 -1.6427
 4836TIP3   OH236142   1.074   4.028   8.095  0.4552  0.4385 -0.0525
 4836TIP3    H136143   1.035   4.110   8.064  1.1208  0.7695 -0.0423
 4836TIP3    H236144   1.000   3.970   8.111  0.0413  0.5612 -1.4083
 4837TIP3   OH236145   5.825   5.633   7.571  0.4100 -0.5478  0.4707
 4837TIP3    H136146   5.858   5.702   7.627  0.8129 -0.9323  0.7152
 4837TIP3    H236147   5.901   5.578   7.552  0.3113 -0.3510 -0.5674
 4838TIP3   OH236148   3.596   3.841   1.814 -0.6149  0.6152  0.2840
 4838TIP3    H136149   3.588   3.770   1.878 -2.1402  1.6538  1.3265
 4838TIP3    H236150   3.683   3.830   1.776 -0.8981 -1.9188  0.2456
 4839TIP3   OH236151   6.602   0.936   6.628 -0.6871 -0.1023 -0.1227
 4839TIP3    H136152   6.524   0.889   6.597 -1.6915  1.3940  0.0540
 4839TIP3    H236153   6.660   0.866   6.658 -0.5694 -1.4945 -3.2013
 4840TIP3   OH236154   6.160   6.427   8.288  0.3908  0.3532  0.1131
 4840TIP3    H136155   6.087   6.444   8.228 -0.2104 -0.4947  0.5761
 4840TIP3    H236156   6.142   6.483   8.364 -0.0660 -0.2127  0.4368
 4841TIP3   OH236157   3.805   2.318   1.749  0.4869  0.9099  0.1026
 4841TIP3    H136158   3.796   2.383   1.819  0.8983 -0.5600  1.5612
 4841TIP3    H236159   3.721   2.320   1.703 -0.4719  0.6065  1.7933
 4842TIP3   OH236160   0.946   4.422   0.463 -0.1962  0.0971  0.2839
 4842TIP3    H136161   1.026   4.468   0.488 -0.3005  0.8039 -0.6302
 4842TIP3    H236162   0.959   4.399   0.371 -0.8039 -0.3083  0.2930
 4843TIP3   OH236163   6.231   5.006   7.696 -0.1166  0.7945  0.2881
 4843TIP3    H136164   6.307   4.963   7.735 -1.2696  0.1551  1.9248
 4843TIP3    H236165   6.250   5.007   7.602  1.0630 -1.0625  0.4585
 4844TIP3   OH236166   4.268   5.193   8.515 -0.0886 -0.4995 -0.1205
 4844TIP3    H136167   4.328   5.231   8.578 -1.1149  1.2069 -0.0913
 4844TIP3    H236168   4.240   5.110   8.554  0.1261  0.0112  1.1618
 4845TIP3   OH236169   1.977   3.351   0.042 -0.4500 -0.0200 -0.1885
 4845TIP3    H136170   1.970   3.316  -0.046  1.5590  1.1074 -0.8647
 4845TIP3    H236171   2.070   3.373   0.052 -1.0306  2.0594  1.3472
 4846TIP3   OH236172   1.084   1.154   1.985 -0.3758 -0.4674 -0.6155
 4846TIP3    H136173   1.029   1.097   2.039 -1.3983  0.8210 -0.2349
 4846TIP3    H236174   1.140   1.200   2.047 -0.8576  0.2842 -0.7159
 4847TIP3   OH236175   2.309   4.631   6.145  0.0482 -0.0772  0.4225
 4847TIP3    H136176   2.401   4.612   6.161  0.0123  0.5843  1.5570
 4847TIP3    H236177   2.309   4.717   6.103 -0.0507  0.0767  0.7272
 4848TIP3   OH236178   1.566   0.099   6.339 -0.4076 -0.1451  0.3241
 4848TIP3    H136179   1.654   0.077   6.370 -0.5361 -1.0159  0.0780
 4848TIP3    H236180   1.549   0.185   6.378  1.3115  0.9329 -1.1601
 4849TIP3   OH236181   6.136   6.621   7.972  0.3394  0.3798 -0.0708
 4849TIP3    H136182   6.123   6.526   7.976 -0.5518  0.4611 -0.7639
 4849TIP3    H236183   6.228   6.632   7.949  0.8164 -0.2913  1.4118
 4850TIP3   OH236184   6.700   0.791   0.305  0.1412 -0.5267 -0.0029
 4850TIP3    H136185   6.721   0.708   0.347 -2.7542 -0.7217  1.2960
 4850TIP3    H236186   6.641   0.766   0.233 -0.6469  0.3464  0.3184
 4851TIP3   OH236187   6.531   0.748   0.116 -0.2057  0.6442  0.1104
 4851TIP3    H136188   6.480   0.683   0.164  1.1727 -1.0100 -0.5747
 4851TIP3    H236189   6.538   0.713   0.028  2.8241  0.3166  0.3770
 4852TIP3   OH236190   5.817   2.794   7.794 -0.2859  0.3022 -0.0084
 4852TIP3    H136191   5.729   2.801   7.831 -0.8864  1.2970 -1.5082
 4852TIP3    H236192   5.803   2.791   7.699  1.2887  0.4622 -0.2754
 4853TIP3   OH236193   3.367   3.525   1.264 -0.0997  0.2397 -0.0251
 4853TIP3    H136194   3.421   3.479   1.199 -0.3982  0.3708 -0.3710
 4853TIP3    H236195   3.400   3.494   1.348 -0.9119 -1.3269 -0.2476
 4854TIP3   OH236196   6.660   0.614   1.262  0.1683  0.4215  0.1507
 4854TIP3    H136197   6.695   0.536   1.219 -0.3221  1.2398 -1.8538
 4854TIP3    H236198   6.583   0.582   1.309 -0.0036 -0.3220 -0.6052
 4855TIP3   OH236199   1.847   5.572   6.631 -0.0731  0.1117 -0.1682
 4855TIP3    H136200   1.840   5.477   6.628  0.7850  0.0549 -1.0195
 4855TIP3    H236201   1.757   5.603   6.630 -0.4382 -0.7065  2.0549
 4856TIP3   OH236202   5.491   1.200   6.894  0.4776  0.0156  0.1552
 4856TIP3    H136203   5.495   1.285   6.938  0.5102 -0.0164  0.2140
 4856TIP3    H236204   5.470   1.221   6.803 -2.2256 -0.0565  0.7007
 4857TIP3   OH236205   5.838   5.615   7.170  0.5177 -0.5765 -0.0302
 4857TIP3    H136206   5.782   5.665   7.112  0.2568  0.6554  1.2185
 4857TIP3    H236207   5.918   5.598   7.120 -0.9588 -2.5024 -1.8963
 4858TIP3   OH236208   1.362   1.465   1.439 -0.3576 -0.4945  0.2847
 4858TIP3    H136209   1.401   1.390   1.483 -0.2969 -0.7693 -0.2312
 4858TIP3    H236210   1.273   1.436   1.417  0.4962 -1.4278 -2.3118
 4859TIP3   OH236211   6.889   2.840   0.225  0.2421 -0.3592  0.0495
 4859TIP3    H136212   6.812   2.784   0.224  0.2519 -0.4223 -2.1364
 4859TIP3    H236213   6.963   2.779   0.217  0.2765 -0.1262 -1.8463
 4860TIP3   OH236214   3.027   0.248   8.209 -0.1197  0.5566 -0.0520
 4860TIP3    H136215   3.081   0.198   8.270 -0.2371 -0.7434 -0.9934
 4860TIP3    H236216   3.085   0.318   8.177  1.0327 -0.7883 -1.0138
 4861TIP3   OH236217   1.333   0.449   2.080 -0.0592 -0.0251  0.2126
 4861TIP3    H136218   1.376   0.469   2.164  0.8250  1.1269 -0.4927
 4861TIP3    H236219   1.403   0.416   2.024 -0.5736 -0.4292 -0.2044
 4862TIP3   OH236220   3.766   5.847   7.628  0.1716 -0.3359  0.0458
 4862TIP3    H136221   3.731   5.842   7.717 -3.3337 -1.2885 -1.1816
 4862TIP3    H236222   3.834   5.914   7.632 -0.3439  0.1490  3.2884
 4863TIP3   OH236223   1.275   1.998   0.721 -0.3984  0.1454  0.1614
 4863TIP3    H136224   1.195   2.034   0.682  0.0722 -0.1015 -1.1097
 4863TIP3    H236225   1.342   2.013   0.654  0.4281 -0.4439  0.8400
 4864TIP3   OH236226   1.807   3.096   1.873  0.2873  0.1593 -0.2661
 4864TIP3    H136227   1.841   3.049   1.949  0.2345  0.8924  0.2200
 4864TIP3    H236228   1.714   3.109   1.892 -0.2049 -1.4266 -1.3790
 4865TIP3   OH236229   6.223   4.964   7.207  0.1465 -0.0602 -0.3679
 4865TIP3    H136230   6.252   5.027   7.273  1.8852 -0.8731 -0.3074
 4865TIP3    H236231   6.160   5.013   7.154  1.2953  1.6981 -0.2052
 4866TIP3   OH236232   3.470   6.572   6.167  0.8645  0.0765 -0.4905
 4866TIP3    H136233   3.543   6.525   6.125  0.7227 -0.3589 -0.2534
 4866TIP3    H236234   3.398   6.509   6.166  0.6515  0.3180 -0.2279
 4867TIP3   OH236235   1.638   1.432   6.389 -0.0213 -0.4042  0.6373
 4867TIP3    H136236   1.556   1.470   6.359  1.5317  1.3772 -1.7348
 4867TIP3    H236237   1.632   1.340   6.365 -1.8608 -0.6539  1.8562
 4868TIP3   OH236238   0.626   5.637   6.180  0.5050 -0.2545  0.2935
 4868TIP3    H136239   0.678   5.584   6.241  2.0388  0.4451 -0.3669
 4868TIP3    H236240   0.669   5.722   6.180 -0.1494  0.0966 -0.9191
 4869TIP3   OH236241   0.251   6.001   1.270  0.4418 -0.0960 -0.1092
 4869TIP3    H136242   0.345   5.992   1.287  0.0932 -0.6609  1.7577
 4869TIP3    H236243   0.244   6.076   1.212  2.2767 -1.9553 -2.9872
 4870TIP3   OH236244   5.825   4.365   7.491  0.7145  0.3473 -0.2491
 4870TIP3    H136245   5.891   4.301   7.465 -1.7460 -1.8364 -1.6997
 4870TIP3    H236246   5.828   4.432   7.423  0.4327 -0.5793 -1.2099
 4871TIP3   OH236247   6.905   2.816   0.925  0.1590  0.2699  0.1263
 4871TIP3    H136248   6.927   2.872   0.851 -0.6912 -1.2312 -1.3243
 4871TIP3    H236249   6.987   2.770   0.946  0.2280  0.1603 -0.3757
 4872TIP3   OH236250   4.624   0.298   7.989  0.3658 -0.2440 -0.2789
 4872TIP3    H136251   4.719   0.285   7.992  0.1443 -3.5342 -2.4100
 4872TIP3    H236252   4.609   0.345   7.907  0.0915 -1.9792 -1.2803
 4873TIP3   OH236253   4.434   6.381   0.645  0.1322  0.3067 -0.5319
 4873TIP3    H136254   4.350   6.338   0.655  0.1413  0.5279  0.6531
 4873TIP3    H236255   4.497   6.321   0.684  0.3651  0.6531 -0.3680
 4874TIP3   OH236256   5.522   0.964   8.126 -0.4234  0.2255  0.0373
 4874TIP3    H136257   5.482   0.913   8.056  1.3474 -1.0226 -0.1552
 4874TIP3    H236258   5.563   0.898   8.182  2.0547  1.3858 -0.2736
 4875TIP3   OH236259   4.677   4.134   6.812 -0.0668  0.0078  0.1929
 4875TIP3    H136260   4.696   4.123   6.906 -1.8281 -0.2677  0.5685
 4875TIP3    H236261   4.742   4.196   6.781  0.6850 -0.0476  1.5632
 4876TIP3   OH236262   5.252   4.901   8.136 -0.0653 -0.0451  0.0068
 4876TIP3    H136263   5.219   4.834   8.195  2.3041 -0.9536  0.4015
 4876TIP3    H236264   5.313   4.855   8.079 -1.8229  0.9002 -2.9020
 4877TIP3   OH236265   1.577   0.882   2.411  0.3895 -0.2244 -0.3300
 4877TIP3    H136266   1.625   0.833   2.478  0.9168 -0.7774 -1.0835
 4877TIP3    H236267   1.535   0.954   2.459  0.4157 -0.8378  0.6449
 4878TIP3   OH236268   5.364   4.406   6.519 -0.5176 -0.2710  0.2442
 4878TIP3    H136269   5.343   4.455   6.440 -2.0425 -0.9840  0.1661
 4878TIP3    H236270   5.288   4.417   6.575 -0.2427 -1.2796  0.8443
 4879TIP3   OH236271   0.965   6.102   1.548  0.2733 -0.0964  0.0395
 4879TIP3    H136272   0.881   6.061   1.526 -0.4348 -0.4051  2.8516
 4879TIP3    H236273   0.946   6.195   1.553  0.4627 -0.0137 -0.6853
 4880TIP3   OH236274   5.284   3.518   7.064  0.1016  0.5681 -0.0952
 4880TIP3    H136275   5.194   3.524   7.033  0.4795  2.4577 -0.9641
 4880TIP3    H236276   5.338   3.536   6.987  1.2782 -1.2037  0.2474
 4881TIP3   OH236277   1.100   4.959   0.635 -0.2892 -0.0904  0.0513
 4881TIP3    H136278   1.114   4.963   0.730 -1.7735  2.5649  0.2594
 4881TIP3    H236279   1.033   5.024   0.618 -0.1805 -0.5992 -2.8524
 4882TIP3   OH236280   4.714   0.983   7.852  0.0669  0.0616 -0.6306
 4882TIP3    H136281   4.790   1.035   7.826 -1.1806  3.5286  1.9660
 4882TIP3    H236282   4.745   0.933   7.927  0.0878  0.5888 -0.2849
 4883TIP3   OH236283   3.918   5.969   7.309 -0.7220 -0.0589  0.0305
 4883TIP3    H136284   3.947   5.964   7.400 -1.1710 -0.9523  0.1282
 4883TIP3    H236285   3.927   6.062   7.287  0.6927 -0.0498  0.5458
 4884TIP3   OH236286   4.607   4.339   0.459 -0.2997 -0.0406  0.8297
 4884TIP3    H136287   4.655   4.345   0.376  1.4594  2.6295  1.9170
 4884TIP3    H236288   4.556   4.259   0.451  0.2781 -0.2224 -2.5740
 4885TIP3   OH236289   0.039   0.901   1.123  0.3918 -0.6726  0.0613
 4885TIP3    H136290   0.101   0.916   1.052  1.4167 -0.4563  0.9828
 4885TIP3    H236291  -0.017   0.830   1.091 -0.6797  0.9563 -1.9057
 4886TIP3   OH236292   1.791   4.444   7.771  0.2667 -0.2755 -0.3498
 4886TIP3    H136293   1.879   4.476   7.752  0.2786  0.0382  0.2000
 4886TIP3    H236294   1.766   4.394   7.693  0.1257  1.3052 -1.3627
 4887TIP3   OH236295   2.239   3.379   2.209 -0.2582  0.4199  0.2966
 4887TIP3    H136296   2.294   3.382   2.288 -0.1151 -2.5232  0.3940
 4887TIP3    H236297   2.152   3.356   2.241 -0.1574 -0.9916 -0.3872
 4888TIP3   OH236298   4.910   6.585   8.020 -0.6410 -0.7554 -0.1802
 4888TIP3    H136299   4.974   6.558   7.954  0.4512 -0.4668  0.7345
 4888TIP3    H236300   4.827   6.588   7.973  0.2634  0.4253 -1.8184
 4889TIP3   OH236301   5.095   5.030   7.331 -0.6678 -0.6541 -0.1197
 4889TIP3    H136302   5.123   5.086   7.259 -3.5070 -0.1810 -0.9741
 4889TIP3    H236303   5.093   5.089   7.407 -1.2735 -0.1764 -0.4904
 4890TIP3   OH236304   3.279   6.379   8.457 -0.1801  0.0503  0.0561
 4890TIP3    H136305   3.314   6.305   8.408  1.5730  0.5283  0.5293
 4890TIP3    H236306   3.202   6.406   8.407  0.0975 -1.0440 -1.0190
 4891TIP3   OH236307   3.553   0.437   8.542 -0.3588  0.1879 -0.2826
 4891TIP3    H136308   3.486   0.369   8.533 -0.5748  0.4831 -0.9699
 4891TIP3    H236309   3.607   0.428   8.464 -0.4004  0.8157 -0.3926
 4892TIP3   OH236310   0.771   2.129   7.426  0.0262 -0.2463 -0.2347
 4892TIP3    H136311   0.795   2.097   7.513  0.1350  1.4058  0.3800
 4892TIP3    H236312   0.854   2.139   7.380  0.2304  1.4512  0.4364
 4893TIP3   OH236313   1.831   5.311   6.552  0.0969 -0.1436 -0.0944
 4893TIP3    H136314   1.816   5.220   6.579 -4.1063 -0.1817 -1.8365
 4893TIP3    H236315   1.816   5.310   6.457  1.0749  2.2258 -0.3297
 4894TIP3   OH236316   2.209   6.919   7.509 -0.3407 -0.0793 -0.1401
 4894TIP3    H136317   2.171   6.971   7.438 -0.7967  0.7758  0.6978
 4894TIP3    H236318   2.137   6.863   7.539 -0.4900  0.3797  0.3823
 4895TIP3   OH236319   2.910   6.607   2.005  0.1808 -0.3926  0.2927
 4895TIP3    H136320   2.903   6.693   2.045  0.5282 -0.2607  0.0759
 4895TIP3    H236321   2.964   6.556   2.066  2.2381  0.3329 -0.8130
 4896TIP3   OH236322   4.243   0.602   0.815  0.1864  0.7901  0.1444
 4896TIP3    H136323   4.294   0.556   0.882 -1.7929 -0.7883  0.6683
 4896TIP3    H236324   4.291   0.585   0.733  0.4151 -0.8257  0.5785
 4897TIP3   OH236325   6.551   5.564   1.199  0.0910 -0.0806 -0.0496
 4897TIP3    H136326   6.633   5.608   1.174 -0.0715 -0.7497 -1.9202
 4897TIP3    H236327   6.575   5.472   1.205 -0.3746 -0.1853  0.1935
 4898TIP3   OH236328   0.151   2.721   1.082  0.3481  0.3076  0.5718
 4898TIP3    H136329   0.186   2.638   1.114  0.8079  1.2731  2.7670
 4898TIP3    H236330   0.111   2.761   1.159 -0.7243  1.7000 -0.6572
 4899TIP3   OH236331   0.324   1.418   1.525 -0.3832  0.1286  0.6701
 4899TIP3    H136332   0.416   1.443   1.534  0.2812 -2.0994  0.6777
 4899TIP3    H236333   0.284   1.491   1.478  2.0694 -0.1292 -2.1010
 4900TIP3   OH236334   0.011   2.406   2.533 -0.2943 -0.4735 -0.0589
 4900TIP3    H136335   0.050   2.484   2.494 -0.9728 -0.5895 -0.9986
 4900TIP3    H236336   0.084   2.363   2.577  0.7914 -0.9516 -2.1984
 4901TIP3   OH236337   1.833   0.552   1.601 -0.2486  0.5426 -0.0707
 4901TIP3    H136338   1.766   0.490   1.572  0.2892  0.4619 -1.1895
 4901TIP3    H236339   1.789   0.605   1.668 -1.8628  1.3877 -1.7098
 4902TIP3   OH236340   6.745   3.883   6.517  0.2949 -0.4169  0.3902
 4902TIP3    H136341   6.689   3.958   6.497 -0.1808 -0.9923 -0.5002
 4902TIP3    H236342   6.829   3.922   6.540 -0.0991  0.4107  0.4900
 4903TIP3   OH236343   6.710   4.939   7.727 -0.0064  0.2328  0.0159
 4903TIP3    H136344   6.723   4.997   7.653  0.4203 -1.5595 -1.4008
 4903TIP3    H236345   6.798   4.909   7.750 -0.1427  0.6697  1.2045
 4904TIP3   OH236346   6.290   5.088   0.882 -0.8210 -0.3578 -0.4422
 4904TIP3    H136347   6.268   5.085   0.975 -1.5882 -1.0903 -0.6358
 4904TIP3    H236348   6.281   4.998   0.853 -1.2246 -0.0221 -1.3726
 4905TIP3   OH236349   4.077   2.281   0.196  0.7270  0.1578 -0.9661
 4905TIP3    H136350   3.986   2.304   0.178  0.8955 -0.1827 -2.3961
 4905TIP3    H236351   4.074   2.229   0.276 -0.2571  0.7208 -0.6352
 4906TIP3   OH236352   0.496   1.456   1.286 -0.3503 -0.4535  0.3136
 4906TIP3    H136353   0.544   1.393   1.232 -1.6211  0.2102 -1.7185
 4906TIP3    H236354   0.521   1.435   1.376  2.3739 -1.2164 -0.5274
 4907TIP3   OH236355   4.663   5.249   1.667 -0.1962 -0.3408  0.5809
 4907TIP3    H136356   4.637   5.234   1.758  0.6692  1.7978  1.2317
 4907TIP3    H236357   4.757   5.264   1.671 -0.0461 -0.7808 -0.7675
 4908TIP3   OH236358   4.273   6.407   6.307 -0.5366  0.5634  0.6542
 4908TIP3    H136359   4.301   6.498   6.292 -0.9197  0.7493  1.0451
 4908TIP3    H236360   4.354   6.360   6.325 -0.2085  0.6108 -0.5801
 4909TIP3   OH236361   6.191   1.862   7.529 -0.2008  0.3580 -0.4605
 4909TIP3    H136362   6.197   1.920   7.605 -0.5395  0.2168 -0.3238
 4909TIP3    H236363   6.143   1.786   7.561 -0.6626  0.4561 -0.9116
 4910TIP3   OH236364   0.957   1.210   0.745 -0.0955 -0.3450 -0.3045
 4910TIP3    H136365   0.935   1.136   0.687  0.8400 -1.6384  0.9002
 4910TIP3    H236366   1.010   1.170   0.815 -0.9257  1.2077  1.2824
 4911TIP3   OH236367   2.318   1.314   5.744 -0.9447  0.4081  0.7868
 4911TIP3    H136368   2.354   1.374   5.678  0.5369 -0.6934  0.5289
 4911TIP3    H236369   2.304   1.369   5.821 -0.9936  1.3662  0.1147
 4912TIP3   OH236370   4.309   5.108   0.899  0.0157  0.5809  0.0347
 4912TIP3    H136371   4.276   5.037   0.845  1.7649  0.4202 -0.9004
 4912TIP3    H236372   4.269   5.094   0.985 -2.1667  0.3615 -0.9526
 4913TIP3   OH236373   6.536   4.526   8.123  0.3772 -0.3055  0.3721
 4913TIP3    H136374   6.546   4.619   8.100  0.5015 -0.3744  0.1420
 4913TIP3    H236375   6.442   4.513   8.126  0.3531 -0.3911 -0.5141
 4914TIP3   OH236376   2.784   0.962   8.484  0.2047 -0.4392 -0.6826
 4914TIP3    H136377   2.866   0.950   8.437 -0.1523 -2.1739 -0.9356
 4914TIP3    H236378   2.730   0.888   8.457 -1.2400  0.3525 -0.0767
 4915TIP3   OH236379   2.743   0.958   0.752 -0.3249 -0.2027  0.0554
 4915TIP3    H136380   2.653   0.933   0.731  0.2987 -0.9686 -1.9272
 4915TIP3    H236381   2.743   1.054   0.748 -1.3925 -0.0926  1.7704
 4916TIP3   OH236382   0.426   1.476   0.812 -0.4197  0.0217  0.1071
 4916TIP3    H136383   0.363   1.466   0.884  1.1167  2.9325  2.0386
 4916TIP3    H236384   0.449   1.568   0.813  1.2803 -0.2557 -2.8364
 4917TIP3   OH236385   6.322   4.397   7.944  0.2338 -0.1225 -0.1479
 4917TIP3    H136386   6.285   4.471   7.895  0.0724 -0.1991 -0.1437
 4917TIP3    H236387   6.385   4.357   7.884  0.1153 -0.1513 -0.2530
 4918TIP3   OH236388   6.510   0.689   8.023  0.3500  0.3734  0.1120
 4918TIP3    H136389   6.428   0.666   8.068  0.6326 -1.6717 -0.3184
 4918TIP3    H236390   6.579   0.651   8.078  0.7884 -0.7313 -1.1456
 4919TIP3   OH236391   3.613   1.701   8.057 -0.3265 -0.1791 -0.4636
 4919TIP3    H136392   3.561   1.770   8.014  0.5686  0.3606 -0.6974
 4919TIP3    H236393   3.652   1.745   8.133  0.7311 -0.2552 -0.9473
 4920TIP3   OH236394   1.791   0.930   5.813  0.0848 -0.0929 -0.3435
 4920TIP3    H136395   1.796   1.009   5.867  0.9983  1.4809 -2.5837
 4920TIP3    H236396   1.864   0.876   5.842 -0.0663  0.2318  0.6687
 4921TIP3   OH236397   5.857   6.355   8.385  0.2183 -0.1129  0.0222
 4921TIP3    H136398   5.775   6.325   8.425 -1.6260  2.3367 -1.6039
 4921TIP3    H236399   5.925   6.330   8.448 -1.8200 -1.7272  1.7338
 4922TIP3   OH236400   0.437   1.809   1.525 -0.0149 -0.2764 -0.0416
 4922TIP3    H136401   0.344   1.828   1.533  0.0152 -0.6431  1.6647
 4922TIP3    H236402   0.449   1.778   1.435 -1.4606  0.1408 -0.3903
 4923TIP3   OH236403   4.642   4.411   2.021  0.1507  0.1072 -0.2968
 4923TIP3    H136404   4.562   4.451   2.057  0.0203  0.7205 -1.2219
 4923TIP3    H236405   4.613   4.326   1.988 -0.1026  0.2645 -0.4932
 4924TIP3   OH236406   1.129   0.244   0.569 -0.0849  0.1527  0.2812
 4924TIP3    H136407   1.034   0.258   0.565 -0.1659 -0.6768 -1.3835
 4924TIP3    H236408   1.167   0.330   0.549 -0.4948  0.1759 -0.4134
 4925TIP3   OH236409   2.514   1.698   6.704  0.0110  0.8159 -0.0975
 4925TIP3    H136410   2.436   1.717   6.757 -1.8917 -1.0010 -2.0068
 4925TIP3    H236411   2.516   1.767   6.638  1.4775  2.2046  1.3348
 4926TIP3   OH236412   3.555   1.820   6.587  0.8325 -0.5795  0.0744
 4926TIP3    H136413   3.469   1.792   6.619  0.6873 -0.3419 -0.1001
 4926TIP3    H236414   3.542   1.832   6.493  0.7695  0.5087  0.2107
 4927TIP3   OH236415   5.603   4.631   0.461 -0.1552  0.0372 -0.2305
 4927TIP3    H136416   5.669   4.580   0.509 -0.3087 -0.1364 -0.1995
 4927TIP3    H236417   5.642   4.647   0.375 -0.0475 -0.0152 -0.1910
 4928TIP3   OH236418   0.159   0.187   8.102 -0.2822  0.5589  0.8701
 4928TIP3    H136419   0.067   0.163   8.107 -0.5879  1.3207 -0.5387
 4928TIP3    H236420   0.159   0.275   8.064  1.0592 -0.0869 -0.7765
 4929TIP3   OH236421   1.115   4.275   1.014  0.8329 -0.0630 -0.3637
 4929TIP3    H136422   1.144   4.186   0.996 -0.5115 -0.7412  0.5888
 4929TIP3    H236423   1.026   4.279   0.978 -0.0637  0.0602  1.7166
 4930TIP3   OH236424   6.047   4.866   1.053 -0.4404 -0.4040 -0.1826
 4930TIP3    H136425   6.129   4.885   1.098  0.2235 -0.1378 -1.4374
 4930TIP3    H236426   5.989   4.832   1.121  1.3350 -2.4987  0.3854
 4931TIP3   OH236427   2.387   2.676   2.319 -0.0430 -0.4008  0.1297
 4931TIP3    H136428   2.388   2.580   2.325  1.1252 -0.4682 -0.7298
 4931TIP3    H236429   2.428   2.705   2.400  1.8659 -0.7429 -0.6607
 4932TIP3   OH236430   2.487   0.892   0.679  0.1695  0.0044  0.2119
 4932TIP3    H136431   2.452   0.976   0.648 -1.4406 -0.1051  1.5890
 4932TIP3    H236432   2.465   0.830   0.610  1.6823  0.7266 -0.9856
 4933TIP3   OH236433   5.191   0.190   7.325  0.1888 -0.2140 -0.3562
 4933TIP3    H136434   5.199   0.279   7.358 -0.4361 -0.3643  0.2273
 4933TIP3    H236435   5.147   0.201   7.240 -2.2701 -0.1083  0.8394
 4934TIP3   OH236436   1.539   2.804   1.679 -0.0654  0.1183 -0.5110
 4934TIP3    H136437   1.471   2.775   1.619 -0.4865 -2.2868  0.9778
 4934TIP3    H236438   1.564   2.725   1.727 -0.1095  1.9361  2.8008
 4935TIP3   OH236439   6.504   1.704   8.307 -0.2059 -0.6615 -0.3441
 4935TIP3    H136440   6.507   1.680   8.214  0.1449  0.1917 -0.5683
 4935TIP3    H236441   6.437   1.773   8.311 -0.3842 -0.8587  0.0791
 4936TIP3   OH236442   6.094   1.127   6.609 -0.5686  0.0062  0.5057
 4936TIP3    H136443   6.078   1.149   6.517 -0.3102 -0.4876  0.3382
 4936TIP3    H236444   6.144   1.201   6.643  0.0761 -0.1941  0.0205
 4937TIP3   OH236445   3.759   1.213   0.113  0.3400  0.0065 -0.3458
 4937TIP3    H136446   3.678   1.233   0.159 -0.7724 -1.9619 -1.3214
 4937TIP3    H236447   3.798   1.142   0.163 -0.2324 -1.2694 -1.6360
 4938TIP3   OH236448   5.922   4.829   1.297  0.3085  0.2638 -0.6856
 4938TIP3    H136449   5.885   4.917   1.306  1.0172  0.5879 -0.8955
 4938TIP3    H236450   5.863   4.774   1.348 -0.4969  0.7569 -1.0548
 4939TIP3   OH236451   4.615   1.281   8.311 -0.5163  0.1915 -0.2981
 4939TIP3    H136452   4.676   1.217   8.274  1.5098  2.1785 -0.5476
 4939TIP3    H236453   4.626   1.274   8.405  0.6547  0.9987 -0.3537
 4940TIP3   OH236454   3.710   6.878   6.673  0.7719  0.1844 -0.1434
 4940TIP3    H136455   3.761   6.919   6.743  0.2365 -0.0683  0.4033
 4940TIP3    H236456   3.646   6.945   6.648  1.6740  0.6957 -1.1885
 4941TIP3   OH236457   6.332   6.542   1.433 -0.0112  0.4805  0.0512
 4941TIP3    H136458   6.342   6.583   1.519 -1.0376  1.5437 -0.3112
 4941TIP3    H236459   6.419   6.550   1.393  0.2859  0.6275  0.7124
 4942TIP3   OH236460   5.169   1.195   1.466  0.0110 -0.0179 -0.1486
 4942TIP3    H136461   5.207   1.226   1.548 -0.5608  0.5580 -0.0877
 4942TIP3    H236462   5.236   1.137   1.429  1.6477  2.1173 -0.7805
 4943TIP3   OH236463   2.429   2.945   1.776 -0.4971 -0.8662  0.1585
 4943TIP3    H136464   2.403   3.022   1.725 -0.6438 -0.1115  1.3359
 4943TIP3    H236465   2.346   2.907   1.805 -0.4080 -1.2174 -0.0373
 4944TIP3   OH236466   5.426   2.681   1.745  0.0150  0.6241  0.5940
 4944TIP3    H136467   5.351   2.715   1.794 -0.3062  2.0548 -0.8169
 4944TIP3    H236468   5.396   2.677   1.654  1.2035 -0.1511  0.2002
 4945TIP3   OH236469   2.176   5.887   0.770 -0.2678  0.1721  0.5592
 4945TIP3    H136470   2.194   5.938   0.691 -0.1419 -0.1610  0.3743
 4945TIP3    H236471   2.260   5.882   0.816 -0.8246  2.5380  2.0154
 4946TIP3   OH236472   3.802   6.894   0.929  0.0743 -0.8347  0.1315
 4946TIP3    H136473   3.727   6.891   0.869  0.7739  0.5938 -0.8960
 4946TIP3    H236474   3.772   6.947   1.002 -0.0775 -0.6886 -0.0353
 4947TIP3   OH236475   6.077   1.659   1.044 -0.3903  0.0607 -0.4028
 4947TIP3    H136476   6.144   1.727   1.056  0.5674 -0.7888 -0.7575
 4947TIP3    H236477   6.091   1.599   1.117 -0.5039 -0.3303 -0.6979
 4948TIP3   OH236478   2.619   5.184   6.785 -0.5449 -0.1992 -0.4041
 4948TIP3    H136479   2.579   5.272   6.780  0.0903  0.0570 -1.2132
 4948TIP3    H236480   2.573   5.134   6.717 -1.2454 -0.6507  0.3826
 4949TIP3   OH236481   4.040   0.853   6.879  0.3368 -0.1266  0.3178
 4949TIP3    H136482   4.129   0.879   6.854  0.1491  0.4076  0.2028
 4949TIP3    H236483   4.026   0.897   6.963 -0.0268  0.2440  0.0640
 4950TIP3   OH236484   0.835   2.727   8.379  0.0419  0.3089  0.2069
 4950TIP3    H136485   0.763   2.779   8.341  0.6825  1.8118  0.9718
 4950TIP3    H236486   0.799   2.693   8.461 -0.5786 -1.0206 -0.5780
 4951TIP3   OH236487   4.743   1.631   1.374 -0.6374  0.2325 -0.3056
 4951TIP3    H136488   4.776   1.644   1.285  0.6505  0.0433  0.1271
 4951TIP3    H236489   4.677   1.700   1.385 -0.5120  0.5234 -1.2522
 4952TIP3   OH236490   2.112   0.450   1.675  0.8366  0.2264  0.3907
 4952TIP3    H136491   2.161   0.453   1.757 -0.4008 -0.8497  1.2085
 4952TIP3    H236492   2.026   0.484   1.698 -0.0982 -1.7850 -0.0037
 4953TIP3   OH236493   0.620   0.459   8.134 -0.1251  0.8468  0.0640
 4953TIP3    H136494   0.678   0.527   8.168  1.0380 -0.5226  0.9112
 4953TIP3    H236495   0.586   0.414   8.212 -1.0070  0.5536 -0.4705
 4954TIP3   OH236496   6.890   5.318   7.881  0.3546  0.1211 -0.4832
 4954TIP3    H136497   6.973   5.294   7.924  0.5614 -0.7437 -1.3385
 4954TIP3    H236498   6.823   5.298   7.946  0.7878  0.6190  0.1367
 4955TIP3   OH236499   5.814   6.711   2.054  0.3108 -0.0080 -0.1544
 4955TIP3    H136500   5.849   6.640   2.000 -0.7463  0.5746 -1.6892
 4955TIP3    H236501   5.866   6.787   2.029 -0.9048  0.5126 -1.2748
 4956TIP3   OH236502   5.786   0.190   8.101 -0.3755 -0.5557 -0.1565
 4956TIP3    H136503   5.809   0.134   8.026  0.8435 -1.5482  0.9146
 4956TIP3    H236504   5.693   0.172   8.116 -0.3648 -1.1814 -0.7597
 4957TIP3   OH236505   0.290   1.298   0.689  0.4133  0.0475 -0.2351
 4957TIP3    H136506   0.252   1.251   0.764  1.4440  0.4868  0.5726
 4957TIP3    H236507   0.355   1.356   0.727  0.1820  1.0822 -1.3802
 4958TIP3   OH236508   6.506   2.041   0.213  0.0408  0.0624 -0.4272
 4958TIP3    H136509   6.555   2.064   0.292  2.1827  0.2324 -1.7522
 4958TIP3    H236510   6.467   2.123   0.184  1.2953  0.5124 -0.8833
 4959TIP3   OH236511   5.374   5.331   6.827 -0.0196  0.5522 -0.1400
 4959TIP3    H136512   5.285   5.296   6.837  0.1867  0.1021  0.1348
 4959TIP3    H236513   5.367   5.391   6.752 -0.3165 -0.3084 -0.8198
 4960TIP3   OH236514   0.062   4.621   8.043 -0.1148 -0.2000  0.0756
 4960TIP3    H136515   0.145   4.623   8.091  0.4967 -1.2178 -0.8721
 4960TIP3    H236516   0.012   4.550   8.085  0.4289 -1.1051 -0.7579
 4961TIP3   OH236517   0.048   1.524   7.786 -0.2450  0.2123 -0.6306
 4961TIP3    H136518   0.015   1.614   7.785 -0.3094  0.1840 -0.9254
 4961TIP3    H236519  -0.025   1.471   7.755 -0.5819 -0.0668  0.5843
 4962TIP3   OH236520   3.765   6.184   7.677 -0.1409  0.3125 -0.1235
 4962TIP3    H136521   3.766   6.206   7.770 -0.5275  1.1874 -0.3115
 4962TIP3    H236522   3.702   6.245   7.639 -0.1508 -0.1872 -0.9236
 4963TIP3   OH236523   0.139   2.417   7.913  0.7189 -0.1921 -0.0645
 4963TIP3    H136524   0.194   2.383   7.984  1.4932 -2.1042 -1.4853
 4963TIP3    H236525   0.053   2.378   7.930  0.2965  1.1317  1.0014
 4964TIP3   OH236526   6.783   2.224   1.535  0.4231  0.0835  0.1401
 4964TIP3    H136527   6.805   2.305   1.488  0.2098  0.2075  0.2555
 4964TIP3    H236528   6.815   2.154   1.478  1.3707  0.2693  0.4275
 4965TIP3   OH236529   1.181   0.268   1.899  0.3803  0.6020 -0.0893
 4965TIP3    H136530   1.134   0.336   1.851 -1.1120 -2.0819 -2.7765
 4965TIP3    H236531   1.244   0.233   1.835  0.7827 -0.8117  1.0195
 4966TIP3   OH236532   4.988   3.364   1.115  0.5646  0.4218  0.0353
 4966TIP3    H136533   5.041   3.440   1.137  0.8515  0.5610 -1.0931
 4966TIP3    H236534   4.898   3.390   1.136  0.4246  1.7643 -2.0280
 4967TIP3   OH236535   5.672   3.959   0.295 -0.0994 -0.3250 -0.1578
 4967TIP3    H136536   5.753   3.953   0.345 -0.0506  0.3432 -0.1424
 4967TIP3    H236537   5.614   3.893   0.334  0.8674 -1.7371 -1.0220
 4968TIP3   OH236538   6.942   6.538   7.499  0.5295 -0.4481 -0.6150
 4968TIP3    H136539   6.895   6.543   7.415  1.3969  0.9025 -1.0455
 4968TIP3    H236540   6.993   6.619   7.503  2.0538 -1.4003  0.2914
 4969TIP3   OH236541   2.835   5.492   1.054 -0.2369 -0.3259 -0.2839
 4969TIP3    H136542   2.834   5.584   1.026 -0.5300 -0.5323 -0.9687
 4969TIP3    H236543   2.870   5.445   0.979 -0.5791 -0.8376 -0.1262
 4970TIP3   OH236544   0.920   1.453   0.721 -0.2342  0.2033 -0.0231
 4970TIP3    H136545   0.955   1.366   0.740  1.2390  0.4903 -1.2208
 4970TIP3    H236546   0.929   1.462   0.626 -1.5391  1.1953 -0.0770
 4971TIP3   OH236547   5.662   4.572   6.370  0.3273  0.5748 -0.1895
 4971TIP3    H136548   5.734   4.534   6.319 -0.1517 -0.4607 -0.1190
 4971TIP3    H236549   5.631   4.646   6.318  1.9222  1.5266  0.1313
 4972TIP3   OH236550   3.097   4.554   6.197  0.2706 -0.1156 -0.1320
 4972TIP3    H136551   3.179   4.506   6.204  0.4340  0.1537 -0.1784
 4972TIP3    H236552   3.123   4.645   6.185 -0.0341  0.0748  0.5615
 4973TIP3   OH236553   5.694   1.067   0.767  0.2074  0.2299 -0.0867
 4973TIP3    H136554   5.772   1.025   0.730 -0.2816 -1.2461  0.4799
 4973TIP3    H236555   5.628   1.062   0.697  0.5061  1.2130 -0.4601
 4974TIP3   OH236556   5.546   5.513   8.371  0.4473 -0.3442 -0.0793
 4974TIP3    H136557   5.605   5.588   8.380  0.8470 -0.6932  0.2656
 4974TIP3    H236558   5.495   5.514   8.452 -1.0310  0.7921 -0.9745
 4975TIP3   OH236559   5.338   4.511   1.421  0.1025 -0.5712 -0.3152
 4975TIP3    H136560   5.369   4.563   1.346 -2.2286  1.0183 -0.2918
 4975TIP3    H236561   5.355   4.420   1.396 -0.8594 -0.1220 -2.9866
 4976TIP3   OH236562   6.639   3.454   7.855  0.1073 -0.1072 -0.1553
 4976TIP3    H136563   6.690   3.403   7.918  0.1916 -0.9640 -0.8860
 4976TIP3    H236564   6.583   3.389   7.812 -1.3127  0.7520  0.3321
 4977TIP3   OH236565   6.363   3.916   1.961  0.1981  0.5508  0.4925
 4977TIP3    H136566   6.394   4.002   1.933  0.2287  0.4464  0.2106
 4977TIP3    H236567   6.270   3.915   1.938  0.4047  0.1508 -0.3716
 4978TIP3   OH236568   6.401   2.522   7.670 -0.8561  1.3080  0.3540
 4978TIP3    H136569   6.496   2.507   7.674 -0.8694  1.2562  0.4822
 4978TIP3    H236570   6.390   2.615   7.693 -0.8496  1.2734  0.4933
 4979TIP3   OH236571   2.205   5.178   1.280 -0.2037  0.3010  0.3782
 4979TIP3    H136572   2.119   5.202   1.247  0.5347  2.9425  0.1540
 4979TIP3    H236573   2.244   5.127   1.209 -0.9249  0.5751 -0.2244
 4980TIP3   OH236574   2.286   6.538   1.827 -0.3197  0.4442  0.4571
 4980TIP3    H136575   2.357   6.548   1.763 -0.6620  0.2748  0.0477
 4980TIP3    H236576   2.328   6.497   1.903  0.0318  0.3836  0.2340
 4981TIP3   OH236577   3.509   2.428   0.513  0.3292  0.2323  0.0597
 4981TIP3    H136578   3.541   2.516   0.534 -1.7491  1.3808 -1.2821
 4981TIP3    H236579   3.449   2.407   0.585  1.0282 -0.2185  0.5177
 4982TIP3   OH236580   2.951   5.933   1.247  0.1021  0.0749  0.4963
 4982TIP3    H136581   2.883   5.978   1.197 -0.8090 -0.4614  1.2215
 4982TIP3    H236582   2.911   5.917   1.333  1.2444 -0.0091  1.0290
 4983TIP3   OH236583   3.347   3.009   1.899  0.3399 -0.1373  0.4445
 4983TIP3    H136584   3.319   3.098   1.876 -1.3242 -0.8424 -0.4482
 4983TIP3    H236585   3.389   3.018   1.984  1.4436  1.7080 -0.2456
 4984TIP3   OH236586   3.850   1.196   7.618  0.6127  0.3225 -0.2061
 4984TIP3    H136587   3.871   1.122   7.674  1.1643  0.2385 -0.5150
 4984TIP3    H236588   3.792   1.160   7.551  0.6582  0.2293 -0.1952
 4985TIP3   OH236589   0.457   1.842   6.890 -0.0628  0.3255  0.2275
 4985TIP3    H136590   0.413   1.800   6.816 -1.3150 -1.9988  2.1370
 4985TIP3    H236591   0.421   1.931   6.892 -0.6896  0.1459 -1.3587
 4986TIP3   OH236592   0.478   2.973   8.562 -0.0287  0.5584  0.2372
 4986TIP3    H136593   0.431   3.033   8.503  0.8199  0.8278 -0.1745
 4986TIP3    H236594   0.440   2.887   8.542 -0.6239  0.8252  0.1920
 4987TIP3   OH236595   2.618   3.773   8.347 -0.1625  0.6291  0.7954
 4987TIP3    H136596   2.625   3.699   8.407  2.6337  0.3581  0.2809
 4987TIP3    H236597   2.607   3.733   8.261 -1.4117  0.9239  0.8100
 4988TIP3   OH236598   3.305   5.008   8.091 -0.0890  0.1386 -0.3760
 4988TIP3    H136599   3.218   5.040   8.067 -0.1938 -0.7798 -1.2825
 4988TIP3    H236600   3.290   4.958   8.172 -0.1740  1.0390  0.1825
 4989TIP3   OH236601   6.862   5.007   8.203  0.2921  0.1759  0.4858
 4989TIP3    H136602   6.835   4.974   8.117 -1.3776  0.2649  0.9449
 4989TIP3    H236603   6.901   5.092   8.184 -0.3917  0.3578 -0.1787
 4990TIP3   OH236604   1.440   6.863   7.495 -0.0904 -0.5337  0.5160
 4990TIP3    H136605   1.525   6.818   7.493 -0.7527 -1.8077 -0.2152
 4990TIP3    H236606   1.386   6.810   7.553 -0.8628 -0.6635 -0.2991
 4991TIP3   OH236607   0.704   1.105   0.060 -0.9875  0.7637  0.1813
 4991TIP3    H136608   0.616   1.143   0.056 -0.0403  3.0685 -0.9300
 4991TIP3    H236609   0.763   1.179   0.042  1.2006 -0.6696  1.0023
 4992TIP3   OH236610   0.028   3.119   7.756 -0.7678 -0.3222  0.0984
 4992TIP3    H136611   0.057   3.184   7.691 -0.8746 -0.0957  0.2752
 4992TIP3    H236612   0.109   3.088   7.796 -0.7598  0.3102  0.5929
 4993TIP3   OH236613   3.176   1.791   0.957 -0.4198 -0.2449 -0.1510
 4993TIP3    H136614   3.128   1.780   1.039 -0.9255  0.4779 -0.3481
 4993TIP3    H236615   3.222   1.874   0.967  0.0817 -0.4973 -0.3242
 4994TIP3   OH236616   3.112   5.738   7.664  0.2730 -0.3406 -0.4040
 4994TIP3    H136617   3.083   5.656   7.706 -1.2482  0.7147  0.7016
 4994TIP3    H236618   3.130   5.797   7.737  1.2158  0.3933 -1.2023
 4995TIP3   OH236619   3.410   2.573   8.413 -0.1953  0.7957  0.6807
 4995TIP3    H136620   3.351   2.529   8.352 -1.1940  2.7442  0.1657
 4995TIP3    H236621   3.472   2.505   8.439 -0.8612 -0.5695 -1.0637
 4996TIP3   OH236622   5.438   4.649   1.198 -0.0155 -0.1992  0.2612
 4996TIP3    H136623   5.498   4.705   1.248  2.1082 -0.4611 -1.8277
 4996TIP3    H236624   5.371   4.709   1.166 -0.8131  0.1556  2.3899
 4997TIP3   OH236625   1.919   3.093   7.155 -0.2791  0.4131  0.0420
 4997TIP3    H136626   1.913   3.175   7.105 -0.5300 -0.3205 -1.1692
 4997TIP3    H236627   1.830   3.059   7.157 -0.3051  0.5059  1.1582
 4998TIP3   OH236628   5.157   4.088   1.287  0.2074  0.0897  0.5560
 4998TIP3    H136629   5.220   4.021   1.259 -0.6378 -0.3083 -0.4748
 4998TIP3    H236630   5.138   4.138   1.208 -1.2442 -0.2087  0.6810
 4999TIP3   OH236631   0.982   3.082   8.106 -0.0810  0.2325  0.0580
 4999TIP3    H136632   1.056   3.074   8.046  1.0040 -1.0396  1.4812
 4999TIP3    H236633   0.990   3.170   8.144  2.2507 -0.7223  2.0286
 5000TIP3   OH236634   0.218   1.506   2.005  0.6944  0.0548  0.1418
 5000TIP3    H136635   0.306   1.470   2.017  0.2372 -0.8501  0.9476
 5000TIP3    H236636   0.229   1.575   1.940  2.0879  0.2855  0.5863
 5001TIP3   OH236637   2.880   0.853   6.696  0.0665  0.2102  0.3702
 5001TIP3    H136638   2.942   0.785   6.669  0.7899  1.4423 -1.2206
 5001TIP3    H236639   2.819   0.859   6.623 -0.6516  0.5231  0.9858
 5002TIP3   OH236640   4.170   0.901   5.856  0.3996  0.2476 -0.2345
 5002TIP3    H136641   4.205   0.815   5.883  1.5088  0.3806 -1.1764
 5002TIP3    H236642   4.226   0.964   5.900  0.8072  0.4732 -1.0670
 5003TIP3   OH236643   1.569   0.154   2.485 -0.2526  0.4011 -0.0615
 5003TIP3    H136644   1.595   0.228   2.540 -2.7748 -1.1111  3.5852
 5003TIP3    H236645   1.644   0.140   2.427  1.5234  3.9100  1.0523
 5004TIP3   OH236646   3.844   5.137   1.936  0.0057 -0.4180  0.4490
 5004TIP3    H136647   3.783   5.068   1.910 -0.8864  0.0499  1.2219
 5004TIP3    H236648   3.795   5.189   2.000  1.5930 -0.6940  1.9753
 5005TIP3   OH236649   5.411   2.541   8.333 -0.2061 -0.0134 -0.0100
 5005TIP3    H136650   5.434   2.491   8.255 -0.8389 -0.1139 -0.1417
 5005TIP3    H236651   5.477   2.516   8.398  0.5116  0.3125 -0.6005
 5006TIP3   OH236652   3.715   1.186   1.543  0.5395 -0.4255  0.3084
 5006TIP3    H136653   3.723   1.135   1.624 -0.8031 -1.1528  0.0106
 5006TIP3    H236654   3.676   1.126   1.480  1.7960  0.0540 -0.9876
 5007TIP3   OH236655   4.221   1.400   0.854  0.3215 -0.1896 -0.2525
 5007TIP3    H136656   4.212   1.317   0.808 -0.4857  0.8424 -2.0282
 5007TIP3    H236657   4.297   1.441   0.814 -0.4477  0.7623 -0.7775
 5008TIP3   OH236658   1.729   6.927   1.521  0.8043  0.5032 -0.4108
 5008TIP3    H136659   1.814   6.970   1.512  0.7262  0.3523 -2.4598
 5008TIP3    H236660   1.712   6.891   1.434 -1.1220  0.0822  0.0978
 5009TIP3   OH236661   1.582   0.339   1.004 -0.3065  0.1870 -0.2048
 5009TIP3    H136662   1.628   0.268   0.959  1.6107  1.2685 -0.0585
 5009TIP3    H236663   1.491   0.332   0.974  0.3221 -0.8641 -1.9989
 5010TIP3   OH236664   1.554   3.728   0.436  0.0457 -0.0430 -0.1021
 5010TIP3    H136665   1.615   3.726   0.509 -0.2517  0.9459  0.2011
 5010TIP3    H236666   1.468   3.714   0.476  0.0292 -1.1459 -0.4883
 5011TIP3   OH236667   5.294   5.755   2.398  0.2339 -0.0453  0.5174
 5011TIP3    H136668   5.238   5.677   2.392  0.0511  0.2082 -2.8694
 5011TIP3    H236669   5.383   5.721   2.387  0.1685  0.1569 -0.7704
 5012TIP3   OH236670   3.581   5.956   1.398  0.2646  0.4268  0.5335
 5012TIP3    H136671   3.568   6.041   1.441 -1.0032  0.1816  0.6755
 5012TIP3    H236672   3.572   5.975   1.305  3.0469  0.9636  0.2873
 5013TIP3   OH236673   6.766   1.202   6.096  0.6020 -0.4592 -0.3706
 5013TIP3    H136674   6.801   1.162   6.175  0.3155 -0.3894 -0.2051
 5013TIP3    H236675   6.770   1.297   6.113 -0.4626 -0.4645  0.0112
 5014TIP3   OH236676   4.216   0.746   8.337  0.2188  0.3982 -0.2537
 5014TIP3    H136677   4.211   0.718   8.428 -1.2931 -0.7883 -0.6467
 5014TIP3    H236678   4.134   0.716   8.298  1.0351  0.4147 -2.1263
 5015TIP3   OH236679   3.484   4.960   1.015  0.1076  0.0728  0.0789
 5015TIP3    H136680   3.549   4.999   0.957  0.4144 -0.6435 -0.0726
 5015TIP3    H236681   3.529   4.886   1.056 -0.5554 -0.3383  0.0946
 5016TIP3   OH236682   5.129   3.723   7.494 -0.1609  0.2058  0.5321
 5016TIP3    H136683   5.190   3.773   7.440  0.6230  0.0872  1.2837
 5016TIP3    H236684   5.146   3.752   7.583 -0.0981 -0.9578  0.9205
 5017TIP3   OH236685   4.564   5.467   6.828  0.2086  0.0648  0.4753
 5017TIP3    H136686   4.573   5.392   6.769  0.6604  0.7946 -0.4122
 5017TIP3    H236687   4.507   5.528   6.780 -0.1959  0.2753  1.2080
 5018TIP3   OH236688   1.756   1.635   5.996  0.2069  0.5121  0.6354
 5018TIP3    H136689   1.780   1.668   6.082  0.6237  0.9796  0.3477
 5018TIP3    H236690   1.721   1.711   5.949  1.4056  0.6294 -0.1153
 5019TIP3   OH236691   2.589   3.047   0.813 -0.5003 -0.3949  0.6459
 5019TIP3    H136692   2.675   3.082   0.834 -0.7880  0.6257  0.2207
 5019TIP3    H236693   2.572   2.982   0.881  0.5150 -0.4700  0.8419
 5020TIP3   OH236694   1.976   6.778   7.380  0.4656 -0.2284 -0.2885
 5020TIP3    H136695   1.888   6.769   7.417  0.0193  3.2478 -0.1629
 5020TIP3    H236696   2.027   6.709   7.422 -1.5217 -0.5005  1.8865
 5021TIP3   OH236697   6.093   6.915   0.399  0.8195 -0.0204 -0.4353
 5021TIP3    H136698   6.010   6.882   0.365  0.8409 -0.8275  0.2649
 5021TIP3    H236699   6.079   7.009   0.411 -0.0538 -0.1796 -0.1574
 5022TIP3   OH236700   4.741   2.174   6.761 -0.1730 -0.1964  0.2363
 5022TIP3    H136701   4.653   2.179   6.724 -0.4550  0.6724  0.9898
 5022TIP3    H236702   4.774   2.089   6.733 -1.6733 -1.0155  0.8278
 5023TIP3   OH236703   3.495   4.076   8.315  0.3910  0.0510  0.4765
 5023TIP3    H136704   3.561   4.011   8.340  0.1132 -0.3241  0.2475
 5023TIP3    H236705   3.512   4.094   8.223 -0.1008 -0.3898  0.2895
 5024TIP3   OH236706   1.620   6.175   1.753 -0.6050 -0.6372  0.0266
 5024TIP3    H136707   1.531   6.140   1.759 -0.6919 -0.2343  1.2914
 5024TIP3    H236708   1.612   6.265   1.783  0.0129 -0.1984 -1.0960
 5025TIP3   OH236709   3.884   2.320   2.227 -0.5710 -0.4131  0.2388
 5025TIP3    H136710   3.820   2.365   2.172 -1.8076 -1.3105  0.8994
 5025TIP3    H236711   3.894   2.376   2.304 -0.5854 -0.2849  0.1482
 5026TIP3   OH236712   2.722   0.583   8.110  0.4449  0.4271  0.1850
 5026TIP3    H136713   2.649   0.641   8.133 -0.6866 -1.2340  0.9829
 5026TIP3    H236714   2.697   0.498   8.147  1.7816 -0.7170 -1.4252
 5027TIP3   OH236715   1.479   4.656   8.097  0.0741  0.1395  0.2000
 5027TIP3    H136716   1.397   4.706   8.089 -0.7522 -1.3714 -1.5309
 5027TIP3    H236717   1.451   4.565   8.105  1.5231 -0.6166 -2.1657
 5028TIP3   OH236718   6.213   0.219   1.403  0.3097  0.2507 -0.1902
 5028TIP3    H136719   6.124   0.190   1.385 -0.1342  2.0647 -1.1226
 5028TIP3    H236720   6.252   0.233   1.317  0.9509  1.0347  0.2125
 5029TIP3   OH236721   5.398   6.192   0.990 -0.1922  0.2487 -0.0484
 5029TIP3    H136722   5.387   6.234   1.075  2.1068 -0.8891  0.8822
 5029TIP3    H236723   5.489   6.208   0.966  0.7652 -3.6382  0.1762
 5030TIP3   OH236724   0.298   3.077   2.394  0.1232 -0.6213 -0.2284
 5030TIP3    H136725   0.390   3.050   2.394 -0.2633 -2.0758  1.4427
 5030TIP3    H236726   0.294   3.145   2.326  2.6839  0.4038  0.5114
 5031TIP3   OH236727   0.260   5.395   7.650 -0.1376  0.5044  0.5485
 5031TIP3    H136728   0.344   5.436   7.630 -0.2597  0.1340 -0.8353
 5031TIP3    H236729   0.277   5.343   7.728  1.4826 -1.0918 -0.7641
 5032TIP3   OH236730   3.534   0.557   1.468 -0.5817  0.5373 -0.5510
 5032TIP3    H136731   3.464   0.507   1.511 -0.4028  0.6303 -0.1469
 5032TIP3    H236732   3.600   0.492   1.444  0.5713  0.7696  1.7352
 5033TIP3   OH236733   4.906   5.220   0.607 -0.1974 -0.4320  0.3072
 5033TIP3    H136734   4.897   5.144   0.666  1.6082 -0.1205  1.0545
 5033TIP3    H236735   4.989   5.261   0.634 -0.2511  0.7851 -1.2679
 5034TIP3   OH236736   0.883   3.894   1.255 -0.2496 -0.3830  0.5232
 5034TIP3    H136737   0.888   3.952   1.331 -0.7818 -0.2611  0.4740
 5034TIP3    H236738   0.790   3.869   1.251  0.0974 -1.8567  1.0039
 5035TIP3   OH236739   1.152   4.834   0.386  0.3742  0.5110  0.2941
 5035TIP3    H136740   1.103   4.752   0.380  2.6932 -0.9268 -0.2427
 5035TIP3    H236741   1.135   4.865   0.475 -0.4559 -0.5886  0.5401
 5036TIP3   OH236742   2.487   6.803   8.561 -0.3800  0.0057 -0.1815
 5036TIP3    H136743   2.523   6.885   8.527 -1.7591  0.5030 -0.5084
 5036TIP3    H236744   2.403   6.828   8.599 -0.1732 -1.0376  0.9920
 5037TIP3   OH236745   6.740   6.628   0.692  0.2799  0.1349  0.3823
 5037TIP3    H136746   6.765   6.551   0.642  0.1738 -0.5599  1.3782
 5037TIP3    H236747   6.666   6.665   0.643 -0.5621 -1.1771  0.6109
 5038TIP3   OH236748   0.311   6.135   7.848  0.4685  0.2293  0.2021
 5038TIP3    H136749   0.392   6.087   7.836  0.9120  0.8974  0.4420
 5038TIP3    H236750   0.334   6.208   7.906  0.0663  1.3340 -0.9610
 5039TIP3   OH236751   6.346   4.245   7.723  0.0438 -0.5078 -0.2540
 5039TIP3    H136752   6.333   4.154   7.694  1.6345  0.0601 -3.0111
 5039TIP3    H236753   6.259   4.284   7.719 -0.3887 -1.4763 -0.6131
 5040TIP3   OH236754   0.534   3.705   7.619  0.0376 -0.0847  0.0946
 5040TIP3    H136755   0.619   3.735   7.587 -0.3614  1.6477  0.5727
 5040TIP3    H236756   0.470   3.758   7.572 -0.6966 -0.0449  1.1049
 5041TIP3   OH236757   5.656   4.292   6.538  0.4444 -0.0718  0.0109
 5041TIP3    H136758   5.683   4.236   6.611  1.2947 -2.1540 -1.8101
 5041TIP3    H236759   5.698   4.254   6.461 -1.7766  1.0155 -1.8631
 5042TIP3   OH236760   3.558   0.636   0.219  1.0228  0.4767 -0.2218
 5042TIP3    H136761   3.574   0.544   0.198  1.4062  0.9755 -2.3075
 5042TIP3    H236762   3.463   0.644   0.221  0.9849 -0.0079  0.2780
 5043TIP3   OH236763   4.294   5.232   1.799 -0.1706 -0.4601 -0.2220
 5043TIP3    H136764   4.328   5.175   1.868 -0.7356  0.4939  0.8618
 5043TIP3    H236765   4.372   5.272   1.761  0.0993 -0.4191  0.3687
 5044TIP3   OH236766   4.704   1.733   8.537 -0.6692 -0.2492  0.2095
 5044TIP3    H136767   4.752   1.816   8.524  0.4930 -0.9253  0.0138
 5044TIP3    H236768   4.655   1.721   8.456  0.6595 -0.6821 -0.5739
 5045TIP3   OH236769   0.863   5.333   1.432 -0.2494  0.1303  0.4252
 5045TIP3    H136770   0.790   5.275   1.409 -0.1268  0.1507 -0.0268
 5045TIP3    H236771   0.838   5.370   1.516 -1.5919  1.4674 -0.5012
 5046TIP3   OH236772   1.680   1.171   6.819 -1.1325  0.4467 -0.2029
 5046TIP3    H136773   1.717   1.117   6.749  0.3306 -0.9894  1.5900
 5046TIP3    H236774   1.605   1.120   6.850 -0.5501  0.0630  0.6022
 5047TIP3   OH236775   5.081   0.677   0.664  0.5217 -0.2905 -0.7068
 5047TIP3    H136776   5.162   0.639   0.697  2.3261  2.4905 -1.5390
 5047TIP3    H236777   5.083   0.658   0.570  0.4286  0.1205 -0.7919
 5048TIP3   OH236778   6.023   0.450   1.305 -0.2615 -0.2788 -0.8640
 5048TIP3    H136779   5.928   0.461   1.299 -0.0647  3.1574  0.0451
 5048TIP3    H236780   6.040   0.438   1.398  0.2236 -0.3787 -0.9637
 5049TIP3   OH236781   2.075   0.430   7.356  0.1547 -0.3242  0.2394
 5049TIP3    H136782   2.116   0.506   7.316  3.0806  0.3824  3.9155
 5049TIP3    H236783   2.122   0.355   7.319  0.8952  0.1057  0.2717
 5050TIP3   OH236784   4.180   3.014   6.765 -0.1128  0.0272  0.7166
 5050TIP3    H136785   4.227   2.994   6.684 -0.7016  0.0547  0.3571
 5050TIP3    H236786   4.184   3.109   6.773  1.4619 -0.0815  1.6716
 5051TIP3   OH236787   4.910   2.250   7.005 -0.6974 -0.2979 -0.2089
 5051TIP3    H136788   4.862   2.207   6.934 -1.3336 -2.5902  1.4553
 5051TIP3    H236789   4.849   2.315   7.039 -0.4496  0.6991 -1.6020
 5052TIP3   OH236790   5.370   4.204   6.283 -0.0240 -0.4727 -0.2373
 5052TIP3    H136791   5.336   4.280   6.331 -1.1112 -2.1350  1.7787
 5052TIP3    H236792   5.451   4.236   6.242 -1.2201  2.1500 -0.7453
 5053TIP3   OH236793   1.410   5.985   2.266  0.4092 -0.2816 -0.0119
 5053TIP3    H136794   1.358   5.958   2.342 -1.5145  2.2703 -0.2462
 5053TIP3    H236795   1.420   5.906   2.214 -0.0951 -1.6395  1.8515
 5054TIP3   OH236796   1.205   4.574   8.540  0.3383  0.2018  0.6837
 5054TIP3    H136797   1.230   4.482   8.524 -1.4525  0.1694 -2.8109
 5054TIP3    H236798   1.168   4.573   8.628  0.8487 -2.3212  0.9657
 5055TIP3   OH236799   5.736   4.506   5.832  0.3469 -0.6246 -0.7545
 5055TIP3    H136800   5.782   4.425   5.853 -1.1528 -0.9851  1.5537
 5055TIP3    H236801   5.645   4.488   5.857  0.1257  2.0307  0.6742
 5056TIP3   OH236802   5.155   4.790   7.512 -0.4022  0.2914 -0.6512
 5056TIP3    H136803   5.120   4.701   7.502  1.2126 -0.3634 -0.7712
 5056TIP3    H236804   5.098   4.844   7.458 -2.0547 -0.4732  0.2416
 5057TIP3   OH236805   3.235   6.380   7.269  0.2118  0.6098 -0.3115
 5057TIP3    H136806   3.307   6.319   7.254 -0.0732  0.6406 -1.9639
 5057TIP3    H236807   3.262   6.460   7.224 -0.0957  1.2179  0.5505
 5058TIP3   OH236808   1.823   4.321   7.218  0.1618 -0.1890  0.0550
 5058TIP3    H136809   1.788   4.299   7.305  0.4768 -2.4204 -0.3142
 5058TIP3    H236810   1.767   4.391   7.187  0.3016  0.9906  2.2106
 5059TIP3   OH236811   5.512   6.911   7.125  0.2483 -0.1896 -0.8784
 5059TIP3    H136812   5.471   6.889   7.042 -0.9646 -1.8867  0.0994
 5059TIP3    H236813   5.489   6.839   7.183 -1.3136  2.1929  1.7326
 5060TIP3   OH236814   2.143   2.529   1.077 -0.5086 -0.8851 -0.5846
 5060TIP3    H136815   2.114   2.620   1.089 -2.9632 -1.3413 -2.2900
 5060TIP3    H236816   2.095   2.499   1.000  2.1242 -2.8877 -1.5999
 5061TIP3   OH236817   3.928   2.081   6.733 -0.3167 -0.0137  0.7705
 5061TIP3    H136818   3.992   2.091   6.662 -1.2080  0.8305  0.0667
 5061TIP3    H236819   3.982   2.063   6.811  0.6645 -1.0281 -0.1105
 5062TIP3   OH236820   1.232   6.684   7.318  0.0610 -0.5241 -0.0848
 5062TIP3    H136821   1.275   6.600   7.302 -0.0987 -0.7464  0.6157
 5062TIP3    H236822   1.156   6.662   7.372  0.4601  0.1576  0.7878
 5063TIP3   OH236823   3.346   1.771   0.705  0.0248 -0.0357  0.0680
 5063TIP3    H136824   3.377   1.680   0.712  1.1346  0.4317  1.9170
 5063TIP3    H236825   3.319   1.793   0.794  0.8559  1.8211 -0.1122
 5064TIP3   OH236826   3.096   5.233   7.885 -0.8083 -0.0245  0.0705
 5064TIP3    H136827   3.020   5.276   7.847  0.2778  0.9611 -1.1223
 5064TIP3    H236828   3.118   5.285   7.962 -2.4388 -1.4484  1.5629
 5065TIP3   OH236829   2.377   2.858   2.092 -0.0864  0.6004  0.6808
 5065TIP3    H136830   2.357   2.821   2.178 -1.3550 -0.7286 -0.1488
 5065TIP3    H236831   2.471   2.844   2.081 -0.2227 -0.8461  1.1262
 5066TIP3   OH236832   5.897   0.731   0.238  0.0486  0.3317  0.4653
 5066TIP3    H136833   5.810   0.697   0.256 -1.2681  2.0308 -2.0231
 5066TIP3    H236834   5.951   0.702   0.312 -2.3859 -1.5231  1.6337
 5067TIP3   OH236835   6.656   3.928   6.911 -0.0135 -0.0719 -0.0809
 5067TIP3    H136836   6.641   4.019   6.885  1.9235  0.3601  0.1894
 5067TIP3    H236837   6.676   3.932   7.004  0.4960 -0.7169 -0.1501
 5068TIP3   OH236838   6.902   2.651   7.324  0.3916 -0.3153  0.5378
 5068TIP3    H136839   6.918   2.732   7.372  1.4286  0.8233 -1.5599
 5068TIP3    H236840   6.921   2.674   7.233  2.5906 -3.4067  0.0564
 5069TIP3   OH236841   4.969   6.129   7.556 -0.0442 -0.7893 -0.7666
 5069TIP3    H136842   5.008   6.193   7.615  0.5892  0.0256 -2.0300
 5069TIP3    H236843   4.998   6.044   7.589 -1.4788 -0.5305  1.3526
 5070TIP3   OH236844   5.557   5.968   2.465 -0.1660 -0.6503 -0.6395
 5070TIP3    H136845   5.585   5.915   2.390 -0.3061  0.8741 -1.8184
 5070TIP3    H236846   5.637   6.011   2.494  0.1148 -2.0582  0.8437
 5071TIP3   OH236847   3.016   2.920   0.472  0.0698 -0.0610  0.1777
 5071TIP3    H136848   2.990   2.983   0.405 -2.0922  1.7067  2.4423
 5071TIP3    H236849   3.041   2.974   0.547 -0.8838 -1.8586  1.8999
 5072TIP3   OH236850   2.612   6.144   7.041  0.4821  0.2280 -0.4130
 5072TIP3    H136851   2.592   6.167   6.950 -1.4133  0.0703 -0.0694
 5072TIP3    H236852   2.605   6.049   7.043 -3.4664  0.3968  0.6755
 5073TIP3   OH236853   3.524   2.282   2.199 -0.5243  0.2836  0.3226
 5073TIP3    H136854   3.491   2.304   2.111 -1.5057  0.4738  0.7266
 5073TIP3    H236855   3.468   2.210   2.228 -1.1657  1.1631  1.3583
 5074TIP3   OH236856   2.803   1.432   7.008  0.3804  0.8564  0.0959
 5074TIP3    H136857   2.775   1.452   6.919  1.2393 -1.6655 -0.8294
 5074TIP3    H236858   2.724   1.399   7.051 -0.1026  2.3395  0.4117
 5075TIP3   OH236859   1.856   4.784   0.313  0.5613  0.1337 -0.2930
 5075TIP3    H136860   1.926   4.771   0.377 -0.9904 -1.2045  1.2241
 5075TIP3    H236861   1.865   4.876   0.286  2.7279  0.0528  0.0084
 5076TIP3   OH236862   6.916   2.757   0.605  0.0798 -0.2005 -0.2723
 5076TIP3    H136863   6.893   2.675   0.648 -0.8956  0.2064  0.0017
 5076TIP3    H236864   6.837   2.782   0.557  0.4192  0.5056 -0.4746
 5077TIP3   OH236865   5.081   1.817   0.059  0.2148  0.3107  0.5383
 5077TIP3    H136866   5.093   1.840  -0.033  0.1738  0.3069  0.5319
 5077TIP3    H236867   4.989   1.834   0.076 -0.2864 -1.5806  0.0338
 5078TIP3   OH236868   1.656   6.047   1.173 -0.4105  0.4758 -0.1041
 5078TIP3    H136869   1.674   6.120   1.113 -0.1614  1.1792  0.8069
 5078TIP3    H236870   1.699   6.072   1.255 -1.7929  0.1253  0.7606
 5079TIP3   OH236871   3.779   3.086   0.766 -0.5519 -0.0999 -0.4267
 5079TIP3    H136872   3.874   3.079   0.771 -0.5278  1.0169  1.3724
 5079TIP3    H236873   3.763   3.135   0.685  0.3690 -0.4337 -0.8265
 5080TIP3   OH236874   5.014   1.641   1.090 -0.2765  0.1675 -0.2780
 5080TIP3    H136875   5.083   1.654   1.025 -1.4481 -0.3562 -1.6663
 5080TIP3    H236876   4.980   1.729   1.107  1.4022  0.6032  1.2744
 5081TIP3   OH236877   6.490   6.493   0.084  0.6124  0.1511 -0.5712
 5081TIP3    H136878   6.585   6.483   0.091  0.5342 -1.0524 -1.0086
 5081TIP3    H236879   6.466   6.440   0.008 -0.4107  0.4703 -0.4837
 5082TIP3   OH236880   6.383   0.368   0.129 -0.2540 -0.6807 -0.2478
 5082TIP3    H136881   6.315   0.301   0.118  1.7100 -2.7371 -0.4868
 5082TIP3    H236882   6.408   0.391   0.040  1.4293 -2.2169 -0.2245
 5083TIP3   OH236883   6.668   3.254   8.500  0.0127 -0.2581  0.4365
 5083TIP3    H136884   6.619   3.320   8.548  0.8859  0.8270 -0.1299
 5083TIP3    H236885   6.615   3.237   8.422 -0.2563 -0.2855  0.6255
 5084TIP3   OH236886   0.627   5.654   8.316 -0.5420 -0.1411  0.0231
 5084TIP3    H136887   0.671   5.658   8.401 -0.8602  0.8556  0.1520
 5084TIP3    H236888   0.560   5.723   8.320 -1.0879 -0.6087 -0.7400
 5085TIP3   OH236889   1.431   2.431   1.792 -0.1534  0.3232 -0.1932
 5085TIP3    H136890   1.401   2.381   1.868 -0.2704  0.2674 -0.2733
 5085TIP3    H236891   1.407   2.521   1.811  1.8588  0.6783  0.8410
 5086TIP3   OH236892   1.862   2.124   0.865 -0.2102 -0.3179  0.0150
 5086TIP3    H136893   1.819   2.201   0.902 -0.7758 -1.3155  1.5216
 5086TIP3    H236894   1.807   2.097   0.791  0.3385  1.0531 -0.9376
 5087TIP3   OH236895   5.310   0.202   6.752  0.0554  0.0851  0.6292
 5087TIP3    H136896   5.284   0.291   6.728 -0.2513  0.0074  0.6727
 5087TIP3    H236897   5.274   0.147   6.682 -0.5884 -0.1100  1.1078
 5088TIP3   OH236898   6.817   4.672   1.204 -0.1355  0.2971  0.7030
 5088TIP3    H136899   6.843   4.726   1.130  0.9767 -0.9119  0.1737
 5088TIP3    H236900   6.728   4.702   1.225 -0.9233 -0.0012 -1.8029
 5089TIP3   OH236901   5.594   3.589   7.170 -0.0917  0.0361  0.2474
 5089TIP3    H136902   5.532   3.522   7.196 -0.9486  1.1168  1.0883
 5089TIP3    H236903   5.546   3.645   7.109  0.0743  0.8287  0.8301
 5090TIP3   OH236904   4.830   4.613   6.537 -0.4531 -0.6089 -0.7422
 5090TIP3    H136905   4.877   4.692   6.563  0.0440 -1.3412  0.6728
 5090TIP3    H236906   4.864   4.592   6.450  0.9847 -0.4585 -0.2329
 5091TIP3   OH236907   0.839   1.717   0.421 -0.5899  0.3044  0.5048
 5091TIP3    H136908   0.839   1.626   0.393  1.3505  0.8632 -1.5475
 5091TIP3    H236909   0.929   1.734   0.448 -0.7458  1.8176  0.1448
 5092TIP3   OH236910   3.536   3.239   1.727  0.3218 -0.0122  0.1182
 5092TIP3    H136911   3.468   3.182   1.689  0.0075  0.7500 -0.4946
 5092TIP3    H236912   3.492   3.281   1.802 -0.0892  0.9337 -0.6355
 5093TIP3   OH236913   3.448   4.322   6.691  0.4386 -1.5618 -0.0895
 5093TIP3    H136914   3.464   4.322   6.596 -0.0619 -0.9972 -0.1781
 5093TIP3    H236915   3.530   4.355   6.729  0.2768 -0.7894 -0.3962
 5094TIP3   OH236916   6.072   3.252   1.033  0.1306 -0.1315  0.3079
 5094TIP3    H136917   6.014   3.300   0.974  0.5348 -1.4968 -1.2834
 5094TIP3    H236918   6.021   3.241   1.113 -1.0890  0.3084 -0.3846
 5095TIP3   OH236919   6.003   5.404   6.466  0.0789 -0.2325  0.3558
 5095TIP3    H136920   6.095   5.429   6.474 -0.0981  0.5895 -0.0302
 5095TIP3    H236921   6.003   5.323   6.416  0.7543 -1.6691  2.5224
 5096TIP3   OH236922   1.413   5.505   1.636 -0.6030  0.2013 -0.2064
 5096TIP3    H136923   1.479   5.469   1.577 -0.0236 -0.1787  0.6672
 5096TIP3    H236924   1.455   5.580   1.677 -1.4372  1.2602 -1.1951
 5097TIP3   OH236925   0.213   0.401   7.970 -0.8461 -0.0140 -0.3231
 5097TIP3    H136926   0.271   0.397   7.895 -0.0748  0.8089  0.2007
 5097TIP3    H236927   0.241   0.480   8.017  0.7160 -2.0374  2.4306
 5098TIP3   OH236928   0.224   6.583   8.115 -0.3463 -0.5752  0.3478
 5098TIP3    H136929   0.248   6.573   8.207 -0.1417  1.3960  0.5569
 5098TIP3    H236930   0.154   6.648   8.115  2.3462  2.6832 -1.0663
 5099TIP3   OH236931   3.546   2.883   1.744  0.0566  0.2201 -0.1624
 5099TIP3    H136932   3.472   2.909   1.799  0.6661 -0.5235  1.0583
 5099TIP3    H236933   3.541   2.940   1.668 -2.1688 -0.2878 -0.4331
 5100TIP3   OH236934   3.099   4.416   7.587 -0.1381  0.0455 -0.1667
 5100TIP3    H136935   3.111   4.505   7.620  1.1885 -0.2081  0.1180
 5100TIP3    H236936   3.113   4.360   7.664  2.5263 -0.5396 -0.9625
 5101TIP3   OH236937   1.508   6.876   8.198  0.0146  0.0427 -0.2680
 5101TIP3    H136938   1.438   6.892   8.135 -0.4956  0.4321  0.3758
 5101TIP3    H236939   1.530   6.963   8.231  0.2736 -0.1570  0.0915
 5102TIP3   OH236940   2.175   1.568   0.934  0.0616 -0.1103 -0.0925
 5102TIP3    H136941   2.176   1.478   0.968 -1.5770 -0.5599 -1.1070
 5102TIP3    H236942   2.186   1.559   0.840  1.7006  0.9205 -0.0368
 5103TIP3   OH236943   2.366   5.516   6.275  0.4048 -0.3833  1.1672
 5103TIP3    H136944   2.417   5.442   6.241 -2.5267 -2.3158  0.5833
 5103TIP3    H236945   2.365   5.502   6.370  1.3909  0.0270  1.2542
 5104TIP3   OH236946   4.998   2.825   0.298 -0.2493 -0.1892 -0.1466
 5104TIP3    H136947   4.947   2.763   0.350  0.2245 -0.1087  0.4166
 5104TIP3    H236948   5.089   2.795   0.308  0.1122  1.2293  1.0034
 5105TIP3   OH236949   2.978   4.650   0.529 -0.2245 -0.7670 -0.1351
 5105TIP3    H136950   2.976   4.742   0.501  3.4819 -0.5398 -0.1276
 5105TIP3    H236951   2.999   4.601   0.449  1.3589 -1.1241  0.4484
 5106TIP3   OH236952   6.048   3.731   1.625 -0.4249  0.1136  0.4147
 5106TIP3    H136953   6.051   3.641   1.594  0.9622 -0.0554  0.9929
 5106TIP3    H236954   5.986   3.729   1.698 -2.2470  0.1439 -1.0499
 5107TIP3   OH236955   5.523   5.637   1.782  0.2950  0.0091 -0.0501
 5107TIP3    H136956   5.568   5.552   1.785  0.7086  0.1984 -0.5851
 5107TIP3    H236957   5.443   5.624   1.832  0.8324 -0.4115  0.7238
 5108TIP3   OH236958   4.730   3.854   8.217 -0.3565  0.4310 -0.8638
 5108TIP3    H136959   4.743   3.948   8.229  0.6383 -0.0175  2.5296
 5108TIP3    H236960   4.798   3.828   8.155 -1.1114  2.0051 -2.4340
 5109TIP3   OH236961   3.303   6.198   8.281 -0.0372  0.6750  0.0979
 5109TIP3    H136962   3.340   6.122   8.236  0.6831  0.3652  1.1714
 5109TIP3    H236963   3.236   6.230   8.221 -1.3011 -1.6017  0.1907
 5110TIP3   OH236964   3.139   5.744   6.695 -0.1539  0.2670  0.4810
 5110TIP3    H136965   3.232   5.725   6.703 -0.2200  0.0901  0.8462
 5110TIP3    H236966   3.126   5.762   6.602  0.5489  1.9376  0.6674
 5111TIP3   OH236967   2.697   2.768   7.936 -1.0868  0.3572 -0.2191
 5111TIP3    H136968   2.674   2.794   7.847  0.2296 -0.4649 -0.8299
 5111TIP3    H236969   2.615   2.774   7.985 -1.7388  1.2263 -1.3807
 5112TIP3   OH236970   5.230   6.869   0.157  0.1028  0.2082 -0.3855
 5112TIP3    H136971   5.148   6.820   0.163 -0.9976  1.9601 -0.4085
 5112TIP3    H236972   5.203   6.958   0.134  2.0328  0.7910 -0.5460
 5113TIP3   OH236973   3.309   4.100   1.145 -0.0387 -0.2458  0.5838
 5113TIP3    H136974   3.231   4.061   1.184 -1.6503  1.4719 -0.7628
 5113TIP3    H236975   3.365   4.121   1.220 -2.1182  1.0736  1.8462
 5114TIP3   OH236976   4.665   5.885   1.643  0.0219  0.4099 -0.3861
 5114TIP3    H136977   4.670   5.956   1.707 -2.1636  2.1610 -2.0022
 5114TIP3    H236978   4.585   5.838   1.666 -1.3224  1.6333 -2.2514
 5115TIP3   OH236979   2.398   3.045   0.606  0.0295  0.6099 -0.2798
 5115TIP3    H136980   2.477   3.062   0.655  0.5271 -0.1930 -0.7722
 5115TIP3    H236981   2.330   3.095   0.650  0.0212 -1.6153  2.4986
 5116TIP3   OH236982   3.370   0.932   7.873 -0.3843 -0.6966 -0.0131
 5116TIP3    H136983   3.450   0.929   7.820  1.7534 -1.7010  2.9533
 5116TIP3    H236984   3.357   1.025   7.892  1.3522 -0.6164  1.0572
 5117TIP3   OH236985   3.089   5.940   0.127 -0.2436  0.5063  0.0332
 5117TIP3    H136986   3.014   5.985   0.088 -0.1149 -0.1477 -1.0325
 5117TIP3    H236987   3.123   5.886   0.056  1.6434  1.2809  0.3013
 5118TIP3   OH236988   3.404   2.880   6.545 -0.0709  0.6571  0.1412
 5118TIP3    H136989   3.493   2.852   6.526 -0.3191 -0.0687 -0.0048
 5118TIP3    H236990   3.394   2.963   6.499  1.3200  2.0413  2.1578
 5119TIP3   OH236991   5.179   1.741   0.378  0.3286 -0.4376 -0.2003
 5119TIP3    H136992   5.250   1.788   0.334 -1.2676  2.8931  0.3934
 5119TIP3    H236993   5.144   1.805   0.441 -4.3325 -1.0923 -1.7258
 5120TIP3   OH236994   1.657   2.583   8.024 -0.1928  0.6506  0.0318
 5120TIP3    H136995   1.715   2.602   8.097 -0.9569  1.9230  0.3507
 5120TIP3    H236996   1.708   2.604   7.946  0.5266 -0.4415  0.1890
 5121TIP3   OH236997   2.895   1.604   7.255  0.1739 -0.0985  0.2538
 5121TIP3    H136998   2.813   1.581   7.211  0.5584  0.0705 -0.5606
 5121TIP3    H236999   2.898   1.699   7.252  1.4507 -0.1539 -1.7044
 5122TIP3   OH237000   4.939   5.475   6.635  0.0383  0.0172  0.0219
 5122TIP3    H137001   5.028   5.506   6.623 -0.2392  0.8841  0.0961
 5122TIP3    H237002   4.885   5.539   6.589 -0.6192  0.1524  0.9521
 5123TIP3   OH237003   6.000   3.749   0.101 -0.0747 -0.3072  0.0893
 5123TIP3    H137004   6.034   3.688   0.167  1.7945 -0.5983 -1.0809
 5123TIP3    H237005   6.057   3.826   0.108 -0.5752  0.1177 -0.4323
 5124TIP3   OH237006   0.291   4.312   6.962  0.3419  0.9854 -0.0423
 5124TIP3    H137007   0.257   4.348   6.881  0.7953  1.2008 -0.1441
 5124TIP3    H237008   0.240   4.232   6.977  1.2986  0.0802 -1.3659
 5125TIP3   OH237009   2.984   4.478   0.344 -0.1891 -0.1906 -0.3114
 5125TIP3    H137010   2.974   4.383   0.338  0.5906 -0.3355  0.4891
 5125TIP3    H237011   3.027   4.502   0.262 -1.1791 -0.3918 -0.9124
 5126TIP3   OH237012   1.690   6.565   6.567  0.2455  0.7245  0.3792
 5126TIP3    H137013   1.614   6.613   6.534  1.3371  1.9747 -0.4261
 5126TIP3    H237014   1.699   6.490   6.508 -0.8112  0.1362  0.9550
 5127TIP3   OH237015   6.463   4.330   0.350  0.0603 -0.3471  0.2861
 5127TIP3    H137016   6.397   4.320   0.281  0.2565  0.0157  0.0398
 5127TIP3    H237017   6.485   4.241   0.375  0.7502 -0.5150 -0.8537
 5128TIP3   OH237018   4.472   0.869   1.047  0.5192  0.1717  0.5054
 5128TIP3    H137019   4.417   0.947   1.055  1.9375  1.1361  1.1572
 5128TIP3    H237020   4.466   0.845   0.954  0.6656  1.5093  0.1381
 5129TIP3   OH237021   2.607   3.222   1.356  0.7178  0.2115  0.2299
 5129TIP3    H137022   2.637   3.133   1.335  1.2367  0.0026  1.7138
 5129TIP3    H237023   2.517   3.225   1.325 -0.1150 -1.6704  2.1654
 5130TIP3   OH237024   1.291   6.015   1.653  0.0858  0.6789  0.2117
 5130TIP3    H137025   1.317   5.984   1.740 -0.8039  1.3391  0.7222
 5130TIP3    H237026   1.286   5.935   1.600  2.1120  0.4073  0.3428
 5131TIP3   OH237027   5.028   5.839   0.099 -0.4991 -0.7484  0.1573
 5131TIP3    H137028   4.944   5.846   0.055 -2.0711  2.0753  3.1488
 5131TIP3    H237029   5.007   5.812   0.188  2.1283 -2.7482  0.2991
 5132TIP3   OH237030   3.960   3.471   6.893 -0.7863 -0.3945 -0.3233
 5132TIP3    H137031   3.894   3.425   6.944  0.0093  0.3376  1.4515
 5132TIP3    H237032   3.914   3.545   6.853 -1.3838 -0.8753 -0.5354
 5133TIP3   OH237033   2.954   1.892   0.780 -0.2469 -0.7604  0.2093
 5133TIP3    H137034   2.990   1.956   0.842 -0.9732  1.2857 -1.3651
 5133TIP3    H237035   2.909   1.828   0.835 -2.4069  1.9363  1.8476
 5134TIP3   OH237036   0.326   3.987   8.507 -0.2679  0.4234 -0.0587
 5134TIP3    H137037   0.322   4.059   8.569  0.1622  1.5955 -1.3561
 5134TIP3    H237038   0.409   3.999   8.461 -0.8134 -0.1209 -1.2186
 5135TIP3   OH237039   3.440   3.221   6.832  0.1826 -0.1678 -0.1172
 5135TIP3    H137040   3.498   3.287   6.794 -0.1683  1.2966  1.7505
 5135TIP3    H237041   3.352   3.251   6.809  0.0323 -0.2295  0.3790
 5136TIP3   OH237042   3.952   3.705   1.897 -0.4796 -0.4396 -0.1634
 5136TIP3    H137043   3.958   3.614   1.868  0.3355 -0.3067 -0.4483
 5136TIP3    H237044   3.929   3.699   1.990  1.8086 -1.0428  0.4385
 5137TIP3   OH237045   5.750   2.109   0.810 -0.3264  0.1422 -0.1072
 5137TIP3    H137046   5.781   2.027   0.849 -2.2654 -1.0689 -0.9621
 5137TIP3    H237047   5.724   2.085   0.722 -1.5334  1.5546 -0.1660
 5138TIP3   OH237048   3.661   4.255   8.506 -0.2776  0.4603 -0.3993
 5138TIP3    H137049   3.673   4.165   8.475 -1.2437 -0.0688  0.7163
 5138TIP3    H237050   3.580   4.284   8.464 -1.7920 -0.3846  1.8003
 5139TIP3   OH237051   5.586   4.293   6.135  0.1594 -0.4350  0.0435
 5139TIP3    H137052   5.535   4.368   6.104 -1.2786 -1.8454 -1.1805
 5139TIP3    H237053   5.668   4.331   6.165  0.4198  1.4381 -2.6575
 5140TIP3   OH237054   5.230   1.886   8.293 -0.5230 -0.2699  0.1864
 5140TIP3    H137055   5.167   1.953   8.321  0.1902 -0.0165  1.2392
 5140TIP3    H237056   5.198   1.805   8.331 -0.1128 -0.0999  0.9277
 5141TIP3   OH237057   4.216   1.595   1.737 -0.4557 -0.5750 -0.7430
 5141TIP3    H137058   4.257   1.512   1.764 -1.5681 -0.4868  1.4243
 5141TIP3    H237059   4.126   1.589   1.770 -1.5678  0.1875 -3.3830
 5142TIP3   OH237060   1.561   0.776   7.564  0.1655  0.2203  0.0170
 5142TIP3    H137061   1.522   0.716   7.627 -1.7171  0.6396 -0.6866
 5142TIP3    H237062   1.498   0.781   7.492  0.9320  1.8985 -0.6115
 5143TIP3   OH237063   5.853   2.922   0.205  0.0428  1.1691  0.4771
 5143TIP3    H137064   5.919   2.934   0.136  1.3750 -1.3937  1.1722
 5143TIP3    H237065   5.771   2.907   0.158  0.7160  0.5489 -0.5331
 5144TIP3   OH237066   6.498   5.986   1.151 -0.2518  0.3558  0.2150
 5144TIP3    H137067   6.466   5.960   1.065 -0.7451  3.6932 -0.7264
 5144TIP3    H237068   6.553   5.913   1.179 -0.4480 -1.0382 -2.6986
 5145TIP3   OH237069   2.143   3.027   7.642 -0.6942 -0.2829  0.0664
 5145TIP3    H137070   2.079   3.011   7.712 -0.6902  0.8966  0.3706
 5145TIP3    H237071   2.173   3.117   7.658  0.6188 -0.6150 -0.4156
 5146TIP3   OH237072   1.498   6.121   7.253 -0.1108 -0.0840  0.0748
 5146TIP3    H137073   1.556   6.189   7.219 -0.9052  0.7412  0.3304
 5146TIP3    H237074   1.542   6.039   7.231  2.0256  0.5197  1.7900
 5147TIP3   OH237075   2.639   2.740   8.271 -0.0200 -0.1658 -0.2838
 5147TIP3    H137076   2.604   2.800   8.204 -0.2362 -0.1008 -0.1146
 5147TIP3    H237077   2.575   2.744   8.342 -0.0394 -0.6117 -0.2779
 5148TIP3   OH237078   2.249   3.417   0.865 -0.4025  0.0111 -0.3847
 5148TIP3    H137079   2.207   3.498   0.835  0.4164  0.6207  0.0593
 5148TIP3    H237080   2.177   3.354   0.871 -1.1246  0.8072 -0.3863
 5149TIP3   OH237081   2.542   6.372   8.422  0.3869  0.0441  0.3981
 5149TIP3    H137082   2.516   6.280   8.423 -1.0286  0.4285  0.4194
 5149TIP3    H237083   2.638   6.370   8.416  0.4947 -1.4297  2.0147
 5150TIP3   OH237084   6.232   6.713   6.426  0.1797  0.2256 -0.3055
 5150TIP3    H137085   6.285   6.710   6.346  0.4276 -2.0567 -0.1290
 5150TIP3    H237086   6.159   6.771   6.405  0.9437  0.7116 -1.7256
 5151TIP3   OH237087   6.148   3.090   0.588 -0.0765 -0.2466 -0.0189
 5151TIP3    H137088   6.057   3.110   0.567  0.5761  1.5930 -1.4031
 5151TIP3    H237089   6.143   3.014   0.645 -2.5513  0.7184  1.2070
 5152TIP3   OH237090   0.365   4.606   0.645  0.0011 -0.4961  0.0915
 5152TIP3    H137091   0.321   4.598   0.561  1.5211  0.7152 -0.8859
 5152TIP3    H237092   0.440   4.546   0.639  1.4783  1.3170 -0.4146
 5153TIP3   OH237093   1.551   5.739   1.702 -0.2666  0.5245  0.5655
 5153TIP3    H137094   1.617   5.786   1.651 -1.4030  1.6179  0.0636
 5153TIP3    H237095   1.581   5.747   1.793  0.1015  1.3133  0.3790
 5154TIP3   OH237096   5.770   2.380   8.313  0.1950  0.1142  0.5124
 5154TIP3    H137097   5.710   2.413   8.380  0.8333  0.0628  1.1255
 5154TIP3    H237098   5.833   2.451   8.300 -0.6427  0.6145 -0.9498
 5155TIP3   OH237099   4.870   5.415   1.340  0.7203  0.7595  0.3699
 5155TIP3    H137100   4.825   5.331   1.337 -2.0720  2.1338  0.4595
 5155TIP3    H237101   4.927   5.415   1.262 -0.5207 -0.5402 -0.5865
 5156TIP3   OH237102   0.794   4.281   1.431 -0.2372  0.8622 -0.8699
 5156TIP3    H137103   0.858   4.245   1.493 -0.8145  0.5449 -0.4524
 5156TIP3    H237104   0.715   4.294   1.483 -1.3975 -1.3261 -1.9757
 5157TIP3   OH237105   5.411   4.905   2.175 -0.0581  0.0054 -0.5915
 5157TIP3    H137106   5.359   4.825   2.167  2.8400 -2.0960  0.1367
 5157TIP3    H237107   5.397   4.935   2.265  0.6896 -1.1267 -0.0755
 5158TIP3   OH237108   6.576   4.535   1.939  0.0066  0.1216  0.7350
 5158TIP3    H137109   6.602   4.474   1.870  0.0679  1.8366 -0.8506
 5158TIP3    H237110   6.641   4.605   1.935 -2.0385  2.1253 -0.0687
 5159TIP3   OH237111   2.901   5.152   6.892  0.0958 -0.2100 -0.1876
 5159TIP3    H137112   2.984   5.175   6.850  1.2166 -1.2650  1.3089
 5159TIP3    H237113   2.844   5.125   6.820  0.7754  1.2581 -1.3332
 5160TIP3   OH237114   4.714   6.818   8.157  0.4864 -0.3444  0.5441
 5160TIP3    H137115   4.718   6.761   8.080  0.3894  0.2385  0.1066
 5160TIP3    H237116   4.642   6.878   8.139  0.8476  0.1794  0.8198
 5161TIP3   OH237117   4.858   4.529   1.877 -0.4707 -0.1541 -0.4983
 5161TIP3    H137118   4.917   4.483   1.936 -0.2926  1.0827  0.3345
 5161TIP3    H237119   4.773   4.527   1.920 -0.5831 -0.1897 -0.7210
 5162TIP3   OH237120   2.826   2.717   0.436 -0.1609 -0.6601 -0.2854
 5162TIP3    H137121   2.829   2.722   0.341  1.8206 -1.0125 -0.2673
 5162TIP3    H237122   2.879   2.790   0.466 -1.5000 -0.0102  0.5937
 5163TIP3   OH237123   3.322   2.957   1.095  0.2893 -0.3207 -0.4035
 5163TIP3    H137124   3.317   3.051   1.106  0.1776 -0.1854 -1.4384
 5163TIP3    H237125   3.243   2.923   1.138  0.6696 -0.0104  0.5432
 5164TIP3   OH237126   5.807   5.078   1.342 -0.1644 -0.2842  0.0425
 5164TIP3    H137127   5.795   5.145   1.409 -0.6617  0.6082 -0.9078
 5164TIP3    H237128   5.893   5.096   1.304  0.0812 -0.7353  0.3790
 5165TIP3   OH237129   6.041   6.750   7.701  0.1405  0.0160 -0.9292
 5165TIP3    H137130   5.948   6.754   7.676 -0.2876  1.9748  0.7082
 5165TIP3    H237131   6.046   6.674   7.759 -0.2677 -0.5384 -1.5978
 5166TIP3   OH237132   1.130   2.798   8.428  0.3378 -0.1018 -0.3388
 5166TIP3    H137133   1.094   2.796   8.516  1.1080 -1.6904 -0.0278
 5166TIP3    H237134   1.090   2.875   8.387  1.7583  2.0689  2.1053
 5167TIP3   OH237135   2.625   6.846   2.457 -0.3221 -0.6114  0.2114
 5167TIP3    H137136   2.671   6.767   2.486 -0.6918 -0.7249  0.4815
 5167TIP3    H237137   2.693   6.913   2.456  0.2002 -1.1308 -0.8905
 5168TIP3   OH237138   4.055   3.368   7.339 -0.4057 -0.3326 -0.3263
 5168TIP3    H137139   4.065   3.429   7.412 -1.9779 -1.3594  0.8209
 5168TIP3    H237140   3.976   3.398   7.294  0.7944  0.5556 -1.9353
 5169TIP3   OH237141   2.605   3.082   6.855  0.3931 -0.1230 -0.6580
 5169TIP3    H137142   2.594   3.165   6.901 -3.6135 -0.5707 -0.5063
 5169TIP3    H237143   2.573   3.098   6.767  1.2622 -1.0845 -1.1714
 5170TIP3   OH237144   1.990   4.988   7.142 -0.4432 -0.0507 -0.1655
 5170TIP3    H137145   2.013   5.016   7.054  1.9328 -2.4999 -0.4625
 5170TIP3    H237146   2.065   5.013   7.196 -1.4209  0.5046  0.9981
 5171TIP3   OH237147   4.555   6.154   7.437  0.6700  0.6381 -0.1951
 5171TIP3    H137148   4.479   6.192   7.393 -0.0812  0.2819  0.7735
 5171TIP3    H237149   4.563   6.203   7.519  2.1982  1.4477 -0.7796
 5172TIP3   OH237150   3.762   5.378   7.244  1.1910  0.4463  0.1866
 5172TIP3    H137151   3.804   5.377   7.330 -2.4709 -1.3663  2.1893
 5172TIP3    H237152   3.759   5.286   7.217  0.0198  0.6897 -0.6113
 5173TIP3   OH237153   5.775   2.436   6.890  0.2347  0.4054  0.3069
 5173TIP3    H137154   5.696   2.416   6.838  0.3603 -2.0834  0.9189
 5173TIP3    H237155   5.818   2.506   6.842 -0.5258 -0.6234 -2.0587
 5174TIP3   OH237156   5.526   1.240   7.447 -0.3886 -0.5952 -0.3582
 5174TIP3    H137157   5.566   1.309   7.501 -1.7590 -1.3399  1.7690
 5174TIP3    H237158   5.595   1.212   7.388  1.2143  0.3274  1.0050
 5175TIP3   OH237159   5.888   0.129   1.062  0.1649  0.8588  0.8921
 5175TIP3    H137160   5.893   0.223   1.041  0.3148  0.7579  0.4708
 5175TIP3    H237161   5.960   0.115   1.123 -0.0985  1.0939  1.2690
 5176TIP3   OH237162   5.145   3.440   7.644 -0.3676 -0.4614 -0.0218
 5176TIP3    H137163   5.226   3.440   7.695 -1.7244 -0.0264  2.2217
 5176TIP3    H237164   5.156   3.512   7.581  0.6050  0.1878  0.8638
 5177TIP3   OH237165   5.228   1.756   0.950  0.4713  0.0679 -0.2200
 5177TIP3    H137166   5.304   1.709   0.984 -0.4466 -0.5267  1.0647
 5177TIP3    H237167   5.266   1.827   0.897  1.9951  0.7992  1.7165
 5178TIP3   OH237168   2.308   6.500   8.498 -0.0784 -0.3635  0.3378
 5178TIP3    H137169   2.383   6.453   8.463  0.4351  0.6574  0.0074
 5178TIP3    H237170   2.330   6.593   8.486 -2.1877 -0.0035 -1.6147
 5179TIP3   OH237171   1.061   2.871   6.621 -0.1811  0.1726 -0.7174
 5179TIP3    H137172   1.012   2.864   6.703  0.3362  1.2400 -0.2903
 5179TIP3    H237173   1.146   2.906   6.647 -0.0494  0.6455 -1.7299
 5180TIP3   OH237174   4.498   1.040   1.822 -0.3977  0.0949  0.0158
 5180TIP3    H137175   4.579   1.090   1.833  0.1363 -0.6865 -0.2367
 5180TIP3    H237176   4.504   0.970   1.887 -0.6863 -0.1954 -0.2627
 5181TIP3   OH237177   6.064   2.493   2.243 -0.2141  0.3014 -0.0743
 5181TIP3    H137178   6.125   2.564   2.228 -1.6620  1.0875 -2.8529
 5181TIP3    H237179   6.017   2.518   2.323  0.0753  1.9270 -0.3831
 5182TIP3   OH237180   1.777   2.430   7.711  0.8550 -0.2156  0.0437
 5182TIP3    H137181   1.845   2.423   7.644 -1.5742  1.6560 -2.9077
 5182TIP3    H237182   1.786   2.519   7.746 -0.7645  0.5970 -1.4089
 5183TIP3   OH237183   1.128   5.009   8.430 -0.7008  0.1028 -0.3735
 5183TIP3    H137184   1.223   5.021   8.420 -0.6902  0.0733 -0.3110
 5183TIP3    H237185   1.119   4.964   8.514 -0.5779 -2.4773 -1.6423
 5184TIP3   OH237186   1.222   5.221   8.142  0.0090 -0.0285  0.0742
 5184TIP3    H137187   1.233   5.315   8.130 -0.3646  0.2397  1.5929
 5184TIP3    H237188   1.133   5.202   8.112 -0.4741  0.3944  1.2080
 5185TIP3   OH237189   4.685   4.184   1.325 -0.2591 -0.1635 -0.0127
 5185TIP3    H137190   4.762   4.228   1.290 -0.2027 -1.4199 -1.6365
 5185TIP3    H237191   4.612   4.224   1.278 -0.4949  0.1853  0.6374
 5186TIP3   OH237192   2.565   1.375   7.177  0.0476  0.0713 -0.2935
 5186TIP3    H137193   2.513   1.358   7.256  0.6957 -0.9252 -0.0565
 5186TIP3    H237194   2.530   1.315   7.112  0.2881  0.0602 -0.4127
 5187TIP3   OH237195   2.517   4.374   6.695 -0.1214 -0.5341  0.0291
 5187TIP3    H137196   2.426   4.370   6.666  0.7298 -2.5461 -2.7794
 5187TIP3    H237197   2.532   4.291   6.739  0.6221 -0.6651 -0.4621
 5188TIP3   OH237198   3.357   1.098   0.958 -0.5208 -0.0423  0.3128
 5188TIP3    H137199   3.430   1.037   0.963  0.5092  1.0594 -0.6536
 5188TIP3    H237200   3.324   1.090   0.868  0.1756  1.3893 -0.1013
 5189TIP3   OH237201   6.543   6.834   2.194  0.0312 -0.4535 -0.0575
 5189TIP3    H137202   6.604   6.783   2.247 -0.4090 -0.1316  0.7852
 5189TIP3    H237203   6.576   6.924   2.198 -0.5073 -0.2664  0.4479
 5190TIP3   OH237204   1.787   4.404   0.439 -0.0827  0.3550 -0.4839
 5190TIP3    H137205   1.807   4.343   0.511  0.0114  0.0168 -0.7944
 5190TIP3    H237206   1.775   4.488   0.483  0.4437  0.2498 -0.1165
 5191TIP3   OH237207   0.952   4.715   1.034  0.1933  0.7205  0.2234
 5191TIP3    H137208   0.958   4.657   1.111  1.0678  0.9258  0.3155
 5191TIP3    H237209   0.862   4.748   1.037  0.5823  1.7322  1.9046
 5192TIP3   OH237210   3.363   4.662   0.665  0.0987 -0.0325  0.0208
 5192TIP3    H137211   3.288   4.640   0.721 -0.3635  2.2108  0.3560
 5192TIP3    H237212   3.439   4.646   0.721 -0.2878  0.6465  0.7663
 5193TIP3   OH237213   2.527   3.532   8.458 -0.0042 -0.4152 -0.9064
 5193TIP3    H137214   2.615   3.496   8.472  0.6419  1.2527 -0.4460
 5193TIP3    H237215   2.470   3.478   8.513  1.0780 -0.1100  0.5657
 5194TIP3   OH237216   2.643   4.317   0.298 -0.1038  0.5209 -0.4061
 5194TIP3    H137217   2.575   4.255   0.276  0.0145 -0.1235  0.9288
 5194TIP3    H237218   2.725   4.267   0.293 -0.0124  0.5197  0.7075
 5195TIP3   OH237219   1.612   3.229   6.575 -0.5812 -0.7817 -0.3042
 5195TIP3    H137220   1.607   3.299   6.510 -2.6945 -0.9928 -0.4461
 5195TIP3    H237221   1.575   3.153   6.530 -1.8010 -1.0126  1.0249
 5196TIP3   OH237222   6.575   6.166   0.954 -0.8004 -0.1468 -0.3913
 5196TIP3    H137223   6.670   6.173   0.963 -0.9224  1.0016  0.3008
 5196TIP3    H237224   6.549   6.106   1.024 -0.6147 -0.2376 -0.3985
 5197TIP3   OH237225   2.669   5.283   0.054 -0.4001 -0.1164 -0.2457
 5197TIP3    H137226   2.650   5.199   0.012  0.3304 -0.8799  0.9082
 5197TIP3    H237227   2.727   5.261   0.127 -3.4253  0.7762  2.6678
 5198TIP3   OH237228   3.319   0.034   0.060  0.3158 -0.1804 -0.2202
 5198TIP3    H137229   3.306   0.059   0.152  0.4035 -2.8600  0.5867
 5198TIP3    H237230   3.402  -0.014   0.060  0.3394 -0.1821 -1.7475
 5199TIP3   OH237231   5.326   0.933   5.960 -0.6034 -0.1785 -0.4041
 5199TIP3    H137232   5.285   0.937   5.873  1.3240 -2.6916 -1.5624
 5199TIP3    H237233   5.281   0.861   6.004  0.6911 -1.2424 -0.7265
 5200TIP3   OH237234   3.085   6.756   2.270  0.2126 -0.0570  1.3003
 5200TIP3    H137235   3.143   6.830   2.289  1.2487 -0.7665  0.9770
 5200TIP3    H237236   3.084   6.705   2.351  0.9450 -0.6341  0.9566
 5201TIP3   OH237237   0.713   0.550   1.486 -0.5982  0.0643 -0.5019
 5201TIP3    H137238   0.723   0.455   1.473  0.9601 -0.1778  1.7702
 5201TIP3    H237239   0.782   0.589   1.433 -1.4396 -0.0022 -1.6920
 5202TIP3   OH237240   4.480   4.569   0.533 -0.5817 -0.2443 -0.0870
 5202TIP3    H137241   4.436   4.618   0.463 -1.2062 -0.6402  0.0210
 5202TIP3    H237242   4.538   4.509   0.487 -0.9240 -0.4404 -0.2688
 5203TIP3   OH237243   2.800   0.997   8.142  0.1717  0.0249  0.3826
 5203TIP3    H137244   2.857   1.016   8.068 -0.2131 -0.2398  0.0108
 5203TIP3    H237245   2.758   1.081   8.162 -0.1927 -0.0347 -0.1091
 5204TIP3   OH237246   3.064   1.680   1.675 -0.0165 -0.1997  0.3656
 5204TIP3    H137247   3.110   1.687   1.592 -0.3888 -1.7539 -0.0066
 5204TIP3    H237248   3.033   1.768   1.694 -0.1164  0.1340 -1.2594
 5205TIP3   OH237249   1.854   3.272   1.148  0.0556 -0.5433  0.2243
 5205TIP3    H137250   1.879   3.330   1.220  0.2480 -0.2438 -0.0766
 5205TIP3    H237251   1.791   3.211   1.186 -0.1445 -0.1385  0.5509
 5206TIP3   OH237252   1.675   5.559   0.135 -0.0305 -0.0529  0.0296
 5206TIP3    H137253   1.706   5.540   0.046  1.3279  1.6902  0.0876
 5206TIP3    H237254   1.647   5.651   0.132 -0.0962 -0.0081  1.3795
 5207TIP3   OH237255   4.228   6.740   7.233 -0.2176 -0.0952 -0.2902
 5207TIP3    H137256   4.311   6.736   7.186 -0.7188  1.3367 -1.3655
 5207TIP3    H237257   4.163   6.708   7.171 -0.7120  0.4990 -0.0855
 5208TIP3   OH237258   2.769   2.193   6.892 -0.1893  0.0053 -0.4983
 5208TIP3    H137259   2.786   2.283   6.920  1.5416 -0.7983  1.2213
 5208TIP3    H237260   2.708   2.159   6.957  0.3138 -0.4981 -0.2848
 5209TIP3   OH237261   0.109   5.639   1.073 -0.1928 -0.4816 -0.2034
 5209TIP3    H137262   0.187   5.651   1.019 -1.3401  3.0176 -1.3758
 5209TIP3    H237263   0.143   5.633   1.163  1.4844 -0.3308 -0.7820
 5210TIP3   OH237264   5.217   4.536   8.077  0.1157 -0.1876  0.1567
 5210TIP3    H137265   5.121   4.528   8.080  0.1426 -0.2033  1.4685
 5210TIP3    H237266   5.244   4.530   8.169  1.1592  2.4421  0.0907
 5211TIP3   OH237267   4.030   4.814   8.195  0.0958  0.5507 -0.1627
 5211TIP3    H137268   4.089   4.744   8.167  0.4541  0.0372  1.7165
 5211TIP3    H237269   4.032   4.878   8.124 -1.3653 -1.9407 -2.6821
 5212TIP3   OH237270   4.623   3.640   7.204  0.0705 -0.5120 -0.1606
 5212TIP3    H137271   4.614   3.546   7.191 -0.9686 -0.8534  2.3372
 5212TIP3    H237272   4.534   3.674   7.194  0.4430  0.2310 -1.0727
 5213TIP3   OH237273   3.384   6.686   6.541 -0.4429 -0.2812 -0.3256
 5213TIP3    H137274   3.297   6.655   6.515 -0.7368 -1.6478  2.0653
 5213TIP3    H237275   3.399   6.648   6.627  1.3451  2.2516  0.6036
 5214TIP3   OH237276   3.297   1.580   8.173 -0.4852  0.3986  0.1679
 5214TIP3    H137277   3.247   1.504   8.202 -0.0669 -0.5861 -1.5256
 5214TIP3    H237278   3.288   1.579   8.077  0.5196  1.7848  0.0318
 5215TIP3   OH237279   0.949   6.216   7.504 -0.0075  0.1552 -0.5838
 5215TIP3    H137280   0.943   6.179   7.416 -1.0647  0.2163 -0.5551
 5215TIP3    H237281   0.970   6.308   7.490  0.2022  0.0833 -0.7503
 5216TIP3   OH237282   6.868   1.398   0.769 -0.2272 -0.5391 -0.4180
 5216TIP3    H137283   6.837   1.380   0.680  0.1161 -0.8566 -0.4733
 5216TIP3    H237284   6.902   1.487   0.764  0.0847 -0.6735 -0.6831
 5217TIP3   OH237285   4.113   6.015   7.019 -0.0548 -0.7870  0.1805
 5217TIP3    H137286   4.203   5.985   7.031  0.9404  1.9617  0.4164
 5217TIP3    H237287   4.111   6.053   6.931 -0.6455  0.1245  0.5628
 5218TIP3   OH237288   3.624   4.099   6.861  0.3556 -0.1832  0.0980
 5218TIP3    H137289   3.670   4.149   6.794  0.6153  0.3280  0.6531
 5218TIP3    H237290   3.660   4.011   6.854 -0.3079 -0.3882 -1.0738
 5219TIP3   OH237291   3.557   6.950   1.346  0.5409  0.8813  0.3381
 5219TIP3    H137292   3.620   6.963   1.417  1.9712  0.1177 -0.7262
 5219TIP3    H237293   3.511   6.869   1.368 -0.3424  1.6203  1.2911
 5220TIP3   OH237294   5.441   3.788   1.512  0.5720  0.4806  0.0119
 5220TIP3    H137295   5.369   3.824   1.563  0.8669 -0.3315  1.0388
 5220TIP3    H237296   5.505   3.859   1.506  0.2440  0.7940  0.1924
 5221TIP3   OH237297   5.429   1.896   8.107  0.0858  0.1176 -0.3355
 5221TIP3    H137298   5.340   1.881   8.139  0.3868 -0.3572  0.3243
 5221TIP3    H237299   5.424   1.882   8.013 -0.6506  0.6550 -0.3842
 5222TIP3   OH237300   0.968   3.027   8.458  0.2741  0.2327 -0.2426
 5222TIP3    H137301   0.925   3.009   8.541  0.3576  0.8571 -0.0599
 5222TIP3    H237302   0.907   2.995   8.392  0.6806 -1.2720  0.0734
 5223TIP3   OH237303   4.769   1.601   0.199  0.2008  0.0002  0.1404
 5223TIP3    H137304   4.862   1.625   0.203  0.0838  0.3104  1.7114
 5223TIP3    H237305   4.730   1.666   0.140  1.2075 -1.0689 -1.8056
 5224TIP3   OH237306   6.528   4.048   0.420 -0.8777 -0.6676 -0.3101
 5224TIP3    H137307   6.549   4.084   0.506 -1.3360 -0.1964 -0.3886
 5224TIP3    H237308   6.443   4.005   0.431 -1.6490  0.6386 -0.8390
 5225TIP3   OH237309   5.950   4.158   7.372 -0.2092  0.4697 -0.1456
 5225TIP3    H137310   5.951   4.063   7.356  0.3652  0.0207  2.2457
 5225TIP3    H237311   5.875   4.189   7.321 -0.2977 -1.2197 -1.1467
 5226TIP3   OH237312   1.652   4.386   1.354 -0.1060  0.4288  1.0737
 5226TIP3    H137313   1.644   4.298   1.390  2.2797  0.3118  1.4701
 5226TIP3    H237314   1.663   4.442   1.431  3.5741  0.3554  0.7692
 5227TIP3   OH237315   3.580   2.758   7.807 -0.2789  0.2545  0.3991
 5227TIP3    H137316   3.642   2.772   7.878  0.4318  0.1287 -0.1840
 5227TIP3    H237317   3.569   2.663   7.801  0.4948  0.1998 -0.3434
 5228TIP3   OH237318   5.514   6.443   8.006 -0.3835 -0.5676  0.1038
 5228TIP3    H137319   5.583   6.407   7.950  1.2456  0.6867  1.1892
 5228TIP3    H237320   5.471   6.509   7.952  0.2933 -0.2874 -0.1027
 5229TIP3   OH237321   4.844   0.750   6.571  0.0123  0.1231  0.3797
 5229TIP3    H137322   4.848   0.691   6.496  2.0067 -0.8770  1.2095
 5229TIP3    H237323   4.837   0.837   6.532  0.9745 -0.3739 -0.9836
 5230TIP3   OH237324   1.834   1.750   1.700 -0.0319 -0.2276  0.9725
 5230TIP3    H137325   1.789   1.834   1.686 -0.5714 -0.1913  2.6998
 5230TIP3    H237326   1.764   1.685   1.696  0.5654 -0.8623 -1.8898
 5231TIP3   OH237327   0.329   5.635   2.118 -0.4513 -0.0855  0.1852
 5231TIP3    H137328   0.270   5.559   2.116 -2.8340  1.6819 -0.4291
 5231TIP3    H237329   0.409   5.603   2.077 -1.1483 -2.4305  0.4872
 5232TIP3   OH237330   4.241   6.170   0.200  0.1732 -0.1243  0.0325
 5232TIP3    H137331   4.277   6.208   0.120 -1.9937  2.5327  0.1858
 5232TIP3    H237332   4.266   6.231   0.269 -1.9460  0.1974  0.5814
 5233TIP3   OH237333   0.851   3.914   6.640 -0.2006 -0.3491 -0.3764
 5233TIP3    H137334   0.828   4.003   6.613 -1.6664 -0.1565  1.3108
 5233TIP3    H237335   0.944   3.919   6.664 -0.5007  0.9736  0.5869
 5234TIP3   OH237336   5.247   2.515   6.362 -0.2751  0.5142  1.1618
 5234TIP3    H137337   5.323   2.506   6.419  1.7243 -1.7011 -1.5896
 5234TIP3    H237338   5.217   2.425   6.348 -1.1328  1.0497 -0.6653
 5235TIP3   OH237339   1.160   6.719   2.078  0.6179 -0.5120  0.1830
 5235TIP3    H137340   1.098   6.675   2.020  0.6384  0.0214 -0.2452
 5235TIP3    H237341   1.105   6.763   2.143  0.6176 -2.2640  1.4538
 5236TIP3   OH237342   1.526   3.310   0.886  0.0968 -0.2613 -0.5496
 5236TIP3    H137343   1.474   3.306   0.806 -1.6739 -0.6875  0.5729
 5236TIP3    H237344   1.501   3.393   0.927 -0.1017 -0.7056  0.2501
 5237TIP3   OH237345   5.581   0.224   6.836 -0.0122  0.1904  0.7657
 5237TIP3    H137346   5.505   0.171   6.813 -0.1635  0.7307  0.0029
 5237TIP3    H237347   5.579   0.298   6.776  0.6105  0.6889  1.3349
 5238TIP3   OH237348   4.168   3.099   0.190 -0.3145  0.2988 -0.1847
 5238TIP3    H137349   4.128   3.052   0.116  2.4296  0.2013 -1.7115
 5238TIP3    H237350   4.131   3.188   0.184 -0.1262  0.3033 -1.7123
 5239TIP3   OH237351   0.002   2.827   8.473 -0.2131  0.5950 -0.1192
 5239TIP3    H137352   0.044   2.822   8.387 -1.2129 -1.0678 -0.5663
 5239TIP3    H237353  -0.064   2.896   8.463  0.9553  1.7518 -0.0613
 5240TIP3   OH237354   4.714   0.402   7.261  0.1637  0.1644 -0.0325
 5240TIP3    H137355   4.670   0.363   7.186  2.1722 -3.0119  0.2358
 5240TIP3    H237356   4.720   0.495   7.241 -1.2120 -0.2571 -2.7943
 5241TIP3   OH237357   2.856   5.878   7.702 -0.5901 -0.2534  0.9362
 5241TIP3    H137358   2.813   5.840   7.625 -1.4338 -0.3481  1.4391
 5241TIP3    H237359   2.943   5.903   7.671 -1.2375  0.5813 -0.2956
 5242TIP3   OH237360   3.593   1.850   0.275 -0.6873  0.3256 -0.3096
 5242TIP3    H137361   3.577   1.886   0.362  1.6341  3.8692 -1.1250
 5242TIP3    H237362   3.676   1.802   0.284 -0.4999  0.6063 -0.4948
 5243TIP3   OH237363   1.445   6.033   7.839  0.3612  0.1357 -0.2705
 5243TIP3    H137364   1.370   6.036   7.780  0.4916  0.2670 -0.4310
 5243TIP3    H237365   1.409   6.002   7.922 -0.1106  1.4116  0.0250
 5244TIP3   OH237366   6.077   1.713   6.169  0.7791  0.0762 -0.0528
 5244TIP3    H137367   5.994   1.691   6.210  1.2729 -0.0629  0.9010
 5244TIP3    H237368   6.067   1.805   6.142  0.5832  0.2921  0.7370
 5245TIP3   OH237369   3.249   3.976   1.607 -0.2900  0.0587 -0.1509
 5245TIP3    H137370   3.334   3.931   1.612 -0.6526 -0.4798  1.9944
 5245TIP3    H237371   3.250   4.039   1.679 -2.3142 -1.1306  1.0269
 5246TIP3   OH237372   4.469   1.942   0.886  0.0067  0.1952 -0.1921
 5246TIP3    H137373   4.413   1.865   0.888 -1.4421  1.2247  1.0744
 5246TIP3    H237374   4.414   2.013   0.920  1.6145  1.5718 -0.3333
 5247TIP3   OH237375   6.605   6.643   1.983  0.4211  0.7069 -0.3324
 5247TIP3    H137376   6.700   6.640   1.996  0.6507 -1.5326 -1.9132
 5247TIP3    H237377   6.575   6.715   2.039  3.1011  1.8697 -0.2490
 5248TIP3   OH237378   4.524   3.695   8.110 -0.2827  0.1396  0.4374
 5248TIP3    H137379   4.597   3.636   8.129  0.5064  1.0436  0.2565
 5248TIP3    H237380   4.555   3.781   8.137 -0.7884  0.7424 -0.8144
 5249TIP3   OH237381   5.941   2.540   0.858 -0.4214  0.2696 -0.1231
 5249TIP3    H137382   5.892   2.610   0.900 -1.9591 -0.0363 -1.3312
 5249TIP3    H237383   6.013   2.585   0.813 -0.8951  0.9645 -0.1962
 5250TIP3   OH237384   6.753   2.329   6.292  0.0567 -0.0308  0.8506
 5250TIP3    H137385   6.679   2.319   6.353  0.3419  1.0868  1.3997
 5250TIP3    H237386   6.729   2.274   6.218 -2.7990  2.4866 -0.3403
 5251TIP3   OH237387   2.438   1.154   1.629 -0.1874  0.1334 -0.1660
 5251TIP3    H137388   2.510   1.092   1.644 -0.8970 -0.9008 -0.9315
 5251TIP3    H237389   2.482   1.238   1.618  0.8350 -0.2921  0.4307
 5252TIP3   OH237390   0.501   2.028   1.053  0.4381 -0.1500  0.0402
 5252TIP3    H137391   0.426   2.085   1.070 -2.0232 -2.5660 -1.6893
 5252TIP3    H237392   0.538   2.061   0.971 -1.1206 -1.0504 -1.0815
 5253TIP3   OH237393   4.297   5.466   7.451  0.7669  0.1653  0.3767
 5253TIP3    H137394   4.385   5.480   7.416  0.4966  0.6565 -0.1286
 5253TIP3    H237395   4.257   5.553   7.451 -0.3837 -0.3142 -1.2736
 5254TIP3   OH237396   5.040   0.211   6.789 -0.7879  0.3847 -0.5009
 5254TIP3    H137397   5.132   0.238   6.796 -0.5574 -0.3939 -0.4370
 5254TIP3    H237398   5.016   0.233   6.699 -0.0304 -0.9049 -1.0468
 5255TIP3   OH237399   3.168   1.368   0.893 -0.1975 -0.8126 -0.3512
 5255TIP3    H137400   3.178   1.280   0.930  0.9393  0.3754  2.4521
 5255TIP3    H237401   3.077   1.391   0.909 -0.4183 -1.3470 -0.8193
 5256TIP3   OH237402   0.616   3.788   1.099 -0.1102  0.3665 -0.0086
 5256TIP3    H137403   0.573   3.739   1.029  4.6934 -2.0120 -1.8153
 5256TIP3    H237404   0.594   3.741   1.179 -0.3932 -1.1426 -0.9356
 5257TIP3   OH237405   0.325   3.652   7.424  0.3804  0.2719 -0.1439
 5257TIP3    H137406   0.314   3.613   7.511  0.8426 -0.2631 -0.3246
 5257TIP3    H237407   0.337   3.746   7.442 -1.5233  0.4915  0.2375
 5258TIP3   OH237408   3.113   4.721   0.220  0.2096 -0.1906 -0.0925
 5258TIP3    H137409   3.115   4.732   0.125 -0.8174  2.2203  0.0996
 5258TIP3    H237410   3.026   4.749   0.247  1.0630  0.9825  1.7136
 5259TIP3   OH237411   6.766   1.690   8.225  0.5686 -0.0438 -0.1849
 5259TIP3    H137412   6.679   1.693   8.265  0.0317  1.5647 -1.3270
 5259TIP3    H237413   6.791   1.598   8.228 -0.9622 -0.4704  0.6281
 5260TIP3   OH237414   6.369   1.267   1.324  0.7849 -0.4891  0.2083
 5260TIP3    H137415   6.379   1.228   1.237  0.9591 -0.9762  0.4418
 5260TIP3    H237416   6.283   1.239   1.353  1.1996 -1.3444  0.6805
 5261TIP3   OH237417   3.974   4.830   7.484 -0.2990  0.8856  0.3222
 5261TIP3    H137418   4.018   4.786   7.556 -1.1890  0.4649  0.6177
 5261TIP3    H237419   4.015   4.794   7.405 -0.6679 -0.1133  0.5744
 5262TIP3   OH237420   1.713   5.384   8.107  0.6668 -0.0411  1.0377
 5262TIP3    H137421   1.694   5.414   8.196 -0.4634  1.4741  0.3194
 5262TIP3    H237422   1.791   5.434   8.082 -0.0209  0.8193  0.5765
 5263TIP3   OH237423   2.178   3.349   7.130 -0.0694 -0.1843 -0.6624
 5263TIP3    H137424   2.100   3.399   7.106 -0.1252  0.1449  0.1853
 5263TIP3    H237425   2.154   3.258   7.113 -0.2084  0.0010 -1.5532
 5264TIP3   OH237426   0.589   1.419   7.216 -0.5860  0.5140 -0.3479
 5264TIP3    H137427   0.518   1.365   7.252 -1.1634  0.2667 -1.7847
 5264TIP3    H237428   0.544   1.492   7.173 -0.0350 -0.0436 -1.9257
 5265TIP3   OH237429   0.369   1.568   7.894 -0.1612 -0.8119  0.2753
 5265TIP3    H137430   0.320   1.537   7.818 -0.5243 -1.0873  0.6155
 5265TIP3    H237431   0.390   1.488   7.943  0.4406 -0.6755  0.2450
 5266TIP3   OH237432   5.429   1.954   0.710  0.2964 -0.6357  0.0270
 5266TIP3    H137433   5.456   1.917   0.626  2.5484  2.4933 -0.8108
 5266TIP3    H237434   5.497   1.927   0.772 -0.2420 -1.1746  0.4090
 5267TIP3   OH237435   4.977   1.058   0.826 -0.1231  0.4417  0.4851
 5267TIP3    H137436   5.002   1.120   0.894  0.7058  0.3619  0.2674
 5267TIP3    H237437   5.060   1.027   0.790 -0.4442 -1.6601  1.3556
 5268TIP3   OH237438   2.771   2.635   2.570 -0.0022 -0.0945  0.3337
 5268TIP3    H137439   2.854   2.609   2.609 -0.1787 -1.8454 -0.3743
 5268TIP3    H237440   2.711   2.564   2.591 -0.6907  0.0067 -1.1674
 5269TIP3   OH237441   4.728   4.139   1.997  0.4302  0.0101 -0.1659
 5269TIP3    H137442   4.748   4.047   2.012  1.4974  0.2632  0.1126
 5269TIP3    H237443   4.759   4.156   1.908  0.9576  0.2726  0.0609
 5270TIP3   OH237444   2.838   5.811   7.981  0.3954  0.0498 -0.2929
 5270TIP3    H137445   2.860   5.822   7.889 -1.2856 -0.6591 -0.8242
 5270TIP3    H237446   2.744   5.792   7.981  0.7836 -2.3743  1.3526
 5271TIP3   OH237447   1.869   0.172   1.351 -0.0976 -0.0477 -0.8250
 5271TIP3    H137448   1.793   0.230   1.345 -0.3525 -0.4624 -1.9120
 5271TIP3    H237449   1.903   0.167   1.262 -0.1673 -1.6576 -0.8054
 5272TIP3   OH237450   2.707   2.510   1.217 -0.2525  0.7628  0.9317
 5272TIP3    H137451   2.704   2.513   1.121 -1.3467  1.3619  0.9613
 5272TIP3    H237452   2.762   2.584   1.242 -1.1190  1.4757  0.7853
 5273TIP3   OH237453   3.206   3.076   0.660 -0.5686 -0.4754  0.3167
 5273TIP3    H137454   3.299   3.091   0.672 -0.1021 -3.0580  0.5066
 5273TIP3    H237455   3.167   3.164   0.656  2.0787  0.7461 -1.8643
 5274TIP3   OH237456   3.282   4.890   7.126  0.1222 -0.0984  0.3564
 5274TIP3    H137457   3.197   4.925   7.149 -0.4946 -1.4778  0.2962
 5274TIP3    H237458   3.321   4.862   7.209 -0.0952 -0.7536  0.2447
 5275TIP3   OH237459   0.337   6.814   6.531  0.2089  0.7238  0.3914
 5275TIP3    H137460   0.242   6.813   6.524  0.2200  0.1453  0.2797
 5275TIP3    H237461   0.364   6.728   6.500  0.7360  0.7116  0.8662
 5276TIP3   OH237462   6.441   6.452   7.623 -0.4311 -0.3074 -0.4149
 5276TIP3    H137463   6.403   6.399   7.694  0.6811 -0.7738 -0.1590
 5276TIP3    H237464   6.367   6.504   7.592 -1.8461 -2.6593 -1.3273
 5277TIP3   OH237465   2.597   2.916   0.131  0.1984 -0.3728  0.0892
 5277TIP3    H137466   2.559   2.975   0.196 -1.6501 -2.2341  0.8070
 5277TIP3    H237467   2.611   2.971   0.054  0.7477  1.4842  1.4203
 5278TIP3   OH237468   6.058   2.389   0.368 -0.0006  0.3251 -0.0117
 5278TIP3    H137469   6.150   2.369   0.352  0.0340 -0.9607  1.5364
 5278TIP3    H237470   6.013   2.305   0.361 -0.7364  0.5916  1.1913
 5279TIP3   OH237471   1.223   3.247   6.933 -0.4203  0.2043  0.3259
 5279TIP3    H137472   1.298   3.239   6.992  0.5099  0.4841 -0.7516
 5279TIP3    H237473   1.199   3.340   6.939  1.5058  0.9517 -1.7472
 5280TIP3   OH237474   3.555   2.517   0.816  0.1463  0.1507 -0.5845
 5280TIP3    H137475   3.485   2.583   0.810 -0.5563 -0.3888  1.0744
 5280TIP3    H237476   3.509   2.434   0.808  0.8270 -0.1817 -1.0817
 5281TIP3   OH237477   5.619   1.859   0.919 -0.3070  0.7527  0.3663
 5281TIP3    H137478   5.573   1.839   1.000  0.0741  0.3933  0.5004
 5281TIP3    H237479   5.712   1.859   0.944  0.0700 -2.3442 -0.6154
 5282TIP3   OH237480   2.944   2.226   2.192 -0.5039 -0.1858 -0.5334
 5282TIP3    H137481   2.915   2.136   2.208  0.3307 -0.3605  0.0882
 5282TIP3    H237482   2.874   2.281   2.226 -0.8653 -0.5997 -0.6011
 5283TIP3   OH237483   4.927   3.649   0.611  0.4711 -0.4630  0.0557
 5283TIP3    H137484   4.857   3.606   0.561  0.0565  0.1091  0.1414
 5283TIP3    H237485   4.905   3.742   0.608 -0.1688 -0.5081  2.2551
 5284TIP3   OH237486   1.938   4.488   1.101 -0.0271  0.5510  0.3222
 5284TIP3    H137487   1.950   4.398   1.131  1.6255 -0.3953 -2.7435
 5284TIP3    H237488   2.022   4.529   1.117 -0.4506  1.2886  0.7219
 5285TIP3   OH237489   1.068   4.562   7.660 -0.6496 -0.0012  0.2113
 5285TIP3    H137490   0.987   4.567   7.712 -1.3303  0.1274 -0.8280
 5285TIP3    H237491   1.133   4.607   7.714 -1.1184 -0.6346  1.3369
 5286TIP3   OH237492   3.899   6.523   7.818 -0.0432 -0.1912 -0.4002
 5286TIP3    H137493   3.904   6.581   7.741  3.1814  0.3036  0.0418
 5286TIP3    H237494   3.978   6.468   7.811 -1.5513 -2.6436  0.7054
 5287TIP3   OH237495   0.263   6.723   7.846 -0.5558 -0.3652 -0.4823
 5287TIP3    H137496   0.334   6.667   7.815 -0.5842 -0.8074  0.2449
 5287TIP3    H237497   0.265   6.714   7.941 -1.8845 -0.7388 -0.4767
 5288TIP3   OH237498   6.452   3.366   7.378 -0.0184 -0.1557 -0.1083
 5288TIP3    H137499   6.481   3.286   7.334 -1.6729 -0.2798 -1.0669
 5288TIP3    H237500   6.423   3.337   7.464  0.6692 -0.3567  0.0595
 5289TIP3   OH237501   4.417   1.035   1.508  0.0795  0.0819  0.2753
 5289TIP3    H137502   4.491   1.085   1.473 -0.5227 -0.0801 -1.3147
 5289TIP3    H237503   4.418   1.053   1.602  0.1595  2.7398 -0.1558
 5290TIP3   OH237504   3.295   6.538   7.661 -0.0833 -0.1474  0.0599
 5290TIP3    H137505   3.247   6.609   7.702  0.3240  0.0042  0.2812
 5290TIP3    H237506   3.291   6.557   7.567  0.6257  0.5499  0.1690
 5291TIP3   OH237507   1.854   6.476   7.961  0.3720 -0.2292  0.5107
 5291TIP3    H137508   1.767   6.504   7.934 -0.0779 -1.4944  0.5606
 5291TIP3    H237509   1.839   6.399   8.015  1.4882 -0.0394  1.1252
 5292TIP3   OH237510   5.292   1.756   7.243 -0.0454 -0.2715  0.7550
 5292TIP3    H137511   5.196   1.754   7.254 -0.3205  0.3211 -1.2419
 5292TIP3    H237512   5.314   1.849   7.241  0.4844 -0.4015  0.4898
 5293TIP3   OH237513   2.627   1.101   6.737 -0.3308 -0.2667  0.5172
 5293TIP3    H137514   2.615   1.193   6.712 -0.0043 -0.5409 -0.7327
 5293TIP3    H237515   2.716   1.097   6.772  0.3669 -0.4239 -1.1705
 5294TIP3   OH237516   0.504   6.842   2.031 -0.4680  0.3561 -0.0250
 5294TIP3    H137517   0.482   6.897   2.107 -1.8132  1.0368 -0.8670
 5294TIP3    H237518   0.480   6.896   1.955  1.0111 -0.2370 -0.9519
 5295TIP3   OH237519   0.227   3.317   0.586 -0.4289  0.4484 -0.4916
 5295TIP3    H137520   0.288   3.388   0.564 -0.2538 -0.1908 -2.1875
 5295TIP3    H237521   0.140   3.353   0.567 -0.8822  1.9322  3.4091
 5296TIP3   OH237522   1.627   5.250   6.112  0.5690 -0.4716 -0.1025
 5296TIP3    H137523   1.554   5.226   6.169 -0.3822 -0.0317 -1.0978
 5296TIP3    H237524   1.593   5.324   6.060  1.6987 -0.3047 -0.6227
 5297TIP3   OH237525   2.173   4.898   1.840  0.1748 -0.7133 -0.4482
 5297TIP3    H137526   2.238   4.912   1.771  1.4100 -1.5845  0.4872
 5297TIP3    H237527   2.223   4.907   1.922 -0.4884 -2.9839  0.2820
 5298TIP3   OH237528   0.373   4.284   6.595  0.1782  0.2510  0.0863
 5298TIP3    H137529   0.379   4.189   6.589 -1.8825 -0.0429  1.6278
 5298TIP3    H237530   0.289   4.300   6.637 -0.6731  2.8750 -2.3295
 5299TIP3   OH237531   3.824   1.370   0.429 -0.0206  0.6485  0.2469
 5299TIP3    H137532   3.888   1.323   0.377 -0.9519  0.7847 -1.0805
 5299TIP3    H237533   3.873   1.402   0.505  1.3792  0.4443 -0.5357
 5300TIP3   OH237534   0.651   0.245   2.339  0.2888 -0.0693  0.3525
 5300TIP3    H137535   0.614   0.221   2.424 -0.1530 -0.7587 -0.0198
 5300TIP3    H237536   0.584   0.218   2.275  0.5296  0.6133 -0.2034
 5301TIP3   OH237537   1.312   0.130   8.520  0.0492  0.3906  0.0336
 5301TIP3    H137538   1.358   0.209   8.549  1.0120 -1.0286  2.7260
 5301TIP3    H237539   1.356   0.059   8.566 -2.7800 -1.4159  0.1722
 5302TIP3   OH237540   5.335   1.361   1.072 -0.0422 -0.2786  0.3448
 5302TIP3    H137541   5.396   1.426   1.036  0.2248 -0.9355 -0.4237
 5302TIP3    H237542   5.387   1.313   1.136  0.0341 -0.3601  0.2214
 5303TIP3   OH237543   2.178   0.958   0.239 -0.0411 -0.1082  0.3328
 5303TIP3    H137544   2.146   0.926   0.155  0.2960  2.7670 -1.0179
 5303TIP3    H237545   2.248   0.897   0.263 -0.4728 -1.2805 -1.2260
 5304TIP3   OH237546   5.392   5.972   7.394  0.5370  0.1722 -0.2520
 5304TIP3    H137547   5.372   6.054   7.439 -0.1184  1.1268 -2.1699
 5304TIP3    H237548   5.326   5.966   7.325  1.7532 -0.9771 -1.3761
 5305TIP3   OH237549   4.151   1.556   8.551 -0.2699 -0.4047  0.7067
 5305TIP3    H137550   4.056   1.551   8.562 -0.4494 -0.4840 -0.6457
 5305TIP3    H237551   4.163   1.613   8.475  0.8487  1.0424  1.9164
 5306TIP3   OH237552   0.303   6.134   1.522  0.1243  0.1417  0.1191
 5306TIP3    H137553   0.306   6.041   1.546  2.9176 -0.4162 -1.8271
 5306TIP3    H237554   0.333   6.179   1.601 -0.8951 -0.5933  0.9686
 5307TIP3   OH237555   1.505   3.920   7.962  0.1390  0.1298 -0.1876
 5307TIP3    H137556   1.436   3.986   7.964  1.1865  1.2467  0.1974
 5307TIP3    H237557   1.482   3.860   8.033 -1.3467 -0.5103 -1.1516
 5308TIP3   OH237558   5.943   5.610   6.306  0.1119  0.1688 -0.4810
 5308TIP3    H137559   5.917   5.540   6.246  1.3784 -1.1265  0.4047
 5308TIP3    H237560   5.969   5.564   6.386  0.3563  1.7079  0.3592
 5309TIP3   OH237561   6.041   0.769   7.898 -0.3034  0.4584 -0.4432
 5309TIP3    H137562   6.135   0.781   7.898 -0.0872 -1.0124 -0.8651
 5309TIP3    H237563   6.009   0.826   7.968  1.0616 -0.1595  0.7256
 5310TIP3   OH237564   0.432   3.694   6.557 -0.1762 -0.3002  0.1308
 5310TIP3    H137565   0.344   3.730   6.542 -0.2190 -0.6777 -0.5983
 5310TIP3    H237566   0.419   3.599   6.556  0.2904 -0.3642 -0.3692
 5311TIP3   OH237567   2.477   2.125   0.847  0.6159 -0.1794 -0.4598
 5311TIP3    H137568   2.438   2.038   0.847  0.2623 -0.0238 -0.3392
 5311TIP3    H237569   2.524   2.131   0.764  2.5840 -1.3429  0.4727
 5312TIP3   OH237570   4.313   5.327   8.034 -0.1356  0.1467 -0.6821
 5312TIP3    H137571   4.342   5.270   7.964 -1.6571 -2.2535  0.4879
 5312TIP3    H237572   4.373   5.309   8.107 -1.8946 -1.7802  0.4097
 5313TIP3   OH237573   2.783   1.322   7.790 -0.6146  0.1706  0.7120
 5313TIP3    H137574   2.768   1.408   7.750 -0.3632 -0.0725  0.0729
 5313TIP3    H237575   2.705   1.306   7.843 -0.1362  1.3348  1.8439
 5314TIP3   OH237576   1.580   6.397   1.108  0.5062  0.2969 -0.0158
 5314TIP3    H137577   1.498   6.351   1.089  0.8608  0.0208 -0.9359
 5314TIP3    H237578   1.646   6.350   1.057  1.1278  0.9332  0.1863
 5315TIP3   OH237579   4.743   4.856   0.254  0.0622  0.2643 -0.0247
 5315TIP3    H137580   4.682   4.895   0.318 -0.4834 -0.2742 -0.2100
 5315TIP3    H237581   4.823   4.842   0.304 -0.8182 -1.5522  0.9887
 5316TIP3   OH237582   3.922   3.995   2.403 -0.0046 -0.2101 -0.1026
 5316TIP3    H137583   3.945   3.998   2.310  0.7192  0.4850  0.0820
 5316TIP3    H237584   3.881   4.081   2.420 -1.7388 -0.9789 -0.1556
 5317TIP3   OH237585   5.709   6.039   0.800  0.3948  0.1566  0.5285
 5317TIP3    H137586   5.709   5.988   0.719 -1.2107  1.7801 -0.5584
 5317TIP3    H237587   5.797   6.025   0.837 -0.1015 -3.8631  0.7018
 5318TIP3   OH237588   5.806   0.414   2.093 -0.5718  0.4162 -0.0670
 5318TIP3    H137589   5.756   0.383   2.168  2.8964  2.3889  3.3973
 5318TIP3    H237590   5.834   0.334   2.049 -2.1821 -0.8504  1.0787
 5319TIP3   OH237591   0.510   3.107   0.540  0.3002 -0.1556 -0.2372
 5319TIP3    H137592   0.521   3.092   0.446 -0.0644 -0.7331 -0.1959
 5319TIP3    H237593   0.438   3.169   0.547  0.6759  0.2935 -0.3573
 5320TIP3   OH237594   2.550   0.396   0.115  0.1604 -0.0092  0.1461
 5320TIP3    H137595   2.583   0.310   0.142 -1.8096 -1.1088 -0.7140
 5320TIP3    H237596   2.578   0.404   0.024  0.8633  0.5498  0.4073
 5321TIP3   OH237597   6.079   3.621   7.961  0.3919  0.2166  0.5677
 5321TIP3    H137598   6.073   3.566   8.039 -0.0089 -1.0416 -0.3174
 5321TIP3    H237599   6.153   3.586   7.912  0.9983  1.3532  0.6263
 5322TIP3   OH237600   2.601   3.672   2.139  0.1276  0.0291 -0.3778
 5322TIP3    H137601   2.665   3.604   2.161  0.4971  0.5034  0.0430
 5322TIP3    H237602   2.536   3.627   2.085 -0.5063 -1.0650  1.2174
 5323TIP3   OH237603   4.491   0.912   2.051 -0.2818 -0.0329 -0.0367
 5323TIP3    H137604   4.473   0.968   2.126  1.2233 -1.8680  1.7770
 5323TIP3    H237605   4.444   0.830   2.070  1.3984 -1.0928 -0.2915
 5324TIP3   OH237606   0.609   5.236   7.982  0.2952 -0.2150  0.0600
 5324TIP3    H137607   0.598   5.285   7.900 -1.7214 -1.2154 -0.3391
 5324TIP3    H237608   0.673   5.168   7.961  0.4281  0.0624 -0.4483
 5325TIP3   OH237609   0.128   2.903   1.610 -0.1607 -1.0323  0.0308
 5325TIP3    H137610   0.042   2.868   1.589 -1.9509  3.2012 -0.8145
 5325TIP3    H237611   0.151   2.957   1.534  3.1266 -1.6464  0.4197
 5326TIP3   OH237612   1.539   3.588   7.436  0.7842 -0.6211 -0.7550
 5326TIP3    H137613   1.529   3.495   7.457  1.2431 -0.6580 -0.6718
 5326TIP3    H237614   1.463   3.630   7.476  0.7905 -0.9082 -0.4312
 5327TIP3   OH237615   6.546   1.524   0.856 -0.3518 -0.4583  0.6847
 5327TIP3    H137616   6.516   1.434   0.862 -0.4972 -0.6194 -1.7120
 5327TIP3    H237617   6.530   1.550   0.766 -0.8606  2.1941  1.4341
 5328TIP3   OH237618   6.497   2.970   1.109 -0.1141  0.6492  0.0118
 5328TIP3    H137619   6.527   2.913   1.180 -2.6903  1.0116  1.5076
 5328TIP3    H237620   6.578   2.997   1.064  1.3886 -1.9797  0.8965
 5329TIP3   OH237621   1.199   5.165   1.770  0.4241  0.4195 -0.4319
 5329TIP3    H137622   1.190   5.129   1.682 -0.8469  0.3631 -0.2980
 5329TIP3    H237623   1.243   5.096   1.820 -0.4466 -0.2638 -0.5960
 5330TIP3   OH237624   1.234   5.930   7.336  0.0046  0.2689 -0.2735
 5330TIP3    H137625   1.272   5.865   7.277 -0.3085  0.4884 -0.7287
 5330TIP3    H237626   1.220   6.007   7.280  0.7086  0.8556  0.3298
 5331TIP3   OH237627   3.539   0.661   7.252  0.1091 -0.2672 -0.1473
 5331TIP3    H137628   3.491   0.742   7.272 -1.8695 -1.1902 -0.9128
 5331TIP3    H237629   3.504   0.597   7.314  0.7785 -0.8394 -0.3571
 5332TIP3   OH237630   0.757   2.905   1.989 -0.1182  0.2270  0.1941
 5332TIP3    H137631   0.667   2.892   2.020  0.3494  0.3248  1.6801
 5332TIP3    H237632   0.789   2.980   2.040  0.2883  1.2363 -1.4881
 5333TIP3   OH237633   2.087   6.594   7.053 -0.0664  0.0010 -0.4688
 5333TIP3    H137634   2.162   6.562   7.102 -1.9463 -1.4667  1.6610
 5333TIP3    H237635   2.111   6.684   7.028  1.8900  0.0072  1.1598
 5334TIP3   OH237636   1.548   5.592   7.094 -0.2757 -0.3357  0.1517
 5334TIP3    H137637   1.582   5.556   7.176  0.3987 -1.8368 -0.7578
 5334TIP3    H237638   1.610   5.661   7.071  0.5521 -1.1076  0.0056
 5335TIP3   OH237639   0.116   1.230   6.270  0.4134 -0.1487 -0.6052
 5335TIP3    H137640   0.083   1.156   6.218  1.0574 -1.4361  0.7195
 5335TIP3    H237641   0.174   1.189   6.334 -2.1111  1.0056  2.6793
 5336TIP3   OH237642   0.808   6.702   0.527 -0.6294 -0.3922  0.2118
 5336TIP3    H137643   0.804   6.745   0.612 -1.4737  0.1767 -0.1021
 5336TIP3    H237644   0.881   6.745   0.482 -1.4788  0.7735 -0.1105
 5337TIP3   OH237645   3.357   5.696   6.356  0.2919 -0.2452  0.0584
 5337TIP3    H137646   3.265   5.688   6.331  0.0358 -2.5602  1.5095
 5337TIP3    H237647   3.397   5.613   6.329  0.9825 -1.0125  3.0846
 5338TIP3   OH237648   6.878   6.630   7.067 -0.0539 -0.1257 -0.5365
 5338TIP3    H137649   6.929   6.563   7.111  0.5335  0.0111 -1.0034
 5338TIP3    H237650   6.880   6.705   7.126  0.5131 -0.0305 -0.6737
 5339TIP3   OH237651   3.341   4.520   0.330  0.0293  0.0704 -0.4303
 5339TIP3    H137652   3.254   4.559   0.320  0.2118  0.0330 -2.5745
 5339TIP3    H237653   3.402   4.590   0.306  0.6216  0.0393  0.8712
 5340TIP3   OH237654   2.047   1.773   0.472  0.2257  0.6171  0.0609
 5340TIP3    H137655   1.967   1.825   0.469  0.4255  1.0821  1.9396
 5340TIP3    H237656   2.116   1.833   0.444  0.1185  0.6433 -0.1478
 5341TIP3   OH237657   2.070   3.152   0.710  0.2225 -0.0003  0.0133
 5341TIP3    H137658   2.053   3.184   0.798 -0.3889  0.5539 -0.2991
 5341TIP3    H237659   1.990   3.108   0.683  1.1114 -2.0092  0.4969
 5342TIP3   OH237660   1.189   4.080   8.341 -0.4944  0.2456 -0.0837
 5342TIP3    H137661   1.165   4.069   8.249  0.5879  0.6723 -0.4280
 5342TIP3    H237662   1.135   4.016   8.388  0.2281 -1.2619 -1.2245
 5343TIP3   OH237663   1.336   5.954   1.268  0.2079  0.8295 -0.3333
 5343TIP3    H137664   1.421   5.984   1.236 -0.4913  1.8227 -1.3200
 5343TIP3    H237665   1.357   5.906   1.349  1.8276 -0.0576 -1.2128
 5344TIP3   OH237666   1.403   2.673   7.830 -0.0971  0.1724 -0.4235
 5344TIP3    H137667   1.313   2.706   7.825 -0.3078 -0.4379 -0.8433
 5344TIP3    H237668   1.401   2.608   7.899  0.7452  2.2614  1.7008
 5345TIP3   OH237669   4.223   6.956   8.525 -0.1898 -0.4326  0.3042
 5345TIP3    H137670   4.205   6.991   8.437  1.6851  1.3315  0.5263
 5345TIP3    H237671   4.169   7.009   8.584  0.0093 -0.2834  0.3551
 5346TIP3   OH237672   6.899   2.513   7.779  0.1862  0.6115 -0.0754
 5346TIP3    H137673   6.982   2.505   7.827  0.3079  1.1147 -0.1953
 5346TIP3    H237674   6.921   2.489   7.689  1.0248  3.9809 -0.9117
 5347TIP3   OH237675   2.709   4.047   1.884 -0.2855  0.2167 -0.2334
 5347TIP3    H137676   2.739   3.956   1.883 -1.3161 -0.2098  1.8883
 5347TIP3    H237677   2.614   4.041   1.892 -0.6846  1.5430 -2.8460
 5348TIP3   OH237678   3.643   6.737   1.138 -0.1441  0.6633  0.3247
 5348TIP3    H137679   3.642   6.831   1.120 -2.1210  0.7062  0.4608
 5348TIP3    H237680   3.663   6.731   1.232  0.1007  0.9279  0.2921
 5349TIP3   OH237681   2.305   3.463   7.929 -0.8026 -0.2987  0.6544
 5349TIP3    H137682   2.382   3.501   7.971  0.3068 -2.0970  0.3474
 5349TIP3    H237683   2.231   3.510   7.967  0.4265  1.3998  1.0337
 5350TIP3   OH237684   1.699   4.474   1.623 -0.2647 -0.5681  0.7007
 5350TIP3    H137685   1.670   4.550   1.674 -1.3505 -1.7536  1.9427
 5350TIP3    H237686   1.641   4.403   1.651 -0.4634 -1.4659 -1.7298
 5351TIP3   OH237687   0.083   0.167   8.452  0.1398  0.1253 -0.1208
 5351TIP3    H137688   0.037   0.116   8.519  0.1764 -0.1536 -0.3068
 5351TIP3    H237689   0.131   0.101   8.401 -0.6288  0.2347 -1.0090
 5352TIP3   OH237690   6.601   1.980   6.204 -0.1307 -0.3153 -0.5642
 5352TIP3    H137691   6.557   2.015   6.282  0.4640  1.1753 -0.8527
 5352TIP3    H237692   6.588   2.048   6.137  1.0383 -0.6747 -1.1769
 5353TIP3   OH237693   1.792   0.934   2.795  0.0507  0.0465  0.3014
 5353TIP3    H137694   1.760   0.879   2.724 -1.0704  1.2697 -0.1810
 5353TIP3    H237695   1.804   0.874   2.869 -1.5828 -0.7883 -0.0639
 5354TIP3   OH237696   4.228   4.750   1.009 -0.0227 -0.0018 -0.3803
 5354TIP3    H137697   4.217   4.719   0.919  0.2807  1.4791 -0.9526
 5354TIP3    H237698   4.172   4.827   1.016 -0.7810 -0.6331  1.0096
 5355TIP3   OH237699   1.054   5.489   6.893  0.8795 -0.5775 -0.3888
 5355TIP3    H137700   1.108   5.540   6.833 -0.7459 -0.2011 -1.6098
 5355TIP3    H237701   1.065   5.531   6.978  0.3061  1.2498 -1.1814
 5356TIP3   OH237702   6.000   5.614   7.919 -0.0350  0.2181  0.2574
 5356TIP3    H137703   6.062   5.572   7.860 -0.9203  2.0299 -2.0983
 5356TIP3    H237704   5.966   5.541   7.972  1.5966 -1.3194 -0.6806
 5357TIP3   OH237705   2.232   2.065   6.264  0.2378  0.3207  0.4353
 5357TIP3    H137706   2.203   2.152   6.289  0.8660  1.1969 -1.7068
 5357TIP3    H237707   2.327   2.071   6.257  0.2109 -0.2544 -0.6872
 5358TIP3   OH237708   6.188   5.468   0.138 -0.3964 -0.2366  0.1906
 5358TIP3    H137709   6.235   5.550   0.154 -1.5266  0.1227  1.8222
 5358TIP3    H237710   6.220   5.408   0.205  0.0207 -0.9802 -0.6551
 5359TIP3   OH237711   3.629   6.287   0.815  0.5998 -0.3447  0.2706
 5359TIP3    H137712   3.655   6.323   0.900  1.3107  0.0599 -0.1110
 5359TIP3    H237713   3.563   6.348   0.782  0.0228 -0.7211  0.7030
 5360TIP3   OH237714   1.660   5.811   0.044  0.0985 -0.6568  0.0136
 5360TIP3    H137715   1.690   5.845  -0.040  0.4973  0.8923  0.7361
 5360TIP3    H237716   1.645   5.890   0.097  0.1863 -1.6028  1.4863
 5361TIP3   OH237717   6.374   1.658   1.478  0.0803 -0.0930 -0.2564
 5361TIP3    H137718   6.419   1.608   1.410  1.3313 -1.7385  1.6678
 5361TIP3    H237719   6.393   1.611   1.559 -2.2055  1.1800  1.1421
 5362TIP3   OH237720   5.590   3.078   1.222 -0.1756  0.3349 -0.1487
 5362TIP3    H137721   5.611   3.123   1.304  1.2713  0.8054 -0.7447
 5362TIP3    H237722   5.495   3.081   1.216 -0.2341  1.1933  1.0072
 5363TIP3   OH237723   3.176   3.031   8.468 -0.2018 -0.3489  0.3974
 5363TIP3    H137724   3.109   3.031   8.536 -0.3487  0.2689  0.2509
 5363TIP3    H237725   3.232   2.957   8.491 -0.6926 -0.6183  0.7534
 5364TIP3   OH237726   4.349   4.003   2.406  0.2980 -0.0652  0.1285
 5364TIP3    H137727   4.355   3.907   2.409  3.0283  0.0239  3.3560
 5364TIP3    H237728   4.300   4.027   2.485 -1.1265  1.2691 -1.0822
 5365TIP3   OH237729   1.157   3.812   8.545 -0.3116  0.6968 -0.2806
 5365TIP3    H137730   1.127   3.844   8.630  0.7677  0.1321  0.3331
 5365TIP3    H237731   1.149   3.717   8.550 -2.3965  0.7201 -1.6728
 5366TIP3   OH237732   1.344   1.037   7.799 -0.1945 -0.4328  0.1839
 5366TIP3    H137733   1.283   1.091   7.849  1.0079  0.5620  0.6306
 5366TIP3    H237734   1.364   1.090   7.722 -0.6933 -1.2108 -0.4925
 5367TIP3   OH237735   0.071   6.096   7.476 -0.9585  0.1734 -0.3461
 5367TIP3    H137736   0.076   6.006   7.508 -1.0750  0.1604 -0.3669
 5367TIP3    H237737   0.150   6.106   7.422 -2.0561 -0.6133 -2.1779
 5368TIP3   OH237738   2.191   1.507   2.310 -0.0256 -0.1464  0.5284
 5368TIP3    H137739   2.185   1.478   2.219 -2.4069 -0.6047  0.7659
 5368TIP3    H237740   2.283   1.493   2.334  0.6355 -0.0912 -1.7449
 5369TIP3   OH237741   1.045   5.685   2.152 -0.4443 -0.6238  0.0824
 5369TIP3    H137742   0.966   5.642   2.185 -0.1368 -0.2082  1.4549
 5369TIP3    H237743   1.073   5.741   2.225 -0.4635  1.3972 -1.3575
 5370TIP3   OH237744   4.673   5.851   8.010  0.4126 -0.2614  0.2296
 5370TIP3    H137745   4.729   5.925   8.036 -0.0476  0.9792 -2.0292
 5370TIP3    H237746   4.598   5.893   7.967 -0.6067 -2.0163  0.2374
 5371TIP3   OH237747   0.866   1.035   1.574 -0.0862  0.0999  0.2289
 5371TIP3    H137748   0.922   1.059   1.648 -0.3940  1.0887  0.1445
 5371TIP3    H237749   0.820   1.115   1.551 -1.8408 -0.7902  0.5342
 5372TIP3   OH237750   6.767   2.391   2.352  0.1757  0.2433 -0.0617
 5372TIP3    H137751   6.831   2.413   2.420  1.7945  0.6034 -1.6206
 5372TIP3    H237752   6.725   2.474   2.330  0.5472  0.3592 -0.3501
 5373TIP3   OH237753   4.287   6.735   0.460 -0.5737 -0.4751 -0.1873
 5373TIP3    H137754   4.214   6.674   0.453 -0.8278 -0.1928 -0.0525
 5373TIP3    H237755   4.256   6.801   0.523  0.9019 -1.9522  2.2428
 5374TIP3   OH237756   5.763   1.294   0.923 -0.1223  0.3782  0.0594
 5374TIP3    H137757   5.721   1.272   1.007 -0.4383 -0.7014 -0.3715
 5374TIP3    H237758   5.729   1.230   0.861 -0.2482  1.4423 -1.0164
 5375TIP3   OH237759   0.610   1.469   8.391  0.1638  0.3488 -0.5795
 5375TIP3    H137760   0.596   1.401   8.324  0.1531  0.2385 -0.4661
 5375TIP3    H237761   0.612   1.421   8.473  0.2147  0.4815 -0.5034
 5376TIP3   OH237762   3.924   4.709   6.795 -0.2441  0.2964 -0.0608
 5376TIP3    H137763   3.887   4.780   6.743  0.2611 -0.0126 -0.8686
 5376TIP3    H237764   3.909   4.630   6.742 -0.0900 -0.0834  0.4517
 5377TIP3   OH237765   3.661   1.740   6.197 -0.3679 -0.6001 -0.6627
 5377TIP3    H137766   3.664   1.677   6.270  2.5733 -0.9521 -0.9427
 5377TIP3    H237767   3.662   1.685   6.119 -0.7039 -0.2114 -0.9373
 5378TIP3   OH237768   1.785   2.863   7.522  0.2793 -0.0080 -0.1873
 5378TIP3    H137769   1.746   2.938   7.566  0.1534 -0.9417  1.3412
 5378TIP3    H237770   1.711   2.808   7.497  0.4306 -0.1022 -0.4391
 5379TIP3   OH237771   6.118   0.194   0.024  0.2672 -0.2032 -0.5374
 5379TIP3    H137772   6.121   0.112  -0.025 -1.6592 -1.3719  1.1459
 5379TIP3    H237773   6.066   0.174   0.102 -0.6905  2.7155 -0.2809
 5380TIP3   OH237774   3.820   3.094   7.608 -0.0747  0.3290  0.0716
 5380TIP3    H137775   3.839   3.106   7.515 -1.1701 -1.6534 -0.4649
 5380TIP3    H237776   3.864   3.012   7.631  0.4639  0.9562  1.4301
 5381TIP3   OH237777   3.300   3.019   0.399 -0.6638  0.1780 -0.4956
 5381TIP3    H137778   3.254   3.033   0.482  1.9452 -1.6023  1.4110
 5381TIP3    H237779   3.383   3.065   0.409 -0.1729 -0.3171 -1.9910
 5382TIP3   OH237780   2.452   0.476   8.116 -0.1475  0.1177 -0.2984
 5382TIP3    H137781   2.467   0.424   8.037  1.2585 -0.4148  0.2956
 5382TIP3    H237782   2.404   0.553   8.085  3.1493  1.5766 -2.2900
 5383TIP3   OH237783   4.327   1.352   1.802  0.1311 -0.1042  0.4940
 5383TIP3    H137784   4.413   1.357   1.844 -0.0954 -0.3426  0.9956
 5383TIP3    H237785   4.316   1.259   1.780 -0.0424 -0.0936  0.5321
 5384TIP3   OH237786   0.723   4.247   1.178 -0.0924 -0.0254 -0.2100
 5384TIP3    H137787   0.761   4.263   1.265  0.5669 -2.9686  0.1780
 5384TIP3    H237788   0.637   4.209   1.197 -0.6147  0.7823 -0.9185
 5385TIP3   OH237789   6.217   4.789   2.545  0.0342  0.1156  0.1279
 5385TIP3    H137790   6.150   4.796   2.613  0.4676  0.6120  0.5117
 5385TIP3    H237791   6.172   4.746   2.472  0.0569 -2.1582  1.3672
 5386TIP3   OH237792   3.998   6.049   0.153  0.4264  0.1273 -0.7206
 5386TIP3    H137793   4.019   5.962   0.185  0.8739  1.3545  2.6356
 5386TIP3    H237794   4.080   6.097   0.156 -0.1412  1.1391 -0.8460
 5387TIP3   OH237795   2.463   6.878   7.100  0.0778 -0.2849 -1.0440
 5387TIP3    H137796   2.489   6.798   7.146  0.4962 -0.3372 -1.3753
 5387TIP3    H237797   2.459   6.944   7.169  1.3203 -0.2184 -1.0101
 5388TIP3   OH237798   0.698   2.572   0.580 -0.4147  0.5901  0.4533
 5388TIP3    H137799   0.644   2.535   0.650 -2.2655 -0.3909 -1.3756
 5388TIP3    H237800   0.643   2.640   0.540 -0.3778 -0.4345 -1.4731
 5389TIP3   OH237801   0.814   0.850   0.129 -0.1201  0.2955 -0.4161
 5389TIP3    H137802   0.902   0.842   0.092 -0.0081 -0.8013  0.0348
 5389TIP3    H237803   0.791   0.941   0.116  1.5447  0.8925  0.4848
 5390TIP3   OH237804   0.528   0.204   7.576  0.0384  0.9539  0.3753
 5390TIP3    H137805   0.603   0.149   7.595  0.7781  2.2332  1.3004
 5390TIP3    H237806   0.545   0.238   7.488 -0.1204  0.2106  0.0524
 5391TIP3   OH237807   0.523   5.763   6.416 -0.3254  0.0196 -0.3619
 5391TIP3    H137808   0.552   5.714   6.339 -2.4072  0.3810 -1.4276
 5391TIP3    H237809   0.601   5.767   6.472  1.0695 -0.7970 -2.1425
 5392TIP3   OH237810   3.077   1.136   1.380 -0.4345 -0.2941  0.6268
 5392TIP3    H137811   3.105   1.126   1.289  0.4912  1.7259  0.6379
 5392TIP3    H237812   3.066   1.046   1.411 -1.0935 -1.0398 -1.5443
 5393TIP3   OH237813   3.847   2.621   1.295 -0.6942 -0.6087 -0.4203
 5393TIP3    H137814   3.883   2.538   1.327  0.8657 -0.2436 -1.1261
 5393TIP3    H237815   3.921   2.682   1.298 -1.4908  0.4297 -1.0898
 5394TIP3   OH237816   2.228   5.336   0.806 -0.4290  0.4882  0.1470
 5394TIP3    H137817   2.142   5.373   0.783 -0.4079  0.0467 -0.7124
 5394TIP3    H237818   2.289   5.381   0.747 -0.2443 -0.0776 -0.0933
 5395TIP3   OH237819   1.620   5.849   0.418 -0.1182 -0.4215  0.5047
 5395TIP3    H137820   1.688   5.914   0.403  0.4721 -1.3761 -1.3091
 5395TIP3    H237821   1.565   5.854   0.339  0.4508 -2.6675 -0.1001
 5396TIP3   OH237822   4.376   5.540   8.565 -0.8323 -0.3981 -0.1111
 5396TIP3    H137823   4.414   5.597   8.497 -2.2411  1.0094  0.2162
 5396TIP3    H237824   4.395   5.586   8.647 -0.7885 -1.1269  0.2938
 5397TIP3   OH237825   4.121   0.506   7.198 -0.0890 -0.3925 -0.0690
 5397TIP3    H137826   4.175   0.512   7.277  0.3221  0.3617 -0.4008
 5397TIP3    H237827   4.037   0.472   7.230  0.0975 -0.1795  0.6798
 5398TIP3   OH237828   1.079   2.317   7.958  0.0613 -0.5117 -0.0063
 5398TIP3    H137829   1.073   2.238   8.011 -0.7848  0.4200  1.3779
 5398TIP3    H237830   1.169   2.318   7.926 -0.4730 -3.1098 -1.9085
 5399TIP3   OH237831   3.652   4.581   7.309  0.0402  0.3480  0.0456
 5399TIP3    H137832   3.706   4.566   7.231  1.2442  0.6783  0.7793
 5399TIP3    H237833   3.618   4.495   7.332 -1.0171  0.3728 -1.3040
 5400TIP3   OH237834   3.484   1.280   7.173  0.2546  0.0798 -0.0183
 5400TIP3    H137835   3.470   1.280   7.268  1.0264  0.2722  0.1049
 5400TIP3    H237836   3.466   1.191   7.146  1.9683 -0.5035  0.6256
 5401TIP3   OH237837   2.251   6.513   0.423 -0.4177 -0.4768 -0.3907
 5401TIP3    H137838   2.302   6.502   0.343 -1.6147 -0.0498 -1.2323
 5401TIP3    H237839   2.166   6.474   0.403 -1.2716  1.0565  0.1185
 5402TIP3   OH237840   1.933   3.297   7.899  0.2132 -0.2067  0.0472
 5402TIP3    H137841   1.990   3.262   7.967  1.5318  0.3016 -0.7664
 5402TIP3    H237842   1.865   3.230   7.888 -0.8810  0.2852  2.7877
 5403TIP3   OH237843   4.359   5.601   6.664  0.7091 -0.1334 -0.4852
 5403TIP3    H137844   4.393   5.656   6.594  0.3187 -0.6602 -1.1105
 5403TIP3    H237845   4.287   5.650   6.701  1.1840  0.3300 -0.1726
 5404TIP3   OH237846   6.679   6.048   0.659 -0.3527 -0.1066  0.0906
 5404TIP3    H137847   6.723   6.058   0.575 -0.0186 -0.0746  0.2666
 5404TIP3    H237848   6.747   6.015   0.718 -0.0953  1.5014  0.7738
 5405TIP3   OH237849   3.772   4.073   0.444 -0.2123  0.1912 -0.4966
 5405TIP3    H137850   3.777   4.165   0.471 -2.2058 -0.3104  1.8906
 5405TIP3    H237851   3.796   4.023   0.521 -1.4931 -1.3109 -1.0166
 5406TIP3   OH237852   2.009   4.877   8.558 -0.3934 -0.1763 -0.3281
 5406TIP3    H137853   1.915   4.871   8.546 -0.8526  0.5521  2.2916
 5406TIP3    H237854   2.025   4.967   8.584  0.5226 -1.0044  2.3921
 5407TIP3   OH237855   5.115   6.161   7.308  0.5097  0.5233 -0.3604
 5407TIP3    H137856   5.123   6.133   7.399 -2.1546  0.2320 -0.1228
 5407TIP3    H237857   5.025   6.193   7.301 -0.4359 -2.1812 -3.5320
 5408TIP3   OH237858   2.604   6.525   0.946  0.2544  0.1967  0.6112
 5408TIP3    H137859   2.611   6.501   0.854 -0.9067  0.7654  0.3630
 5408TIP3    H237860   2.695   6.533   0.976  0.6699  1.3574 -0.8454
 5409TIP3   OH237861   1.469   6.095   6.940 -0.4529 -0.3314 -0.2395
 5409TIP3    H137862   1.414   6.066   6.868 -0.4741 -0.3929 -0.1985
 5409TIP3    H237863   1.538   6.029   6.947  1.1844  1.0915 -2.0116
 5410TIP3   OH237864   3.150   1.490   0.012 -0.6227 -0.3638  0.0832
 5410TIP3    H137865   3.232   1.508   0.059 -0.4517 -0.4015 -0.2026
 5410TIP3    H237866   3.086   1.477   0.082 -0.3659 -0.4302  0.3104
 5411TIP3   OH237867   3.900   1.066   0.315  0.1670  0.5893  0.4593
 5411TIP3    H137868   3.980   1.061   0.261 -0.5768 -0.7882 -0.5833
 5411TIP3    H237869   3.912   0.998   0.381 -0.3715 -0.0410 -0.0707
 5412TIP3   OH237870   1.197   1.723   0.374  0.2055 -0.1344 -0.1443
 5412TIP3    H137871   1.267   1.669   0.336 -0.6691 -1.5443  0.1788
 5412TIP3    H237872   1.187   1.796   0.313  0.4413 -1.0940 -1.3660
 5413TIP3   OH237873   5.615   1.626   7.489 -0.2748  0.1212  0.3864
 5413TIP3    H137874   5.677   1.696   7.506 -2.2415  2.3678 -1.1194
 5413TIP3    H237875   5.646   1.552   7.542  2.1485  1.9391  1.6511
 5414TIP3   OH237876   1.273   1.251   8.251  0.0100 -0.3914  0.0910
 5414TIP3    H137877   1.324   1.171   8.235 -0.5128 -0.6367 -0.3561
 5414TIP3    H237878   1.188   1.219   8.281 -0.4829 -0.0234 -0.8916
 5415TIP3   OH237879   5.360   2.509   0.657 -0.2720 -0.2089 -0.1094
 5415TIP3    H137880   5.435   2.569   0.659  0.6300 -1.2794 -0.4913
 5415TIP3    H237881   5.399   2.422   0.666 -1.3667 -0.8849 -1.4708
 5416TIP3   OH237882   0.417   3.544   0.560 -0.6198  0.0603 -0.2834
 5416TIP3    H137883   0.486   3.571   0.621  0.1839 -1.0233 -0.6978
 5416TIP3    H237884   0.398   3.623   0.510  1.1056  0.1239 -0.9065
 5417TIP3   OH237885   0.765   1.737   8.353  0.0083  0.0735 -0.3436
 5417TIP3    H137886   0.810   1.659   8.319  1.7294  1.4071 -1.3282
 5417TIP3    H237887   0.795   1.808   8.296 -1.9543  1.3831  0.1649
 5418TIP3   OH237888   2.407   0.080   6.796  0.5239  0.1319  0.0970
 5418TIP3    H137889   2.352   0.065   6.719  1.6063 -2.0683 -0.3400
 5418TIP3    H237890   2.476   0.014   6.789  2.3760  1.8066  1.4089
 5419TIP3   OH237891   5.953   5.097   6.443  0.0397  0.6275  0.2910
 5419TIP3    H137892   5.880   5.126   6.387 -0.0868  1.2274  0.7615
 5419TIP3    H237893   5.930   5.007   6.467  0.1048  0.3530 -0.6356
 5420TIP3   OH237894   4.862   4.447   2.209  0.0805 -0.4825 -0.0567
 5420TIP3    H137895   4.937   4.440   2.150 -0.8104  0.3525 -1.3398
 5420TIP3    H237896   4.789   4.409   2.160 -0.6349  0.0310  0.5952
 5421TIP3   OH237897   5.636   5.253   8.331  0.0034 -0.0926 -0.0640
 5421TIP3    H137898   5.590   5.333   8.355 -1.0214 -0.5107 -0.5301
 5421TIP3    H237899   5.590   5.223   8.252  0.6126 -0.9275 -0.1095
 5422TIP3   OH237900   4.977   3.985   8.543 -0.3063  0.3041 -0.5825
 5422TIP3    H137901   4.891   3.996   8.585 -0.3222 -2.2075  0.1662
 5422TIP3    H237902   5.037   4.034   8.599 -0.7476 -0.8184  0.9414
 5423TIP3   OH237903   4.777   0.682   7.184  0.6898  0.0069 -0.9283
 5423TIP3    H137904   4.866   0.681   7.148 -0.1473 -1.6652 -3.2095
 5423TIP3    H237905   4.724   0.723   7.115 -0.3103  1.3723  0.5651
 5424TIP3   OH237906   0.410   4.709   7.137 -0.3195  0.3594 -0.1274
 5424TIP3    H137907   0.319   4.689   7.115 -1.0937  2.0114  1.3421
 5424TIP3    H237908   0.427   4.793   7.095 -0.4770  1.4991  1.9429
 5425TIP3   OH237909   4.920   5.905   1.092  0.6592  0.4769 -0.3376
 5425TIP3    H137910   4.979   5.935   1.162  1.5829 -1.5114 -0.2015
 5425TIP3    H237911   4.833   5.932   1.121  1.1368  0.5653  1.1041
 5426TIP3   OH237912   1.537   1.771   0.476  0.0429 -0.0616  0.1011
 5426TIP3    H137913   1.511   1.710   0.545 -0.4149  0.9594  0.8547
 5426TIP3    H237914   1.479   1.752   0.403  1.4900 -2.1530 -0.5878
 5427TIP3   OH237915   2.473   4.119   0.140  0.2600  0.4440  0.0702
 5427TIP3    H137916   2.424   4.145   0.063 -0.7184 -0.3259  0.4184
 5427TIP3    H237917   2.407   4.089   0.202  1.0473  0.8304  1.1282
 5428TIP3   OH237918   2.136   5.878   8.159  0.2036  0.4449  0.4506
 5428TIP3    H137919   2.078   5.925   8.219 -0.8844 -1.7698  1.2509
 5428TIP3    H237920   2.079   5.812   8.117  1.5324  0.1353 -0.9788
 5429TIP3   OH237921   3.094   5.549   7.850  0.0643  0.2531  0.2177
 5429TIP3    H137922   3.154   5.515   7.917  1.4150  0.9707 -0.5760
 5429TIP3    H237923   3.009   5.512   7.872  1.1853 -2.6259  0.1190
 5430TIP3   OH237924   2.284   5.466   7.104 -0.4655 -0.9092  0.2067
 5430TIP3    H137925   2.194   5.476   7.134 -0.1686 -0.1621  0.8844
 5430TIP3    H237926   2.292   5.529   7.033 -0.6418 -1.3868 -0.2394
 5431TIP3   OH237927   4.063   6.893   6.660  0.7932  0.2885 -0.1108
 5431TIP3    H137928   4.080   6.965   6.600 -1.0843  0.0999 -0.9570
 5431TIP3    H237929   4.090   6.815   6.612 -1.5401  0.0519 -1.1771
 5432TIP3   OH237930   0.218   5.329   7.974  0.2954  0.2007 -0.4046
 5432TIP3    H137931   0.260   5.266   8.034  0.1446 -0.4915 -1.0130
 5432TIP3    H237932   0.272   5.408   7.981  1.3839 -0.4882 -0.7464
 5433TIP3   OH237933   2.652   2.693   0.725  0.1694  0.1236  0.6301
 5433TIP3    H137934   2.576   2.747   0.749 -0.8340 -0.5969 -0.7584
 5433TIP3    H237935   2.706   2.751   0.671 -0.5994 -0.0673 -0.3557
 5434TIP3   OH237936   0.276   5.127   1.602  0.4329  0.4090  0.5066
 5434TIP3    H137937   0.250   5.058   1.664 -0.5232  0.4492  0.1733
 5434TIP3    H237938   0.361   5.098   1.568  1.2739  0.6802  2.2459
 5435TIP3   OH237939   5.036   0.721   7.116  0.3224  0.4536  0.2073
 5435TIP3    H137940   5.113   0.665   7.108 -0.0868 -0.0027 -0.7024
 5435TIP3    H237941   4.997   0.721   7.029 -1.8781 -1.0263  1.0972
 5436TIP3   OH237942   0.671   4.576   1.299  0.5322 -0.6109 -0.7500
 5436TIP3    H137943   0.672   4.515   1.225  0.2519 -0.9063 -0.5152
 5436TIP3    H237944   0.579   4.604   1.305  0.6650 -0.1387 -0.8758
 5437TIP3   OH237945   3.524   1.571   1.659  0.1454  0.0774 -0.0381
 5437TIP3    H137946   3.604   1.559   1.710  1.1155  0.5703 -1.3757
 5437TIP3    H237947   3.504   1.483   1.625  0.8704  0.1674 -0.7366
 5438TIP3   OH237948   3.885   1.256   8.429 -0.1779  0.0296  0.1396
 5438TIP3    H137949   3.934   1.174   8.420 -3.2420 -1.8876 -0.6844
 5438TIP3    H237950   3.830   1.242   8.506  0.0663  1.8727  0.7037
 5439TIP3   OH237951   6.302   1.673   0.100 -0.2549  0.1525  0.5022
 5439TIP3    H137952   6.315   1.580   0.117 -0.0300  0.1074  0.0860
 5439TIP3    H237953   6.388   1.713   0.116 -0.0491  0.1134 -0.4948
 5440TIP3   OH237954   1.567   4.984   7.683  0.0103  0.0966  0.1739
 5440TIP3    H137955   1.637   5.033   7.728  0.0126 -0.3740  0.6892
 5440TIP3    H237956   1.507   5.052   7.652 -1.3222  0.3829  3.0404
 5441TIP3   OH237957   1.221   5.173   0.232  0.4537  0.7913  0.0793
 5441TIP3    H137958   1.232   5.083   0.202 -0.3618  0.7450 -0.1170
 5441TIP3    H237959   1.131   5.176   0.265  0.1592  1.7800 -0.7684
 5442TIP3   OH237960   2.687   6.753   1.454 -0.2143  0.6013  0.1283
 5442TIP3    H137961   2.714   6.722   1.541 -0.6102 -0.4052 -0.0986
 5442TIP3    H237962   2.597   6.783   1.467 -1.3887 -2.2964 -0.4997
 5443TIP3   OH237963   3.477   0.964   7.109 -0.0825 -0.0253  0.0421
 5443TIP3    H137964   3.434   0.937   7.190  0.6551  0.5863  0.6523
 5443TIP3    H237965   3.407   0.999   7.055 -0.2740  1.8025  1.3766
 5444TIP3   OH237966   5.211   1.716   7.656 -0.1051 -0.0198 -0.4895
 5444TIP3    H137967   5.118   1.695   7.654  0.0877 -0.8312 -1.7355
 5444TIP3    H237968   5.248   1.669   7.581  1.4493 -0.4160  0.4727
 5445TIP3   OH237969   4.280   4.629   7.210  0.0461 -0.5538 -0.2008
 5445TIP3    H137970   4.194   4.641   7.248  0.6949  0.7524  0.9017
 5445TIP3    H237971   4.326   4.570   7.271 -0.3451 -2.0548 -1.2829
 5446TIP3   OH237972   1.701   3.133   0.112 -0.5881 -0.4015 -0.5583
 5446TIP3    H137973   1.754   3.136   0.033  1.0618 -1.6095  0.4204
 5446TIP3    H237974   1.764   3.120   0.183 -2.0160  0.4234  0.9570
 5447TIP3   OH237975   0.141   5.328   1.020  0.4329 -0.0526  0.1544
 5447TIP3    H137976   0.123   5.421   1.009 -0.6073 -0.3698 -1.1216
 5447TIP3    H237977   0.111   5.308   1.108  0.8808  0.8463  0.5293
 5448TIP3   OH237978   3.247   3.660   7.719  0.6464  0.7273  0.4174
 5448TIP3    H137979   3.162   3.619   7.698  1.1684  0.1784 -0.7229
 5448TIP3    H237980   3.254   3.652   7.814  0.9673 -2.4380  0.2441
 5449TIP3   OH237981   4.367   6.735   1.707 -0.1460 -0.6467  0.7764
 5449TIP3    H137982   4.390   6.642   1.704  2.6569 -0.0466  0.6417
 5449TIP3    H237983   4.421   6.770   1.778 -0.7405  0.9752  0.4564
 5450TIP3   OH237984   0.384   2.359   1.022  0.0765  0.8146 -0.2955
 5450TIP3    H137985   0.337   2.398   0.949 -2.1212 -0.5173  0.3187
 5450TIP3    H237986   0.349   2.404   1.099 -0.5526 -0.4989  0.2093
 5451TIP3   OH237987   5.062   1.144   6.978  0.0865  0.4597 -0.9995
 5451TIP3    H137988   5.075   1.084   6.905  0.9461 -0.3489 -0.2178
 5451TIP3    H237989   5.139   1.131   7.033 -0.2091  1.5501 -0.2902
 5452TIP3   OH237990   5.320   6.001   1.203  0.1258 -0.4544  0.3988
 5452TIP3    H137991   5.227   6.001   1.226  0.0006 -1.1431 -0.0763
 5452TIP3    H237992   5.322   5.986   1.108  0.6777  1.0886  0.1471
 5453TIP3   OH237993   1.028   1.068   7.112  0.8146 -0.6713  0.1805
 5453TIP3    H137994   1.067   1.148   7.147  1.6913 -1.1655  0.3711
 5453TIP3    H237995   1.102   1.021   7.072  0.4825 -1.7742  0.8150
 5454TIP3   OH237996   0.369   2.044   0.479 -0.0098 -0.6830  0.3706
 5454TIP3    H137997   0.308   2.108   0.515  1.4028  0.5688  0.6558
 5454TIP3    H237998   0.372   1.975   0.544  1.5886  0.9844  2.2070
 5455TIP3   OH237999   0.263   5.735   7.047  0.1939 -0.1661 -0.4157
 5455TIP3    H138000   0.223   5.822   7.040  0.4512 -0.1715 -3.2581
 5455TIP3    H238001   0.189   5.675   7.058 -0.2063  0.2336 -0.8451
 5456TIP3   OH238002   5.026   6.584   6.972  0.3497  0.6594  0.4935
 5456TIP3    H138003   5.003   6.500   7.012  0.4442  0.5615  0.3420
 5456TIP3    H238004   5.076   6.561   6.894 -0.2607  0.8391  0.0452
 5457TIP3   OH238005   4.552   1.758   8.284 -0.0421  0.1118  0.6937
 5457TIP3    H138006   4.459   1.740   8.295 -0.5969  1.0425 -1.7777
 5457TIP3    H238007   4.591   1.674   8.263 -0.5569 -0.0538  0.3951
 5458TIP3   OH238008   0.692   0.405   0.314  0.1877 -0.0311  0.2013
 5458TIP3    H138009   0.769   0.427   0.262 -1.5287  2.4061 -1.5288
 5458TIP3    H238010   0.706   0.314   0.341  2.7095 -0.3079 -1.7277
 5459TIP3   OH238011   4.102   1.988   1.111 -0.3033  0.7236  0.4101
 5459TIP3    H138012   4.036   1.920   1.095  2.1727 -2.1917  1.5298
 5459TIP3    H238013   4.127   2.018   1.024  1.4039 -2.9808 -0.6121
 5460TIP3   OH238014   4.694   3.638   1.326  0.1212  0.0564  0.4265
 5460TIP3    H138015   4.657   3.645   1.414 -2.0646  1.2721 -0.5193
 5460TIP3    H238016   4.762   3.706   1.323 -0.5268  0.7316  0.8445
 5461TIP3   OH238017   1.995   0.046   7.230  0.0049 -0.4156 -0.2167
 5461TIP3    H138018   1.993  -0.039   7.274  2.5551 -0.2395  0.4042
 5461TIP3    H238019   2.039   0.029   7.147  1.3499  0.3923  0.2931
 5462TIP3   OH238020   2.261   2.285   7.666  0.0606 -0.3087 -0.5117
 5462TIP3    H138021   2.231   2.242   7.746  2.9201  1.4654  1.7327
 5462TIP3    H238022   2.213   2.368   7.663 -0.1565 -0.4421 -0.7138
 5463TIP3   OH238023   6.736   2.132   6.590 -0.0398 -0.2744  0.5821
 5463TIP3    H138024   6.676   2.172   6.527 -1.5130 -1.6977  1.0198
 5463TIP3    H238025   6.725   2.184   6.670  1.1173  0.9334 -0.0028
 5464TIP3   OH238026   3.222   0.873   1.840 -0.0810 -0.0933  0.1741
 5464TIP3    H138027   3.244   0.792   1.887 -2.6289 -0.2247  1.3114
 5464TIP3    H238028   3.262   0.942   1.893 -0.7896 -0.4191  1.1702
 5465TIP3   OH238029   4.827   5.008   2.225  0.4684 -0.0986 -0.4505
 5465TIP3    H138030   4.847   4.918   2.252  1.2037 -0.8627 -3.1939
 5465TIP3    H238031   4.885   5.063   2.277  0.1603 -1.1788  1.1208
 5466TIP3   OH238032   6.503   1.216   6.644  0.1068 -0.1110 -0.1808
 5466TIP3    H138033   6.550   1.133   6.651 -0.0454 -0.4022 -2.2331
 5466TIP3    H238034   6.486   1.227   6.551 -0.8434  1.7047  0.1596
 5467TIP3   OH238035   0.303   2.524   1.260  0.1389 -0.4988  0.1639
 5467TIP3    H138036   0.303   2.450   1.320  1.7388 -0.3608  0.3672
 5467TIP3    H238037   0.309   2.601   1.316 -0.0550 -0.2800 -0.1105
 5468TIP3   OH238038   5.776   6.066   2.319  0.2477 -0.1444 -0.0270
 5468TIP3    H138039   5.713   6.123   2.274 -0.0379 -0.3942  0.0611
 5468TIP3    H238040   5.861   6.105   2.298  0.0969 -0.0752 -0.5276
 5469TIP3   OH238041   3.977   6.403   1.118  0.3811  0.5466  0.2894
 5469TIP3    H138042   4.038   6.457   1.068  1.1751 -0.8203 -0.2722
 5469TIP3    H238043   3.975   6.443   1.205 -0.0602  2.2254 -0.4541
 5470TIP3   OH238044   6.456   5.167   1.250 -0.3224 -0.1482 -0.5091
 5470TIP3    H138045   6.523   5.217   1.203  0.0960  0.0131  0.2396
 5470TIP3    H238046   6.443   5.216   1.331 -0.1920 -1.0473  0.0653
 5471TIP3   OH238047   4.562   5.534   7.347 -0.2084 -0.3102 -0.3438
 5471TIP3    H138048   4.552   5.507   7.255  1.5575  0.1865 -0.7264
 5471TIP3    H238049   4.655   5.526   7.364 -0.3127  0.9113  1.0049
 5472TIP3   OH238050   6.660   4.620   7.291 -0.4643 -0.0547 -0.4110
 5472TIP3    H138051   6.707   4.702   7.277  3.1421 -1.3892  2.3029
 5472TIP3    H238052   6.655   4.611   7.386 -1.4233 -2.6249 -0.6068
 5473TIP3   OH238053   1.414   0.852   6.390 -0.2126 -0.8060  0.1525
 5473TIP3    H138054   1.396   0.761   6.367 -0.6557 -0.4629 -0.9341
 5473TIP3    H238055   1.478   0.881   6.325 -1.2724  0.1146 -0.5117
 5474TIP3   OH238056   4.827   2.601   7.675 -0.0308 -0.0869 -0.4689
 5474TIP3    H138057   4.815   2.616   7.769 -0.7758 -1.6564 -0.2903
 5474TIP3    H238058   4.745   2.561   7.647  0.5518 -0.5109 -1.6093
 5475TIP3   OH238059   4.644   5.249   7.659  0.3413 -0.8633  0.0629
 5475TIP3    H138060   4.715   5.227   7.599  1.3185 -1.4063  1.3620
 5475TIP3    H238061   4.593   5.168   7.666  0.1156 -0.7419 -0.1919
 5476TIP3   OH238062   3.358   2.176   1.484  0.2294 -0.1905 -0.5280
 5476TIP3    H138063   3.397   2.112   1.424  1.4479  0.4721 -0.4655
 5476TIP3    H238064   3.280   2.132   1.517 -0.3379 -0.6741 -2.3831
 5477TIP3   OH238065   6.823   0.986   7.323  0.5094 -0.3335  0.1024
 5477TIP3    H138066   6.878   0.912   7.296  1.1438  0.6709 -1.5199
 5477TIP3    H238067   6.841   1.053   7.258 -0.1100  1.2390  1.4903
 5478TIP3   OH238068   5.423   4.118   6.641  0.0748 -0.4646  0.2404
 5478TIP3    H138069   5.408   4.212   6.624 -1.4323 -0.8223 -0.6449
 5478TIP3    H238070   5.423   4.111   6.736 -0.5728  0.3562  0.3217
 5479TIP3   OH238071   3.947   5.760   0.901 -0.1914  0.1472  0.4862
 5479TIP3    H138072   4.024   5.815   0.893 -1.4431  1.9845  0.5266
 5479TIP3    H238073   3.965   5.705   0.978  1.4501 -0.1665 -0.0792
 5480TIP3   OH238074   3.812   6.567   0.729  0.1120 -0.2680  0.4693
 5480TIP3    H138075   3.778   6.532   0.811  0.4631  2.2708  1.8152
 5480TIP3    H238076   3.880   6.629   0.756 -0.0914  1.0052 -1.6961
 5481TIP3   OH238077   1.418   4.932   0.413  0.0129  0.1192 -0.4491
 5481TIP3    H138078   1.427   5.008   0.471 -2.9457 -0.5300  1.0088
 5481TIP3    H238079   1.327   4.933   0.386 -0.7526 -4.0130  1.2882
 5482TIP3   OH238080   4.365   3.733   7.167 -0.2632 -0.3117  0.1573
 5482TIP3    H138081   4.315   3.736   7.085 -0.6464 -0.3531  0.3885
 5482TIP3    H238082   4.300   3.745   7.235  0.1806  0.7322  0.4189
 5483TIP3   OH238083   1.336   1.532   1.119  0.4862  0.0559 -0.2181
 5483TIP3    H138084   1.343   1.618   1.161  3.3901 -0.1315 -0.1022
 5483TIP3    H238085   1.334   1.470   1.192 -1.4499 -0.0601 -0.3064
 5484TIP3   OH238086   2.560   0.398   7.564  0.1350 -0.1995 -0.3220
 5484TIP3    H138087   2.580   0.306   7.544 -0.9120 -0.4928 -0.0414
 5484TIP3    H238088   2.469   0.398   7.593  0.5454  0.7317  1.0712
 5485TIP3   OH238089   2.888   4.203   6.062 -0.0518  0.3225  0.5412
 5485TIP3    H138090   2.926   4.115   6.069  1.2050  0.6262 -1.4306
 5485TIP3    H238091   2.798   4.193   6.091 -0.3266 -1.9337 -0.8383
 5486TIP3   OH238092   0.737   5.831   7.781 -0.8171 -0.5028 -0.1291
 5486TIP3    H138093   0.693   5.915   7.771 -0.1200  0.0700  1.3664
 5486TIP3    H238094   0.668   5.766   7.765 -2.5858  0.3474  3.0343
 5487TIP3   OH238095   2.188   0.689   0.961 -0.0163  0.2348 -0.6143
 5487TIP3    H138096   2.143   0.642   0.890 -0.2590 -0.6356  0.0962
 5487TIP3    H238097   2.200   0.623   1.029  0.8690  0.8788 -0.1289
 5488TIP3   OH238098   5.865   3.764   7.829 -0.3210 -0.1412  0.7779
 5488TIP3    H138099   5.941   3.719   7.865 -0.8301 -0.6442  1.2464
 5488TIP3    H238100   5.896   3.853   7.810  0.9990 -0.9380 -1.1394
 5489TIP3   OH238101   6.052   2.051   1.920 -0.1409  0.6221  0.6466
 5489TIP3    H138102   6.144   2.042   1.947  1.0794  0.9219 -2.7710
 5489TIP3    H238103   6.012   1.968   1.942  0.5301  0.9161  3.3545
 5490TIP3   OH238104   5.736   6.814   2.375 -0.3305 -0.4480  0.1401
 5490TIP3    H138105   5.763   6.898   2.340 -0.7651 -0.7351 -0.9267
 5490TIP3    H238106   5.642   6.810   2.359 -0.5909 -0.5116  1.5461
 5491TIP3   OH238107   2.127   2.351   1.611  0.2543 -0.0222  0.6557
 5491TIP3    H138108   2.114   2.290   1.538 -0.1884  0.3655  0.4049
 5491TIP3    H238109   2.117   2.438   1.572  1.1532  0.2226  0.9558
 5492TIP3   OH238110   3.011   3.829   1.198 -0.0196  0.3090  0.6693
 5492TIP3    H138111   3.028   3.851   1.107  0.3889  1.7696  1.0634
 5492TIP3    H238112   3.091   3.856   1.244 -0.6838  0.7487  1.6058
 5493TIP3   OH238113   1.788   6.150   1.411  0.0284 -0.1115  0.0373
 5493TIP3    H138114   1.879   6.162   1.438 -0.2799  1.7497  0.4060
 5493TIP3    H238115   1.744   6.230   1.440 -2.2371 -1.9112  1.9545
 5494TIP3   OH238116   3.457   0.303   0.278 -0.2449  0.5029  0.1037
 5494TIP3    H138117   3.549   0.319   0.300  0.0025  0.9854 -1.1911
 5494TIP3    H238118   3.452   0.318   0.183 -1.2961 -1.2211 -0.1530
 5495TIP3   OH238119   0.510   5.438   8.177 -0.9637 -0.1885 -0.1161
 5495TIP3    H138120   0.565   5.393   8.113 -0.6344 -1.0546  0.7455
 5495TIP3    H238121   0.570   5.498   8.221 -1.5080  1.5076 -1.6014
 5496TIP3   OH238122   1.633   5.808   7.581  0.3601 -0.9454  0.7937
 5496TIP3    H138123   1.573   5.810   7.656  1.1112  0.0307  1.3836
 5496TIP3    H238124   1.720   5.812   7.620  0.7796 -1.0445 -0.1176
 5497TIP3   OH238125   2.121   5.563   6.845  0.0444  0.9899  0.0787
 5497TIP3    H138126   2.115   5.541   6.752  1.3966  1.3187 -0.1167
 5497TIP3    H238127   2.046   5.519   6.886 -1.0170  1.5032 -1.2723
 5498TIP3   OH238128   3.696   0.556   7.049 -0.1100 -0.3374  0.0546
 5498TIP3    H138129   3.695   0.641   7.005 -0.7371 -0.3659  0.0034
 5498TIP3    H238130   3.638   0.568   7.124  1.7640  0.0438  1.5265
 5499TIP3   OH238131   4.134   4.998   0.116 -0.1268 -0.0322  0.0365
 5499TIP3    H138132   4.052   5.040   0.091  0.1156  0.6525  0.3635
 5499TIP3    H238133   4.146   4.928   0.052 -0.8388  0.0161 -0.1600
 5500TIP3   OH238134   5.762   4.269   6.814  0.2344  0.1303 -0.1133
 5500TIP3    H138135   5.678   4.233   6.843 -0.3504  1.1407 -0.5038
 5500TIP3    H238136   5.810   4.193   6.781 -0.3414 -0.5293  0.5365
 5501TIP3   OH238137   2.325   2.002   7.008  0.3616  0.1297  0.3853
 5501TIP3    H138138   2.420   2.005   7.004  0.4054 -1.2724 -1.9659
 5501TIP3    H238139   2.304   2.001   7.101  2.3830  4.0938  1.1034
 5502TIP3   OH238140   2.956   1.936   0.118 -0.0450 -0.3344 -0.0705
 5502TIP3    H138141   3.036   1.968   0.078  1.1019 -2.0830  0.7097
 5502TIP3    H238142   2.983   1.906   0.205 -2.2727  2.5614  1.7888
 5503TIP3   OH238143   4.319   5.051   6.673  0.1404  0.3839 -0.4161
 5503TIP3    H138144   4.373   5.009   6.740 -3.4504  1.2776  3.5007
 5503TIP3    H238145   4.350   5.142   6.672  0.9206  0.1236 -0.8263
 5504TIP3   OH238146   1.521   2.655   1.220 -0.1031 -0.5854  0.1173
 5504TIP3    H138147   1.442   2.651   1.274 -1.6452  0.9357 -1.8651
 5504TIP3    H238148   1.508   2.585   1.155 -0.8382  0.8846 -1.3934
 5505TIP3   OH238149   3.959   1.942   7.790 -0.3235  0.2477 -0.7283
 5505TIP3    H138150   3.914   1.858   7.800  0.7854 -0.5165 -1.7896
 5505TIP3    H238151   3.906   1.991   7.727 -0.8203  0.2374 -0.3245
 5506TIP3   OH238152   0.833   3.864   0.832  0.8221  0.1946  0.2957
 5506TIP3    H138153   0.834   3.823   0.918  0.7705  0.0649  0.2356
 5506TIP3    H238154   0.925   3.882   0.812  0.7436  1.3747  0.9176
 5507TIP3   OH238155   3.072   1.935   7.429 -0.0740  0.2706  0.8788
 5507TIP3    H138156   3.151   1.881   7.431  0.4024  0.9033 -0.0815
 5507TIP3    H238157   3.029   1.917   7.513 -0.9530 -3.0159 -0.1261
 5508TIP3   OH238158   5.146   6.157   1.579 -0.4679 -0.3294  0.1080
 5508TIP3    H138159   5.075   6.097   1.603  0.3866 -1.8991 -1.1302
 5508TIP3    H238160   5.223   6.101   1.573  0.7524  1.2359  0.7452
 5509TIP3   OH238161   2.032   1.783   1.915  0.1039  0.3354  0.0049
 5509TIP3    H138162   1.989   1.747   1.838  0.6602 -1.3800  0.4563
 5509TIP3    H238163   2.123   1.799   1.888 -0.0353  1.0435 -0.0717
 5510TIP3   OH238164   6.277   4.126   6.434  0.5355 -0.0521  0.3782
 5510TIP3    H138165   6.332   4.051   6.458 -0.2391 -0.1509  2.0006
 5510TIP3    H238166   6.339   4.196   6.413  1.2632 -0.6651  0.4216
 5511TIP3   OH238167   2.819   2.467   0.481  0.3919 -0.0190 -0.3070
 5511TIP3    H138168   2.883   2.447   0.549  0.1819  0.1402 -0.0578
 5511TIP3    H238169   2.823   2.563   0.472  0.4596 -0.0458 -0.5584
 5512TIP3   OH238170   3.050   2.920   0.123 -0.2104 -0.1340  0.1608
 5512TIP3    H138171   3.024   2.833   0.154  1.4687  0.0249  2.2372
 5512TIP3    H238172   3.011   2.981   0.186  0.5234  0.4376  0.0864
 5513TIP3   OH238173   0.974   2.819   7.344  0.3788 -0.7181 -0.0109
 5513TIP3    H138174   1.019   2.812   7.428  0.7263  1.0406 -0.0187
 5513TIP3    H238175   0.882   2.804   7.365  0.3766  0.3226  0.8147
 5514TIP3   OH238176   5.517   4.222   0.247  0.1427  0.2695 -0.6302
 5514TIP3    H138177   5.601   4.175   0.245  0.8221  1.3042  1.4049
 5514TIP3    H238178   5.452   4.154   0.232  1.2426 -0.8494 -0.5724
 5515TIP3   OH238179   3.264   5.489   8.390 -0.1622 -0.3527 -0.4355
 5515TIP3    H138180   3.267   5.400   8.357  0.4839 -0.3655 -0.3542
 5515TIP3    H238181   3.354   5.522   8.379 -0.6621  0.7143 -1.6590
 5516TIP3   OH238182   1.847   3.594   0.856  0.3497  0.7492  0.5537
 5516TIP3    H138183   1.821   3.521   0.912 -0.3683 -0.0342 -0.7597
 5516TIP3    H238184   1.923   3.632   0.900  0.9153 -0.9621  1.1101
 5517TIP3   OH238185   3.334   1.137   0.686 -0.4655  0.3425 -0.3257
 5517TIP3    H138186   3.409   1.180   0.645 -0.9220  0.2352 -1.3051
 5517TIP3    H238187   3.264   1.203   0.681  0.1724  1.4765  2.9257
 5518TIP3   OH238188   5.529   1.563   1.063 -0.1432 -0.1771 -0.2797
 5518TIP3    H138189   5.623   1.551   1.079 -0.3828 -1.0829  0.5315
 5518TIP3    H238190   5.515   1.658   1.073  0.8503  0.1058 -1.4222
 5519TIP3   OH238191   2.573   4.355   0.758  0.4506  0.3196  0.2711
 5519TIP3    H138192   2.633   4.284   0.779 -0.3470 -0.8142 -1.1154
 5519TIP3    H238193   2.612   4.397   0.681 -0.3530 -0.2595 -0.4755
 5520TIP3   OH238194   2.440   3.285   6.996  0.0019  0.1641  0.3479
 5520TIP3    H138195   2.426   3.275   6.902  0.4164  2.9557 -0.0998
 5520TIP3    H238196   2.374   3.348   7.024  1.2229  1.0009  1.4713
 5521TIP3   OH238197   2.171   6.744   0.545  0.6877  0.1928 -0.4568
 5521TIP3    H138198   2.223   6.806   0.494 -1.9132  0.9921 -2.3356
 5521TIP3    H238199   2.206   6.658   0.523  2.1069  0.7669 -0.5184
 5522TIP3   OH238200   1.833   5.700   6.992  0.1946 -0.1486  0.3247
 5522TIP3    H138201   1.847   5.638   6.921 -0.6512  1.1183 -1.0076
 5522TIP3    H238202   1.911   5.757   6.990  0.6384 -0.7029  1.0883
 5523TIP3   OH238203   1.544   2.381   1.089 -0.5498 -0.9339  0.0965
 5523TIP3    H138204   1.594   2.304   1.117 -0.2700 -1.6535 -2.1498
 5523TIP3    H238205   1.533   2.368   0.995 -0.2075  1.9611 -0.4226
 5524TIP3   OH238206   3.453   1.310   1.592 -0.2795 -0.8560  0.2440
 5524TIP3    H138207   3.448   1.280   1.683 -0.0204 -1.2556  0.1298
 5524TIP3    H238208   3.510   1.246   1.549 -0.6959 -0.8779 -0.2839
 5525TIP3   OH238209   0.433   6.760   7.562  0.4229  0.3640 -0.1902
 5525TIP3    H138210   0.370   6.796   7.625  0.7708 -0.8338  0.9011
 5525TIP3    H238211   0.492   6.708   7.616  1.8227  0.7344 -1.3106
 5526TIP3   OH238212   5.577   1.248   0.349 -0.4585  0.2584 -0.0227
 5526TIP3    H138213   5.589   1.343   0.356  0.2693  0.7498 -4.6687
 5526TIP3    H238214   5.628   1.212   0.421 -0.2658  3.3192  1.5449
 5527TIP3   OH238215   3.903   1.029   7.826  0.4069  0.0313  0.3058
 5527TIP3    H138216   3.922   1.080   7.904 -2.1747 -0.6016  1.4340
 5527TIP3    H238217   3.955   0.949   7.836  2.8862  1.4333 -0.4881
 5528TIP3   OH238218   5.353   4.233   7.321 -0.0380  0.2173  0.1737
 5528TIP3    H138219   5.414   4.195   7.384 -1.3071 -0.9702  0.7311
 5528TIP3    H238220   5.344   4.165   7.253  0.5742  1.0963 -0.8221
 5529TIP3   OH238221   5.460   0.144   0.649  0.0849 -0.0111  0.0548
 5529TIP3    H138222   5.468   0.140   0.744  0.6007  0.9447  0.0663
 5529TIP3    H238223   5.512   0.071   0.616  3.4091  2.0189  0.3827
 5530TIP3   OH238224   4.885   3.344   7.194  0.2943 -0.0419 -0.0900
 5530TIP3    H138225   4.955   3.279   7.194 -1.1097 -1.6759  1.7666
 5530TIP3    H238226   4.918   3.415   7.249  0.2984 -1.0710  1.2830
 5531TIP3   OH238227   5.412   0.614   1.207  0.0097  0.3815  0.3793
 5531TIP3    H138228   5.348   0.671   1.164 -0.6582 -0.5320  0.1263
 5531TIP3    H238229   5.489   0.669   1.219  0.5531  0.4740 -2.7687
 5532TIP3   OH238230   0.922   6.685   0.231 -0.0268 -1.1281  0.1800
 5532TIP3    H138231   0.991   6.630   0.192 -0.0208  0.4297 -2.2326
 5532TIP3    H238232   0.841   6.654   0.191 -0.1725 -0.2329 -0.2452
 5533TIP3   OH238233   6.474   4.155   6.693 -0.6818 -0.0051 -0.0489
 5533TIP3    H138234   6.551   4.135   6.640 -0.8057 -0.0590 -0.2097
 5533TIP3    H238235   6.483   4.248   6.712  0.0732 -0.2743  0.9917
 5534TIP3   OH238236   0.440   6.270   1.321 -0.0495 -0.4512  0.2418
 5534TIP3    H138237   0.467   6.349   1.368  0.5555 -0.2255 -0.4681
 5534TIP3    H238238   0.401   6.214   1.389  2.1878 -0.7898  1.3192
 5535TIP3   OH238239   3.338   3.000   7.537 -0.6122  0.4529 -0.2000
 5535TIP3    H138240   3.398   2.925   7.544  0.1206  0.9224 -1.2319
 5535TIP3    H238241   3.394   3.074   7.516 -1.4300  1.1384 -0.0263
 5536TIP3   OH238242   1.412   2.935   8.401 -0.0127 -0.4217  0.0261
 5536TIP3    H138243   1.394   2.890   8.318 -0.0334 -0.8168  0.2447
 5536TIP3    H238244   1.407   2.866   8.467 -1.4162  0.1471  0.5354
 5537TIP3   OH238245   6.142   1.365   8.563 -0.0468  0.2033  0.1372
 5537TIP3    H138246   6.054   1.374   8.526 -0.3661 -1.9807  0.2313
 5537TIP3    H238247   6.201   1.393   8.493 -0.6745 -2.9806 -1.8504
 5538TIP3   OH238248   3.232   1.620   1.353 -0.3585  0.5815 -0.3483
 5538TIP3    H138249   3.183   1.647   1.276  0.4734 -2.0689 -1.9668
 5538TIP3    H238250   3.209   1.527   1.364 -0.2719  0.8018  2.5117
 5539TIP3   OH238251   5.836   1.781   8.134  0.1645  0.4050  0.2538
 5539TIP3    H138252   5.763   1.724   8.109 -0.7159  1.8747 -0.6545
 5539TIP3    H238253   5.844   1.770   8.229  0.6306 -1.8774  0.0246
 5540TIP3   OH238254   5.900   1.947   0.117 -0.3999  0.2019 -0.0617
 5540TIP3    H138255   5.865   1.981   0.035  0.7248  2.2335  0.2479
 5540TIP3    H238256   5.985   1.910   0.094  0.3907  1.7192  0.3139
 5541TIP3   OH238257   6.802   6.093   0.432 -0.1518  0.3066  0.0238
 5541TIP3    H138258   6.844   6.160   0.377 -1.2896  0.4249 -0.7375
 5541TIP3    H238259   6.768   6.029   0.369 -0.1947 -0.3285  0.6862
 5542TIP3   OH238260   1.545   0.079   7.888 -0.3712  0.1651 -0.0777
 5542TIP3    H138261   1.449   0.085   7.889 -0.3933 -0.1508 -0.3937
 5542TIP3    H238262   1.568   0.079   7.795 -0.0352  0.6753 -0.0015
 5543TIP3   OH238263   5.523   0.310   8.363 -0.0070 -0.0622  0.4323
 5543TIP3    H138264   5.460   0.239   8.376 -0.8816  0.8427  1.2969
 5543TIP3    H238265   5.578   0.307   8.441  0.9792 -0.7643 -0.2584
 5544TIP3   OH238266   2.751   6.512   7.421 -0.6044 -0.3855 -0.4888
 5544TIP3    H138267   2.812   6.445   7.451  0.0826  0.6168  0.4878
 5544TIP3    H238268   2.806   6.589   7.407 -1.7721  1.1179  2.2166
 5545TIP3   OH238269   5.249   2.549   7.525  0.1177  0.2266  0.0115
 5545TIP3    H138270   5.260   2.626   7.468 -0.5132  0.9171  0.8028
 5545TIP3    H238271   5.202   2.582   7.602 -0.3017 -0.9894  0.3007
 5546TIP3   OH238272   0.785   3.414   1.483  0.0240  0.4942  0.0778
 5546TIP3    H138273   0.816   3.489   1.534  1.5265  0.0206 -0.0865
 5546TIP3    H238274   0.805   3.338   1.538  0.0514  0.1013 -0.4679
 5547TIP3   OH238275   0.628   4.066   8.557 -0.9060  0.4949 -0.1400
 5547TIP3    H138276   0.709   4.031   8.594 -0.5653 -0.6094 -1.8240
 5547TIP3    H238277   0.583   4.106   8.632 -0.1841 -1.4824  1.4444
 5548TIP3   OH238278   2.226   3.051   6.647  0.2614  0.0814 -0.6764
 5548TIP3    H138279   2.173   3.119   6.607 -1.3149  1.5943  3.5265
 5548TIP3    H238280   2.316   3.083   6.639 -0.4040  2.5838  0.8159
 5549TIP3   OH238281   5.361   6.674   0.281 -0.0031 -0.8561 -0.4339
 5549TIP3    H138282   5.313   6.656   0.362  1.9161  0.4492  1.1093
 5549TIP3    H238283   5.313   6.747   0.241 -0.7214 -1.2175 -0.2387
 5550TIP3   OH238284   6.036   3.528   7.565 -0.6120 -0.0746 -0.3393
 5550TIP3    H138285   6.084   3.496   7.489  2.5134 -1.9523  2.1750
 5550TIP3    H238286   6.088   3.602   7.597 -1.7706  0.5813  0.0940
 5551TIP3   OH238287   2.557   5.917   0.571  0.0751  0.3615 -0.4139
 5551TIP3    H138288   2.533   6.007   0.595 -1.7022  0.1203 -1.1338
 5551TIP3    H238289   2.590   5.879   0.652 -0.4598  1.2522  0.2466
 5552TIP3   OH238290   4.214   2.090   7.238  0.2543 -0.1015 -0.2251
 5552TIP3    H138291   4.237   2.055   7.153  1.0311  0.7199 -0.3697
 5552TIP3    H238292   4.145   2.032   7.270  0.4845 -0.8676 -1.0715
 5553TIP3   OH238293   4.084   2.018   0.424 -0.2266 -0.0134  0.0189
 5553TIP3    H138294   4.094   1.952   0.355 -2.1876  0.4359 -0.7505
 5553TIP3    H238295   3.997   2.054   0.410 -0.2618  0.8299  2.1243
 5554TIP3   OH238296   3.001   1.152   8.382  0.2700  0.7780  0.1521
 5554TIP3    H138297   2.990   1.128   8.474 -0.7123 -0.5114 -0.2689
 5554TIP3    H238298   3.092   1.130   8.362  0.4549  0.9630  0.7734
 5555TIP3   OH238299   2.981   6.259   0.192  0.6054  0.1502  0.7917
 5555TIP3    H138300   2.951   6.176   0.228  3.3868 -1.0980  0.4819
 5555TIP3    H238301   3.057   6.283   0.245  0.4141  2.0583  0.2921
 5556TIP3   OH238302   6.751   4.472   7.068 -0.5248 -0.0211 -0.5812
 5556TIP3    H138303   6.689   4.403   7.045 -0.8325  0.3169 -0.7832
 5556TIP3    H238304   6.720   4.504   7.153  1.2995 -2.0738  0.9534
 5557TIP3   OH238305   6.131   6.554   0.016  0.6288 -0.6110 -0.0833
 5557TIP3    H138306   6.151   6.588   0.103  0.9076  1.3640 -0.8590
 5557TIP3    H238307   6.179   6.611  -0.044 -1.2098 -0.5834 -1.6396
 5558TIP3   OH238308   4.632   5.102   0.910 -0.1531  0.3484  0.5695
 5558TIP3    H138309   4.582   5.115   0.829  0.4245  1.1188  0.3197
 5558TIP3    H238310   4.568   5.069   0.973 -0.2547 -2.0340 -0.6936
 5559TIP3   OH238311   2.318   5.843   1.209 -0.5139  0.3111  0.6580
 5559TIP3    H138312   2.275   5.759   1.191 -0.7415  0.0097  2.4857
 5559TIP3    H238313   2.356   5.833   1.296 -0.1926  1.9747  0.7414
 5560TIP3   OH238314   6.081   1.942   1.455 -0.1281 -0.0627  0.1666
 5560TIP3    H138315   6.138   1.913   1.527 -0.6229 -1.0912  0.1580
 5560TIP3    H238316   6.039   2.021   1.489  1.2088  0.6675  0.2079
 5561TIP3   OH238317   4.240   6.511   8.291  0.1923 -0.4616  0.3904
 5561TIP3    H138318   4.164   6.456   8.274 -0.0521 -0.1215  0.3657
 5561TIP3    H238319   4.207   6.582   8.346  0.9117 -1.3932  2.1009
 5562TIP3   OH238320   1.169   0.596   8.170 -0.5619 -0.2184  0.3865
 5562TIP3    H138321   1.178   0.565   8.261 -2.0794 -0.6568  0.4118
 5562TIP3    H238322   1.117   0.528   8.127 -1.9728  1.1821 -0.1753
 5563TIP3   OH238323   1.961   1.594   8.117  0.4552 -0.4015  0.3881
 5563TIP3    H138324   1.946   1.680   8.157  2.6361 -0.5983  1.8356
 5563TIP3    H238325   1.917   1.533   8.175 -0.5180 -0.3369 -0.2648
 5564TIP3   OH238326   3.051   5.902   7.020  0.2365  0.0131 -0.6847
 5564TIP3    H138327   3.062   5.968   6.952 -1.4538 -0.3626 -1.3793
 5564TIP3    H238328   2.984   5.939   7.079  2.3664  0.7884  1.4260
 5565TIP3   OH238329   0.297   5.937   1.722 -0.3323  0.1652 -0.3958
 5565TIP3    H138330   0.257   5.980   1.798 -0.1022  2.2735 -1.3853
 5565TIP3    H238331   0.388   5.922   1.748 -0.2657  0.8353 -0.2209
 5566TIP3   OH238332   1.430   3.561   0.954  0.3725 -0.0656 -0.2826
 5566TIP3    H138333   1.481   3.636   0.925  0.8460  0.0744  0.8872
 5566TIP3    H238334   1.341   3.578   0.921  0.2731  1.4199  0.6836
 5567TIP3   OH238335   4.131   3.570   0.180 -0.5210  0.2535  0.1483
 5567TIP3    H138336   4.189   3.578   0.256 -2.3143 -2.8998  2.0608
 5567TIP3    H238337   4.060   3.631   0.197  0.0884  1.0235 -0.0427
 5568TIP3   OH238338   6.381   5.433   0.996 -0.4420 -0.5733  0.5096
 5568TIP3    H138339   6.290   5.454   0.976 -1.0580 -3.2894  0.0946
 5568TIP3    H238340   6.384   5.429   1.092 -1.1799 -1.9621  0.4985
 5569TIP3   OH238341   0.204   0.536   6.321 -0.7806 -0.5817 -0.2158
 5569TIP3    H138342   0.118   0.495   6.332 -0.6650 -1.0423 -0.9254
 5569TIP3    H238343   0.264   0.481   6.372 -0.9965  0.1388  0.8555
 5570TIP3   OH238344   6.285   4.411   6.988  0.4749 -0.1407  0.7017
 5570TIP3    H138345   6.233   4.383   7.063  0.9006  1.6924  1.7399
 5570TIP3    H238346   6.224   4.463   6.935 -0.4633 -3.1589 -1.4907
 5571TIP3   OH238347   1.652   3.943   7.335  0.2531 -0.1222  0.0207
 5571TIP3    H138348   1.737   3.972   7.303  1.4757 -1.9335  1.4208
 5571TIP3    H238349   1.672   3.870   7.393 -2.2055 -0.0013  1.1323
 5572TIP3   OH238350   0.698   6.676   2.428  0.4007  0.0888 -0.0444
 5572TIP3    H138351   0.697   6.753   2.370 -0.9681  0.0263 -0.1507
 5572TIP3    H238352   0.693   6.601   2.368  1.4056 -0.0794  0.0715
 5573TIP3   OH238353   4.162   3.188   7.158  0.3626 -0.0074 -0.3964
 5573TIP3    H138354   4.093   3.182   7.092  0.2549  1.0952 -0.4035
 5573TIP3    H238355   4.131   3.256   7.219  1.6965  0.9364 -0.7154
 5574TIP3   OH238356   3.122   5.737   0.495  0.8875  0.1438 -0.3258
 5574TIP3    H138357   3.198   5.703   0.542  1.7159  2.8665  0.5311
 5574TIP3    H238358   3.050   5.731   0.559  0.9830 -0.1325 -0.2431
 5575TIP3   OH238359   1.411   2.360   7.327 -0.3142  0.1164 -0.0371
 5575TIP3    H138360   1.330   2.384   7.372  0.5517 -1.2959  2.5135
 5575TIP3    H238361   1.477   2.359   7.397  1.8642  0.8951 -1.9663
 5576TIP3   OH238362   0.058   6.815   6.897 -0.0210 -1.1148 -0.4373
 5576TIP3    H138363   0.001   6.753   6.942  0.4157 -1.2568 -0.0662
 5576TIP3    H238364   0.134   6.763   6.871  0.6262 -0.6236  0.4056
 5577TIP3   OH238365   4.183   4.585   8.115  0.3904  0.5163 -0.2509
 5577TIP3    H138366   4.222   4.503   8.086 -0.4832 -0.4982  1.3166
 5577TIP3    H238367   4.258   4.644   8.126  1.1224 -0.3144 -0.5886
 5578TIP3   OH238368   1.511   5.549   7.996  0.1025  0.1139 -0.5668
 5578TIP3    H138369   1.464   5.479   7.952 -0.7150 -0.7956  1.6354
 5578TIP3    H238370   1.594   5.510   8.022 -0.8630 -0.5767  1.8159
 5579TIP3   OH238371   3.213   2.419   6.883 -0.0640 -0.4977 -0.1438
 5579TIP3    H138372   3.294   2.416   6.934 -0.3993 -2.2879  0.3351
 5579TIP3    H238373   3.232   2.367   6.805 -0.2444  0.4713 -0.8553
 5580TIP3   OH238374   5.837   0.703   1.071  0.7365 -0.0434 -0.1598
 5580TIP3    H138375   5.782   0.777   1.045 -0.0640 -0.6430 -0.2222
 5580TIP3    H238376   5.873   0.728   1.156 -2.1282 -0.8783  1.4180
 5581TIP3   OH238377   2.361   3.413   1.144 -0.0092  0.1344 -0.4064
 5581TIP3    H138378   2.385   3.321   1.132  1.0048  0.2084  0.8575
 5581TIP3    H238379   2.350   3.447   1.056 -1.2670 -1.4104 -0.8966
 5582TIP3   OH238380   1.806   1.020   6.600  0.0517  0.1695  0.4577
 5582TIP3    H138381   1.817   1.090   6.536 -1.3013 -1.1834 -1.3597
 5582TIP3    H238382   1.888   0.971   6.596  0.2944  0.5763  0.3714
 5583TIP3   OH238383   5.568   5.254   0.110  0.2808  0.0697 -0.1779
 5583TIP3    H138384   5.576   5.259   0.015  0.8724  3.3763 -0.0782
 5583TIP3    H238385   5.658   5.261   0.142 -0.0669  1.5686  0.5851
 5584TIP3   OH238386   2.104   4.209   0.211 -0.3704  0.3445 -0.0404
 5584TIP3    H138387   2.163   4.164   0.271 -0.6482  0.7226  0.5252
 5584TIP3    H238388   2.019   4.166   0.223  0.0259 -1.0554 -1.7721
 5585TIP3   OH238389   2.368   1.271   7.374 -0.1923  0.4372 -0.0687
 5585TIP3    H138390   2.304   1.271   7.445 -1.6926  1.1384 -1.3658
 5585TIP3    H238391   2.317   1.260   7.295  1.4000  0.1204 -1.1057
 5586TIP3   OH238392   2.610   0.690   8.538  0.2513 -0.3148 -0.2809
 5586TIP3    H138393   2.584   0.600   8.520 -0.0993 -0.0775 -1.0264
 5586TIP3    H238394   2.664   0.684   8.616  1.7684 -1.4181 -1.3484
 5587TIP3   OH238395   1.697   0.707   7.203 -0.0028  0.2964 -0.0764
 5587TIP3    H138396   1.754   0.684   7.277 -0.3773 -0.9726 -0.1596
 5587TIP3    H238397   1.744   0.777   7.158  2.0695 -1.4373 -0.7949
 5588TIP3   OH238398   0.982   3.797   7.035 -0.0525  0.4402 -0.6620
 5588TIP3    H138399   0.961   3.746   6.957  2.7580 -3.4612  0.8006
 5588TIP3    H238400   1.049   3.858   7.007 -1.8345  1.9057 -1.9811
 5589TIP3   OH238401   0.874   2.230   0.263  0.2026 -0.2467  0.1617
 5589TIP3    H138402   0.859   2.283   0.341  3.8530 -1.1434  1.6582
 5589TIP3    H238403   0.813   2.156   0.271 -1.2564  0.9823  0.7483
 5590TIP3   OH238404   0.318   6.885   0.936  0.5644 -0.0870  0.4925
 5590TIP3    H138405   0.378   6.841   0.997  0.0865 -0.5061  0.6741
 5590TIP3    H238406   0.373   6.943   0.885  1.0604 -0.1428  0.9547
 5591TIP3   OH238407   5.281   5.527   1.176  0.4710 -0.2150 -0.1334
 5591TIP3    H138408   5.236   5.454   1.135  0.3334 -0.3982  0.3407
 5591TIP3    H238409   5.373   5.499   1.181  0.5649 -0.0310 -0.6679
 5592TIP3   OH238410   6.530   3.469   7.025  0.3752  0.3288  0.0232
 5592TIP3    H138411   6.453   3.414   7.007  1.4912 -0.5880 -2.4828
 5592TIP3    H238412   6.512   3.551   6.980  1.6065 -0.6144 -2.3668
 5593TIP3   OH238413   1.385   5.804   8.144  0.6570 -0.5545 -0.5543
 5593TIP3    H138414   1.423   5.722   8.111  2.6859  0.0951  0.0082
 5593TIP3    H238415   1.336   5.778   8.222  0.1443 -1.4030 -1.1466
 5594TIP3   OH238416   2.202   5.772   0.097  0.2188 -0.4991  0.1623
 5594TIP3    H138417   2.110   5.752   0.113  0.0573  1.2895  1.8618
 5594TIP3    H238418   2.250   5.710   0.151 -0.0040 -0.8326 -0.0169
 5595TIP3   OH238419   3.550   2.180   0.398 -0.0422 -0.0729 -0.1537
 5595TIP3    H138420   3.557   2.124   0.476 -2.3610  0.4421  0.5185
 5595TIP3    H238421   3.560   2.269   0.432  1.1455  0.0774 -0.8339
 5596TIP3   OH238422   3.160   0.732   1.137 -0.7785  0.2686  0.7232
 5596TIP3    H138423   3.236   0.760   1.085  0.8566 -1.6154  1.9896
 5596TIP3    H238424   3.108   0.679   1.076  0.7155 -1.2671  0.7283
 5597TIP3   OH238425   6.859   0.579   2.297 -0.2180 -0.1961 -0.2583
 5597TIP3    H138426   6.913   0.657   2.283  0.0292 -0.5094 -1.1445
 5597TIP3    H238427   6.769   0.613   2.304  0.1735  0.5022  2.9315
 5598TIP3   OH238428   3.834   4.129   1.958  0.1003 -0.1269  0.1742
 5598TIP3    H138429   3.830   4.036   1.980  2.6543 -0.4112 -0.2664
 5598TIP3    H238430   3.786   4.172   2.028 -1.8146 -1.7708 -0.0023
 5599TIP3   OH238431   2.523   4.914   0.738  0.0563 -0.3032 -0.5741
 5599TIP3    H138432   2.432   4.891   0.720  0.2563 -1.5844 -0.0805
 5599TIP3    H238433   2.574   4.853   0.684  0.6317  0.3479 -0.7835
 5600TIP3   OH238434   2.195   1.755   1.651 -0.1890  0.0503 -0.1970
 5600TIP3    H138435   2.172   1.663   1.665 -2.3471  0.4836 -0.4478
 5600TIP3    H238436   2.262   1.754   1.583 -0.5417 -1.3254 -0.5424
 5601TIP3   OH238437   1.387   4.766   7.213 -0.3946  0.8167  0.2669
 5601TIP3    H138438   1.315   4.777   7.150 -1.0010  2.0534  1.1406
 5601TIP3    H238439   1.344   4.747   7.296  0.3322  0.8660  0.6587
 5602TIP3   OH238440   5.691   3.659   8.156 -0.4297  0.0676  0.3038
 5602TIP3    H138441   5.751   3.733   8.163  0.8688 -0.9928  1.0082
 5602TIP3    H238442   5.694   3.634   8.064 -1.1897  1.1072 -0.0242
 5603TIP3   OH238443   1.854   5.428   1.491  0.1482 -0.3685 -0.4814
 5603TIP3    H138444   1.917   5.450   1.559  0.8180  0.0538 -1.2242
 5603TIP3    H238445   1.882   5.342   1.459  1.4888  0.5845 -2.0516
 5604TIP3   OH238446   3.133   6.265   6.865 -0.5796  0.3164 -0.3258
 5604TIP3    H138447   3.088   6.189   6.828  1.2301 -0.5623 -0.8239
 5604TIP3    H238448   3.097   6.340   6.818 -1.0706 -0.4055 -1.1270
 5605TIP3   OH238449   6.550   0.147   7.739  0.3951 -0.3913 -0.0604
 5605TIP3    H138450   6.593   0.146   7.825  3.6422 -1.5022 -1.5501
 5605TIP3    H238451   6.582   0.227   7.698 -2.1992  0.8499  0.1328
 5606TIP3   OH238452   6.767   1.038   0.018 -0.0063  0.2475 -0.2497
 5606TIP3    H138453   6.769   1.113   0.078 -2.4528 -0.1820  0.4744
 5606TIP3    H238454   6.843   0.986   0.043 -0.5182  0.4771  2.0431
 5607TIP3   OH238455   6.447   5.953   2.499  0.1416  0.4146  0.0407
 5607TIP3    H138456   6.400   6.010   2.560 -1.8527  1.5638 -2.3789
 5607TIP3    H238457   6.530   5.999   2.482 -0.8953  2.0752 -0.8942
 5608TIP3   OH238458   6.915   5.395   1.622  0.4049 -0.3453 -0.2020
 5608TIP3    H138459   6.931   5.434   1.536 -0.1430 -0.1118 -0.1980
 5608TIP3    H238460   6.823   5.413   1.641 -0.6770 -3.8821 -1.3715
 5609TIP3   OH238461   0.725   6.572   1.195 -0.0233 -0.1317 -0.1695
 5609TIP3    H138462   0.724   6.491   1.145 -1.6060  0.8704 -1.8925
 5609TIP3    H238463   0.817   6.597   1.200  0.3332 -1.2435 -0.9309
 5610TIP3   OH238464   2.845   4.364   7.997  0.4097  0.3072  0.6980
 5610TIP3    H138465   2.776   4.307   7.964  0.7395 -0.3925  1.1960
 5610TIP3    H238466   2.882   4.316   8.071  1.6307  0.5336  0.2540
 5611TIP3   OH238467   1.226   2.364   2.281  0.8866 -0.4696 -0.0253
 5611TIP3    H138468   1.301   2.354   2.341  0.9362 -0.0215 -0.0114
 5611TIP3    H238469   1.164   2.298   2.310  1.7972 -1.7314 -0.8344
 5612TIP3   OH238470   2.708   6.726   7.783  0.0100  0.5402  0.7146
 5612TIP3    H138471   2.761   6.796   7.745 -1.0272  0.7768 -0.3651
 5612TIP3    H238472   2.760   6.693   7.856  1.2328  1.3512  0.2374
 5613TIP3   OH238473   6.956   3.268   8.299  0.1173  0.3588  0.3560
 5613TIP3    H138474   6.914   3.195   8.344  1.2440 -0.8643 -0.4712
 5613TIP3    H238475   7.047   3.239   8.287  0.9333  2.4255  1.0889
 5614TIP3   OH238476   6.631   2.405   7.851 -0.0047  0.7309 -0.0106
 5614TIP3    H138477   6.618   2.476   7.914  0.0468  0.0839  0.7538
 5614TIP3    H238478   6.714   2.425   7.809  0.6434  0.4739  1.0994
 5615TIP3   OH238479   6.452   0.865   8.287  0.3821  0.4134 -0.7104
 5615TIP3    H138480   6.383   0.803   8.263 -0.3446  0.5843  0.8134
 5615TIP3    H238481   6.534   0.817   8.273 -0.1084 -0.3681 -0.9423
 5616TIP3   OH238482   6.087   6.621   6.900  0.2479 -0.1682 -0.6471
 5616TIP3    H138483   6.029   6.587   6.968  1.1324  1.5082  1.0275
 5616TIP3    H238484   6.175   6.609   6.935  0.6554  2.3539 -0.6114
 5617TIP3   OH238485   3.255   0.822   6.450 -0.6262 -0.2172  0.4544
 5617TIP3    H138486   3.261   0.917   6.464 -0.3779 -0.5082  2.8759
 5617TIP3    H238487   3.340   0.789   6.479 -1.3019 -1.3091  1.2828
 5618TIP3   OH238488   1.937   5.666   1.393  0.2989 -0.6730  0.6638
 5618TIP3    H138489   1.927   5.573   1.416 -1.3968 -0.5166  0.6999
 5618TIP3    H238490   1.940   5.667   1.298  0.3530 -0.7811  0.6645
 5619TIP3   OH238491   4.801   0.696   2.013 -0.1734 -0.2101  0.4315
 5619TIP3    H138492   4.855   0.656   2.081 -0.3338  1.3567  1.5269
 5619TIP3    H238493   4.818   0.790   2.021 -1.3997  0.1382 -0.6719
 5620TIP3   OH238494   4.503   0.351   7.658  0.3402 -0.2471  0.5035
 5620TIP3    H138495   4.583   0.390   7.692 -0.0904  0.5810  0.5783
 5620TIP3    H238496   4.434   0.380   7.718 -0.4820  1.4854 -1.1738
 5621TIP3   OH238497   0.548   3.975   6.457 -0.0364 -0.3572 -0.4498
 5621TIP3    H138498   0.465   4.003   6.496  1.4683  1.5943  1.5320
 5621TIP3    H238499   0.568   4.042   6.392  0.7126 -0.0284  0.1191
 5622TIP3   OH238500   5.921   2.633   1.244  0.1724 -0.4796  0.1058
 5622TIP3    H138501   5.855   2.622   1.312 -0.9796 -1.5346 -1.1188
 5622TIP3    H238502   5.922   2.727   1.227 -0.1259 -0.3069  0.9730
 5623TIP3   OH238503   3.365   3.456   7.552  0.2137 -0.3355 -0.2187
 5623TIP3    H138504   3.332   3.541   7.580  1.2478 -0.1576  0.5254
 5623TIP3    H238505   3.324   3.393   7.611  0.6547 -0.1800  0.2696
 5624TIP3   OH238506   2.202   4.295   7.937 -0.6192 -0.0865 -0.3283
 5624TIP3    H138507   2.282   4.337   7.905  0.7497 -0.9931  1.7031
 5624TIP3    H238508   2.196   4.214   7.888  1.1560 -1.2065  1.1445
 5625TIP3   OH238509   2.025   0.675   8.491 -0.8547  0.1083  0.6787
 5625TIP3    H138510   1.969   0.612   8.446 -0.1015 -0.4285  0.4883
 5625TIP3    H238511   2.036   0.747   8.429  0.3104 -0.6979 -0.0778
 5626TIP3   OH238512   1.075   3.574   1.280 -0.0290  0.0672  0.2946
 5626TIP3    H138513   1.056   3.662   1.248  1.0952 -0.2011 -1.2290
 5626TIP3    H238514   0.994   3.525   1.265 -0.7348  0.8701  1.3636
 5627TIP3   OH238515   5.948   4.401   6.968 -0.1173 -0.2616  0.1328
 5627TIP3    H138516   5.904   4.373   6.888 -0.1847  1.5021 -0.4945
 5627TIP3    H238517   6.019   4.457   6.938  1.7115 -1.8681  1.1982
 5628TIP3   OH238518   4.695   2.296   0.404  0.1759  0.0405  0.1871
 5628TIP3    H138519   4.736   2.331   0.484  0.6822 -0.1198 -0.0044
 5628TIP3    H238520   4.730   2.351   0.334  1.3328 -1.1216 -0.1785
 5629TIP3   OH238521   1.832   4.950   8.180  0.4253 -0.0691  0.3262
 5629TIP3    H138522   1.847   4.941   8.086  2.4661 -0.5556  0.6624
 5629TIP3    H238523   1.744   4.914   8.193  0.5612 -1.0912 -1.2353
 5630TIP3   OH238524   0.906   5.431   7.788 -0.4976 -0.0204  0.1586
 5630TIP3    H138525   0.951   5.505   7.830  0.6982 -0.6034 -0.0560
 5630TIP3    H238526   0.943   5.354   7.830 -0.7921 -0.5443 -0.5321
 5631TIP3   OH238527   6.707   6.351   8.129  0.1611  0.3984 -0.6793
 5631TIP3    H138528   6.802   6.344   8.122 -0.0194 -3.7132 -1.5998
 5631TIP3    H238529   6.687   6.329   8.220  0.0725 -0.9058 -0.9881
 5632TIP3   OH238530   4.223   6.900   1.535  0.8774 -0.3464 -0.2679
 5632TIP3    H138531   4.274   6.862   1.606  2.0848  1.6573  0.0397
 5632TIP3    H238532   4.165   6.963   1.578  0.9584  0.2137 -0.9457
 5633TIP3   OH238533   1.477   1.081   6.549  0.2033 -0.0571  0.0284
 5633TIP3    H138534   1.550   1.098   6.489  0.6254 -0.8154  0.3136
 5633TIP3    H238535   1.462   0.987   6.542  0.4714 -0.2152  1.3442
 5634TIP3   OH238536   1.426   3.681   0.177  0.2872 -0.5133 -0.3158
 5634TIP3    H138537   1.473   3.698   0.258 -0.5323 -0.0388  0.0781
 5634TIP3    H238538   1.344   3.639   0.205 -1.1262  1.8468 -0.6436
 5635TIP3   OH238539   1.941   4.045   7.896 -0.0813  0.1484 -0.5785
 5635TIP3    H138540   1.920   4.071   7.806 -3.3586  1.1526  0.3413
 5635TIP3    H238541   1.865   3.994   7.925  0.9139 -0.2112  1.6245
 5636TIP3   OH238542   0.685   6.155   7.178 -0.1990  0.5702  0.3039
 5636TIP3    H138543   0.625   6.200   7.120 -0.3066  1.2299  0.9135
 5636TIP3    H238544   0.697   6.215   7.252  0.2863 -0.0531  0.7457
 5637TIP3   OH238545   5.279   3.076   6.468  0.0216  0.7569 -0.0035
 5637TIP3    H138546   5.364   3.108   6.436  0.6083 -0.2369  0.4861
 5637TIP3    H238547   5.215   3.134   6.428  0.7732  0.1671 -2.2596
 5638TIP3   OH238548   5.611   4.887   1.302 -0.1398 -0.0156  0.3230
 5638TIP3    H138549   5.658   4.961   1.341  0.0318  0.3776 -0.6052
 5638TIP3    H238550   5.636   4.889   1.210  2.4568 -3.1900  0.7926
 5639TIP3   OH238551   3.426   4.026   7.758 -0.5782 -0.3282  0.1712
 5639TIP3    H138552   3.477   4.094   7.802 -1.1206 -0.3237  0.7906
 5639TIP3    H238553   3.431   4.049   7.665  0.2015 -0.0985  0.2609
 5640TIP3   OH238554   0.473   5.863   7.482  0.2239 -0.9395 -0.1102
 5640TIP3    H138555   0.469   5.793   7.547  1.4827 -0.9835 -0.0687
 5640TIP3    H238556   0.506   5.939   7.529 -0.6797 -0.4376 -0.2682
 5641TIP3   OH238557   2.822   6.414   0.530 -0.2434  0.2148  0.0463
 5641TIP3    H138558   2.849   6.465   0.453  0.9412  0.9819  0.9353
 5641TIP3    H238559   2.885   6.342   0.534 -1.3440 -0.8303 -0.6595
 5642TIP3   OH238560   5.158   0.528   0.993 -0.0754 -0.0111 -0.0365
 5642TIP3    H138561   5.221   0.546   0.923  0.7609 -1.7220  0.2231
 5642TIP3    H238562   5.073   0.555   0.956  0.7219  1.9212 -0.5563
 5643TIP3   OH238563   6.616   2.331   2.018 -0.5394 -0.0848 -0.1005
 5643TIP3    H138564   6.598   2.242   1.988  0.7099 -0.4476  0.1839
 5643TIP3    H238565   6.534   2.360   2.057 -0.8602 -1.2284  0.1120
 5644TIP3   OH238566   5.657   1.530   0.356 -0.6103  0.7981  0.3217
 5644TIP3    H138567   5.636   1.610   0.406 -0.6286 -0.1758  1.9399
 5644TIP3    H238568   5.747   1.510   0.380 -0.4755  0.5325 -0.3801
 5645TIP3   OH238569   3.292   0.093   0.326 -0.0255 -0.2511  0.2299
 5645TIP3    H138570   3.338   0.177   0.320  0.2036 -0.3156  1.0038
 5645TIP3    H238571   3.216   0.111   0.381 -0.2884 -0.4197 -0.0771
 5646TIP3   OH238572   3.741   0.333   8.322  0.0979  0.1503  0.3973
 5646TIP3    H138573   3.828   0.328   8.363  0.7337  2.3346 -0.5604
 5646TIP3    H238574   3.748   0.275   8.246 -0.2080 -1.7645  1.7384
 5647TIP3   OH238575   1.795   1.869   0.483  0.0395  0.5195  0.1793
 5647TIP3    H138576   1.711   1.828   0.464  1.6476 -3.0686  0.0227
 5647TIP3    H238577   1.784   1.907   0.571 -1.1116 -1.9449  1.1993
 5648TIP3   OH238578   3.026   5.513   7.277  0.2547  0.3084 -0.2616
 5648TIP3    H138579   3.079   5.586   7.246 -0.3255  1.0352  0.3958
 5648TIP3    H238580   3.051   5.440   7.222 -0.3056  1.3914 -2.0454
 5649TIP3   OH238581   1.939   5.462   8.492 -0.4118  0.3872 -0.2105
 5649TIP3    H138582   1.956   5.466   8.398  0.3928  0.1444 -0.0834
 5649TIP3    H238583   2.020   5.492   8.532 -1.2407  1.9129  0.4036
 5650TIP3   OH238584   5.567   0.580   8.342  0.0192  0.5440 -0.2061
 5650TIP3    H138585   5.570   0.485   8.344  0.5955  0.5080 -1.8011
 5650TIP3    H238586   5.626   0.605   8.272 -0.7695  2.0470 -0.3825
 5651TIP3   OH238587   1.922   0.159   1.065 -0.1276  0.5042 -0.5209
 5651TIP3    H138588   1.994   0.151   1.003  0.9821  1.6005  0.5595
 5651TIP3    H238589   1.843   0.144   1.013  0.6947  2.3759 -2.4295
 5652TIP3   OH238590   6.517   4.093   1.029 -0.7454  0.8453 -0.2734
 5652TIP3    H138591   6.447   4.150   0.998  0.2330  1.4533 -1.4544
 5652TIP3    H238592   6.499   4.009   0.988  0.1793  1.4765 -2.0646
 5653TIP3   OH238593   3.263   4.153   0.325  0.3590  0.2512  0.2031
 5653TIP3    H138594   3.276   4.168   0.419  1.6387  0.3888  0.0235
 5653TIP3    H238595   3.347   4.177   0.285 -0.6714  1.8186 -1.1861
 5654TIP3   OH238596   5.671   4.921   1.046 -0.0021 -0.2331 -0.6685
 5654TIP3    H138597   5.586   4.886   1.020 -0.3511 -0.3877  0.6022
 5654TIP3    H238598   5.661   5.016   1.039 -0.5048 -0.2186  0.0790
 5655TIP3   OH238599   5.310   5.590   0.313  0.1057 -0.2809  0.4866
 5655TIP3    H138600   5.265   5.552   0.389  0.5312 -1.2119  0.2848
 5655TIP3    H238601   5.290   5.683   0.318 -0.8044 -0.4908  1.1087
 5656TIP3   OH238602   3.592   2.801   8.175 -0.5323  0.2041  0.0642
 5656TIP3    H138603   3.582   2.709   8.197  0.5850 -0.0989 -0.5902
 5656TIP3    H238604   3.639   2.839   8.249  0.2975 -0.0947 -0.2856
 5657TIP3   OH238605   6.691   1.278   7.459 -0.1848 -0.3535 -0.0399
 5657TIP3    H138606   6.775   1.252   7.497 -0.6536 -0.5885  0.8956
 5657TIP3    H238607   6.682   1.223   7.381  1.4721  1.1706 -1.3812
 5658TIP3   OH238608   3.912   1.394   7.154  0.3781 -0.0370 -0.0995
 5658TIP3    H138609   3.840   1.348   7.112  1.1391 -0.1903 -1.2667
 5658TIP3    H238610   3.990   1.344   7.131  1.0070  0.8358  0.0880
 5659TIP3   OH238611   2.323   3.279   7.399 -0.0650 -0.0944  0.2270
 5659TIP3    H138612   2.300   3.234   7.481  0.5685 -0.7041  0.0731
 5659TIP3    H238613   2.245   3.270   7.345 -0.5525  0.4543  0.8167
 5660TIP3   OH238614   5.692   3.352   1.124 -0.5214  0.0653  0.6089
 5660TIP3    H138615   5.622   3.315   1.070 -0.4443 -0.0107  0.5604
 5660TIP3    H238616   5.686   3.304   1.207 -1.9907  1.6223  1.4521
 5661TIP3   OH238617   4.492   1.057   7.089  0.5424  0.2383  0.1386
 5661TIP3    H138618   4.468   1.132   7.144  0.4606  0.4440 -0.1722
 5661TIP3    H238619   4.486   0.982   7.147 -0.3165  0.3516  0.2194
 5662TIP3   OH238620   6.132   5.829   8.075  0.7772  0.0798  0.1779
 5662TIP3    H138621   6.100   5.752   8.028  2.0900 -0.3695 -0.0139
 5662TIP3    H238622   6.147   5.798   8.164  1.6298  0.0273  0.0158
 5663TIP3   OH238623   6.019   2.072   7.121 -0.2624 -0.1885 -0.1442
 5663TIP3    H138624   6.021   2.114   7.035  1.7042  1.2696  0.5432
 5663TIP3    H238625   5.959   2.125   7.173 -0.5173 -0.3570 -0.2626
 5664TIP3   OH238626   5.668   1.201   7.832 -0.1142 -0.2484  0.0791
 5664TIP3    H138627   5.620   1.128   7.792 -0.1465 -0.7011  0.9400
 5664TIP3    H238628   5.623   1.217   7.915 -0.7942  1.4775 -0.5731
 5665TIP3   OH238629   5.151   0.972   0.433  0.1539 -0.1640 -0.3745
 5665TIP3    H138630   5.147   1.044   0.370 -1.0801 -0.4184 -0.6279
 5665TIP3    H238631   5.218   0.913   0.398 -0.7109 -0.4504 -1.6484
 5666TIP3   OH238632   2.795   2.604   7.178 -0.0179  0.0693 -0.2002
 5666TIP3    H138633   2.874   2.645   7.215 -0.4610  1.7147 -0.9508
 5666TIP3    H238634   2.729   2.613   7.246  0.0360  0.0957 -0.1513
 5667TIP3   OH238635   5.711   5.941   6.861  0.0141  0.3112 -1.0154
 5667TIP3    H138636   5.754   6.010   6.910  2.3561 -0.1300 -2.3060
 5667TIP3    H238637   5.659   5.987   6.795  0.1236  0.8589 -0.7165
 5668TIP3   OH238638   5.651   2.000   7.961 -0.0856 -0.2567 -0.0139
 5668TIP3    H138639   5.594   1.953   8.022  1.8913 -0.6723  1.6384
 5668TIP3    H238640   5.740   1.974   7.986  0.8964  0.9128 -1.9932
 5669TIP3   OH238641   3.758   5.619   8.489 -0.1551 -0.3148  0.0837
 5669TIP3    H138642   3.802   5.575   8.562 -0.8316 -1.1252  0.0147
 5669TIP3    H238643   3.801   5.704   8.483  0.7454 -0.7167  0.6342
 5670TIP3   OH238644   2.047   3.784   0.350 -0.3938 -0.1437  0.5113
 5670TIP3    H138645   2.083   3.716   0.294  1.2834  1.2324 -0.1697
 5670TIP3    H238646   2.080   3.866   0.313 -2.2664  1.0701  1.3451
 5671TIP3   OH238647   2.773   2.067   8.036 -0.3488  0.1629  0.4457
 5671TIP3    H138648   2.725   2.011   8.097 -1.8195 -1.7639 -2.2633
 5671TIP3    H238649   2.705   2.111   7.985  0.7158 -0.1807 -1.3771
 5672TIP3   OH238650   3.233   0.378   7.009 -0.2673 -0.5387 -0.0662
 5672TIP3    H138651   3.281   0.449   7.053  0.2384 -0.6803 -0.3745
 5672TIP3    H238652   3.187   0.421   6.938 -2.3396 -0.0472  1.4743
 5673TIP3   OH238653   4.443   6.016   0.455  0.4342  1.1064 -0.0945
 5673TIP3    H138654   4.416   6.024   0.363 -0.2608 -0.6894 -0.0838
 5673TIP3    H238655   4.536   5.996   0.451 -0.1786 -2.3365 -0.6728
 5674TIP3   OH238656   6.083   2.850   1.836 -0.3166 -0.4239 -0.4632
 5674TIP3    H138657   6.122   2.930   1.872  0.2081  0.0107 -1.9304
 5674TIP3    H238658   6.003   2.880   1.793 -0.0773 -0.6786 -1.0862
 5675TIP3   OH238659   6.114   0.350   7.767  0.1539  0.4750 -0.2298
 5675TIP3    H138660   6.188   0.381   7.716  1.4651 -1.4789  0.3893
 5675TIP3    H238661   6.145   0.350   7.858 -1.6389  2.4665  0.4733
 5676TIP3   OH238662   3.807   2.472   8.303 -0.1218 -0.7673  0.1717
 5676TIP3    H138663   3.779   2.488   8.212 -0.3398 -2.5396 -0.1085
 5676TIP3    H238664   3.747   2.404   8.335  0.7608 -1.0753  1.2194
 5677TIP3   OH238665   6.593   5.190   0.127  0.2816 -0.3560  0.8800
 5677TIP3    H138666   6.510   5.181   0.081  0.3536 -0.7814  0.8260
 5677TIP3    H238667   6.613   5.284   0.124 -0.1002 -0.2798  0.7295
 5678TIP3   OH238668   0.258   4.005   7.074  0.2258  0.0490  0.4613
 5678TIP3    H138669   0.328   3.988   7.010  0.1928  1.9924 -0.1547
 5678TIP3    H238670   0.304   4.037   7.151  0.0439  1.3254  0.0570
 5679TIP3   OH238671   2.617   2.298   0.557  0.6054 -0.1503 -0.1540
 5679TIP3    H138672   2.657   2.213   0.576 -0.7643 -0.7610  0.0501
 5679TIP3    H238673   2.688   2.349   0.516  0.8702 -2.0580 -2.2172
 5680TIP3   OH238674   5.512   5.078   2.375 -0.2279 -0.0850 -0.8004
 5680TIP3    H138675   5.459   5.158   2.382 -0.2045 -0.0543 -0.9616
 5680TIP3    H238676   5.602   5.109   2.385 -0.2840 -0.2489  0.3377
 5681TIP3   OH238677   0.654   6.080   7.752 -0.2572  0.3653  0.6097
 5681TIP3    H138678   0.748   6.095   7.751 -0.0844 -0.6026 -0.9718
 5681TIP3    H238679   0.616   6.168   7.759  0.7595  1.0502 -1.5006
 5682TIP3   OH238680   1.934   5.769   0.129  0.0896  0.4141  0.3509
 5682TIP3    H138681   1.909   5.835   0.193  0.6567  0.2971  0.7031
 5682TIP3    H238682   1.867   5.775   0.061 -0.3741  0.7223  0.8235
 5683TIP3   OH238683   6.129   1.539   1.468 -0.1088 -0.2485 -0.7844
 5683TIP3    H138684   6.199   1.601   1.490 -0.0930 -0.9886  1.5805
 5683TIP3    H238685   6.137   1.525   1.374  1.5706  1.2939 -0.9237
 5684TIP3   OH238686   2.644   2.976   1.269  0.5186 -0.1280 -0.1339
 5684TIP3    H138687   2.621   2.940   1.183  0.2614  0.0583 -0.1415
 5684TIP3    H238688   2.594   2.923   1.331 -0.3385  0.6097 -0.1810
 5685TIP3   OH238689   3.649   3.962   7.408 -0.3880 -0.2709 -0.3765
 5685TIP3    H138690   3.703   3.951   7.486  0.5626 -0.4439 -1.0447
 5685TIP3    H238691   3.572   3.908   7.424  0.6324 -1.7570 -0.3153
 5686TIP3   OH238692   4.749   0.477   7.762  0.8934 -0.0328 -0.3319
 5686TIP3    H138693   4.800   0.500   7.684  0.2461 -0.1330 -0.7966
 5686TIP3    H238694   4.813   0.437   7.822  0.9622 -2.3832 -1.8376
 5687TIP3   OH238695   3.440   4.949   1.451 -0.3546 -0.2576 -0.1667
 5687TIP3    H138696   3.434   4.947   1.547 -1.5984 -0.9345 -0.2486
 5687TIP3    H238697   3.426   5.041   1.428 -0.7760 -0.2117  0.2634
 5688TIP3   OH238698   1.536   0.476   6.827  0.0151  0.0373 -0.1262
 5688TIP3    H138699   1.467   0.503   6.887 -0.1831  0.1343 -0.3922
 5688TIP3    H238700   1.501   0.497   6.740 -0.5813 -1.9777 -0.4181
 5689TIP3   OH238701   0.783   4.312   0.678  0.0376  0.4372  0.2670
 5689TIP3    H138702   0.825   4.320   0.763 -0.0278 -0.3219  0.3775
 5689TIP3    H238703   0.836   4.368   0.620 -1.6989  3.4756  1.3884
 5690TIP3   OH238704   3.391   3.551   0.017 -0.0980  0.3880  0.3799
 5690TIP3    H138705   3.380   3.456   0.022  1.2897  0.1309 -0.6835
 5690TIP3    H238706   3.459   3.571   0.082 -0.2673  0.6316  0.4836
 5691TIP3   OH238707   4.807   5.115   7.450  0.8265 -0.1393  0.7187
 5691TIP3    H138708   4.858   5.036   7.463  3.0598  1.1686  0.4278
 5691TIP3    H238709   4.776   5.109   7.360  2.0322 -0.1207  0.2944
 5692TIP3   OH238710   0.621   5.191   7.439 -0.7500  0.3300 -0.1050
 5692TIP3    H138711   0.639   5.149   7.524  1.0470  0.8965 -0.1700
 5692TIP3    H238712   0.702   5.180   7.389 -0.7264  2.5780 -0.6660
 5693TIP3   OH238713   5.063   3.960   6.854  0.0327 -0.4757  0.0193
 5693TIP3    H138714   5.106   3.992   6.775  2.3420  0.2189  1.4396
 5693TIP3    H238715   5.101   3.873   6.868 -0.3207 -0.5780  0.3743
 5694TIP3   OH238716   6.148   1.860   7.255  0.1992  0.0295  0.0032
 5694TIP3    H138717   6.093   1.935   7.231  0.0102  0.7188  2.3797
 5694TIP3    H238718   6.182   1.881   7.341  2.0881 -1.5981 -0.2668
 5695TIP3   OH238719   1.572   1.804   6.482  0.3391 -0.1719 -0.3218
 5695TIP3    H138720   1.486   1.769   6.505  0.3806  0.2364  0.4877
 5695TIP3    H238721   1.560   1.841   6.395 -0.3047 -0.1267 -0.2180
 5696TIP3   OH238722   1.983   1.539   0.342 -0.0827  0.5266 -0.1100
 5696TIP3    H138723   2.036   1.543   0.262  0.7455 -0.5677  0.3555
 5696TIP3    H238724   2.012   1.614   0.393  2.6214 -1.1278  1.0375
 5697TIP3   OH238725   2.748   6.401   6.700 -0.2058  0.1712 -0.1503
 5697TIP3    H138726   2.841   6.405   6.678  0.9862 -2.1190  3.5776
 5697TIP3    H238727   2.714   6.328   6.648  0.0291  0.9821 -1.4844
 5698TIP3   OH238728   0.716   0.503   6.953  0.1687 -0.3552 -0.3080
 5698TIP3    H138729   0.651   0.573   6.952  0.4501  0.0017  1.8852
 5698TIP3    H238730   0.664   0.423   6.963 -0.0173 -0.1848  0.1168
 5699TIP3   OH238731   4.171   2.742   0.691 -0.1800  0.0064  0.5306
 5699TIP3    H138732   4.170   2.653   0.656  0.8231  0.4293 -0.6359
 5699TIP3    H238733   4.170   2.730   0.786 -2.0784 -1.1869  0.4022
 5700TIP3   OH238734   3.315   2.573   7.978 -0.2190 -0.1699 -0.1344
 5700TIP3    H138735   3.291   2.665   7.985 -0.9259 -0.3327 -0.3263
 5700TIP3    H238736   3.244   2.526   8.023 -0.3603 -0.6743 -0.8652
 5701TIP3   OH238737   0.133   1.840   7.700 -0.5938  0.3135 -0.5940
 5701TIP3    H138738   0.050   1.795   7.718 -1.1954  1.7612  0.5291
 5701TIP3    H238739   0.130   1.918   7.756  1.0125  1.0177 -1.4252
 5702TIP3   OH238740   5.168   5.029   1.330  0.4694  0.5020  0.2607
 5702TIP3    H138741   5.219   5.006   1.408 -0.5071  1.6012  1.2585
 5702TIP3    H238742   5.231   5.073   1.273  1.0656  0.2300  0.6975
 5703TIP3   OH238743   6.758   3.734   2.160 -0.1638  0.3799  0.6816
 5703TIP3    H138744   6.820   3.680   2.110 -0.3879  0.9883 -0.2888
 5703TIP3    H238745   6.795   3.738   2.248  0.0659 -1.0164  0.6682
 5704TIP3   OH238746   6.953   5.328   1.262 -0.6219  0.4568  0.0005
 5704TIP3    H138747   6.986   5.411   1.297  0.5834  0.1353 -0.3283
 5704TIP3    H238748   7.019   5.263   1.288 -1.0321 -0.2170 -0.6186
 5705TIP3   OH238749   5.774   3.925   7.510  0.2188 -0.3742 -0.3391
 5705TIP3    H138750   5.820   3.958   7.587  0.0755  1.2091 -0.8914
 5705TIP3    H238751   5.844   3.912   7.445 -0.0362  2.2518 -1.2549
 5706TIP3   OH238752   6.478   3.485   1.083 -0.1744  0.3264 -0.3686
 5706TIP3    H138753   6.435   3.429   1.148  0.1167  1.6693  1.0491
 5706TIP3    H238754   6.433   3.569   1.089  0.9986  1.0032 -0.6466
 5707TIP3   OH238755   2.384   4.843   8.083 -0.4694  0.9011 -0.1258
 5707TIP3    H138756   2.308   4.819   8.137 -1.1486  1.8813 -0.6145
 5707TIP3    H238757   2.347   4.893   8.010  0.6584  1.5388 -0.2849
 5708TIP3   OH238758   6.438   6.086   6.312  0.0571 -0.1755 -0.5867
 5708TIP3    H138759   6.499   6.037   6.257 -1.1415 -1.2268 -1.0194
 5708TIP3    H238760   6.357   6.090   6.260 -0.6296  0.1004  0.4842
 5709TIP3   OH238761   3.514   3.932   1.526  0.4878 -0.3451  0.1097
 5709TIP3    H138762   3.590   3.988   1.545 -0.5875  1.2467 -0.0236
 5709TIP3    H238763   3.550   3.860   1.474  1.5399  1.8688 -2.5159
 5710TIP3   OH238764   5.165   0.926   7.917  0.3504 -0.2008  0.2150
 5710TIP3    H138765   5.188   0.992   7.852  1.5603 -0.4654  0.3421
 5710TIP3    H238766   5.110   0.864   7.869  0.6386 -0.0189 -0.3709
 5711TIP3   OH238767   2.883   1.258   8.165  0.0500 -0.3778 -0.3023
 5711TIP3    H138768   2.823   1.326   8.196  1.6142  0.9772 -0.1407
 5711TIP3    H238769   2.898   1.202   8.242 -0.5170 -0.3726 -0.1849
 5712TIP3   OH238770   0.108   6.888   0.352  0.1613 -0.0245 -0.3773
 5712TIP3    H138771   0.112   6.981   0.331 -0.2662 -0.2724 -1.6816
 5712TIP3    H238772   0.194   6.854   0.326  1.5492  0.5150  3.0691
 5713TIP3   OH238773   5.938   2.669   1.644 -0.0934  0.2195  0.1270
 5713TIP3    H138774   5.864   2.625   1.685  0.2939 -2.1789 -1.5315
 5713TIP3    H238775   6.015   2.626   1.681  0.3777  0.6025 -0.3891
 5714TIP3   OH238776   5.975   6.647   1.469  0.0854 -0.0989  0.1717
 5714TIP3    H138777   6.050   6.657   1.526  0.3567 -0.6004 -0.0872
 5714TIP3    H238778   6.012   6.643   1.381 -0.4069  1.8060 -0.1694
 5715TIP3   OH238779   4.204   5.123   0.560  0.1032 -0.4086  0.2632
 5715TIP3    H138780   4.137   5.191   0.566  1.1769  0.6324  0.6471
 5715TIP3    H238781   4.272   5.161   0.505 -1.4001 -2.9970 -3.8850
 5716TIP3   OH238782   3.665   5.128   0.881  0.0089  0.4231 -0.1585
 5716TIP3    H138783   3.727   5.125   0.809 -1.5546  0.3766 -1.5801
 5716TIP3    H238784   3.624   5.214   0.875  1.0398  1.0955  1.7721
 5717TIP3   OH238785   0.754   1.726   7.955  0.1517 -0.6791 -0.4407
 5717TIP3    H138786   0.721   1.809   7.922 -1.6031 -0.4728  1.6300
 5717TIP3    H238787   0.752   1.667   7.880 -0.0170  0.7384 -1.5833
 5718TIP3   OH238788   2.085   2.699   0.516  0.0716  0.2099 -0.4809
 5718TIP3    H138789   2.075   2.617   0.563  0.4785  1.0020  1.0513
 5718TIP3    H238790   2.012   2.700   0.454 -0.9260 -0.5473  0.6261
 5719TIP3   OH238791   4.714   2.811   8.508 -0.0864  0.4954  0.1065
 5719TIP3    H138792   4.687   2.723   8.482  0.9771  0.1798  0.0395
 5719TIP3    H238793   4.643   2.868   8.476 -0.0551 -0.1630 -1.1868
 5720TIP3   OH238794   4.780   1.806   1.150 -0.2630  0.3050 -0.2961
 5720TIP3    H138795   4.787   1.856   1.069  0.0017 -1.2032 -1.2552
 5720TIP3    H238796   4.696   1.760   1.143 -0.9537  1.2982  1.0014
 5721TIP3   OH238797   6.441   6.717   0.892  0.0403 -0.3689 -0.5187
 5721TIP3    H138798   6.431   6.622   0.888  1.0763 -0.6306  1.6985
 5721TIP3    H238799   6.406   6.742   0.977  0.7782  1.0827 -0.6043
 5722TIP3   OH238800   0.303   2.329   8.145 -0.1363  0.0812  0.2939
 5722TIP3    H138801   0.294   2.253   8.201  1.2565  0.4306  1.0398
 5722TIP3    H238802   0.318   2.402   8.205 -0.5289  0.7950 -0.4514
 5723TIP3   OH238803   5.477   3.659   6.852 -0.4020  0.1114  0.2926
 5723TIP3    H138804   5.532   3.591   6.813 -0.0854  0.5775 -0.0746
 5723TIP3    H238805   5.520   3.741   6.830  0.3393  0.3751  2.4406
 5724TIP3   OH238806   5.980   5.290   7.262 -0.3029  0.2440  0.0307
 5724TIP3    H138807   6.019   5.208   7.233 -0.3042 -0.0589  0.8692
 5724TIP3    H238808   5.886   5.273   7.266 -0.1106 -0.7185  3.1461
 5725TIP3   OH238809   0.010   3.715   1.642 -0.1263 -0.5463  0.3131
 5725TIP3    H138810  -0.041   3.695   1.721  0.3453 -0.7663  0.5670
 5725TIP3    H238811  -0.026   3.657   1.575 -1.7842  0.9343 -0.1483
 5726TIP3   OH238812   5.208   1.613   8.005 -0.1706  0.3672 -0.1164
 5726TIP3    H138813   5.239   1.693   7.962  0.6793  0.8645  1.3628
 5726TIP3    H238814   5.124   1.637   8.042 -0.7956  0.0040 -1.2357
 5727TIP3   OH238815   5.670   4.763   5.775 -1.0982 -0.2762 -0.0777
 5727TIP3    H138816   5.713   4.763   5.690 -0.5335 -0.5013  0.1990
 5727TIP3    H238817   5.647   4.671   5.790  0.7530 -0.6366  0.9486
 5728TIP3   OH238818   1.878   2.419   1.301  0.4926 -0.2607 -0.5186
 5728TIP3    H138819   1.851   2.501   1.261  0.9976 -1.0020 -2.5268
 5728TIP3    H238820   1.969   2.433   1.327  0.2028  0.1809  0.2992
 5729TIP3   OH238821   4.315   2.908   1.082 -0.4416 -0.0374  0.1481
 5729TIP3    H138822   4.375   2.948   1.019  1.1068 -1.3160  0.7330
 5729TIP3    H238823   4.365   2.904   1.164 -1.9670  0.4492  1.1619
 5730TIP3   OH238824   4.556   3.732   1.559 -0.1401  0.0724 -0.6113
 5730TIP3    H138825   4.576   3.813   1.514  0.1262 -0.8220 -2.1885
 5730TIP3    H238826   4.467   3.710   1.531  0.1177 -0.6199 -0.9118
 5731TIP3   OH238827   4.553   3.206   6.376  0.5060  0.0942  0.3002
 5731TIP3    H138828   4.595   3.146   6.315  1.3467 -0.1240  1.0674
 5731TIP3    H238829   4.550   3.290   6.330 -0.9396 -0.5658 -0.8949
 5732TIP3   OH238830   3.609   6.946   7.950 -0.0872 -0.0377  0.2685
 5732TIP3    H138831   3.631   6.956   8.043 -0.8485  0.1987  0.4312
 5732TIP3    H238832   3.514   6.956   7.947  0.0357  0.9863 -0.6736
 5733TIP3   OH238833   2.420   0.499   0.650  0.1043  0.4475 -0.0491
 5733TIP3    H138834   2.485   0.545   0.704  1.0702 -0.2753 -0.5625
 5733TIP3    H238835   2.419   0.410   0.686 -1.5883  0.7767  0.7972
 5734TIP3   OH238836   2.309   2.888   0.341  0.2848 -0.2571 -0.3923
 5734TIP3    H138837   2.254   2.855   0.412 -2.1950  2.4368 -0.8500
 5734TIP3    H238838   2.398   2.869   0.369 -0.6644 -0.8646  2.6068
 5735TIP3   OH238839   6.384   2.787   7.712  0.4246 -0.1451  0.0155
 5735TIP3    H138840   6.325   2.849   7.755  0.6063 -0.5846  0.9059
 5735TIP3    H238841   6.471   2.828   7.718  0.4852 -0.3102  0.2675
 5736TIP3   OH238842   2.771   2.871   2.365 -0.3122 -0.0489 -0.5147
 5736TIP3    H138843   2.809   2.800   2.416 -0.1293  1.2940  1.3374
 5736TIP3    H238844   2.842   2.936   2.359 -1.4519  1.3882  0.7630
 5737TIP3   OH238845   0.622   6.385   7.738 -0.0293  0.0027 -0.1238
 5737TIP3    H138846   0.530   6.362   7.725 -0.1358 -1.0490  2.0144
 5737TIP3    H238847   0.621   6.480   7.753 -0.9709 -0.1721  1.1323
 5738TIP3   OH238848   3.446   0.338   0.706  0.3959  0.1543 -0.4657
 5738TIP3    H138849   3.527   0.319   0.658  0.3674 -0.2201 -0.3626
 5738TIP3    H238850   3.419   0.424   0.672  1.2522  0.6551  0.0601
 5739TIP3   OH238851   2.616   5.563   7.748  0.5499 -0.2127 -0.2763
 5739TIP3    H138852   2.628   5.638   7.806  2.2373 -0.3856 -0.3745
 5739TIP3    H238853   2.591   5.602   7.664 -0.5614  0.1065  0.1805
 5740TIP3   OH238854   5.169   3.311   1.565 -0.6610  0.0497  0.1781
 5740TIP3    H138855   5.186   3.278   1.477  0.0388 -2.2782  1.1279
 5740TIP3    H238856   5.137   3.236   1.614 -0.1197  1.0461  2.1806
 5741TIP3   OH238857   5.128   3.107   1.198 -0.3174 -0.2085 -0.9569
 5741TIP3    H138858   5.070   3.182   1.212  1.2913  0.9501 -0.2512
 5741TIP3    H238859   5.075   3.046   1.147 -1.7582  1.2833 -1.3472
 5742TIP3   OH238860   2.451   0.233   7.946  0.0805 -0.0189  0.0080
 5742TIP3    H138861   2.533   0.253   7.901 -0.0724 -1.4355 -0.9445
 5742TIP3    H238862   2.414   0.159   7.898 -1.2218 -0.1178  1.0980
 5743TIP3   OH238863   4.080   1.315   0.567 -0.4319  0.6061 -0.3821
 5743TIP3    H138864   4.104   1.400   0.605 -0.5331  1.4357 -2.1040
 5743TIP3    H238865   4.139   1.253   0.610  1.5001  1.9153 -1.0055
 5744TIP3   OH238866   6.925   4.194   8.365 -0.9396  0.4656 -0.5970
 5744TIP3    H138867   6.860   4.160   8.427  0.1896  0.6398  0.7380
 5744TIP3    H238868   6.916   4.138   8.288 -3.2774  1.0664 -0.8147
 5745TIP3   OH238869   5.556   3.222   6.656  0.4902 -0.7134 -0.3348
 5745TIP3    H138870   5.641   3.266   6.660 -1.2202  2.9740 -0.6499
 5745TIP3    H238871   5.547   3.194   6.565  1.1337 -0.6983 -0.4069
 5746TIP3   OH238872   3.024   2.642   6.013  0.3320  0.1258 -0.1913
 5746TIP3    H138873   3.036   2.698   5.937  0.5646 -0.0417 -0.2820
 5746TIP3    H238874   3.037   2.700   6.089  0.8955  0.1288 -0.2852
 5747TIP3   OH238875   6.575   3.671   6.674  0.3249 -0.0553  0.1349
 5747TIP3    H138876   6.636   3.726   6.625 -0.3585 -0.4251 -1.2049
 5747TIP3    H238877   6.514   3.639   6.607 -0.5769 -0.6972  1.2318
 5748TIP3   OH238878   2.914   5.997   0.340  0.1596  1.0923 -0.1542
 5748TIP3    H138879   2.993   5.955   0.306  0.1830  2.0465 -1.3759
 5748TIP3    H238880   2.944   6.051   0.412  0.2605 -0.2656  0.8557
 5749TIP3   OH238881   6.924   4.573   0.257  0.0254  0.6835  0.0043
 5749TIP3    H138882   6.896   4.664   0.240 -0.0618  0.6832  0.1442
 5749TIP3    H238883   6.856   4.538   0.314 -0.5676  0.1647 -0.9833
 5750TIP3   OH238884   6.702   6.879   7.198  0.3079 -0.5196 -0.1520
 5750TIP3    H138885   6.617   6.917   7.221 -0.8564 -2.5482 -0.8763
 5750TIP3    H238886   6.747   6.949   7.150 -2.6743 -0.6070 -3.5281
 5751TIP3   OH238887   3.659   0.128   1.614 -0.3567  0.0373  0.1954
 5751TIP3    H138888   3.711   0.110   1.692  0.1200 -1.2913 -0.3956
 5751TIP3    H238889   3.569   0.110   1.640 -0.5308  2.0640  1.1411
 5752TIP3   OH238890   2.765   3.610   1.303 -0.0736  0.0389 -0.5551
 5752TIP3    H138891   2.687   3.623   1.249  0.4429  0.0765 -1.2941
 5752TIP3    H238892   2.761   3.518   1.328  0.1386 -0.1969 -1.3708
 5753TIP3   OH238893   5.224   2.983   1.451 -0.6821  0.0439  0.0345
 5753TIP3    H138894   5.294   3.037   1.489  1.3267 -3.4837  1.8625
 5753TIP3    H238895   5.225   3.005   1.358  0.9688  2.0711  0.4444
 5754TIP3   OH238896   5.998   6.227   7.922  0.7278 -0.2068  0.2538
 5754TIP3    H138897   6.091   6.214   7.937  0.6106 -1.4229  0.0183
 5754TIP3    H238898   5.958   6.143   7.945 -0.0972 -0.3155 -1.4541
 5755TIP3   OH238899   5.551   6.568   0.451 -0.1810  0.0310 -0.4524
 5755TIP3    H138900   5.508   6.640   0.405 -1.1238 -0.8564 -0.9866
 5755TIP3    H238901   5.583   6.510   0.381 -0.7406 -0.8182 -0.0157
 5756TIP3   OH238902   0.003   3.424   0.450  0.1009  0.1010 -0.0928
 5756TIP3    H138903  -0.063   3.493   0.441 -1.7441 -1.4897  0.3700
 5756TIP3    H238904   0.008   3.385   0.362 -0.4397 -0.4856  0.1263
 5757TIP3   OH238905   3.056   3.312   7.910 -0.6705 -0.6145 -0.2174
 5757TIP3    H138906   2.981   3.255   7.925 -1.2362  0.0500 -0.4702
 5757TIP3    H238907   3.045   3.384   7.971  0.6697 -1.3286  0.9398
 5758TIP3   OH238908   5.343   4.557   0.774 -0.3839  0.2478  0.8977
 5758TIP3    H138909   5.320   4.538   0.683 -2.4029  2.3087  0.9058
 5758TIP3    H238910   5.435   4.532   0.780  0.0892  0.9063 -1.9612
 5759TIP3   OH238911   5.862   2.403   1.106 -0.1332  0.0860 -0.3862
 5759TIP3    H138912   5.781   2.396   1.156  0.0197 -2.0662 -0.3139
 5759TIP3    H238913   5.898   2.488   1.129 -0.7991 -0.2128  2.0545
 5760TIP3   OH238914   4.346   4.258   7.388 -0.7707 -0.4231  0.7169
 5760TIP3    H138915   4.382   4.242   7.300  0.2401 -1.4204  1.2848
 5760TIP3    H238916   4.422   4.286   7.439 -1.3581  0.1712  1.2838
 5761TIP3   OH238917   1.425   0.376   8.546 -0.3158  0.0677 -0.5567
 5761TIP3    H138918   1.425   0.443   8.477  1.8480 -1.1583 -1.8738
 5761TIP3    H238919   1.518   0.357   8.561 -0.8214 -1.5830  0.8097
 5762TIP3   OH238920   4.382   4.248   2.265  0.0551 -0.0951 -0.4539
 5762TIP3    H138921   4.437   4.314   2.306  0.0184  0.5634 -1.4319
 5762TIP3    H238922   4.348   4.196   2.338  2.7700 -1.2124  0.1350
 5763TIP3   OH238923   1.946   4.116   8.153  0.7230 -0.6286 -0.2901
 5763TIP3    H138924   1.952   4.104   8.058  0.3878  0.8241 -0.5150
 5763TIP3    H238925   1.855   4.094   8.174  1.0856 -2.0697 -0.1026
 5764TIP3   OH238926   2.744   6.422   0.196 -0.4163 -0.4342 -0.0978
 5764TIP3    H138927   2.837   6.404   0.202 -0.4716 -2.1746 -2.6751
 5764TIP3    H238928   2.702   6.336   0.205 -1.6300  0.0617 -0.7078
 5765TIP3   OH238929   3.597   6.622   6.769  0.3584 -0.2493  0.3160
 5765TIP3    H138930   3.665   6.555   6.763 -0.5351 -1.2167  0.7572
 5765TIP3    H238931   3.645   6.705   6.767  1.4851 -0.8967 -0.1895
 5766TIP3   OH238932   4.737   6.522   1.349 -0.3900 -0.5054 -0.0250
 5766TIP3    H138933   4.772   6.438   1.379  0.1336 -1.4109 -2.8644
 5766TIP3    H238934   4.653   6.500   1.308 -0.2182  0.3381 -0.8537
 5767TIP3   OH238935   1.725   1.445   0.055 -0.1567 -0.3513  0.5504
 5767TIP3    H138936   1.779   1.463   0.132 -0.4506  1.2649  0.4163
 5767TIP3    H238937   1.650   1.504   0.065  0.0209  0.2185 -1.1898
 5768TIP3   OH238938   3.990   3.604   0.598  0.0909 -0.3245 -0.2073
 5768TIP3    H138939   3.914   3.595   0.540 -1.7439  0.1969  1.9665
 5768TIP3    H238940   3.969   3.547   0.672  0.9531  1.2209  1.2800
 5769TIP3   OH238941   6.054   4.039   8.276  0.4660 -0.6577  0.6782
 5769TIP3    H138942   6.114   4.084   8.217  0.5258 -2.8026 -0.9857
 5769TIP3    H238943   6.100   4.038   8.360  0.9900  1.1948  0.4758
 5770TIP3   OH238944   6.942   1.966   0.378  0.3100 -0.1371 -0.9067
 5770TIP3    H138945   6.984   2.000   0.457 -0.2110 -0.6938 -0.3779
 5770TIP3    H238946   6.985   1.881   0.364 -0.7769 -0.8391 -0.2056
 5771TIP3   OH238947   3.594   0.340   0.926 -0.6876 -0.2508 -0.0351
 5771TIP3    H138948   3.511   0.324   0.881 -0.5112 -0.0392 -0.4441
 5771TIP3    H238949   3.572   0.402   0.995 -0.9935 -0.7085  0.2797
 5772TIP3   OH238950   2.453   2.380   8.427 -0.2073 -0.0406  0.3649
 5772TIP3    H138951   2.523   2.370   8.491  0.3618  1.1852 -0.0385
 5772TIP3    H238952   2.495   2.367   8.342 -0.4816  0.5707  0.1257
 5773TIP3   OH238953   6.000   3.371   6.961  0.0419 -0.3668 -0.4507
 5773TIP3    H138954   5.995   3.454   6.914  0.3741  0.1391  0.4013
 5773TIP3    H238955   5.915   3.361   7.003 -0.4460 -1.0743 -1.5499
 5774TIP3   OH238956   5.299   3.983   1.024  0.4703  1.4275  0.4833
 5774TIP3    H138957   5.380   4.022   1.057  0.6962  0.6447  0.8836
 5774TIP3    H238958   5.291   4.018   0.935  1.6858  0.9080  0.1398
 5775TIP3   OH238959   3.049   6.195   2.463  0.1692 -0.2309 -0.0033
 5775TIP3    H138960   2.965   6.241   2.467  0.0458 -0.5019  0.6188
 5775TIP3    H238961   3.031   6.116   2.413  0.3486  0.3082 -0.9494
 5776TIP3   OH238962   6.019   5.721   6.998  0.1920  0.2857 -0.7355
 5776TIP3    H138963   6.007   5.780   6.923 -0.0872  0.4835 -0.5353
 5776TIP3    H238964   6.067   5.646   6.962 -0.4243  0.1228 -1.2443
 5777TIP3   OH238965   6.378   5.353   0.334 -0.4699  0.3018 -0.4451
 5777TIP3    H138966   6.314   5.404   0.385 -0.8231 -2.4269  2.1202
 5777TIP3    H238967   6.439   5.320   0.400  1.3880 -0.2845 -2.3658
 5778TIP3   OH238968   6.582   0.029   8.552 -0.2592  0.7901 -0.3919
 5778TIP3    H138969   6.521   0.002   8.621  0.6729 -1.7173 -0.4493
 5778TIP3    H238970   6.651  -0.038   8.554  1.2270  2.1990 -1.9376
 5779TIP3   OH238971   0.949   5.672   0.654  0.3386 -0.3244  0.5303
 5779TIP3    H138972   1.020   5.727   0.688  1.8068 -1.3118 -0.8148
 5779TIP3    H238973   0.946   5.597   0.713  1.6818 -1.1618 -0.4073
 5780TIP3   OH238974   0.558   2.414   6.853  0.1445 -0.5983  0.2173
 5780TIP3    H138975   0.518   2.397   6.939  0.8821 -2.3059  0.2680
 5780TIP3    H238976   0.617   2.488   6.868 -0.1677 -0.5119  1.0517
 5781TIP3   OH238977   6.227   3.307   0.727  0.3063  0.2516  0.3677
 5781TIP3    H138978   6.205   3.248   0.655 -0.3020  0.3218  0.4907
 5781TIP3    H238979   6.241   3.250   0.803 -1.6026  0.3360  0.8129
 5782TIP3   OH238980   6.216   5.841   1.516  0.1761 -0.5515  0.1234
 5782TIP3    H138981   6.205   5.872   1.606  0.2084 -0.4184  0.0804
 5782TIP3    H238982   6.294   5.886   1.484 -0.3747  0.1136 -0.2930
 5783TIP3   OH238983   6.189   3.921   1.237 -0.0204  0.3809  0.0929
 5783TIP3    H138984   6.229   3.991   1.185  0.5550 -1.2940 -1.8132
 5783TIP3    H238985   6.245   3.913   1.313 -0.3378  2.2406  0.5901
 5784TIP3   OH238986   1.186   3.565   0.274  0.0398  0.1524  0.5161
 5784TIP3    H138987   1.135   3.551   0.195 -0.0341  0.7032  0.4629
 5784TIP3    H238988   1.121   3.587   0.341 -0.1530 -2.4159  1.3001
 5785TIP3   OH238989   4.701   6.065   0.397 -0.1202 -0.3581  0.1322
 5785TIP3    H138990   4.729   6.030   0.312 -0.4272 -0.1132 -0.0682
 5785TIP3    H238991   4.654   6.145   0.377  0.9048  0.3939  0.6203
 5786TIP3   OH238992   3.622   4.294   7.843  0.5716 -0.2436 -0.7388
 5786TIP3    H138993   3.543   4.344   7.860  0.1199 -0.9943 -0.5777
 5786TIP3    H238994   3.678   4.354   7.793  0.7202  0.9888  0.8172
 5787TIP3   OH238995   2.319   0.529   7.064 -0.0584 -0.1862 -0.0446
 5787TIP3    H138996   2.265   0.540   6.985 -0.2776  1.9651  0.3384
 5787TIP3    H238997   2.274   0.463   7.115 -1.6743  0.6781 -0.3006
 5788TIP3   OH238998   3.202   5.413   6.902  0.3370 -0.3938  0.5345
 5788TIP3    H138999   3.137   5.368   6.848 -0.4513  0.1951  0.9697
 5788TIP3    H239000   3.234   5.345   6.962  1.7149 -1.2287 -1.0531
 5789TIP3   OH239001   0.503   5.897   1.329  0.4086  0.1149  0.2445
 5789TIP3    H139002   0.567   5.929   1.393 -0.3307  0.4008  0.8537
 5789TIP3    H239003   0.541   5.815   1.297  0.4040 -0.4989  1.6961
 5790TIP3   OH239004   6.850   5.735   0.960  0.6494  0.2049  0.4436
 5790TIP3    H139005   6.847   5.711   0.867  1.1454  0.5198  0.3388
 5790TIP3    H239006   6.920   5.682   0.997  0.0576 -0.3579  0.7782
 5791TIP3   OH239007   6.603   1.106   7.806  0.2432 -0.2276  0.1262
 5791TIP3    H139008   6.586   1.081   7.896  0.5816 -1.7292 -0.1874
 5791TIP3    H239009   6.544   1.051   7.754 -0.6858  1.3500 -0.5367
 5792TIP3   OH239010   5.493   5.331   7.082 -0.3440 -0.7729 -0.5753
 5792TIP3    H139011   5.413   5.294   7.119 -0.6507  0.5019  0.0723
 5792TIP3    H239012   5.478   5.330   6.987 -0.4776 -1.9534 -0.5580
 5793TIP3   OH239013   5.246   2.437   1.285 -0.3691  0.2811  0.0715
 5793TIP3    H139014   5.175   2.372   1.284  0.7131 -0.9628  0.3093
 5793TIP3    H239015   5.297   2.417   1.206  0.0364  0.7885  0.2022
 5794TIP3   OH239016   3.810   0.351   7.503 -0.8514  1.0572  0.3004
 5794TIP3    H139017   3.842   0.363   7.414  0.7986 -2.8928  0.1533
 5794TIP3    H239018   3.734   0.292   7.495 -0.1698 -0.0569  1.4664
 5795TIP3   OH239019   4.055   0.809   7.907 -0.3972  0.6551 -0.1811
 5795TIP3    H139020   4.116   0.764   7.965  0.8208  0.9911 -1.1415
 5795TIP3    H239021   3.999   0.739   7.873 -1.1492  0.4615  1.3684
 5796TIP3   OH239022   2.837   4.273   0.868 -0.8755  0.2711  0.3214
 5796TIP3    H139023   2.895   4.278   0.791 -1.3101 -1.6363 -0.1847
 5796TIP3    H239024   2.894   4.294   0.942  0.6062 -1.8140 -0.1303
 5797TIP3   OH239025   4.680   6.030   1.861  0.1575  0.0972  0.3422
 5797TIP3    H139026   4.758   6.068   1.901  0.2380  0.7987 -0.4562
 5797TIP3    H239027   4.607   6.073   1.904  0.1336 -1.6115  2.1452
 5798TIP3   OH239028   0.619   1.992   6.499 -0.0308  0.3805  0.0552
 5798TIP3    H139029   0.586   1.940   6.426 -0.7166  1.1525 -0.1859
 5798TIP3    H239030   0.685   2.049   6.460 -0.7414  1.1353 -0.0604
 5799TIP3   OH239031   5.466   4.389   7.019  0.1751  0.1900  0.4426
 5799TIP3    H139032   5.397   4.451   7.043  0.4006  0.0594  1.4823
 5799TIP3    H239033   5.491   4.348   7.102  1.3081  0.0296  0.0384
 5800TIP3   OH239034   4.851   5.495   7.371  0.4753  0.2391  0.2886
 5800TIP3    H139035   4.901   5.574   7.393  0.9066  0.2502 -0.7028
 5800TIP3    H239036   4.911   5.423   7.388 -0.5737 -0.0920  3.2281
 5801TIP3   OH239037   0.477   3.624   8.449  0.2672 -0.6136 -0.1269
 5801TIP3    H139038   0.508   3.715   8.451  1.4206 -0.9931 -0.0280
 5801TIP3    H239039   0.493   3.596   8.359  1.5344 -1.2430  0.2731
 5802TIP3   OH239040   2.876   5.167   7.380 -0.1159 -0.3797 -0.1926
 5802TIP3    H139041   2.961   5.211   7.374 -0.5880  0.3764 -1.8074
 5802TIP3    H239042   2.897   5.079   7.410  1.3130 -0.3617 -1.0307
 5803TIP3   OH239043   3.439   5.452   7.200  0.0971  0.7063 -0.4477
 5803TIP3    H139044   3.453   5.487   7.112 -1.6010 -0.2955 -1.1721
 5803TIP3    H239045   3.421   5.528   7.254  1.1227  1.3357 -0.9702
 5804TIP3   OH239046   1.430   2.227   1.604 -0.0505  0.1374  0.6656
 5804TIP3    H139047   1.384   2.271   1.676 -0.8162 -1.7762  1.4348
 5804TIP3    H239048   1.451   2.140   1.639  0.6704 -0.4095 -1.0256
 5805TIP3   OH239049   1.823   0.819   1.427 -0.3258 -0.1132  0.7799
 5805TIP3    H139050   1.839   0.906   1.463  1.2881 -0.1502  0.2017
 5805TIP3    H239051   1.818   0.761   1.503  2.7887 -0.1529  1.0803
 5806TIP3   OH239052   5.059   2.734   7.990 -0.0637  0.4109 -0.0813
 5806TIP3    H139053   5.105   2.729   8.074 -0.9507 -1.0056  0.3675
 5806TIP3    H239054   5.004   2.655   7.988 -1.9818  1.6721 -0.8600
 5807TIP3   OH239055   0.776   3.177   0.529 -0.1305 -1.2857 -0.2468
 5807TIP3    H139056   0.776   3.178   0.433 -1.4468 -0.7640 -0.2588
 5807TIP3    H239057   0.684   3.165   0.553  0.0369 -0.3505  0.9612
 5808TIP3   OH239058   3.649   4.579   0.786 -0.1290  0.4429 -0.2813
 5808TIP3    H139059   3.605   4.494   0.793  0.2232  0.1214 -1.6432
 5808TIP3    H239060   3.713   4.578   0.857 -0.9378  0.0750  0.4643
 5809TIP3   OH239061   3.671   2.042   6.834  0.5201  0.1480 -0.4239
 5809TIP3    H139062   3.696   1.961   6.789  1.9079  0.4895 -0.3148
 5809TIP3    H239063   3.748   2.097   6.828  0.3124  0.6773  1.3055
 5810TIP3   OH239064   6.269   4.232   0.160  0.7070  0.0748 -0.7825
 5810TIP3    H139065   6.286   4.151   0.113  1.3055  0.8991 -2.0438
 5810TIP3    H239066   6.190   4.214   0.212  1.0564 -1.4182 -0.7310
 5811TIP3   OH239067   3.836   0.680   8.534  0.5241 -0.4913  0.2000
 5811TIP3    H139068   3.751   0.715   8.508  0.8507 -0.9767 -1.6751
 5811TIP3    H239069   3.840   0.694   8.628 -2.0066 -1.2455  0.5082
 5812TIP3   OH239070   5.947   0.816   1.295  0.0547 -0.4569  0.2240
 5812TIP3    H139071   6.020   0.877   1.300  0.6225 -1.0479 -0.5958
 5812TIP3    H239072   5.961   0.755   1.367  0.0335 -0.2259  0.4277
 5813TIP3   OH239073   1.315   3.398   1.882 -0.0220  0.1168  0.1766
 5813TIP3    H139074   1.284   3.430   1.967  0.6076 -0.3600  0.5927
 5813TIP3    H239075   1.367   3.470   1.846 -1.4178  0.8588 -0.4488
 5814TIP3   OH239076   6.626   1.470   6.276  0.3409  0.2194 -0.1092
 5814TIP3    H139077   6.711   1.432   6.252 -0.3794 -1.1421 -0.6196
 5814TIP3    H239078   6.616   1.545   6.218 -0.1730 -1.4683 -2.3668
 5815TIP3   OH239079   6.143   3.096   7.576 -0.7267  0.2268 -0.1393
 5815TIP3    H139080   6.065   3.138   7.541 -1.2119 -1.3044 -1.0065
 5815TIP3    H239081   6.111   3.016   7.617  0.3651 -0.4001 -0.4502
 5816TIP3   OH239082   4.709   1.197   1.927 -0.2093 -0.2411  0.4309
 5816TIP3    H139083   4.640   1.263   1.922 -0.4043 -0.4989 -0.9260
 5816TIP3    H239084   4.790   1.247   1.929 -0.3823  0.0518  0.1869
 5817TIP3   OH239085   3.687   0.317   1.371  0.1600  0.3818  0.3003
 5817TIP3    H139086   3.777   0.306   1.399 -0.1303 -3.1135  0.2154
 5817TIP3    H239087   3.637   0.255   1.424 -2.1723  1.8110 -0.0422
 5818TIP3   OH239088   1.900   4.743   7.866  0.6623 -0.2839  0.3104
 5818TIP3    H139089   1.935   4.663   7.903 -0.1273 -0.4968  0.6148
 5818TIP3    H239090   1.806   4.738   7.882  0.6585  0.9510  0.8229
 5819TIP3   OH239091   2.163   0.295   7.820 -0.2174  0.2212 -0.3480
 5819TIP3    H139092   2.251   0.328   7.840 -0.6917  0.7920  0.9155
 5819TIP3    H239093   2.120   0.288   7.905 -0.7507 -1.9912 -0.7489
 5820TIP3   OH239094   5.988   6.733   6.663  0.7112  0.3354 -0.1813
 5820TIP3    H139095   5.990   6.693   6.750  0.6241  1.0155  0.1402
 5820TIP3    H239096   6.080   6.744   6.639  0.7962 -1.7510 -1.0916
 5821TIP3   OH239097   4.912   4.396   1.370 -0.5799 -0.2510  0.3079
 5821TIP3    H139098   4.897   4.377   1.463 -0.5691 -1.7646  0.0197
 5821TIP3    H239099   4.971   4.472   1.371 -1.2647  0.2982  1.5178
 5822TIP3   OH239100   3.869   3.098   7.345  0.5663  0.5341  0.3176
 5822TIP3    H139101   3.886   3.014   7.303 -1.6440  0.3946 -0.4267
 5822TIP3    H239102   3.873   3.161   7.273 -0.1913  0.7228  0.4378
 5823TIP3   OH239103   4.458   1.717   1.645  0.2788  0.1049  0.3416
 5823TIP3    H139104   4.369   1.683   1.658  0.3061 -1.2155 -2.1126
 5823TIP3    H239105   4.491   1.666   1.570  1.5276  3.4583 -1.6041
 5824TIP3   OH239106   5.552   2.951   8.254 -0.4676  0.3700  0.1815
 5824TIP3    H139107   5.502   2.903   8.320 -0.6649  0.7788  0.3279
 5824TIP3    H239108   5.546   3.043   8.280  1.5245  0.3256  1.0001
 5825TIP3   OH239109   6.441   0.984   0.531 -0.2900 -0.4743 -0.9330
 5825TIP3    H139110   6.519   0.972   0.584 -1.0202 -0.1672  0.2437
 5825TIP3    H239111   6.467   1.047   0.464  0.1355  0.6099  0.2056
 5826TIP3   OH239112   5.948   0.938   0.776  0.5792 -0.1351 -0.2687
 5826TIP3    H139113   5.933   0.867   0.714 -0.7367 -0.7331  0.6784
 5826TIP3    H239114   5.897   0.913   0.853 -0.6413  2.2422 -0.2065
 5827TIP3   OH239115   0.149   6.576   0.966 -0.1886 -0.0515  0.4405
 5827TIP3    H139116   0.078   6.529   0.922  0.1038 -0.3514  0.2790
 5827TIP3    H239117   0.154   6.536   1.053  0.5179 -0.8241  0.0685
 5828TIP3   OH239118   5.256   3.268   6.791 -0.5743 -0.1187  0.3790
 5828TIP3    H139119   5.195   3.304   6.727 -0.8768  0.0458  0.7569
 5828TIP3    H239120   5.218   3.184   6.816 -1.2035  0.4436  1.3871
 5829TIP3   OH239121   6.511   3.914   7.552 -0.9430  0.1473 -0.2837
 5829TIP3    H139122   6.447   3.848   7.575 -1.1910  1.1750  2.2864
 5829TIP3    H239123   6.588   3.864   7.524 -1.3689 -1.2179  0.8647
 5830TIP3   OH239124   5.315   2.678   1.470  0.1937 -0.2166 -0.3705
 5830TIP3    H139125   5.301   2.613   1.401 -2.4032 -0.4529  0.2409
 5830TIP3    H239126   5.347   2.756   1.424 -2.1724 -0.1168 -2.0391
 5831TIP3   OH239127   3.394   3.857   0.254 -0.0164 -0.5931  0.3977
 5831TIP3    H139128   3.380   3.891   0.166 -0.3561  1.0164  1.0254
 5831TIP3    H239129   3.307   3.833   0.286 -0.1801  0.6827  0.9734
 5832TIP3   OH239130   4.498   6.474   1.703 -0.1563 -0.5680 -0.4831
 5832TIP3    H139131   4.578   6.427   1.727 -1.3217 -2.5317 -0.2892
 5832TIP3    H239132   4.432   6.443   1.764 -1.1591  0.8321 -0.7985
 5833TIP3   OH239133   4.481   6.364   0.364  0.5213 -0.0053  0.3110
 5833TIP3    H139134   4.483   6.366   0.459  0.6067 -0.0551  0.3100
 5833TIP3    H239135   4.400   6.411   0.341  2.0462  2.8205  0.3240
 5834TIP3   OH239136   1.116   3.372   1.701  0.0650  0.2449 -0.3857
 5834TIP3    H139137   1.164   3.392   1.621 -1.0360 -0.4444 -1.2477
 5834TIP3    H239138   1.179   3.388   1.772  1.1611  0.5274 -1.4008
 5835TIP3   OH239139   4.908   4.879   7.190  0.4823  0.1518  0.3911
 5835TIP3    H139140   4.979   4.942   7.179  1.5876 -1.3094 -1.4065
 5835TIP3    H239141   4.830   4.925   7.159  1.0191  1.0392  0.3167
 5836TIP3   OH239142   0.344   4.161   0.423 -0.2266 -0.6400  0.1378
 5836TIP3    H139143   0.282   4.202   0.484  1.5206  0.6266  1.1467
 5836TIP3    H239144   0.311   4.185   0.336 -1.6206 -0.7469  0.6088
 5837TIP3   OH239145   1.950   2.187   1.833 -0.1187  0.0987  0.0850
 5837TIP3    H139146   2.045   2.178   1.819 -0.3176  0.2861 -1.6198
 5837TIP3    H239147   1.911   2.152   1.753 -1.3844  2.2061 -0.2965
 5838TIP3   OH239148   2.390   2.386   0.689 -0.0977 -0.7570  0.2753
 5838TIP3    H139149   2.483   2.383   0.669 -0.4017 -1.9671 -1.1010
 5838TIP3    H239150   2.377   2.321   0.759  0.2410  0.2348  1.2946
 5839TIP3   OH239151   3.410   6.486   8.047 -0.6073 -0.5568 -0.4290
 5839TIP3    H139152   3.448   6.432   8.117 -0.0701 -0.6605 -0.7970
 5839TIP3    H239153   3.388   6.569   8.090 -1.4547 -1.0650  0.1441
 5840TIP3   OH239154   3.185   4.053   6.978  0.6621 -0.0915 -0.3607
 5840TIP3    H139155   3.261   4.102   7.008  0.2299  0.0768  0.4773
 5840TIP3    H239156   3.221   3.979   6.929  1.3482  0.2030 -0.2971
 5841TIP3   OH239157   1.202   3.557   6.989  1.0664  0.3565  0.8203
 5841TIP3    H139158   1.130   3.531   7.046  1.1370  1.1673  1.2988
 5841TIP3    H239159   1.183   3.648   6.966 -0.5336 -0.7407 -2.9069
 5842TIP3   OH239160   6.792   6.649   7.981 -0.4442  0.6143  0.2802
 5842TIP3    H139161   6.760   6.592   7.911 -0.5188 -0.6022  1.2645
 5842TIP3    H239162   6.868   6.693   7.943  0.3089 -0.9916 -0.1998
 5843TIP3   OH239163   0.050   2.115   7.257  0.0464 -1.0160  0.2266
 5843TIP3    H139164  -0.037   2.075   7.249 -0.9490  1.0578 -0.0711
 5843TIP3    H239165   0.096   2.060   7.321 -1.4009 -2.2840  0.2442
 5844TIP3   OH239166   1.277   5.952   7.606 -0.0912 -0.2268  0.4670
 5844TIP3    H139167   1.260   5.939   7.513 -0.8180 -0.7616  0.6696
 5844TIP3    H239168   1.190   5.966   7.645  0.3163  1.5269  0.8364
 5845TIP3   OH239169   3.797   5.409   1.611  0.2760  0.1066  0.8857
 5845TIP3    H139170   3.835   5.493   1.588  1.1012 -0.7454 -1.0875
 5845TIP3    H239171   3.866   5.345   1.594 -0.6334 -1.0673  1.4146
 5846TIP3   OH239172   5.390   6.082   6.821 -0.6637 -0.2945  0.5471
 5846TIP3    H139173   5.424   6.104   6.908 -1.2670  1.6053  0.3629
 5846TIP3    H239174   5.413   6.158   6.767 -1.9481 -0.5891 -0.4675
 5847TIP3   OH239175   5.984   4.442   7.853 -0.2240 -0.3448  0.8397
 5847TIP3    H139176   6.022   4.372   7.800  0.5047 -0.2191  1.1926
 5847TIP3    H239177   5.914   4.399   7.903  0.4125 -0.8904  1.2807
 5848TIP3   OH239178   1.299   1.264   6.970 -0.3152 -0.7663 -0.0798
 5848TIP3    H139179   1.368   1.211   7.009  0.8793 -0.3700 -1.5638
 5848TIP3    H239180   1.300   1.241   6.877 -1.4835  0.0012 -0.3102
 5849TIP3   OH239181   5.107   2.696   0.702  0.3173 -0.0167  0.2786
 5849TIP3    H139182   5.064   2.713   0.786 -0.7363  0.4687 -0.3329
 5849TIP3    H239183   5.188   2.747   0.706  1.6572 -2.1259  2.0506
 5850TIP3   OH239184   6.164   3.564   1.868  0.2286  0.0206  0.3969
 5850TIP3    H139185   6.101   3.635   1.856 -1.6443 -1.7811 -0.9906
 5850TIP3    H239186   6.157   3.541   1.960  0.3644  1.1477  0.7065
 5851TIP3   OH239187   6.941   4.838   1.002 -0.6419  0.1601 -0.3664
 5851TIP3    H139188   6.978   4.774   0.941 -0.7573  0.3887 -0.6784
 5851TIP3    H239189   7.006   4.909   1.004  1.6819 -1.7438  3.2274
 5852TIP3   OH239190   4.391   2.940   0.163 -0.2796  0.1824  0.2762
 5852TIP3    H139191   4.313   2.991   0.188 -0.6065 -0.6543  0.9967
 5852TIP3    H239192   4.440   2.930   0.244  1.2965  1.8207 -0.4016
 5853TIP3   OH239193   5.322   6.487   1.695 -0.1709 -0.9180  0.2987
 5853TIP3    H139194   5.307   6.427   1.622  1.8896 -0.8284 -0.2783
 5853TIP3    H239195   5.393   6.544   1.664 -1.3295  1.1229  1.2454
 5854TIP3   OH239196   5.781   2.819   8.320 -0.5142 -0.1145  0.2943
 5854TIP3    H139197   5.817   2.796   8.235  0.9126  2.1513  0.1912
 5854TIP3    H239198   5.704   2.872   8.300  0.2496  1.0617  0.3363
 5855TIP3   OH239199   6.797   6.452   6.851  0.6402 -0.1485  0.2356
 5855TIP3    H139200   6.796   6.378   6.912  0.4745  1.5822  2.4554
 5855TIP3    H239201   6.849   6.519   6.895  1.3871  0.8638 -2.0184
 5856TIP3   OH239202   5.300   1.842   7.877 -0.0779  0.4925 -0.2428
 5856TIP3    H139203   5.300   1.933   7.848 -0.9547  0.2283 -1.1244
 5856TIP3    H239204   5.272   1.792   7.801  0.5365 -0.5439  0.1838
 5857TIP3   OH239205   5.035   4.859   6.234 -0.0003  0.0813  0.2696
 5857TIP3    H139206   4.968   4.919   6.267  0.2613 -0.1070  1.1998
 5857TIP3    H239207   5.034   4.786   6.297 -0.8978 -1.3232 -1.2720
 5858TIP3   OH239208   6.194   3.097   1.953  0.4834 -0.0898 -0.1688
 5858TIP3    H139209   6.155   3.157   1.890 -2.3215 -1.8186 -0.2818
 5858TIP3    H239210   6.273   3.064   1.910  0.3321  1.0866 -1.4199
 5859TIP3   OH239211   5.758   6.488   7.701 -0.2943 -0.3834 -0.4298
 5859TIP3    H139212   5.843   6.459   7.670 -0.5265  0.0352 -1.4896
 5859TIP3    H239213   5.774   6.514   7.792  1.7503  3.6707 -1.6750
 5860TIP3   OH239214   1.165   2.499   6.582 -0.0505  0.7738  0.8323
 5860TIP3    H139215   1.076   2.527   6.606 -0.1845  0.5684  0.5778
 5860TIP3    H239216   1.213   2.581   6.569 -0.3577  0.8882  0.3957
 5861TIP3   OH239217   6.758   4.144   0.060  1.0909 -0.8435  0.1837
 5861TIP3    H139218   6.839   4.124   0.107  0.1822 -1.0086  1.7261
 5861TIP3    H239219   6.694   4.083   0.095  0.5850 -1.6668 -2.0068
 5862TIP3   OH239220   2.743   0.217   1.060 -0.0868 -0.3353 -0.2110
 5862TIP3    H139221   2.676   0.283   1.080  0.7236  0.6930 -0.8287
 5862TIP3    H239222   2.720   0.144   1.117 -1.8212 -0.0714 -0.4868
 5863TIP3   OH239223   3.234   4.201   0.877 -0.3226  0.5001 -0.2112
 5863TIP3    H139224   3.252   4.185   0.969 -0.8742 -0.5733 -0.2830
 5863TIP3    H239225   3.205   4.292   0.873  0.3091  0.7399  0.5785
 5864TIP3   OH239226   2.129   2.016   1.067  0.2621 -0.2291 -0.4107
 5864TIP3    H139227   2.216   2.052   1.055  0.2551  0.1973  0.6959
 5864TIP3    H239228   2.126   1.991   1.160 -1.5401  1.8413  0.1696
 5865TIP3   OH239229   3.959   5.695   1.971 -0.1262 -0.6402  0.4507
 5865TIP3    H139230   3.924   5.758   2.035  0.5925  2.0403 -1.6259
 5865TIP3    H239231   3.896   5.623   1.972 -1.8366  0.7699  1.8905
 5866TIP3   OH239232   2.503   1.422   1.952 -0.1259 -0.0271 -0.4827
 5866TIP3    H139233   2.408   1.431   1.956 -0.1284 -0.0740 -0.4390
 5866TIP3    H239234   2.525   1.366   2.026 -0.0831 -0.1656 -0.6001
 5867TIP3   OH239235   3.466   5.217   1.746 -0.3966 -0.1055  0.3322
 5867TIP3    H139236   3.482   5.229   1.840  0.7178  0.1236  0.1294
 5867TIP3    H239237   3.489   5.126   1.729  1.2785  0.3539 -0.0521
 5868TIP3   OH239238   6.680   6.368   7.489 -0.5942 -0.0894 -0.0728
 5868TIP3    H139239   6.616   6.407   7.549  0.6608  2.3739 -0.2079
 5868TIP3    H239240   6.748   6.332   7.547 -0.2959  0.6368  0.0444
 5869TIP3   OH239241   1.427   6.000   1.883  0.2715  0.4657  0.0594
 5869TIP3    H139242   1.521   6.003   1.904  0.1599  1.4606  0.4391
 5869TIP3    H239243   1.392   5.932   1.941  0.5052  1.0973  0.9648
 5870TIP3   OH239244   4.714   2.012   1.375 -0.4421 -0.2201  0.0779
 5870TIP3    H139245   4.765   2.023   1.295  0.6069 -2.0460  0.4459
 5870TIP3    H239246   4.687   1.921   1.374 -2.7992  0.3961  0.4856
 5871TIP3   OH239247   5.512   0.219   7.118  0.1697  0.2272 -0.4060
 5871TIP3    H139248   5.548   0.216   7.030  1.1285  0.2403 -0.0227
 5871TIP3    H239249   5.499   0.127   7.143  0.1490  0.2169 -0.4554
 5872TIP3   OH239250   4.107   4.403   7.483 -0.3226  0.2002  0.0119
 5872TIP3    H139251   4.172   4.354   7.433 -0.4112 -0.8770  0.9339
 5872TIP3    H239252   4.047   4.437   7.417  0.9108  0.8475 -0.8151
 5873TIP3   OH239253   5.704   3.752   6.458 -0.3717  0.4201 -0.1709
 5873TIP3    H139254   5.619   3.783   6.488 -0.4243  0.8472 -0.7438
 5873TIP3    H239255   5.768   3.796   6.514 -0.5097  0.4536 -0.0411
 5874TIP3   OH239256   0.188   1.269   1.726  0.0240  0.1485 -0.0046
 5874TIP3    H139257   0.253   1.308   1.667  0.5950 -0.0381  0.4913
 5874TIP3    H239258   0.205   1.311   1.811 -0.9237  0.5663 -0.0160
 5875TIP3   OH239259   1.067   1.722   7.941  0.0253  0.1945 -0.2890
 5875TIP3    H139260   0.997   1.775   7.980  0.0378  0.4307 -0.5766
 5875TIP3    H239261   1.080   1.649   8.002  1.2717  1.4822  1.0912
 5876TIP3   OH239262   2.388   0.944   7.619  0.5693 -0.2679  0.0580
 5876TIP3    H139263   2.353   0.863   7.582  0.0865  1.1467 -2.8201
 5876TIP3    H239264   2.483   0.937   7.607  0.5055 -0.2870 -0.4366
 5877TIP3   OH239265   1.714   3.236   1.677 -0.6226 -0.0728 -0.0318
 5877TIP3    H139266   1.771   3.207   1.748  0.8749  1.0615 -0.7044
 5877TIP3    H239267   1.625   3.221   1.710  0.0193  0.2370  2.0095
 5878TIP3   OH239268   1.229   3.064   7.985  0.8045 -0.1972  0.2273
 5878TIP3    H139269   1.239   2.978   8.025 -1.0804  0.1029  1.5152
 5878TIP3    H239270   1.280   3.122   8.041 -1.0184  0.0583  1.7529
 5879TIP3   OH239271   4.406   2.410   7.190  0.6545  0.1489 -0.2448
 5879TIP3    H139272   4.370   2.327   7.224 -1.2662  1.2188  0.5002
 5879TIP3    H239273   4.380   2.410   7.098  2.0018 -0.7344 -0.6573
 5880TIP3   OH239274   5.344   2.491   7.129 -0.2333 -0.7203 -0.7113
 5880TIP3    H139275   5.279   2.524   7.192 -1.0032  0.5209 -2.0760
 5880TIP3    H239276   5.418   2.551   7.138  0.0382 -1.1108 -0.3373
 5881TIP3   OH239277   5.710   2.084   0.356 -0.0798  0.7974  0.0492
 5881TIP3    H139278   5.645   2.141   0.314 -0.2875  0.8994  0.5039
 5881TIP3    H239279   5.768   2.058   0.285  0.0122  1.5706 -0.1700
 5882TIP3   OH239280   6.903   1.153   7.615 -0.0861  0.2505 -0.2550
 5882TIP3    H139281   6.970   1.085   7.627 -0.9944 -0.2982  2.2245
 5882TIP3    H239282   6.823   1.114   7.650 -0.7266  2.4431  0.9198
 5883TIP3   OH239283   3.169   6.126   7.748  0.1540  0.4125  0.1815
 5883TIP3    H139284   3.140   6.181   7.676  0.4650  2.2288  1.3848
 5883TIP3    H239285   3.214   6.185   7.808  1.6719 -1.3869  0.9396
 5884TIP3   OH239286   3.564   0.290   6.260  0.3363 -0.3438 -0.4115
 5884TIP3    H139287   3.480   0.302   6.305  0.4853 -0.7238 -0.0255
 5884TIP3    H239288   3.590   0.379   6.235  0.4043 -0.0836  0.5447
 5885TIP3   OH239289   0.170   6.943   7.253 -0.3493  0.3533 -0.0098
 5885TIP3    H139290   0.210   6.860   7.228 -0.4858  0.7322 -1.6019
 5885TIP3    H239291   0.239   7.008   7.240 -1.1001  0.8657 -1.7096
 5886TIP3   OH239292   5.114   2.656   7.739 -0.0492 -0.1592 -0.3131
 5886TIP3    H139293   5.031   2.621   7.708 -0.1445  0.4853 -0.8062
 5886TIP3    H239294   5.096   2.685   7.828  0.0739 -1.4913  0.1670
 5887TIP3   OH239295   1.880   3.445   6.509  0.0430 -0.1969  0.3096
 5887TIP3    H139296   1.821   3.424   6.437  0.1807 -0.4124  0.2585
 5887TIP3    H239297   1.822   3.458   6.585 -0.2910  1.9391 -0.2288
 5888TIP3   OH239298   0.927   0.729   7.127  0.2346  0.4083  0.0271
 5888TIP3    H139299   1.000   0.685   7.083 -0.2032  0.8802 -1.2087
 5888TIP3    H239300   0.901   0.798   7.067 -1.0071  0.4736  0.6148
 5889TIP3   OH239301   3.383   3.967   6.708  0.2064 -0.1657 -0.7432
 5889TIP3    H139302   3.335   3.927   6.781 -1.2938 -1.6167 -2.4396
 5889TIP3    H239303   3.444   4.028   6.751 -2.4501  1.0914  1.5997
 5890TIP3   OH239304   3.731   0.738   7.465  0.5794 -0.8110 -0.0467
 5890TIP3    H139305   3.815   0.708   7.432  1.0404  0.0561  0.2874
 5890TIP3    H239306   3.676   0.748   7.388  0.6704 -1.7064 -0.2334
 5891TIP3   OH239307   4.164   1.825   0.229  0.0518  0.1327 -0.7383
 5891TIP3    H139308   4.198   1.738   0.251 -1.6689 -0.6641 -1.0737
 5891TIP3    H239309   4.181   1.835   0.136  0.9189  0.4821 -0.5480
 5892TIP3   OH239310   6.660   3.249   1.410 -0.2422  0.0715 -0.2104
 5892TIP3    H139311   6.614   3.333   1.405  0.8442  0.7656  0.7979
 5892TIP3    H239312   6.594   3.187   1.440 -0.7732  0.8328  0.2331
 5893TIP3   OH239313   2.034   4.687   1.945  0.6937 -1.0406  0.4632
 5893TIP3    H139314   2.084   4.759   1.908 -1.1036  0.1427  0.2707
 5893TIP3    H239315   2.053   4.613   1.888 -0.1615  0.1586 -1.4577
 5894TIP3   OH239316   0.709   6.906   2.294 -0.3581 -0.1869  0.4626
 5894TIP3    H139317   0.639   6.969   2.275 -0.5034  0.1735  1.9942
 5894TIP3    H239318   0.711   6.847   2.219 -2.0352  0.0513  0.1998
 5895TIP3   OH239319   5.659   0.262   0.053 -0.0982  0.1818  0.3991
 5895TIP3    H139320   5.642   0.183   0.103 -1.0684  0.3499  0.3732
 5895TIP3    H239321   5.752   0.279   0.063  0.1514 -1.0670  0.2467
 5896TIP3   OH239322   2.564   6.332   6.393  0.8436 -0.1595  0.7000
 5896TIP3    H139323   2.589   6.251   6.437  0.6261 -0.3204  0.5291
 5896TIP3    H239324   2.518   6.304   6.314 -0.2606  0.1265  1.2192
 5897TIP3   OH239325   0.579   2.963   0.767 -0.3544  0.1906  0.2925
 5897TIP3    H139326   0.493   2.932   0.796  0.1332 -0.1459  1.4255
 5897TIP3    H239327   0.559   3.026   0.698 -1.4464 -1.5259 -1.0644
 5898TIP3   OH239328   0.867   2.207   7.721 -0.0486  0.4966  0.5315
 5898TIP3    H139329   0.957   2.196   7.689 -0.3215  0.1054 -0.1167
 5898TIP3    H239330   0.876   2.216   7.816  0.4847 -2.3497  0.8370
 5899TIP3   OH239331   5.280   5.502   2.055 -0.1970 -0.0851 -0.1225
 5899TIP3    H139332   5.350   5.548   2.102  0.1603 -1.1000  0.3544
 5899TIP3    H239333   5.249   5.436   2.116  0.5754 -1.7296 -1.4494
 5900TIP3   OH239334   3.035   5.837   7.429 -0.1595 -0.3978  0.0099
 5900TIP3    H139335   3.077   5.914   7.391  1.0315 -0.0966  1.8015
 5900TIP3    H239336   3.089   5.816   7.505 -1.0833 -2.3649  0.1884
 5901TIP3   OH239337   5.522   6.552   8.533  0.1265  0.8061  0.0041
 5901TIP3    H139338   5.549   6.470   8.492 -0.1912  0.7471 -0.0877
 5901TIP3    H239339   5.426   6.546   8.539  0.0146  1.5832 -0.8767
 5902TIP3   OH239340   0.792   0.108   0.914  0.3522 -0.3748  0.6280
 5902TIP3    H139341   0.732   0.138   0.983  0.1287  0.2580  0.1659
 5902TIP3    H239342   0.877   0.104   0.956  0.5739  1.8113  0.5025
 5903TIP3   OH239343   2.261   3.346   6.765  0.3578  0.1400  0.3177
 5903TIP3    H139344   2.331   3.407   6.787  1.4010  0.4564 -3.2095
 5903TIP3    H239345   2.219   3.385   6.688 -2.1315 -1.2642  0.8468
 5904TIP3   OH239346   6.908   3.527   6.757  0.6552  0.3444  0.4459
 5904TIP3    H139347   6.855   3.607   6.758 -0.1259 -0.1282 -0.9177
 5904TIP3    H239348   6.860   3.466   6.813 -1.5240 -0.8005 -2.4366
 5905TIP3   OH239349   2.456   4.648   1.487  0.0430 -0.0731  0.2613
 5905TIP3    H139350   2.491   4.618   1.570  0.6749  0.5154  0.2124
 5905TIP3    H239351   2.371   4.604   1.480 -0.5071  0.6997  1.7171
 5906TIP3   OH239352   4.199   2.676   0.942 -0.3604 -0.0416 -0.4362
 5906TIP3    H139353   4.249   2.605   0.981 -2.1429 -1.3726 -0.4466
 5906TIP3    H239354   4.211   2.749   1.003 -0.6105 -1.1546  1.0201
 5907TIP3   OH239355   4.568   5.792   2.363  0.2309  0.3283  0.2144
 5907TIP3    H139356   4.523   5.868   2.399  1.8749  0.6115  1.8057
 5907TIP3    H239357   4.634   5.829   2.304  1.5942  0.2549  1.6227
 5908TIP3   OH239358   1.278   6.581   8.422 -0.5118 -0.4700  0.2556
 5908TIP3    H139359   1.203   6.555   8.369 -1.3362 -0.4259  1.3519
 5908TIP3    H239360   1.242   6.646   8.483 -0.0284 -1.7679  2.0038
 5909TIP3   OH239361   2.001   2.875   6.881  0.4070 -0.0458  0.3639
 5909TIP3    H139362   1.986   2.784   6.854 -0.0887 -0.9590  3.3001
 5909TIP3    H239363   1.924   2.922   6.849 -0.6516 -1.2469  1.0244
 5910TIP3   OH239364   1.685   5.411   7.698  0.0831 -0.2675 -0.2264
 5910TIP3    H139365   1.670   5.323   7.665  0.2006 -0.2424 -0.3493
 5910TIP3    H239366   1.598   5.448   7.711  0.0359 -0.3437 -0.3294
 5911TIP3   OH239367   1.732   4.420   6.749 -0.1369  0.0955  0.5714
 5911TIP3    H139368   1.804   4.359   6.768  0.0370 -0.2127 -0.9532
 5911TIP3    H239369   1.664   4.396   6.811 -0.0009 -1.5591  0.1195
 5912TIP3   OH239370   4.525   0.826   0.779  0.0867  0.3163 -0.2346
 5912TIP3    H139371   4.544   0.885   0.706  2.2063 -1.3657 -1.1357
 5912TIP3    H239372   4.492   0.746   0.737 -0.8445  0.1172  0.8346
 5913TIP3   OH239373   2.764   3.690   0.873  0.5421  0.0192 -0.4824
 5913TIP3    H139374   2.716   3.685   0.790  0.5014  0.2543 -0.4736
 5913TIP3    H239375   2.835   3.751   0.856 -0.3168  1.2136  0.0693
 5914TIP3   OH239376   4.962   6.388   0.276  0.5084  0.0468  0.1841
 5914TIP3    H139377   4.956   6.467   0.329  0.0902  1.6471 -2.1046
 5914TIP3    H239378   5.054   6.382   0.251  0.4707  0.0609  0.0365
 5915TIP3   OH239379   5.269   1.116   8.287 -0.6060 -0.4254  0.1169
 5915TIP3    H139380   5.240   1.096   8.376 -0.9342 -0.3378  0.0314
 5915TIP3    H239381   5.310   1.036   8.256 -1.7412 -0.9129 -0.1562
 5916TIP3   OH239382   6.434   3.176   2.182 -0.0697  0.2683 -0.2450
 5916TIP3    H139383   6.368   3.116   2.147 -0.2900  0.2071  0.2633
 5916TIP3    H239384   6.431   3.252   2.123 -0.2061  0.0324 -0.5450
 5917TIP3   OH239385   1.112   1.600   6.809  0.0461  0.5372 -0.1212
 5917TIP3    H139386   1.146   1.548   6.736  0.9906  0.0991  0.6076
 5917TIP3    H239387   1.028   1.560   6.829  0.9065 -0.9751  0.6442
 5918TIP3   OH239388   2.973   2.789   1.922 -0.1907 -0.1689  0.1938
 5918TIP3    H139389   2.987   2.858   1.988 -0.4263  0.1700 -0.1037
 5918TIP3    H239390   3.059   2.773   1.885 -0.2130  0.3256 -0.0826
 5919TIP3   OH239391   6.721   3.250   7.570  0.2402 -0.0600  0.1088
 5919TIP3    H139392   6.674   3.201   7.638  2.3764  0.2793  1.9489
 5919TIP3    H239393   6.752   3.182   7.510 -2.7883 -0.2575 -1.3775
 5920TIP3   OH239394   3.987   0.112   0.790  0.1934  0.2632 -0.0628
 5920TIP3    H139395   4.075   0.103   0.825  0.2455  0.3499 -0.1695
 5920TIP3    H239396   3.932   0.062   0.850  0.7350 -2.6531 -1.7577
 5921TIP3   OH239397   2.815   6.727   6.656 -0.5495  0.2381 -0.2122
 5921TIP3    H139398   2.899   6.766   6.632  0.3934 -1.1047  0.7618
 5921TIP3    H239399   2.812   6.644   6.609 -0.1823 -0.8603  1.6136
 5922TIP3   OH239400   1.553   6.191   2.166  0.1746  0.1679  0.0039
 5922TIP3    H139401   1.492   6.124   2.195  0.3470  0.2022  0.4525
 5922TIP3    H239402   1.614   6.146   2.108  0.0793  0.0100  0.0275
 5923TIP3   OH239403   4.310   2.838   8.045  0.0718  0.1661 -0.0975
 5923TIP3    H139404   4.220   2.804   8.042  0.0674  0.2221 -2.7353
 5923TIP3    H239405   4.348   2.798   8.123 -1.1209 -2.8264 -0.9061
 5924TIP3   OH239406   2.456   3.123   2.103  0.3653 -0.4806  0.6763
 5924TIP3    H139407   2.433   3.030   2.099 -1.1440 -0.1034  0.0896
 5924TIP3    H239408   2.391   3.167   2.049  0.0049  1.1125  2.3076
 5925TIP3   OH239409   6.396   3.970   8.254  0.4826 -0.7545  0.1701
 5925TIP3    H139410   6.340   3.920   8.195  0.7061 -0.7281 -0.0680
 5925TIP3    H239411   6.381   4.062   8.230 -0.7293 -0.6396  1.3259
 5926TIP3   OH239412   1.221   1.644   8.372  0.4274  0.8325 -0.3250
 5926TIP3    H139413   1.299   1.590   8.356  0.3270  0.5401  0.1860
 5926TIP3    H239414   1.175   1.643   8.288 -1.6212 -3.1102  0.6090
 5927TIP3   OH239415   3.935   2.070   8.402 -0.1217 -0.7186 -0.5882
 5927TIP3    H139416   3.910   1.982   8.375  1.0059 -1.1194 -0.3737
 5927TIP3    H239417   3.928   2.123   8.322  0.1646 -1.2140 -0.9423
 5928TIP3   OH239418   1.326   2.454   6.847 -0.0843  0.3185  0.4299
 5928TIP3    H139419   1.249   2.401   6.828 -0.5565  0.4712  1.8663
 5928TIP3    H239420   1.307   2.539   6.806 -0.5111  0.2451  0.4752
 5929TIP3   OH239421   4.208   6.122   1.707 -0.2390 -0.2718 -0.2311
 5929TIP3    H139422   4.157   6.197   1.675  0.7518 -0.1091 -1.5414
 5929TIP3    H239423   4.176   6.108   1.796 -1.4194  0.8318 -0.4360
 5930TIP3   OH239424   3.473   5.998   8.219  0.0299 -0.3625 -0.0503
 5930TIP3    H139425   3.454   5.908   8.249  1.5672 -0.7476 -0.1467
 5930TIP3    H239426   3.545   5.987   8.157  0.2986  0.9679  0.0175
 5931TIP3   OH239427   6.192   2.348   7.682  0.1879 -0.5289  0.5837
 5931TIP3    H139428   6.191   2.286   7.755  0.3292 -1.4384 -0.1722
 5931TIP3    H239429   6.283   2.378   7.677  0.8675 -2.5785 -0.9232
 5932TIP3   OH239430   3.884   1.880   1.346  0.7536  0.6669  0.0372
 5932TIP3    H139431   3.946   1.825   1.300  3.1729  2.3598  1.0361
 5932TIP3    H239432   3.839   1.821   1.407  1.7294 -0.5463 -0.3891
 5933TIP3   OH239433   4.840   4.769   1.225  0.1535 -0.1384  0.0491
 5933TIP3    H139434   4.783   4.731   1.292  0.9752  1.3028  1.6416
 5933TIP3    H239435   4.927   4.736   1.247  0.0656 -1.9872 -2.1089
 5934TIP3   OH239436   2.706   2.168   0.067  0.2765 -0.5440  0.4667
 5934TIP3    H139437   2.786   2.170   0.121  1.3669  0.6030 -1.1144
 5934TIP3    H239438   2.652   2.101   0.108  1.5954 -0.6113  2.2277
 5935TIP3   OH239439   2.236   2.221   8.321  0.0537 -0.2774  0.6432
 5935TIP3    H139440   2.266   2.287   8.384 -0.1227  2.0555 -1.5618
 5935TIP3    H239441   2.298   2.148   8.331 -0.3986 -0.3706  3.9534
 5936TIP3   OH239442   1.702   6.691   0.275  0.2862  0.1658 -0.0675
 5936TIP3    H139443   1.783   6.669   0.230  0.0907 -1.4612  0.3004
 5936TIP3    H239444   1.701   6.787   0.279  1.2031  0.2798 -1.8254
 5937TIP3   OH239445   6.066   3.539   0.516 -0.1457 -0.5580  0.4289
 5937TIP3    H139446   6.099   3.549   0.605  1.3950  0.1722 -0.1858
 5937TIP3    H239447   6.093   3.451   0.491  0.8974 -0.1813  0.1432
 5938TIP3   OH239448   3.756   2.388   0.986  0.3336  0.1824  0.5012
 5938TIP3    H139449   3.740   2.426   0.900  0.0071 -0.8013  0.1150
 5938TIP3    H239450   3.849   2.402   1.002  0.8375 -1.3440 -0.8866
 5939TIP3   OH239451   2.999   6.292   7.105  0.2345 -0.3766 -0.3173
 5939TIP3    H139452   3.068   6.336   7.155 -0.1007 -2.3507  2.0729
 5939TIP3    H239453   3.034   6.286   7.016  2.1438  0.6855  0.3046
 5940TIP3   OH239454   1.923   1.545   2.148 -0.4750  0.1530 -0.4526
 5940TIP3    H139455   1.836   1.510   2.129 -0.6527  0.4510 -0.1984
 5940TIP3    H239456   1.948   1.594   2.069 -0.0228 -0.9297 -0.9966
 5941TIP3   OH239457   5.187   4.738   1.991  0.0551 -0.4474 -0.6519
 5941TIP3    H139458   5.205   4.776   1.905 -1.0065 -0.9551 -1.1231
 5941TIP3    H239459   5.094   4.712   1.987 -0.6707  1.5100  1.4065
 5942TIP3   OH239460   5.736   2.879   6.927 -1.0643 -0.2566 -0.6225
 5942TIP3    H139461   5.670   2.906   6.991  1.2656  1.3895  1.2906
 5942TIP3    H239462   5.813   2.932   6.949  0.6841 -1.5539 -3.1696
 5943TIP3   OH239463   2.220   0.298   1.486  0.3982 -0.3350  0.0912
 5943TIP3    H139464   2.168   0.338   1.556 -0.1946 -0.2540 -0.3831
 5943TIP3    H239465   2.309   0.327   1.503  0.0104  1.0879 -0.1520
 5944TIP3   OH239466   5.859   3.132   1.537  0.8930 -0.3871 -0.1141
 5944TIP3    H139467   5.877   3.153   1.629  2.7680 -1.2187 -0.2363
 5944TIP3    H239468   5.849   3.036   1.536  0.0895 -0.3052 -0.6690
 5945TIP3   OH239469   4.334   3.791   7.879  0.1379 -0.5205  0.3706
 5945TIP3    H139470   4.360   3.783   7.971  0.0254  1.4201  0.6110
 5945TIP3    H239471   4.273   3.865   7.878 -1.2971 -1.6557 -1.0032
 5946TIP3   OH239472   3.169   3.238   0.209  0.1389 -0.4139 -0.1500
 5946TIP3    H139473   3.191   3.145   0.199 -0.2773 -0.7125  1.5281
 5946TIP3    H239474   3.229   3.283   0.149 -0.0850 -1.7892 -1.4544
 5947TIP3   OH239475   5.089   1.237   1.024 -0.3004 -0.2502 -0.2658
 5947TIP3    H139476   5.100   1.194   1.108 -1.6162  2.1468  1.2649
 5947TIP3    H239477   5.170   1.287   1.012 -0.6630  0.5183  0.3419
 5948TIP3   OH239478   2.668   3.797   1.095  0.9398 -0.1366 -0.7137
 5948TIP3    H139479   2.572   3.793   1.093  0.6847  3.1451 -0.2241
 5948TIP3    H239480   2.695   3.755   1.013 -1.0133  0.3956 -1.6817
 5949TIP3   OH239481   5.133   3.850   6.540  0.2619  0.2698  0.1153
 5949TIP3    H139482   5.107   3.771   6.588  0.3782  0.4172  0.4204
 5949TIP3    H239483   5.062   3.912   6.555  1.1915  1.0010  1.7212
 5950TIP3   OH239484   6.471   6.238   0.712  0.0289  0.1418 -0.0011
 5950TIP3    H139485   6.525   6.182   0.656 -2.1585 -1.6628 -0.4219
 5950TIP3    H239486   6.492   6.211   0.801  0.7298  0.3682 -0.0914
 5951TIP3   OH239487   5.664   0.541   0.867  0.4684  0.2133  0.5496
 5951TIP3    H139488   5.707   0.618   0.905 -0.5913  1.8824 -1.4105
 5951TIP3    H239489   5.623   0.496   0.941  0.7247  1.8010  1.6927
 5952TIP3   OH239490   6.081   5.225   0.757  0.1959  0.4513  0.1523
 5952TIP3    H139491   6.011   5.174   0.799  0.5121  0.1171  0.2823
 5952TIP3    H239492   6.160   5.174   0.773  0.2049 -0.1307 -1.6069
 5953TIP3   OH239493   3.596   3.710   1.384  0.0890  0.1246  0.8603
 5953TIP3    H139494   3.570   3.630   1.428 -0.3116 -0.3375 -0.1636
 5953TIP3    H239495   3.622   3.682   1.296  1.5251  0.9241  1.0059
 5954TIP3   OH239496   0.597   1.539   1.532 -0.1552  0.3145 -0.7101
 5954TIP3    H139497   0.622   1.628   1.506  0.8870 -0.3498 -2.0490
 5954TIP3    H239498   0.650   1.521   1.610 -1.3443  1.3129  0.4039
 5955TIP3   OH239499   2.097   6.464   1.659 -0.0599  0.2240  0.8118
 5955TIP3    H139500   2.144   6.502   1.734 -0.3400  1.7056  0.2595
 5955TIP3    H239501   2.085   6.537   1.599  0.1248 -0.9363 -0.6792
 5956TIP3   OH239502   4.624   3.237   6.901  0.1329  0.0895  0.2031
 5956TIP3    H139503   4.587   3.289   6.830 -0.1694  0.6380  0.7589
 5956TIP3    H239504   4.718   3.236   6.884  0.0786  0.3642 -0.1088
 5957TIP3   OH239505   3.101   3.626   2.631  0.0014 -0.4076  0.0163
 5957TIP3    H139506   3.188   3.638   2.669  0.0478  0.0877 -0.2403
 5957TIP3    H239507   3.084   3.707   2.583 -1.7175  0.6485  2.2379
 5958TIP3   OH239508   5.472   4.297   0.671  0.3201 -0.0265 -0.4491
 5958TIP3    H139509   5.443   4.222   0.723 -0.9301  1.0820  0.5302
 5958TIP3    H239510   5.549   4.331   0.717  0.4074 -0.2419 -0.4385
 5959TIP3   OH239511   0.049   4.619   6.507  0.0701  0.2373  0.3583
 5959TIP3    H139512   0.127   4.649   6.555  0.4453 -0.7649  0.4016
 5959TIP3    H239513  -0.018   4.683   6.529  0.2924 -0.0541  2.0730
 5960TIP3   OH239514   4.769   0.988   2.095  0.5913  0.2688  0.1564
 5960TIP3    H139515   4.785   1.061   2.035 -2.9285  2.8907  2.0471
 5960TIP3    H239516   4.685   0.952   2.067  0.1068 -0.0978  1.9432
 5961TIP3   OH239517   6.821   6.686   0.366 -0.2626  0.2565 -0.2513
 5961TIP3    H139518   6.796   6.649   0.281 -4.2152  0.7279  0.5606
 5961TIP3    H239519   6.846   6.777   0.345  3.0741 -0.7602 -1.3407
 5962TIP3   OH239520   1.606   4.988   0.210 -0.0618  0.0790  0.0581
 5962TIP3    H139521   1.536   4.961   0.268 -1.1805 -0.3864 -1.4350
 5962TIP3    H239522   1.588   5.081   0.192 -0.8224 -0.2481 -0.9777
 5963TIP3   OH239523   1.070   5.339   2.311  0.1127 -0.0004 -0.4173
 5963TIP3    H139524   1.132   5.367   2.378 -1.6743 -0.7934  1.6620
 5963TIP3    H239525   1.011   5.414   2.300 -0.0391 -0.1413 -0.5687
 5964TIP3   OH239526   3.204   0.160   7.902 -0.7491  0.3606  0.0732
 5964TIP3    H139527   3.220   0.252   7.881 -1.9779  0.6355  0.2188
 5964TIP3    H239528   3.242   0.111   7.830  0.4111  0.9430  0.2633
 5965TIP3   OH239529   2.171   6.485   0.827  0.0062 -0.0057  0.1924
 5965TIP3    H139530   2.105   6.518   0.766  0.4560 -0.0428 -0.3190
 5965TIP3    H239531   2.142   6.516   0.913 -1.1354 -0.7430  0.0936
 5966TIP3   OH239532   3.199   2.009   7.090  0.1515 -0.1150 -0.7859
 5966TIP3    H139533   3.281   2.056   7.076 -0.2506  0.9476  0.3025
 5966TIP3    H239534   3.138   2.048   7.028 -0.2113  0.9079  0.1923
 5967TIP3   OH239535   1.555   6.026   8.325  0.4661 -0.3926 -0.4785
 5967TIP3    H139536   1.513   5.972   8.258 -0.2120 -1.7998  1.0163
 5967TIP3    H239537   1.642   5.987   8.337 -0.0387 -1.2238  0.6319
 5968TIP3   OH239538   5.157   6.497   1.281  0.3512  0.6221  0.5557
 5968TIP3    H139539   5.177   6.568   1.342  1.2718  0.5358  0.3685
 5968TIP3    H239540   5.146   6.420   1.336 -0.1086  0.8012  0.7150
 5969TIP3   OH239541   1.334   2.842   0.620 -0.7030 -0.1262  0.7008
 5969TIP3    H139542   1.312   2.838   0.526  3.1051 -0.5118 -0.3146
 5969TIP3    H239543   1.304   2.758   0.655 -0.3598 -0.8352 -0.6421
 5970TIP3   OH239544   6.677   0.414   8.274  0.1765 -0.3384 -0.3307
 5970TIP3    H139545   6.758   0.376   8.240  0.6215 -0.1454  0.4812
 5970TIP3    H239546   6.670   0.379   8.363 -0.0549  0.5101 -0.0035
 5971TIP3   OH239547   0.422   3.651   0.901 -0.3361  0.5836 -0.3252
 5971TIP3    H139548   0.339   3.681   0.863 -1.2392 -2.2130 -0.7971
 5971TIP3    H239549   0.396   3.596   0.975  1.1896  0.7519  0.3802
 5972TIP3   OH239550   1.082   2.346   6.114 -0.8626  0.1447  0.4151
 5972TIP3    H139551   1.117   2.431   6.140 -1.3791  0.4437  0.1540
 5972TIP3    H239552   1.151   2.284   6.136 -0.6915  0.5679  1.1063
 5973TIP3   OH239553   2.640   4.784   8.176  0.4402  0.0026  0.2328
 5973TIP3    H139554   2.689   4.865   8.164 -0.5527  0.4350 -1.0943
 5973TIP3    H239555   2.549   4.807   8.158  0.1658 -1.4515 -0.4117
 5974TIP3   OH239556   0.026   2.159   7.547  0.0961  0.1600  0.2000
 5974TIP3    H139557   0.074   2.092   7.498 -0.1307 -0.5126  0.8867
 5974TIP3    H239558   0.073   2.241   7.529 -0.5273  0.1139 -1.9106
 5975TIP3   OH239559   2.713   1.995   0.332  0.3904 -0.0235 -0.3386
 5975TIP3    H139560   2.702   2.006   0.427  1.8144  1.8203 -0.3380
 5975TIP3    H239561   2.795   2.040   0.312 -0.5741  0.8295 -2.6677
 5976TIP3   OH239562   6.697   5.491   6.029  0.2689  0.3894  0.0540
 5976TIP3    H139563   6.627   5.538   5.984  1.0359 -0.7091 -2.4890
 5976TIP3    H239564   6.760   5.558   6.053 -0.2738  1.0518 -0.3289
 5977TIP3   OH239565   0.934   5.834   7.308  0.1255 -0.2017 -0.6298
 5977TIP3    H139566   0.968   5.838   7.397  0.6274  0.7073 -0.8501
 5977TIP3    H239567   0.965   5.915   7.267 -1.4324  0.1530 -1.1596
 5978TIP3   OH239568   4.335   0.166   0.625 -0.1654  0.7293  0.8362
 5978TIP3    H139569   4.418   0.196   0.663  1.4336 -2.0572 -0.1216
 5978TIP3    H239570   4.321   0.080   0.664 -0.4443 -0.5917 -1.8957
 5979TIP3   OH239571   2.783   3.644   1.695  0.4318 -0.0101  0.2495
 5979TIP3    H139572   2.778   3.663   1.789  1.1765 -0.4532  0.3844
 5979TIP3    H239573   2.875   3.657   1.673 -0.1400  2.5324 -0.9665
 5980TIP3   OH239574   0.442   2.326   6.360  0.1388 -0.4942  0.0101
 5980TIP3    H139575   0.516   2.331   6.421  0.5718 -0.9044 -0.4664
 5980TIP3    H239576   0.381   2.264   6.400 -1.3116  1.9215  1.8020
 5981TIP3   OH239577   5.839   5.092   8.386 -0.3604  0.4787  0.2019
 5981TIP3    H139578   5.767   5.154   8.374 -2.6330 -1.8877  0.6506
 5981TIP3    H239579   5.896   5.105   8.311 -3.3918 -0.1556 -2.3903
 5982TIP3   OH239580   3.219   1.346   1.389  0.4528 -0.0171  0.2034
 5982TIP3    H139581   3.265   1.348   1.473 -0.4501  0.7417  0.6946
 5982TIP3    H239582   3.150   1.280   1.400  0.7336 -0.3771 -0.1626
 5983TIP3   OH239583   4.492   6.924   0.268  0.0122 -0.6230 -0.1673
 5983TIP3    H139584   4.476   6.863   0.196  0.2039  0.2960 -1.0108
 5983TIP3    H239585   4.541   6.873   0.332  2.2055 -0.7940 -1.8479
 5984TIP3   OH239586   0.416   0.545   6.956 -0.3868 -0.0812 -0.0297
 5984TIP3    H139587   0.385   0.551   7.046 -0.9984  0.8408 -0.2812
 5984TIP3    H239588   0.349   0.494   6.911 -0.5336  0.2117 -0.1466
 5985TIP3   OH239589   6.565   2.635   8.015 -0.1002 -0.9681 -1.0762
 5985TIP3    H139590   6.586   2.700   7.949 -2.2652  2.0098  0.9129
 5985TIP3    H239591   6.632   2.647   8.083 -1.2546  0.2451 -0.0962
 5986TIP3   OH239592   5.237   0.454   8.490  0.9455 -0.0899 -0.0692
 5986TIP3    H139593   5.194   0.369   8.497  1.2871 -0.2766 -0.2083
 5986TIP3    H239594   5.221   0.481   8.399  1.1422 -0.1754 -0.1321
 5987TIP3   OH239595   2.595   2.568   1.570  0.0382 -0.4246 -0.4840
 5987TIP3    H139596   2.686   2.599   1.567 -0.6634  1.7726 -0.9864
 5987TIP3    H239597   2.600   2.483   1.614  2.1718  0.2697  0.7711
 5988TIP3   OH239598   0.365   0.815   7.840  0.2213 -0.4539  0.2882
 5988TIP3    H139599   0.369   0.894   7.893 -0.3619  0.3030 -0.7614
 5988TIP3    H239600   0.334   0.747   7.900 -0.6737  0.4335  0.8538
 5989TIP3   OH239601   1.977   5.813   2.047 -0.2213 -0.1684 -0.3525
 5989TIP3    H139602   2.008   5.783   2.132 -0.2930 -1.1396 -0.6585
 5989TIP3    H239603   1.910   5.749   2.022 -1.6190  1.1954 -0.2573
 5990TIP3   OH239604   0.626   1.685   6.610  0.0154  0.3724  0.1428
 5990TIP3    H139605   0.548   1.632   6.594  1.8759 -1.7384 -3.0803
 5990TIP3    H239606   0.613   1.765   6.559  0.5611 -0.7469 -1.8684
 5991TIP3   OH239607   4.868   5.272   1.052 -0.3948  0.0318 -0.2731
 5991TIP3    H139608   4.806   5.219   1.103 -0.1599  0.3843  0.3979
 5991TIP3    H239609   4.877   5.225   0.969  0.4699 -1.4663  0.6257
 5992TIP3   OH239610   1.242   4.348   7.655  0.3475 -0.1184 -0.0765
 5992TIP3    H139611   1.267   4.330   7.746 -2.0678 -0.6701  0.5489
 5992TIP3    H239612   1.176   4.417   7.662 -1.9108 -2.0348 -1.0976
 5993TIP3   OH239613   6.080   4.148   6.828 -0.1292 -0.6459  0.1550
 5993TIP3    H139614   6.118   4.074   6.781  1.6105 -0.2103  0.7923
 5993TIP3    H239615   6.076   4.119   6.920  1.7057  0.4157  0.6192
 5994TIP3   OH239616   4.048   1.531   6.122 -0.5579 -0.0078 -0.3386
 5994TIP3    H139617   4.063   1.581   6.202  0.3232 -0.0699 -0.4524
 5994TIP3    H239618   3.999   1.590   6.065  0.1028  0.5771 -0.3097
 5995TIP3   OH239619   2.276   5.684   6.089 -0.0286 -0.5486 -0.0318
 5995TIP3    H139620   2.303   5.602   6.131 -0.9772 -1.1240 -0.5168
 5995TIP3    H239621   2.195   5.661   6.043 -0.2704  0.6534 -0.2164
 5996TIP3   OH239622   4.899   3.590   1.986  0.4129 -0.6504  0.7308
 5996TIP3    H139623   4.826   3.549   1.939  1.2769 -2.2687  0.7493
 5996TIP3    H239624   4.925   3.526   2.051  0.7662  0.6165  1.8898
 5997TIP3   OH239625   1.257   2.142   8.391  0.0425 -0.3990  0.1700
 5997TIP3    H139626   1.168   2.116   8.372 -0.4757  0.9819  0.5555
 5997TIP3    H239627   1.306   2.060   8.399 -0.9924 -1.1431 -0.9149
 5998TIP3   OH239628   1.657   1.759   1.370 -0.0688 -0.5379  0.3517
 5998TIP3    H139629   1.658   1.789   1.280 -2.2458  0.7005  0.6712
 5998TIP3    H239630   1.665   1.838   1.423 -0.8957 -0.9941  1.2183
 5999TIP3   OH239631   1.068   3.363   8.126 -0.4016 -0.5809 -0.4577
 5999TIP3    H139632   1.151   3.387   8.085 -0.4391 -0.5777 -0.5335
 5999TIP3    H239633   1.078   3.388   8.218 -0.1105 -1.0914 -0.3427
 6000TIP3   OH239634   4.085   3.499   8.121  0.3734  0.2000 -0.1317
 6000TIP3    H139635   4.105   3.509   8.214  1.1031 -1.8812 -0.0090
 6000TIP3    H239636   3.995   3.468   8.118 -0.3213  2.1387 -0.2589
 6001TIP3   OH239637   2.418   5.214   8.003 -0.1559  0.0145 -0.1931
 6001TIP3    H139638   2.476   5.141   7.982  1.4616  1.3645 -0.6621
 6001TIP3    H239639   2.406   5.259   7.919  0.8506  1.6250  0.4848
 6002TIP3   OH239640   3.849   3.830   7.700  0.5913 -0.6737  0.3449
 6002TIP3    H139641   3.852   3.769   7.773 -2.9807  0.2604  1.5123
 6002TIP3    H239642   3.803   3.907   7.735 -1.5501 -0.3000 -2.8726
 6003TIP3   OH239643   3.695   5.383   7.819 -0.1547 -0.0527 -0.0808
 6003TIP3    H139644   3.760   5.339   7.764 -0.1997  1.4872 -1.4246
 6003TIP3    H239645   3.616   5.385   7.764 -0.4392  0.7815  0.3544
 6004TIP3   OH239646   5.226   5.133   7.750  0.0465  0.5771 -0.4321
 6004TIP3    H139647   5.138   5.096   7.742 -0.0442  0.9516 -1.2690
 6004TIP3    H239648   5.248   5.122   7.843 -1.1415  1.0507 -0.0694
 6005TIP3   OH239649   4.264   1.688   1.003 -0.2279  0.1285 -0.1119
 6005TIP3    H139650   4.199   1.629   1.043 -0.7187  2.5780  3.1512
 6005TIP3    H239651   4.227   1.710   0.918 -2.9493  0.1225  0.9510
 6006TIP3   OH239652   1.609   3.494   6.505 -0.1178 -0.4713 -0.4933
 6006TIP3    H139653   1.521   3.527   6.487 -0.0278  0.0252 -0.0400
 6006TIP3    H239654   1.667   3.554   6.459 -0.0042 -0.6369 -0.5658
 6007TIP3   OH239655   3.905   2.442   6.484 -0.3180  0.1444 -0.6384
 6007TIP3    H139656   3.971   2.395   6.433 -1.3398 -0.7264 -1.1880
 6007TIP3    H239657   3.948   2.460   6.568  0.9586  0.5127 -1.3509
 6008TIP3   OH239658   1.462   0.070   7.267  0.0631 -0.6718 -0.2979
 6008TIP3    H139659   1.487  -0.003   7.325  0.0056  0.6464  1.4651
 6008TIP3    H239660   1.373   0.092   7.294 -0.5001 -0.9002 -1.8700
 6009TIP3   OH239661   0.233   6.165   7.242  0.2823 -0.0632  0.1782
 6009TIP3    H139662   0.272   6.077   7.249 -0.8883 -0.5647  0.7781
 6009TIP3    H239663   0.172   6.158   7.168 -0.2974  0.0292  0.6336
 6010TIP3   OH239664   1.359   3.745   7.557  0.0123 -0.2690 -0.6184
 6010TIP3    H139665   1.382   3.801   7.632  1.8584  1.1496 -2.1456
 6010TIP3    H239666   1.266   3.725   7.571  0.3197 -0.2573  2.1433
 6011TIP3   OH239667   0.015   3.502   1.193  0.1572  0.3493  0.5041
 6011TIP3    H139668   0.011   3.543   1.107  0.9965  1.7208  1.0755
 6011TIP3    H239669  -0.064   3.532   1.238  0.4708  0.8783  0.7146
 6012TIP3   OH239670   6.841   5.632   1.405 -0.2052 -0.0747 -0.0277
 6012TIP3    H139671   6.916   5.688   1.427  0.0245 -0.4833  0.2716
 6012TIP3    H239672   6.789   5.682   1.343  0.9710 -0.2720 -1.2095
 6013TIP3   OH239673   2.405   3.379   0.386 -0.3691 -0.5078 -0.2335
 6013TIP3    H139674   2.391   3.470   0.412 -0.3318 -0.6759  0.3915
 6013TIP3    H239675   2.327   3.332   0.417  0.5778 -1.0735  1.4262
 6014TIP3   OH239676   0.714   4.326   7.928 -0.5611 -0.1998  0.1197
 6014TIP3    H139677   0.752   4.384   7.994 -0.1001  0.7183 -0.9203
 6014TIP3    H239678   0.783   4.261   7.911 -0.1369  0.3872 -0.4503
 6015TIP3   OH239679   2.565   2.350   2.184 -0.4094 -0.1630  0.2419
 6015TIP3    H139680   2.572   2.334   2.278 -0.7958 -1.2313  0.1028
 6015TIP3    H239681   2.589   2.442   2.173 -2.1250  0.4828  1.5901
 6016TIP3   OH239682   5.922   1.510   0.346  0.3531  0.3144  0.2531
 6016TIP3    H139683   6.002   1.563   0.345  0.7569 -0.1984 -2.0134
 6016TIP3    H239684   5.932   1.453   0.422  1.4890  1.2165  0.8113
 6017TIP3   OH239685   2.411   3.621   7.024  0.6772  0.3840  0.0562
 6017TIP3    H139686   2.409   3.717   7.026 -0.2064  0.3783  1.6257
 6017TIP3    H239687   2.376   3.595   7.109  1.8095 -1.3407  0.0402
 6018TIP3   OH239688   5.900   6.123   1.771 -0.8954 -0.1263  0.2029
 6018TIP3    H139689   5.870   6.107   1.682 -2.7852 -2.5581  1.1408
 6018TIP3    H239690   5.848   6.197   1.802 -1.4033 -0.3034 -0.2225
 6019TIP3   OH239691   1.312   1.492   2.113 -0.4704 -0.4309 -0.1639
 6019TIP3    H139692   1.220   1.520   2.106 -0.2851  0.5533  1.1210
 6019TIP3    H239693   1.313   1.434   2.189  0.2430  0.7592  0.7486
 6020TIP3   OH239694   6.485   5.314   0.578 -0.0018 -0.4669 -0.0452
 6020TIP3    H139695   6.572   5.317   0.618  0.0694  1.2851 -0.2660
 6020TIP3    H239696   6.440   5.242   0.624  0.6531  0.3542  2.0044
 6021TIP3   OH239697   3.687   1.291   6.993 -0.0251 -0.0019  0.2015
 6021TIP3    H139698   3.612   1.314   7.047 -1.0611  0.7993 -1.5133
 6021TIP3    H239699   3.652   1.236   6.923  0.8611  0.8352 -0.9447
 6022TIP3   OH239700   4.005   6.745   0.784 -0.2168 -0.6276  0.4302
 6022TIP3    H139701   3.967   6.812   0.841 -1.8335 -1.4806  0.4122
 6022TIP3    H239702   3.981   6.772   0.696 -0.3787 -0.9334  0.3793
 6023TIP3   OH239703   0.636   0.233   7.906  1.1286  0.0218 -0.2000
 6023TIP3    H139704   0.625   0.328   7.916  0.9846 -0.0328  0.1504
 6023TIP3    H239705   0.692   0.224   7.829 -1.3310  0.2823 -2.1343
 6024TIP3   OH239706   6.455   0.724   1.011  0.3913  0.4556  0.1096
 6024TIP3    H139707   6.380   0.750   0.958 -0.2227 -0.8770  0.2735
 6024TIP3    H239708   6.418   0.701   1.096  0.7371 -1.6451 -0.2543
 6025TIP3   OH239709   4.306   2.344   1.366 -0.4449 -0.4307 -0.3877
 6025TIP3    H139710   4.348   2.269   1.408  1.3677  0.6290 -0.2314
 6025TIP3    H239711   4.262   2.390   1.437 -0.3680 -0.5822 -0.2408
 6026TIP3   OH239712   6.404   5.324   8.474  0.5593  0.1157 -0.3066
 6026TIP3    H139713   6.452   5.385   8.531  2.2354  1.4721 -2.9608
 6026TIP3    H239714   6.325   5.372   8.449  0.1315 -0.2367  0.3372
 6027TIP3   OH239715   3.010   5.781   8.194 -0.4171  0.5190  0.7571
 6027TIP3    H139716   3.081   5.738   8.146 -0.5035 -0.9169  1.8221
 6027TIP3    H239717   2.940   5.793   8.130 -0.5934 -1.4802  0.5023
 6028TIP3   OH239718   4.811   3.243   8.549  0.4407 -0.0169  0.1061
 6028TIP3    H139719   4.774   3.305   8.612  1.9920  1.3735 -0.2569
 6028TIP3    H239720   4.875   3.193   8.599  0.3944 -0.1486  0.0336
 6029TIP3   OH239721   3.296   0.882   8.218  0.7566 -0.5755 -0.4354
 6029TIP3    H139722   3.344   0.927   8.287  0.2147 -1.5427  0.6224
 6029TIP3    H239723   3.360   0.823   8.178  1.5029  1.1644 -1.9221
 6030TIP3   OH239724   1.928   4.177   1.120 -0.0119  0.1234 -0.1495
 6030TIP3    H139725   1.846   4.148   1.162 -0.4302  0.9040 -0.3976
 6030TIP3    H239726   1.964   4.098   1.080 -0.3250 -0.3540  0.5044
 6031TIP3   OH239727   1.615   2.180   8.226 -0.5716  0.4573  0.4212
 6031TIP3    H139728   1.678   2.212   8.161 -0.5000 -1.1591 -0.3622
 6031TIP3    H239729   1.587   2.095   8.191 -1.1180 -0.0915  2.1306
 6032TIP3   OH239730   2.628   3.001   7.421 -0.1541 -0.7879  0.4699
 6032TIP3    H139731   2.537   3.029   7.430  0.6685  1.6980  2.1486
 6032TIP3    H239732   2.664   3.056   7.352  0.9307  0.9588  2.3094
 6033TIP3   OH239733   0.529   6.091   1.122 -0.2675 -0.0929 -0.0194
 6033TIP3    H139734   0.509   6.149   1.196 -0.8146 -0.7224  0.3303
 6033TIP3    H239735   0.562   6.011   1.162 -1.6706 -0.8865 -0.3908
 6034TIP3   OH239736   3.451   1.419   1.245  0.1816 -0.4632 -0.0481
 6034TIP3    H139737   3.389   1.382   1.308 -0.5862  1.5973  0.4898
 6034TIP3    H239738   3.396   1.468   1.184  1.1131 -0.6493 -1.0590
 6035TIP3   OH239739   5.653   3.145   7.851  0.4807  0.4040 -0.1745
 6035TIP3    H139740   5.630   3.077   7.915  1.7351 -0.0317 -0.1657
 6035TIP3    H239741   5.615   3.113   7.769 -0.9129  0.8389  0.2715
 6036TIP3   OH239742   4.046   5.284   8.239 -0.2221 -0.2088 -0.5162
 6036TIP3    H139743   3.963   5.327   8.219 -0.2686 -0.5404 -1.0525
 6036TIP3    H239744   4.111   5.355   8.237 -0.4825  0.0347 -0.1824
 6037TIP3   OH239745   1.094   5.529   0.158  1.2205 -0.4368 -0.2190
 6037TIP3    H139746   1.041   5.522   0.238 -0.5889 -1.5189 -1.4367
 6037TIP3    H239747   1.180   5.496   0.183  0.8222 -0.3440  1.3882
 6038TIP3   OH239748   4.386   0.813   7.227  0.3264 -0.2000  0.1960
 6038TIP3    H139749   4.294   0.832   7.245  0.2650  0.9233 -1.1216
 6038TIP3    H239750   4.385   0.746   7.159  0.4982 -0.6116  0.5930
 6039TIP3   OH239751   2.943   5.554   7.548 -0.3167  0.5493 -0.0738
 6039TIP3    H139752   2.918   5.646   7.536 -2.7783  0.1485  1.4143
 6039TIP3    H239753   2.964   5.523   7.460 -2.8817  1.6262 -1.1395
 6040TIP3   OH239754   4.236   2.738   0.031  0.0189  0.3580  0.2698
 6040TIP3    H139755   4.232   2.661   0.088 -0.6786  0.3292  0.1844
 6040TIP3    H239756   4.280   2.805   0.083  2.6557 -0.7247 -0.3855
 6041TIP3   OH239757   3.757   4.073   1.523 -0.5448 -0.1810 -0.0369
 6041TIP3    H139758   3.822   4.023   1.572 -0.2507  0.2826  0.0491
 6041TIP3    H239759   3.773   4.164   1.547  1.5104  0.4336 -3.0545
 6042TIP3   OH239760   2.465   1.004   7.260 -0.1593 -0.0104  0.5431
 6042TIP3    H139761   2.402   1.070   7.287 -0.1392  0.2843 -0.1042
 6042TIP3    H239762   2.413   0.937   7.215 -0.1753 -0.4272  1.1687
 6043TIP3   OH239763   4.680   6.522   7.124 -0.1615  0.1133 -0.1054
 6043TIP3    H139764   4.726   6.603   7.145 -1.2191  1.4421 -2.5537
 6043TIP3    H239765   4.721   6.491   7.043 -1.8560 -0.0147 -0.9698
 6044TIP3   OH239766   4.269   0.465   7.425  0.3924  0.1040 -0.0117
 6044TIP3    H139767   4.299   0.550   7.457 -0.3710  1.0832 -1.7797
 6044TIP3    H239768   4.197   0.441   7.483  1.3463  0.0826  1.2086
 6045TIP3   OH239769   0.009   4.197   6.947 -0.1780 -0.3559 -0.4071
 6045TIP3    H139770  -0.072   4.249   6.953 -0.8620 -1.2935 -1.2431
 6045TIP3    H239771   0.011   4.167   6.857  0.0761 -1.9806  0.1176
 6046TIP3   OH239772   4.338   0.405   8.395 -0.0713  0.2829  0.0675
 6046TIP3    H139773   4.363   0.460   8.470  1.1277 -1.1107  0.7414
 6046TIP3    H239774   4.381   0.446   8.320  0.8483  0.2564  0.5623
 6047TIP3   OH239775   1.258   3.835   6.992  0.3232  0.8029 -0.1168
 6047TIP3    H139776   1.315   3.830   6.915  0.2255 -0.9055 -0.1212
 6047TIP3    H239777   1.317   3.853   7.065  0.7998 -0.3073 -0.2131
 6048TIP3   OH239778   1.349   4.023   1.107  0.3796  0.3359  0.3513
 6048TIP3    H139779   1.418   3.960   1.089 -0.7353 -1.3475  1.6146
 6048TIP3    H239780   1.394   4.105   1.123  1.9530 -0.3665 -0.2987
 6049TIP3   OH239781   3.415   5.472   1.639  0.4217  0.3091  0.1705
 6049TIP3    H139782   3.488   5.507   1.586  0.3070 -1.1406 -0.9986
 6049TIP3    H239783   3.458   5.427   1.711  0.6489  0.4341  0.1154
 6050TIP3   OH239784   6.676   4.127   7.612 -0.0624 -0.3870  0.1433
 6050TIP3    H139785   6.617   4.053   7.628 -1.8903  0.6296 -1.3131
 6050TIP3    H239786   6.624   4.187   7.558  1.9790  1.1171 -0.2859
 6051TIP3   OH239787   6.705   0.774   6.354  0.1320 -0.1730 -0.2668
 6051TIP3    H139788   6.687   0.683   6.331  0.2941 -0.4053  0.5070
 6051TIP3    H239789   6.650   0.825   6.294  0.1301 -0.7719 -0.7856
 6052TIP3   OH239790   3.827   3.789   1.680  0.0944 -0.2184  0.0425
 6052TIP3    H139791   3.879   3.775   1.759  0.4228  1.7777  0.2463
 6052TIP3    H239792   3.885   3.762   1.608  0.7099  0.1714  0.3781
 6053TIP3   OH239793   4.306   0.095   6.729  0.1803 -0.2154  0.2135
 6053TIP3    H139794   4.357   0.175   6.719 -0.2500  0.2316  1.4178
 6053TIP3    H239795   4.317   0.049   6.646  2.4221 -0.0858  0.3858
 6054TIP3   OH239796   6.838   3.654   0.929 -0.5206  0.6091  0.5842
 6054TIP3    H139797   6.816   3.561   0.926  1.7814  0.0064 -2.7158
 6054TIP3    H239798   6.855   3.678   0.838  0.0806  4.0036  1.4506
 6055TIP3   OH239799   1.557   4.135   1.469 -0.5388 -0.2192 -0.7533
 6055TIP3    H139800   1.492   4.072   1.438 -0.4589  0.2592 -1.9363
 6055TIP3    H239801   1.508   4.193   1.528 -1.0978 -0.1060 -1.3225
 6056TIP3   OH239802   5.024   1.721   6.398 -0.1879  0.0424 -0.1881
 6056TIP3    H139803   5.029   1.657   6.327  0.7920  0.2002 -0.2690
 6056TIP3    H239804   4.950   1.777   6.374  0.5629  0.5314 -1.4592
 6057TIP3   OH239805   2.187   6.270   0.096  0.1568 -0.7312 -0.1087
 6057TIP3    H139806   2.224   6.339   0.040  2.0338 -2.2495 -0.8582
 6057TIP3    H239807   2.203   6.189   0.048 -2.3887 -1.7182  0.5420
 6058TIP3   OH239808   2.202   4.997   7.918 -0.5195 -0.8169  0.3351
 6058TIP3    H139809   2.110   5.006   7.891 -0.2240 -1.3125 -0.9487
 6058TIP3    H239810   2.224   5.081   7.956 -1.0607 -0.1102 -0.8339
 6059TIP3   OH239811   5.311   2.267   2.525 -0.0120 -0.0538 -0.0322
 6059TIP3    H139812   5.273   2.197   2.473  0.9246 -1.0269  0.5485
 6059TIP3    H239813   5.240   2.298   2.581 -0.3119 -0.8778  0.0493
 6060TIP3   OH239814   4.730   1.041   7.568 -0.1743  0.1493 -0.1317
 6060TIP3    H139815   4.798   1.052   7.635 -0.0421  1.7001 -0.4960
 6060TIP3    H239816   4.696   0.953   7.584  1.4568 -0.4200  0.4726
 6061TIP3   OH239817   3.819   1.848   8.301 -0.0864 -0.1405  0.1759
 6061TIP3    H139818   3.803   1.756   8.324  1.3434 -0.6850 -0.9282
 6061TIP3    H239819   3.739   1.875   8.254  0.5477 -1.6729 -1.9176
 6062TIP3   OH239820   4.466   1.780   6.347 -0.9746 -0.6509 -0.3914
 6062TIP3    H139821   4.530   1.838   6.306 -1.7364 -0.8624 -1.9239
 6062TIP3    H239822   4.487   1.694   6.313 -2.1181 -0.7089 -0.9646
 6063TIP3   OH239823   0.485   4.384   1.041 -0.0501 -0.4081 -0.4175
 6063TIP3    H139824   0.469   4.291   1.026  2.9632 -0.8640 -1.5026
 6063TIP3    H239825   0.468   4.396   1.135 -0.4197 -2.0435 -0.2335
 6064TIP3   OH239826   3.612   4.449   2.064  0.7220  0.0814 -0.4790
 6064TIP3    H139827   3.600   4.409   2.151  2.0510 -1.3156 -0.9002
 6064TIP3    H239828   3.625   4.542   2.083 -0.6746  0.0892  0.6700
 6065TIP3   OH239829   5.510   6.335   8.253  0.3408 -0.5367 -0.0015
 6065TIP3    H139830   5.606   6.330   8.259  0.4356 -0.5291 -1.2735
 6065TIP3    H239831   5.493   6.357   8.162 -0.8798 -0.4065  0.2462
 6066TIP3   OH239832   5.565   0.123   2.210  0.2071 -0.3046  0.5398
 6066TIP3    H139833   5.657   0.098   2.218 -0.0075 -1.3464  0.0256
 6066TIP3    H239834   5.522   0.045   2.174 -0.2737  1.2503 -2.6525
 6067TIP3   OH239835   6.356   2.517   0.398 -0.0016  0.0094  0.2305
 6067TIP3    H139836   6.438   2.522   0.447  0.3104  1.5518 -0.4007
 6067TIP3    H239837   6.308   2.596   0.423 -0.6893 -0.1754 -0.4724
 6068TIP3   OH239838   3.238   5.484   8.071 -0.2447 -0.0646  0.6823
 6068TIP3    H139839   3.202   5.466   8.158 -0.0096 -1.6639  0.4884
 6068TIP3    H239840   3.307   5.419   8.059  0.1189  0.4973 -0.4756
 6069TIP3   OH239841   5.597   6.927   1.176  0.2835 -0.0034 -0.0228
 6069TIP3    H139842   5.685   6.963   1.187 -0.9521  3.5379 -0.4730
 6069TIP3    H239843   5.565   6.915   1.265  0.4399  0.9519  0.1787
 6070TIP3   OH239844   6.764   2.566   0.710  0.2728  0.2120 -0.3852
 6070TIP3    H139845   6.682   2.553   0.662 -0.2890  2.1425 -0.0520
 6070TIP3    H239846   6.736   2.592   0.798  1.2305  1.0489 -0.3171
 6071TIP3   OH239847   2.331   6.534   7.137 -0.1915  0.2442  0.0895
 6071TIP3    H139848   2.412   6.582   7.153  0.1162 -0.8476  2.0677
 6071TIP3    H239849   2.355   6.464   7.077 -0.1197  1.0610 -0.8615
 6072TIP3   OH239850   3.214   2.260   2.165  0.2444  0.0139 -0.1034
 6072TIP3    H139851   3.122   2.238   2.178 -0.0309  0.7962 -0.6157
 6072TIP3    H239852   3.262   2.180   2.185 -0.5839 -0.5361 -0.3104
 6073TIP3   OH239853   1.261   5.481   8.300 -0.0924  0.3355  0.3694
 6073TIP3    H139854   1.259   5.415   8.369  0.8248  1.3168  1.3532
 6073TIP3    H239855   1.254   5.565   8.345 -1.8003  0.9462 -0.8974
 6074TIP3   OH239856   3.504   6.287   1.807 -0.3052 -0.1527  0.0894
 6074TIP3    H139857   3.452   6.207   1.819 -1.8306  0.7952  0.1582
 6074TIP3    H239858   3.492   6.310   1.714 -0.6245  0.4725  0.2786
 6075TIP3   OH239859   6.854   6.174   0.950 -0.5579  0.5429 -0.4574
 6075TIP3    H139860   6.864   6.264   0.921 -0.9182  0.6965 -0.1091
 6075TIP3    H239861   6.929   6.128   0.913  0.8812  1.4416  1.1820
 6076TIP3   OH239862   4.065   3.789   2.516 -0.2727 -0.1036  0.6146
 6076TIP3    H139863   4.020   3.870   2.492 -0.0212  0.2761  1.3986
 6076TIP3    H239864   4.068   3.790   2.611 -0.4754 -1.1602  0.6440
 6077TIP3   OH239865   6.914   4.577   6.849  0.1942  0.3354 -0.6828
 6077TIP3    H139866   6.871   4.659   6.825  0.7736  0.9870  0.3937
 6077TIP3    H239867   6.851   4.533   6.905 -0.5012 -0.4242 -2.0206
 6078TIP3   OH239868   1.863   6.770   7.893 -0.2891  0.0915 -0.0610
 6078TIP3    H139869   1.865   6.687   7.939  0.4716 -0.3393 -0.8541
 6078TIP3    H239870   1.791   6.761   7.831  1.0707 -0.7867 -1.5842
 6079TIP3   OH239871   2.841   4.376   6.940 -0.1193 -0.3147 -0.0092
 6079TIP3    H139872   2.832   4.281   6.932  1.8253 -0.5332  0.0943
 6079TIP3    H239873   2.903   4.388   7.012 -0.0709  1.0403 -0.2579
 6080TIP3   OH239874   0.375   3.894   7.492  0.0218  0.6478 -0.1370
 6080TIP3    H139875   0.290   3.914   7.453  0.5729 -0.1713 -1.8627
 6080TIP3    H239876   0.415   3.979   7.506 -0.3050  0.9941 -1.1793
 6081TIP3   OH239877   2.877   1.477   1.524 -0.4507 -0.4101  0.2645
 6081TIP3    H139878   2.931   1.454   1.600  0.2556 -1.0624 -0.4160
 6081TIP3    H239879   2.814   1.405   1.516  0.2109 -0.9223 -0.4358
 6082TIP3   OH239880   6.601   1.998   0.880 -0.3255 -0.4239 -0.1899
 6082TIP3    H139881   6.666   1.944   0.836 -2.3805 -3.5195  0.2461
 6082TIP3    H239882   6.635   2.011   0.968  1.5101  1.6057 -1.0941
 6083TIP3   OH239883   3.552   2.836   0.826  0.1843  0.0068  0.3839
 6083TIP3    H139884   3.485   2.800   0.768  0.8946  0.3034 -0.6609
 6083TIP3    H239885   3.622   2.865   0.766  1.0957  0.0003  1.4122
 6084TIP3   OH239886   5.271   5.132   8.025  0.2478 -0.5644 -0.0388
 6084TIP3    H139887   5.269   5.049   8.072  1.4633 -0.2541  0.5920
 6084TIP3    H239888   5.219   5.191   8.078  1.1794 -0.3574  0.6641
 6085TIP3   OH239889   5.458   4.175   0.926 -0.4566  0.1365  0.4758
 6085TIP3    H139890   5.460   4.233   1.002 -0.1686  0.7788 -0.0093
 6085TIP3    H239891   5.543   4.130   0.928  0.3555  1.5535 -0.5081
 6086TIP3   OH239892   3.905   3.125   2.445  0.3697  0.6716 -0.0116
 6086TIP3    H139893   3.856   3.082   2.376  1.7931 -1.0803 -0.0160
 6086TIP3    H239894   3.839   3.163   2.502 -0.9040 -0.0655 -0.9595
 6087TIP3   OH239895   6.527   0.512   0.312 -0.1234  0.1624  0.1829
 6087TIP3    H139896   6.468   0.462   0.255 -0.2678  0.6053 -0.0578
 6087TIP3    H239897   6.580   0.445   0.356  0.8687 -0.1480 -1.3984
 6088TIP3   OH239898   6.605   1.111   1.771  0.0724  0.7465 -0.0785
 6088TIP3    H139899   6.515   1.091   1.747  0.7593 -1.3252 -1.1450
 6088TIP3    H239900   6.627   1.188   1.718 -0.5873  0.3446 -0.9597
 6089TIP3   OH239901   2.859   4.053   0.608 -0.0249  0.2915 -0.5362
 6089TIP3    H139902   2.909   4.130   0.581  0.2921  0.2622 -0.0452
 6089TIP3    H239903   2.802   4.034   0.533 -0.0027  0.9140 -0.7157
 6090TIP3   OH239904   3.273   1.209   5.929  0.1459  0.5017  0.6042
 6090TIP3    H139905   3.274   1.127   5.978  0.7990  0.4807  0.5645
 6090TIP3    H239906   3.191   1.251   5.954 -0.7964 -0.7230 -0.3412
 6091TIP3   OH239907   2.749   6.874   6.265 -0.0792 -0.9036  0.8035
 6091TIP3    H139908   2.729   6.825   6.345 -0.7591 -0.8948  0.6499
 6091TIP3    H239909   2.666   6.875   6.217 -0.0353  0.2739  0.7387
 6092TIP3   OH239910   0.735   2.703   7.476 -0.1207 -0.4435 -0.3782
 6092TIP3    H139911   0.736   2.762   7.552 -0.4883  0.8077 -1.3056
 6092TIP3    H239912   0.753   2.617   7.513 -1.7743 -0.1310  1.3516
 6093TIP3   OH239913   5.750   0.462   0.574 -0.1362 -0.0564  0.0342
 6093TIP3    H139914   5.702   0.500   0.648  1.5108  0.8410  0.7018
 6093TIP3    H239915   5.694   0.479   0.499 -0.5837  1.5963  0.6835
 6094TIP3   OH239916   4.504   1.520   7.665  0.1966 -0.3389  0.6537
 6094TIP3    H139917   4.548   1.603   7.647  1.3755 -0.9323  0.7065
 6094TIP3    H239918   4.410   1.539   7.655  0.5262  0.6365 -0.7562
 6095TIP3   OH239919   3.752   5.125   7.545  0.2222 -0.2731 -0.3042
 6095TIP3    H139920   3.744   5.093   7.635 -0.7308 -0.8244 -0.5682
 6095TIP3    H239921   3.761   5.045   7.492  2.1925  0.0935 -0.5929
 6096TIP3   OH239922   6.250   2.762   0.486 -0.1411 -0.2069 -0.1464
 6096TIP3    H139923   6.232   2.832   0.424  1.6339  0.8578  0.4512
 6096TIP3    H239924   6.241   2.803   0.572 -2.1691 -1.5517  0.3555
 6097TIP3   OH239925   2.864   4.406   7.433 -0.0921  0.5112  0.1956
 6097TIP3    H139926   2.853   4.327   7.485  0.1345  0.4147  0.0945
 6097TIP3    H239927   2.925   4.460   7.483 -0.3782  0.6977  0.3497
 6098TIP3   OH239928   4.591   6.927   8.494  0.0006 -0.4293 -0.2448
 6098TIP3    H139929   4.555   6.920   8.406 -2.2198  0.4766  0.5036
 6098TIP3    H239930   4.562   7.012   8.525  0.9903 -0.6052  1.2645
 6099TIP3   OH239931   4.505   2.018   7.467 -0.6483 -0.0993  0.3129
 6099TIP3    H139932   4.578   2.008   7.405 -2.4566  0.2165 -1.9965
 6099TIP3    H239933   4.474   1.929   7.481  0.9986 -0.4048  2.4579
 6100TIP3   OH239934   5.396   5.121   1.182 -0.4691 -0.0463  0.1164
 6100TIP3    H139935   5.453   5.151   1.253  0.9965 -2.3218  0.0131
 6100TIP3    H239936   5.398   5.192   1.118 -0.1084  1.1430  1.3966
 6101TIP3   OH239937   5.090   1.881   6.603 -0.0917 -0.0971 -0.2828
 6101TIP3    H139938   5.158   1.872   6.670 -1.3272 -1.6411  0.8668
 6101TIP3    H239939   5.104   1.807   6.544 -1.3337 -1.0880  0.5802
 6102TIP3   OH239940   0.761   1.062   8.002 -0.4107  0.4072 -0.3810
 6102TIP3    H139941   0.688   1.053   7.942  0.5249 -0.8842 -1.4004
 6102TIP3    H239942   0.788   0.972   8.021  0.6633  0.8389  0.2693
 6103TIP3   OH239943   4.143   1.422   1.124 -0.4201  0.2330  0.0949
 6103TIP3    H139944   4.154   1.409   1.030  0.7657  2.7046 -0.1905
 6103TIP3    H239945   4.148   1.334   1.161  1.6168 -0.6137 -1.9403
 6104TIP3   OH239946   2.761   6.810   7.200 -0.5338 -0.4005 -0.1096
 6104TIP3    H139947   2.813   6.791   7.122 -0.6300  0.2568 -0.3400
 6104TIP3    H239948   2.792   6.895   7.230 -1.8975  0.3022 -0.6149
 6105TIP3   OH239949   2.836   2.984   5.901  0.8299  0.0423 -0.4115
 6105TIP3    H139950   2.842   3.035   5.982 -0.4912  0.1925 -0.3901
 6105TIP3    H239951   2.745   2.958   5.896  1.3890 -2.0365 -0.6177
 6106TIP3   OH239952   2.554   3.622   1.568  0.1829  0.1022 -0.0649
 6106TIP3    H139953   2.569   3.636   1.475 -1.2093  2.3797 -0.0109
 6106TIP3    H239954   2.639   3.636   1.609  0.4167  0.9359 -0.8227
 6107TIP3   OH239955   3.586   0.994   1.410  0.4514  0.4825 -0.3899
 6107TIP3    H139956   3.597   1.036   1.325  0.8916 -1.0706 -1.1456
 6107TIP3    H239957   3.503   0.946   1.403  0.6793  0.0316 -0.1103
 6108TIP3   OH239958   0.708   0.959   6.608  0.0960  0.0051 -0.7571
 6108TIP3    H139959   0.772   1.013   6.654  0.1641 -0.1362 -0.6875
 6108TIP3    H239960   0.634   1.019   6.591 -0.6349 -0.3391  0.9786
 6109TIP3   OH239961   2.696   3.039   8.155 -0.1535  0.5261 -0.5615
 6109TIP3    H139962   2.650   3.088   8.087 -0.0456  1.1919 -0.1641
 6109TIP3    H239963   2.630   3.023   8.222 -0.2948 -0.2520 -0.8809
 6110TIP3   OH239964   0.280   5.888   7.298  0.1174  0.0591  0.3722
 6110TIP3    H139965   0.272   5.805   7.250 -0.3611  0.8672 -1.0266
 6110TIP3    H239966   0.343   5.871   7.367  0.5491 -1.2773 -0.3264
 6111TIP3   OH239967   4.475   6.779   7.117  0.5254 -0.0714  0.1850
 6111TIP3    H139968   4.457   6.858   7.065 -0.8522  0.5443  1.5253
 6111TIP3    H239969   4.542   6.806   7.179  2.3914 -0.8909 -1.3689
 6112TIP3   OH239970   0.590   5.130   5.875  0.0303  0.1005 -0.3157
 6112TIP3    H139971   0.509   5.181   5.874  0.0183  0.0800 -0.3636
 6112TIP3    H239972   0.566   5.048   5.916  0.0779  0.1806 -0.1260
 6113TIP3   OH239973   3.558   3.762   8.217 -0.2759 -0.6661 -0.0149
 6113TIP3    H139974   3.587   3.708   8.290 -2.3725 -0.6157  0.9055
 6113TIP3    H239975   3.617   3.838   8.218  0.0844 -0.9484  1.2482
 6114TIP3   OH239976   1.711   0.482   7.937 -0.2905  0.2819 -0.3328
 6114TIP3    H139977   1.734   0.453   7.849  0.4767  1.5932 -0.5998
 6114TIP3    H239978   1.627   0.527   7.926 -0.8151 -0.6519 -0.1629
 6115TIP3   OH239979   4.544   3.942   0.823  0.0217 -0.4535 -0.3134
 6115TIP3    H139980   4.481   3.931   0.894 -1.3345  1.2837 -1.1429
 6115TIP3    H239981   4.601   4.013   0.852  0.5129 -0.8572 -0.2848
 6116TIP3   OH239982   6.762   3.776   7.481  0.1754 -0.1768  0.4130
 6116TIP3    H139983   6.750   3.701   7.539  0.1430 -0.4455  0.0640
 6116TIP3    H239984   6.739   3.743   7.394  1.6102 -0.1889  0.0102
 6117TIP3   OH239985   5.488   1.061   0.535  0.1164  0.1746 -0.0816
 6117TIP3    H139986   5.549   0.993   0.506 -0.5553 -0.3308 -0.3351
 6117TIP3    H239987   5.461   1.106   0.455 -0.8917 -0.5058 -0.1474
 6118TIP3   OH239988   2.566   1.339   2.587  0.4391  0.6132  0.7222
 6118TIP3    H139989   2.542   1.359   2.496 -1.0024  0.0821  0.9626
 6118TIP3    H239990   2.501   1.386   2.640 -1.9407 -2.9259  1.3454
 6119TIP3   OH239991   6.593   6.641   6.726  0.4762 -0.3357  0.5676
 6119TIP3    H139992   6.630   6.629   6.638  0.9566  3.2331  0.1487
 6119TIP3    H239993   6.629   6.568   6.777  1.4947 -1.5863 -1.7692
 6120TIP3   OH239994   6.554   1.769   0.184  0.6396 -0.1186 -0.3481
 6120TIP3    H139995   6.540   1.862   0.202  1.9191 -0.1363  0.9347
 6120TIP3    H239996   6.610   1.768   0.106  0.5872  0.1682 -0.3908
 6121TIP3   OH239997   6.057   4.412   0.710 -0.5447  0.4115 -0.0035
 6121TIP3    H139998   6.132   4.425   0.652 -0.9358  0.7122 -0.4482
 6121TIP3    H239999   6.096   4.401   0.797  0.0758 -0.5813 -0.3962
 6122TIP3   OH240000   5.226   6.431   0.197  0.0646  0.3482  0.2373
 6122TIP3    H140001   5.261   6.520   0.206 -0.0606  0.5237 -0.7948
 6122TIP3    H240002   5.201   6.425   0.105 -0.9004 -0.4112  0.5357
 6123TIP3   OH240003   4.371   5.960   8.012 -0.0280  0.0103  0.5558
 6123TIP3    H140004   4.382   5.989   7.922 -1.0121 -0.7078  0.1797
 6123TIP3    H240005   4.346   5.868   8.004 -0.9904  0.1690  1.5105
 6124TIP3   OH240006   1.824   1.984   6.431 -0.3572 -0.1487 -0.2513
 6124TIP3    H140007   1.800   1.901   6.472  0.1390  0.0757  0.5151
 6124TIP3    H240008   1.744   2.036   6.433 -0.5239 -0.4060 -0.2211
 6125TIP3   OH240009   0.624   1.265   0.796 -0.0302 -0.5245 -0.1167
 6125TIP3    H140010   0.548   1.323   0.802  0.0687 -0.5300  2.0141
 6125TIP3    H240011   0.699   1.322   0.812  0.1363 -1.0607  1.1131
 6126TIP3   OH240012   0.941   2.053   7.053  0.0188  0.2328  0.0558
 6126TIP3    H140013   0.888   2.133   7.054 -0.2343  0.0643  0.2194
 6126TIP3    H240014   1.014   2.072   7.112 -0.2901  0.1779  0.4599
 6127TIP3   OH240015   4.790   5.054   0.046 -0.0937 -0.3040  0.2254
 6127TIP3    H140016   4.806   4.971   0.001  0.9532  0.9648 -1.9476
 6127TIP3    H240017   4.753   5.030   0.130 -2.0264 -2.8883 -1.2347
 6128TIP3   OH240018   2.593   0.429   6.872 -0.1553 -0.1096  0.0478
 6128TIP3    H140019   2.648   0.411   6.947  2.2772 -0.6691 -1.7390
 6128TIP3    H240020   2.615   0.518   6.845  1.8949 -1.1733 -2.1442
 6129TIP3   OH240021   5.974   3.247   0.009  0.4275  0.8463  0.2217
 6129TIP3    H140022   5.987   3.253  -0.086  0.5434  0.3284  0.2007
 6129TIP3    H240023   5.900   3.306   0.027 -1.0613 -0.7050 -0.5090
 6130TIP3   OH240024   1.259   5.726   8.415 -0.5134  0.3307 -0.0522
 6130TIP3    H140025   1.170   5.757   8.432 -0.1372  1.2392  0.3530
 6130TIP3    H240026   1.315   5.793   8.455  0.3404 -0.7039  0.5381
 6131TIP3   OH240027   6.891   0.992   0.305  0.6706  0.1407  0.0596
 6131TIP3    H140028   6.853   0.908   0.328 -0.1858  0.4640 -0.1434
 6131TIP3    H240029   6.942   0.975   0.226  1.1018 -0.3374  0.4396
 6132TIP3   OH240030   4.462   5.317   2.492  0.2954 -0.2262  0.3263
 6132TIP3    H140031   4.450   5.223   2.479  0.7522  0.0062 -2.1208
 6132TIP3    H240032   4.557   5.329   2.496  0.2308  0.0642  1.6257
 6133TIP3   OH240033   1.876   0.239   7.420  0.0136 -0.1190  0.2562
 6133TIP3    H140034   1.892   0.190   7.339 -1.2610  0.1748 -0.1984
 6133TIP3    H240035   1.921   0.322   7.406 -1.0265  0.3271 -0.5951
 6134TIP3   OH240036   1.265   2.826   8.126  0.1697 -0.2241  0.2558
 6134TIP3    H140037   1.170   2.821   8.122  0.0247  2.0054 -0.0950
 6134TIP3    H240038   1.291   2.747   8.174 -1.8263 -0.8585  0.3930
 6135TIP3   OH240039   1.331   3.179   8.483 -0.0401  0.3463  0.1631
 6135TIP3    H140040   1.375   3.094   8.475 -0.0526  0.1272  1.9622
 6135TIP3    H240041   1.343   3.220   8.398 -1.0677 -1.9435 -1.1831
 6136TIP3   OH240042   0.684   0.830   1.608 -0.2481 -0.0526  0.0359
 6136TIP3    H140043   0.745   0.903   1.621 -1.1060  0.3188  2.3122
 6136TIP3    H240044   0.740   0.754   1.591  0.8541  0.3868  1.5385
 6137TIP3   OH240045   0.068   3.867   8.548 -0.5780  0.3748  0.2079
 6137TIP3    H140046   0.087   3.961   8.546  0.0998  0.3226  2.1414
 6137TIP3    H240047   0.131   3.832   8.611 -1.2008 -1.3028 -0.0624
 6138TIP3   OH240048   0.970   1.988   0.750 -0.8370 -0.7794 -0.2479
 6138TIP3    H140049   0.953   2.015   0.841 -0.9532  0.5210 -0.6264
 6138TIP3    H240050   0.982   1.894   0.755  0.6861 -0.5640  1.3732
 6139TIP3   OH240051   5.944   5.266   1.810  0.5408  0.0221 -0.0768
 6139TIP3    H140052   5.978   5.350   1.779  0.6572  0.1906  0.4987
 6139TIP3    H240053   5.906   5.286   1.896 -2.1985  0.1348 -1.2025
 6140TIP3   OH240054   4.057   3.333   0.112 -0.0751  0.0861 -0.3078
 6140TIP3    H140055   3.972   3.313   0.152  0.5040 -1.3956  0.2598
 6140TIP3    H240056   4.075   3.423   0.139 -0.5322 -0.2611  1.3220
 6141TIP3   OH240057   6.527   6.110   0.304  0.5567 -0.3443 -0.4350
 6141TIP3    H140058   6.536   6.194   0.349 -1.3873 -0.8508  1.0145
 6141TIP3    H240059   6.447   6.071   0.339  0.1537 -1.8168 -2.7237
 6142TIP3   OH240060   4.406   4.279   1.562  0.5028  0.0754  0.1272
 6142TIP3    H140061   4.385   4.308   1.473 -0.7794  1.5848  0.8767
 6142TIP3    H240062   4.479   4.335   1.589  0.5050  0.0230  0.2324
 6143TIP3   OH240063   6.822   3.248   6.585  0.1391  0.5281  0.4013
 6143TIP3    H140064   6.829   3.336   6.549  0.6686  1.0371  1.7110
 6143TIP3    H240065   6.729   3.239   6.609 -0.0651  0.4468 -0.3786
 6144TIP3   OH240066   6.168   2.985   0.334 -0.0960  0.2754  0.0742
 6144TIP3    H140067   6.164   3.007   0.241 -2.2841 -1.5349 -0.3366
 6144TIP3    H240068   6.106   3.045   0.376 -0.8823 -0.4540 -0.0191
 6145TIP3   OH240069   4.569   2.583   8.419  0.5835  0.0063 -0.0930
 6145TIP3    H140070   4.555   2.518   8.488 -0.2265  1.0980  0.8241
 6145TIP3    H240071   4.656   2.563   8.385  1.0230 -0.5564  1.2725
 6146TIP3   OH240072   1.739   3.830   7.015 -0.3241 -0.4610 -0.0308
 6146TIP3    H140073   1.730   3.762   7.082  0.6370 -1.0435 -0.4753
 6146TIP3    H240074   1.753   3.910   7.065  1.9119 -1.1058  0.5180
 6147TIP3   OH240075   0.576   0.523   7.860 -0.2435  0.1960  0.2232
 6147TIP3    H140076   0.556   0.546   7.950 -0.0177 -0.8444  0.5522
 6147TIP3    H240077   0.671   0.508   7.859 -0.2666  0.0425 -0.1442
 6148TIP3   OH240078   1.661   1.957   1.651 -0.1530  0.6183  0.1735
 6148TIP3    H140079   1.589   1.966   1.713 -1.5785  1.3738 -1.5238
 6148TIP3    H240080   1.643   2.022   1.583  1.2077 -0.3573 -1.1815
 6149TIP3   OH240081   2.750   4.186   7.237 -0.4767 -0.2707  0.1823
 6149TIP3    H140082   2.733   4.200   7.330  0.0424 -0.5489  0.3165
 6149TIP3    H240083   2.839   4.152   7.233 -0.7175 -0.8510 -0.3714
 6150TIP3   OH240084   3.377   5.695   0.165 -0.3111 -0.1602  0.0311
 6150TIP3    H140085   3.287   5.700   0.133 -0.6594  0.3984  1.0419
 6150TIP3    H240086   3.385   5.607   0.202 -0.3370 -0.3129 -0.3161
 6151TIP3   OH240087   4.942   2.012   0.729 -0.0044  0.3160 -0.1602
 6151TIP3    H140088   4.870   1.988   0.787  0.6049  0.2485  0.5999
 6151TIP3    H240089   4.983   2.087   0.772 -0.1485  0.8998 -1.0359
 6152TIP3   OH240090   3.420   1.559   0.084 -0.2811 -0.4581 -0.7269
 6152TIP3    H140091   3.388   1.647   0.102  0.7887  0.1031 -1.4678
 6152TIP3    H240092   3.505   1.555   0.127  0.5881 -0.4042 -2.3751
 6153TIP3   OH240093   1.043   3.350   7.744 -0.2202  1.1207 -0.1975
 6153TIP3    H140094   0.993   3.400   7.809 -1.3720  0.6346 -0.6765
 6153TIP3    H240095   1.010   3.382   7.660 -0.4201  0.1242 -0.5136
 6154TIP3   OH240096   3.944   3.946   8.012 -0.0947 -0.1167  0.2532
 6154TIP3    H140097   3.889   3.868   8.018 -0.1950 -0.1393 -0.7094
 6154TIP3    H240098   3.892   4.008   7.960  0.9249 -0.2846 -1.0339
 6155TIP3   OH240099   2.558   6.815   8.208  0.8061 -0.1008 -0.0191
 6155TIP3    H140100   2.488   6.800   8.145  1.5361 -0.0910 -0.8585
 6155TIP3    H240101   2.579   6.727   8.240  1.4814 -0.3073 -0.9703
 6156TIP3   OH240102   4.910   6.792   7.569 -0.2145 -0.3495 -0.3985
 6156TIP3    H140103   4.904   6.848   7.491 -0.0345  0.4401  0.1440
 6156TIP3    H240104   4.987   6.824   7.615 -0.5129 -0.5927  0.2719
 6157TIP3   OH240105   5.188   4.615   0.139  0.3346  0.2414 -0.1604
 6157TIP3    H140106   5.118   4.560   0.104  1.3924 -1.1086 -0.2451
 6157TIP3    H240107   5.161   4.633   0.230  0.6726 -1.7444  0.3739
 6158TIP3   OH240108   6.269   5.961   8.346  0.3901 -0.0639 -0.1382
 6158TIP3    H140109   6.245   5.869   8.341 -0.6083  0.0633  1.4870
 6158TIP3    H240110   6.361   5.961   8.372  0.8483 -0.5687 -1.6666
 6159TIP3   OH240111   5.214   0.664   7.796  0.0649 -0.1496  0.4934
 6159TIP3    H140112   5.212   0.670   7.701 -0.7776  2.3991  0.6135
 6159TIP3    H240113   5.166   0.583   7.816 -0.0197 -0.5505 -1.2004
 6160TIP3   OH240114   5.767   3.251   2.052  0.3260  0.8800 -0.6572
 6160TIP3    H140115   5.749   3.299   2.133 -2.4284 -0.4041 -0.3891
 6160TIP3    H240116   5.711   3.293   1.986  0.2237  0.0044 -1.1491
 6161TIP3   OH240117   2.222   3.960   7.110 -0.1239  0.1141  0.4895
 6161TIP3    H140118   2.283   4.020   7.068  0.1639 -0.6000 -0.1427
 6161TIP3    H240119   2.267   3.932   7.190  1.2701 -1.8557 -0.8749
 6162TIP3   OH240120   5.740   3.991   8.083  0.3110  0.2209 -0.1776
 6162TIP3    H140121   5.823   4.035   8.065  0.1368  1.8445  2.5732
 6162TIP3    H240122   5.739   3.979   8.178 -1.7601 -1.5686 -0.3537
 6163TIP3   OH240123   5.374   1.243   0.026  0.5776  0.3187  0.2181
 6163TIP3    H140124   5.317   1.210   0.096 -0.9114  0.8644 -0.6966
 6163TIP3    H240125   5.451   1.186   0.029  0.4037  0.1020  2.0532
 6164TIP3   OH240126   3.465   5.260   0.591  0.0550 -0.1882 -0.2709
 6164TIP3    H140127   3.374   5.261   0.621 -0.0586  0.4745 -0.6262
 6164TIP3    H240128   3.481   5.169   0.566 -0.0434 -0.6409  1.1940
 6165TIP3   OH240129   4.636   2.026   7.767 -0.1352  0.3198 -0.2085
 6165TIP3    H140130   4.598   2.057   7.685  0.1088  1.6923  0.1669
 6165TIP3    H240131   4.623   2.099   7.828  1.8027  0.2591  0.3278
 6166TIP3   OH240132   0.490   4.767   6.554  0.1746  0.2980  0.0843
 6166TIP3    H140133   0.465   4.686   6.511  1.1640  0.0803 -0.1025
 6166TIP3    H240134   0.496   4.744   6.647 -2.7740  0.9626  0.5267
 6167TIP3   OH240135   4.410   4.774   1.457  0.3347  0.0280 -0.2112
 6167TIP3    H140136   4.367   4.796   1.539  1.8557 -1.0093  0.9171
 6167TIP3    H240137   4.358   4.702   1.421 -0.5310  0.7090 -0.3476
 6168TIP3   OH240138   3.090   2.551   1.692 -0.0729  0.1100  0.1228
 6168TIP3    H140139   3.134   2.629   1.658 -0.8145  0.6946  0.4655
 6168TIP3    H240140   3.094   2.488   1.620 -0.5903  0.9144 -0.6312
 6169TIP3   OH240141   2.033   2.436   7.949  0.0289  0.0724  0.3006
 6169TIP3    H140142   2.112   2.420   8.000  0.3147 -1.4043 -0.5211
 6169TIP3    H240143   1.961   2.407   8.005  0.3000 -1.0215  0.1103
 6170TIP3   OH240144   5.393   2.675   7.962  0.4575 -0.1973  0.0051
 6170TIP3    H140145   5.411   2.589   8.000 -1.4047 -0.5689  0.1163
 6170TIP3    H240146   5.341   2.721   8.028  2.9867  1.8144  0.7884
 6171TIP3   OH240147   0.843   5.086   1.039  0.1160 -0.5834 -0.4165
 6171TIP3    H140148   0.846   5.016   0.974 -0.2952 -1.7105  0.7321
 6171TIP3    H240149   0.915   5.066   1.099 -1.6880 -1.6955  1.5221
 6172TIP3   OH240150   1.991   4.759   1.636 -0.3972 -0.0879 -0.2890
 6172TIP3    H140151   2.052   4.689   1.657 -0.8113 -0.9740 -1.8909
 6172TIP3    H240152   2.013   4.829   1.697  0.7782 -1.1837  0.5902
 6173TIP3   OH240153   5.247   5.481   1.740 -0.2818 -0.1382  0.3385
 6173TIP3    H140154   5.220   5.512   1.827 -2.3206 -0.2712 -0.2147
 6173TIP3    H240155   5.203   5.396   1.730  0.0559 -0.1929 -0.7722
 6174TIP3   OH240156   5.598   2.999   0.512 -0.1817  0.5200 -0.1122
 6174TIP3    H140157   5.661   2.938   0.474 -0.9722 -0.7500  0.5641
 6174TIP3    H240158   5.527   3.004   0.448 -1.2244 -1.1453  0.8409
 6175TIP3   OH240159   5.460   0.917   2.185 -0.1908  0.3397  0.2501
 6175TIP3    H140160   5.487   0.829   2.210  0.7693  1.2085  2.5643
 6175TIP3    H240161   5.374   0.906   2.144  0.2934 -1.7202 -0.2873
 6176TIP3   OH240162   1.955   2.316   0.000  0.0419 -0.0775 -0.0185
 6176TIP3    H140163   1.860   2.318   0.012 -0.1481  1.0694 -1.3767
 6176TIP3    H240164   1.987   2.391   0.051  0.1985 -0.3254  0.2516
 6177TIP3   OH240165   4.798   4.180   0.611  0.6996  0.3594 -0.0301
 6177TIP3    H140166   4.844   4.233   0.675  3.4802 -0.1955 -1.4436
 6177TIP3    H240167   4.755   4.243   0.553 -2.6168  0.8795  2.6758
 6178TIP3   OH240168   1.443   6.899   0.092  0.7012 -0.7438  0.0131
 6178TIP3    H140169   1.512   6.885   0.157  0.2413  0.0243  0.6784
 6178TIP3    H240170   1.364   6.863   0.134 -0.6407  3.7610  1.9658
 6179TIP3   OH240171   4.313   0.621   1.282  0.1849 -0.0326 -0.2470
 6179TIP3    H140172   4.400   0.647   1.250  1.7071 -1.5018  2.3823
 6179TIP3    H240173   4.273   0.703   1.311  0.7052  0.6385 -1.3524
 6180TIP3   OH240174   6.552   1.887   1.588  0.0333  0.3342 -0.0472
 6180TIP3    H140175   6.531   1.981   1.592 -0.7469  0.1453  1.6341
 6180TIP3    H240176   6.480   1.849   1.538 -1.4469  0.2702  1.9879
 6181TIP3   OH240177   4.955   0.699   0.170  0.4283  0.0587  0.2065
 6181TIP3    H140178   4.919   0.612   0.151 -0.3110  0.0022  1.6751
 6181TIP3    H240179   5.049   0.690   0.155  0.3943 -1.0878  0.5985
 6182TIP3   OH240180   3.295   2.583   7.144 -0.1323 -0.1227 -0.1951
 6182TIP3    H140181   3.259   2.532   7.217 -0.0022  0.6441  0.4192
 6182TIP3    H240182   3.361   2.526   7.105 -1.3424 -1.1870 -0.7643
 6183TIP3   OH240183   3.411   1.280   0.028 -0.1854  0.4179 -0.2110
 6183TIP3    H140184   3.404   1.363   0.076 -0.7237  0.4087 -0.2678
 6183TIP3    H240185   3.448   1.304  -0.057  0.5555  0.4656  0.1211
 6184TIP3   OH240186   3.982   5.925   1.291 -0.1846  0.1769  0.1252
 6184TIP3    H140187   3.930   5.993   1.249 -2.3012 -0.0233  2.2000
 6184TIP3    H240188   3.973   5.941   1.385  3.0346 -0.3099  0.6589
 6185TIP3   OH240189   1.492   1.187   1.759 -0.0283 -0.4334 -0.0807
 6185TIP3    H140190   1.503   1.106   1.710 -4.8915 -0.7876 -1.0207
 6185TIP3    H240191   1.521   1.165   1.848  2.4671 -1.8476 -1.1293
 6186TIP3   OH240192   6.565   6.384   7.071  1.0080  0.0319 -0.3452
 6186TIP3    H140193   6.500   6.373   7.001 -0.6721 -2.3316  1.4226
 6186TIP3    H240194   6.642   6.337   7.040  0.9945  0.6680 -1.3882
 6187TIP3   OH240195   3.264   6.783   0.397  0.2076  0.0193  0.6775
 6187TIP3    H140196   3.219   6.773   0.481  0.0111 -0.9387  0.4664
 6187TIP3    H240197   3.239   6.871   0.367  1.2463  0.8897  2.1732
 6188TIP3   OH240198   0.393   4.404   7.624  0.4048 -0.3377 -0.0060
 6188TIP3    H140199   0.305   4.420   7.659 -0.1240 -0.8090 -1.0431
 6188TIP3    H240200   0.390   4.442   7.536  1.7390  0.9802  0.4880
 6189TIP3   OH240201   5.974   3.167   6.427  0.0049 -0.3685 -0.0759
 6189TIP3    H140202   5.957   3.074   6.438 -0.6651 -0.3358 -0.7473
 6189TIP3    H240203   5.991   3.178   6.333  2.6473 -0.2028  0.3328
 6190TIP3   OH240204   3.560   2.609   1.747 -0.1948  0.2849  0.4908
 6190TIP3    H140205   3.528   2.580   1.662  1.3490  0.4313 -0.1777
 6190TIP3    H240206   3.568   2.704   1.738 -1.7514  0.5418  1.4420
 6191TIP3   OH240207   6.632   1.238   0.628  0.2579 -0.0763 -0.6123
 6191TIP3    H140208   6.545   1.277   0.632 -0.7991 -2.1006 -2.1286
 6191TIP3    H240209   6.628   1.164   0.688  0.9942 -0.1098 -0.5969
 6192TIP3   OH240210   2.499   6.163   0.651 -0.0215 -0.3378 -0.2509
 6192TIP3    H140211   2.412   6.203   0.656 -0.0903 -0.5808  0.6013
 6192TIP3    H240212   2.510   6.118   0.735  1.2254  0.3078 -0.0426
 6193TIP3   OH240213   6.692   1.554   0.292 -0.3453 -0.2076 -0.5660
 6193TIP3    H140214   6.636   1.625   0.262 -0.7317 -0.7212 -1.0884
 6193TIP3    H240215   6.771   1.561   0.238  0.5437  1.1189  0.8376
 6194TIP3   OH240216   5.501   4.397   1.077 -0.3388  0.0217 -0.0439
 6194TIP3    H140217   5.520   4.442   0.994  2.7435 -2.7529 -1.0440
 6194TIP3    H240218   5.457   4.463   1.130 -0.0301  2.7743 -2.8983
 6195TIP3   OH240219   6.710   0.709   7.003  0.8307 -0.1695  0.6106
 6195TIP3    H140220   6.723   0.802   7.019  0.2450  0.5284 -2.4083
 6195TIP3    H240221   6.639   0.684   7.061  2.3344  0.6942  2.9765
 6196TIP3   OH240222   1.468   2.037   1.839  0.1324  0.1925 -1.0115
 6196TIP3    H140223   1.384   2.053   1.882  0.6468  0.5063 -0.0772
 6196TIP3    H240224   1.532   2.081   1.895  1.1657 -1.7482 -0.5405
 6197TIP3   OH240225   1.035   2.104   1.007 -0.4690  0.1596  0.6671
 6197TIP3    H140226   1.103   2.170   0.997  0.4036 -1.0676 -4.1343
 6197TIP3    H240227   1.082   2.024   1.030 -0.3719 -0.3544 -1.1552
 6198TIP3   OH240228   1.250   3.175   1.060 -0.0947 -0.1231 -0.3839
 6198TIP3    H140229   1.290   3.140   0.980  1.4720  0.0766  0.2790
 6198TIP3    H240230   1.204   3.254   1.031  0.0772 -0.2949 -1.1604
 6199TIP3   OH240231   6.259   4.543   1.351  0.2704 -0.1039  0.3370
 6199TIP3    H140232   6.183   4.574   1.301 -0.7382 -1.0650  1.2360
 6199TIP3    H240233   6.285   4.462   1.307 -1.0001 -1.2847  1.6666
 6200TIP3   OH240234   3.528   4.337   6.444  0.1853  0.1642  0.0793
 6200TIP3    H140235   3.543   4.421   6.401  1.3275 -0.8907 -1.7053
 6200TIP3    H240236   3.614   4.295   6.446 -0.3157 -0.8721  1.2038
 6201TIP3   OH240237   0.550   5.241   7.023 -0.1799  0.0434  0.0426
 6201TIP3    H140238   0.606   5.282   7.088 -0.3649  0.6753 -0.1936
 6201TIP3    H240239   0.608   5.221   6.949 -0.1298  0.0537  0.0792
 6202TIP3   OH240240   0.187   1.609   1.399  0.0416  0.0651  0.3792
 6202TIP3    H140241   0.146   1.611   1.313 -1.2526 -3.3756  0.7625
 6202TIP3    H240242   0.140   1.676   1.449 -1.6888 -0.3167 -0.6367
 6203TIP3   OH240243   4.863   4.043   2.254 -0.3504 -0.3811  0.2652
 6203TIP3    H140244   4.811   4.093   2.317 -0.9311  1.0725 -1.3019
 6203TIP3    H240245   4.806   3.969   2.231 -1.0541  0.2850 -0.1840
 6204TIP3   OH240246   2.864   2.561   7.610  0.2304 -0.1566 -0.3595
 6204TIP3    H140247   2.768   2.558   7.609  0.2236 -0.5898  0.8178
 6204TIP3    H240248   2.891   2.470   7.603  0.4869 -0.3288  2.0668
 6205TIP3   OH240249   1.133   3.692   7.842 -0.0191  0.3176  0.2332
 6205TIP3    H140250   1.058   3.641   7.810 -0.1837  0.7036 -0.0028
 6205TIP3    H240251   1.103   3.783   7.839  0.4422  0.4697  0.1900
 6206TIP3   OH240252   4.090   1.286   0.305  0.1584  0.0048  0.1379
 6206TIP3    H140253   4.116   1.312   0.394  1.6303 -2.5106  0.5579
 6206TIP3    H240254   4.137   1.204   0.290 -2.0319 -0.9631 -2.0199
 6207TIP3   OH240255   4.283   6.876   0.700 -0.2815 -0.5491 -0.4387
 6207TIP3    H140256   4.370   6.839   0.714 -0.3157 -0.4876 -0.0530
 6207TIP3    H240257   4.241   6.872   0.786 -1.0494 -1.5573 -0.8361
 6208TIP3   OH240258   0.041   2.507   0.436  0.2188 -0.3138  0.4444
 6208TIP3    H140259  -0.014   2.585   0.441 -0.1592 -0.5551  0.1267
 6208TIP3    H240260   0.128   2.540   0.415 -0.1871 -0.0466 -0.9683
 6209TIP3   OH240261   5.714   5.450   1.155  0.1223  0.2362  0.1379
 6209TIP3    H140262   5.650   5.395   1.109  0.5187 -1.5337  1.5871
 6209TIP3    H240263   5.662   5.521   1.192 -0.6422  0.0778 -0.5892
 6210TIP3   OH240264   3.611   3.173   8.102  0.1681  0.1761  0.3932
 6210TIP3    H140265   3.589   3.080   8.109  0.2213 -0.0260 -1.6275
 6210TIP3    H240266   3.552   3.206   8.035  1.1791  1.2589  0.0220
 6211TIP3   OH240267   0.507   5.073   0.122  0.4599 -0.4041  0.4319
 6211TIP3    H140268   0.577   5.023   0.081 -0.3691 -0.5104 -0.9188
 6211TIP3    H240269   0.547   5.111   0.200  1.3550 -2.4286  1.0099
 6212TIP3   OH240270   2.140   6.697   2.522  0.4845 -0.2848  0.5287
 6212TIP3    H140271   2.053   6.658   2.536  0.3164 -0.5186 -1.0474
 6212TIP3    H240272   2.201   6.624   2.534  0.1988 -1.0226 -1.9604
 6213TIP3   OH240273   6.237   1.882   1.665 -0.4309 -0.2799  0.3356
 6213TIP3    H140274   6.269   1.794   1.646  0.7815  0.4552 -1.2949
 6213TIP3    H240275   6.259   1.897   1.757  4.4096  0.2407 -0.6316
 6214TIP3   OH240276   3.225   5.158   7.651  0.2500  0.2515  0.4009
 6214TIP3    H140277   3.187   5.071   7.642  1.7268 -0.3163 -0.7934
 6214TIP3    H240278   3.197   5.188   7.738  0.6339 -1.8780  1.3254
 6215TIP3   OH240279   4.451   5.425   1.749  0.1371  0.1472 -0.0058
 6215TIP3    H140280   4.506   5.405   1.673 -0.5098 -1.1196 -0.1767
 6215TIP3    H240281   4.430   5.518   1.740  3.0181  0.9452  0.5928
 6216TIP3   OH240282   1.722   1.863   7.918  0.1124  0.1482  0.1471
 6216TIP3    H140283   1.701   1.943   7.966 -2.8495 -1.1777  1.2729
 6216TIP3    H240284   1.724   1.795   7.985  0.9492 -1.0018 -0.9992
 6217TIP3   OH240285   6.555   5.950   8.411  0.0407  0.5830 -0.3755
 6217TIP3    H140286   6.591   5.879   8.357  2.5222  0.0168  1.8056
 6217TIP3    H240287   6.593   6.030   8.375 -0.0952  0.4565 -0.8049
 6218TIP3   OH240288   0.507   4.391   0.623  0.2431 -0.0385  0.1014
 6218TIP3    H140289   0.527   4.404   0.530  0.4728 -1.3208 -0.0540
 6218TIP3    H240290   0.581   4.342   0.657  0.1149  0.3402  0.9486
 6219TIP3   OH240291   1.076   3.070   7.213 -0.0956  0.1106  0.4953
 6219TIP3    H140292   1.156   3.048   7.166  0.6400  1.2852  1.1411
 6219TIP3    H240293   1.066   2.999   7.277 -0.2795 -0.6932 -0.3939
 6220TIP3   OH240294   2.311   5.994   8.559  0.8925 -0.7810 -0.6376
 6220TIP3    H140295   2.381   6.024   8.618 -0.5640  0.9220  0.3435
 6220TIP3    H240296   2.287   5.908   8.593  1.2904 -0.6023  0.1353
 6221TIP3   OH240297   3.275   1.769   6.598  0.4749  0.1811  0.5848
 6221TIP3    H140298   3.265   1.863   6.609 -0.0314  0.4272 -1.6346
 6221TIP3    H240299   3.189   1.733   6.619  0.8448  0.0994  2.0926
 6222TIP3   OH240300   3.709   1.750   1.511 -0.6078  0.1225 -0.3390
 6222TIP3    H140301   3.682   1.658   1.515  2.0367 -0.6987  0.6473
 6222TIP3    H240302   3.627   1.799   1.514 -2.0500 -2.1699  0.2832
 6223TIP3   OH240303   0.095   6.642   8.565 -0.9648  1.3419  0.1634
 6223TIP3    H140304   0.152   6.625   8.640  0.4557  2.6727 -0.5675
 6223TIP3    H240305   0.013   6.597   8.587  0.2886 -0.5320  1.3106
 6224TIP3   OH240306   4.182   1.477   1.436  0.4141  0.2929  0.0803
 6224TIP3    H140307   4.170   1.555   1.490  0.4864 -0.9681  2.0204
 6224TIP3    H240308   4.100   1.428   1.445 -0.0422  0.6161 -1.9793
 6225TIP3   OH240309   6.334   4.465   1.610 -0.3456  0.2428 -0.0495
 6225TIP3    H140310   6.311   4.372   1.604  0.1801  0.2034 -1.8240
 6225TIP3    H240311   6.296   4.505   1.532  1.4430  1.0621 -0.5482
 6226TIP3   OH240312   4.770   2.844   1.331  0.1427  0.0312 -0.5739
 6226TIP3    H140313   4.772   2.836   1.426  0.9826  1.8872 -0.3899
 6226TIP3    H240314   4.758   2.755   1.299 -0.7644 -0.5554  1.2752
 6227TIP3   OH240315   6.414   6.862   0.198  0.1832  0.7536  0.0725
 6227TIP3    H140316   6.421   6.778   0.244  1.4875  0.4475 -0.6501
 6227TIP3    H240317   6.448   6.926   0.260  2.2359  0.3006 -0.5160
 6228TIP3   OH240318   3.710   6.141   7.158 -0.1367  0.5178 -0.1787
 6228TIP3    H140319   3.710   6.046   7.144 -1.4917  0.5251 -0.2919
 6228TIP3    H240320   3.777   6.173   7.097  0.9995 -0.4287  0.5055
 6229TIP3   OH240321   1.926   4.468   0.017  0.4962  0.5443  1.1880
 6229TIP3    H140322   1.873   4.542   0.047  1.1390  0.9347  1.3749
 6229TIP3    H240323   1.876   4.391   0.045 -2.4528  0.7286 -2.7807
 6230TIP3   OH240324   2.530   3.864   7.250  0.4580 -0.1707 -0.2887
 6230TIP3    H140325   2.548   3.950   7.289  0.2498  0.1335 -0.8566
 6230TIP3    H240326   2.515   3.807   7.326  2.3548 -0.1299  0.1705
 6231TIP3   OH240327   4.481   1.772   6.980  0.4537 -0.2332  0.2936
 6231TIP3    H140328   4.506   1.700   6.922  1.8839 -1.0923  1.8965
 6231TIP3    H240329   4.551   1.836   6.970 -0.7227  0.9247 -0.9892
 6232TIP3   OH240330   5.788   0.734   6.412  0.2094  0.5742 -0.0967
 6232TIP3    H140331   5.823   0.692   6.334  1.1837 -0.0458  0.6510
 6232TIP3    H240332   5.694   0.713   6.411  0.3314  0.0381 -0.7603
 6233TIP3   OH240333   3.526   4.802   8.032  0.3482 -0.0488 -0.1663
 6233TIP3    H140334   3.568   4.884   8.060  0.1327 -0.0573  0.1820
 6233TIP3    H240335   3.549   4.795   7.939 -0.1010  0.7062 -0.3507
 6234TIP3   OH240336   0.975   0.877   8.318 -0.0462  0.2987 -0.2066
 6234TIP3    H140337   0.973   0.800   8.375 -0.4138  1.3817  1.2998
 6234TIP3    H240338   1.059   0.919   8.338 -0.6062  1.2063  0.2676
 6235TIP3   OH240339   0.719   0.270   1.950 -0.0664 -0.4654 -0.2624
 6235TIP3    H140340   0.632   0.303   1.972 -2.0380 -2.4206 -4.0134
 6235TIP3    H240341   0.753   0.334   1.887  0.1936 -0.8377 -0.5035
 6236TIP3   OH240342   5.190   6.759   7.655  0.9469  0.0556 -0.5909
 6236TIP3    H140343   5.246   6.835   7.640 -0.5508  1.2110 -0.5288
 6236TIP3    H240344   5.178   6.720   7.568  0.0637  1.1133 -0.9633
 6237TIP3   OH240345   0.521   5.930   2.019  0.2948 -0.0402 -0.2470
 6237TIP3    H140346   0.578   5.937   2.096  0.8074 -0.5212 -0.5708
 6237TIP3    H240347   0.433   5.923   2.055  0.1016  3.2304  0.2360
 6238TIP3   OH240348   3.735   4.684   2.215  0.0781  0.6274 -0.2546
 6238TIP3    H140349   3.741   4.757   2.277 -2.5754  0.3808  0.4285
 6238TIP3    H240350   3.740   4.606   2.270  0.8652  0.3209 -0.7472
 6239TIP3   OH240351   2.528   2.213   2.431 -0.0543 -0.0478  0.6615
 6239TIP3    H140352   2.511   2.125   2.464 -0.1518  0.8153  3.0467
 6239TIP3    H240353   2.446   2.260   2.443 -0.1218  0.3221 -0.9441
 6240TIP3   OH240354   0.618   4.470   8.482  0.1041 -0.4360  0.3760
 6240TIP3    H140355   0.562   4.544   8.457 -1.1948 -1.4167  0.2860
 6240TIP3    H240356   0.706   4.507   8.483 -0.5282  1.1905  0.6121
 6241TIP3   OH240357   6.338   4.677   1.824  0.1444 -0.6275  0.0763
 6241TIP3    H140358   6.324   4.637   1.910 -4.4781 -1.4778 -0.8194
 6241TIP3    H240359   6.347   4.602   1.765 -0.0011 -0.1333 -0.5788
 6242TIP3   OH240360   1.575   2.561   0.699 -0.1943 -0.9459 -0.3454
 6242TIP3    H140361   1.563   2.537   0.607 -0.2135  0.7943 -0.8457
 6242TIP3    H240362   1.492   2.601   0.725  0.1193 -0.6048  0.1470
 6243TIP3   OH240363   6.290   1.597   7.735  0.0468  0.7971  0.0831
 6243TIP3    H140364   6.287   1.595   7.831  0.4139  0.3988  0.0908
 6243TIP3    H240365   6.212   1.645   7.709  0.1785  1.3026  0.5987
 6244TIP3   OH240366   3.171   4.812   0.842 -0.2317  0.0617  0.0141
 6244TIP3    H140367   3.116   4.733   0.838  0.7596 -0.6574  0.0369
 6244TIP3    H240368   3.235   4.793   0.911  0.8224  0.3417 -0.8515
 6245TIP3   OH240369   5.524   3.043   7.618  0.2297  0.1680 -0.0275
 6245TIP3    H140370   5.573   3.030   7.537  0.4612  2.9297 -0.4154
 6245TIP3    H240371   5.514   2.955   7.654 -0.9589 -1.3647 -3.6361
 6246TIP3   OH240372   4.239   1.242   6.213  0.6166  0.5227  0.1298
 6246TIP3    H140373   4.330   1.269   6.224  0.3044  1.3552  0.7217
 6246TIP3    H240374   4.189   1.323   6.210  0.0240  0.1337 -1.6423
 6247TIP3   OH240375   0.805   2.336   6.261 -0.9250 -0.7655  0.6757
 6247TIP3    H140376   0.782   2.423   6.228  0.5484 -0.6618 -0.1580
 6247TIP3    H240377   0.896   2.324   6.235 -0.3649 -1.6207  2.8257
 6248TIP3   OH240378   2.214   5.232   6.326  0.1867  0.1732  0.2306
 6248TIP3    H140379   2.279   5.269   6.387  1.5807  1.0414 -1.6833
 6248TIP3    H240380   2.263   5.170   6.273 -0.3207  1.3465 -1.7173
 6249TIP3   OH240381   1.206   1.128   0.222  0.2802  0.1323 -0.4149
 6249TIP3    H140382   1.121   1.145   0.262 -0.0822 -0.5556 -0.8635
 6249TIP3    H240383   1.226   1.038   0.246  1.1987  0.5005  0.2371
 6250TIP3   OH240384   4.072   5.711   7.721  0.1810 -0.4170 -0.1678
 6250TIP3    H140385   4.030   5.797   7.725 -1.4675 -1.2050  0.5398
 6250TIP3    H240386   4.094   5.700   7.628  2.5051  1.6587  0.0514
 6251TIP3   OH240387   1.138   5.688   1.636 -0.1740  0.3590  0.0295
 6251TIP3    H140388   1.172   5.731   1.558  0.6642  1.5582  1.0099
 6251TIP3    H240389   1.173   5.599   1.632  0.7921  0.7481 -0.3902
 6252TIP3   OH240390   2.955   5.213   8.236 -0.3784  0.0097  0.4175
 6252TIP3    H140391   2.987   5.209   8.326 -0.7819  1.5226  0.6474
 6252TIP3    H240392   2.994   5.137   8.193  1.4252  0.3658  1.3494
 6253TIP3   OH240393   0.422   5.640   1.708 -0.4752 -0.4222  0.5398
 6253TIP3    H140394   0.342   5.620   1.757 -0.3760 -2.7270 -0.0884
 6253TIP3    H240395   0.493   5.607   1.763 -0.0576  0.4403  0.5248
 6254TIP3   OH240396   2.309   1.147   1.170 -0.7103 -0.2151 -0.9295
 6254TIP3    H140397   2.312   1.089   1.247 -1.4298 -0.5232 -1.1237
 6254TIP3    H240398   2.257   1.098   1.106  1.8484 -1.0604 -2.5368
 6255TIP3   OH240399   2.232   3.271   7.743 -0.2358 -0.2336 -0.4118
 6255TIP3    H140400   2.244   3.330   7.818  1.8266 -2.5297  1.2193
 6255TIP3    H240401   2.181   3.322   7.681 -0.8889  2.2857  1.9804
 6256TIP3   OH240402   0.534   2.338   7.448 -0.4029 -0.2655  0.2622
 6256TIP3    H140403   0.448   2.316   7.483 -0.1316  0.1185  1.2138
 6256TIP3    H240404   0.589   2.349   7.526  0.6483 -1.0632 -0.3500
 6257TIP3   OH240405   3.108   1.362   8.044 -0.4254 -0.0086  0.1637
 6257TIP3    H140406   3.065   1.312   8.113 -1.2464 -1.8638 -1.5823
 6257TIP3    H240407   3.052   1.437   8.029 -1.3562 -0.6933  0.1369
 6258TIP3   OH240408   3.127   4.004   0.120  0.4874 -0.1294 -0.7281
 6258TIP3    H140409   3.195   3.962   0.068  0.9273  0.2354 -0.4564
 6258TIP3    H240410   3.175   4.063   0.179 -0.1086  0.7367 -1.0803
 6259TIP3   OH240411   2.638   0.137   0.173 -0.2895 -0.0503  0.2912
 6259TIP3    H140412   2.668   0.055   0.212 -1.1232 -0.4017  0.1980
 6259TIP3    H240413   2.618   0.114   0.082 -0.8375  0.1835  0.3515
 6260TIP3   OH240414   3.669   4.425   1.800  0.3393  0.3090 -0.3949
 6260TIP3    H140415   3.623   4.421   1.884  0.6323  0.1968 -0.2382
 6260TIP3    H240416   3.718   4.507   1.803 -0.2437  0.6765 -0.7705
 6261TIP3   OH240417   5.417   3.316   6.122 -0.6012  0.0034 -0.5243
 6261TIP3    H140418   5.442   3.408   6.120 -0.6845  0.0439  0.2216
 6261TIP3    H240419   5.343   3.312   6.182 -0.4008 -0.5986 -0.3108
 6262TIP3   OH240420   4.096   0.019   6.919  0.5058 -0.2474  0.6496
 6262TIP3    H140421   4.175   0.064   6.889  0.5517  0.4771  1.7828
 6262TIP3    H240422   4.074  -0.040   6.847  1.3284  0.4752 -0.2391
 6263TIP3   OH240423   0.178   5.556   1.799  0.0415 -0.3564 -0.3652
 6263TIP3    H140424   0.120   5.532   1.727 -1.6661 -2.1460  1.4665
 6263TIP3    H240425   0.189   5.476   1.850  1.2771  0.7864  1.3022
 6264TIP3   OH240426   4.808   3.444   7.949 -0.0461 -0.2170 -0.1919
 6264TIP3    H140427   4.830   3.465   8.039 -0.7046 -0.0795 -0.0543
 6264TIP3    H240428   4.717   3.473   7.939  0.1171  0.0606 -0.9894
 6265TIP3   OH240429   4.335   3.633   0.403 -0.0827 -0.3931  0.0488
 6265TIP3    H140430   4.264   3.694   0.380  1.9895  1.4815 -1.8034
 6265TIP3    H240431   4.385   3.678   0.471 -1.0211 -2.0815  1.9938
 6266TIP3   OH240432   4.743   2.954   7.514 -0.1628 -0.3093  0.7463
 6266TIP3    H140433   4.718   3.014   7.584  1.2162 -1.5265  2.3506
 6266TIP3    H240434   4.723   3.002   7.433  0.4528  2.1181  1.9509
 6267TIP3   OH240435   0.403   4.879   7.946  0.4566  0.2990  0.0322
 6267TIP3    H140436   0.350   4.856   8.023 -1.1618 -2.0144 -1.6255
 6267TIP3    H240437   0.493   4.874   7.977 -0.1510  0.7640  2.0798
 6268TIP3   OH240438   6.229   2.601   0.861 -0.5597 -0.6067 -0.6391
 6268TIP3    H140439   6.280   2.535   0.814  0.5765  0.0142 -0.3151
 6268TIP3    H240440   6.247   2.583   0.953 -1.6277 -0.9141 -0.4787
 6269TIP3   OH240441   3.654   4.519   6.766 -0.9276  0.0327  0.1384
 6269TIP3    H140442   3.693   4.433   6.771 -0.0031  0.4005 -0.5658
 6269TIP3    H240443   3.708   4.567   6.703 -1.4997  1.0804  0.4180
 6270TIP3   OH240444   3.680   2.527   2.194  0.0446  0.4137  0.5358
 6270TIP3    H140445   3.620   2.453   2.192  0.1671  0.3255 -0.2442
 6270TIP3    H240446   3.625   2.604   2.177  0.3669  0.1575 -2.0791
 6271TIP3   OH240447   1.363   5.562   1.283 -0.2145  0.6465 -0.9886
 6271TIP3    H140448   1.453   5.539   1.305  0.2655  2.3549 -1.0997
 6271TIP3    H240449   1.318   5.477   1.279  0.7025 -0.1032  1.9286
 6272TIP3   OH240450   3.049   1.853   6.813  0.0776  0.2189 -0.1808
 6272TIP3    H140451   3.016   1.802   6.739 -0.7003 -0.1050  0.3735
 6272TIP3    H240452   3.064   1.788   6.882  0.1999  0.5926  0.1514
 6273TIP3   OH240453   2.859   3.914   8.352 -0.3659  0.1175  0.7217
 6273TIP3    H140454   2.849   3.915   8.256  0.3591 -1.3039  0.6089
 6273TIP3    H240455   2.797   3.848   8.382  0.6273 -0.6986  1.0489
 6274TIP3   OH240456   2.320   5.203   0.550  0.2204  0.2359 -0.9937
 6274TIP3    H140457   2.413   5.222   0.561  0.1967  0.6056 -1.3915
 6274TIP3    H240458   2.288   5.273   0.493 -0.6935  1.1709  0.6059
 6275TIP3   OH240459   3.521   2.232   1.719 -0.1224 -0.6370 -0.3457
 6275TIP3    H140460   3.472   2.313   1.704  0.1308 -0.6209 -1.1173
 6275TIP3    H240461   3.455   2.169   1.747 -0.7614 -0.8524 -2.1870
 6276TIP3   OH240462   1.125   0.833   8.054 -0.2841  0.3947 -0.2389
 6276TIP3    H140463   1.158   0.898   8.115 -1.6709  0.6222  0.3077
 6276TIP3    H240464   1.145   0.748   8.094 -2.1455  0.5417  1.1250
 6277TIP3   OH240465   1.698   2.824   0.669 -0.7859  0.0170  0.5520
 6277TIP3    H140466   1.619   2.875   0.650 -0.4765  0.6583  0.9705
 6277TIP3    H240467   1.668   2.733   0.668 -1.4318  0.2259  0.2259
 6278TIP3   OH240468   2.027   2.109   7.255 -0.3162 -0.2381  0.3700
 6278TIP3    H140469   2.044   2.190   7.206  2.6119 -0.7985  0.3317
 6278TIP3    H240470   2.112   2.068   7.266 -1.7544 -3.6662 -0.0776
 6279TIP3   OH240471   6.387   6.834   8.166  0.8823  0.1988  0.4520
 6279TIP3    H140472   6.437   6.782   8.228  2.7786  2.7690  1.2991
 6279TIP3    H240473   6.402   6.793   8.081 -1.2573 -3.0180  1.4563
 6280TIP3   OH240474   6.445   2.911   5.785 -0.1484  0.3661  0.0864
 6280TIP3    H140475   6.485   2.985   5.830  0.4383 -0.2888  0.6581
 6280TIP3    H240476   6.435   2.942   5.694  2.3962  0.3098 -0.2990
 6281TIP3   OH240477   6.239   4.685   8.058 -0.3376  0.2273  0.6322
 6281TIP3    H140478   6.325   4.718   8.032 -0.1757 -1.0580 -0.5788
 6281TIP3    H240479   6.178   4.734   8.003 -0.5039  1.7482  2.0779
 6282TIP3   OH240480   3.516   0.720   8.123 -0.1529  0.3027  0.5670
 6282TIP3    H140481   3.578   0.748   8.056 -1.6955  0.8679 -0.6951
 6282TIP3    H240482   3.536   0.627   8.138  0.9155  0.4527  0.1554
 6283TIP3   OH240483   1.435   6.625   0.832 -0.5665 -0.2633 -0.1511
 6283TIP3    H140484   1.467   6.642   0.920  0.4548 -0.1149 -0.5387
 6283TIP3    H240485   1.420   6.711   0.794  0.4069 -0.2898 -0.6172
 6284TIP3   OH240486   5.815   4.125   1.258 -0.4275 -0.2164 -0.3981
 6284TIP3    H140487   5.871   4.197   1.284  1.2054 -1.9578  1.2041
 6284TIP3    H240488   5.767   4.101   1.337  1.8045 -3.1570  0.2330
 6285TIP3   OH240489   6.773   1.747   7.154 -0.1704 -0.8331 -0.1012
 6285TIP3    H140490   6.780   1.727   7.247 -0.0208 -1.5790 -0.2715
 6285TIP3    H240491   6.723   1.829   7.151 -1.3445 -1.4939  0.5786
 6286TIP3   OH240492   2.426   1.503   6.080  0.1118 -0.2032 -0.0201
 6286TIP3    H140493   2.415   1.544   6.165  0.3113  3.2128 -1.4882
 6286TIP3    H240494   2.341   1.513   6.037  1.0425  1.8897 -1.6027
 6287TIP3   OH240495   6.779   0.008   0.308 -0.2584  0.5616  0.3902
 6287TIP3    H140496   6.685  -0.003   0.322  0.0796 -2.0052  1.1758
 6287TIP3    H240497   6.815   0.023   0.396  0.4075 -2.3049  0.7087
 6288TIP3   OH240498   1.777   0.059   6.527 -0.4303 -0.1361  0.4685
 6288TIP3    H140499   1.756   0.083   6.617  1.4284 -0.9188  1.1465
 6288TIP3    H240500   1.811  -0.030   6.533  1.3633  0.4261 -0.7489
 6289TIP3   OH240501   4.208   0.923   7.715 -0.0207  0.0008  0.1162
 6289TIP3    H140502   4.164   0.878   7.787 -0.3891  0.1020 -0.0417
 6289TIP3    H240503   4.278   0.973   7.757  1.5953 -2.1073  0.1286
 6290TIP3   OH240504   1.305   2.256   7.842  0.5029  0.4821 -0.0177
 6290TIP3    H140505   1.342   2.330   7.890 -0.4160  0.2196  1.1358
 6290TIP3    H240506   1.381   2.211   7.805  1.1898  1.0330  0.6990
 6291TIP3   OH240507   5.130   3.021   1.729  0.1271  0.5180 -0.5505
 6291TIP3    H140508   5.050   2.970   1.743  1.0540 -0.7545  0.3857
 6291TIP3    H240509   5.154   3.004   1.638 -0.9506  1.3768 -1.0200
 6292TIP3   OH240510   2.752   1.154   0.388  0.9270  0.3969 -0.0345
 6292TIP3    H140511   2.821   1.148   0.322  1.7844  1.2530  0.7574
 6292TIP3    H240512   2.793   1.120   0.468 -0.7538 -2.7063 -0.3515
 6293TIP3   OH240513   4.276   1.353   8.248 -0.8793 -0.1893 -0.1216
 6293TIP3    H140514   4.364   1.324   8.222 -0.6836 -0.4323  0.7756
 6293TIP3    H240515   4.271   1.333   8.341 -1.5905  0.5940  0.0181
 6294TIP3   OH240516   6.717   5.576   8.406  0.0889  0.4954  0.2153
 6294TIP3    H140517   6.737   5.488   8.437 -1.5983  0.5133  1.5325
 6294TIP3    H240518   6.739   5.575   8.313 -0.1862 -1.4182  0.1381
 6295TIP3   OH240519   0.089   0.088   7.478  0.5759 -0.6283 -0.6118
 6295TIP3    H140520   0.146   0.054   7.546 -1.3752 -1.1289  0.8639
 6295TIP3    H240521   0.076   0.014   7.418 -0.5681 -1.3743  0.4924
 6296TIP3   OH240522   3.062   6.444   8.291  0.3991 -0.4581  0.1191
 6296TIP3    H140523   3.056   6.410   8.202  1.8808 -0.3245 -0.0510
 6296TIP3    H240524   3.101   6.531   8.281  4.5109 -1.9782  1.1184
 6297TIP3   OH240525   2.608   1.241   2.135  0.4217  0.2640  0.0119
 6297TIP3    H140526   2.623   1.152   2.104 -1.2003 -1.0139  2.6272
 6297TIP3    H240527   2.682   1.259   2.193  0.6783  0.5974 -0.4109
 6298TIP3   OH240528   4.554   1.201   7.729  0.1637 -0.3030  0.6665
 6298TIP3    H140529   4.526   1.132   7.789 -1.7892 -0.6538 -0.5576
 6298TIP3    H240530   4.631   1.165   7.685  0.7818 -0.5888  1.9378
 6299TIP3   OH240531   5.149   3.290   6.300  0.0975  0.0533 -0.4240
 6299TIP3    H140532   5.091   3.217   6.278 -0.5887  0.1299  0.9722
 6299TIP3    H240533   5.091   3.353   6.344  1.6400 -1.2347  4.0396
 6300TIP3   OH240534   6.809   2.564   8.495 -0.5868 -0.2756 -0.5743
 6300TIP3    H140535   6.724   2.607   8.488 -1.2437 -1.6363 -1.4957
 6300TIP3    H240536   6.872   2.635   8.505 -1.7934  0.7776 -0.2257
 6301TIP3   OH240537   0.897   4.078   6.256 -0.0730  0.1756 -0.1204
 6301TIP3    H140538   0.832   4.055   6.189  0.7353  1.2431 -1.3073
 6301TIP3    H240539   0.920   4.168   6.237  1.4041 -0.0338  0.5896
 6302TIP3   OH240540   1.466   4.435   6.121  0.4218 -0.2471 -0.5065
 6302TIP3    H140541   1.417   4.513   6.146  0.8750 -0.0212 -0.3175
 6302TIP3    H240542   1.521   4.462   6.048  1.6120 -0.0082  0.4445
 6303TIP3   OH240543   4.890   6.335   8.159 -0.1220 -0.6364 -0.1002
 6303TIP3    H140544   4.896   6.427   8.135 -0.6940 -0.8073 -0.9578
 6303TIP3    H240545   4.845   6.335   8.244  0.2213 -0.1142  0.0847
 6304TIP3   OH240546   5.553   6.883   7.861 -0.2325 -0.1151  0.0012
 6304TIP3    H140547   5.581   6.916   7.775  0.3140  0.1026  0.2605
 6304TIP3    H240548   5.477   6.936   7.883  1.5741  2.1967  1.1510
 6305TIP3   OH240549   4.441   1.319   7.215 -0.2740 -0.1291  0.9143
 6305TIP3    H140550   4.415   1.398   7.261  2.0610  0.1233  1.9714
 6305TIP3    H240551   4.478   1.262   7.283 -2.8623 -2.6728  0.3914
 6306TIP3   OH240552   5.118   2.120   7.399  0.2804  0.0113 -0.1762
 6306TIP3    H140553   5.090   2.211   7.392 -0.8517 -0.4127 -1.4885
 6306TIP3    H240554   5.095   2.095   7.489 -1.0828  0.4979 -0.3689
 6307TIP3   OH240555   3.121   2.843   1.242  0.4383 -0.2759  0.2891
 6307TIP3    H140556   3.102   2.874   1.331 -2.3451 -0.1037 -0.2932
 6307TIP3    H240557   3.105   2.749   1.245 -2.9772  0.1661 -0.7128
 6308TIP3   OH240558   0.566   0.457   0.785  0.4171 -0.0182 -0.1669
 6308TIP3    H140559   0.658   0.445   0.809  0.7819 -2.0478 -2.1851
 6308TIP3    H240560   0.569   0.510   0.705 -0.3920  1.9777  1.0551
 6309TIP3   OH240561   3.768   3.500   0.462 -0.7358  0.4773 -0.2742
 6309TIP3    H140562   3.758   3.414   0.420 -0.5415 -1.0652  2.5939
 6309TIP3    H240563   3.680   3.538   0.460 -0.7181  0.5403 -2.0579
 6310TIP3   OH240564   2.507   3.897   0.576 -0.5372  0.1337  0.4235
 6310TIP3    H140565   2.592   3.864   0.603  0.0059  0.9131 -0.2672
 6310TIP3    H240566   2.464   3.921   0.658 -0.3411 -0.8141  0.8197
 6311TIP3   OH240567   0.129   4.217   0.939  0.3151 -0.0882 -0.3760
 6311TIP3    H140568   0.216   4.180   0.927  0.0237 -0.7586 -0.4615
 6311TIP3    H240569   0.142   4.292   0.997  0.5164 -2.2258  2.5801
 6312TIP3   OH240570   2.241   6.202   7.430 -0.2452  0.3512 -0.7262
 6312TIP3    H140571   2.234   6.221   7.336 -1.2623  1.1772 -0.4964
 6312TIP3    H240572   2.170   6.140   7.447 -0.6955  0.9796 -0.3089
 6313TIP3   OH240573   4.618   5.546   1.528  0.1036 -0.2919  0.0165
 6313TIP3    H140574   4.655   5.492   1.457  1.0702 -1.3038  1.2467
 6313TIP3    H240575   4.695   5.576   1.577 -0.3099  3.0498 -1.1483
 6314TIP3   OH240576   4.136   5.753   8.378  0.3718  0.4430 -0.0446
 6314TIP3    H140577   4.192   5.696   8.325  0.6873  0.6271  0.0879
 6314TIP3    H240578   4.102   5.696   8.447 -0.2218  0.1473 -0.5712
 6315TIP3   OH240579   2.236   4.377   6.324 -0.1549  0.3775 -0.2779
 6315TIP3    H140580   2.329   4.370   6.304 -0.1200 -0.3203  0.1196
 6315TIP3    H240581   2.204   4.447   6.266  0.6267  0.6679 -0.3577
 6316TIP3   OH240582   6.245   3.773   6.512 -0.0823 -0.9384  0.3759
 6316TIP3    H140583   6.243   3.770   6.417  2.5789  1.9898  0.0645
 6316TIP3    H240584   6.288   3.692   6.538 -3.3034 -3.1487 -0.5480
 6317TIP3   OH240585   4.827   5.595   2.506  0.7278  0.0976  0.3288
 6317TIP3    H140586   4.813   5.583   2.600  0.8281  0.5350  0.4018
 6317TIP3    H240587   4.808   5.688   2.491 -0.6881 -0.2644 -0.3285
 6318TIP3   OH240588   5.814   5.725   6.674 -0.1470 -0.5690 -0.6667
 6318TIP3    H140589   5.814   5.803   6.618  2.3342 -0.7295 -1.0046
 6318TIP3    H240590   5.788   5.758   6.760 -1.4026  0.1690 -1.2859
 6319TIP3   OH240591   4.637   6.948   0.634 -0.5380  0.0568 -0.0328
 6319TIP3    H140592   4.716   6.933   0.581  0.9100  0.6398  1.8640
 6319TIP3    H240593   4.599   6.861   0.643  0.6370 -0.4733  0.1172
 6320TIP3   OH240594   6.326   2.435   1.047  0.1611  0.5235 -0.4540
 6320TIP3    H140595   6.415   2.413   1.020 -0.2325  0.4364 -1.7276
 6320TIP3    H240596   6.335   2.463   1.138  1.4387  0.1993 -0.4644
 6321TIP3   OH240597   0.527   4.640   6.790 -0.4634 -0.2311  0.6186
 6321TIP3    H140598   0.611   4.686   6.796 -0.5222 -0.0772  0.2822
 6321TIP3    H240599   0.551   4.547   6.785 -0.2851 -0.1531 -0.0521
 6322TIP3   OH240600   2.112   5.586   0.935 -0.0038 -0.4166 -0.3282
 6322TIP3    H140601   2.046   5.649   0.963  2.0459  1.5255  0.3952
 6322TIP3    H240602   2.128   5.607   0.843 -1.1499 -1.6764 -0.8640
 6323TIP3   OH240603   4.424   3.099   7.031  0.0595  0.3842  0.1977
 6323TIP3    H140604   4.358   3.120   6.965 -0.2406 -1.5397 -0.1845
 6323TIP3    H240605   4.508   3.111   6.986 -0.0843  0.7760  0.0277
 6324TIP3   OH240606   3.855   3.757   7.083 -0.6177 -0.9031 -0.1133
 6324TIP3    H140607   3.847   3.809   7.162 -2.6989  1.5589 -1.7552
 6324TIP3    H240608   3.831   3.669   7.109 -0.0403 -0.4306  2.1923
 6325TIP3   OH240609   2.536   1.641   7.241 -0.2731  0.1865 -0.2229
 6325TIP3    H140610   2.530   1.694   7.161 -1.1221  0.0892 -0.2367
 6325TIP3    H240611   2.545   1.551   7.209  5.0721  0.4334 -0.3055
 6326TIP3   OH240612   4.944   1.330   1.416 -0.0794  0.3310 -0.2787
 6326TIP3    H140613   4.916   1.368   1.500 -1.4327  0.7065 -0.8785
 6326TIP3    H240614   5.010   1.266   1.441 -0.1791  0.6972  1.0534
 6327TIP3   OH240615   0.561   5.617   0.785 -0.7808  0.1110  0.6998
 6327TIP3    H140616   0.477   5.582   0.814 -0.9061  1.8834  2.6828
 6327TIP3    H240617   0.542   5.659   0.701 -1.3496 -1.3572  0.0477
 6328TIP3   OH240618   2.643   0.395   8.435 -0.0430  0.0116 -0.0863
 6328TIP3    H140619   2.700   0.363   8.365  1.4077  0.6903  0.7462
 6328TIP3    H240620   2.554   0.381   8.401  0.5944 -0.9927 -1.4539
 6329TIP3   OH240621   5.300   3.773   1.269  0.0626  0.2454 -0.7634
 6329TIP3    H140622   5.336   3.843   1.214 -1.5757  2.3642  0.6722
 6329TIP3    H240623   5.319   3.802   1.359  0.9322 -2.1159 -0.1249
 6330TIP3   OH240624   2.753   3.956   7.541  0.3919  0.8644 -0.2358
 6330TIP3    H140625   2.757   4.041   7.584 -0.2756  0.8853 -0.2000
 6330TIP3    H240626   2.693   3.904   7.595 -0.4489  0.8882 -1.1073
 6331TIP3   OH240627   2.991   4.495   0.060  0.0851  0.1104  0.2018
 6331TIP3    H140628   3.086   4.501   0.050 -0.1154  0.2983 -2.4142
 6331TIP3    H240629   2.959   4.479  -0.029 -2.2156 -1.9007  1.2683
 6332TIP3   OH240630   0.635   1.236   1.118  0.1853  0.1556  0.3409
 6332TIP3    H140631   0.709   1.179   1.096 -0.0224  0.3904 -1.1380
 6332TIP3    H240632   0.586   1.244   1.036 -1.7663 -0.3711  1.3995
 6333TIP3   OH240633   4.029   2.084   8.033  0.3165 -0.5290 -0.0615
 6333TIP3    H140634   3.949   2.126   8.064  0.1784 -1.2818  0.6616
 6333TIP3    H240635   4.000   2.027   7.962  0.8056  2.0908 -2.5038
 6334TIP3   OH240636   1.541   4.098   0.656 -0.6209  0.4830  0.0107
 6334TIP3    H140637   1.619   4.072   0.607  0.5242 -1.1617  2.4782
 6334TIP3    H240638   1.503   4.170   0.606  0.2892 -1.1806 -3.3314
 6335TIP3   OH240639   0.956   1.222   8.361 -0.0235  0.2782  0.0331
 6335TIP3    H140640   0.997   1.148   8.406  0.4664  0.9465  0.7134
 6335TIP3    H240641   0.948   1.290   8.428 -1.6009  0.4180 -0.2700
 6336TIP3   OH240642   4.902   0.078   7.984  0.3704 -0.4393  0.2792
 6336TIP3    H140643   4.827   0.034   8.026 -0.5575 -0.3018 -1.1771
 6336TIP3    H240644   4.972   0.013   7.986  0.0437 -0.7853  1.1324
 6337TIP3   OH240645   6.029   3.611   6.794  0.2041 -0.5735  0.8211
 6337TIP3    H140646   6.069   3.665   6.862 -1.0748  0.0720  1.0921
 6337TIP3    H240647   6.103   3.576   6.744  1.1454  2.9327 -0.5784
 6338TIP3   OH240648   2.985   3.316   8.387  0.6684 -0.1114 -0.3771
 6338TIP3    H140649   3.044   3.255   8.344 -0.6002 -0.6454 -1.4665
 6338TIP3    H240650   3.025   3.402   8.374  1.0172 -0.4176 -1.4739
 6339TIP3   OH240651   4.312   1.495   6.020  0.1379  0.3731  0.0360
 6339TIP3    H140652   4.312   1.557   6.093  0.0683 -1.5191  1.7543
 6339TIP3    H240653   4.224   1.457   6.021 -0.5800  1.7408 -2.4236
 6340TIP3   OH240654   1.492   6.851   2.319  0.2143  0.1915 -0.6956
 6340TIP3    H140655   1.522   6.775   2.369  0.6643  0.5269 -0.4481
 6340TIP3    H240656   1.572   6.899   2.298 -0.2289  1.8320  1.1404
 6341TIP3   OH240657   5.681   0.835   7.137 -0.1694  0.1574 -0.9003
 6341TIP3    H140658   5.717   0.877   7.058 -0.9722 -0.5395 -1.6673
 6341TIP3    H240659   5.594   0.805   7.110  0.7482 -2.9658 -0.7764
 6342TIP3   OH240660   0.667   6.641   0.117  0.0764  0.2041 -0.2846
 6342TIP3    H140661   0.650   6.735   0.109  0.1822  0.2930  0.4125
 6342TIP3    H240662   0.684   6.611   0.028  1.1638  1.0665 -0.3911
 6343TIP3   OH240663   0.219   3.831   0.789  0.0451  0.1292  0.4319
 6343TIP3    H140664   0.145   3.820   0.729 -0.6002  0.9522  1.0452
 6343TIP3    H240665   0.293   3.854   0.733  0.0555 -1.5269 -0.2728
 6344TIP3   OH240666   6.090   3.471   1.520 -0.3298  0.1325 -0.0881
 6344TIP3    H140667   6.028   3.431   1.458 -0.2782  0.3621 -0.2906
 6344TIP3    H240668   6.115   3.400   1.578 -0.8755  0.0603  0.0680
 6345TIP3   OH240669   6.700   2.444   6.612 -0.0810 -0.0011 -0.3410
 6345TIP3    H140670   6.709   2.531   6.571  0.4725 -0.4698 -1.2422
 6345TIP3    H240671   6.713   2.382   6.540 -0.0429 -0.8445  0.3745
 6346TIP3   OH240672   5.149   0.555   1.879  0.5241  0.1820 -0.5881
 6346TIP3    H140673   5.150   0.615   1.953 -0.1243 -1.5167  0.8889
 6346TIP3    H240674   5.073   0.581   1.827  0.5913  0.9907 -0.2859
 6347TIP3   OH240675   6.676   2.959   8.148 -0.3231 -0.0671  0.5454
 6347TIP3    H140676   6.700   2.965   8.056 -1.5145 -0.7589  0.1677
 6347TIP3    H240677   6.581   2.973   8.149 -0.3786 -0.4270  1.6207
 6348TIP3   OH240678   6.076   2.499   1.428  0.4002  0.1876  0.1625
 6348TIP3    H140679   6.083   2.566   1.496  1.3561 -0.7741  1.0608
 6348TIP3    H240680   6.013   2.534   1.366  0.1886  1.5054  1.0778
 6349TIP3   OH240681   6.091   5.115   2.338  0.0315  0.5211  0.3598
 6349TIP3    H140682   6.116   5.034   2.294 -0.0422 -0.4678  2.0190
 6349TIP3    H240683   6.085   5.090   2.431  1.4106  2.7698  1.1132
 6350TIP3   OH240684   1.162   0.061   1.180  0.7806  0.0210 -0.4950
 6350TIP3    H140685   1.205   0.052   1.095 -0.4701  0.7461 -1.2565
 6350TIP3    H240686   1.079   0.015   1.169  0.4392  0.4596  0.1933
 6351TIP3   OH240687   5.658   2.415   0.900  0.0923  0.1408  0.2097
 6351TIP3    H140688   5.664   2.437   0.807 -0.9557  1.9642  0.5211
 6351TIP3    H240689   5.672   2.498   0.945 -0.4256 -0.5172  1.6382
 6352TIP3   OH240690   3.203   2.407   0.620 -0.4341  0.1421  0.1592
 6352TIP3    H140691   3.189   2.462   0.543 -2.1902  0.1828  0.4649
 6352TIP3    H240692   3.179   2.463   0.694  0.1882 -0.2495  0.6762
 6353TIP3   OH240693   1.573   0.324   7.290  0.2519 -0.0738  0.0476
 6353TIP3    H140694   1.665   0.313   7.267 -0.3287  1.3850 -3.5315
 6353TIP3    H240695   1.532   0.242   7.264  0.2889 -0.1005  0.0731
 6354TIP3   OH240696   3.045   6.783   8.220 -0.4256  0.6023  0.0402
 6354TIP3    H140697   2.968   6.730   8.238 -0.1197  0.5124  1.1836
 6354TIP3    H240698   3.030   6.865   8.268  0.2409  0.5391  0.3722
 6355TIP3   OH240699   2.539   5.740   0.081  0.1776  0.1017  0.5090
 6355TIP3    H140700   2.487   5.670   0.120 -0.3174  0.1948  0.0229
 6355TIP3    H240701   2.628   5.706   0.080 -0.1760 -0.8292 -0.4092
 6356TIP3   OH240702   0.650   2.037   0.786  0.4739  0.6287  0.3669
 6356TIP3    H140703   0.733   2.072   0.753  1.2751 -1.2479  0.2325
 6356TIP3    H240704   0.632   1.962   0.729 -1.7681  1.4716 -0.1191
 6357TIP3   OH240705   0.973   6.725   2.509  0.2274  0.4964 -0.6893
 6357TIP3    H140706   0.877   6.727   2.508  0.0951  0.4034  2.3587
 6357TIP3    H240707   0.997   6.811   2.543  1.1378 -0.0037 -0.0420
 6358TIP3   OH240708   2.877   6.253   1.976 -0.0817  0.5452 -0.1722
 6358TIP3    H140709   2.860   6.338   2.016  3.1349  1.7972 -1.1096
 6358TIP3    H240710   2.865   6.268   1.883  1.7097  0.4121 -0.4665
 6359TIP3   OH240711   2.475   5.480   8.462  0.3872  0.0493  0.1402
 6359TIP3    H140712   2.494   5.439   8.377 -1.0832 -2.9015  1.1236
 6359TIP3    H240713   2.557   5.472   8.511  0.8542  0.5963 -0.5254
 6360TIP3   OH240714   0.118   6.939   0.776  0.0040 -0.4499  0.3075
 6360TIP3    H140715   0.188   6.911   0.835 -0.1810  0.6649  1.0696
 6360TIP3    H240716   0.124   6.878   0.702  1.6882 -0.4659  0.4142
 6361TIP3   OH240717   5.568   0.020   6.622  0.1176  0.0288 -0.6368
 6361TIP3    H140718   5.658   0.052   6.618  0.3195 -0.4239  0.0519
 6361TIP3    H240719   5.532   0.038   6.535 -0.5261  4.2459  0.2673
 6362TIP3   OH240720   5.393   6.424   7.177 -0.2658 -0.3342  0.1195
 6362TIP3    H140721   5.332   6.371   7.126 -1.7195  0.1936  1.2733
 6362TIP3    H240722   5.443   6.361   7.228  1.1438 -0.8720 -1.7766
 6363TIP3   OH240723   4.390   5.694   1.302  0.5576 -0.3138 -0.3330
 6363TIP3    H140724   4.460   5.661   1.245  1.0895  0.1945  0.0136
 6363TIP3    H240725   4.361   5.617   1.351  0.7382 -0.5671 -0.6162
 6364TIP3   OH240726   4.995   5.769   6.779  0.5919  0.2392  0.5257
 6364TIP3    H140727   5.035   5.705   6.720 -1.9735  1.0457 -2.3929
 6364TIP3    H240728   5.041   5.851   6.759  1.3593  0.0568  1.4987
 6365TIP3   OH240729   6.309   3.285   1.227  0.1628 -0.0997  0.3652
 6365TIP3    H140730   6.331   3.194   1.246  2.5861 -0.1961 -2.1958
 6365TIP3    H240731   6.232   3.279   1.170 -0.7388 -0.3823  1.5694
 6366TIP3   OH240732   5.710   4.622   8.204 -0.3719 -0.8223 -0.0319
 6366TIP3    H140733   5.743   4.705   8.169 -1.6073 -0.5755 -0.6734
 6366TIP3    H240734   5.788   4.569   8.217  0.5768  0.8136  1.4209
 6367TIP3   OH240735   4.179   6.423   7.810  1.0470 -0.2448  0.9408
 6367TIP3    H140736   4.228   6.503   7.789 -0.8268  1.3313  2.2347
 6367TIP3    H240737   4.157   6.432   7.903 -0.2751 -1.6749  0.8051
 6368TIP3   OH240738   4.872   3.163   1.387  0.0635  1.0313  0.1215
 6368TIP3    H140739   4.842   3.072   1.387  1.6739  0.4758  0.1409
 6368TIP3    H240740   4.844   3.198   1.472 -1.0632  0.7430 -0.1174
 6369TIP3   OH240741   2.809   0.108   1.898 -0.3948 -0.2235 -0.6401
 6369TIP3    H140742   2.715   0.124   1.887 -0.3550  1.9182  1.2574
 6369TIP3    H240743   2.814   0.040   1.965 -0.5870 -0.9899 -1.3995
 6370TIP3   OH240744   1.238   0.137   7.626  0.8236 -0.5060  0.0258
 6370TIP3    H140745   1.147   0.167   7.628  0.3827 -1.8146  0.5433
 6370TIP3    H240746   1.242   0.078   7.550  1.5302  0.3523 -0.6346
 6371TIP3   OH240747   3.209   0.282   7.588  0.2542 -0.3151  0.7767
 6371TIP3    H140748   3.224   0.199   7.635  0.0272 -0.0899  1.2567
 6371TIP3    H240749   3.203   0.348   7.658 -2.4809 -0.2909  0.6109
 6372TIP3   OH240750   2.017   1.137   1.330  0.4103 -0.4608 -0.2201
 6372TIP3    H140751   2.004   1.084   1.252  0.9703  1.1035 -1.4188
 6372TIP3    H240752   1.988   1.081   1.402 -0.1289 -1.9342 -1.5335
 6373TIP3   OH240753   5.012   1.738   8.344 -0.3811  0.0801  0.2393
 6373TIP3    H140754   5.007   1.643   8.355 -0.3953 -0.0865 -1.0927
 6373TIP3    H240755   4.945   1.758   8.279 -0.6580  1.0644  0.8123
 6374TIP3   OH240756   6.090   1.043   7.579  0.7821  0.2413 -0.3114
 6374TIP3    H140757   6.138   1.116   7.540 -0.3712  1.1911 -0.0075
 6374TIP3    H240758   6.049   1.080   7.657  1.4948 -1.1485  0.7801
 6375TIP3   OH240759   2.756   6.042   2.477 -0.6670  0.3123  0.1528
 6375TIP3    H140760   2.825   5.978   2.494  0.0858  0.4745 -1.9771
 6375TIP3    H240761   2.688   6.022   2.541  1.4504  0.3546  2.5515
 6376TIP3   OH240762   5.387   3.641   8.168 -0.0340 -0.1922 -0.0896
 6376TIP3    H140763   5.357   3.565   8.117 -1.0809 -0.6903  1.2147
 6376TIP3    H240764   5.483   3.635   8.164 -0.0960 -1.2171 -0.5428
 6377TIP3   OH240765   2.886   0.311   6.990  0.1776 -0.4428  0.1833
 6377TIP3    H140766   2.847   0.260   6.918  2.4586  0.7637 -2.0848
 6377TIP3    H240767   2.944   0.249   7.034  0.1808 -0.7300 -0.2194
 6378TIP3   OH240768   2.350   0.302   0.269  0.0641 -0.2606  0.7010
 6378TIP3    H140769   2.325   0.337   0.354 -1.6305 -1.1966  0.6306
 6378TIP3    H240770   2.380   0.378   0.219 -0.3278  0.5206  1.6391
 6379TIP3   OH240771   1.168   3.725   8.126  0.2762 -0.8909 -0.0309
 6379TIP3    H140772   1.163   3.735   8.031 -0.5249  1.1870  0.1788
 6379TIP3    H240773   1.260   3.705   8.143  0.9548  1.0529 -1.1083
 6380TIP3   OH240774   1.469   0.886   1.409  0.6677 -0.2277 -0.2084
 6380TIP3    H140775   1.525   0.813   1.380 -0.0614 -2.5187  3.4364
 6380TIP3    H240776   1.383   0.865   1.372  0.9977  0.3265 -1.3497
 6381TIP3   OH240777   5.453   3.789   1.984 -0.3690  0.5395 -0.0521
 6381TIP3    H140778   5.532   3.816   1.937 -1.4374  0.0479 -2.2485
 6381TIP3    H240779   5.428   3.706   1.944 -2.5204  1.1415 -0.1278
 6382TIP3   OH240780   1.157   1.056   8.445  0.0743 -0.0098 -0.0217
 6382TIP3    H140781   1.169   1.087   8.535 -1.2004  0.0247  0.1506
 6382TIP3    H240782   1.241   1.016   8.423  0.1193 -0.8414  1.5084
 6383TIP3   OH240783   3.184   2.686   0.203  0.0777 -0.5038  0.3961
 6383TIP3    H140784   3.185   2.776   0.172 -0.4199 -0.1862  1.2864
 6383TIP3    H240785   3.262   2.646   0.163  1.5110  0.8833  1.6851
 6384TIP3   OH240786   3.624   0.904   0.305  0.2959 -0.2084 -0.6762
 6384TIP3    H140787   3.620   0.817   0.265  0.9102 -0.7365  0.3423
 6384TIP3    H240788   3.717   0.919   0.321  0.1380  0.3198 -0.1988
 6385TIP3   OH240789   2.535   5.770   6.845  0.4748 -0.2773  0.0487
 6385TIP3    H140790   2.589   5.778   6.767 -0.2079 -0.1990 -0.4243
 6385TIP3    H240791   2.459   5.718   6.817  0.6082 -0.9284  0.8582
 6386TIP3   OH240792   4.162   3.704   2.266 -0.4852  0.3878 -0.2078
 6386TIP3    H140793   4.087   3.738   2.216 -1.8381 -0.7142  1.0012
 6386TIP3    H240794   4.132   3.704   2.357  1.0335  0.0111  0.3173
 6387TIP3   OH240795   3.915   6.710   8.098  0.4630 -0.6445  0.2401
 6387TIP3    H140796   3.832   6.662   8.102 -0.3777  0.8241  1.1228
 6387TIP3    H240797   3.981   6.641   8.085 -0.9694 -1.7288 -2.1061
 6388TIP3   OH240798   0.805   3.182   1.903 -1.0847 -0.1944 -0.6265
 6388TIP3    H140799   0.892   3.190   1.942 -0.8030 -1.5831 -0.9216
 6388TIP3    H240800   0.745   3.188   1.976 -0.6398 -1.0876 -0.1699
 6389TIP3   OH240801   3.454   6.194   7.242  0.5193 -0.1698 -0.2341
 6389TIP3    H140802   3.399   6.128   7.200  0.5639 -1.9582  2.3132
 6389TIP3    H240803   3.543   6.168   7.220  0.5072  0.4842 -1.1577
 6390TIP3   OH240804   4.210   3.961   0.154  0.3699  0.0661 -0.2019
 6390TIP3    H140805   4.190   3.895   0.220 -1.6413 -0.2927 -1.1211
 6390TIP3    H240806   4.303   3.948   0.135  0.2946 -1.7547  0.4682
 6391TIP3   OH240807   4.187   6.256   6.581 -0.4439  0.0805  0.0879
 6391TIP3    H140808   4.152   6.222   6.663 -1.4036 -0.1424 -0.3849
 6391TIP3    H240809   4.272   6.215   6.571  0.0576  0.7523  1.3663
 6392TIP3   OH240810   5.012   6.062   0.904  0.0927 -0.1601  0.0592
 6392TIP3    H140811   4.969   6.142   0.932  0.1821 -0.0937  0.0055
 6392TIP3    H240812   4.970   5.993   0.956  2.2015  0.2594  2.5213
 6393TIP3   OH240813   3.790   5.574   6.305  0.6246  0.6374 -0.3552
 6393TIP3    H140814   3.696   5.580   6.320  0.6741 -1.0964  0.8525
 6393TIP3    H240815   3.828   5.638   6.365  0.3584 -1.0244  1.7056
 6394TIP3   OH240816   3.439   4.185   8.074 -0.4899 -0.1886 -0.1932
 6394TIP3    H140817   3.397   4.265   8.042 -2.0762 -1.6372 -2.0043
 6394TIP3    H240818   3.368   4.134   8.113  0.8692  0.1490  3.0428
 6395TIP3   OH240819   0.417   2.810   1.056 -0.6553  0.3025 -0.0250
 6395TIP3    H140820   0.444   2.726   1.018  0.9822  0.9238 -0.2999
 6395TIP3    H240821   0.322   2.803   1.063 -1.0345 -0.1078 -3.7088
 6396TIP3   OH240822   4.284   1.766   2.395  0.0599 -0.0770 -0.3836
 6396TIP3    H140823   4.201   1.769   2.442  0.3831 -1.0876  0.2717
 6396TIP3    H240824   4.263   1.804   2.309 -0.8607  0.4992  0.0700
 6397TIP3   OH240825   4.097   0.411   8.266  0.3600  0.0302  0.2155
 6397TIP3    H140826   4.172   0.438   8.319 -2.3988  1.2519  3.9297
 6397TIP3    H240827   4.047   0.491   8.253 -1.2875 -1.0407 -0.4067
 6398TIP3   OH240828   3.059   6.464   1.489 -0.0966  0.3875  0.0521
 6398TIP3    H140829   3.134   6.483   1.433  0.1792 -0.8939 -0.0454
 6398TIP3    H240830   3.097   6.420   1.565 -0.8386 -1.5189 -0.6157
 6399TIP3   OH240831   4.132   4.670   7.629 -0.1869 -0.1412 -0.0813
 6399TIP3    H140832   4.089   4.642   7.710 -0.8005  0.8865 -0.0379
 6399TIP3    H240833   4.135   4.591   7.575  2.0925 -1.4101  1.6905
 6400TIP3   OH240834   2.875   6.583   0.968  0.1441 -0.2038 -0.1336
 6400TIP3    H140835   2.901   6.634   1.045 -0.6911 -1.0328  0.7129
 6400TIP3    H240836   2.940   6.513   0.963  0.1991 -0.1490 -0.1848
 6401TIP3   OH240837   6.278   5.267   7.843 -0.3180  0.1820  0.4013
 6401TIP3    H140838   6.211   5.200   7.827  0.8741 -1.2020  0.9332
 6401TIP3    H240839   6.289   5.267   7.938  0.2372  0.5876  0.3422
 6402TIP3   OH240840   4.309   1.735   1.988  0.2251  0.1447 -0.0779
 6402TIP3    H140841   4.292   1.707   1.898 -0.8931 -0.2294  0.2387
 6402TIP3    H240842   4.228   1.715   2.035  0.4283  1.3024  0.7865
 6403TIP3   OH240843   6.896   1.437   6.243  0.3362 -0.1482 -0.2336
 6403TIP3    H140844   6.923   1.509   6.185  0.2615 -0.1716 -0.2979
 6403TIP3    H240845   6.972   1.377   6.243 -0.2572 -0.9724 -1.6278
 6404TIP3   OH240846   4.217   4.930   2.489  0.1180  0.1064 -0.4269
 6404TIP3    H140847   4.308   4.955   2.500 -0.1124  0.7006  0.2371
 6404TIP3    H240848   4.186   4.981   2.415  0.4612 -0.4899 -0.9861
 6405TIP3   OH240849   0.996   5.147   6.485 -0.1603 -0.0560 -0.1171
 6405TIP3    H140850   1.078   5.122   6.528  0.2393  0.1683 -0.7379
 6405TIP3    H240851   1.007   5.239   6.463 -1.5101  0.6678  1.8839
 6406TIP3   OH240852   4.598   2.269   0.921 -0.1601 -0.0300  0.7724
 6406TIP3    H140853   4.539   2.283   0.846 -0.0844  0.6066  0.8273
 6406TIP3    H240854   4.651   2.349   0.925 -0.7346  0.3167  2.0182
 6407TIP3   OH240855   4.889   2.007   7.827  0.0885  0.0586  0.1384
 6407TIP3    H140856   4.885   2.025   7.921  1.4899  1.2561 -0.0045
 6407TIP3    H240857   4.797   1.997   7.801 -0.3237 -0.3917  1.6283
 6408TIP3   OH240858   1.385   1.536   0.293  0.0156  0.4705 -0.0538
 6408TIP3    H140859   1.430   1.474   0.349 -0.8911 -0.3121 -0.1679
 6408TIP3    H240860   1.355   1.484   0.218 -3.3042  0.3358  1.2026
 6409TIP3   OH240861   5.938   2.639   1.970  0.3522 -0.3424  0.0888
 6409TIP3    H140862   5.973   2.672   1.887 -1.0590 -0.7567 -0.7133
 6409TIP3    H240863   6.014   2.631   2.027  1.4436 -0.5227 -1.3380
 6410TIP3   OH240864   2.832   2.739   0.168  0.2628  0.0053  0.2211
 6410TIP3    H140865   2.849   2.653   0.129  1.3658  0.5313 -0.4983
 6410TIP3    H240866   2.756   2.772   0.119 -0.3838 -0.6872  0.7335
 6411TIP3   OH240867   1.116   1.479   8.054  0.1562 -0.3477  0.2610
 6411TIP3    H140868   1.075   1.394   8.071  0.0089 -0.2382  0.4501
 6411TIP3    H240869   1.210   1.460   8.055  0.1339 -0.4315  0.7019
 6412TIP3   OH240870   1.865   4.927   0.854 -0.2270  0.0380  0.1062
 6412TIP3    H140871   1.800   4.995   0.871 -2.0413 -1.9978  1.9516
 6412TIP3    H240872   1.894   4.899   0.941  1.6910 -0.4370 -0.6489
 6413TIP3   OH240873   0.456   2.272   1.915  0.1017 -0.2139  0.1060
 6413TIP3    H140874   0.482   2.321   1.993  0.8994  0.8169 -0.7906
 6413TIP3    H240875   0.509   2.308   1.845 -4.1308  2.6214 -2.0944
 6414TIP3   OH240876   1.255   4.350   7.934 -0.3260  0.4482 -0.4772
 6414TIP3    H140877   1.299   4.337   8.018  1.0282  1.6241 -0.9544
 6414TIP3    H240878   1.287   4.435   7.904 -1.2562  0.3228 -1.9061
 6415TIP3   OH240879   0.124   1.218   1.444 -0.0365  0.1688  0.8388
 6415TIP3    H140880   0.181   1.275   1.495 -0.0217 -0.6908  1.8151
 6415TIP3    H240881   0.137   1.245   1.353 -0.8958  2.4995  1.3404
 6416TIP3   OH240882   2.090   2.004   0.715 -0.1985 -0.0871 -0.1056
 6416TIP3    H140883   2.072   2.059   0.638 -1.4957 -0.1650  0.1157
 6416TIP3    H240884   2.006   2.000   0.761  0.4007 -0.5882  0.9679
 6417TIP3   OH240885   6.806   2.775   1.578  0.1065  0.4713 -0.3182
 6417TIP3    H140886   6.732   2.785   1.637 -0.2307 -0.1644 -0.6166
 6417TIP3    H240887   6.794   2.844   1.513  1.1345  1.9426  0.9953
 6418TIP3   OH240888   1.897   5.044   0.263  0.0784 -0.2957 -0.3515
 6418TIP3    H140889   1.950   5.084   0.194 -0.7976  0.5573 -0.5548
 6418TIP3    H240890   1.807   5.062   0.237 -0.2702 -0.0744  0.9376
 6419TIP3   OH240891   0.732   1.596   1.256  0.0826 -0.6703  0.0207
 6419TIP3    H140892   0.654   1.541   1.268 -1.1109  0.2362 -2.7946
 6419TIP3    H240893   0.769   1.566   1.173  0.2599  1.7388 -0.8258
 6420TIP3   OH240894   4.620   5.581   8.146 -0.0554  0.1687  0.2175
 6420TIP3    H140895   4.631   5.507   8.085  0.8594  0.6003 -0.1558
 6420TIP3    H240896   4.630   5.659   8.091 -1.9470  0.6083  0.4299
 6421TIP3   OH240897   0.855   4.295   0.945  0.5382 -0.4138 -0.0211
 6421TIP3    H140898   0.834   4.322   1.034 -0.1147  0.2229 -0.3647
 6421TIP3    H240899   0.789   4.229   0.923 -3.1528  3.5107 -2.0998
 6422TIP3   OH240900   4.639   4.790   8.007  0.2529 -0.1261 -0.5844
 6422TIP3    H140901   4.642   4.695   8.019  2.1859  0.2471  3.6274
 6422TIP3    H240902   4.720   4.811   7.961  0.4394 -0.4519 -0.4134
 6423TIP3   OH240903   2.064   2.617   1.482 -0.0653  0.4421 -0.6229
 6423TIP3    H140904   2.005   2.681   1.442  1.1770  1.9156 -0.2087
 6423TIP3    H240905   2.152   2.648   1.458  0.5741 -1.4240 -0.8489
 6424TIP3   OH240906   0.082   5.213   6.853 -0.3179 -0.2272 -0.1745
 6424TIP3    H140907   0.151   5.279   6.864 -1.4530  1.1814 -1.1062
 6424TIP3    H240908   0.025   5.226   6.928 -0.9497  0.3950 -0.7483
 6425TIP3   OH240909   2.294   3.770   7.682  0.5955 -0.0031  0.3226
 6425TIP3    H140910   2.349   3.730   7.749  1.4211 -2.3971 -1.6424
 6425TIP3    H240911   2.346   3.764   7.602 -0.6291  2.1071 -0.7206
 6426TIP3   OH240912   3.130   0.085   6.943  0.0106  0.0978  0.1903
 6426TIP3    H140913   3.218   0.109   6.914 -0.0958  0.9483  0.5396
 6426TIP3    H240914   3.074   0.105   6.869  0.1838 -1.1048 -0.2906
 6427TIP3   OH240915   0.533   0.582   7.589 -0.2409 -0.0628  0.1015
 6427TIP3    H140916   0.542   0.549   7.679  1.2016 -0.8289 -0.2832
 6427TIP3    H240917   0.589   0.660   7.587 -1.2051  0.6391  0.1751
 6428TIP3   OH240918   1.425   3.392   0.241 -0.2047 -0.3032 -0.8219
 6428TIP3    H140919   1.377   3.456   0.293  0.5483 -1.2342  1.1351
 6428TIP3    H240920   1.498   3.441   0.203 -0.1438  0.1880 -0.0916
 6429TIP3   OH240921   3.966   5.122   8.421  0.6678  0.5221  0.0123
 6429TIP3    H140922   4.021   5.171   8.361 -0.1366  1.0501 -0.3206
 6429TIP3    H240923   3.923   5.189   8.474 -1.2719  0.2986 -1.1672
 6430TIP3   OH240924   6.267   3.804   7.362 -0.9414 -0.6424 -0.4415
 6430TIP3    H140925   6.284   3.721   7.317  3.5039 -0.6401  0.7618
 6430TIP3    H240926   6.322   3.867   7.316 -0.8028  0.6251  1.3732
 6431TIP3   OH240927   0.441   4.629   0.921 -0.0420 -0.0456  0.7105
 6431TIP3    H140928   0.457   4.535   0.931  1.3414  0.1705  0.7037
 6431TIP3    H240929   0.394   4.637   0.838  1.2240 -0.6198 -0.1005
 6432TIP3   OH240930   6.510   5.190   7.408  0.3698  0.4912  0.0002
 6432TIP3    H140931   6.432   5.149   7.446  0.6902  0.8147  1.0658
 6432TIP3    H240932   6.576   5.183   7.477  0.7296  1.8635 -0.1786
 6433TIP3   OH240933   0.384   1.972   0.212  0.0443 -0.1079 -0.0626
 6433TIP3    H140934   0.371   1.992   0.305  0.3184  0.7391 -0.2006
 6433TIP3    H240935   0.320   1.903   0.194 -1.2934  0.9892  0.3103
 6434TIP3   OH240936   5.979   3.161   6.154 -0.2765 -0.0449  0.2689
 6434TIP3    H140937   6.043   3.191   6.089 -0.1423 -0.5024  0.1910
 6434TIP3    H240938   5.897   3.153   6.105 -0.1837 -0.3545  0.1659
 6435TIP3   OH240939   0.175   4.615   7.368  0.4920  0.0097  0.2850
 6435TIP3    H140940   0.241   4.610   7.299  0.5034 -0.7848  0.3427
 6435TIP3    H240941   0.166   4.708   7.386  1.5556  0.1391  0.2338
 6436TIP3   OH240942   3.336   1.225   7.925  0.1790  0.1130 -0.3968
 6436TIP3    H140943   3.264   1.278   7.958  0.1224 -0.2305  0.0467
 6436TIP3    H240944   3.413   1.259   7.970  0.2538  0.2953 -0.6599
 6437TIP3   OH240945   6.088   2.109   7.413  0.0556 -0.0113 -0.1050
 6437TIP3    H140946   6.011   2.087   7.361  0.5797 -1.8165 -0.2038
 6437TIP3    H240947   6.066   2.081   7.502  1.1144 -2.1321 -0.4240
 6438TIP3   OH240948   6.911   1.083   6.798 -0.0983 -0.3566 -0.3847
 6438TIP3    H140949   6.830   1.067   6.846 -0.2451 -1.4268 -0.9442
 6438TIP3    H240950   6.975   1.024   6.838 -0.0198 -0.6806 -0.9713
 6439TIP3   OH240951   0.462   5.125   8.426 -0.3846  0.0849 -0.2120
 6439TIP3    H140952   0.405   5.202   8.423  0.4243  0.8150  1.4316
 6439TIP3    H240953   0.491   5.121   8.518  0.5602 -1.4731 -0.5427
 6440TIP3   OH240954   0.006   0.143   2.445  0.1252  0.3288 -0.2605
 6440TIP3    H140955  -0.033   0.222   2.407 -0.2426  1.6471  2.5880
 6440TIP3    H240956   0.101   0.159   2.441  0.0494  0.9927  0.4090
 6441TIP3   OH240957   2.438   4.045   1.884 -0.5477 -0.4242 -0.6965
 6441TIP3    H140958   2.433   3.978   1.816  2.3410 -1.6248  0.1501
 6441TIP3    H240959   2.429   4.128   1.837 -0.1587 -1.2675 -2.3131
 6442TIP3   OH240960   1.247   2.127   2.461  0.1726 -0.0490 -0.1683
 6442TIP3    H140961   1.325   2.094   2.417 -0.6134 -0.3622 -1.3648
 6442TIP3    H240962   1.225   2.060   2.526  1.6271  0.6469  1.1024
 6443TIP3   OH240963   1.348   6.670   2.578  0.4287 -0.1255 -0.4437
 6443TIP3    H140964   1.265   6.624   2.590  0.9910 -0.6199  1.8863
 6443TIP3    H240965   1.322   6.760   2.559 -0.6616 -0.0803  1.0989
 6444TIP3   OH240966   1.759   2.409   0.848 -0.7861  0.3596 -0.1631
 6444TIP3    H140967   1.819   2.484   0.847 -0.2073 -0.1031 -1.5798
 6444TIP3    H240968   1.682   2.440   0.800  0.7792 -0.9392 -3.8161
 6445TIP3   OH240969   4.341   3.865   6.742  0.2533  0.3702 -0.0133
 6445TIP3    H140970   4.372   3.868   6.652  2.4240 -2.0663  0.5388
 6445TIP3    H240971   4.257   3.819   6.738 -0.0022  0.8978 -0.8395
 6446TIP3   OH240972   2.130   0.157   8.188  0.2801  0.5536 -1.1735
 6446TIP3    H140973   2.216   0.114   8.183  0.7296  1.1091  0.7878
 6446TIP3    H240974   2.067   0.085   8.178  0.9985 -0.1212 -1.0156
 6447TIP3   OH240975   0.013   0.385   6.469  0.5471  0.2165  0.0719
 6447TIP3    H140976   0.080   0.342   6.522 -1.0619 -0.7561  1.4352
 6447TIP3    H240977  -0.047   0.424   6.532 -1.6584 -1.3108 -0.9164
 6448TIP3   OH240978   2.705   4.017   0.836 -0.2433 -0.0709 -0.0464
 6448TIP3    H140979   2.758   4.002   0.758  0.9520 -1.4034  0.9619
 6448TIP3    H240980   2.737   4.099   0.871 -0.0765  0.0176 -0.4004
 6449TIP3   OH240981   3.114   5.913   7.893  0.0850 -0.0463 -0.4304
 6449TIP3    H140982   3.135   5.996   7.851  1.3458  0.4382  1.0441
 6449TIP3    H240983   3.027   5.927   7.931 -0.4692 -0.0318 -1.6682
 6450TIP3   OH240984   4.972   3.728   7.827 -0.3022  0.4053 -0.0455
 6450TIP3    H140985   5.066   3.738   7.816 -0.2889  0.6118  0.2308
 6450TIP3    H240986   4.962   3.651   7.883 -0.2182  1.3801  1.3519
 6451TIP3   OH240987   0.125   2.026   8.526  0.2802  0.5316 -0.2157
 6451TIP3    H140988   0.119   2.058   8.615  1.2354 -0.7638  0.3470
 6451TIP3    H240989   0.194   2.079   8.485 -0.0960  1.0636 -0.1639
 6452TIP3   OH240990   3.398   4.449   7.534 -0.1011 -0.4195 -0.5326
 6452TIP3    H140991   3.371   4.541   7.531  0.4533 -0.2596 -0.8341
 6452TIP3    H240992   3.365   4.417   7.618 -0.5612 -0.0293 -0.5629
 6453TIP3   OH240993   5.443   2.250   7.210  0.0678 -0.3293 -0.5567
 6453TIP3    H140994   5.512   2.297   7.258  0.4610 -1.7066  0.2896
 6453TIP3    H240995   5.385   2.319   7.178  1.4403  0.8203 -0.6669
 6454TIP3   OH240996   3.323   0.008   7.288  0.2675  0.0082 -0.2939
 6454TIP3    H140997   3.335   0.065   7.212 -0.2874 -0.2219 -0.5556
 6454TIP3    H240998   3.251  -0.050   7.264 -1.1559  1.1001  1.0879
 6455TIP3   OH240999   3.426   3.461   0.847 -0.2487  0.2805 -0.1263
 6455TIP3    H141000   3.377   3.407   0.910 -1.0096  1.0242 -0.0655
 6455TIP3    H241001   3.457   3.535   0.899  0.0810  0.3297 -0.3910
 6456TIP3   OH241002   6.213   0.227   7.247 -0.0825  0.4958 -0.0507
 6456TIP3    H141003   6.240   0.139   7.274 -0.0152  0.2729 -0.8199
 6456TIP3    H241004   6.121   0.233   7.275 -0.1066  0.1541 -0.0529
 6457TIP3   OH241005   1.417   0.870   8.017  0.5167 -0.1304 -0.4810
 6457TIP3    H141006   1.329   0.837   8.001  0.6389 -0.8031  0.1732
 6457TIP3    H241007   1.427   0.943   7.956 -1.5084  1.7549  1.2820
 6458TIP3   OH241008   1.832   0.442   7.169 -0.3299 -0.2161  1.1436
 6458TIP3    H141009   1.786   0.525   7.154  0.0057 -0.1486  0.4438
 6458TIP3    H241010   1.908   0.447   7.111 -1.2305 -1.7710 -0.2500
 6459TIP3   OH241011   5.672   4.725   0.233  0.0868 -0.0105  0.4365
 6459TIP3    H141012   5.597   4.773   0.198 -1.2615  0.0168  3.0917
 6459TIP3    H241013   5.748   4.766   0.191 -1.2665  0.9113 -1.2869
 6460TIP3   OH241014   1.858   6.382   2.370  0.0438 -0.3715 -0.5041
 6460TIP3    H141015   1.943   6.356   2.408 -0.0110  0.3695  0.1582
 6460TIP3    H241016   1.846   6.473   2.399 -0.9287 -0.4331 -0.6918
 6461TIP3   OH241017   4.196   2.484   0.617  0.3553  0.2377 -0.3849
 6461TIP3    H141018   4.275   2.494   0.669 -0.1977  0.2982  0.4615
 6461TIP3    H241019   4.207   2.400   0.572  1.8238  1.1950 -1.9382
 6462TIP3   OH241020   4.456   5.754   1.766  0.5041  0.0063  0.0981
 6462TIP3    H141021   4.361   5.765   1.766 -0.1353 -4.0510 -0.6466
 6462TIP3    H241022   4.480   5.751   1.858  0.1085  1.7387  0.3015
 6463TIP3   OH241023   1.556   4.214   0.047 -0.6716  0.2706 -0.2751
 6463TIP3    H141024   1.630   4.199   0.106 -0.5675  2.4336  0.2265
 6463TIP3    H241025   1.481   4.177   0.092 -0.5507  1.6602  1.1721
 6464TIP3   OH241026   3.329   5.269   8.244  0.1741 -0.3556 -0.0667
 6464TIP3    H141027   3.352   5.182   8.274  1.0394 -0.7288 -1.6639
 6464TIP3    H241028   3.378   5.280   8.162 -1.6536  0.7254 -1.1061
 6465TIP3   OH241029   6.684   2.349   8.258  0.2281  0.0337  0.1436
 6465TIP3    H141030   6.754   2.294   8.294 -1.2851 -0.4976  2.4112
 6465TIP3    H241031   6.728   2.432   8.238  1.8233 -0.8024 -0.0432
 6466TIP3   OH241032   5.354   6.102   8.284 -0.2311 -0.4686  0.3614
 6466TIP3    H141033   5.392   6.179   8.243 -1.1451 -0.0604  0.2479
 6466TIP3    H241034   5.370   6.114   8.378  0.7987 -0.8109  0.2394
 6467TIP3   OH241035   1.709   3.430   6.767  0.3699 -0.2418  0.6318
 6467TIP3    H141036   1.653   3.397   6.698 -0.3849 -2.5183  2.1963
 6467TIP3    H241037   1.690   3.524   6.772 -2.1310 -0.6627  0.0662
 6468TIP3   OH241038   5.197   2.909   7.673  0.2160  0.2640  0.1571
 6468TIP3    H141039   5.193   2.843   7.743  0.0819  0.3927  0.2708
 6468TIP3    H241040   5.258   2.975   7.706  1.3993 -0.4568 -0.5161
 6469TIP3   OH241041   3.900   0.121   8.038  0.9805 -0.0841  0.2007
 6469TIP3    H141042   3.911   0.037   8.083  1.7244 -1.1007 -1.7427
 6469TIP3    H241043   3.808   0.123   8.013  0.8162 -0.0139  0.7908
 6470TIP3   OH241044   3.634   6.109   6.702  0.1346  0.3752 -0.1047
 6470TIP3    H141045   3.686   6.185   6.728  0.9983 -0.2254 -0.0350
 6470TIP3    H241046   3.643   6.047   6.775  1.7130 -0.8997 -1.2875
 6471TIP3   OH241047   6.100   5.740   8.365  0.1730 -0.1416 -0.4747
 6471TIP3    H141048   6.005   5.736   8.354  0.1414  1.4180 -1.1699
 6471TIP3    H241049   6.129   5.649   8.361 -1.2224 -0.5951 -0.9223
 6472TIP3   OH241050   2.454   3.711   7.473 -0.3922  0.0162 -0.0314
 6472TIP3    H141051   2.422   3.651   7.406  0.9133 -0.1439 -0.5295
 6472TIP3    H241052   2.460   3.657   7.552 -1.0854 -0.0062  0.0186
 6473TIP3   OH241053   1.495   1.676   8.155 -0.1294 -1.0595 -0.1622
 6473TIP3    H141054   1.428   1.714   8.098 -0.6068 -1.1733  0.3188
 6473TIP3    H241055   1.469   1.584   8.163  2.1493 -2.1248 -3.0414
 6474TIP3   OH241056   5.711   5.421   1.767  0.1351  0.3689  0.0218
 6474TIP3    H141057   5.801   5.446   1.784  0.5336 -1.8227  1.4377
 6474TIP3    H241058   5.684   5.370   1.843 -1.7542 -0.4125 -1.0789
 6475TIP3   OH241059   3.972   6.223   7.284 -0.1854 -0.2069 -0.0937
 6475TIP3    H141060   4.038   6.248   7.219 -0.2938 -1.2498 -0.6309
 6475TIP3    H241061   3.999   6.267   7.364  1.6605 -1.2829 -0.0774
 6476TIP3   OH241062   1.230   1.167   1.498 -0.5624  0.7737 -0.4563
 6476TIP3    H141063   1.138   1.165   1.523 -0.4251  1.3916  0.1135
 6476TIP3    H241064   1.276   1.129   1.574 -0.3506  0.3926 -0.7698
 6477TIP3   OH241065   4.230   6.141   2.007  0.4383 -0.5892 -0.0983
 6477TIP3    H141066   4.189   6.096   2.080  0.9757 -0.3924  0.3333
 6477TIP3    H241067   4.321   6.111   2.008  0.0191 -2.1059 -1.9021
 6478TIP3   OH241068   4.585   3.071   0.622  0.6414  0.4308  0.2091
 6478TIP3    H141069   4.489   3.074   0.626  0.5195 -0.9436 -1.0548
 6478TIP3    H241070   4.609   3.152   0.577 -0.0445  0.0438 -0.8937
 6479TIP3   OH241071   4.270   4.338   0.038 -0.3440  0.0697 -0.5104
 6479TIP3    H141072   4.307   4.402   0.099 -2.4500 -0.0081  0.9613
 6479TIP3    H241073   4.269   4.384  -0.047 -0.7106  1.5662  0.2637
 6480TIP3   OH241074   4.285   1.701   7.145 -0.1348  0.0635  0.4607
 6480TIP3    H141075   4.358   1.746   7.103  1.3847 -2.2951  0.3574
 6480TIP3    H241076   4.319   1.675   7.231 -0.4408 -1.9157  0.0434
 6481TIP3   OH241077   5.255   0.497   6.219  0.4476  0.4352  0.4846
 6481TIP3    H141078   5.241   0.407   6.191 -1.2557  0.9954 -0.6008
 6481TIP3    H241079   5.297   0.489   6.304  0.4298 -1.3741  0.3674
 6482TIP3   OH241080   0.436   5.848   8.305 -0.0757  0.1292 -0.2094
 6482TIP3    H141081   0.400   5.849   8.217 -0.6618  0.6407  0.0279
 6482TIP3    H241082   0.486   5.930   8.311  1.7855 -0.9083 -0.7882
 6483TIP3   OH241083   0.948   5.506   8.439 -0.1370 -0.1917  0.2756
 6483TIP3    H141084   0.990   5.496   8.524 -1.1840  0.7428  0.9304
 6483TIP3    H241085   0.887   5.580   8.450 -0.6038 -0.3186 -1.1567
 6484TIP3   OH241086   3.673   5.490   1.823  0.7117  0.4934  0.2118
 6484TIP3    H141087   3.717   5.443   1.751  0.2562 -0.2534  0.4099
 6484TIP3    H241088   3.722   5.465   1.901  0.6951  0.6478  0.2718
 6485TIP3   OH241089   6.141   1.227   1.537 -0.2993  0.0339 -0.4940
 6485TIP3    H141090   6.061   1.277   1.556 -0.7932 -1.6300  2.5084
 6485TIP3    H241091   6.210   1.275   1.583 -0.4979 -1.0836  1.0446
 6486TIP3   OH241092   6.014   6.320   0.070  0.0170 -0.3887 -0.3091
 6486TIP3    H141093   5.960   6.323   0.149  0.4253 -0.7438 -0.0144
 6486TIP3    H241094   6.050   6.409   0.063 -0.1629 -0.3057 -0.2007
 6487TIP3   OH241095   4.040   3.006   8.531 -0.1361  0.6471  0.2592
 6487TIP3    H141096   3.984   2.931   8.511  0.6706 -0.4236  1.7936
 6487TIP3    H241097   4.074   3.034   8.446 -0.8251 -0.4220 -0.3930
 6488TIP3   OH241098   6.214   4.212   1.250 -0.0792  0.2613  0.0190
 6488TIP3    H141099   6.301   4.239   1.279 -0.3908 -0.3481  1.6450
 6488TIP3    H241100   6.160   4.220   1.328 -1.1900 -0.6330 -0.6325
 6489TIP3   OH241101   6.261   4.333   1.003 -0.8639  1.2483  0.1614
 6489TIP3    H141102   6.226   4.294   1.083  1.1986 -0.0639  0.5006
 6489TIP3    H241103   6.329   4.393   1.033  2.3231 -1.7023 -0.5229
 6490TIP3   OH241104   3.965   1.337   1.502 -0.2782 -0.2406  0.0166
 6490TIP3    H141105   3.883   1.288   1.496 -0.2373 -0.5259  1.4089
 6490TIP3    H241106   3.976   1.353   1.596  1.9670 -1.4487  0.0113
 6491TIP3   OH241107   2.449   0.002   7.365 -0.3035 -0.0138 -0.1169
 6491TIP3    H141108   2.512  -0.065   7.389  0.0791  0.8660  1.5158
 6491TIP3    H241109   2.369  -0.023   7.410 -0.1644  0.5799  0.4855
 6492TIP3   OH241110   2.385   2.662   1.015  0.2485 -0.3816 -0.1767
 6492TIP3    H141111   2.322   2.591   1.024  1.0145 -1.0042  0.5496
 6492TIP3    H241112   2.333   2.742   1.024 -0.2406 -0.8809  2.2918
 6493TIP3   OH241113   1.964   0.478   7.776 -0.0015  0.1043 -0.2248
 6493TIP3    H141114   2.025   0.405   7.782  1.1891  0.9011 -1.9355
 6493TIP3    H241115   1.882   0.439   7.747  0.8474 -0.4853 -1.9406
 6494TIP3   OH241116   0.215   4.467   1.032 -0.3076  0.1902 -0.3092
 6494TIP3    H141117   0.242   4.460   1.124  1.3991 -1.9757 -0.8935
 6494TIP3    H241118   0.294   4.490   0.985 -0.9993  0.5238 -1.3486
 6495TIP3   OH241119   5.258   3.736   7.765 -0.0547  0.0377 -0.3654
 6495TIP3    H141120   5.323   3.796   7.799  1.4910 -0.7051 -1.8315
 6495TIP3    H241121   5.287   3.649   7.794 -0.0263 -0.3628 -1.5341
 6496TIP3   OH241122   0.729   5.305   0.946  0.1164  0.2867  0.2378
 6496TIP3    H141123   0.789   5.373   0.976  1.6646 -0.6337 -0.6324
 6496TIP3    H241124   0.778   5.223   0.958 -0.1177 -0.3181 -2.3951
 6497TIP3   OH241125   3.137   6.760   0.642  0.3984 -0.5625 -0.0553
 6497TIP3    H141126   3.058   6.706   0.644 -0.6515  0.8709 -0.9052
 6497TIP3    H241127   3.127   6.820   0.716  0.8340 -0.5696  0.0102
 6498TIP3   OH241128   3.704   2.252   7.067 -0.5082  0.2943 -0.4134
 6498TIP3    H141129   3.726   2.158   7.070 -3.0602 -0.3628 -0.3157
 6498TIP3    H241130   3.740   2.282   6.984 -0.1623 -0.9099 -0.7259
 6499TIP3   OH241131   3.814   3.282   0.993  0.0786  0.1976 -0.4975
 6499TIP3    H141132   3.871   3.226   0.941 -0.4512 -0.9556  0.1086
 6499TIP3    H241133   3.783   3.348   0.932 -0.5534 -1.1329 -1.6933
 6500TIP3   OH241134   4.280   3.677   8.518  0.0282 -0.2729 -0.1378
 6500TIP3    H141135   4.289   3.639   8.430  0.5770 -1.5367  0.4468
 6500TIP3    H241136   4.223   3.617   8.565 -1.9331  1.4533 -0.1810
 6501TIP3   OH241137   6.140   2.889   1.563  0.2250  0.1881 -0.0958
 6501TIP3    H141138   6.129   2.833   1.640 -0.7520  0.8003  0.2324
 6501TIP3    H241139   6.228   2.926   1.572  0.9022 -1.3014 -0.3422
 6502TIP3   OH241140   4.896   5.893   8.229  0.0142  0.8817  0.3602
 6502TIP3    H141141   4.885   5.849   8.145  0.3566 -0.6579  1.0733
 6502TIP3    H241142   4.943   5.974   8.209  0.8859  0.1154 -0.8230
 6503TIP3   OH241143   5.801   4.822   7.314 -0.1552  0.0479 -0.0152
 6503TIP3    H141144   5.817   4.873   7.394 -0.1176 -1.0276  0.6822
 6503TIP3    H241145   5.782   4.888   7.247 -0.4070  0.9616  0.9265
 6504TIP3   OH241146   4.879   2.859   1.861  0.1679  0.7618  0.3002
 6504TIP3    H141147   4.835   2.806   1.927 -1.7734  2.0306  0.1156
 6504TIP3    H241148   4.829   2.941   1.859  2.3631  2.1647 -0.2126
 6505TIP3   OH241149   6.467   3.631   7.529 -0.0795 -0.5010 -0.4782
 6505TIP3    H141150   6.415   3.577   7.469 -1.4112 -1.2824  1.3044
 6505TIP3    H241151   6.551   3.586   7.534 -0.1374 -0.7276 -1.3168
 6506TIP3   OH241152   4.676   5.020   7.174 -0.4232 -0.6535  0.0210
 6506TIP3    H141153   4.665   5.113   7.155 -0.8533 -1.1423 -2.4334
 6506TIP3    H241154   4.594   4.995   7.218 -0.0243  0.2265  1.3216
 6507TIP3   OH241155   5.528   5.816   0.917  0.1929  0.1809 -0.0786
 6507TIP3    H141156   5.467   5.879   0.957  1.3632  0.9233  0.5846
 6507TIP3    H241157   5.609   5.865   0.907  0.7645 -0.8779 -0.7045
 6508TIP3   OH241158   1.312   2.963   6.758 -0.3991 -0.5070 -0.5814
 6508TIP3    H141159   1.271   2.981   6.842  0.0738  1.8165 -0.7911
 6508TIP3    H241160   1.405   2.981   6.772 -0.3905  0.4615 -1.7093
 6509TIP3   OH241161   5.109   3.077   6.877 -0.3037  0.3435 -0.0359
 6509TIP3    H141162   5.117   3.044   6.967 -1.5544 -0.6401 -0.2594
 6509TIP3    H241163   5.076   3.002   6.827  2.3907  0.1925 -1.7915
 6510TIP3   OH241164   2.705   5.823   8.406  0.9184  0.0725 -0.2658
 6510TIP3    H141165   2.615   5.788   8.407  0.4978  1.1019  1.1799
 6510TIP3    H241166   2.760   5.747   8.424  0.3863 -0.6344 -1.4847
 6511TIP3   OH241167   2.134   0.795   8.259  0.1640  0.5029 -0.8267
 6511TIP3    H141168   2.205   0.776   8.320 -0.7566  0.7823  0.3950
 6511TIP3    H241169   2.164   0.763   8.175  1.7393  0.6624 -0.3444
 6512TIP3   OH241170   2.808   3.758   7.212  0.0367  0.4917  0.1797
 6512TIP3    H141171   2.718   3.782   7.233  0.3356  1.5063  0.3725
 6512TIP3    H241172   2.834   3.819   7.143  0.0712 -0.8201 -1.0065
 6513TIP3   OH241173   2.491   3.888   6.904  0.3009 -0.6361  0.4989
 6513TIP3    H141174   2.526   3.872   6.817 -2.0509  1.6005 -0.9759
 6513TIP3    H241175   2.568   3.910   6.957  1.5266  0.6729 -1.6889
 6514TIP3   OH241176   0.192   1.422   0.970  0.0364  0.0912  0.1028
 6514TIP3    H141177   0.151   1.343   0.935 -1.5984  0.6107  0.7160
 6514TIP3    H241178   0.141   1.494   0.932  1.1992  0.8413 -0.0887
 6515TIP3   OH241179   1.945   5.781   1.006 -0.3211 -0.2801  0.3360
 6515TIP3    H141180   1.869   5.774   0.948  0.4622  1.1056 -0.9459
 6515TIP3    H241181   1.994   5.855   0.971  0.2750  0.5270  2.7214
 6516TIP3   OH241182   1.513   6.466   7.437  0.2670  0.2050 -0.1513
 6516TIP3    H141183   1.446   6.419   7.388 -2.0187  1.5596  1.4626
 6516TIP3    H241184   1.519   6.420   7.520 -0.0650  1.1805  0.4271
 6517TIP3   OH241185   2.557   5.004   6.997  0.1718  0.2878  0.4119
 6517TIP3    H141186   2.480   5.060   7.008 -0.7871 -0.8259 -0.3599
 6517TIP3    H241187   2.618   5.057   6.945  0.5574  1.7184  2.2200
 6518TIP3   OH241188   4.722   0.654   8.239  0.4972 -0.2953 -0.3014
 6518TIP3    H141189   4.738   0.603   8.319  0.5625  1.7326  1.0629
 6518TIP3    H241190   4.630   0.636   8.218  0.6369 -1.2893 -0.1036
 6519TIP3   OH241191   6.060   2.297   0.026  0.2087 -0.1563  0.6723
 6519TIP3    H141192   6.076   2.286  -0.068  1.1867 -2.4973  1.0425
 6519TIP3    H241193   6.103   2.379   0.048 -1.9619  1.6477 -1.2891
 6520TIP3   OH241194   1.391   5.206   6.284  0.1929  0.4311 -0.1275
 6520TIP3    H141195   1.299   5.201   6.259  0.0122  0.5966  0.4888
 6520TIP3    H241196   1.407   5.129   6.338  0.2567  0.7134  0.2641
 6521TIP3   OH241197   3.724   2.672   1.035  0.2530 -0.6246  0.4664
 6521TIP3    H141198   3.688   2.585   1.022  0.6890 -0.9912  1.5374
 6521TIP3    H241199   3.807   2.656   1.081  0.7588  0.3046 -0.1015
 6522TIP3   OH241200   0.937   4.821   7.329  0.5426  0.3029 -0.2142
 6522TIP3    H141201   0.896   4.762   7.266  0.8913 -1.0535  0.7783
 6522TIP3    H241202   1.020   4.778   7.351  1.3678  1.7530 -0.3218
 6523TIP3   OH241203   4.205   2.869   1.848 -0.1289  0.4021 -0.0845
 6523TIP3    H141204   4.120   2.833   1.871 -0.0267 -0.4620 -1.0081
 6523TIP3    H241205   4.186   2.939   1.786 -0.1222 -0.8409 -1.5674
 6524TIP3   OH241206   5.384   3.991   0.207  0.1425  0.3779  0.0893
 6524TIP3    H141207   5.320   3.919   0.210  0.8779 -0.2610  1.0992
 6524TIP3    H241208   5.460   3.954   0.162  0.0076  0.9665 -0.6256
 6525TIP3   OH241209   3.146   2.424   1.476 -0.0732 -0.0280 -0.2957
 6525TIP3    H141210   3.149   2.499   1.418 -0.4995 -0.6156 -1.0998
 6525TIP3    H241211   3.214   2.365   1.443 -0.8400 -0.7058 -0.7037
 6526TIP3   OH241212   3.400   5.502   1.262 -0.5092 -0.0917 -0.1996
 6526TIP3    H141213   3.399   5.515   1.167  1.3802 -1.8112 -0.5156
 6526TIP3    H241214   3.464   5.432   1.276  0.3576  1.1035  2.4639
 6527TIP3   OH241215   6.927   5.212   7.102 -0.4199 -0.1463  0.5363
 6527TIP3    H141216   6.866   5.141   7.082  1.1124 -1.7214  1.0935
 6527TIP3    H241217   7.006   5.167   7.131  1.2249  1.7634 -0.6883
 6528TIP3   OH241218   2.577   1.829   7.856  0.8386  0.0469  0.2560
 6528TIP3    H141219   2.574   1.886   7.933 -0.3066 -0.1894  0.4021
 6528TIP3    H241220   2.509   1.864   7.798 -2.2552 -2.9940  1.6808
 6529TIP3   OH241221   2.876   3.234   7.387  0.3538  0.0896  0.0308
 6529TIP3    H141222   2.914   3.189   7.312  0.2523  0.3174 -0.1583
 6529TIP3    H241223   2.946   3.234   7.453  0.4741 -0.0283 -0.0969
 6530TIP3   OH241224   0.775   3.473   0.539  0.1318  0.3335 -0.5020
 6530TIP3    H141225   0.795   3.386   0.575  0.8021  0.6073 -0.2059
 6530TIP3    H241226   0.725   3.517   0.607  1.5037  0.8968  0.1935
 6531TIP3   OH241227   2.069   0.458   0.785  0.1169 -0.3131  0.0641
 6531TIP3    H141228   1.993   0.399   0.781  0.5821 -0.9748  0.6240
 6531TIP3    H241229   2.144   0.399   0.793  0.7418  0.3180 -1.0021
 6532TIP3   OH241230   1.572   0.705   0.356  0.2819  0.5430  0.0079
 6532TIP3    H141231   1.549   0.777   0.296 -1.6976 -0.2538 -0.2712
 6532TIP3    H241232   1.507   0.711   0.426  1.1411  0.0327  0.8648
 6533TIP3   OH241233   2.184   5.049   1.514  0.0274 -0.2637  0.2310
 6533TIP3    H141234   2.267   5.001   1.518  0.0755 -0.1208  1.2047
 6533TIP3    H241235   2.187   5.094   1.429  0.4879 -1.0622 -0.1922
 6534TIP3   OH241236   0.094   2.106   0.586 -0.4120  0.0462  0.1495
 6534TIP3    H141237   0.082   2.061   0.670  0.9202  1.0411  0.9134
 6534TIP3    H241238   0.051   2.190   0.597 -0.0546  0.2631 -0.0904
 6535TIP3   OH241239   3.461   3.784   7.628 -0.5085  0.4308 -0.4785
 6535TIP3    H141240   3.463   3.857   7.691  0.1632 -0.2706  0.3406
 6535TIP3    H241241   3.377   3.741   7.644 -0.0701 -0.1314  0.4288
 6536TIP3   OH241242   3.045   2.187   0.661  0.0625  0.4369  0.2231
 6536TIP3    H141243   3.090   2.271   0.661  0.7012  0.1450 -1.8596
 6536TIP3    H241244   3.027   2.170   0.753  0.9591  2.2939  0.7933
 6537TIP3   OH241245   3.629   5.106   0.253 -0.1356 -0.0366 -0.0598
 6537TIP3    H141246   3.605   5.127   0.163 -0.7304  1.8295  0.5050
 6537TIP3    H241247   3.547   5.080   0.295  0.0655 -0.4789  0.0679
 6538TIP3   OH241248   0.269   1.394   7.378 -0.2900 -0.3302  0.3765
 6538TIP3    H141249   0.250   1.396   7.284  0.2744 -0.2571  0.2630
 6538TIP3    H241250   0.285   1.301   7.397 -2.1195 -0.6152  0.7583
 6539TIP3   OH241251   3.619   5.881   7.211  0.2988 -0.0424  0.1320
 6539TIP3    H141252   3.544   5.827   7.186  0.3256 -0.9024  1.7845
 6539TIP3    H241253   3.606   5.900   7.304  0.7343  2.1418 -0.1895
 6540TIP3   OH241254   0.412   3.922   0.598  0.1333 -0.3075 -0.2220
 6540TIP3    H141255   0.507   3.932   0.597  0.0992  0.1155  0.1889
 6540TIP3    H241256   0.383   3.963   0.516  0.2811 -0.1377 -0.1907
 6541TIP3   OH241257   6.335   2.801   0.121  0.2842 -0.3191  0.1361
 6541TIP3    H141258   6.404   2.844   0.170 -0.5462  0.1409  0.9414
 6541TIP3    H241259   6.273   2.871   0.099  0.9665 -0.3657 -2.2344
 6542TIP3   OH241260   4.845   1.113   7.196  0.0819  1.0807  0.6715
 6542TIP3    H141261   4.934   1.080   7.214 -0.1254  1.5895  2.9739
 6542TIP3    H241262   4.819   1.068   7.116  1.7681 -0.4374  0.8945
 6543TIP3   OH241263   0.986   5.882   8.450 -0.1307  0.2171  0.3368
 6543TIP3    H141264   0.917   5.834   8.496 -1.6573  0.1984 -1.8196
 6543TIP3    H241265   0.992   5.965   8.496  0.5853 -0.8849  2.3963
 6544TIP3   OH241266   2.494   5.128   1.609 -0.4170  0.0967 -0.1368
 6544TIP3    H141267   2.550   5.185   1.662  1.8884 -0.5505 -1.7086
 6544TIP3    H241268   2.506   5.160   1.519 -3.8550  0.8888 -0.4449
 6545TIP3   OH241269   5.994   6.357   7.651 -0.2576 -0.2176 -0.4433
 6545TIP3    H141270   5.995   6.266   7.623 -1.3143 -1.1051  2.0451
 6545TIP3    H241271   6.033   6.356   7.739 -2.2696  1.3050  0.5726
 6546TIP3   OH241272   3.928   1.731   1.721 -0.3120 -0.1635  0.3291
 6546TIP3    H141273   3.894   1.740   1.632 -0.6980 -1.4650  0.3220
 6546TIP3    H241274   3.863   1.677   1.766 -0.2505  0.6879  1.4878
 6547TIP3   OH241275   0.814   1.593   7.270  0.4222 -0.4359  0.2541
 6547TIP3    H141276   0.774   1.508   7.249  2.1007 -1.0338 -0.7537
 6547TIP3    H241277   0.741   1.647   7.299 -0.7638 -2.0993  0.5343
 6548TIP3   OH241278   2.793   6.709   1.715 -0.5229 -0.2849 -0.2388
 6548TIP3    H141279   2.869   6.766   1.707 -1.6937  1.2532 -1.2209
 6548TIP3    H241280   2.734   6.756   1.775 -1.0087 -1.0637 -0.0874
 6549TIP3   OH241281   0.827   2.160   1.296 -0.0975  0.1916 -0.2406
 6549TIP3    H141282   0.920   2.153   1.316 -0.1448  0.6317  0.1606
 6549TIP3    H241283   0.803   2.074   1.261 -0.0630 -0.7290  1.8709
 6550TIP3   OH241284   1.871   5.409   6.960 -0.1769 -0.2903  0.2839
 6550TIP3    H141285   1.890   5.318   6.937  0.7292 -0.2342  0.7710
 6550TIP3    H241286   1.800   5.403   7.025  0.0336 -0.6641  0.4803
 6551TIP3   OH241287   6.671   6.020   8.134  0.2062 -0.5368 -0.5467
 6551TIP3    H141288   6.643   5.972   8.056 -0.8436  0.1838 -0.6283
 6551TIP3    H241289   6.630   6.106   8.125 -0.5022 -0.6600  1.1263
 6552TIP3   OH241290   3.089   2.715   6.740  0.6274 -0.9094 -0.0698
 6552TIP3    H141291   3.154   2.772   6.778 -0.9287  1.4395 -0.7096
 6552TIP3    H241292   3.070   2.650   6.808  1.3488  0.2714  1.3051
 6553TIP3   OH241293   3.763   4.930   1.369  0.0548 -0.4306  0.2209
 6553TIP3    H141294   3.827   4.882   1.420  0.2255  1.0667  1.5012
 6553TIP3    H241295   3.719   4.986   1.433 -1.1705 -0.0022 -0.9561
 6554TIP3   OH241296   3.779   4.071   7.787 -0.0719 -0.4386 -0.1255
 6554TIP3    H141297   3.855   4.127   7.775 -1.0870  1.2244  0.7669
 6554TIP3    H241298   3.715   4.128   7.831 -0.7762 -2.6169  1.8513
 6555TIP3   OH241299   6.441   1.482   6.736  0.1936 -0.2444 -0.0417
 6555TIP3    H141300   6.453   1.490   6.830 -2.3971  1.4979  0.2510
 6555TIP3    H241301   6.475   1.395   6.714 -1.0649 -1.5731  2.8488
 6556TIP3   OH241302   2.366   5.829   7.774 -0.5125  0.5147  0.2957
 6556TIP3    H141303   2.273   5.807   7.766 -0.3900  0.3071 -0.6856
 6556TIP3    H241304   2.409   5.775   7.707  0.2376  1.0587  0.3304
 6557TIP3   OH241305   1.544   6.820   1.032 -0.1198 -0.9601  0.0247
 6557TIP3    H141306   1.622   6.772   1.004 -0.2701  0.3338 -3.0439
 6557TIP3    H241307   1.570   6.864   1.113  0.8750 -3.8814  1.4200
 6558TIP3   OH241308   5.983   1.460   0.864  0.0358 -0.3695 -0.5208
 6558TIP3    H141309   5.960   1.550   0.883 -1.0939 -0.8677  0.6449
 6558TIP3    H241310   5.909   1.409   0.896  1.0573 -1.7699 -0.2775
 6559TIP3   OH241311   6.640   4.586   7.840  0.0343  0.1816  0.0390
 6559TIP3    H141312   6.691   4.621   7.913  0.3284 -0.7961  0.3248
 6559TIP3    H241313   6.586   4.517   7.879 -0.4064  0.1946 -0.5265
 6560TIP3   OH241314   1.089   1.393   7.124  0.3964  0.2079  0.6659
 6560TIP3    H141315   1.163   1.377   7.065  0.3886 -0.5518  0.8540
 6560TIP3    H241316   1.086   1.488   7.133  1.5677  0.2435  0.9203
 6561TIP3   OH241317   2.712   5.674   1.329  1.1985 -0.0253 -0.2125
 6561TIP3    H141318   2.764   5.596   1.348  0.9172 -0.4808 -1.2500
 6561TIP3    H241319   2.763   5.746   1.364  1.8380 -0.6005  0.0621
 6562TIP3   OH241320   6.504   6.033   7.826  0.6047 -0.5891  1.0202
 6562TIP3    H141321   6.522   5.940   7.837  1.6598 -0.5974 -0.4358
 6562TIP3    H241322   6.502   6.046   7.731 -3.4886  0.1699  1.0331
 6563TIP3   OH241323   5.553   3.031   0.799 -0.0305  0.4229  0.4991
 6563TIP3    H141324   5.563   3.008   0.707  0.1079 -1.9938  1.0465
 6563TIP3    H241325   5.642   3.049   0.829  0.0876 -0.0679  0.4510
 6564TIP3   OH241326   1.870   0.999   0.355 -0.1080  0.3724 -0.9500
 6564TIP3    H141327   1.890   1.024   0.265  1.1319 -0.2947 -0.8822
 6564TIP3    H241328   1.861   1.082   0.402  1.9750  0.7485 -1.1248
 6565TIP3   OH241329   0.631   2.628   0.962  1.0482 -0.0249  0.3233
 6565TIP3    H141330   0.685   2.674   0.898  1.5639 -2.2610 -0.9770
 6565TIP3    H241331   0.653   2.535   0.950 -2.3003 -0.9757  0.4398
 6566TIP3   OH241332   3.916   0.825   0.490  0.5538  0.2119  0.4656
 6566TIP3    H141333   3.909   0.899   0.550  0.9799  0.0346  0.7415
 6566TIP3    H241334   3.949   0.753   0.544 -0.7223 -0.4372  0.4079
 6567TIP3   OH241335   5.471   5.534   0.093 -0.0379 -0.0831 -0.4598
 6567TIP3    H141336   5.390   5.555   0.047  0.4684 -1.1222 -1.8886
 6567TIP3    H241337   5.444   5.510   0.182 -1.4718 -1.8578 -1.3201
 6568TIP3   OH241338   3.875   4.995   7.023 -0.4030  0.2807  0.4400
 6568TIP3    H141339   3.908   4.906   7.041  1.1886  0.7800  0.1954
 6568TIP3    H241340   3.833   5.022   7.105  0.4751 -0.1226  1.0433
 6569TIP3   OH241341   2.312   6.675   7.645 -0.2438 -0.5177  0.3538
 6569TIP3    H141342   2.391   6.706   7.600  0.0095 -0.7423  0.6429
 6569TIP3    H241343   2.297   6.587   7.610 -0.5381 -0.3617  0.0808
 6570TIP3   OH241344   6.775   5.660   0.688 -0.4975  0.2136 -0.2654
 6570TIP3    H141345   6.708   5.620   0.744  0.0843  1.3376  1.3125
 6570TIP3    H241346   6.787   5.598   0.616 -1.2791 -1.2964  0.8521
 6571TIP3   OH241347   6.886   1.254   1.686 -0.4613  0.1339  0.3694
 6571TIP3    H141348   6.839   1.277   1.766 -0.4699  0.2041  0.3453
 6571TIP3    H241349   6.969   1.217   1.715  0.3832  1.9413  0.4139
 6572TIP3   OH241350   5.816   3.022   0.915  0.1227  0.0479  0.4207
 6572TIP3    H141351   5.833   2.977   0.997  2.2171  1.0345  0.5883
 6572TIP3    H241352   5.903   3.048   0.883 -0.7711  1.2479 -1.1953
 6573TIP3   OH241353   2.461   4.191   1.257  0.1922  0.4800 -1.2784
 6573TIP3    H141354   2.527   4.222   1.319 -0.3214 -0.2247 -0.3353
 6573TIP3    H241355   2.392   4.257   1.259 -1.1206 -0.8130  1.0843
 6574TIP3   OH241356   2.803   5.039   0.639 -0.0919  0.3431 -0.3913
 6574TIP3    H141357   2.870   5.029   0.706  2.2331  1.7892 -2.3420
 6574TIP3    H241358   2.765   4.952   0.629 -0.7969  0.1227  2.9263
 6575TIP3   OH241359   2.880   4.370   8.384  0.3900 -0.3524 -0.2336
 6575TIP3    H141360   2.924   4.291   8.416  0.7378 -0.3865 -0.7863
 6575TIP3    H241361   2.821   4.339   8.315  1.4501  0.0057 -1.3361
 6576TIP3   OH241362   3.705   2.093   1.259  0.3951  0.1088 -0.7269
 6576TIP3    H141363   3.618   2.057   1.271  0.7829 -0.6135  0.1021
 6576TIP3    H241364   3.760   2.044   1.321  1.4048  0.4705 -1.3019
 6577TIP3   OH241365   3.900   4.794   0.665  0.1468 -0.6785 -0.8666
 6577TIP3    H141366   3.837   4.833   0.726  1.3239 -1.9460  1.2203
 6577TIP3    H241367   3.904   4.702   0.689  0.9106 -1.1595 -2.6731
 6578TIP3   OH241368   0.934   4.938   0.216 -0.2355 -0.0986  0.3107
 6578TIP3    H141369   1.021   4.935   0.255 -0.0629 -1.6382 -0.1246
 6578TIP3    H241370   0.910   4.847   0.204 -0.9469  0.2958 -1.7006
 6579TIP3   OH241371   4.755   3.893   7.256  0.5423  0.4549  0.4292
 6579TIP3    H141372   4.835   3.884   7.307  1.6542 -0.7751 -1.3980
 6579TIP3    H241373   4.727   3.803   7.239 -0.5836  0.8531  0.0686
 6580TIP3   OH241374   0.209   4.909   1.760  0.0445 -0.3157  0.1114
 6580TIP3    H141375   0.124   4.895   1.800 -0.3867  1.1747 -0.2065
 6580TIP3    H241376   0.239   4.822   1.734 -1.3145 -0.8734  0.3478
 6581TIP3   OH241377   2.722   2.196   2.922 -1.0381  0.0020 -0.7802
 6581TIP3    H141378   2.718   2.164   2.832  2.3057  0.8607 -1.3575
 6581TIP3    H241379   2.711   2.291   2.914 -0.2498  0.1365 -0.3512
 6582TIP3   OH241380   3.993   5.418   7.704 -0.0125  0.0486  0.1935
 6582TIP3    H141381   4.008   5.496   7.757 -1.8705 -1.2365  2.8603
 6582TIP3    H241382   4.043   5.350   7.748 -2.2518 -1.2382  0.9215
 6583TIP3   OH241383   6.874   5.293   0.625  0.0803 -0.0670 -0.1547
 6583TIP3    H141384   6.860   5.381   0.591 -3.3249 -0.1581  0.6547
 6583TIP3    H241385   6.821   5.237   0.569  2.2702 -1.6992 -0.7184
 6584TIP3   OH241386   1.993   4.592   8.336  0.1963 -0.1766  0.8746
 6584TIP3    H141387   1.988   4.567   8.428 -0.2808 -1.0735  0.6168
 6584TIP3    H241388   1.919   4.547   8.295  0.1442  0.5616  0.1302
 6585TIP3   OH241389   0.577   0.992   7.808 -0.3675 -0.2800  0.2132
 6585TIP3    H141390   0.542   0.904   7.793 -2.0926  0.3859  0.0951
 6585TIP3    H241391   0.607   1.020   7.721  2.8416 -1.7604  0.7220
 6586TIP3   OH241392   5.295   4.364   0.002 -0.0264  0.4019  0.4371
 6586TIP3    H141393   5.283   4.454   0.034  1.7618  1.0672 -0.6010
 6586TIP3    H241394   5.270   4.368  -0.090 -1.6732 -0.6270  0.8122
 6587TIP3   OH241395   4.159   1.337   7.999 -0.2721 -0.0285  0.5295
 6587TIP3    H141396   4.096   1.268   8.024 -1.8676  1.3963  0.6319
 6587TIP3    H241397   4.192   1.370   8.083 -0.6740  0.3520  0.5416
 6588TIP3   OH241398   0.052   1.659   8.483  0.6749 -0.9242  0.3628
 6588TIP3    H141399   0.043   1.566   8.504 -0.7006 -0.5869  1.3801
 6588TIP3    H241400  -0.037   1.694   8.488  0.8586  0.0515 -2.0655
 6589TIP3   OH241401   4.525   5.197   0.588  0.3181 -0.0541  0.0656
 6589TIP3    H141402   4.474   5.228   0.513 -1.4120 -1.2110  0.6930
 6589TIP3    H241403   4.523   5.270   0.650 -0.4989 -0.0468  0.0368
 6590TIP3   OH241404   5.190   0.265   0.371  0.4560 -0.0199  0.4008
 6590TIP3    H141405   5.172   0.223   0.287 -1.7812  0.7334  0.4482
 6590TIP3    H241406   5.176   0.195   0.436 -1.2367  0.2442  0.3476
 6591TIP3   OH241407   2.188   4.600   1.096  0.2538  0.0757  0.0422
 6591TIP3    H141408   2.234   4.521   1.069  0.3354 -0.2579  1.1013
 6591TIP3    H241409   2.254   4.669   1.089  0.4737 -0.1278  0.0788
 6592TIP3   OH241410   2.975   0.151   1.311  0.1321  0.8374 -0.8271
 6592TIP3    H141411   3.003   0.082   1.371 -0.0283  0.8468 -0.7380
 6592TIP3    H241412   2.926   0.105   1.243 -0.3667  0.9062 -0.5236
 6593TIP3   OH241413   2.642   0.272   7.266 -0.0613  0.5380 -0.4732
 6593TIP3    H141414   2.610   0.243   7.180  0.1227  0.6480 -0.5801
 6593TIP3    H241415   2.615   0.203   7.326  1.3786 -0.4559 -0.9087
 6594TIP3   OH241416   2.395   6.141   8.292 -0.3351 -0.6770  0.2004
 6594TIP3    H141417   2.400   6.106   8.203 -2.3428 -0.7866  0.0893
 6594TIP3    H241418   2.393   6.064   8.349 -0.1531 -0.6295  0.2729
 6595TIP3   OH241419   1.603   1.635   0.788  0.0546  0.3934 -0.0065
 6595TIP3    H141420   1.537   1.566   0.783  0.0241  0.3753  0.5960
 6595TIP3    H241421   1.655   1.614   0.866 -1.0790  2.0104  1.2607
 6596TIP3   OH241422   2.107   2.567   7.037  0.5776  0.6979 -0.3801
 6596TIP3    H141423   2.060   2.617   7.103  0.1023 -2.1732  1.6799
 6596TIP3    H241424   2.195   2.556   7.074  0.2744 -1.0379 -0.0485
 6597TIP3   OH241425   0.985   2.866   6.882 -0.1037  0.0861  0.4867
 6597TIP3    H141426   0.971   2.935   6.946  0.8653  1.0242 -0.2866
 6597TIP3    H241427   1.040   2.802   6.928 -0.5063  0.0992  1.0051
 6598TIP3   OH241428   0.531   3.743   7.924 -0.8437  0.4256 -0.2446
 6598TIP3    H141429   0.441   3.755   7.956 -0.5533 -0.8896  1.2129
 6598TIP3    H241430   0.520   3.715   7.833 -1.7724  2.7567 -0.9282
 6599TIP3   OH241431   0.459   4.253   7.843 -0.0937 -0.3038  0.6786
 6599TIP3    H141432   0.546   4.269   7.880  0.1896 -1.7987  0.7021
 6599TIP3    H241433   0.439   4.333   7.794  0.4047  0.8870  2.3451
 6600TIP3   OH241434   1.375   3.430   1.199 -0.3316  0.4127 -0.5860
 6600TIP3    H141435   1.407   3.472   1.119 -0.9810  1.2788 -0.4055
 6600TIP3    H241436   1.338   3.346   1.169  1.0869 -0.1177 -0.9317
 6601TIP3   OH241437   0.961   2.879   0.421  0.3470  0.9429  0.0301
 6601TIP3    H141438   1.038   2.924   0.387  0.9664  0.6330  0.9818
 6601TIP3    H241439   0.916   2.945   0.473  0.0984  1.0547 -0.3245
 6602TIP3   OH241440   5.394   1.293   0.668  0.2827  0.1823  0.7769
 6602TIP3    H141441   5.478   1.337   0.684  0.1504  0.1957  1.4620
 6602TIP3    H241442   5.417   1.218   0.613  0.7999 -0.0320  1.2773
 6603TIP3   OH241443   1.875   2.549   0.187  0.2487 -0.7501  0.0332
 6603TIP3    H141444   1.886   2.623   0.128  0.0926 -0.6446  0.1336
 6603TIP3    H241445   1.844   2.589   0.269 -1.8968 -1.0955 -0.5382
 6604TIP3   OH241446   5.198   0.793   1.121 -0.8010 -0.8744  0.3618
 6604TIP3    H141447   5.189   0.734   1.046  2.1267 -0.5667 -0.3279
 6604TIP3    H241448   5.255   0.863   1.090  0.4440 -0.6815  2.8353
 6605TIP3   OH241449   1.661   6.202   7.908 -0.0854 -0.2911  0.0624
 6605TIP3    H141450   1.654   6.243   7.994  1.2320 -0.3212  0.2096
 6605TIP3    H241451   1.572   6.175   7.886 -0.2932 -1.2454  1.8884
 6606TIP3   OH241452   5.701   0.987   0.398 -0.1583  0.4487 -0.2427
 6606TIP3    H141453   5.712   0.892   0.399 -1.7228  0.2405 -0.9230
 6606TIP3    H241454   5.791   1.021   0.400  0.4249 -1.0329 -0.0111
 6607TIP3   OH241455   4.769   5.229   8.314  0.1593 -0.0556  0.2566
 6607TIP3    H141456   4.708   5.282   8.366 -0.6332 -0.9466  0.2571
 6607TIP3    H241457   4.821   5.293   8.265 -1.0055  0.7307  0.0041
 6608TIP3   OH241458   2.695   4.008   7.049  0.0497 -0.1919 -0.4004
 6608TIP3    H141459   2.678   4.047   7.134  0.0336 -0.0378 -0.4750
 6608TIP3    H241460   2.774   4.052   7.018 -0.9673  1.0810 -1.2910
 6609TIP3   OH241461   1.903   1.455   7.127  0.0787  0.1601 -0.0619
 6609TIP3    H141462   1.877   1.480   7.039 -0.4250 -1.2637 -0.3415
 6609TIP3    H241463   1.837   1.495   7.184 -0.3967 -0.0748 -0.4478
 6610TIP3   OH241464   3.177   6.744   6.252  0.7131  0.2642 -0.3498
 6610TIP3    H141465   3.240   6.692   6.203  1.5366  1.1231 -0.2051
 6610TIP3    H241466   3.154   6.687   6.326 -1.7039 -1.7013 -2.4019
 6611TIP3   OH241467   6.399   1.133   0.803 -0.5954 -0.4396  0.4716
 6611TIP3    H141468   6.375   1.056   0.750 -1.6157 -0.4002  0.8593
 6611TIP3    H241469   6.376   1.208   0.748 -0.4225 -0.4037  0.4472
 6612TIP3   OH241470   1.064   6.448   2.476  0.3273 -0.2242 -0.3512
 6612TIP3    H141471   1.022   6.533   2.483  0.9542  0.1286 -0.7600
 6612TIP3    H241472   0.999   6.386   2.509 -1.0234  0.1361 -2.1930
 6613TIP3   OH241473   5.931   5.073   0.922  0.0492 -0.1985 -0.8272
 6613TIP3    H141474   5.978   5.016   0.983  0.0069 -0.9370 -1.4774
 6613TIP3    H241475   5.887   5.014   0.862 -1.7798  0.4730 -0.2308
 6614TIP3   OH241476   5.582   6.329   7.370  0.8425  0.3447 -0.0795
 6614TIP3    H141477   5.630   6.371   7.298  2.2868 -0.9945  0.0473
 6614TIP3    H241478   5.631   6.249   7.388  0.0341  0.2420  1.8761
 6615TIP3   OH241479   4.830   3.886   0.919 -0.3742 -0.3072 -0.0064
 6615TIP3    H141480   4.761   3.948   0.942  0.8167  1.3164 -0.5872
 6615TIP3    H241481   4.838   3.893   0.824 -0.2443 -1.3862 -0.0833
 6616TIP3   OH241482   6.188   0.326   8.025  0.4882  0.2197 -0.0226
 6616TIP3    H141483   6.268   0.361   8.064  0.1337  1.0266 -0.0154
 6616TIP3    H241484   6.206   0.232   8.016  0.3259 -0.1707  2.7675
 6617TIP3   OH241485   2.570   4.131   6.387 -0.2200 -0.5239  0.5677
 6617TIP3    H141486   2.552   4.216   6.347  0.0204 -0.5195  0.4705
 6617TIP3    H241487   2.518   4.068   6.336  0.1577 -0.5316  0.1929
 6618TIP3   OH241488   6.486   1.522   1.277 -0.5340  0.7119 -0.1733
 6618TIP3    H141489   6.566   1.515   1.226 -0.3394  0.3030  0.1776
 6618TIP3    H241490   6.450   1.433   1.278  0.0921  0.4424  1.3814
 6619TIP3   OH241491   1.554   2.067   1.127 -0.9515 -0.5124  0.0299
 6619TIP3    H141492   1.546   1.988   1.073 -1.0261 -1.1311  0.9335
 6619TIP3    H241493   1.648   2.085   1.130 -0.8831 -0.9134  0.3109
 6620TIP3   OH241494   2.286   1.486   6.584  0.2051 -0.0535  0.0596
 6620TIP3    H141495   2.192   1.486   6.604  0.1458  2.4365  0.1313
 6620TIP3    H241496   2.327   1.524   6.662  0.9035  1.7085 -1.0849
 6621TIP3   OH241497   5.642   2.183   1.555 -0.0383  0.3709 -0.5775
 6621TIP3    H141498   5.614   2.176   1.646 -0.6327 -0.2226 -0.8024
 6621TIP3    H241499   5.618   2.272   1.530 -0.3116  0.3751 -0.3043
 6622TIP3   OH241500   4.706   2.285   7.572 -0.1416 -0.1838 -0.5527
 6622TIP3    H141501   4.692   2.331   7.489  0.7810  1.2941  0.0712
 6622TIP3    H241502   4.639   2.321   7.630  0.0293 -0.2621 -0.3087
 6623TIP3   OH241503   0.788   3.491   1.219  0.1667 -0.1655  0.3715
 6623TIP3    H141504   0.732   3.494   1.296  0.2285 -0.2022  0.4186
 6623TIP3    H241505   0.779   3.401   1.186  0.1627 -0.1584  0.3532
 6624TIP3   OH241506   3.944   5.568   0.504  0.5898 -0.3566  0.5827
 6624TIP3    H141507   3.961   5.644   0.450 -1.0368 -1.7489 -2.1258
 6624TIP3    H241508   3.958   5.493   0.446 -1.2546 -1.9666  2.0433
 6625TIP3   OH241509   0.991   2.113   8.370 -0.2398  0.1727  0.0563
 6625TIP3    H141510   0.904   2.079   8.388  0.1784  0.3300  2.8217
 6625TIP3    H241511   0.976   2.195   8.323 -1.5345 -0.1344 -0.1073
 6626TIP3   OH241512   0.280   6.096   8.303 -0.0657  0.2584 -0.2486
 6626TIP3    H141513   0.213   6.029   8.318  0.3911  0.3530  2.8425
 6626TIP3    H241514   0.232   6.179   8.308  0.0551  0.2825  0.6399
 6627TIP3   OH241515   1.422   3.170   2.104 -0.1439  0.1086  0.0353
 6627TIP3    H141516   1.405   3.091   2.052 -2.1224 -0.3338  1.2528
 6627TIP3    H241517   1.350   3.174   2.167  1.8469  0.8856  2.4566
 6628TIP3   OH241518   5.465   2.498   2.530  0.0527  0.0053 -0.3111
 6628TIP3    H141519   5.395   2.433   2.529  1.9070 -2.1641  0.8669
 6628TIP3    H241520   5.518   2.476   2.453  1.2585 -0.5904  0.6648
 6629TIP3   OH241521   0.617   0.150   0.388  0.0338 -0.0255  0.4290
 6629TIP3    H141522   0.541   0.169   0.335 -0.4778  0.7664  1.4081
 6629TIP3    H241523   0.597   0.066   0.430 -0.3783  0.2488  0.7950
 6630TIP3   OH241524   0.801   0.325   1.272 -0.2218 -0.4279  0.2670
 6630TIP3    H141525   0.845   0.410   1.272  0.4189 -0.7498 -0.2959
 6630TIP3    H241526   0.821   0.288   1.358 -2.0668  0.7506  1.2769
 6631TIP3   OH241527   6.344   5.438   2.102 -1.1164  0.3579  0.1824
 6631TIP3    H141528   6.274   5.438   2.167 -1.3399 -0.3060 -0.0440
 6631TIP3    H241529   6.299   5.449   2.018 -1.1809 -1.9034 -0.1508
 6632TIP3   OH241530   1.300   5.324   8.562 -0.4334  0.0056 -0.7383
 6632TIP3    H141531   1.343   5.255   8.511  1.5923 -1.0242  2.1270
 6632TIP3    H241532   1.251   5.277   8.630 -1.5892  1.3510 -0.5824
 6633TIP3   OH241533   3.049   3.840   1.971  0.0467  0.0978 -1.0557
 6633TIP3    H141534   3.129   3.794   1.945  0.2578 -1.1886  1.5969
 6633TIP3    H241535   2.979   3.775   1.958 -0.0322 -0.0677  0.1085
 6634TIP3   OH241536   2.926   6.601   0.706  0.1208  0.2475  0.1747
 6634TIP3    H141537   2.917   6.600   0.802  0.8170  1.4275  0.2796
 6634TIP3    H241538   2.855   6.547   0.674  0.2504 -0.6838  1.3952
 6635TIP3   OH241539   1.461   3.487   7.720  0.0768 -0.2389 -0.1009
 6635TIP3    H141540   1.412   3.406   7.734 -0.7411  0.4510  1.2194
 6635TIP3    H241541   1.395   3.551   7.693  0.6182  0.1533 -0.5220
 6636TIP3   OH241542   5.200   2.631   8.493  0.3801  0.0643 -0.1481
 6636TIP3    H141543   5.270   2.587   8.446 -0.2994  0.0409 -1.1933
 6636TIP3    H241544   5.209   2.723   8.468  0.0044  0.0496 -0.3535
 6637TIP3   OH241545   5.861   1.304   1.567 -0.0699  0.1944  0.7309
 6637TIP3    H141546   5.839   1.373   1.503  1.7632 -0.1307 -0.3123
 6637TIP3    H241547   5.850   1.347   1.652  0.7606  1.7121  0.1232
 6638TIP3   OH241548   1.300   0.799   7.440 -0.1438 -0.7973  0.0914
 6638TIP3    H141549   1.248   0.847   7.504 -0.2407  1.6553 -1.6441
 6638TIP3    H241550   1.236   0.752   7.387 -0.3368 -0.4768  0.0333
 6639TIP3   OH241551   1.680   1.584   6.614  0.6769 -0.3243  0.1905
 6639TIP3    H141552   1.660   1.517   6.549  0.7412 -0.6437  0.5011
 6639TIP3    H241553   1.651   1.666   6.573  1.2754 -0.4454 -0.4886
 6640TIP3   OH241554   6.853   4.052   6.281 -0.0767 -0.3177 -0.5251
 6640TIP3    H141555   6.864   4.146   6.296  0.3929 -0.0381 -2.3370
 6640TIP3    H241556   6.937   4.014   6.303  1.1805  0.3066 -3.6423
 6641TIP3   OH241557   4.056   6.593   0.446  0.4520  0.5608 -0.4977
 6641TIP3    H141558   3.996   6.650   0.493 -0.9621 -2.0895  1.0976
 6641TIP3    H241559   4.000   6.533   0.397  1.8368 -0.5612 -0.7869
 6642TIP3   OH241560   6.181   4.685   0.383  0.4192  0.4757 -0.0987
 6642TIP3    H141561   6.105   4.627   0.383 -0.5379  1.6926 -0.4506
 6642TIP3    H241562   6.165   4.745   0.311  0.2683  2.5528  1.5713
 6643TIP3   OH241563   3.330   5.759   8.009 -0.2526 -0.3325  0.0891
 6643TIP3    H141564   3.273   5.827   7.971  1.6037  1.4951  0.3693
 6643TIP3    H241565   3.281   5.678   7.997 -1.9606  0.8357 -1.6130
 6644TIP3   OH241566   1.603   3.745   2.193 -0.2351 -0.0367  0.5645
 6644TIP3    H141567   1.658   3.669   2.210  0.9905  0.1166 -2.1830
 6644TIP3    H241568   1.517   3.721   2.227  0.2826 -2.3833  0.3725
 6645TIP3   OH241569   2.071   1.941   8.085 -0.1159  0.8096  0.0929
 6645TIP3    H141570   1.982   1.974   8.078  0.3549  2.0887 -0.0712
 6645TIP3    H241571   2.088   1.934   8.179 -0.7363 -0.4666  0.1322
 6646TIP3   OH241572   0.334   1.734   7.332 -0.3096  0.0554 -0.2205
 6646TIP3    H141573   0.262   1.740   7.270  0.8469 -0.7029 -1.6979
 6646TIP3    H241574   0.350   1.640   7.341 -1.1027  0.0763  2.0617
 6647TIP3   OH241575   2.343   2.643   1.669 -0.0837 -0.3469 -0.3056
 6647TIP3    H141576   2.436   2.623   1.659 -0.1935 -0.5393 -1.0210
 6647TIP3    H241577   2.319   2.606   1.754  0.4118 -0.6249 -0.2858
 6648TIP3   OH241578   0.636   0.998   7.561  0.4044  0.3555  0.2483
 6648TIP3    H141579   0.732   0.997   7.560  0.4498  1.7060 -1.2730
 6648TIP3    H241580   0.612   0.948   7.482 -0.1740 -0.3498  0.8589
 6649TIP3   OH241581   3.775   4.924   0.408 -0.1018 -0.6273  0.3261
 6649TIP3    H141582   3.745   4.936   0.498 -0.2584 -0.2860  0.2254
 6649TIP3    H241583   3.731   4.991   0.357  1.7040  0.6784  0.3714
 6650TIP3   OH241584   1.207   3.330   0.442 -0.5103  0.2804 -0.3159
 6650TIP3    H141585   1.174   3.390   0.376 -1.5208 -0.8025 -0.8465
 6650TIP3    H241586   1.147   3.340   0.516  0.7494  1.6544  0.5746
 6651TIP3   OH241587   6.114   1.864   8.534 -0.7750 -0.5924 -0.0778
 6651TIP3    H141588   6.175   1.795   8.559 -0.7008 -0.3982  0.2824
 6651TIP3    H241589   6.163   1.945   8.546 -0.3531 -0.5245 -1.9217
 6652TIP3   OH241590   4.084   0.452   1.300 -0.2983  0.1504 -0.1665
 6652TIP3    H141591   4.173   0.486   1.300  0.4215 -1.4175  2.5602
 6652TIP3    H241592   4.029   0.526   1.325  0.2509  1.0109 -1.4048
 6653TIP3   OH241593   4.172   5.793   6.684  0.4650  0.0377 -0.1023
 6653TIP3    H141594   4.168   5.802   6.589 -0.1724 -0.8474 -0.1715
 6653TIP3    H241595   4.091   5.747   6.707  0.5497  0.3711  0.8815
 6654TIP3   OH241596   2.876   3.139   0.793 -0.8434  0.0052  0.2636
 6654TIP3    H141597   2.961   3.169   0.760 -0.4787 -1.1989  0.0518
 6654TIP3    H241598   2.855   3.200   0.864  1.0325 -0.6451  1.4700
 6655TIP3   OH241599   1.653   2.987   8.159 -0.6574 -0.1035  0.3520
 6655TIP3    H141600   1.608   2.977   8.243  0.7665 -0.2851  1.1242
 6655TIP3    H241601   1.595   2.946   8.096 -0.3509 -2.8988  1.7379
 6656TIP3   OH241602   4.677   1.009   0.251  0.3389 -0.6962 -0.3649
 6656TIP3    H141603   4.670   1.086   0.307  0.0676 -0.2856 -0.9458
 6656TIP3    H241604   4.750   0.959   0.286  1.1878  0.3519 -0.5990
 6657TIP3   OH241605   0.135   4.948   6.828 -0.0170  0.3093 -0.3151
 6657TIP3    H141606   0.126   5.043   6.834 -0.8786  0.3496 -1.7222
 6657TIP3    H241607   0.052   4.914   6.861  0.8251 -0.0733  1.5982
 6658TIP3   OH241608   2.218   2.311   1.859 -0.2075  0.2288  0.0651
 6658TIP3    H141609   2.227   2.316   1.764  1.3756 -1.0939  0.0975
 6658TIP3    H241610   2.274   2.381   1.893  2.9494 -2.0700  0.0417
 6659TIP3   OH241611   0.780   6.697   2.148 -0.5421 -0.1667 -0.0444
 6659TIP3    H141612   0.782   6.610   2.189  0.4307 -0.6443 -1.0436
 6659TIP3    H241613   0.804   6.680   2.057 -1.9313  0.9623 -0.6409
 6660TIP3   OH241614   1.511   1.272   0.370  0.0702 -0.1084  0.2762
 6660TIP3    H141615   1.567   1.256   0.445  1.2831  0.2239 -0.5290
 6660TIP3    H241616   1.567   1.255   0.294 -0.7401  0.7897 -0.5597
 6661TIP3   OH241617   6.946   4.891   0.448 -0.0854  0.4823  0.4157
 6661TIP3    H141618   7.003   4.961   0.480 -0.4839  1.0583 -0.0973
 6661TIP3    H241619   6.977   4.874   0.359  0.5294 -0.5760  0.8156
 6662TIP3   OH241620   3.032   2.349   7.812  0.1996 -0.5222 -0.3556
 6662TIP3    H141621   3.016   2.440   7.838  0.3624 -0.2615 -1.1536
 6662TIP3    H241622   3.043   2.303   7.895  1.5081  0.4444  0.0504
 6663TIP3   OH241623   3.860   6.440   0.312 -0.3429  0.1682  0.0367
 6663TIP3    H141624   3.866   6.349   0.340  1.2124  0.4438  0.7033
 6663TIP3    H241625   3.797   6.480   0.373  1.7292  0.3587  2.1955
 6664TIP3   OH241626   1.007   6.594   1.127  0.8133 -0.1864  0.2718
 6664TIP3    H141627   1.010   6.597   1.031  0.5312 -0.7593  0.2407
 6664TIP3    H241628   1.038   6.506   1.149  3.3387  0.7614  0.8233
 6665TIP3   OH241629   0.107   4.847   0.176  0.6898 -0.0849 -0.0079
 6665TIP3    H141630   0.182   4.902   0.198 -0.0949  1.0811 -0.1534
 6665TIP3    H241631   0.041   4.908   0.142  0.1231 -1.2358 -1.0682
 6666TIP3   OH241632   5.682   5.307   0.766 -0.1127  0.6987  0.1353
 6666TIP3    H141633   5.691   5.396   0.800 -0.1245  1.4796 -1.7489
 6666TIP3    H241634   5.721   5.311   0.679  0.2639 -1.2702  0.1754
 6667TIP3   OH241635   2.982   0.992   0.530 -0.7285 -0.0320  0.3506
 6667TIP3    H141636   3.011   1.076   0.564 -3.2250  0.5257  1.3415
 6667TIP3    H241637   2.980   0.934   0.606 -1.5310 -0.2065  0.2099
 6668TIP3   OH241638   5.728   3.770   1.342 -0.0649 -0.5213  0.2859
 6668TIP3    H141639   5.689   3.843   1.391 -0.0503 -0.5393  0.3250
 6668TIP3    H241640   5.782   3.813   1.275 -1.4467 -0.4873 -0.8423
 6669TIP3   OH241641   3.839   1.888   0.049 -0.3650  0.4319  0.5646
 6669TIP3    H141642   3.882   1.953  -0.007  0.6715 -0.4609  0.3060
 6669TIP3    H241643   3.830   1.932   0.133 -0.4712  1.2213  0.1555
 6670TIP3   OH241644   5.306   2.103   7.766  0.6648  0.2973  0.5603
 6670TIP3    H141645   5.229   2.102   7.709  1.1988 -0.1205 -0.1804
 6670TIP3    H241646   5.325   2.195   7.779 -0.0511  0.4044  0.8697
 6671TIP3   OH241647   2.177   4.043   0.737  0.0267 -0.3229 -0.4678
 6671TIP3    H141648   2.259   4.059   0.783  0.3017 -0.2671 -0.9777
 6671TIP3    H241649   2.161   4.122   0.686 -0.6959 -0.0580  0.1433
 6672TIP3   OH241650   5.074   2.074   8.401 -0.0437 -0.1410 -0.6312
 6672TIP3    H141651   5.111   2.145   8.453 -0.5176 -1.4757  1.6431
 6672TIP3    H241652   4.981   2.072   8.425 -0.3028 -0.7284 -1.6120
 6673TIP3   OH241653   3.271   0.612   1.949  0.5634 -0.4055  0.2580
 6673TIP3    H141654   3.271   0.525   1.910  0.6835  0.4820 -1.8826
 6673TIP3    H241655   3.357   0.620   1.989  0.2224 -1.5748  1.2767
 6674TIP3   OH241656   6.532   2.157   1.655 -0.7211  0.5712  0.2359
 6674TIP3    H141657   6.617   2.185   1.621 -2.1499  3.4597 -1.3650
 6674TIP3    H241658   6.547   2.141   1.748  1.5874  0.8773 -0.0417
 6675TIP3   OH241659   0.530   3.252   7.934  0.3472 -0.3366  0.0199
 6675TIP3    H141660   0.527   3.287   7.845  0.5540 -3.6887 -1.4477
 6675TIP3    H241661   0.623   3.238   7.951  0.2160 -1.0090  0.1974
 6676TIP3   OH241662   5.983   5.048   7.075 -0.4833  0.1871  0.4318
 6676TIP3    H141663   5.981   5.097   6.992 -0.0185  0.1628  0.4012
 6676TIP3    H241664   5.932   4.969   7.057  0.7541 -0.4984 -0.2864
 6677TIP3   OH241665   1.505   6.323   8.508 -0.1407 -0.3207 -0.1291
 6677TIP3    H141666   1.420   6.346   8.544 -0.1734  1.4425 -1.1949
 6677TIP3    H241667   1.568   6.367   8.564  0.2374 -2.7147  1.4843
 6678TIP3   OH241668   0.325   5.609   6.539  0.1553  0.3382 -0.2030
 6678TIP3    H141669   0.330   5.519   6.506  1.3023  0.2246  0.2471
 6678TIP3    H241670   0.377   5.660   6.478 -0.3667  0.6833 -0.3690
 6679TIP3   OH241671   0.479   1.740   0.877 -0.3132  0.2158  0.2168
 6679TIP3    H141672   0.573   1.728   0.889 -0.2773 -0.3523 -0.5413
 6679TIP3    H241673   0.450   1.787   0.955  0.7452  1.1786  0.0583
 6680TIP3   OH241674   5.981   5.353   1.056  0.2044  0.4422 -0.0511
 6680TIP3    H141675   6.007   5.261   1.045 -0.4375  0.0248  1.6133
 6680TIP3    H241676   5.893   5.349   1.093 -0.7705  1.7933 -2.0658
 6681TIP3   OH241677   2.791   2.239   1.210  0.2899  0.2812 -0.6395
 6681TIP3    H141678   2.780   2.231   1.115  1.3586  1.1321 -0.8596
 6681TIP3    H241679   2.747   2.321   1.232 -0.5671 -0.2717 -0.2802
 6682TIP3   OH241680   6.028   6.650   1.176 -0.4882 -0.8190 -0.6050
 6682TIP3    H141681   6.052   6.739   1.149 -0.0451 -0.6583  0.2843
 6682TIP3    H241682   5.989   6.612   1.098  0.2493 -0.1845 -1.3134
 6683TIP3   OH241683   3.453   2.890   0.169 -0.8556 -0.1082 -0.8081
 6683TIP3    H141684   3.531   2.863   0.217  0.5102  3.9084 -0.4224
 6683TIP3    H241685   3.414   2.958   0.223 -1.9319  1.2953 -3.1936
 6684TIP3   OH241686   1.348   2.338   2.015 -0.7512 -0.0991 -0.3341
 6684TIP3    H141687   1.304   2.254   2.005 -0.2390 -0.5784  1.2083
 6684TIP3    H241688   1.310   2.376   2.094 -1.8532  1.7051 -1.6546
 6685TIP3   OH241689   5.622   2.865   1.910  0.6700  0.5961 -0.2237
 6685TIP3    H141690   5.603   2.781   1.868 -1.5803  1.1611 -0.4769
 6685TIP3    H241691   5.569   2.865   1.989  0.2192  1.9751 -0.4891
 6686TIP3   OH241692   1.781   0.545   1.012 -0.0189  0.0261 -0.1785
 6686TIP3    H141693   1.707   0.488   0.995 -0.5697  0.4020  0.8963
 6686TIP3    H241694   1.797   0.589   0.928 -0.4351 -0.7074 -0.6476
 6687TIP3   OH241695   2.764   5.151   7.672 -0.0646  0.5211  0.0681
 6687TIP3    H141696   2.815   5.075   7.644  0.1129  0.6921 -0.0779
 6687TIP3    H241697   2.830   5.217   7.695 -0.2209  0.7514 -0.1407
 6688TIP3   OH241698   2.418   0.498   2.663 -0.5078 -0.0642 -0.0486
 6688TIP3    H141699   2.488   0.527   2.605 -0.0081  2.3109  1.6358
 6688TIP3    H241700   2.342   0.550   2.637 -0.3243  0.8959  1.2481
 6689TIP3   OH241701   3.044   4.332   1.051 -0.8119 -0.0928 -0.0672
 6689TIP3    H141702   3.058   4.274   1.126  1.0510  0.7775  0.3050
 6689TIP3    H241703   3.063   4.419   1.084 -1.4505  0.4886 -1.1820
 6690TIP3   OH241704   5.861   0.416   7.986  0.0960  0.1101 -0.2114
 6690TIP3    H141705   5.805   0.344   8.017  0.0841  0.2503  0.0986
 6690TIP3    H241706   5.942   0.373   7.959  1.1455  0.1977  2.4707
 6691TIP3   OH241707   3.151   3.506   7.139 -0.2013 -0.2411 -0.4150
 6691TIP3    H141708   3.101   3.472   7.065  0.1289  0.5434 -1.0085
 6691TIP3    H241709   3.222   3.557   7.100 -0.7108  1.1761  0.4332
 6692TIP3   OH241710   4.512   3.962   7.621  0.7985  0.3392 -0.0952
 6692TIP3    H141711   4.587   3.905   7.641  0.7046  0.2732  0.0744
 6692TIP3    H241712   4.497   3.951   7.528 -0.4245 -1.3814  0.2578
 6693TIP3   OH241713   6.712   0.002   1.623  0.2118  0.9186 -0.5938
 6693TIP3    H141714   6.652  -0.069   1.599  0.9022 -0.2740  0.9545
 6693TIP3    H241715   6.790  -0.014   1.569  0.0890  0.9174 -0.7699
 6694TIP3   OH241716   2.372   6.214   2.022  0.0155 -0.4514 -0.2031
 6694TIP3    H141717   2.461   6.182   2.038 -0.5472 -1.3423  1.4741
 6694TIP3    H241718   2.318   6.165   2.084 -1.8349 -0.7786 -1.9640
 6695TIP3   OH241719   4.101   6.068   0.462 -0.3721  0.5259  0.1119
 6695TIP3    H141720   4.170   6.101   0.405  0.5412  1.0682  1.4853
 6695TIP3    H241721   4.024   6.120   0.440  0.6016  2.4627  1.0352
 6696TIP3   OH241722   4.137   2.994   7.817 -0.2398  0.0669 -0.4095
 6696TIP3    H141723   4.136   3.048   7.738 -0.1615  1.4893  0.5235
 6696TIP3    H241724   4.052   3.010   7.859 -1.0998 -2.2107 -1.1668
 6697TIP3   OH241725   2.788   0.122   1.607  0.0588  0.6057 -0.3841
 6697TIP3    H141726   2.882   0.103   1.597 -0.1953 -1.3138  0.4879
 6697TIP3    H241727   2.773   0.120   1.701 -1.5387 -3.1404 -0.5482
 6698TIP3   OH241728   1.912   6.627   0.142 -0.8570 -0.2342 -0.1918
 6698TIP3    H141729   1.908   6.714   0.104 -0.3833 -0.8426 -1.7197
 6698TIP3    H241730   1.975   6.580   0.087 -1.5852 -1.7259  0.1919
 6699TIP3   OH241731   3.173   1.048   0.028 -0.1410  0.6328  0.4041
 6699TIP3    H141732   3.257   1.071   0.068  1.0750 -0.1455 -1.5405
 6699TIP3    H241733   3.186   0.958  -0.002 -1.4073  0.7708 -0.6139
 6700TIP3   OH241734   5.640   6.654   6.578  0.3805  0.2643 -0.1767
 6700TIP3    H141735   5.587   6.593   6.527  2.5066 -2.8572  1.0323
 6700TIP3    H241736   5.654   6.728   6.520  0.6186 -1.9814 -3.2197
 6701TIP3   OH241737   5.982   1.153   1.184 -0.3002  0.2668  0.2740
 6701TIP3    H141738   6.003   1.117   1.270  0.9774 -0.4430 -0.3098
 6701TIP3    H241739   6.066   1.158   1.139 -0.8067  1.5711 -0.6009
 6702TIP3   OH241740   0.180   1.947   1.133  0.3048  0.1740 -0.0776
 6702TIP3    H141741   0.129   1.893   1.194 -0.5861 -0.3194 -1.2175
 6702TIP3    H241742   0.212   2.019   1.187  0.2310 -0.6680  1.1505
 6703TIP3   OH241743   3.889   0.363   0.718  0.3039  0.0242  0.5938
 6703TIP3    H141744   3.858   0.420   0.788 -0.4514 -0.4035  0.6175
 6703TIP3    H241745   3.936   0.293   0.764 -1.9575 -1.4069  0.8859
 6704TIP3   OH241746   3.663   3.615   1.957 -1.1501 -0.4225  0.0134
 6704TIP3    H141747   3.740   3.595   2.011 -0.7450 -0.0370 -0.4161
 6704TIP3    H241748   3.600   3.546   1.979 -1.4595  0.3803  1.8708
 6705TIP3   OH241749   5.445   3.104   5.895  0.0989  0.2961 -0.0071
 6705TIP3    H141750   5.417   3.128   5.983 -0.9716 -1.5988  0.2155
 6705TIP3    H241751   5.427   3.182   5.842 -0.7506  0.9135  1.1485
 6706TIP3   OH241752   2.408   2.810   0.729 -0.1155  0.3145 -0.2055
 6706TIP3    H141753   2.396   2.899   0.694  4.0127  0.9711 -0.3993
 6706TIP3    H241754   2.385   2.753   0.655 -4.3990  0.9418  0.3971
 6707TIP3   OH241755   5.727   1.360   0.599  0.6213 -0.5024 -0.2839
 6707TIP3    H141756   5.696   1.427   0.660 -1.1495  0.0819 -1.7224
 6707TIP3    H241757   5.810   1.330   0.636 -0.5389 -0.4992  2.6306
 6708TIP3   OH241758   3.558   2.368   1.166  0.6998 -0.1252  0.2688
 6708TIP3    H141759   3.598   2.355   1.253  1.5919  1.5018  0.1356
 6708TIP3    H241760   3.632   2.370   1.106  0.1669 -0.1280 -0.3977
 6709TIP3   OH241761   1.434   0.643   0.865  0.2002 -0.2994  0.0573
 6709TIP3    H141762   1.338   0.643   0.870  0.1746 -2.3730  0.8019
 6709TIP3    H241763   1.461   0.711   0.927 -0.7729  0.9745 -0.8660
 6710TIP3   OH241764   0.202   5.609   0.656 -0.3408 -0.5091  0.0768
 6710TIP3    H141765   0.116   5.649   0.648 -0.4784 -0.8654 -0.2412
 6710TIP3    H241766   0.256   5.675   0.699 -0.8931 -0.4516  0.6990
 6711TIP3   OH241767   3.895   5.861   6.978 -0.3613 -0.3453  0.3435
 6711TIP3    H141768   3.909   5.810   6.898  0.1346  0.7239 -0.2750
 6711TIP3    H241769   3.978   5.906   6.992 -0.1166 -1.2167  2.0047
 6712TIP3   OH241770   4.583   0.728   7.847 -0.0058  0.2754  0.6231
 6712TIP3    H141771   4.646   0.799   7.836 -0.2295  0.3528 -0.2315
 6712TIP3    H241772   4.627   0.651   7.812 -0.0267  0.1302  0.9107
 6713TIP3   OH241773   2.460   2.753   6.222  0.2512 -0.1491 -0.2073
 6713TIP3    H141774   2.422   2.839   6.238 -0.4396 -0.1469 -1.7528
 6713TIP3    H241775   2.554   2.765   6.239 -0.1637  0.1800  2.2699
 6714TIP3   OH241776   6.330   6.890   7.457  0.0590 -0.2519 -0.4275
 6714TIP3    H141777   6.363   6.898   7.367  1.2756 -1.0999 -0.0667
 6714TIP3    H241778   6.311   6.980   7.483 -1.3011 -0.0736 -1.8835
 6715TIP3   OH241779   1.697   2.861   8.421 -0.0825 -1.0155  0.2990
 6715TIP3    H141780   1.609   2.896   8.437 -0.4260 -1.8366  0.2699
 6715TIP3    H241781   1.727   2.831   8.507  1.2849  1.6636  0.8547
 6716TIP3   OH241782   2.087   5.518   1.613 -0.4377  0.1107  0.2737
 6716TIP3    H141783   2.166   5.550   1.570  0.2573  0.6744  1.8849
 6716TIP3    H241784   2.056   5.592   1.665 -1.5167 -0.3893  0.3658
 6717TIP3   OH241785   0.247   5.895   0.469  0.2658  0.2561  0.0555
 6717TIP3    H141786   0.156   5.867   0.477  0.2353  0.2142 -0.4274
 6717TIP3    H241787   0.251   5.941   0.386  0.6601  0.3589  0.1293
 6718TIP3   OH241788   2.313   1.764   1.068  0.0395 -0.2022 -0.0663
 6718TIP3    H141789   2.277   1.694   1.015 -1.5358  1.3460 -1.1784
 6718TIP3    H241790   2.246   1.781   1.134  0.6557 -0.1212  0.5447
 6719TIP3   OH241791   3.423   5.825   0.876 -0.1919  0.0901 -0.4233
 6719TIP3    H141792   3.465   5.783   0.951 -0.9549  1.0882  0.5875
 6719TIP3    H241793   3.485   5.893   0.849 -0.0456 -0.0796 -0.5155
 6720TIP3   OH241794   0.980   4.273   8.010  0.1664  0.4283 -0.1898
 6720TIP3    H141795   1.069   4.296   7.984 -0.0079  0.5780 -0.6647
 6720TIP3    H241796   0.969   4.313   8.097  0.1147  1.5334 -0.6910
 6721TIP3   OH241797   1.116   4.380   6.183  0.4718  0.0313 -0.1890
 6721TIP3    H141798   1.144   4.312   6.123  0.1104  0.1443 -0.4835
 6721TIP3    H241799   1.022   4.369   6.191  0.5209 -0.0106  0.3929
 6722TIP3   OH241800   2.966   3.954   7.923 -0.2086 -0.1927 -0.3788
 6722TIP3    H141801   2.879   3.963   7.962  0.7184 -0.3283  1.8328
 6722TIP3    H241802   2.967   3.867   7.884 -0.3130 -1.1519  1.6685
 6723TIP3   OH241803   1.994   3.740   7.678 -0.8070  0.1584  0.3382
 6723TIP3    H141804   1.927   3.722   7.744 -0.4925 -0.0899  0.5892
 6723TIP3    H241805   2.060   3.791   7.724 -0.9227  0.5889  0.0356
 6724TIP3   OH241806   0.832   1.662   0.066  0.2602 -0.1362  0.4037
 6724TIP3    H141807   0.790   1.689  -0.016 -0.8730 -0.6571  0.7941
 6724TIP3    H241808   0.871   1.743   0.101  0.5835  0.1287 -0.5388
 6725TIP3   OH241809   6.161   2.455   7.347  0.4187 -0.3961 -0.4775
 6725TIP3    H141810   6.124   2.372   7.377  0.8657  0.2238  2.0153
 6725TIP3    H241811   6.254   2.449   7.370  0.9108  0.0159 -2.1770
 6726TIP3   OH241812   2.809   1.639   8.260 -0.3393 -0.2972  0.2586
 6726TIP3    H141813   2.785   1.644   8.168  0.9066  1.3481 -0.0169
 6726TIP3    H241814   2.748   1.699   8.304  0.9415  1.2366  0.0374
 6727TIP3   OH241815   6.191   1.791   1.250  0.0338  0.5061 -0.0872
 6727TIP3    H141816   6.249   1.759   1.319 -1.1579 -2.2573 -0.2496
 6727TIP3    H241817   6.126   1.844   1.297  0.5827  0.5945  0.5921
 6728TIP3   OH241818   5.452   4.233   8.208 -0.5067 -0.0716 -0.0723
 6728TIP3    H141819   5.541   4.264   8.222  0.5597 -2.5178 -0.8643
 6728TIP3    H241820   5.430   4.259   8.118 -0.7344  0.7758  0.2172
 6729TIP3   OH241821   5.766   6.073   7.172  0.7988 -0.0690  0.0297
 6729TIP3    H141822   5.761   5.992   7.223  0.8171 -0.8646 -1.1897
 6729TIP3    H241823   5.853   6.107   7.189  1.5072 -1.3270 -0.8925
 6730TIP3   OH241824   2.070   5.598   0.413 -0.5747 -0.0505  0.3329
 6730TIP3    H141825   2.037   5.670   0.466  0.6009  0.9446 -0.2176
 6730TIP3    H241826   2.016   5.601   0.333 -1.4135 -0.6543  0.8652
 6731TIP3   OH241827   2.207   5.317   2.315  0.8018 -0.0329 -0.1249
 6731TIP3    H141828   2.232   5.262   2.390  3.2261 -1.2234 -1.6464
 6731TIP3    H241829   2.126   5.279   2.283 -0.3902  0.6244  1.9557
 6732TIP3   OH241830   0.046   5.230   8.187 -0.1590  0.2255  0.5721
 6732TIP3    H141831   0.048   5.319   8.151 -1.8595  0.3947  0.8126
 6732TIP3    H241832   0.138   5.210   8.207  0.5073  1.1749 -1.2492
 6733TIP3   OH241833   2.772   1.770   1.517  1.0481  0.1499  0.1833
 6733TIP3    H141834   2.809   1.809   1.437  0.4336 -1.4270 -0.9330
 6733TIP3    H241835   2.830   1.696   1.536  2.0055  1.3088  2.0584
 6734TIP3   OH241836   5.224   3.313   0.684 -0.1539 -0.2947  0.1191
 6734TIP3    H141837   5.223   3.370   0.607 -1.3354  0.9256  0.9957
 6734TIP3    H241838   5.311   3.327   0.723 -0.6707  1.5436  0.7362
 6735TIP3   OH241839   5.511   5.711   0.486  0.1265 -0.2661  0.2175
 6735TIP3    H141840   5.455   5.734   0.560 -1.4738  0.3589 -1.1009
 6735TIP3    H241841   5.473   5.759   0.412  0.2661 -2.6216 -1.4912
 6736TIP3   OH241842   4.063   1.023   6.200 -0.4297 -0.1417 -0.0936
 6736TIP3    H141843   4.106   1.106   6.219 -0.9828  0.0424  0.3564
 6736TIP3    H241844   4.045   1.027   6.106 -0.5748  0.3017 -0.0478
 6737TIP3   OH241845   5.237   2.706   8.198  0.2800  0.2393 -0.1506
 6737TIP3    H141846   5.302   2.638   8.216 -1.1609 -1.0877  0.2813
 6737TIP3    H241847   5.249   2.771   8.267  1.0041 -0.1032  0.0489
 6738TIP3   OH241848   0.832   6.256   7.868 -0.1921 -0.2463  0.2355
 6738TIP3    H141849   0.905   6.315   7.885 -0.6681  0.4043  0.0691
 6738TIP3    H241850   0.768   6.309   7.820 -0.4478 -1.0191 -0.3050
 6739TIP3   OH241851   5.333   4.354   0.419 -0.1887 -0.5478  0.1827
 6739TIP3    H141852   5.369   4.320   0.502 -0.0089 -0.5842  0.0906
 6739TIP3    H241853   5.395   4.324   0.353 -0.6878 -1.0800 -0.0442
 6740TIP3   OH241854   4.467   1.090   8.137  0.3418 -0.0743  0.1207
 6740TIP3    H141855   4.560   1.084   8.116  1.0043  1.0010  2.4911
 6740TIP3    H241856   4.464   1.115   8.229 -2.2125  4.1643 -0.8435
 6741TIP3   OH241857   0.240   6.468   1.745  0.4153  0.3417  0.5322
 6741TIP3    H141858   0.201   6.420   1.818  1.3488 -0.0666  0.7744
 6741TIP3    H241859   0.320   6.420   1.724 -0.0558  0.1955 -1.0704
 6742TIP3   OH241860   2.885   6.114   8.052  0.0063  0.0203  0.4489
 6742TIP3    H141861   2.847   6.049   7.992  0.1685 -1.0722  1.4946
 6742TIP3    H241862   2.829   6.111   8.129 -0.7821  2.1236  0.0256
 6743TIP3   OH241863   3.010   4.433   7.150  0.5117  0.3445  0.4460
 6743TIP3    H141864   2.966   4.475   7.223 -0.5365 -2.8576  1.8429
 6743TIP3    H241865   3.100   4.421   7.180  0.3138 -0.1358  0.8622
 6744TIP3   OH241866   1.155   5.316   7.564 -0.2762 -0.2091  0.2696
 6744TIP3    H141867   1.182   5.390   7.509  0.3893  0.0287  0.9144
 6744TIP3    H241868   1.065   5.337   7.589 -1.4755 -1.3890 -2.5492
 6745TIP3   OH241869   0.984   5.491   1.954  0.3587 -0.6367 -0.6136
 6745TIP3    H141870   1.051   5.451   1.900  0.8858 -2.9448  1.5632
 6745TIP3    H241871   1.033   5.534   2.025 -0.3713 -1.7305  0.6035
 6746TIP3   OH241872   4.130   2.330   7.645 -0.2409 -0.7021  0.0863
 6746TIP3    H141873   4.168   2.271   7.710  0.2028 -0.6940 -0.1632
 6746TIP3    H241874   4.102   2.272   7.574 -1.9323 -0.8681  0.8227
 6747TIP3   OH241875   5.701   4.979   7.932  0.4864  0.0840  0.1536
 6747TIP3    H141876   5.674   4.903   7.881  1.6259  2.0181 -3.6867
 6747TIP3    H241877   5.775   4.947   7.984  1.2398 -1.3831 -1.6963
 6748TIP3   OH241878   2.117   4.841   0.448  0.4217  0.3206 -0.4142
 6748TIP3    H141879   2.089   4.924   0.485  0.2392  0.6035 -1.1682
 6748TIP3    H241880   2.190   4.814   0.503  1.2689  1.5767 -0.8692
 6749TIP3   OH241881   5.059   4.579   6.374  0.0852 -0.0244 -0.0540
 6749TIP3    H141882   4.990   4.527   6.333  0.4419 -0.0934 -0.5765
 6749TIP3    H241883   5.135   4.569   6.316 -0.0693  1.7262 -0.6199
 6750TIP3   OH241884   1.521   3.073   0.490  0.4351 -0.3277 -0.2301
 6750TIP3    H141885   1.453   3.008   0.507 -0.8628  0.8478 -0.6637
 6750TIP3    H241886   1.506   3.099   0.399  0.7160  0.7740  0.0211
 6751TIP3   OH241887   5.554   2.669   6.950 -0.2237  0.1775 -0.3327
 6751TIP3    H141888   5.583   2.579   6.965 -0.8533  0.2758  1.8605
 6751TIP3    H241889   5.634   2.721   6.954 -0.2166  0.1090  2.5647
 6752TIP3   OH241890   1.984   1.832   6.804  0.3707  0.1629  0.1685
 6752TIP3    H141891   1.998   1.879   6.722  1.7593  0.4386  0.5341
 6752TIP3    H241892   1.963   1.901   6.867  0.2012  0.0463  0.2403
 6753TIP3   OH241893   6.864   4.474   8.228 -0.2580 -0.1899 -0.3106
 6753TIP3    H141894   6.918   4.428   8.292 -0.7714  0.4118  0.5724
 6753TIP3    H241895   6.781   4.426   8.226 -0.8130  0.6770  0.6472
 6754TIP3   OH241896   4.474   6.435   1.240 -0.8279  0.5256 -0.4269
 6754TIP3    H141897   4.411   6.437   1.312  1.0139  2.1314  1.2692
 6754TIP3    H241898   4.441   6.501   1.178 -2.0135 -0.3182 -0.7379
 6755TIP3   OH241899   5.168   4.538   1.662 -0.3940 -0.3385 -0.2283
 6755TIP3    H141900   5.199   4.498   1.744 -2.7252 -1.8286  0.0158
 6755TIP3    H241901   5.221   4.496   1.594  3.2700  2.6046  0.4671
 6756TIP3   OH241902   2.464   2.649   2.714 -0.0797  0.4478 -0.0116
 6756TIP3    H141903   2.521   2.707   2.664 -0.9336  3.0720  1.8377
 6756TIP3    H241904   2.375   2.675   2.690 -0.4965 -0.8773  0.0398
 6757TIP3   OH241905   5.547   5.219   1.413 -0.4017 -0.1328  0.1924
 6757TIP3    H141906   5.472   5.266   1.450  0.1173  1.6021 -0.8571
 6757TIP3    H241907   5.619   5.237   1.473  0.0476  1.3487 -0.7332
 6758TIP3   OH241908   6.498   0.349   7.392  0.0429 -0.3228  0.0445
 6758TIP3    H141909   6.504   0.265   7.346  1.8289 -1.0033  1.4004
 6758TIP3    H241910   6.431   0.398   7.344  2.2375 -0.6588 -3.7100
 6759TIP3   OH241911   5.387   3.518   0.642  0.3714  0.1333  0.0771
 6759TIP3    H141912   5.448   3.498   0.571 -1.5868 -1.4113 -1.2370
 6759TIP3    H241913   5.369   3.612   0.632  1.3202  0.2750 -0.4403
 6760TIP3   OH241914   4.789   0.342   6.789 -0.5163  0.0698  0.3201
 6760TIP3    H141915   4.853   0.270   6.786  1.1551  1.4086  1.6890
 6760TIP3    H241916   4.806   0.391   6.708 -0.7104 -0.2947  0.0544
 6761TIP3   OH241917   3.407   0.785   1.371  0.4332 -0.3384  0.2408
 6761TIP3    H141918   3.450   0.706   1.403 -0.7201 -0.4764  1.5385
 6761TIP3    H241919   3.324   0.788   1.419 -0.2049  0.8606 -0.8825
 6762TIP3   OH241920   0.946   4.965   1.655  0.1209 -0.1185 -0.1307
 6762TIP3    H141921   0.979   5.045   1.616  0.9844 -0.2883  0.2254
 6762TIP3    H241922   0.987   4.895   1.605 -1.6484 -0.3768 -1.2998
 6763TIP3   OH241923   2.713   2.382   2.623 -0.3140 -0.0546  0.2542
 6763TIP3    H141924   2.653   2.326   2.573  0.4029  0.5249 -1.3304
 6763TIP3    H241925   2.761   2.321   2.679  1.0822 -1.2448 -2.0822
 6764TIP3   OH241926   0.317   0.329   7.743  0.2580  0.2510 -0.0697
 6764TIP3    H141927   0.287   0.350   7.654 -0.2272 -0.8316 -0.1801
 6764TIP3    H241928   0.411   0.315   7.733  0.2128  0.1589 -0.4053
 6765TIP3   OH241929   3.481   2.478   7.753  0.7349 -0.4826  0.0736
 6765TIP3    H141930   3.435   2.497   7.835 -0.4058  2.0203 -1.0247
 6765TIP3    H241931   3.413   2.440   7.697  1.3750 -1.6626  0.0659
 6766TIP3   OH241932   6.034   0.445   7.210  0.2368 -0.3422 -0.5935
 6766TIP3    H141933   6.025   0.436   7.305  1.5398 -0.4684 -0.4567
 6766TIP3    H241934   6.105   0.385   7.187  0.0349 -0.2025 -1.6260
 6767TIP3   OH241935   0.364   0.028   1.820  0.3815  0.0929  0.2561
 6767TIP3    H141936   0.304  -0.045   1.809  0.7506 -0.4215  1.4893
 6767TIP3    H241937   0.312   0.097   1.861  0.4484 -0.0887  0.6478
 6768TIP3   OH241938   1.981   0.821   0.525  0.3456  0.5705 -0.4759
 6768TIP3    H141939   1.934   0.887   0.475  0.2180  0.4455 -0.5227
 6768TIP3    H241940   1.930   0.741   0.512  0.6091  0.4209 -0.5759
 6769TIP3   OH241941   2.894   4.978   1.148 -0.2199 -1.0152  0.1130
 6769TIP3    H141942   2.976   4.990   1.196 -0.6371  0.2785  0.5230
 6769TIP3    H241943   2.825   4.985   1.214 -0.7081 -1.3537 -0.3487
 6770TIP3   OH241944   0.248   5.436   6.901 -0.4895 -0.4167 -0.6035
 6770TIP3    H141945   0.337   5.406   6.885 -1.5023 -3.7153 -0.8374
 6770TIP3    H241946   0.247   5.459   6.994  0.4874 -0.8987 -0.4543
 6771TIP3   OH241947   3.905   6.835   0.512 -0.1321 -0.2693 -0.1560
 6771TIP3    H141948   3.971   6.903   0.502  0.3743 -0.7862 -0.3811
 6771TIP3    H241949   3.823   6.876   0.486 -0.0185  0.5838  0.7722
 6772TIP3   OH241950   1.452   2.121   7.671  0.4294  0.5422 -0.7173
 6772TIP3    H141951   1.433   2.035   7.633 -0.2897  0.5269 -0.3354
 6772TIP3    H241952   1.510   2.162   7.608  1.2298 -0.4382 -0.6431
 6773TIP3   OH241953   2.879   0.479   6.354  0.1466 -0.3039 -0.5574
 6773TIP3    H141954   2.888   0.569   6.385  1.7989  0.3506 -2.6959
 6773TIP3    H241955   2.823   0.486   6.276 -0.7399 -1.3440 -0.0469
 6774TIP3   OH241956   6.773   6.663   1.652 -0.5749 -0.0196 -0.4320
 6774TIP3    H141957   6.760   6.589   1.712 -3.0131  0.3102 -0.4898
 6774TIP3    H241958   6.765   6.625   1.565 -1.2668  0.2187 -0.4720
 6775TIP3   OH241959   1.301   0.427   0.675 -0.0380  0.8146  0.2758
 6775TIP3    H141960   1.322   0.383   0.758 -3.1974 -0.8263  0.3512
 6775TIP3    H241961   1.219   0.472   0.692 -0.0847  1.5252 -1.6340
 6776TIP3   OH241962   5.303   5.317   1.479 -0.3763  0.4759  0.0040
 6776TIP3    H141963   5.292   5.403   1.439 -0.6772 -0.3785 -1.8510
 6776TIP3    H241964   5.216   5.293   1.509 -0.1801  1.0480  1.0927
 6777TIP3   OH241965   4.230   0.835   1.452 -0.6835  0.1878 -0.1322
 6777TIP3    H141966   4.161   0.889   1.489 -0.5334 -0.4198  1.0826
 6777TIP3    H241967   4.306   0.894   1.447 -0.4657  0.0627  1.3631
 6778TIP3   OH241968   2.810   6.123   0.764  0.6763  0.2600  0.6571
 6778TIP3    H141969   2.724   6.096   0.795  0.5243  0.3538  0.3275
 6778TIP3    H241970   2.850   6.042   0.731  0.1579  0.4478 -0.4769
 6779TIP3   OH241971   2.947   2.416   6.783 -0.1538 -0.3647  0.1662
 6779TIP3    H141972   2.989   2.345   6.735  0.2201 -1.9359  2.6202
 6779TIP3    H241973   3.016   2.450   6.841 -1.6775 -1.9225  3.1280
 6780TIP3   OH241974   5.786   4.683   1.511  0.2264 -0.5851  0.2595
 6780TIP3    H141975   5.779   4.594   1.545  0.4977 -0.2728  1.1548
 6780TIP3    H241976   5.695   4.711   1.500  0.1290 -0.6185  0.9323
 6781TIP3   OH241977   5.197   4.718   8.441 -0.2645  0.0462  0.1109
 6781TIP3    H141978   5.287   4.729   8.408 -0.2796 -1.5318 -0.5358
 6781TIP3    H241979   5.208   4.684   8.529 -0.2207 -0.3739 -0.0545
 6782TIP3   OH241980   0.724   2.720   6.841 -0.4949 -0.2424 -0.0941
 6782TIP3    H141981   0.795   2.784   6.840  1.0075 -1.8309 -0.0236
 6782TIP3    H241982   0.652   2.762   6.793  0.2668  1.6269  0.3089
 6783TIP3   OH241983   4.519   2.663   1.131  0.0862  0.6263  0.0198
 6783TIP3    H141984   4.462   2.699   1.063 -1.2653  0.5060  1.0551
 6783TIP3    H241985   4.462   2.653   1.207  1.7109  1.3887  1.3993
 6784TIP3   OH241986   1.898   3.050   6.032 -0.3717  0.6266  0.2911
 6784TIP3    H141987   1.846   2.970   6.025 -0.4306  0.7371 -0.6644
 6784TIP3    H241988   1.983   3.021   6.065 -0.2163  0.0906 -0.5746
 6785TIP3   OH241989   6.419   0.017   7.198  0.1409 -0.4298  0.0261
 6785TIP3    H141990   6.390  -0.022   7.116  0.1492 -0.5248  0.0680
 6785TIP3    H241991   6.456   0.101   7.173 -0.2758 -0.2544 -0.0167
 6786TIP3   OH241992   2.969   6.837   0.030  0.0748  0.0547  0.1413
 6786TIP3    H141993   3.043   6.797   0.076  0.0092 -0.1836  0.0396
 6786TIP3    H241994   2.904   6.767   0.023  0.1839  0.0170 -0.5417
 6787TIP3   OH241995   0.247   4.015   8.245 -0.5136 -0.5363  0.3418
 6787TIP3    H141996   0.265   3.978   8.331 -0.0685 -0.7645  0.1538
 6787TIP3    H241997   0.290   4.100   8.245  0.3834 -0.9773 -0.0191
 6788TIP3   OH241998   1.452   6.364   7.011  0.3227 -0.3623 -0.2335
 6788TIP3    H141999   1.442   6.273   6.982 -1.8097  0.1455 -1.2084
 6788TIP3    H242000   1.398   6.415   6.951  0.8251  1.4729  0.8101
 6789TIP3   OH242001   0.210   2.834   2.277  0.3626  0.2809 -0.0124
 6789TIP3    H142002   0.243   2.902   2.337 -0.5177  0.3743  0.3867
 6789TIP3    H242003   0.140   2.878   2.229  0.3565 -0.1090 -0.3571
 6790TIP3   OH242004   4.154   5.615   1.614 -0.2414  0.0998  0.1249
 6790TIP3    H142005   4.216   5.572   1.556  0.5091 -0.3289  1.2080
 6790TIP3    H242006   4.072   5.619   1.564  0.1489 -1.0032 -0.6351
 6791TIP3   OH242007   1.139   5.201   6.963 -0.1459  0.0358 -0.2169
 6791TIP3    H142008   1.115   5.279   6.912  1.5528  0.4254 -0.4554
 6791TIP3    H242009   1.094   5.129   6.918 -1.9686  0.8587  0.1618
 6792TIP3   OH242010   3.121   4.667   6.483 -0.2421  0.2516 -0.2990
 6792TIP3    H142011   3.077   4.724   6.420 -0.1261 -0.5910 -1.1765
 6792TIP3    H242012   3.203   4.643   6.440 -0.2831 -0.5649  0.0466
 6793TIP3   OH242013   0.442   1.372   1.940 -0.0621  0.1210  0.4054
 6793TIP3    H142014   0.499   1.396   1.868 -1.0774  1.7389  0.0935
 6793TIP3    H242015   0.429   1.277   1.929  0.2440  0.2342 -1.2090
 6794TIP3   OH242016   5.494   3.211   6.917  1.0247  0.6565  0.1160
 6794TIP3    H142017   5.532   3.201   6.830 -0.9617 -2.8806 -0.5292
 6794TIP3    H242018   5.407   3.247   6.901  0.1310 -1.2564  0.4045
 6795TIP3   OH242019   2.936   4.214   0.252  0.2729 -0.3319  0.1172
 6795TIP3    H142020   2.993   4.140   0.232  0.7901  0.3030 -0.8625
 6795TIP3    H242021   2.926   4.260   0.168 -2.3770 -0.8695  0.0384
 6796TIP3   OH242022   6.794   3.900   0.429  0.2656 -0.3084 -0.2865
 6796TIP3    H142023   6.822   3.854   0.349  0.6776  2.5728 -1.9448
 6796TIP3    H242024   6.713   3.944   0.404 -1.1328 -1.5404  1.8097
 6797TIP3   OH242025   1.435   4.942   1.470  0.3554 -0.5018  0.0272
 6797TIP3    H142026   1.518   4.896   1.456 -0.0244 -0.7700 -1.5617
 6797TIP3    H242027   1.374   4.872   1.496 -0.0105 -0.7921 -1.5243
 6798TIP3   OH242028   4.126   6.519   0.928  0.2223 -0.9922  0.0049
 6798TIP3    H142029   4.176   6.549   1.003 -2.3838 -1.1037  1.9340
 6798TIP3    H242030   4.095   6.599   0.885 -0.3729 -0.9084  0.5790
 6799TIP3   OH242031   1.341   2.339   6.451  0.5012  0.1990  0.5221
 6799TIP3    H142032   1.393   2.396   6.394  0.4651  0.6925  0.9781
 6799TIP3    H242033   1.272   2.395   6.486 -1.0359 -0.6783 -0.9062
 6800TIP3   OH242034   4.630   5.596   1.171 -0.7188 -0.0130  0.0394
 6800TIP3    H142035   4.644   5.614   1.078  0.5852 -1.8866 -0.1852
 6800TIP3    H242036   4.688   5.657   1.217  1.2138 -1.2984 -0.5581
 6801TIP3   OH242037   5.471   1.268   6.632  0.8390  0.1283  0.3477
 6801TIP3    H142038   5.566   1.278   6.622  0.5971  2.1154 -0.3128
 6801TIP3    H242039   5.434   1.305   6.551 -0.5117 -0.4035  0.6945
 6802TIP3   OH242040   3.963   3.589   8.375 -0.2056 -0.1916 -0.2548
 6802TIP3    H142041   3.870   3.600   8.396 -0.7570 -0.1817 -2.4481
 6802TIP3    H242042   4.001   3.676   8.388 -0.1584 -0.4844  1.9534
 6803TIP3   OH242043   0.969   6.676   6.377 -0.3134  0.0561  0.3469
 6803TIP3    H142044   0.973   6.716   6.464 -0.8998  1.2016 -0.1304
 6803TIP3    H242045   0.877   6.678   6.354  0.2054  4.6303 -2.4047
 6804TIP3   OH242046   5.511   0.396   1.782 -0.4655 -0.0757  0.3307
 6804TIP3    H142047   5.483   0.465   1.842 -1.2245 -0.5743  0.5673
 6804TIP3    H242048   5.585   0.354   1.827 -0.4247  0.1623  0.4871
 6805TIP3   OH242049   3.772   2.929   2.679  0.3228 -0.0861 -0.3740
 6805TIP3    H142050   3.814   2.843   2.681  0.4786 -0.0078  2.0465
 6805TIP3    H242051   3.845   2.991   2.678  0.4125  0.0376  3.1971
 6806TIP3   OH242052   2.172   2.491   7.371 -0.5526 -0.0719 -0.2510
 6806TIP3    H142053   2.148   2.572   7.324  0.7850 -0.9269 -2.5882
 6806TIP3    H242054   2.249   2.515   7.421 -2.4274  1.0563  2.3158
 6807TIP3   OH242055   5.563   2.470   1.611 -0.3757  0.3021 -0.1041
 6807TIP3    H142056   5.487   2.415   1.595  0.2704 -0.7773  0.4163
 6807TIP3    H242057   5.531   2.538   1.670 -0.8645 -0.3195  0.3622
 6808TIP3   OH242058   4.072   3.749   1.532 -0.6238 -0.1127 -0.1305
 6808TIP3    H142059   4.088   3.843   1.531  1.0323 -0.3517  0.6140
 6808TIP3    H242060   4.153   3.711   1.499 -1.8637 -1.2555 -2.0601
 6809TIP3   OH242061   6.522   5.893   0.127 -0.1318 -0.5117  0.5241
 6809TIP3    H142062   6.534   5.973   0.177 -2.0479 -0.9257  1.7550
 6809TIP3    H242063   6.534   5.919   0.035 -0.6656  1.1666  0.9027
 6810TIP3   OH242064   3.966   1.687   7.539  0.0645 -0.2422 -0.1456
 6810TIP3    H142065   3.937   1.606   7.497  0.3578 -1.1090  1.2766
 6810TIP3    H242066   3.919   1.689   7.623 -1.3419  1.9933 -0.8882
 6811TIP3   OH242067   1.607   4.856   7.941 -0.1040  0.0161 -0.5221
 6811TIP3    H142068   1.569   4.931   7.896 -0.4600  1.1664  1.5751
 6811TIP3    H242069   1.534   4.796   7.955 -0.2000  0.1301 -0.5410
 6812TIP3   OH242070   3.623   2.239   7.826 -0.0872  0.0450  0.2771
 6812TIP3    H142071   3.552   2.176   7.822  0.2026 -0.2102 -2.1571
 6812TIP3    H242072   3.583   2.323   7.802 -0.1413  0.5556  1.9581
 6813TIP3   OH242073   2.474   4.387   8.414 -0.2284 -0.0705  0.1577
 6813TIP3    H142074   2.515   4.425   8.337  0.3281  0.4607  0.7035
 6813TIP3    H242075   2.544   4.381   8.478 -0.4893 -1.2940  0.3507
 6814TIP3   OH242076   0.805   6.844   7.971  0.2925 -0.1204  0.1533
 6814TIP3    H142077   0.716   6.818   7.947  0.7328 -2.0632  0.4498
 6814TIP3    H242078   0.850   6.762   7.987  2.3176  0.8040 -0.5341
 6815TIP3   OH242079   6.881   1.053   0.582 -0.3895  0.2835 -0.6729
 6815TIP3    H142080   6.846   1.141   0.598  1.2211  0.9327 -0.5084
 6815TIP3    H242081   6.875   1.042   0.487  0.4043  1.0249 -0.8174
 6816TIP3   OH242082   0.640   3.435   0.305  0.4340 -0.5435  1.1402
 6816TIP3    H142083   0.548   3.414   0.321  0.4861 -1.0929  0.7609
 6816TIP3    H242084   0.675   3.459   0.391 -0.6293  2.0394  0.9451
 6817TIP3   OH242085   6.143   4.650   0.891  0.0367  0.3844 -0.2604
 6817TIP3    H142086   6.097   4.710   0.949  1.9218  1.6598  0.0255
 6817TIP3    H242087   6.202   4.601   0.948 -0.4457 -0.7058 -0.6845
 6818TIP3   OH242088   4.371   4.014   8.246 -0.3001 -0.0705 -0.0025
 6818TIP3    H142089   4.276   4.010   8.257 -0.1842 -0.0875  1.1710
 6818TIP3    H242090   4.384   4.054   8.160 -1.3670 -2.3340 -1.3206
 6819TIP3   OH242091   5.563   1.737   8.539 -0.1418 -0.9418 -0.0280
 6819TIP3    H142092   5.531   1.662   8.489  0.1767 -0.0905 -1.5652
 6819TIP3    H242093   5.650   1.709   8.570 -0.2656 -1.4158 -0.0969
 6820TIP3   OH242094   4.922   1.362   1.845  0.2911  0.3156 -0.2400
 6820TIP3    H142095   4.981   1.288   1.830  0.6237  0.1886  1.5307
 6820TIP3    H242096   4.973   1.439   1.820  0.7466  0.1140  0.0682
 6821TIP3   OH242097   5.094   3.541   8.010 -0.6329 -0.5627 -0.2305
 6821TIP3    H142098   5.169   3.540   7.950  0.2407 -0.2924  0.8325
 6821TIP3    H242099   5.047   3.460   7.991  0.2504 -1.0221 -0.4951
 6822TIP3   OH242100   4.395   5.343   0.829 -0.3183 -0.6272 -0.1780
 6822TIP3    H142101   4.353   5.262   0.856  1.0178 -1.3779 -0.3000
 6822TIP3    H242102   4.333   5.383   0.767 -0.6125 -1.9761 -0.7811
 6823TIP3   OH242103   2.659   1.407   6.388 -0.2139 -0.0263  0.5001
 6823TIP3    H142104   2.711   1.379   6.313  0.4709 -1.5607  1.4819
 6823TIP3    H242105   2.712   1.475   6.430 -0.2167  0.2534  0.0540
 6824TIP3   OH242106   4.826   3.906   1.701 -0.4266 -0.4275  0.4371
 6824TIP3    H142107   4.859   3.953   1.624 -1.0418  1.0174  1.0236
 6824TIP3    H242108   4.816   3.816   1.671  0.7587 -0.2001 -0.7387
 6825TIP3   OH242109   4.908   4.698   8.413  0.5049 -0.1449 -0.0576
 6825TIP3    H142110   5.002   4.708   8.431  0.1458 -0.0867  2.0174
 6825TIP3    H242111   4.875   4.787   8.404  0.7406 -0.1808 -1.4986
 6826TIP3   OH242112   2.406   3.844   2.186 -0.7070  0.9594  0.1857
 6826TIP3    H142113   2.469   3.776   2.208 -1.7083  0.3164  1.1892
 6826TIP3    H242114   2.446   3.892   2.113  1.0821  0.8039  1.0095
 6827TIP3   OH242115   1.718   6.023   2.002 -0.4675  0.0031 -0.3142
 6827TIP3    H142116   1.776   6.008   1.927  0.3515 -1.2000  0.5070
 6827TIP3    H242117   1.685   5.936   2.023 -0.5096  0.2897  0.8458
 6828TIP3   OH242118   3.124   6.837   7.118 -0.2927  0.3720  0.1674
 6828TIP3    H142119   3.030   6.856   7.123 -0.3686  0.2741 -0.7416
 6828TIP3    H242120   3.155   6.886   7.041  0.4545  0.5989  0.5979
 6829TIP3   OH242121   3.755   2.544   1.916 -0.3133  0.2308 -0.0811
 6829TIP3    H142122   3.735   2.559   2.009 -0.2891  0.1315 -0.0597
 6829TIP3    H242123   3.673   2.562   1.871 -0.5394 -0.4689  0.0357
 6830TIP3   OH242124   3.027   2.913   6.964  0.0548  0.3520 -0.6060
 6830TIP3    H142125   3.031   2.950   7.053  1.3934  0.0233 -0.5118
 6830TIP3    H242126   3.047   2.987   6.907 -0.3367  0.4551 -0.6146
 6831TIP3   OH242127   5.223   6.630   7.407 -0.0422  0.4409 -0.2607
 6831TIP3    H142128   5.306   6.654   7.366 -0.1171  1.4847  0.1618
 6831TIP3    H242129   5.158   6.642   7.337 -0.1915  2.3746  0.1312
 6832TIP3   OH242130   3.054   3.529   0.492 -0.2779 -0.3383 -0.6287
 6832TIP3    H142131   3.053   3.580   0.412 -1.8349 -2.0795 -1.8101
 6832TIP3    H242132   2.962   3.520   0.516  0.1467  0.3507  1.5571
 6833TIP3   OH242133   4.406   4.398   7.654  0.3189 -0.0872 -0.3364
 6833TIP3    H142134   4.316   4.365   7.651  0.0332  0.6226  0.0653
 6833TIP3    H242135   4.398   4.490   7.627  0.7235  0.3542  0.9663
 6834TIP3   OH242136   6.164   6.458   7.243  0.2768  0.5718 -0.6502
 6834TIP3    H142137   6.069   6.452   7.253  0.5542 -0.7620  1.8832
 6834TIP3    H242138   6.195   6.494   7.326  2.1332 -1.2294 -0.4844
 6835TIP3   OH242139   1.985   2.828   8.310  0.5982 -0.2169  0.1056
 6835TIP3    H142140   2.060   2.778   8.277  0.9330 -0.2031  0.8280
 6835TIP3    H242141   2.020   2.914   8.329  0.3265 -0.1218  0.1819
 6836TIP3   OH242142   1.850   3.451   1.812 -0.7728 -0.2476 -0.1999
 6836TIP3    H142143   1.776   3.409   1.855 -1.0217  2.2941  2.1699
 6836TIP3    H242144   1.821   3.540   1.796  0.7925 -0.0018 -1.9999
 6837TIP3   OH242145   1.956   2.082   6.206  0.0239 -0.2415  0.1808
 6837TIP3    H142146   1.900   2.077   6.283  0.0749  1.0748  0.3258
 6837TIP3    H242147   2.037   2.038   6.232 -0.5444 -1.2458  0.3094
 6838TIP3   OH242148   1.714   5.175   0.893  0.4539  0.1504  0.3037
 6838TIP3    H142149   1.728   5.247   0.954  2.1197  0.2602 -0.1455
 6838TIP3    H242150   1.690   5.217   0.810 -1.5810  0.0113  0.7692
 6839TIP3   OH242151   2.817   2.353   8.275  0.3286 -0.0737 -0.2989
 6839TIP3    H142152   2.832   2.429   8.332  0.1800 -1.1563  1.2645
 6839TIP3    H242153   2.742   2.378   8.221  1.0491  1.3451 -0.6880
 6840TIP3   OH242154   0.537   5.846   0.148 -0.1093  0.2936 -0.2279
 6840TIP3    H142155   0.465   5.900   0.182 -0.1635 -0.2439  0.5200
 6840TIP3    H242156   0.493   5.781   0.093 -0.2815 -0.5417  0.8790
 6841TIP3   OH242157   5.805   2.168   7.272 -0.0730  0.2174 -0.7161
 6841TIP3    H142158   5.783   2.076   7.289 -2.5359  0.3216 -2.7493
 6841TIP3    H242159   5.762   2.216   7.343 -3.1854  0.0601 -2.3003
 6842TIP3   OH242160   6.301   0.832   7.930 -0.2110 -0.3030  0.2585
 6842TIP3    H142161   6.304   0.871   8.017 -1.6640 -0.2719  0.3215
 6842TIP3    H242162   6.385   0.787   7.921 -0.6317 -1.6925  2.3538
 6843TIP3   OH242163   2.872   6.635   1.272 -0.5763  0.1590 -0.4352
 6843TIP3    H142164   2.789   6.659   1.314 -0.1383 -0.2151  0.6855
 6843TIP3    H242165   2.895   6.551   1.312  1.3583  1.2150  0.8234
 6844TIP3   OH242166   3.106   6.690   7.870  0.3688  0.3122  0.3513
 6844TIP3    H142167   3.040   6.710   7.936 -0.4155  0.6523 -0.5168
 6844TIP3    H242168   3.057   6.655   7.795  1.2140  0.1292 -0.1419
 6845TIP3   OH242169   0.150   3.215   0.870  0.1493 -0.1655  0.6654
 6845TIP3    H142170   0.093   3.159   0.817  0.1876  1.0096 -0.6898
 6845TIP3    H242171   0.195   3.270   0.806  0.5578  0.9963  1.9061
 6846TIP3   OH242172   0.569   0.799   0.943 -0.0731 -0.0878 -0.0970
 6846TIP3    H142173   0.555   0.830   0.853 -0.0370 -1.8270 -0.7522
 6846TIP3    H242174   0.523   0.715   0.946  0.9938 -0.6594  1.1106
 6847TIP3   OH242175   3.504   5.232   7.362  0.3012 -0.0668  0.8313
 6847TIP3    H142176   3.481   5.300   7.299 -1.5461 -1.5070 -0.1253
 6847TIP3    H242177   3.524   5.280   7.443  2.0915  1.7717 -0.6140
 6848TIP3   OH242178   6.152   6.412   1.277 -0.4187 -0.5084  0.3219
 6848TIP3    H142179   6.222   6.452   1.329  1.1713 -1.2204 -1.1726
 6848TIP3    H242180   6.105   6.487   1.239  0.9613  0.0257 -0.4368
 6849TIP3   OH242181   2.679   0.287   7.836 -0.2536  0.1225 -0.6134
 6849TIP3    H142182   2.743   0.353   7.811 -0.6625  1.2528  1.1858
 6849TIP3    H242183   2.732   0.213   7.866  0.1907  0.0431 -1.5472
 6850TIP3   OH242184   2.460   0.169   8.225  0.4206  0.2461  0.6450
 6850TIP3    H142185   2.439   0.191   8.135  0.0761 -0.7073  0.4756
 6850TIP3    H242186   2.388   0.204   8.277 -0.1070 -0.4261  0.3847
 6851TIP3   OH242187   0.535   3.435   7.716 -0.2110 -0.1195  0.4614
 6851TIP3    H142188   0.533   3.407   7.625  2.7855  1.5262 -0.2536
 6851TIP3    H242189   0.542   3.531   7.711  0.2867 -0.0089  2.4093
 6852TIP3   OH242190   5.160   2.311   8.528  0.0700  0.0981 -0.1973
 6852TIP3    H142191   5.255   2.312   8.537  0.0973  0.8730 -0.4805
 6852TIP3    H242192   5.128   2.363   8.601  0.0293  2.1461 -1.5875
 6853TIP3   OH242193   1.950   0.500   1.242 -0.2256 -0.0553  0.4616
 6853TIP3    H142194   1.882   0.489   1.309  0.0288  0.3259  0.7830
 6853TIP3    H242195   1.901   0.507   1.160 -0.5597 -0.1274  0.6513
 6854TIP3   OH242196   5.861   5.223   0.082 -0.0091  0.0201 -0.5492
 6854TIP3    H142197   5.909   5.305   0.094  0.8785 -0.4598 -0.7018
 6854TIP3    H242198   5.865   5.207  -0.012  0.8282 -0.7680 -0.3979
 6855TIP3   OH242199   3.086   3.613   8.295  0.4969 -0.2699 -0.5153
 6855TIP3    H142200   3.081   3.702   8.331  0.5741 -0.2881 -0.4591
 6855TIP3    H242201   3.180   3.597   8.286  0.5953 -1.2188  1.6670
 6856TIP3   OH242202   4.882   1.408   1.054 -0.3685 -0.7714  0.4260
 6856TIP3    H142203   4.952   1.343   1.039 -0.1757 -0.3902 -0.4093
 6856TIP3    H242204   4.928   1.485   1.087 -0.0897  0.1542 -1.9443
 6857TIP3   OH242205   2.113   1.779   2.187 -0.3506 -0.6630  0.2689
 6857TIP3    H142206   2.085   1.799   2.098 -0.2135  0.9668  0.5741
 6857TIP3    H242207   2.196   1.732   2.176 -0.0745 -0.0179 -0.4439
 6858TIP3   OH242208   0.480   5.047   6.596  0.7028  0.2402 -0.7649
 6858TIP3    H142209   0.576   5.043   6.605  0.5839 -0.2121  0.4909
 6858TIP3    H242210   0.455   4.957   6.576  0.4762  0.1964 -0.2987
 6859TIP3   OH242211   4.153   6.231   0.896  0.0046  0.5917 -0.4972
 6859TIP3    H142212   4.164   6.197   0.984 -1.2740  1.7403  0.1383
 6859TIP3    H242213   4.140   6.325   0.907 -0.0491  0.7845 -1.9154
 6860TIP3   OH242214   5.781   4.692   0.939  0.4045  0.0419  0.0903
 6860TIP3    H142215   5.803   4.708   0.848 -1.4367 -1.2022 -0.6455
 6860TIP3    H242216   5.769   4.779   0.977  0.9949  0.5648 -0.8993
 6861TIP3   OH242217   5.259   2.796   7.399  0.3415 -0.4607  0.0034
 6861TIP3    H142218   5.227   2.857   7.332  2.1567  0.3922 -0.1354
 6861TIP3    H242219   5.238   2.838   7.482  2.4173  0.8820 -0.0902
 6862TIP3   OH242220   5.956   0.472   0.011  0.3478  0.0568  0.4372
 6862TIP3    H142221   6.030   0.411   0.016 -1.2568 -1.8979  1.9763
 6862TIP3    H242222   5.956   0.516   0.096 -0.9854 -0.9153  0.9659
 6863TIP3   OH242223   2.229   0.282   7.173 -0.1929 -0.0223 -0.5432
 6863TIP3    H142224   2.210   0.263   7.081  0.1399 -1.1933 -0.3849
 6863TIP3    H242225   2.309   0.233   7.192  0.7612  1.6210 -0.0954
 6864TIP3   OH242226   0.808   2.424   7.327  0.4467 -0.8184  0.0338
 6864TIP3    H142227   0.725   2.465   7.353  0.1503 -1.0063 -0.5883
 6864TIP3    H242228   0.815   2.346   7.381 -0.2501 -1.3057 -0.5708
 6865TIP3   OH242229   1.562   6.835   6.192  0.5803 -0.3964 -0.5696
 6865TIP3    H142230   1.607   6.914   6.221  0.2757 -0.7862  1.0425
 6865TIP3    H242231   1.472   6.863   6.179  0.3504 -0.5648  0.5340
 6866TIP3   OH242232   6.226   0.050   8.316  0.1692  0.5210 -0.1473
 6866TIP3    H142233   6.276   0.101   8.381 -0.4906 -0.8156  1.4774
 6866TIP3    H242234   6.146   0.100   8.303 -0.7036 -0.2700  1.8226
 6867TIP3   OH242235   0.276   0.705   0.473 -0.1263 -0.4596  0.5426
 6867TIP3    H142236   0.268   0.776   0.410 -0.2733 -1.0568 -0.1325
 6867TIP3    H242237   0.212   0.724   0.541 -0.4916 -0.1980  0.1239
 6868TIP3   OH242238   6.242   3.092   7.901  0.3271  0.2458  0.7761
 6868TIP3    H142239   6.198   3.165   7.943  1.1639  2.0839 -1.3313
 6868TIP3    H242240   6.173   3.045   7.855 -0.1231  0.1291  1.5677
 6869TIP3   OH242241   3.045   4.691   8.190 -0.2991 -0.0058  0.1279
 6869TIP3    H142242   3.037   4.623   8.123  1.1078  0.9764 -1.0986
 6869TIP3    H242243   3.124   4.669   8.238 -0.3263  0.2774  0.3041
 6870TIP3   OH242244   6.489   3.713   8.316  0.2914  0.6483  0.4875
 6870TIP3    H142245   6.443   3.782   8.268  0.2449 -0.2720 -0.8228
 6870TIP3    H242246   6.541   3.667   8.250  0.7550 -0.2323  1.4290
 6871TIP3   OH242247   4.602   4.710   0.818 -0.2864  0.4981  0.3476
 6871TIP3    H142248   4.560   4.762   0.750 -0.1069 -0.9744 -0.9589
 6871TIP3    H242249   4.690   4.748   0.827 -0.1644  0.4619 -0.5699
 6872TIP3   OH242250   1.298   0.657   6.760 -0.2510 -0.0728 -0.0050
 6872TIP3    H142251   1.335   0.579   6.718 -2.9415 -1.9148  0.7547
 6872TIP3    H242252   1.260   0.707   6.688 -0.5764 -0.7053 -0.2837
 6873TIP3   OH242253   5.792   5.826   7.326  0.4333 -0.2163 -0.2192
 6873TIP3    H142254   5.808   5.815   7.419  1.1612  0.5903 -0.2331
 6873TIP3    H242255   5.827   5.747   7.285  0.5008 -0.3776  0.1528
 6874TIP3   OH242256   4.979   1.487   6.268  0.4119 -0.1955  0.0866
 6874TIP3    H142257   5.016   1.401   6.246  0.1561 -0.4120  0.5013
 6874TIP3    H242258   4.914   1.503   6.199  1.5299  0.3602 -0.8680
 6875TIP3   OH242259   3.054   6.027   6.757 -0.9008 -0.2454 -0.0557
 6875TIP3    H142260   3.089   5.939   6.765 -0.5312 -0.3289 -2.1128
 6875TIP3    H242261   3.035   6.037   6.664 -0.3714  2.0552  0.0258
 6876TIP3   OH242262   4.264   2.414   6.943 -0.3311 -0.0321  0.1282
 6876TIP3    H142263   4.197   2.483   6.945 -1.5541 -1.1812  2.0001
 6876TIP3    H242264   4.226   2.346   6.887 -0.2341 -0.2092  0.2789
 6877TIP3   OH242265   3.519   1.285   1.864  0.6868  0.4962  0.6637
 6877TIP3    H142266   3.513   1.191   1.880 -1.0473  0.1814 -1.3057
 6877TIP3    H242267   3.593   1.315   1.917  1.4542 -2.0172  1.1097
 6878TIP3   OH242268   5.013   5.716   7.421 -0.3497 -0.0544 -0.1829
 6878TIP3    H142269   5.092   5.689   7.469 -1.7911 -1.5245  1.5151
 6878TIP3    H242270   5.044   5.734   7.332  1.9518 -0.1489  0.5283
 6879TIP3   OH242271   2.764   0.154   0.596  0.1975 -0.0116  0.6460
 6879TIP3    H142272   2.817   0.075   0.608 -1.4192 -1.1145  0.9477
 6879TIP3    H242273   2.776   0.204   0.676  1.7396  0.4028  0.1920
 6880TIP3   OH242274   3.463   5.188   2.032  0.2934  0.2808 -0.5201
 6880TIP3    H142275   3.521   5.232   2.094 -1.1577 -1.0224  1.9523
 6880TIP3    H242276   3.488   5.096   2.036 -0.1950  0.0860 -1.4949
 6881TIP3   OH242277   6.352   3.421   8.268  0.3087  0.4884 -0.2121
 6881TIP3    H142278   6.304   3.339   8.280 -0.9513  1.1291 -0.7016
 6881TIP3    H242279   6.284   3.488   8.264  1.3223  1.5896  0.3369
 6882TIP3   OH242280   5.524   1.034   7.639 -0.5144 -0.2592  0.7446
 6882TIP3    H142281   5.512   1.114   7.587 -1.5916  0.0100  1.3802
 6882TIP3    H242282   5.436   0.997   7.648 -0.5085  0.0738  2.9222
 6883TIP3   OH242283   4.700   4.126   7.504  0.5439  0.2215  0.5806
 6883TIP3    H142284   4.731   4.053   7.450 -3.0435 -0.4271 -0.8886
 6883TIP3    H242285   4.644   4.085   7.569  0.9683  1.4653  1.7722
 6884TIP3   OH242286   2.806   3.498   8.500  0.6133  0.0044 -0.3282
 6884TIP3    H142287   2.815   3.466   8.589  1.0819 -0.5062 -0.5500
 6884TIP3    H242288   2.850   3.432   8.446 -0.4204 -0.1500 -1.0238
 6885TIP3   OH242289   0.337   1.517   0.194 -0.2483  0.3297 -0.1406
 6885TIP3    H142290   0.264   1.471   0.237  0.9152 -1.1810  0.3015
 6885TIP3    H242291   0.405   1.522   0.260  0.3823  0.9280 -0.8174
 6886TIP3   OH242292   0.522   4.859   0.685  0.0869  0.7939 -0.1729
 6886TIP3    H142293   0.441   4.819   0.717  1.7417 -0.9211  2.1965
 6886TIP3    H242294   0.523   4.947   0.724 -0.0834  0.3772  0.7939
 6887TIP3   OH242295   4.065   2.776   1.327  0.4672 -0.1891  0.2117
 6887TIP3    H142296   4.098   2.861   1.357  3.4812 -0.5293 -1.7344
 6887TIP3    H242297   4.143   2.721   1.319 -0.4802 -1.3016 -4.1793
 6888TIP3   OH242298   2.662   1.011   7.039  0.4052  0.3467  0.1450
 6888TIP3    H142299   2.699   1.095   7.067  0.3637 -0.1879  1.9050
 6888TIP3    H242300   2.585   0.998   7.095 -0.5152 -0.1569 -1.1693
 6889TIP3   OH242301   4.891   0.414   0.147 -0.2633 -0.1081 -0.3770
 6889TIP3    H142302   4.873   0.321   0.161  1.8447 -0.9943 -2.8196
 6889TIP3    H242303   4.949   0.416   0.071  1.4967  3.0717  0.8546
 6890TIP3   OH242304   5.070   5.426   7.881 -0.2825 -0.1415 -0.3015
 6890TIP3    H142305   5.016   5.409   7.959  0.1748  0.8450  0.2465
 6890TIP3    H242306   5.008   5.424   7.809 -0.5988 -1.8599 -0.0320
 6891TIP3   OH242307   0.574   6.086   6.457  0.0833  0.5335  0.0794
 6891TIP3    H142308   0.510   6.096   6.527  0.7902  1.2266  0.6443
 6891TIP3    H242309   0.656   6.066   6.502 -0.1760 -3.0195 -0.7077
 6892TIP3   OH242310   6.353   3.735   1.064  0.0948  0.1743 -0.9193
 6892TIP3    H142311   6.274   3.683   1.081 -0.4816  0.9544 -1.1885
 6892TIP3    H242312   6.358   3.796   1.137  0.2665  0.3504 -1.0790
 6893TIP3   OH242313   2.824   4.653   8.364  0.3713 -0.1590 -0.3635
 6893TIP3    H142314   2.838   4.567   8.325 -2.6672 -1.0097  0.1572
 6893TIP3    H242315   2.808   4.711   8.289  1.5067 -0.2226 -0.6698
 6894TIP3   OH242316   0.234   0.111   6.812 -0.7816 -0.0229 -1.2878
 6894TIP3    H142317   0.194   0.151   6.734 -2.2637  1.7092  0.2688
 6894TIP3    H242318   0.164   0.057   6.849 -1.0408  1.3159  0.2745
 6895TIP3   OH242319   1.498   3.502   6.978  0.2659  0.2917 -0.2795
 6895TIP3    H142320   1.406   3.521   6.996  0.2513 -0.3427  0.3850
 6895TIP3    H242321   1.521   3.559   6.904 -0.6100  0.5701 -0.3457
 6896TIP3   OH242322   1.377   4.720   0.611  0.1904 -0.7813 -0.5305
 6896TIP3    H142323   1.373   4.773   0.531  1.3780  0.0514 -0.0674
 6896TIP3    H242324   1.470   4.701   0.623  0.3627  0.9897  1.7845
 6897TIP3   OH242325   2.061   2.639   6.770  1.0753  0.0912  0.0379
 6897TIP3    H142326   2.071   2.567   6.708  0.1903 -0.1929  0.2066
 6897TIP3    H242327   2.079   2.600   6.855 -1.8251 -0.5949  0.4250
 6898TIP3   OH242328   6.620   0.615   0.772  0.1963 -0.4417  0.3273
 6898TIP3    H142329   6.584   0.643   0.856  1.1880  0.8309  0.3613
 6898TIP3    H242330   6.545   0.618   0.712 -0.4585 -1.1006  1.0880
 6899TIP3   OH242331   3.029   4.979   8.118 -0.1489  0.3665 -0.2763
 6899TIP3    H142332   3.033   4.901   8.173 -1.9650  0.6149  0.2547
 6899TIP3    H242333   3.015   4.945   8.029  0.2831  0.0678 -0.2368
 6900TIP3   OH242334   1.216   5.330   1.192  0.0759  0.0047  0.4554
 6900TIP3    H142335   1.263   5.334   1.108  1.2732  0.5492  1.1170
 6900TIP3    H242336   1.252   5.253   1.235 -0.5636 -0.2931  0.4638
 6901TIP3   OH242337   0.119   2.343   0.210  0.3437  0.6503  0.2145
 6901TIP3    H142338   0.082   2.393   0.283 -0.7244 -2.2273  1.8164
 6901TIP3    H242339   0.060   2.267   0.201  1.7383 -0.2613 -2.1632
 6902TIP3   OH242340   4.185   3.987   1.611  0.7428 -0.1416 -1.2271
 6902TIP3    H142341   4.128   3.975   1.686  2.2827  1.3639  0.2664
 6902TIP3    H242342   4.151   4.065   1.567  1.2406  0.3800 -0.7027
 6903TIP3   OH242343   6.703   2.385   0.199  0.1003  0.3673  0.2342
 6903TIP3    H142344   6.752   2.437   0.134 -0.2572  1.1328  0.5663
 6903TIP3    H242345   6.755   2.306   0.210  1.0865  1.0053  0.3145
 6904TIP3   OH242346   3.845   5.799   0.302  0.5352 -0.3079 -0.4643
 6904TIP3    H142347   3.797   5.834   0.227  1.0278  0.6086 -0.3675
 6904TIP3    H242348   3.809   5.846   0.378  0.7436 -0.4877 -0.2504
 6905TIP3   OH242349   0.470   2.510   0.169  0.1003 -0.3262  0.3349
 6905TIP3    H142350   0.430   2.438   0.219 -1.8718 -0.6164 -1.5228
 6905TIP3    H242351   0.533   2.467   0.111  0.4746 -0.2933  0.7133
 6906TIP3   OH242352   3.515   6.742   1.604  0.3278  0.5749  0.1640
 6906TIP3    H142353   3.468   6.811   1.652  0.8831  0.7626  0.4422
 6906TIP3    H242354   3.577   6.707   1.667 -0.5661 -0.8241  0.3195
 6907TIP3   OH242355   6.234   5.234   1.626 -0.0645 -0.1543  0.3776
 6907TIP3    H142356   6.248   5.258   1.535 -0.7641 -1.2997 -0.0694
 6907TIP3    H242357   6.163   5.169   1.622  0.0435 -0.3799  1.7097
 6908TIP3   OH242358   0.268   5.964   0.204  0.3752 -0.3686  0.0770
 6908TIP3    H142359   0.191   5.917   0.173 -0.6914  0.1662  1.7527
 6908TIP3    H242360   0.277   6.038   0.144 -1.5488  0.5830  0.8762
 6909TIP3   OH242361   1.760   0.318   7.670 -0.2829 -0.3963  0.5205
 6909TIP3    H142362   1.666   0.325   7.660 -0.0266  1.3893 -1.2171
 6909TIP3    H242363   1.791   0.278   7.589  0.8085  3.4541 -1.1621
 6910TIP3   OH242364   6.838   6.816   0.855  0.4007  0.0259  0.1589
 6910TIP3    H142365   6.807   6.741   0.803 -0.8989  0.9585 -0.4613
 6910TIP3    H242366   6.898   6.862   0.796  0.5182 -0.0509  0.2196
 6911TIP3   OH242367   3.126   3.930   0.956 -0.2228  0.1725 -0.4218
 6911TIP3    H142368   3.165   4.016   0.947 -0.9598  0.4424 -1.3342
 6911TIP3    H242369   3.083   3.915   0.871 -0.0674 -1.1020 -0.2910
 6912TIP3   OH242370   1.107   1.691   7.668  0.4394  0.7031  0.6036
 6912TIP3    H142371   1.078   1.667   7.756  1.6937 -0.2177  0.7991
 6912TIP3    H242372   1.200   1.711   7.679 -0.0773  3.9048  0.0889
 6913TIP3   OH242373   0.416   3.628   6.912  0.4678  0.6186 -0.0571
 6913TIP3    H142374   0.325   3.656   6.924  0.9025  1.4747  1.4583
 6913TIP3    H242375   0.439   3.583   6.993  1.3607  0.2438 -0.4947
 6914TIP3   OH242376   1.222   1.537   7.389  0.9105  0.4905 -0.0451
 6914TIP3    H142377   1.171   1.612   7.420 -0.0868  0.1106 -0.6986
 6914TIP3    H242378   1.262   1.567   7.308  2.6235  1.1275  0.9888
 6915TIP3   OH242379   5.153   2.488   0.884  0.2963 -0.1799 -0.2959
 6915TIP3    H142380   5.178   2.509   0.793  0.4064 -1.2341 -0.5206
 6915TIP3    H242381   5.102   2.564   0.912 -0.3278 -0.1316 -1.4752
 6916TIP3   OH242382   3.702   0.375   0.230  0.3347 -0.1273  0.4634
 6916TIP3    H142383   3.770   0.308   0.227  0.7297  0.2741  0.4367
 6916TIP3    H242384   3.694   0.404   0.139  0.2560 -0.0426  0.4979
 6917TIP3   OH242385   5.480   0.594   7.382  0.7251 -0.1093 -0.0134
 6917TIP3    H142386   5.471   0.684   7.351 -1.8982  0.0130  0.8219
 6917TIP3    H242387   5.473   0.540   7.303  1.4608  0.3827 -0.4218
 6918TIP3   OH242388   5.433   0.864   7.309  0.0942 -0.1005 -0.0515
 6918TIP3    H142389   5.383   0.928   7.361 -0.0399 -0.5585  0.3899
 6918TIP3    H242390   5.469   0.915   7.237 -0.5249  0.3550 -0.0442
 6919TIP3   OH242391   3.301   0.004   7.699  0.1329 -0.0145 -0.1664
 6919TIP3    H142392   3.284  -0.080   7.657  0.2631 -0.4110  0.5595
 6919TIP3    H242393   3.392   0.023   7.679  0.2234 -0.2520  0.0130
 6920TIP3   OH242394   4.199   3.439   2.035  0.2941  0.0496 -0.0666
 6920TIP3    H142395   4.290   3.414   2.051 -0.0948 -0.2831  1.7826
 6920TIP3    H242396   4.182   3.510   2.096 -1.4167 -1.6063  1.4956
 6921TIP3   OH242397   1.623   5.565   0.898 -0.8578  0.4491 -0.1620
 6921TIP3    H142398   1.534   5.602   0.897 -0.5905  1.1305  0.3974
 6921TIP3    H242399   1.677   5.633   0.859 -0.8241 -0.7144 -2.3365
 6922TIP3   OH242400   3.319   0.318   0.008  0.6856  0.1152 -0.4448
 6922TIP3    H142401   3.281   0.232   0.026 -1.1148  0.5375 -1.9285
 6922TIP3    H242402   3.281   0.344  -0.076  1.8673  1.9940 -0.4607
 6923TIP3   OH242403   1.659   0.019   0.592  0.1224 -0.0330 -0.5232
 6923TIP3    H142404   1.751  -0.010   0.588  0.3511  0.7440 -1.1992
 6923TIP3    H242405   1.639   0.046   0.503 -0.9790 -0.7883 -0.5124
 6924TIP3   OH242406   4.594   1.427   7.898  0.2438 -0.0530 -0.0092
 6924TIP3    H142407   4.553   1.346   7.928 -1.3805  1.1834  1.3676
 6924TIP3    H242408   4.550   1.447   7.816 -0.6406  0.3122  0.5376
 6925TIP3   OH242409   2.597   0.684   1.124  0.2994  0.6289 -0.2151
 6925TIP3    H142410   2.543   0.725   1.057  0.2236 -2.5111 -2.3103
 6925TIP3    H242411   2.681   0.669   1.080  0.5266 -0.7665  0.6290
 6926TIP3   OH242412   5.580   2.905   8.008 -0.5124  0.1797 -0.4850
 6926TIP3    H142413   5.515   2.835   7.995 -0.5512  0.3933 -1.5671
 6926TIP3    H242414   5.584   2.917   8.103 -0.6915 -1.1168 -0.2870
 6927TIP3   OH242415   1.592   4.529   6.424  0.4175  0.0201  0.4770
 6927TIP3    H142416   1.520   4.496   6.371 -0.0884 -0.6837  1.5806
 6927TIP3    H242417   1.669   4.483   6.392  0.6719  1.7069 -1.5965
 6928TIP3   OH242418   1.316   2.882   2.072  0.1120  0.6530 -0.1901
 6928TIP3    H142419   1.352   2.816   2.131 -0.7574 -0.4253 -0.8284
 6928TIP3    H242420   1.221   2.873   2.081 -0.0412  0.5763 -1.5870
 6929TIP3   OH242421   3.006   6.183   0.559 -0.1400  0.0888 -0.1538
 6929TIP3    H142422   3.066   6.109   0.570  0.3966  0.7387  1.5904
 6929TIP3    H242423   2.946   6.177   0.633  0.3058  1.7364  0.3746
 6930TIP3   OH242424   1.335   4.207   2.173 -0.3037 -0.0921 -0.2539
 6930TIP3    H142425   1.389   4.234   2.099 -1.1815  0.0746 -0.8529
 6930TIP3    H242426   1.317   4.114   2.157 -0.6216 -0.0179 -0.3372
 6931TIP3   OH242427   1.066   1.568   2.061 -0.4041 -0.1183  0.5526
 6931TIP3    H142428   1.012   1.597   1.988  0.9127  0.4273 -0.2280
 6931TIP3    H242429   1.006   1.517   2.116 -2.2881  2.2462  0.8651
 6932TIP3   OH242430   1.458   3.867   7.155 -0.1855  0.3424 -0.4648
 6932TIP3    H142431   1.491   3.937   7.099 -0.5527  2.3094  1.6194
 6932TIP3    H242432   1.509   3.875   7.235 -1.3975 -0.6752  0.4442
 6933TIP3   OH242433   5.462   3.833   7.138 -0.3094 -0.0977 -0.0403
 6933TIP3    H142434   5.521   3.908   7.141  0.5805 -0.7100 -1.2850
 6933TIP3    H242435   5.410   3.846   7.058 -0.7239 -0.3792  0.1811
 6934TIP3   OH242436   3.649   3.523   1.169  0.7448 -0.2979 -0.9105
 6934TIP3    H142437   3.741   3.546   1.159  0.5323  0.3399 -1.4397
 6934TIP3    H242438   3.650   3.431   1.194  1.4191 -1.2440 -4.0392
 6935TIP3   OH242439   5.437   2.243   0.704  0.4358  0.0422 -0.3244
 6935TIP3    H142440   5.524   2.212   0.731  0.7861 -0.0091 -1.4794
 6935TIP3    H242441   5.386   2.163   0.693 -0.0485  0.1002  1.2089
 6936TIP3   OH242442   3.529   6.200   2.360  0.9193 -0.5865  0.1944
 6936TIP3    H142443   3.590   6.267   2.330  0.9137 -1.0527 -0.9268
 6936TIP3    H242444   3.582   6.143   2.416  1.3012 -0.5061 -0.0828
 6937TIP3   OH242445   0.215   0.228   1.956 -0.1067  0.0688  0.0326
 6937TIP3    H142446   0.156   0.281   1.903 -0.9388 -0.7762  0.0931
 6937TIP3    H242447   0.192   0.250   2.047 -1.6139 -1.5803  0.0953
 6938TIP3   OH242448   5.522   0.816   0.825  0.5516  0.2254 -0.1269
 6938TIP3    H142449   5.607   0.807   0.866  1.5016  2.0225 -1.5356
 6938TIP3    H242450   5.467   0.858   0.892  2.1439  3.3820 -0.6138
 6939TIP3   OH242451   5.460   4.111   8.464 -0.1446  0.0303  0.0167
 6939TIP3    H142452   5.432   4.105   8.373  2.3588 -0.3580 -0.7923
 6939TIP3    H242453   5.396   4.171   8.505 -2.0377 -0.7580 -1.6383
 6940TIP3   OH242454   1.669   4.775   2.223  0.4195 -0.1062 -0.2052
 6940TIP3    H142455   1.638   4.843   2.283  0.6187  0.1019 -0.3354
 6940TIP3    H242456   1.746   4.738   2.267  0.4060 -0.1382 -0.2086
 6941TIP3   OH242457   6.927   2.854   2.128  0.3137 -0.3597  0.1335
 6941TIP3    H142458   6.992   2.899   2.074  1.0101 -0.0266  1.2105
 6941TIP3    H242459   6.847   2.905   2.117 -0.0136 -1.2064 -1.7992
 6942TIP3   OH242460   2.173   3.500   6.545 -0.3538  0.2167  0.0366
 6942TIP3    H142461   2.234   3.553   6.493  0.4465 -3.7905 -3.7266
 6942TIP3    H242462   2.087   3.518   6.506 -0.2226 -0.4536 -0.5844
 6943TIP3   OH242463   1.065   6.732   7.009 -0.6996  0.6789  0.2380
 6943TIP3    H142464   1.022   6.818   7.010 -0.1651  0.9507  1.0135
 6943TIP3    H242465   1.098   6.723   6.920 -2.8417  0.2072 -0.5665
 6944TIP3   OH242466   4.735   1.971   0.898 -0.1765 -0.0489  0.5354
 6944TIP3    H142467   4.644   1.944   0.888  0.1928 -0.7057 -1.5408
 6944TIP3    H242468   4.731   2.065   0.911 -1.1205  0.1221 -0.7947
 6945TIP3   OH242469   4.419   2.359   0.337  0.4895 -0.0724 -0.0580
 6945TIP3    H142470   4.360   2.301   0.385  0.9286 -1.2532 -0.9007
 6945TIP3    H242471   4.502   2.310   0.332  0.1935 -0.4450 -2.8179
 6946TIP3   OH242472   5.733   4.287   8.287  0.1981  0.0614 -0.1195
 6946TIP3    H142473   5.705   4.346   8.357  1.2194 -0.1493  0.4846
 6946TIP3    H242474   5.766   4.209   8.332 -1.0753 -0.9828 -0.8980
 6947TIP3   OH242475   5.051   5.861   7.036 -0.8843 -0.4115  0.1848
 6947TIP3    H142476   5.016   5.829   6.953 -0.7737  0.0388 -0.0399
 6947TIP3    H242477   4.979   5.852   7.098 -0.3246 -2.7867  0.5812
 6948TIP3   OH242478   0.123   5.081   0.911 -0.1727 -0.0304  0.2015
 6948TIP3    H142479   0.041   5.117   0.876  0.7145 -0.1717 -2.2297
 6948TIP3    H242480   0.168   5.157   0.947  0.6011  1.0112 -2.6666
 6949TIP3   OH242481   5.278   5.423   8.449 -0.1181 -0.5708  0.1251
 6949TIP3    H142482   5.224   5.379   8.515  0.9228 -1.2818  0.5194
 6949TIP3    H242483   5.334   5.355   8.414  0.0915  0.0271 -0.7435
 6950TIP3   OH242484   5.391   4.699   6.531  0.0407 -0.4123 -0.0178
 6950TIP3    H142485   5.300   4.709   6.502 -0.0177 -2.3209 -0.6035
 6950TIP3    H242486   5.443   4.718   6.453  0.1563  0.4892  0.2678
 6951TIP3   OH242487   6.022   4.177   0.297  0.0542  0.1428 -0.7878
 6951TIP3    H142488   6.050   4.096   0.340  0.0967  1.0277  0.9377
 6951TIP3    H242489   5.958   4.149   0.231  0.5161 -1.3304 -0.6414
 6952TIP3   OH242490   2.585   4.631   6.679 -0.1449  0.4426 -0.2932
 6952TIP3    H142491   2.583   4.538   6.702  1.1559  0.7868  1.4303
 6952TIP3    H242492   2.539   4.636   6.596 -0.9052 -1.6342 -0.0611
 6953TIP3   OH242493   2.881   4.194   7.609 -0.3514  0.2798  0.1296
 6953TIP3    H142494   2.951   4.131   7.590  1.0701  1.7306  0.3652
 6953TIP3    H242495   2.848   4.168   7.695  0.7684  0.3123  0.5852
 6954TIP3   OH242496   3.571   4.670   0.481  0.3106 -0.0117  0.7205
 6954TIP3    H142497   3.476   4.657   0.487  0.1447  1.5739  1.8407
 6954TIP3    H242498   3.608   4.601   0.536 -0.2840  0.4227  1.6897
 6955TIP3   OH242499   0.006   0.422   1.117 -0.5543 -0.3464 -0.4016
 6955TIP3    H142500  -0.085   0.419   1.088 -0.9386 -2.4590  0.8234
 6955TIP3    H242501   0.056   0.390   1.042 -0.8329  0.4400 -0.9397
 6956TIP3   OH242502   1.673   1.508   1.266 -0.1748 -0.4847 -0.3323
 6956TIP3    H142503   1.644   1.595   1.293  1.8341  0.5375 -1.2927
 6956TIP3    H242504   1.709   1.469   1.346 -1.5993 -0.6995  0.2313
 6957TIP3   OH242505   0.201   0.954   1.502 -0.3882  0.0229  0.3745
 6957TIP3    H142506   0.154   0.930   1.581 -0.1255  1.5573  1.0153
 6957TIP3    H242507   0.162   1.036   1.474  1.5390  1.1035  0.6579
 6958TIP3   OH242508   4.663   6.508   8.503 -0.2986  0.3294 -0.0979
 6958TIP3    H142509   4.578   6.546   8.524 -0.3474  0.1468  0.0458
 6958TIP3    H242510   4.664   6.424   8.551  0.2766  0.6885  0.5448
 6959TIP3   OH242511   3.670   3.914   0.222  0.5198  0.0483  0.2692
 6959TIP3    H142512   3.582   3.926   0.257  0.1190 -0.9087 -0.3721
 6959TIP3    H242513   3.727   3.962   0.283 -0.3489 -0.0282  1.1641
 6960TIP3   OH242514   0.829   5.169   0.148 -0.1441  0.2034  0.1689
 6960TIP3    H142515   0.855   5.185   0.058  0.3566  0.2591  0.3171
 6960TIP3    H242516   0.860   5.081   0.167 -0.1198  0.2447  0.3278
 6961TIP3   OH242517   4.502   3.785   6.316 -0.3779  0.5246  0.2221
 6961TIP3    H142518   4.509   3.810   6.224  0.4234  0.0253  0.1323
 6961TIP3    H242519   4.573   3.834   6.359 -1.9203  2.2372  0.9339
 6962TIP3   OH242520   4.896   6.222   6.425  0.4501 -0.2245  0.2841
 6962TIP3    H142521   4.846   6.284   6.370  0.4851  2.2349  2.7885
 6962TIP3    H242522   4.829   6.177   6.476  0.5707 -0.3896  0.2965
 6963TIP3   OH242523   4.513   4.254   0.095  0.1684 -0.5354  0.1998
 6963TIP3    H142524   4.421   4.278   0.108  0.1595 -1.7173  3.1907
 6963TIP3    H242525   4.511   4.186   0.028 -1.0886 -0.3479  0.0161
 6964TIP3   OH242526   5.155   5.630   6.588  0.5628 -0.4910  0.0186
 6964TIP3    H142527   5.247   5.623   6.614  0.6769 -0.6168 -0.4130
 6964TIP3    H242528   5.157   5.679   6.506  0.1894  0.0586  0.3294
 6965TIP3   OH242529   2.313   6.902   2.618 -0.8421 -0.0729  0.0265
 6965TIP3    H142530   2.323   6.854   2.700 -0.3555 -2.3596 -1.2969
 6965TIP3    H242531   2.261   6.844   2.562 -0.4694  1.0568 -1.5689
 6966TIP3   OH242532   6.428   4.884   0.160  0.1097 -0.2956  0.2956
 6966TIP3    H142533   6.414   4.932   0.078  1.0566  0.5537  0.6033
 6966TIP3    H242534   6.342   4.848   0.182 -0.1873 -0.4174 -0.9947
 6967TIP3   OH242535   1.636   1.391   7.912 -0.0311 -0.1128 -0.1480
 6967TIP3    H142536   1.635   1.472   7.861 -0.4403  0.1348  0.2434
 6967TIP3    H242537   1.717   1.347   7.887 -0.2367 -0.0006 -1.0165
 6968TIP3   OH242538   3.346   0.126   1.514  0.2351  0.6727  0.3721
 6968TIP3    H142539   3.264   0.079   1.501  0.1035  1.1141 -0.4787
 6968TIP3    H242540   3.402   0.064   1.559 -0.7395  0.5468  1.4562
 6969TIP3   OH242541   5.551   6.820   1.972 -0.1328  0.0226  0.6271
 6969TIP3    H142542   5.614   6.806   1.902  2.8725  0.9764  2.9562
 6969TIP3    H242543   5.597   6.795   2.052 -1.1587  4.4717  2.9353
 6970TIP3   OH242544   4.369   3.151   7.857  0.3603  0.8048  0.0076
 6970TIP3    H142545   4.291   3.203   7.878 -0.2428 -0.3304  0.6379
 6970TIP3    H242546   4.438   3.217   7.843  0.0850  1.7876  2.5964
 6971TIP3   OH242547   5.105   6.450   6.465 -0.2064  0.2142  0.2064
 6971TIP3    H142548   5.040   6.429   6.398  0.1368  1.2362 -0.4543
 6971TIP3    H242549   5.177   6.389   6.449 -0.9948 -0.9775  0.9861
 6972TIP3   OH242550   0.755   0.128   7.423 -0.7375 -0.4210  0.5966
 6972TIP3    H142551   0.766   0.072   7.500 -0.0222 -0.3921  0.5270
 6972TIP3    H242552   0.839   0.175   7.416 -0.1144 -1.6940 -1.1894
 6973TIP3   OH242553   1.221   5.135   7.814 -0.1078 -0.0111 -0.0797
 6973TIP3    H142554   1.138   5.138   7.862 -0.8610 -0.6744 -1.2913
 6973TIP3    H242555   1.197   5.108   7.725  0.9514  3.1725 -1.4865
 6974TIP3   OH242556   2.585   5.774   7.903 -0.0446 -0.2867  0.0349
 6974TIP3    H142557   2.538   5.754   7.983  0.4438 -0.4194  0.2907
 6974TIP3    H242558   2.527   5.832   7.854  0.8213  2.1872  1.7649
 6975TIP3   OH242559   0.426   0.824   1.694 -0.5626  0.7944  0.4985
 6975TIP3    H142560   0.499   0.840   1.634 -0.1790  1.2496  1.0742
 6975TIP3    H242561   0.460   0.760   1.756 -1.0076  0.2138  0.1578
 6976TIP3   OH242562   3.266   1.382   1.953 -0.9800 -0.0518 -0.0449
 6976TIP3    H142563   3.353   1.345   1.934 -0.0851  1.3794  1.0361
 6976TIP3    H242564   3.217   1.309   1.991  0.1127 -0.6119  0.3324
 6977TIP3   OH242565   5.561   1.681   7.205  0.4151 -0.4530 -0.1616
 6977TIP3    H142566   5.585   1.647   7.291  1.1799  2.5112  0.9098
 6977TIP3    H242567   5.471   1.712   7.216 -0.4381 -2.3428 -1.2497
 6978TIP3   OH242568   2.280   3.372   0.108  0.0035  0.2321 -0.4726
 6978TIP3    H142569   2.253   3.281   0.110  0.0247  0.2234 -0.5792
 6978TIP3    H242570   2.329   3.385   0.189  0.1325  0.1069 -0.5299
 6979TIP3   OH242571   2.537   5.476   1.143  0.3719 -0.2645 -0.1380
 6979TIP3    H142572   2.605   5.526   1.187  0.9367 -3.0346  2.4738
 6979TIP3    H242573   2.583   5.427   1.074  0.3306  0.5420 -0.7515
 6980TIP3   OH242574   4.723   1.556   0.661 -0.0593 -0.1203 -0.7148
 6980TIP3    H142575   4.818   1.544   0.654  0.5155  1.6425  2.3710
 6980TIP3    H242576   4.694   1.482   0.714  0.4689  1.5967  2.2264
 6981TIP3   OH242577   3.031   0.485   1.528  0.0729  0.1000  0.0053
 6981TIP3    H142578   3.076   0.560   1.566 -0.2220  1.0679 -1.4880
 6981TIP3    H242579   3.072   0.409   1.570  2.2218  0.9773 -0.3705
 6982TIP3   OH242580   1.523   4.918   8.246 -0.3025  0.2773  0.1172
 6982TIP3    H142581   1.499   4.871   8.326  0.1901  1.1502  0.8039
 6982TIP3    H242582   1.503   4.857   8.175  0.1791 -0.9077  0.9597
 6983TIP3   OH242583   0.097   4.632   0.833 -0.3473  0.2344  0.3064
 6983TIP3    H142584   0.088   4.612   0.740  1.1287  1.1540 -0.0545
 6983TIP3    H242585   0.123   4.549   0.873  1.0538  0.2793 -0.4432
 6984TIP3   OH242586   1.046   4.170   7.600  0.6727  0.3072 -0.6158
 6984TIP3    H142587   0.978   4.234   7.580  1.0336  1.7028  2.2214
 6984TIP3    H242588   1.120   4.222   7.632  1.7772 -1.3856 -0.2939
 6985TIP3   OH242589   6.206   6.171   0.284  0.2303 -0.3333 -0.2393
 6985TIP3    H142590   6.206   6.136   0.195  0.3118 -0.6538 -0.1159
 6985TIP3    H242591   6.114   6.185   0.305  0.1607 -0.9835 -0.0939
 6986TIP3   OH242592   2.469   5.645   0.541  0.2971 -0.5333  0.5749
 6986TIP3    H142593   2.508   5.575   0.591 -2.2470 -2.3194  0.2488
 6986TIP3    H242594   2.493   5.725   0.588 -0.4095 -1.9546  3.5805
 6987TIP3   OH242595   4.263   6.469   7.434 -0.2522  0.0009 -0.0152
 6987TIP3    H142596   4.275   6.498   7.525 -0.3062  2.5225 -0.7336
 6987TIP3    H242597   4.346   6.491   7.391 -0.8826  0.5956 -0.9770
 6988TIP3   OH242598   3.009   4.160   8.147  0.4897  0.6616  0.1490
 6988TIP3    H142599   3.065   4.104   8.093  2.3836  1.6194  1.0097
 6988TIP3    H242600   3.032   4.138   8.237 -0.0381  1.5377  0.5106
 6989TIP3   OH242601   4.275   4.266   2.017  0.4200 -0.2698  0.0254
 6989TIP3    H142602   4.339   4.245   2.085 -0.1373 -0.1444  0.6025
 6989TIP3    H242603   4.314   4.235   1.936  1.7897  0.9523  0.1864
 6990TIP3   OH242604   4.825   2.819   6.903  0.0209 -0.3272  0.2484
 6990TIP3    H142605   4.819   2.904   6.946  0.9242 -0.2207  0.1793
 6990TIP3    H242606   4.903   2.824   6.849 -1.4125 -0.2303 -1.9618
 6991TIP3   OH242607   5.957   1.947   6.187  0.1155  0.2826 -0.1583
 6991TIP3    H142608   5.985   2.037   6.168 -0.5748  0.5471  0.0470
 6991TIP3    H242609   5.934   1.949   6.280 -0.4767  0.0482 -0.2988
 6992TIP3   OH242610   1.942   6.094   6.635  0.4929  0.0053 -0.2845
 6992TIP3    H142611   1.864   6.126   6.590 -0.2352  1.0348  1.6345
 6992TIP3    H242612   1.956   6.007   6.598  0.7596  1.2462 -3.4574
 6993TIP3   OH242613   0.918   0.368   6.839  0.4072  0.7626 -0.0706
 6993TIP3    H142614   0.983   0.353   6.908  0.5936  0.7165 -0.2563
 6993TIP3    H242615   0.855   0.428   6.879  0.2090  0.2896  0.3307
 6994TIP3   OH242616   2.473   1.491   8.505  0.5309 -0.8602 -0.0268
 6994TIP3    H142617   2.481   1.461   8.414  2.5423  0.9265 -0.4997
 6994TIP3    H242618   2.547   1.452   8.550  0.2698 -0.6957  0.5540
 6995TIP3   OH242619   0.083   2.404   8.510 -0.4113 -0.0002 -0.0046
 6995TIP3    H142620  -0.005   2.441   8.516  0.2810  1.6924  0.4158
 6995TIP3    H242621   0.108   2.385   8.600  0.0516  0.5886  0.0023
 6996TIP3   OH242622   5.633   4.494   0.816 -0.3990 -0.3884 -0.0013
 6996TIP3    H142623   5.666   4.570   0.864 -3.2381  1.0897 -0.1963
 6996TIP3    H242624   5.701   4.475   0.752  1.8838 -0.1783  2.2219
 6997TIP3   OH242625   0.209   3.561   8.299 -0.3630 -0.1925  0.2200
 6997TIP3    H142626   0.187   3.513   8.378 -3.0909  0.3357 -0.1449
 6997TIP3    H242627   0.157   3.641   8.303  3.1387  2.3211  0.2169
 6998TIP3   OH242628   2.125   2.743   7.967  0.1824  0.1497  0.3519
 6998TIP3    H142629   2.128   2.709   8.057  0.7504 -1.7764 -0.3456
 6998TIP3    H242630   2.121   2.664   7.912  1.1622  1.2472 -1.3679
 6999TIP3   OH242631   4.234   1.470   7.631 -0.1994 -0.6374  0.2535
 6999TIP3    H142632   4.215   1.486   7.723 -0.7012  1.0202 -0.0902
 6999TIP3    H242633   4.162   1.513   7.585  1.4181  0.9441 -0.9654
 7000TIP3   OH242634   2.536   2.732   7.279 -0.2689  0.0042 -0.0529
 7000TIP3    H142635   2.619   2.776   7.261 -1.2667  3.2029  2.3333
 7000TIP3    H242636   2.469   2.793   7.248 -1.7964 -1.6441 -0.1506
 7001TIP3   OH242637   4.373   6.745   0.048 -0.2479 -0.2161 -0.0698
 7001TIP3    H142638   4.332   6.824   0.014  0.6949  0.9176  1.3407
 7001TIP3    H242639   4.446   6.728  -0.012 -0.6119 -0.1969 -0.5266
 7002TIP3   OH242640   3.466   5.557   1.004 -0.5254 -0.3251 -0.0775
 7002TIP3    H142641   3.502   5.632   1.052 -1.1026 -0.2703  0.2766
 7002TIP3    H242642   3.541   5.521   0.958  0.3649 -1.2115  1.9384
 7003TIP3   OH242643   3.718   0.773   7.917 -0.0481  0.1637 -0.0362
 7003TIP3    H142644   3.786   0.726   7.870 -0.8747 -0.2351 -0.8754
 7003TIP3    H242645   3.644   0.776   7.856 -0.6706  0.8803  0.7180
 7004TIP3   OH242646   5.783   0.658   7.841 -0.3687 -0.2505  0.2853
 7004TIP3    H142647   5.780   0.576   7.890  0.5552 -1.5789 -1.7488
 7004TIP3    H242648   5.876   0.681   7.838 -0.4983  0.2488 -0.1491
 7005TIP3   OH242649   2.731   2.057   0.606 -0.1843 -0.0174  0.4279
 7005TIP3    H142650   2.817   2.062   0.647 -1.4859  0.4754  3.3568
 7005TIP3    H242651   2.694   1.975   0.637  0.0221 -1.4254 -2.7171
 7006TIP3   OH242652   5.764   2.130   8.487 -0.4754  0.0518  0.5415
 7006TIP3    H142653   5.714   2.070   8.431  0.1403 -0.2484  0.3023
 7006TIP3    H242654   5.762   2.214   8.441  0.5757 -0.3464 -0.2843
 7007TIP3   OH242655   3.966   2.727   1.847 -0.3747  0.2093  0.0137
 7007TIP3    H142656   3.904   2.656   1.833 -0.8105  0.7551 -0.9752
 7007TIP3    H242657   3.915   2.807   1.834  0.1831  0.7046  0.7633
 7008TIP3   OH242658   3.084   0.380   1.268 -0.4506 -0.1416  0.4889
 7008TIP3    H142659   3.037   0.412   1.345 -0.0044  0.2109  0.6177
 7008TIP3    H242660   3.063   0.287   1.264 -1.7759  0.1505  0.1017
 7009TIP3   OH242661   3.844   6.173   0.355 -0.3066  0.1027 -0.5039
 7009TIP3    H142662   3.756   6.182   0.318 -0.6362  0.2828  0.2927
 7009TIP3    H242663   3.889   6.115   0.295 -0.6257  0.8578 -1.5149
 7010TIP3   OH242664   6.591   5.276   7.003 -0.4103  0.2520  0.0280
 7010TIP3    H142665   6.631   5.203   6.956 -0.4349  0.5781 -0.5071
 7010TIP3    H242666   6.554   5.331   6.934  0.7373  1.4419  0.3470
 7011TIP3   OH242667   1.632   5.837   7.305 -0.0321 -0.1920  0.1732
 7011TIP3    H142668   1.659   5.746   7.292  1.6926  0.3073  0.0598
 7011TIP3    H242669   1.635   5.849   7.400 -0.2703 -0.2525  0.1889
 7012TIP3   OH242670   0.248   3.000   7.879  0.0752 -0.7572  0.3984
 7012TIP3    H142671   0.314   3.009   7.947  0.0675  1.6986  0.1529
 7012TIP3    H242672   0.265   2.913   7.841  1.8367 -1.0285  1.6790
 7013TIP3   OH242673   1.928   2.902   1.415 -0.4870 -0.1899 -0.6435
 7013TIP3    H142674   1.839   2.879   1.390 -0.9809  0.6255  0.2900
 7013TIP3    H242675   1.918   2.950   1.497  0.8386 -0.3520 -0.3659
 7014TIP3   OH242676   3.481   3.655   0.398 -0.2794  0.0177 -0.4933
 7014TIP3    H142677   3.438   3.683   0.479  2.9094 -0.2026  1.4680
 7014TIP3    H242678   3.465   3.726   0.336 -2.3494  0.4519  0.4459
 7015TIP3   OH242679   1.043   4.748   8.317  0.1162 -0.5688  0.0100
 7015TIP3    H142680   1.033   4.757   8.222 -0.0585 -1.7485 -0.0994
 7015TIP3    H242681   1.074   4.834   8.346 -0.4598  0.0099 -1.0210
 7016TIP3   OH242682   4.516   3.891   0.238 -0.6481  0.1166 -0.9894
 7016TIP3    H142683   4.540   3.812   0.190 -0.2223  0.1289 -0.8012
 7016TIP3    H242684   4.527   3.867   0.330  1.5932  1.0384 -0.9557
 7017TIP3   OH242685   5.123   2.505   0.467 -0.0225 -0.3701  0.2986
 7017TIP3    H142686   5.190   2.534   0.528 -0.5117  0.0224  0.6644
 7017TIP3    H242687   5.131   2.409   0.466  2.0063 -0.2290 -1.3936
 7018TIP3   OH242688   0.056   3.762   7.700  0.0732 -0.7457  0.4648
 7018TIP3    H142689   0.087   3.838   7.749  0.6733 -0.9905  0.4674
 7018TIP3    H242690   0.045   3.794   7.610 -1.9922 -0.0246  0.9120
 7019TIP3   OH242691   5.362   5.233   7.536 -0.0936 -0.6956 -0.3341
 7019TIP3    H142692   5.321   5.185   7.607 -2.5386 -1.1440 -1.9234
 7019TIP3    H242693   5.334   5.323   7.548  0.2037 -0.6121 -0.2562
 7020TIP3   OH242694   1.945   5.189   8.261  0.0189 -0.4025  0.6383
 7020TIP3    H142695   2.035   5.186   8.230 -0.7498 -0.2602 -1.7953
 7020TIP3    H242696   1.914   5.099   8.256 -0.8306 -0.0580 -1.4869
 7021TIP3   OH242697   1.894   0.159   6.954  1.1214 -0.6628 -0.1700
 7021TIP3    H142698   1.853   0.222   7.013  0.1603 -0.7503 -0.7304
 7021TIP3    H242699   1.985   0.189   6.946  1.1965 -0.4884  1.1132
 7022TIP3   OH242700   1.044   3.875   0.575 -0.5680  0.5954  0.4975
 7022TIP3    H142701   1.036   3.969   0.561 -1.0758  0.7179  1.5531
 7022TIP3    H242702   1.135   3.862   0.601  0.3261  0.4065 -2.3088
 7023TIP3   OH242703   0.429   4.422   2.483 -0.3464  0.1401 -0.1146
 7023TIP3    H142704   0.363   4.395   2.419 -0.9566  1.5698 -0.1250
 7023TIP3    H242705   0.494   4.470   2.432 -1.2159  1.9517  0.3713
 7024TIP3   OH242706   5.830   6.425   1.114 -0.5272  0.0462 -0.0591
 7024TIP3    H142707   5.790   6.407   1.199 -0.0759 -0.0595  0.1359
 7024TIP3    H242708   5.778   6.496   1.077 -1.2268 -0.4518 -0.0501
 7025TIP3   OH242709   5.851   1.142   8.200 -0.0691  0.7831 -0.1390
 7025TIP3    H142710   5.812   1.100   8.277 -0.9957  0.3941 -0.8082
 7025TIP3    H242711   5.777   1.159   8.141  0.9416 -2.2299 -2.5488
 7026TIP3   OH242712   4.729   5.891   6.614  0.4900 -0.0216 -0.2870
 7026TIP3    H142713   4.795   5.879   6.683  0.6913 -1.6898 -0.7285
 7026TIP3    H242714   4.714   5.985   6.612  1.5343  0.2126  1.0590
 7027TIP3   OH242715   6.064   3.366   7.290 -0.1651 -0.2448 -0.0095
 7027TIP3    H142716   6.094   3.284   7.250 -0.4367 -1.4078  2.0243
 7027TIP3    H242717   5.973   3.349   7.314 -0.7689  1.2904 -1.0988
 7028TIP3   OH242718   2.367   1.427   8.191  0.3806  0.7845 -0.1472
 7028TIP3    H142719   2.288   1.432   8.246 -0.4446  2.6725 -1.3724
 7028TIP3    H242720   2.388   1.519   8.172  2.2439  0.2682 -0.7657
 7029TIP3   OH242721   3.702   2.068   1.579  0.1309 -0.2604  0.1155
 7029TIP3    H142722   3.656   2.131   1.635 -1.7802 -1.9383  0.5957
 7029TIP3    H242723   3.639   1.996   1.568  1.3078 -1.0299 -2.3429
 7030TIP3   OH242724   0.043   5.877   8.521  0.6302  0.2683 -0.3706
 7030TIP3    H142725  -0.037   5.833   8.550  1.4101 -0.6355  0.4595
 7030TIP3    H242726   0.023   5.970   8.530  0.5920  0.0707  2.5966
 7031TIP3   OH242727   3.966   6.139   8.015 -0.6994 -0.4882  0.5821
 7031TIP3    H142728   3.907   6.211   7.993  0.6453  0.5074  0.0793
 7031TIP3    H242729   4.049   6.182   8.035 -0.0137 -1.8728  0.8167
 7032TIP3   OH242730   0.368   5.748   6.788 -0.1957 -0.1293  0.0891
 7032TIP3    H142731   0.364   5.713   6.699 -0.8627 -2.3629  0.9218
 7032TIP3    H242732   0.320   5.684   6.840 -1.5764  2.1176  1.7781
 7033TIP3   OH242733   6.292   5.211   8.109 -0.6697  0.3052 -0.1852
 7033TIP3    H142734   6.197   5.206   8.105 -0.8017  1.2743  1.0219
 7033TIP3    H242735   6.315   5.166   8.190 -0.3114  1.8599  0.6209
 7034TIP3   OH242736   3.881   1.352   1.758 -0.0446  0.7367 -0.3350
 7034TIP3    H142737   3.822   1.282   1.730 -0.6312  0.7001  0.9115
 7034TIP3    H242738   3.823   1.422   1.789  0.5466  1.5028 -0.9368
 7035TIP3   OH242739   3.310   1.090   6.458 -0.1241 -0.1074  0.1748
 7035TIP3    H142740   3.396   1.118   6.428 -0.7231  0.0853 -1.4787
 7035TIP3    H242741   3.281   1.162   6.515  0.1278  0.6294 -0.6010
 7036TIP3   OH242742   5.658   6.052   7.554 -0.3737 -0.6298 -0.5593
 7036TIP3    H142743   5.631   6.074   7.643  0.0933 -1.9597 -0.0659
 7036TIP3    H242744   5.633   5.961   7.543 -1.1205 -0.2781 -2.0853
 7037TIP3   OH242745   4.623   3.040   1.579  0.1575 -0.7597 -0.1984
 7037TIP3    H142746   4.620   3.072   1.669 -1.4066 -0.7062 -0.2435
 7037TIP3    H242747   4.657   2.951   1.586  0.3432 -0.6448  0.4081
 7038TIP3   OH242748   2.268   1.161   7.795  0.0911 -0.1628  0.0314
 7038TIP3    H142749   2.301   1.083   7.752  0.9635 -0.1223  0.5846
 7038TIP3    H242750   2.247   1.132   7.884 -1.5827 -0.2256 -0.3585
 7039TIP3   OH242751   0.063   5.956   0.874  0.2166 -0.6679 -0.0224
 7039TIP3    H142752   0.047   5.873   0.918  0.0660  0.3001  1.8464
 7039TIP3    H242753   0.157   5.958   0.859  0.3764 -0.7145  0.9290
 7040TIP3   OH242754   5.853   0.012   7.387 -0.2487  0.1060 -0.1088
 7040TIP3    H142755   5.845   0.032   7.294  1.0741 -0.4011 -0.3531
 7040TIP3    H242756   5.917  -0.059   7.391  2.3728  2.2968  1.3611
 7041TIP3   OH242757   0.377   2.286   0.294  0.3810  0.3227  0.1920
 7041TIP3    H142758   0.282   2.299   0.287  0.5196  1.8663  0.6119
 7041TIP3    H242759   0.387   2.197   0.327 -1.1050  1.2131  3.4736
 7042TIP3   OH242760   0.834   0.940   6.963  0.0730  0.3390 -0.1263
 7042TIP3    H142761   0.891   0.987   7.023 -0.4909  1.6559 -0.5770
 7042TIP3    H242762   0.870   0.960   6.876  1.3900 -2.2181 -0.2476
 7043TIP3   OH242763   6.386   3.007   7.458 -0.0806 -0.0100  0.7284
 7043TIP3    H142764   6.371   2.916   7.433 -0.3230 -0.1136  1.2537
 7043TIP3    H242765   6.303   3.037   7.495 -0.3925  0.8013 -0.5386
 7044TIP3   OH242766   1.061   4.311   6.820 -0.2983 -0.6138  0.0232
 7044TIP3    H142767   0.984   4.348   6.862  0.4583  1.6870 -0.4264
 7044TIP3    H242768   1.132   4.372   6.842  0.9214 -1.4619 -1.3371
 7045TIP3   OH242769   6.010   1.336   2.226 -0.3075  0.7464 -0.2812
 7045TIP3    H142770   5.929   1.385   2.208 -2.1649 -1.4721  1.2874
 7045TIP3    H242771   6.045   1.378   2.305 -0.9052  0.6817  0.0320
 7046TIP3   OH242772   4.249   5.993   2.415  0.1991 -0.2685 -0.3848
 7046TIP3    H142773   4.196   5.986   2.336  0.8536 -0.0494 -0.8441
 7046TIP3    H242774   4.212   5.927   2.474  1.1890 -2.0996 -1.7299
 7047TIP3   OH242775   3.152   0.964   6.702 -0.4571  0.0572  0.1998
 7047TIP3    H142776   3.058   0.957   6.719 -0.4310  2.2278  1.6423
 7047TIP3    H242777   3.166   1.054   6.674  1.5237  0.7005  2.8361
 7048TIP3   OH242778   3.623   5.430   0.433  0.0244  0.2347  0.7267
 7048TIP3    H142779   3.551   5.386   0.479  0.4250 -0.7445  0.4356
 7048TIP3    H242780   3.629   5.515   0.476 -2.2248  0.9095 -0.1506
 7049TIP3   OH242781   3.290   4.153   0.615 -0.2050 -0.3755  0.0435
 7049TIP3    H142782   3.261   4.175   0.704 -1.2361 -0.3037 -0.2980
 7049TIP3    H242783   3.332   4.068   0.625 -1.0964 -0.7910  0.4762
 7050TIP3   OH242784   2.730   4.050   1.224 -0.0265  0.0336 -0.4204
 7050TIP3    H142785   2.805   4.105   1.198  0.6556  0.0616  1.4475
 7050TIP3    H242786   2.654   4.098   1.192  0.6287  1.3191 -0.1553
 7051TIP3   OH242787   2.608   5.229   0.531 -0.1432 -0.0904 -0.1619
 7051TIP3    H142788   2.668   5.158   0.554  0.2803 -0.3253 -1.8812
 7051TIP3    H242789   2.634   5.256   0.443 -1.8735  0.5445 -0.5313
 7052TIP3   OH242790   0.983   0.097   1.766 -0.9351 -0.7952 -0.0618
 7052TIP3    H142791   0.918   0.047   1.816 -0.0716 -3.4431 -1.4181
 7052TIP3    H242792   1.060   0.100   1.823 -1.9444  1.9968  1.3760
 7053TIP3   OH242793   2.152   6.229   8.351  0.3173 -0.0589 -0.1101
 7053TIP3    H142794   2.245   6.217   8.370  0.8647  0.7233 -2.0915
 7053TIP3    H242795   2.149   6.251   8.258 -1.7340  1.2777  0.2083
 7054TIP3   OH242796   2.537   2.052   6.242 -0.2392  0.0228 -0.2310
 7054TIP3    H142797   2.628   2.078   6.228 -0.1611 -0.0061  0.2074
 7054TIP3    H242798   2.539   1.956   6.248 -0.3495 -0.0022 -0.5841
 7055TIP3   OH242799   3.580   0.354   7.795 -0.4408  0.6494  0.4447
 7055TIP3    H142800   3.662   0.309   7.818 -1.0302 -0.4542  0.4685
 7055TIP3    H242801   3.607   0.423   7.734  0.5247  0.4046  0.5739
 7056TIP3   OH242802   6.711   4.744   0.754 -0.0674  0.1941  0.2341
 7056TIP3    H142803   6.701   4.834   0.786  1.1486  0.3492  0.2408
 7056TIP3    H242804   6.768   4.702   0.819  1.1149  0.0460 -0.8462
 7057TIP3   OH242805   3.921   6.534   1.383 -0.2021 -0.1664 -0.0917
 7057TIP3    H142806   3.834   6.569   1.399  1.1389  2.6940  1.8377
 7057TIP3    H242807   3.923   6.451   1.430 -2.3834 -1.2899 -1.7720
 7058TIP3   OH242808   1.045   3.308   7.321  0.3978 -0.5957 -0.4519
 7058TIP3    H142809   1.125   3.355   7.299  1.4310 -2.2433 -0.4264
 7058TIP3    H242810   1.058   3.221   7.283 -1.4604 -0.8584 -0.5783
 7059TIP3   OH242811   3.065   2.749   8.379  0.0396 -0.2012  0.1614
 7059TIP3    H142812   3.061   2.817   8.313 -0.7591  1.1420  1.5128
 7059TIP3    H242813   3.146   2.766   8.427 -1.3834  1.5107  2.1459
 7060TIP3   OH242814   5.015   5.914   0.585  0.3353  0.0185  0.0586
 7060TIP3    H142815   4.973   5.880   0.506  0.8465 -0.7414  0.1046
 7060TIP3    H242816   4.953   5.894   0.655 -0.3986  1.2398 -0.2129
 7061TIP3   OH242817   0.727   6.037   8.072  0.4954 -0.7686 -0.0053
 7061TIP3    H142818   0.812   6.020   8.030  0.7293  0.8172 -0.2578
 7061TIP3    H242819   0.672   6.072   8.002 -0.3047 -1.5513  0.2176
 7062TIP3   OH242820   3.784   2.096   7.646 -0.1667  0.7966  0.1386
 7062TIP3    H142821   3.721   2.149   7.695  0.7242  2.5231 -0.5015
 7062TIP3    H242822   3.819   2.155   7.580 -0.6527 -1.1837 -2.0510
 7063TIP3   OH242823   6.316   5.705   0.102 -0.2737  0.4996 -0.2939
 7063TIP3    H142824   6.394   5.746   0.139 -0.3753  0.9337 -0.5503
 7063TIP3    H242825   6.341   5.683   0.012 -0.5531  0.9657 -0.4926
 7064TIP3   OH242826   2.261   6.282   1.190  1.0548  0.6853  0.8070
 7064TIP3    H142827   2.183   6.322   1.228  0.4196 -0.8619  1.2399
 7064TIP3    H242828   2.306   6.353   1.145 -0.4890  1.6635  0.7373
 7065TIP3   OH242829   4.792   5.500   0.564 -0.1176 -0.1456 -0.3290
 7065TIP3    H142830   4.782   5.405   0.571 -3.0823  0.1720  1.6336
 7065TIP3    H242831   4.884   5.517   0.586 -0.0589 -2.4159  1.5087
 7066TIP3   OH242832   4.328   0.722   7.953  0.0890  0.0853 -0.6142
 7066TIP3    H142833   4.414   0.722   7.910  0.2518  3.4144 -0.5335
 7066TIP3    H242834   4.323   0.807   7.997 -1.2531 -1.9400  3.6700
 7067TIP3   OH242835   1.308   4.313   7.070 -0.1408 -0.2239  0.3302
 7067TIP3    H142836   1.266   4.377   7.126 -0.0766 -0.4875  0.6804
 7067TIP3    H242837   1.346   4.365   6.999 -0.8135  0.0404  0.1552
 7068TIP3   OH242838   6.318   0.159   7.576 -0.6182  0.1993 -0.5326
 7068TIP3    H142839   6.321   0.255   7.572 -0.2145  0.1620 -1.1726
 7068TIP3    H242840   6.366   0.137   7.655 -1.2748  0.5510 -0.0189
 7069TIP3   OH242841   0.003   6.216   1.493  0.1288 -0.5215  0.2544
 7069TIP3    H142842   0.032   6.304   1.468 -0.5926 -0.6443 -1.1228
 7069TIP3    H242843   0.081   6.162   1.484 -0.0157 -0.4980 -1.5768
 7070TIP3   OH242844   4.989   0.487   7.265  0.4525 -0.3137 -0.1436
 7070TIP3    H142845   4.968   0.456   7.177  1.8822 -1.0649 -0.2618
 7070TIP3    H242846   5.047   0.562   7.251  1.0643 -0.7255  0.1446
 7071TIP3   OH242847   6.023   2.570   0.550 -0.7619 -0.0189 -0.0243
 7071TIP3    H142848   6.098   2.628   0.541 -0.5561 -0.1427  0.8841
 7071TIP3    H242849   6.026   2.515   0.471  1.7066 -1.8737  1.2483
 7072TIP3   OH242850   3.168   2.813   8.024  0.0734  0.0168 -0.1790
 7072TIP3    H142851   3.076   2.824   8.050  0.3372 -2.8315  2.5993
 7072TIP3    H242852   3.217   2.862   8.090  0.6122 -0.3036 -0.3418
 7073TIP3   OH242853   1.982   3.988   2.144  0.4091  0.1278  0.4092
 7073TIP3    H142854   1.889   4.008   2.140  0.5403  0.6175 -0.5833
 7073TIP3    H242855   2.022   4.048   2.080  1.6427  1.2308  2.1463
 7074TIP3   OH242856   0.521   3.045   7.441 -0.7999  0.4038  0.2239
 7074TIP3    H142857   0.441   3.036   7.492 -1.9814  0.0592 -1.5848
 7074TIP3    H242858   0.579   2.976   7.473 -0.5601  1.5684  2.5786
 7075TIP3   OH242859   0.477   6.240   8.160 -0.3065  0.3963  0.2763
 7075TIP3    H142860   0.425   6.162   8.177  0.5030 -0.6690 -1.8388
 7075TIP3    H242861   0.537   6.245   8.235 -0.0800 -1.2687  0.2448
 7076TIP3   OH242862   2.198   2.641   8.242  0.5712 -0.1988  0.2332
 7076TIP3    H142863   2.230   2.617   8.328  3.0794 -0.2902 -0.6423
 7076TIP3    H242864   2.224   2.569   8.185 -0.3597  0.2063 -0.7501
 7077TIP3   OH242865   6.022   4.725   7.869  0.0615 -0.1110 -0.3450
 7077TIP3    H142866   6.010   4.739   7.775  0.8900  0.1099 -0.4253
 7077TIP3    H242867   6.051   4.634   7.877 -0.8981 -0.4159 -0.2157
 7078TIP3   OH242868   1.627   0.965   6.172  0.1376  0.6374  0.0622
 7078TIP3    H142869   1.722   0.950   6.173  0.1914  0.5377 -1.9427
 7078TIP3    H242870   1.599   0.931   6.087 -1.6503  1.0108  0.4704
 7079TIP3   OH242871   3.844   4.070   0.814  0.0096 -0.0392  0.6300
 7079TIP3    H142872   3.933   4.087   0.845  0.4293 -1.7857  0.5126
 7079TIP3    H242873   3.818   4.151   0.770  0.7905  1.1894  2.3312
 7080TIP3   OH242874   6.551   1.237   0.993 -0.7020 -0.6072 -0.7089
 7080TIP3    H142875   6.589   1.165   1.045 -0.2028  0.7657  0.9177
 7080TIP3    H242876   6.483   1.195   0.941  0.0390 -2.3789 -0.3417
 7081TIP3   OH242877   0.164   2.974   1.985 -0.2069  0.0726 -0.5121
 7081TIP3    H142878   0.238   2.917   2.006 -0.3924  0.3601  1.0133
 7081TIP3    H242879   0.203   3.044   1.932  0.3918 -0.3658 -0.6701
 7082TIP3   OH242880   5.588   1.134   6.365 -0.4981 -0.0123 -0.8151
 7082TIP3    H142881   5.614   1.220   6.333  2.1921 -1.3069 -2.4874
 7082TIP3    H242882   5.634   1.124   6.449 -1.6694  0.5241 -0.0754
 7083TIP3   OH242883   3.708   3.086   2.249 -0.8867  0.9548 -0.2753
 7083TIP3    H142884   3.675   3.166   2.290 -1.1947  1.1844 -0.9616
 7083TIP3    H242885   3.745   3.115   2.166  1.6403  0.7954  0.7231
 7084TIP3   OH242886   1.698   6.406   6.783  0.0453  0.0460  0.4247
 7084TIP3    H142887   1.691   6.327   6.729  0.3111  0.4904 -0.2704
 7084TIP3    H242888   1.698   6.478   6.720  0.9730  0.5470  0.9741
 7085TIP3   OH242889   0.928   4.708   7.066  0.0111  0.1501  0.6557
 7085TIP3    H142890   0.834   4.711   7.085 -0.1444 -0.7742  0.1356
 7085TIP3    H242891   0.933   4.725   6.972 -0.0497 -3.5302 -0.1932
 7086TIP3   OH242892   2.552   6.744   0.562  0.2971 -0.0411  0.1717
 7086TIP3    H142893   2.527   6.684   0.493  0.3427  1.3422 -1.0875
 7086TIP3    H242894   2.504   6.713   0.639 -0.2688 -1.2194 -0.6242
 7087TIP3   OH242895   5.145   2.834   6.518 -0.1641  0.9009 -0.1354
 7087TIP3    H142896   5.097   2.805   6.441  0.6857 -2.2017  0.3608
 7087TIP3    H242897   5.199   2.906   6.487 -0.3199  0.1533 -2.2867
 7088TIP3   OH242898   5.208   3.628   1.755 -0.0852 -0.3972 -0.2489
 7088TIP3    H142899   5.298   3.601   1.770 -0.1987  0.2781  2.1975
 7088TIP3    H242900   5.159   3.546   1.744  0.3936 -0.9602  1.4965
 7089TIP3   OH242901   3.606   2.790   1.303 -0.4656 -0.0272 -0.2960
 7089TIP3    H142902   3.679   2.729   1.301 -0.9922 -0.6390 -2.1659
 7089TIP3    H242903   3.528   2.735   1.293 -1.2980  0.5339  2.2587
 7090TIP3   OH242904   1.195   6.359   1.176 -0.8213  0.3602  0.6920
 7090TIP3    H142905   1.247   6.330   1.101  0.6180  0.5094  1.5821
 7090TIP3    H242906   1.178   6.279   1.226  0.8374  0.5940  1.7392
 7091TIP3   OH242907   4.734   2.938   0.852  0.2633 -0.1206 -0.7620
 7091TIP3    H142908   4.724   2.930   0.757 -1.3880 -1.7758 -0.5130
 7091TIP3    H242909   4.651   2.975   0.882  0.2007 -0.9622  0.1437
 7092TIP3   OH242910   4.244   2.987   2.549  0.2416  0.8067  0.3898
 7092TIP3    H142911   4.271   2.908   2.595 -1.3519  0.2710  0.4821
 7092TIP3    H242912   4.173   3.023   2.603 -0.6487  0.9759 -0.8426
 7093TIP3   OH242913   3.905   4.468   8.513 -0.3832 -1.3031 -0.1094
 7093TIP3    H142914   3.918   4.391   8.570 -0.0099 -1.9577 -1.0608
 7093TIP3    H242915   3.947   4.444   8.431 -0.4942 -0.1676 -0.5067
 7094TIP3   OH242916   1.735   3.736   0.628 -0.0346  0.2900  0.5854
 7094TIP3    H142917   1.803   3.801   0.609  0.2241 -0.5069 -1.4913
 7094TIP3    H242918   1.782   3.663   0.669  0.3595 -0.1804 -0.6703
 7095TIP3   OH242919   5.702   0.693   8.100  0.2791  1.0410 -0.3640
 7095TIP3    H142920   5.776   0.737   8.143 -0.0132  1.1798  0.0055
 7095TIP3    H242921   5.717   0.706   8.007  1.5455 -0.2485 -0.3877
 7096TIP3   OH242922   0.180   5.307   1.908 -0.2983 -0.2297  0.5170
 7096TIP3    H142923   0.115   5.274   1.846 -0.9875 -0.7229  1.4725
 7096TIP3    H242924   0.251   5.242   1.905 -0.5225 -0.4778  0.5511
 7097TIP3   OH242925   6.749   3.061   7.902 -0.0922 -0.0854 -0.2024
 7097TIP3    H142926   6.823   3.090   7.849 -0.2872 -0.6576 -0.7902
 7097TIP3    H242927   6.673   3.069   7.845 -0.3484 -0.3989  0.0910
 7098TIP3   OH242928   6.180   1.961   6.825 -0.3394  0.3141  0.1644
 7098TIP3    H142929   6.275   1.971   6.831 -0.2067 -1.3055  1.5256
 7098TIP3    H242930   6.145   2.044   6.858  0.5894  0.6394  0.3618
 7099TIP3   OH242931   5.641   6.269   8.533  0.1095  0.8468  0.3073
 7099TIP3    H142932   5.561   6.226   8.503 -1.2115  1.2951  2.9017
 7099TIP3    H242933   5.690   6.201   8.578  0.8746  0.7660 -0.5940
 7100TIP3   OH242934   3.855   0.414   7.225  0.4683 -0.3142  0.1936
 7100TIP3    H142935   3.813   0.481   7.171 -1.9466  0.7902  3.1474
 7100TIP3    H242936   3.790   0.343   7.230  1.0755 -0.8446  0.7914
 7101TIP3   OH242937   2.078   0.320   8.466 -0.3083  0.2814  0.7952
 7101TIP3    H142938   2.077   0.389   8.532  1.1800  0.8106  0.3013
 7101TIP3    H242939   2.154   0.267   8.488 -1.0653 -0.8331  0.7761
 7102TIP3   OH242940   0.186   0.407   6.855 -0.7910  0.1258  0.1535
 7102TIP3    H142941   0.106   0.364   6.887 -0.8759 -0.4911 -0.8235
 7102TIP3    H242942   0.200   0.369   6.768  2.3776 -2.2618  1.5096
 7103TIP3   OH242943   5.758   5.980   8.277  0.2372 -0.3898 -0.5479
 7103TIP3    H142944   5.707   6.041   8.224 -0.2652 -0.7340 -0.4683
 7103TIP3    H242945   5.846   6.018   8.279  0.2325 -0.3138 -1.5213
 7104TIP3   OH242946   1.128   4.892   7.072 -0.1338 -0.3407  0.5069
 7104TIP3    H142947   1.110   4.921   6.983 -0.5714  1.7167  1.2139
 7104TIP3    H242948   1.053   4.837   7.095  1.0122 -2.7278 -1.0797
 7105TIP3   OH242949   4.298   1.557   0.221 -0.0054  0.1593 -0.6772
 7105TIP3    H142950   4.370   1.504   0.189  0.4397  0.5880 -0.4011
 7105TIP3    H242951   4.244   1.574   0.144 -0.7649 -1.5991 -0.5759
 7106TIP3   OH242952   0.954   4.543   1.297 -0.1280 -0.1320  0.0289
 7106TIP3    H142953   0.971   4.484   1.371  1.1567  0.5658  0.3109
 7106TIP3    H242954   0.859   4.541   1.287 -0.3207 -0.3844  1.5849
 7107TIP3   OH242955   5.082   3.146   7.189 -0.1282 -0.5877  0.1696
 7107TIP3    H142956   5.067   3.102   7.272  0.4030  0.6991  0.9728
 7107TIP3    H242957   5.147   3.213   7.208  1.8071 -1.7687 -1.7984
 7108TIP3   OH242958   2.633   0.964   1.342 -0.0611 -0.3984  0.1411
 7108TIP3    H142959   2.595   0.966   1.254 -0.1800 -1.5923  0.1391
 7108TIP3    H242960   2.581   0.897   1.387  0.6500 -0.5002  0.8089
 7109TIP3   OH242961   5.506   4.161   6.896 -0.2537 -0.3658 -0.3080
 7109TIP3    H142962   5.473   4.247   6.920 -0.0049 -0.1942 -0.5709
 7109TIP3    H242963   5.469   4.102   6.961 -1.4581 -0.2540 -0.8714
 7110TIP3   OH242964   3.759   3.242   2.015 -0.3186  0.2055 -0.1061
 7110TIP3    H142965   3.685   3.297   2.043 -0.0059  0.4052  0.3318
 7110TIP3    H242966   3.765   3.258   1.921 -0.1249  1.0580  0.0415
 7111TIP3   OH242967   4.833   0.113   0.185  0.3890  0.0493  0.4109
 7111TIP3    H142968   4.784   0.046   0.136 -0.4044 -0.9332  2.4102
 7111TIP3    H242969   4.918   0.117   0.141 -0.0790 -1.1833 -0.6896
 7112TIP3   OH242970   6.301   2.601   8.060 -0.0559 -0.0615 -0.0771
 7112TIP3    H142971   6.392   2.616   8.032 -0.2995 -0.1939 -0.9589
 7112TIP3    H242972   6.305   2.519   8.110  0.4801  0.4720  0.7906
 7113TIP3   OH242973   1.254   1.723   0.646 -0.2151  0.4246 -0.1972
 7113TIP3    H142974   1.237   1.759   0.559  1.3628  0.0006 -0.7141
 7113TIP3    H242975   1.249   1.799   0.705 -2.0413  0.5977 -0.5020
 7114TIP3   OH242976   2.904   2.842   8.107  0.0295 -0.6100 -0.0548
 7114TIP3    H142977   2.849   2.800   8.042 -1.6752 -0.7795  1.4279
 7114TIP3    H242978   2.846   2.859   8.181  1.3957  1.4355  0.6534
 7115TIP3   OH242979   6.501   4.858   1.689 -0.5005  0.4632 -0.1851
 7115TIP3    H142980   6.572   4.852   1.753 -1.7395 -1.2802  1.1345
 7115TIP3    H242981   6.427   4.814   1.732 -1.9716  0.9984 -2.0547
 7116TIP3   OH242982   1.321   0.172   7.001 -0.2906 -0.2628 -0.3819
 7116TIP3    H142983   1.245   0.168   7.060  0.0567 -0.0886  0.0771
 7116TIP3    H242984   1.365   0.254   7.023  0.3790 -0.6571 -0.2138
 7117TIP3   OH242985   2.170   3.628   0.094 -0.0790 -0.0185  0.0518
 7117TIP3    H142986   2.221   3.551   0.119 -1.4774 -0.7713  0.7133
 7117TIP3    H242987   2.233   3.700   0.094  0.7474 -0.6691  2.1152
 7118TIP3   OH242988   0.511   4.216   8.259  0.0648  0.7064 -0.0212
 7118TIP3    H142989   0.439   4.256   8.211 -1.7876  0.4285  2.3294
 7118TIP3    H242990   0.535   4.281   8.326 -0.4198 -0.5381  1.4240
 7119TIP3   OH242991   1.141   2.247   0.084 -0.2041  0.5080  0.7245
 7119TIP3    H142992   1.072   2.301   0.045 -0.7966  0.3893  1.5708
 7119TIP3    H242993   1.195   2.219   0.010 -0.6344  1.2061  0.1313
 7120TIP3   OH242994   1.119   2.759   7.089  0.5905  0.9344  0.1541
 7120TIP3    H142995   1.085   2.748   7.178 -0.3565 -0.0800 -0.3064
 7120TIP3    H242996   1.199   2.706   7.088  0.4069  0.6487  0.3005
 7121TIP3   OH242997   1.773   4.701   0.060  0.3650  0.4033 -0.4464
 7121TIP3    H142998   1.742   4.782   0.019 -0.3339  1.0281  1.2416
 7121TIP3    H242999   1.807   4.728   0.145 -1.7847 -1.2877  1.0578
 7122TIP3   OH243000   0.332   4.897   8.291 -0.3896  0.2761 -0.2351
 7122TIP3    H143001   0.244   4.925   8.315 -0.1891  0.8300 -0.1372
 7122TIP3    H243002   0.390   4.958   8.336  0.0392  0.1085 -0.5502
 7123TIP3   OH243003   2.028   5.487   7.182  1.1861 -0.3565  0.3398
 7123TIP3    H143004   2.032   5.407   7.235  2.4744 -0.3843  0.2327
 7123TIP3    H243005   1.962   5.468   7.116  1.0362 -1.1060  0.6907
 7124TIP3   OH243006   6.264   1.066   1.832  0.3041 -0.2588 -0.3675
 7124TIP3    H143007   6.273   1.160   1.813  2.4338  0.0613  1.6481
 7124TIP3    H243008   6.197   1.062   1.900 -1.0552 -0.4341 -1.6833
 7125TIP3   OH243009   6.823   0.979   8.124 -0.5437  0.1815 -0.1495
 7125TIP3    H143010   6.857   1.053   8.175  0.5538 -0.2645 -0.1878
 7125TIP3    H243011   6.826   0.905   8.184  0.9953 -0.4039 -0.8771
 7126TIP3   OH243012   5.692   2.681   0.935  0.2871 -0.1450  0.3730
 7126TIP3    H143013   5.646   2.725   0.863  0.1696 -0.0774  0.4875
 7126TIP3    H243014   5.687   2.743   1.008  2.7353  0.9714 -0.2973
 7127TIP3   OH243015   0.688   4.801   7.500 -0.1762  0.1352 -0.9702
 7127TIP3    H143016   0.721   4.714   7.520 -1.9421 -1.2773 -3.6202
 7127TIP3    H243017   0.757   4.840   7.446 -0.1494 -0.3910 -1.3305
 7128TIP3   OH243018   5.650   0.363   2.325  1.0256  0.2811 -0.6711
 7128TIP3    H143019   5.688   0.310   2.395 -2.5550  0.4501  1.6123
 7128TIP3    H243020   5.594   0.302   2.276  1.4205  0.7570 -1.7562
 7129TIP3   OH243021   4.051   4.132   2.180  0.5247 -0.6231 -0.4969
 7129TIP3    H143022   4.114   4.176   2.123  0.5460 -0.8506 -0.6492
 7129TIP3    H243023   3.966   4.164   2.152  0.6696  1.5430  1.2634
 7130TIP3   OH243024   1.465   0.201   1.443 -0.2364 -0.3966 -0.2682
 7130TIP3    H143025   1.446   0.112   1.411 -1.2473 -0.2737 -0.0366
 7130TIP3    H243026   1.379   0.239   1.461  0.2503 -0.2242  1.9661
 7131TIP3   OH243027   6.736   0.311   7.584  0.2330 -0.7443  0.2295
 7131TIP3    H143028   6.825   0.284   7.564  1.5572  2.3642  1.2978
 7131TIP3    H243029   6.700   0.339   7.499  1.9406  2.1017  0.3263
 7132TIP3   OH243030   0.630   3.152   2.098 -0.3570  0.1306  0.0817
 7132TIP3    H143031   0.544   3.181   2.125 -0.2518  0.7239 -0.1983
 7132TIP3    H243032   0.668   3.111   2.176 -0.8076  0.0553  0.2615
 7133TIP3   OH243033   6.342   4.818   1.459  0.0865  0.0607 -0.2560
 7133TIP3    H143034   6.258   4.800   1.502 -0.8164  1.1994 -1.4503
 7133TIP3    H243035   6.401   4.842   1.530 -0.9288  0.3842  0.5004
 7134TIP3   OH243036   6.722   3.841   6.109 -0.5342  0.2311 -0.0748
 7134TIP3    H143037   6.657   3.910   6.101 -0.2531  0.5580  0.4046
 7134TIP3    H243038   6.806   3.885   6.095 -0.4272 -0.2508 -1.0466
 7135TIP3   OH243039   1.238   5.527   7.794 -0.2331  0.2452 -0.1807
 7135TIP3    H143040   1.318   5.551   7.746 -0.8246  1.1177 -0.7693
 7135TIP3    H243041   1.261   5.447   7.841  0.4248 -0.6053 -1.8364
 7136TIP3   OH243042   0.758   6.359   0.922  0.2629  0.2236 -0.3966
 7136TIP3    H143043   0.666   6.336   0.911  0.2994 -0.3885  0.4458
 7136TIP3    H243044   0.806   6.278   0.907  0.6337  0.4406 -0.4096
 7137TIP3   OH243045   1.637   2.240   7.508  0.2571 -1.0007  0.0921
 7137TIP3    H143046   1.702   2.302   7.540 -0.7649  0.5801 -0.7422
 7137TIP3    H243047   1.668   2.215   7.421 -1.3518  1.6508 -1.3668
 7138TIP3   OH243048   3.554   1.926   8.235 -0.0178  0.1560  0.0365
 7138TIP3    H143049   3.472   1.920   8.186 -1.2327  1.3999  1.7900
 7138TIP3    H243050   3.527   1.927   8.327  2.1251 -1.4301  0.7712
 7139TIP3   OH243051   0.435   3.702   2.058 -0.3977  0.0036 -0.6268
 7139TIP3    H143052   0.484   3.622   2.043 -0.5901 -0.2756  0.1832
 7139TIP3    H243053   0.378   3.682   2.132  1.2899  1.6359  1.2211
 7140TIP3   OH243054   0.727   1.020   0.979 -0.5365  0.0297  0.5930
 7140TIP3    H143055   0.727   1.054   0.890  0.5093 -1.6512 -0.0971
 7140TIP3    H243056   0.684   0.935   0.972  0.1179 -0.3979  1.5752
 7141TIP3   OH243057   6.460   2.396   7.002  0.3836 -0.1818 -0.3986
 7141TIP3    H143058   6.381   2.431   7.045  0.8716 -0.2463  0.5609
 7141TIP3    H243059   6.499   2.472   6.960  2.6474  1.1130  3.4936
 7142TIP3   OH243060   3.399   6.247   6.923  0.1665 -0.5495  0.0852
 7142TIP3    H143061   3.407   6.188   6.848  0.4181  0.8532 -1.0307
 7142TIP3    H243062   3.304   6.258   6.935  0.1211 -1.0566  0.2097
 7143TIP3   OH243063   1.773   0.489   0.169 -0.2984  0.2817 -0.2125
 7143TIP3    H143064   1.855   0.445   0.189 -0.8928 -0.5568  0.4658
 7143TIP3    H243065   1.733   0.435   0.101 -1.3310 -0.6516  1.0745
 7144TIP3   OH243066   3.737   3.352   1.598 -0.7427  1.0945 -0.3093
 7144TIP3    H143067   3.781   3.297   1.534  2.1887  1.0519  1.5648
 7144TIP3    H243068   3.665   3.297   1.631 -1.9390  0.9085 -2.9923
 7145TIP3   OH243069   4.441   4.989   7.326 -0.0454 -0.3974  0.0019
 7145TIP3    H143070   4.414   4.983   7.418 -1.7311 -0.3168 -0.4476
 7145TIP3    H243071   4.394   5.065   7.292 -0.6750 -1.3171 -1.2964
 7146TIP3   OH243072   2.575   6.918   2.778 -0.1086 -0.0354  0.2526
 7146TIP3    H143073   2.528   7.000   2.790 -0.0621  0.2464 -1.2183
 7146TIP3    H243074   2.544   6.886   2.692  2.3599  0.1643 -0.7768
 7147TIP3   OH243075   0.735   3.165   0.267  0.2449  0.0337 -0.5586
 7147TIP3    H143076   0.721   3.092   0.206  0.6556  0.2775 -0.9552
 7147TIP3    H243077   0.691   3.239   0.226 -1.5310 -0.3166  0.5946
 7148TIP3   OH243078   6.859   4.567   1.700  0.1311  0.2056  0.4741
 7148TIP3    H143079   6.947   4.580   1.665 -0.3885  2.7030 -0.0708
 7148TIP3    H243080   6.841   4.645   1.752 -1.3906 -0.7354  1.4474
 7149TIP3   OH243081   3.212   6.246   0.896  0.0221 -0.2035 -0.1812
 7149TIP3    H143082   3.286   6.213   0.947 -0.0384 -1.3449 -0.8151
 7149TIP3    H243083   3.191   6.176   0.835 -0.8497  0.5665 -0.7951
 7150TIP3   OH243084   4.608   3.977   1.495 -0.1671  0.3117 -0.1202
 7150TIP3    H143085   4.672   4.024   1.442  0.0067  0.0644 -0.1323
 7150TIP3    H243086   4.536   4.039   1.506 -1.2548 -0.3702 -2.5967
 7151TIP3   OH243087   0.922   0.997   7.402  0.0127  0.2814  0.1923
 7151TIP3    H143088   0.970   1.022   7.323  0.0346  2.2259  0.7638
 7151TIP3    H243089   0.854   0.937   7.371 -0.3286  1.4095 -1.4011
 7152TIP3   OH243090   5.542   5.376   7.703 -0.0266  0.2556 -0.1498
 7152TIP3    H143091   5.595   5.306   7.740 -0.5112 -0.1581 -0.2261
 7152TIP3    H243092   5.485   5.332   7.640 -1.2261  0.5142  0.7091
 7153TIP3   OH243093   2.333   6.911   8.325 -0.3258 -0.3856 -0.2782
 7153TIP3    H143094   2.428   6.906   8.320 -0.2987  0.2167 -0.4653
 7153TIP3    H243095   2.303   6.823   8.301  0.1791 -0.5742 -0.2323
 7154TIP3   OH243096   2.957   1.123   7.895  0.3695  0.0849 -0.2354
 7154TIP3    H143097   3.002   1.183   7.955  0.9492 -0.9801  0.4271
 7154TIP3    H243098   2.917   1.180   7.830  0.6848  1.2084  0.5223
 7155TIP3   OH243099   1.902   0.039   1.806 -0.0099  0.1149 -0.4404
 7155TIP3    H143100   1.888   0.098   1.732  1.5345  1.5342  0.3074
 7155TIP3    H243101   1.839   0.067   1.872  0.7633  1.0586 -0.0615
 7156TIP3   OH243102   3.275   4.371   0.073 -0.1907 -0.0846 -0.0567
 7156TIP3    H143103   3.281   4.277   0.057 -0.7168 -0.4317  1.5454
 7156TIP3    H243104   3.318   4.383   0.158 -0.2058  1.1109 -0.2086
 7157TIP3   OH243105   3.759   0.558   7.676 -0.7790 -0.4037 -0.1921
 7157TIP3    H143106   3.776   0.501   7.601  0.5462  1.0778 -1.0608
 7157TIP3    H243107   3.702   0.626   7.642  0.6777  0.8698 -0.1494
 7158TIP3   OH243108   0.044   0.676   6.846 -0.0973 -0.3328 -0.2610
 7158TIP3    H143109  -0.045   0.652   6.819 -1.3916  0.7725  2.6202
 7158TIP3    H243110   0.081   0.595   6.881 -0.2598 -0.6151 -0.7312
 7159TIP3   OH243111   6.687   0.538   6.808  0.0733  0.2898  0.2315
 7159TIP3    H143112   6.702   0.588   6.888 -0.3396  0.9171 -0.0697
 7159TIP3    H243113   6.701   0.602   6.737 -0.9887  0.1263 -0.1423
 7160TIP3   OH243114   2.214   1.505   1.261  0.0605 -0.5687 -0.1837
 7160TIP3    H143115   2.306   1.498   1.288  0.5771 -1.2291 -1.9226
 7160TIP3    H243116   2.203   1.596   1.236  0.5034 -0.6504 -0.7181
 7161TIP3   OH243117   5.682   3.856   6.789 -0.1899  0.5438  0.3403
 7161TIP3    H143118   5.691   3.945   6.754 -0.7635  0.4788  0.0189
 7161TIP3    H243119   5.736   3.857   6.868  1.4122  0.5875 -0.7049
 7162TIP3   OH243120   0.433   3.228   0.905  0.4061  0.7129 -0.6534
 7162TIP3    H143121   0.457   3.321   0.906  1.4926  0.4373 -0.1046
 7162TIP3    H243122   0.340   3.228   0.926  0.6964  1.6101  0.7990
 7163TIP3   OH243123   5.096   2.217   0.461  0.2361  0.0631 -0.3612
 7163TIP3    H143124   5.053   2.185   0.539  0.6930  0.4077  0.0396
 7163TIP3    H243125   5.090   2.145   0.398 -1.2015  0.2244 -0.4311
 7164TIP3   OH243126   0.753   1.397   7.907  0.3397  0.7987  0.2222
 7164TIP3    H143127   0.775   1.457   7.836 -0.4493 -0.3880 -1.0765
 7164TIP3    H243128   0.836   1.358   7.932  0.5966  1.0749 -0.1923
 7165TIP3   OH243129   0.756   1.574   7.704 -0.4174  0.4038  0.5969
 7165TIP3    H143130   0.821   1.552   7.637 -0.3496 -0.0509  0.8130
 7165TIP3    H243131   0.677   1.595   7.654 -1.1018 -2.2665  0.4194
 7166TIP3   OH243132   6.426   4.140   1.779  0.5709  0.3809 -0.0890
 7166TIP3    H143133   6.372   4.150   1.700  1.6769 -0.5820 -1.0061
 7166TIP3    H243134   6.450   4.230   1.803  1.9438  0.6356 -2.1175
 7167TIP3   OH243135   3.614   0.261   7.221 -0.7625  0.2083  0.0154
 7167TIP3    H143136   3.568   0.232   7.299 -1.2990 -3.7329 -1.5413
 7167TIP3    H243137   3.560   0.230   7.148  1.2600  0.9680 -1.9297
 7168TIP3   OH243138   5.518   0.643   7.662 -0.4315 -0.2715 -0.0910
 7168TIP3    H143139   5.462   0.609   7.593 -0.3659 -0.0276 -0.2630
 7168TIP3    H243140   5.541   0.565   7.714 -0.1105 -0.5241 -0.6085
 7169TIP3   OH243141   5.128   6.050   6.457  0.0701  0.6897  0.3378
 7169TIP3    H143142   5.049   6.102   6.441  0.3008  1.1891  0.8233
 7169TIP3    H243143   5.199   6.102   6.419  0.2544  0.5467  0.4895
 7170TIP3   OH243144   6.784   1.508   7.022 -0.0304  0.4467 -0.1821
 7170TIP3    H143145   6.795   1.539   6.932  2.1245 -0.4677 -0.3026
 7170TIP3    H243146   6.786   1.587   7.075 -1.1934  0.9911 -0.9008
 7171TIP3   OH243147   1.519   0.286   1.868 -0.2537 -0.2086 -0.2514
 7171TIP3    H143148   1.563   0.306   1.785 -2.1231  1.8890 -0.8264
 7171TIP3    H243149   1.450   0.224   1.845 -0.9035  0.5305 -0.3360
 7172TIP3   OH243150   6.633   5.407   1.685 -0.2304  0.3872  0.3332
 7172TIP3    H143151   6.585   5.489   1.699  0.7683  1.1629 -0.6779
 7172TIP3    H243152   6.605   5.351   1.758 -2.6569  0.8054 -0.1930
 7173TIP3   OH243153   4.124   6.160   1.397 -0.1769 -0.7597 -0.0899
 7173TIP3    H143154   4.056   6.227   1.385  0.5652 -0.0530 -0.4017
 7173TIP3    H243155   4.116   6.105   1.319  0.0862 -0.2418 -0.4918
 7174TIP3   OH243156   4.593   5.303   7.963 -0.3240 -0.2556 -0.2865
 7174TIP3    H143157   4.642   5.226   7.992 -1.3406 -0.4889  0.9006
 7174TIP3    H243158   4.609   5.308   7.869 -0.0060 -1.7456 -0.3321
 7175TIP3   OH243159   4.251   1.945   8.125 -0.3653 -0.1000  0.5171
 7175TIP3    H143160   4.189   2.013   8.099 -0.8078  0.3816  2.6797
 7175TIP3    H243161   4.276   1.903   8.043 -1.9225  1.0893 -0.6196
 7176TIP3   OH243162   2.191   0.209   6.914  0.2401  0.0164 -0.2390
 7176TIP3    H143163   2.281   0.185   6.893 -0.0546 -0.9962 -0.4144
 7176TIP3    H243164   2.156   0.244   6.833  0.8600  1.7026  0.1803
 7177TIP3   OH243165   2.034   4.518   7.380  0.2522  0.8206  0.4387
 7177TIP3    H143166   1.982   4.575   7.324  0.9012  0.4087 -0.6186
 7177TIP3    H243167   2.110   4.572   7.405  1.7738 -0.0232 -1.9779
 7178TIP3   OH243168   2.877   6.057   7.209  0.3622  0.3987 -0.2583
 7178TIP3    H143169   2.915   6.143   7.190 -1.8451  2.1037  2.2413
 7178TIP3    H243170   2.785   6.065   7.182  0.0817 -1.1420  0.1295
 7179TIP3   OH243171   5.894   4.833   8.107  0.3415 -0.2393 -0.0006
 7179TIP3    H143172   5.933   4.781   8.036 -0.3569 -1.5716  0.5607
 7179TIP3    H243173   5.950   4.816   8.182  0.4786  0.3440  0.0315
 7180TIP3   OH243174   1.185   0.710   7.010 -0.4158 -0.7443 -0.4543
 7180TIP3    H143175   1.228   0.674   6.932 -1.8325 -0.2143 -1.5324
 7180TIP3    H243176   1.256   0.727   7.071  0.4672 -3.9821 -0.4194
 7181TIP3   OH243177   5.039   6.014   1.863 -0.0500  0.7725  0.6327
 7181TIP3    H143178   5.117   5.961   1.879 -0.6440 -0.1328  0.5890
 7181TIP3    H243179   4.976   5.984   1.928 -0.5968  1.0061  0.2191
 7182TIP3   OH243180   3.822   2.304   6.808  0.6964  0.0618  0.1832
 7182TIP3    H143181   3.899   2.361   6.804  0.5021  0.2593 -1.4307
 7182TIP3    H243182   3.853   2.219   6.777  1.0913 -0.9327  2.9848
 7183LIG      O43183   5.704   3.500   2.196  0.1314 -0.6291 -0.6959
 7183LIG     C143184   5.568   3.532   2.215  0.0711  0.2739 -0.7414
 7183LIG     C243185   5.484   3.444   2.126 -0.8690 -0.6513  0.3303
 7183LIG     C343186   5.523   3.505   2.360  0.6676  0.1981  0.2194
 7183LIG     H143187   5.549   3.640   2.204 -0.1565  0.5314  1.6555
 7183LIG     H243188   5.377   3.449   2.153  0.0299 -0.2679  4.5623
 7183LIG     H343189   5.518   3.340   2.149 -0.2791 -0.1334  1.9636
 7183LIG     H443190   5.508   3.471   2.021  1.4442  0.8243  1.1389
 7183LIG     H543191   5.567   3.568   2.440  0.4389 -0.4009  0.8210
 7183LIG     H643192   5.542   3.400   2.391  2.1888  0.9523  2.0648
 7183LIG     H743193   5.415   3.530   2.357  0.7190  0.3739 -1.7421
 7183LIG     H843194   5.751   3.583   2.202 -0.7179 -0.2475  1.0979
   6.96153   6.96153   8.56535
